mobley_2197088_GMX.gro created by acpype (v: 2023.10.27) on Thu May 21 00:04:07 2026
14687
    1MOL     C1    1   3.040   3.055   2.821
    1MOL     C2    2   2.289   2.258   2.492
    1MOL     C3    3   2.967   2.924   2.848
    1MOL     C4    4   2.362   2.388   2.464
    1MOL     C5    5   2.867   2.892   2.737
    1MOL     C6    6   2.448   2.430   2.584
    1MOL     C7    7   2.791   2.762   2.766
    1MOL     C8    8   2.523   2.562   2.561
    1MOL     C9    9   2.694   2.728   2.653
    1MOL    C10   10   2.615   2.600   2.678
    1MOL     H1   11   3.111   3.076   2.902
    1MOL     H2   12   2.970   3.139   2.815
    1MOL     H3   13   3.096   3.050   2.727
    1MOL     H4   14   2.228   2.230   2.405
    1MOL     H5   15   2.359   2.176   2.511
    1MOL     H6   16   2.223   2.268   2.578
    1MOL     H7   17   2.915   2.932   2.944
    1MOL     H8   18   3.040   2.843   2.857
    1MOL     H9   19   2.289   2.466   2.441
    1MOL    H10   20   2.426   2.376   2.375
    1MOL    H11   21   2.921   2.883   2.642
    1MOL    H12   22   2.796   2.975   2.726
    1MOL    H13   23   2.522   2.352   2.604
    1MOL    H14   24   2.385   2.438   2.673
    1MOL    H15   25   2.737   2.774   2.861
    1MOL    H16   26   2.863   2.680   2.780
    1MOL    H17   27   2.451   2.642   2.542
    1MOL    H18   28   2.583   2.552   2.470
    1MOL    H19   29   2.751   2.716   2.560
    1MOL    H20   30   2.625   2.812   2.637
    1MOL    H21   31   2.556   2.611   2.770
    1MOL    H22   32   2.686   2.518   2.696
    2SOL     OW   33   0.230   0.628   0.113
    2SOL    HW1   34   0.137   0.626   0.150
    2SOL    HW2   35   0.231   0.589   0.021
    3SOL     OW   36   0.225   0.275   0.996
    3SOL    HW1   37   0.260   0.258   1.088
    3SOL    HW2   38   0.137   0.230   0.984
    4SOL     OW   39   0.019   0.368   0.647
    4SOL    HW1   40  -0.063   0.411   0.686
    4SOL    HW2   41  -0.009   0.295   0.584
    5SOL     OW   42   0.569   1.275   1.165
    5SOL    HW1   43   0.476   1.268   1.128
    5SOL    HW2   44   0.580   1.364   1.209
    6SOL     OW   45   1.555   1.511   0.703
    6SOL    HW1   46   1.498   1.495   0.784
    6SOL    HW2   47   1.496   1.521   0.623
    7SOL     OW   48   1.135   0.703   0.717
    7SOL    HW1   49   1.192   0.781   0.692
    7SOL    HW2   50   1.075   0.729   0.793
    8SOL     OW   51   1.755   0.607   0.231
    8SOL    HW1   52   1.743   0.594   0.132
    8SOL    HW2   53   1.725   0.526   0.280
    9SOL     OW   54   0.768   1.144   1.023
    9SOL    HW1   55   0.690   1.161   1.083
    9SOL    HW2   56   0.802   1.231   0.987
   10SOL     OW   57   0.850   0.798   1.823
   10SOL    HW1   58   0.846   0.874   1.888
   10SOL    HW2   59   0.872   0.834   1.732
   11SOL     OW   60   0.685   1.012   0.665
   11SOL    HW1   61   0.754   0.996   0.735
   11SOL    HW2   62   0.612   1.069   0.703
   12SOL     OW   63   0.686   1.161   1.803
   12SOL    HW1   64   0.746   1.240   1.817
   12SOL    HW2   65   0.600   1.192   1.762
   13SOL     OW   66   0.335   1.435   1.061
   13SOL    HW1   67   0.257   1.404   1.008
   13SOL    HW2   68   0.393   1.493   1.004
   14SOL     OW   69   1.460   1.505   1.339
   14SOL    HW1   70   1.484   1.599   1.365
   14SOL    HW2   71   1.444   1.451   1.421
   15SOL     OW   72   0.438   0.392   1.499
   15SOL    HW1   73   0.520   0.336   1.508
   15SOL    HW2   74   0.357   0.334   1.503
   16SOL     OW   75   1.603   0.447   0.737
   16SOL    HW1   76   1.529   0.493   0.687
   16SOL    HW2   77   1.654   0.515   0.790
   17SOL     OW   78   0.231   1.713   0.483
   17SOL    HW1   79   0.265   1.790   0.537
   17SOL    HW2   80   0.275   1.713   0.393
   18SOL     OW   81   1.127   1.341   1.690
   18SOL    HW1   82   1.174   1.341   1.778
   18SOL    HW2   83   1.079   1.254   1.679
   19SOL     OW   84   0.230   1.434   0.538
   19SOL    HW1   85   0.204   1.530   0.538
   19SOL    HW2   86   0.159   1.380   0.583
   20SOL     OW   87   0.240   1.091   0.886
   20SOL    HW1   88   0.254   1.007   0.938
   20SOL    HW2   89   0.185   1.155   0.941
   21SOL     OW   90   0.620   1.786   1.439
   21SOL    HW1   91   0.528   1.769   1.474
   21SOL    HW2   92   0.648   1.878   1.465
   22SOL     OW   93   0.606   0.964   0.123
   22SOL    HW1   94   0.613   1.048   0.069
   22SOL    HW2   95   0.652   0.977   0.211
   23SOL     OW   96   1.594   0.114   1.480
   23SOL    HW1   97   1.576   0.181   1.408
   23SOL    HW2   98   1.591   0.160   1.569
   24SOL     OW   99   0.122   0.643   0.563
   24SOL    HW1  100   0.077   0.555   0.580
   24SOL    HW2  101   0.121   0.697   0.647
   25SOL     OW  102   1.842   1.767   0.359
   25SOL    HW1  103   1.896   1.738   0.439
   25SOL    HW2  104   1.872   1.857   0.330
   26SOL     OW  105   0.027   1.596   0.117
   26SOL    HW1  106   0.008   1.500   0.138
   26SOL    HW2  107  -0.006   1.654   0.192
   27SOL     OW  108   1.689   0.922   0.612
   27SOL    HW1  109   1.784   0.893   0.620
   27SOL    HW2  110   1.681   0.987   0.537
   28SOL     OW  111   1.641   1.108   0.432
   28SOL    HW1  112   1.727   1.110   0.380
   28SOL    HW2  113   1.655   1.155   0.520
   29SOL     OW  114   0.113   0.737   1.597
   29SOL    HW1  115   0.201   0.724   1.642
   29SOL    HW2  116   0.100   0.834   1.575
   30SOL     OW  117   0.613   1.365   0.726
   30SOL    HW1  118   0.564   1.278   0.735
   30SOL    HW2  119   0.590   1.408   0.639
   31SOL     OW  120   1.293   1.228   1.423
   31SOL    HW1  121   1.330   1.155   1.365
   31SOL    HW2  122   1.345   1.233   1.508
   32SOL     OW  123   0.809   0.004   0.502
   32SOL    HW1  124   0.849   0.095   0.493
   32SOL    HW2  125   0.709   0.012   0.508
   33SOL     OW  126   0.197   0.976   1.264
   33SOL    HW1  127   0.286   0.931   1.250
   33SOL    HW2  128   0.124   0.911   1.245
   34SOL     OW  129   1.525   0.999   0.190
   34SOL    HW1  130   1.462   0.923   0.203
   34SOL    HW2  131   1.573   1.017   0.276
   35SOL     OW  132   1.187   1.792   1.616
   35SOL    HW1  133   1.211   1.852   1.540
   35SOL    HW2  134   1.194   1.697   1.586
   36SOL     OW  135   0.317   0.251   1.801
   36SOL    HW1  136   0.388   0.322   1.807
   36SOL    HW2  137   0.229   0.290   1.829
   37SOL     OW  138   1.466   1.417   0.953
   37SOL    HW1  139   1.407   1.423   1.033
   37SOL    HW2  140   1.451   1.329   0.907
   38SOL     OW  141   1.667   1.714   0.572
   38SOL    HW1  142   1.626   1.691   0.484
   38SOL    HW2  143   1.649   1.640   0.637
   39SOL     OW  144   0.598   0.729   0.270
   39SOL    HW1  145   0.622   0.798   0.202
   39SOL    HW2  146   0.520   0.762   0.324
   40SOL     OW  147   1.281   0.345   0.944
   40SOL    HW1  148   1.195   0.295   0.931
   40SOL    HW2  149   1.343   0.291   1.000
   41SOL     OW  150   1.576   1.662   0.307
   41SOL    HW1  151   1.665   1.708   0.310
   41SOL    HW2  152   1.555   1.638   0.212
   42SOL     OW  153   0.807   0.605   1.465
   42SOL    HW1  154   0.760   0.602   1.554
   42SOL    HW2  155   0.756   0.550   1.399
   43SOL     OW  156   1.394   0.469   1.674
   43SOL    HW1  157   1.374   0.512   1.762
   43SOL    HW2  158   1.472   0.407   1.683
   44SOL     OW  159   0.973   0.890   1.572
   44SOL    HW1  160   1.019   0.806   1.543
   44SOL    HW2  161   0.917   0.924   1.497
   45SOL     OW  162   0.991   0.410   1.242
   45SOL    HW1  163   0.914   0.444   1.296
   45SOL    HW2  164   0.957   0.359   1.163
   46SOL     OW  165   1.041   0.701   0.429
   46SOL    HW1  166   1.067   0.697   0.525
   46SOL    HW2  167   0.956   0.650   0.415
   47SOL     OW  168   0.076   0.811   0.789
   47SOL    HW1  169   0.175   0.799   0.798
   47SOL    HW2  170   0.052   0.906   0.810
   48SOL     OW  171   0.130   1.821   1.571
   48SOL    HW1  172   0.120   1.806   1.670
   48SOL    HW2  173   0.044   1.857   1.535
   49SOL     OW  174   0.865   0.348   0.195
   49SOL    HW1  175   0.924   0.411   0.146
   49SOL    HW2  176   0.884   0.254   0.166
   50SOL     OW  177   1.719   0.585   1.831
   50SOL    HW1  178   1.693   0.674   1.795
   50SOL    HW2  179   1.717   0.517   1.758
   51SOL     OW  180   1.362   1.144   0.545
   51SOL    HW1  181   1.445   1.115   0.497
   51SOL    HW2  182   1.313   1.211   0.489
   52SOL     OW  183   0.550   0.196   0.885
   52SOL    HW1  184   0.545   0.191   0.985
   52SOL    HW2  185   0.552   0.292   0.856
   53SOL     OW  186   1.008   1.456   0.477
   53SOL    HW1  187   0.962   1.528   0.425
   53SOL    HW2  188   1.004   1.476   0.575
   54SOL     OW  189   0.351   1.801   0.853
   54SOL    HW1  190   0.401   1.715   0.859
   54SOL    HW2  191   0.416   1.878   0.850
   55SOL     OW  192   1.795   1.066   0.873
   55SOL    HW1  193   1.733   1.051   0.797
   55SOL    HW2  194   1.743   1.077   0.958
   56SOL     OW  195   1.227   1.550   1.506
   56SOL    HW1  196   1.233   1.473   1.570
   56SOL    HW2  197   1.175   1.524   1.426
   57SOL     OW  198   0.321   0.943   0.242
   57SOL    HW1  199   0.403   0.982   0.200
   57SOL    HW2  200   0.294   0.861   0.193
   58SOL     OW  201   1.458   0.735   0.728
   58SOL    HW1  202   1.453   0.670   0.803
   58SOL    HW2  203   1.538   0.794   0.741
   59SOL     OW  204   0.461   1.266   1.727
   59SOL    HW1  205   0.411   1.267   1.641
   59SOL    HW2  206   0.398   1.248   1.803
   60SOL     OW  207   1.111   1.776   0.237
   60SOL    HW1  208   1.051   1.714   0.287
   60SOL    HW2  209   1.142   1.732   0.152
   61SOL     OW  210   0.202   0.285   1.498
   61SOL    HW1  211   0.122   0.345   1.485
   61SOL    HW2  212   0.192   0.236   1.584
   62SOL     OW  213   1.632   1.377   0.081
   62SOL    HW1  214   1.600   1.471   0.071
   62SOL    HW2  215   1.556   1.314   0.069
   63SOL     OW  216   0.464   1.743   0.323
   63SOL    HW1  217   0.497   1.782   0.409
   63SOL    HW2  218   0.540   1.736   0.258
   64SOL     OW  219   1.400   0.107   0.426
   64SOL    HW1  220   1.376   0.070   0.336
   64SOL    HW2  221   1.499   0.123   0.430
   65SOL     OW  222   0.249   1.785   1.241
   65SOL    HW1  223   0.306   1.720   1.291
   65SOL    HW2  224   0.233   1.752   1.148
   66SOL     OW  225   0.940   1.698   0.904
   66SOL    HW1  226   1.020   1.641   0.925
   66SOL    HW2  227   0.891   1.658   0.827
   67SOL     OW  228   0.382   0.700   0.480
   67SOL    HW1  229   0.427   0.610   0.477
   67SOL    HW2  230   0.288   0.689   0.513
   68SOL     OW  231   1.547   0.222   1.729
   68SOL    HW1  232   1.542   0.259   1.821
   68SOL    HW2  233   1.475   0.153   1.717
   69SOL     OW  234   0.614   0.122   0.117
   69SOL    HW1  235   0.712   0.100   0.124
   69SOL    HW2  236   0.583   0.105   0.024
   70SOL     OW  237   0.781   0.264   1.749
   70SOL    HW1  238   0.848   0.203   1.792
   70SOL    HW2  239   0.708   0.283   1.814
   71SOL     OW  240   0.888   1.514   1.195
   71SOL    HW1  241   0.865   1.489   1.101
   71SOL    HW2  242   0.949   1.445   1.234
   72SOL     OW  243   1.351   0.590   1.433
   72SOL    HW1  244   1.379   0.547   1.518
   72SOL    HW2  245   1.376   0.686   1.434
   73SOL     OW  246   0.803   1.402   0.924
   73SOL    HW1  247   0.893   1.416   0.882
   73SOL    HW2  248   0.732   1.404   0.853
   74SOL     OW  249   0.922   0.503   0.899
   74SOL    HW1  250   0.897   0.494   0.803
   74SOL    HW2  251   0.970   0.421   0.930
   75SOL     OW  252   0.539   0.064   0.512
   75SOL    HW1  253   0.458   0.065   0.570
   75SOL    HW2  254   0.542   0.147   0.457
   76SOL     OW  255   1.434   1.188   0.041
   76SOL    HW1  256   1.466   1.112   0.098
   76SOL    HW2  257   1.342   1.215   0.071
   77SOL     OW  258   0.297   0.035   0.171
   77SOL    HW1  259   0.346   0.119   0.150
   77SOL    HW2  260   0.359  -0.030   0.216
   78SOL     OW  261   0.935   0.236   0.480
   78SOL    HW1  262   0.887   0.277   0.402
   78SOL    HW2  263   1.034   0.234   0.461
   79SOL     OW  264   1.076   0.683   1.464
   79SOL    HW1  265   0.996   0.622   1.467
   79SOL    HW2  266   1.157   0.630   1.440
   80SOL     OW  267   1.227   1.570   0.793
   80SOL    HW1  268   1.248   1.644   0.728
   80SOL    HW2  269   1.295   1.570   0.866
   81SOL     OW  270   0.459   1.152   0.741
   81SOL    HW1  271   0.388   1.125   0.806
   81SOL    HW2  272   0.433   1.124   0.648
   82SOL     OW  273   1.271   1.797   0.591
   82SOL    HW1  274   1.315   1.861   0.527
   82SOL    HW2  275   1.221   1.849   0.661
   83SOL     OW  276   1.032   0.549   0.016
   83SOL    HW1  277   0.991   0.631  -0.023
   83SOL    HW2  278   1.096   0.575   0.089
   84SOL     OW  279   0.078   0.556   1.386
   84SOL    HW1  280   0.170   0.555   1.345
   84SOL    HW2  281   0.072   0.630   1.453
   85SOL     OW  282   0.561   0.222   1.147
   85SOL    HW1  283   0.599   0.138   1.184
   85SOL    HW2  284   0.473   0.241   1.191
   86SOL     OW  285   0.866   0.454   0.642
   86SOL    HW1  286   0.834   0.526   0.580
   86SOL    HW2  287   0.890   0.373   0.589
   87SOL     OW  288   1.017   0.039   0.753
   87SOL    HW1  289   0.945   0.044   0.684
   87SOL    HW2  290   0.993  -0.030   0.822
   88SOL     OW  291   1.429   1.173   0.867
   88SOL    HW1  292   1.374   1.089   0.860
   88SOL    HW2  293   1.455   1.202   0.775
   89SOL     OW  294   1.466   0.590   0.992
   89SOL    HW1  295   1.436   0.495   0.999
   89SOL    HW2  296   1.539   0.606   1.058
   90SOL     OW  297   1.857   0.833   0.377
   90SOL    HW1  298   1.899   0.769   0.441
   90SOL    HW2  299   1.819   0.782   0.299
   91SOL     OW  300   0.488   1.385   0.174
   91SOL    HW1  301   0.401   1.370   0.221
   91SOL    HW2  302   0.471   1.411   0.079
   92SOL     OW  303   1.664   1.280   0.657
   92SOL    HW1  304   1.763   1.288   0.671
   92SOL    HW2  305   1.619   1.364   0.688
   93SOL     OW  306   1.390   0.575   0.078
   93SOL    HW1  307   1.336   0.554   0.159
   93SOL    HW2  308   1.481   0.534   0.087
   94SOL     OW  309   0.527   0.256   0.328
   94SOL    HW1  310   0.554   0.197   0.253
   94SOL    HW2  311   0.527   0.351   0.297
   95SOL     OW  312   1.754   1.223   1.588
   95SOL    HW1  313   1.845   1.184   1.575
   95SOL    HW2  314   1.762   1.319   1.612
   96SOL     OW  315   1.064   1.347   1.340
   96SOL    HW1  316   0.984   1.324   1.395
   96SOL    HW2  317   1.147   1.321   1.389
   97SOL     OW  318   1.592   1.629   1.625
   97SOL    HW1  319   1.619   1.663   1.535
   97SOL    HW2  320   1.671   1.591   1.671
   98SOL     OW  321   1.111   1.195   1.100
   98SOL    HW1  322   1.071   1.239   1.181
   98SOL    HW2  323   1.070   1.232   1.017
   99SOL     OW  324   1.638   1.099   1.079
   99SOL    HW1  325   1.643   1.180   1.138
   99SOL    HW2  326   1.552   1.101   1.028
  100SOL     OW  327   0.915   0.089   1.402
  100SOL    HW1  328   0.940   0.069   1.307
  100SOL    HW2  329   0.987   0.145   1.444
  101SOL     OW  330   0.980   1.116   1.719
  101SOL    HW1  331   0.881   1.122   1.729
  101SOL    HW2  332   1.003   1.036   1.663
  102SOL     OW  333   0.705   1.050   0.368
  102SOL    HW1  334   0.691   1.057   0.467
  102SOL    HW2  335   0.789   0.999   0.350
  103SOL     OW  336   0.410   0.813   1.251
  103SOL    HW1  337   0.496   0.825   1.301
  103SOL    HW2  338   0.368   0.726   1.278
  104SOL     OW  339   1.274   0.386   1.262
  104SOL    HW1  340   1.295   0.460   1.326
  104SOL    HW2  341   1.185   0.403   1.219
  105SOL     OW  342   0.064   1.564   1.331
  105SOL    HW1  343   0.018   1.646   1.297
  105SOL    HW2  344   0.162   1.583   1.340
  106SOL     OW  345   0.367   1.100   0.501
  106SOL    HW1  346   0.360   1.183   0.445
  106SOL    HW2  347   0.371   1.020   0.441
  107SOL     OW  348   0.566   0.537   0.865
  107SOL    HW1  349   0.578   0.603   0.791
  107SOL    HW2  350   0.612   0.571   0.948
  108SOL     OW  351   1.252   1.348   0.388
  108SOL    HW1  352   1.302   1.425   0.428
  108SOL    HW2  353   1.157   1.350   0.420
  109SOL     OW  354   1.272   1.445   1.142
  109SOL    HW1  355   1.319   1.458   1.229
  109SOL    HW2  356   1.206   1.371   1.151
  110SOL     OW  357   1.582   0.639   0.472
  110SOL    HW1  358   1.551   0.700   0.545
  110SOL    HW2  359   1.632   0.691   0.403
  111SOL     OW  360   0.354   1.510   1.329
  111SOL    HW1  361   0.333   1.466   1.242
  111SOL    HW2  362   0.451   1.536   1.332
  112SOL     OW  363   0.402   0.751   1.598
  112SOL    HW1  364   0.470   0.806   1.551
  112SOL    HW2  365   0.442   0.663   1.625
  113SOL     OW  366   1.587   0.779   1.670
  113SOL    HW1  367   1.495   0.817   1.665
  113SOL    HW2  368   1.647   0.826   1.605
  114SOL     OW  369   1.013   0.105   1.770
  114SOL    HW1  370   1.019   0.190   1.718
  114SOL    HW2  371   1.045   0.029   1.713
  115SOL     OW  372   0.504   0.050   1.740
  115SOL    HW1  373   0.462  -0.007   1.670
  115SOL    HW2  374   0.438   0.119   1.772
  116SOL     OW  375   0.573   0.870   1.029
  116SOL    HW1  376   0.617   0.959   1.020
  116SOL    HW2  377   0.510   0.870   1.106
  117SOL     OW  378   1.360   0.862   1.045
  117SOL    HW1  379   1.285   0.862   0.979
  117SOL    HW2  380   1.397   0.770   1.054
  118SOL     OW  381   1.209   0.525   0.275
  118SOL    HW1  382   1.222   0.441   0.329
  118SOL    HW2  383   1.180   0.599   0.335
  119SOL     OW  384   0.307   0.213   1.231
  119SOL    HW1  385   0.284   0.250   1.321
  119SOL    HW2  386   0.277   0.118   1.225
  120SOL     OW  387   0.037   1.310   1.282
  120SOL    HW1  388   0.090   1.261   1.350
  120SOL    HW2  389   0.059   1.408   1.287
  121SOL     OW  390   0.732   0.634   1.064
  121SOL    HW1  391   0.791   0.608   0.988
  121SOL    HW2  392   0.704   0.730   1.053
  122SOL     OW  393   1.728   0.935   1.854
  122SOL    HW1  394   1.682   0.928   1.765
  122SOL    HW2  395   1.666   0.979   1.920
  123SOL     OW  396   0.307   0.063   0.618
  123SOL    HW1  397   0.296   0.157   0.651
  123SOL    HW2  398   0.302   0.000   0.695
  124SOL     OW  399   1.622   0.367   0.374
  124SOL    HW1  400   1.624   0.291   0.438
  124SOL    HW2  401   1.574   0.444   0.414
  125SOL     OW  402   1.023   0.766   0.966
  125SOL    HW1  403   1.038   0.787   1.062
  125SOL    HW2  404   0.993   0.671   0.957
  126SOL     OW  405   0.980   1.573   1.700
  126SOL    HW1  406   0.960   1.617   1.612
  126SOL    HW2  407   1.019   1.482   1.684
  127SOL     OW  408   1.859   1.518   1.605
  127SOL    HW1  409   1.873   1.545   1.510
  127SOL    HW2  410   1.942   1.540   1.658
  128SOL     OW  411   0.350   0.898   1.804
  128SOL    HW1  412   0.426   0.942   1.852
  128SOL    HW2  413   0.385   0.851   1.722
  129SOL     OW  414   1.540   0.274   0.125
  129SOL    HW1  415   1.479   0.199   0.148
  129SOL    HW2  416   1.562   0.326   0.208
  130SOL     OW  417   1.303   0.838   0.042
  130SOL    HW1  418   1.337   0.745   0.057
  130SOL    HW2  419   1.321   0.865  -0.053
  131SOL     OW  420   1.068   1.333   0.849
  131SOL    HW1  421   1.075   1.249   0.794
  131SOL    HW2  422   1.130   1.402   0.813
  132SOL     OW  423   0.319   0.810   0.949
  132SOL    HW1  424   0.412   0.846   0.954
  132SOL    HW2  425   0.313   0.725   1.001
  133SOL     OW  426   0.339   0.509   1.006
  133SOL    HW1  427   0.287   0.426   0.989
  133SOL    HW2  428   0.416   0.514   0.942
  134SOL     OW  429   1.138   0.380   1.678
  134SOL    HW1  430   1.093   0.443   1.742
  134SOL    HW2  431   1.231   0.411   1.661
  135SOL     OW  432   1.160   0.207   1.477
  135SOL    HW1  433   1.160   0.271   1.554
  135SOL    HW2  434   1.188   0.255   1.394
  136SOL     OW  435   0.008   1.326   0.200
  136SOL    HW1  436  -0.085   1.347   0.169
  136SOL    HW2  437   0.018   1.227   0.213
  137SOL     OW  438   0.088   1.801   0.927
  137SOL    HW1  439   0.046   1.715   0.900
  137SOL    HW2  440   0.182   1.804   0.893
  138SOL     OW  441   0.504   1.568   0.910
  138SOL    HW1  442   0.570   1.642   0.919
  138SOL    HW2  443   0.548   1.489   0.868
  139SOL     OW  444   1.002   0.796   1.238
  139SOL    HW1  445   1.043   0.764   1.324
  139SOL    HW2  446   0.906   0.769   1.235
  140SOL     OW  447   0.040   0.544   1.114
  140SOL    HW1  448   0.125   0.511   1.073
  140SOL    HW2  449   0.053   0.559   1.212
  141SOL     OW  450   0.189   0.520   1.722
  141SOL    HW1  451   0.248   0.480   1.652
  141SOL    HW2  452   0.131   0.591   1.681
  142SOL     OW  453   1.369   0.950   1.660
  142SOL    HW1  454   1.408   1.039   1.680
  142SOL    HW2  455   1.379   0.930   1.563
  143SOL     OW  456   0.815   0.572   0.325
  143SOL    HW1  457   0.822   0.483   0.279
  143SOL    HW2  458   0.721   0.606   0.317
  144SOL     OW  459   1.657   0.604   1.206
  144SOL    HW1  460   1.619   0.535   1.268
  144SOL    HW2  461   1.739   0.568   1.162
  145SOL     OW  462   0.252   1.564   1.744
  145SOL    HW1  463   0.222   1.621   1.820
  145SOL    HW2  464   0.245   1.467   1.770
  146SOL     OW  465   0.671   0.464   1.269
  146SOL    HW1  466   0.637   0.375   1.239
  146SOL    HW2  467   0.697   0.518   1.189
  147SOL     OW  468   0.930   1.678   1.465
  147SOL    HW1  469   0.906   1.660   1.370
  147SOL    HW2  470   0.960   1.772   1.475
  148SOL     OW  471   0.473   0.500   0.191
  148SOL    HW1  472   0.534   0.580   0.195
  148SOL    HW2  473   0.378   0.531   0.198
  149SOL     OW  474   0.159   1.137   1.466
  149SOL    HW1  475   0.181   1.076   1.542
  149SOL    HW2  476   0.169   1.088   1.380
  150SOL     OW  477   1.347   1.059   1.234
  150SOL    HW1  478   1.371   0.996   1.160
  150SOL    HW2  479   1.257   1.099   1.216
  151SOL     OW  480   1.302   0.855   0.309
  151SOL    HW1  481   1.216   0.824   0.351
  151SOL    HW2  482   1.298   0.841   0.210
  152SOL     OW  483   1.759   1.747   1.154
  152SOL    HW1  484   1.820   1.777   1.081
  152SOL    HW2  485   1.721   1.658   1.132
  153SOL     OW  486   1.252   1.731   1.128
  153SOL    HW1  487   1.336   1.736   1.074
  153SOL    HW2  488   1.229   1.635   1.146
  154SOL     OW  489   0.083   1.258   1.022
  154SOL    HW1  490   0.078   1.257   1.122
  154SOL    HW2  491   0.000   1.217   0.984
  155SOL     OW  492   0.688   1.662   1.716
  155SOL    HW1  493   0.632   1.743   1.725
  155SOL    HW2  494   0.740   1.666   1.630
  156SOL     OW  495   0.903   0.086   0.133
  156SOL    HW1  496   0.954   0.087   0.047
  156SOL    HW2  497   0.959   0.044   0.204
  157SOL     OW  498   1.726   0.135   0.523
  157SOL    HW1  499   1.799   0.118   0.456
  157SOL    HW2  500   1.695   0.048   0.561
  158SOL     OW  501   1.388   1.573   0.477
  158SOL    HW1  502   1.455   1.585   0.403
  158SOL    HW2  503   1.348   1.662   0.500
  159SOL     OW  504   0.130   1.794   1.851
  159SOL    HW1  505   0.089   1.720   1.904
  159SOL    HW2  506   0.194   1.845   1.909
  160SOL     OW  507   1.280   0.927   0.672
  160SOL    HW1  508   1.340   0.846   0.674
  160SOL    HW2  509   1.320   0.996   0.612
  161SOL     OW  510   0.830   1.273   1.422
  161SOL    HW1  511   0.825   1.306   1.517
  161SOL    HW2  512   0.744   1.292   1.376
  162SOL     OW  513   0.672   1.616   0.154
  162SOL    HW1  514   0.681   1.626   0.055
  162SOL    HW2  515   0.632   1.527   0.175
  163SOL     OW  516   1.650   1.720   1.394
  163SOL    HW1  517   1.703   1.730   1.310
  163SOL    HW2  518   1.623   1.810   1.428
  164SOL     OW  519   1.841   0.175   0.963
  164SOL    HW1  520   1.880   0.090   0.927
  164SOL    HW2  521   1.743   0.177   0.944
  165SOL     OW  522   0.263   0.326   0.720
  165SOL    HW1  523   0.184   0.377   0.686
  165SOL    HW2  524   0.254   0.311   0.818
  166SOL     OW  525   1.194   1.612   0.031
  166SOL    HW1  526   1.200   1.519   0.068
  166SOL    HW2  527   1.135   1.612  -0.049
  167SOL     OW  528   0.822   1.002   1.372
  167SOL    HW1  529   0.862   1.001   1.280
  167SOL    HW2  530   0.832   1.094   1.412
  168SOL     OW  531   0.916   0.910   0.291
  168SOL    HW1  532   0.979   0.948   0.223
  168SOL    HW2  533   0.956   0.827   0.330
  169SOL     OW  534   1.504   1.607   0.044
  169SOL    HW1  535   1.412   1.644   0.051
  169SOL    HW2  536   1.542   1.627  -0.046
  170SOL     OW  537   0.372   1.288   1.490
  170SOL    HW1  538   0.359   1.381   1.456
  170SOL    HW2  539   0.288   1.236   1.477
  171SOL     OW  540   1.614   1.292   1.289
  171SOL    HW1  541   1.674   1.295   1.369
  171SOL    HW2  542   1.539   1.356   1.302
  172SOL     OW  543   1.039   1.098   0.696
  172SOL    HW1  544   0.969   1.051   0.750
  172SOL    HW2  545   1.098   1.030   0.653
  173SOL     OW  546   1.014   0.236   0.971
  173SOL    HW1  547   1.006   0.200   0.878
  173SOL    HW2  548   1.012   0.160   1.036
  174SOL     OW  549   0.590   1.487   0.491
  174SOL    HW1  550   0.632   1.429   0.421
  174SOL    HW2  551   0.546   1.566   0.447
  175SOL     OW  552   1.709   0.385   1.381
  175SOL    HW1  553   1.782   0.454   1.385
  175SOL    HW2  554   1.737   0.310   1.322
  176SOL     OW  555   0.255   1.348   0.290
  176SOL    HW1  556   0.159   1.349   0.263
  176SOL    HW2  557   0.267   1.401   0.374
  177SOL     OW  558   0.105   1.013   1.726
  177SOL    HW1  559   0.028   0.980   1.780
  177SOL    HW2  560   0.190   0.983   1.768
  178SOL     OW  561   0.672   0.203   1.489
  178SOL    HW1  562   0.762   0.187   1.449
  178SOL    HW2  563   0.680   0.208   1.588
  179SOL     OW  564   0.075   0.345   0.033
  179SOL    HW1  565  -0.017   0.317   0.004
  179SOL    HW2  566   0.106   0.422  -0.023
  180SOL     OW  567   1.440   0.856   1.398
  180SOL    HW1  568   1.383   0.908   1.335
  180SOL    HW2  569   1.536   0.868   1.374
  181SOL     OW  570   0.072   0.166   0.318
  181SOL    HW1  571   0.055   0.249   0.264
  181SOL    HW2  572   0.162   0.129   0.296
  182SOL     OW  573   1.183   1.335   0.119
  182SOL    HW1  574   1.084   1.324   0.121
  182SOL    HW2  575   1.217   1.350   0.212
  183SOL     OW  576   0.613   0.842   1.431
  183SOL    HW1  577   0.669   0.923   1.414
  183SOL    HW2  578   0.672   0.762   1.434
  184SOL     OW  579   1.493   1.767   0.959
  184SOL    HW1  580   1.526   1.831   0.890
  184SOL    HW2  581   1.559   1.761   1.034
  185SOL     OW  582   0.716   0.565   1.708
  185SOL    HW1  583   0.735   0.630   1.782
  185SOL    HW2  584   0.776   0.485   1.717
  186SOL     OW  585   1.450   1.220   1.633
  186SOL    HW1  586   1.441   1.210   1.732
  186SOL    HW2  587   1.546   1.213   1.607
  187SOL     OW  588   0.390   1.741   1.560
  187SOL    HW1  589   0.299   1.782   1.558
  187SOL    HW2  590   0.383   1.647   1.592
  188SOL     OW  591   1.674   0.883   1.254
  188SOL    HW1  592   1.647   0.794   1.217
  188SOL    HW2  593   1.675   0.951   1.181
  189SOL     OW  594   1.225   0.325   0.449
  189SOL    HW1  595   1.290   0.251   0.438
  189SOL    HW2  596   1.245   0.375   0.533
  190SOL     OW  597   0.594   0.745   0.652
  190SOL    HW1  598   0.644   0.830   0.633
  190SOL    HW2  599   0.506   0.747   0.604
  191SOL     OW  600   1.777   0.342   1.642
  191SOL    HW1  601   1.760   0.373   1.548
  191SOL    HW2  602   1.693   0.305   1.680
  192SOL     OW  603   1.730   0.934   1.517
  192SOL    HW1  604   1.768   1.025   1.532
  192SOL    HW2  605   1.722   0.917   1.418
  193SOL     OW  606   0.859   1.374   0.016
  193SOL    HW1  607   0.813   1.389   0.104
  193SOL    HW2  608   0.903   1.459  -0.014
  194SOL     OW  609   0.661   1.790   0.953
  194SOL    HW1  610   0.615   1.878   0.940
  194SOL    HW2  611   0.760   1.802   0.946
  195SOL     OW  612   0.859   0.956   0.861
  195SOL    HW1  613   0.913   0.887   0.909
  195SOL    HW2  614   0.827   1.025   0.927
  196SOL     OW  615   1.083   0.984   0.087
  196SOL    HW1  616   1.060   1.037   0.005
  196SOL    HW2  617   1.164   0.928   0.068
  197SOL     OW  618   1.861   1.569   0.851
  197SOL    HW1  619   1.790   1.557   0.781
  197SOL    HW2  620   1.862   1.490   0.911
  198SOL     OW  621   0.221   1.314   1.844
  198SOL    HW1  622   0.156   1.241   1.823
  198SOL    HW2  623   0.225   1.328   1.942
  199SOL     OW  624   0.079   1.240   0.653
  199SOL    HW1  625   0.078   1.193   0.741
  199SOL    HW2  626   0.161   1.212   0.602
  200SOL     OW  627   0.672   1.391   1.624
  200SOL    HW1  628   0.594   1.341   1.662
  200SOL    HW2  629   0.669   1.486   1.655
  201SOL     OW  630   1.824   0.192   1.227
  201SOL    HW1  631   1.820   0.102   1.271
  201SOL    HW2  632   1.827   0.181   1.128
  202SOL     OW  633   0.428   0.424   0.520
  202SOL    HW1  634   0.458   0.352   0.458
  202SOL    HW2  635   0.389   0.384   0.603
  203SOL     OW  636   1.705   1.487   1.104
  203SOL    HW1  637   1.612   1.462   1.077
  203SOL    HW2  638   1.731   1.437   1.186
  204SOL     OW  639   0.317   0.547   1.280
  204SOL    HW1  640   0.355   0.488   1.352
  204SOL    HW2  641   0.357   0.521   1.192
  205SOL     OW  642   0.812   1.586   0.687
  205SOL    HW1  643   0.844   1.596   0.593
  205SOL    HW2  644   0.733   1.524   0.689
  206SOL     OW  645   1.424   0.214   1.112
  206SOL    HW1  646   1.476   0.149   1.167
  206SOL    HW2  647   1.375   0.277   1.173
  207SOL     OW  648   1.001   0.034   1.154
  207SOL    HW1  649   0.938  -0.038   1.123
  207SOL    HW2  650   1.094  -0.002   1.154
  208SOL     OW  651   0.770   1.330   0.301
  208SOL    HW1  652   0.724   1.243   0.318
  208SOL    HW2  653   0.861   1.327   0.342
  209SOL     OW  654   0.618   1.567   1.284
  209SOL    HW1  655   0.613   1.649   1.341
  209SOL    HW2  656   0.707   1.564   1.239
  210SOL     OW  657   1.352   0.052   0.168
  210SOL    HW1  658   1.387   0.011   0.084
  210SOL    HW2  659   1.262   0.014   0.188
  211SOL     OW  660   1.300   0.453   0.691
  211SOL    HW1  661   1.241   0.533   0.695
  211SOL    HW2  662   1.315   0.418   0.784
  212SOL     OW  663   1.593   0.221   0.882
  212SOL    HW1  664   1.509   0.220   0.936
  212SOL    HW2  665   1.595   0.304   0.826
  213SOL     OW  666   0.039   1.077   0.300
  213SOL    HW1  667   0.138   1.066   0.291
  213SOL    HW2  668  -0.001   0.991   0.332
  214SOL     OW  669   0.875   1.646   0.337
  214SOL    HW1  670   0.798   1.611   0.283
  214SOL    HW2  671   0.843   1.717   0.399
  215SOL     OW  672   0.230   0.628   1.975
  215SOL    HW1  673   0.137   0.626   2.012
  215SOL    HW2  674   0.231   0.589   1.883
  216SOL     OW  675   0.225   0.275   2.858
  216SOL    HW1  676   0.260   0.258   2.950
  216SOL    HW2  677   0.137   0.230   2.846
  217SOL     OW  678   0.019   0.368   2.509
  217SOL    HW1  679  -0.063   0.411   2.548
  217SOL    HW2  680  -0.009   0.295   2.446
  218SOL     OW  681   0.569   1.275   3.027
  218SOL    HW1  682   0.476   1.268   2.990
  218SOL    HW2  683   0.580   1.364   3.071
  219SOL     OW  684   1.555   1.511   2.565
  219SOL    HW1  685   1.498   1.495   2.646
  219SOL    HW2  686   1.496   1.521   2.485
  220SOL     OW  687   1.135   0.703   2.579
  220SOL    HW1  688   1.192   0.781   2.554
  220SOL    HW2  689   1.075   0.729   2.655
  221SOL     OW  690   1.755   0.607   2.093
  221SOL    HW1  691   1.743   0.594   1.994
  221SOL    HW2  692   1.725   0.526   2.142
  222SOL     OW  693   0.768   1.144   2.885
  222SOL    HW1  694   0.690   1.161   2.945
  222SOL    HW2  695   0.802   1.231   2.849
  223SOL     OW  696   0.850   0.798   3.685
  223SOL    HW1  697   0.846   0.874   3.750
  223SOL    HW2  698   0.872   0.834   3.594
  224SOL     OW  699   0.685   1.012   2.527
  224SOL    HW1  700   0.754   0.996   2.597
  224SOL    HW2  701   0.612   1.069   2.565
  225SOL     OW  702   0.686   1.161   3.665
  225SOL    HW1  703   0.746   1.240   3.679
  225SOL    HW2  704   0.600   1.192   3.624
  226SOL     OW  705   0.335   1.435   2.923
  226SOL    HW1  706   0.257   1.404   2.870
  226SOL    HW2  707   0.393   1.493   2.866
  227SOL     OW  708   1.460   1.505   3.201
  227SOL    HW1  709   1.484   1.599   3.227
  227SOL    HW2  710   1.444   1.451   3.283
  228SOL     OW  711   0.438   0.392   3.361
  228SOL    HW1  712   0.520   0.336   3.370
  228SOL    HW2  713   0.357   0.334   3.365
  229SOL     OW  714   1.603   0.447   2.599
  229SOL    HW1  715   1.529   0.493   2.549
  229SOL    HW2  716   1.654   0.515   2.652
  230SOL     OW  717   0.231   1.713   2.345
  230SOL    HW1  718   0.265   1.790   2.399
  230SOL    HW2  719   0.275   1.713   2.255
  231SOL     OW  720   1.127   1.341   3.552
  231SOL    HW1  721   1.174   1.341   3.640
  231SOL    HW2  722   1.079   1.254   3.541
  232SOL     OW  723   0.230   1.434   2.400
  232SOL    HW1  724   0.204   1.530   2.400
  232SOL    HW2  725   0.159   1.380   2.445
  233SOL     OW  726   0.240   1.091   2.748
  233SOL    HW1  727   0.254   1.007   2.800
  233SOL    HW2  728   0.185   1.155   2.803
  234SOL     OW  729   0.620   1.786   3.301
  234SOL    HW1  730   0.528   1.769   3.336
  234SOL    HW2  731   0.648   1.878   3.327
  235SOL     OW  732   0.606   0.964   1.985
  235SOL    HW1  733   0.613   1.048   1.931
  235SOL    HW2  734   0.652   0.977   2.073
  236SOL     OW  735   1.594   0.114   3.342
  236SOL    HW1  736   1.576   0.181   3.270
  236SOL    HW2  737   1.591   0.160   3.431
  237SOL     OW  738   0.122   0.643   2.425
  237SOL    HW1  739   0.077   0.555   2.442
  237SOL    HW2  740   0.121   0.697   2.509
  238SOL     OW  741   1.842   1.767   2.221
  238SOL    HW1  742   1.896   1.738   2.301
  238SOL    HW2  743   1.872   1.857   2.192
  239SOL     OW  744   0.027   1.596   1.979
  239SOL    HW1  745   0.008   1.500   2.000
  239SOL    HW2  746  -0.006   1.654   2.054
  240SOL     OW  747   1.689   0.922   2.474
  240SOL    HW1  748   1.784   0.893   2.482
  240SOL    HW2  749   1.681   0.987   2.399
  241SOL     OW  750   1.641   1.108   2.294
  241SOL    HW1  751   1.727   1.110   2.242
  241SOL    HW2  752   1.655   1.155   2.382
  242SOL     OW  753   0.113   0.737   3.459
  242SOL    HW1  754   0.201   0.724   3.504
  242SOL    HW2  755   0.100   0.834   3.437
  243SOL     OW  756   0.613   1.365   2.588
  243SOL    HW1  757   0.564   1.278   2.597
  243SOL    HW2  758   0.590   1.408   2.501
  244SOL     OW  759   1.293   1.228   3.285
  244SOL    HW1  760   1.330   1.155   3.227
  244SOL    HW2  761   1.345   1.233   3.370
  245SOL     OW  762   0.809   0.004   2.364
  245SOL    HW1  763   0.849   0.095   2.355
  245SOL    HW2  764   0.709   0.012   2.370
  246SOL     OW  765   0.197   0.976   3.126
  246SOL    HW1  766   0.286   0.931   3.112
  246SOL    HW2  767   0.124   0.911   3.107
  247SOL     OW  768   1.525   0.999   2.052
  247SOL    HW1  769   1.462   0.923   2.065
  247SOL    HW2  770   1.573   1.017   2.138
  248SOL     OW  771   1.187   1.792   3.478
  248SOL    HW1  772   1.211   1.852   3.402
  248SOL    HW2  773   1.194   1.697   3.448
  249SOL     OW  774   0.317   0.251   3.663
  249SOL    HW1  775   0.388   0.322   3.669
  249SOL    HW2  776   0.229   0.290   3.691
  250SOL     OW  777   1.466   1.417   2.815
  250SOL    HW1  778   1.407   1.423   2.895
  250SOL    HW2  779   1.451   1.329   2.769
  251SOL     OW  780   1.667   1.714   2.434
  251SOL    HW1  781   1.626   1.691   2.346
  251SOL    HW2  782   1.649   1.640   2.499
  252SOL     OW  783   0.598   0.729   2.132
  252SOL    HW1  784   0.622   0.798   2.064
  252SOL    HW2  785   0.520   0.762   2.186
  253SOL     OW  786   1.281   0.345   2.806
  253SOL    HW1  787   1.195   0.295   2.793
  253SOL    HW2  788   1.343   0.291   2.862
  254SOL     OW  789   1.576   1.662   2.169
  254SOL    HW1  790   1.665   1.708   2.172
  254SOL    HW2  791   1.555   1.638   2.074
  255SOL     OW  792   0.807   0.605   3.327
  255SOL    HW1  793   0.760   0.602   3.416
  255SOL    HW2  794   0.756   0.550   3.261
  256SOL     OW  795   1.394   0.469   3.536
  256SOL    HW1  796   1.374   0.512   3.624
  256SOL    HW2  797   1.472   0.407   3.545
  257SOL     OW  798   0.973   0.890   3.434
  257SOL    HW1  799   1.019   0.806   3.405
  257SOL    HW2  800   0.917   0.924   3.359
  258SOL     OW  801   0.991   0.410   3.104
  258SOL    HW1  802   0.914   0.444   3.158
  258SOL    HW2  803   0.957   0.359   3.025
  259SOL     OW  804   1.041   0.701   2.291
  259SOL    HW1  805   1.067   0.697   2.387
  259SOL    HW2  806   0.956   0.650   2.277
  260SOL     OW  807   0.076   0.811   2.651
  260SOL    HW1  808   0.175   0.799   2.660
  260SOL    HW2  809   0.052   0.906   2.672
  261SOL     OW  810   0.130   1.821   3.433
  261SOL    HW1  811   0.120   1.806   3.532
  261SOL    HW2  812   0.044   1.857   3.397
  262SOL     OW  813   0.865   0.348   2.057
  262SOL    HW1  814   0.924   0.411   2.008
  262SOL    HW2  815   0.884   0.254   2.028
  263SOL     OW  816   1.719   0.585   3.693
  263SOL    HW1  817   1.693   0.674   3.657
  263SOL    HW2  818   1.717   0.517   3.620
  264SOL     OW  819   1.362   1.144   2.407
  264SOL    HW1  820   1.445   1.115   2.359
  264SOL    HW2  821   1.313   1.211   2.351
  265SOL     OW  822   0.550   0.196   2.747
  265SOL    HW1  823   0.545   0.191   2.847
  265SOL    HW2  824   0.552   0.292   2.718
  266SOL     OW  825   1.008   1.456   2.339
  266SOL    HW1  826   0.962   1.528   2.287
  266SOL    HW2  827   1.004   1.476   2.437
  267SOL     OW  828   0.351   1.801   2.715
  267SOL    HW1  829   0.401   1.715   2.721
  267SOL    HW2  830   0.416   1.878   2.712
  268SOL     OW  831   1.795   1.066   2.735
  268SOL    HW1  832   1.733   1.051   2.659
  268SOL    HW2  833   1.743   1.077   2.820
  269SOL     OW  834   1.227   1.550   3.368
  269SOL    HW1  835   1.233   1.473   3.432
  269SOL    HW2  836   1.175   1.524   3.288
  270SOL     OW  837   0.321   0.943   2.104
  270SOL    HW1  838   0.403   0.982   2.062
  270SOL    HW2  839   0.294   0.861   2.055
  271SOL     OW  840   1.458   0.735   2.590
  271SOL    HW1  841   1.453   0.670   2.665
  271SOL    HW2  842   1.538   0.794   2.603
  272SOL     OW  843   0.461   1.266   3.589
  272SOL    HW1  844   0.411   1.267   3.503
  272SOL    HW2  845   0.398   1.248   3.665
  273SOL     OW  846   1.111   1.776   2.099
  273SOL    HW1  847   1.051   1.714   2.149
  273SOL    HW2  848   1.142   1.732   2.014
  274SOL     OW  849   0.202   0.285   3.360
  274SOL    HW1  850   0.122   0.345   3.347
  274SOL    HW2  851   0.192   0.236   3.446
  275SOL     OW  852   1.632   1.377   1.943
  275SOL    HW1  853   1.600   1.471   1.933
  275SOL    HW2  854   1.556   1.314   1.931
  276SOL     OW  855   0.464   1.743   2.185
  276SOL    HW1  856   0.497   1.782   2.271
  276SOL    HW2  857   0.540   1.736   2.120
  277SOL     OW  858   1.400   0.107   2.288
  277SOL    HW1  859   1.376   0.070   2.198
  277SOL    HW2  860   1.499   0.123   2.292
  278SOL     OW  861   0.249   1.785   3.103
  278SOL    HW1  862   0.306   1.720   3.153
  278SOL    HW2  863   0.233   1.752   3.010
  279SOL     OW  864   0.940   1.698   2.766
  279SOL    HW1  865   1.020   1.641   2.787
  279SOL    HW2  866   0.891   1.658   2.689
  280SOL     OW  867   0.382   0.700   2.342
  280SOL    HW1  868   0.427   0.610   2.339
  280SOL    HW2  869   0.288   0.689   2.375
  281SOL     OW  870   1.547   0.222   3.591
  281SOL    HW1  871   1.542   0.259   3.683
  281SOL    HW2  872   1.475   0.153   3.579
  282SOL     OW  873   0.614   0.122   1.979
  282SOL    HW1  874   0.712   0.100   1.986
  282SOL    HW2  875   0.583   0.105   1.886
  283SOL     OW  876   0.781   0.264   3.611
  283SOL    HW1  877   0.848   0.203   3.654
  283SOL    HW2  878   0.708   0.283   3.676
  284SOL     OW  879   0.888   1.514   3.057
  284SOL    HW1  880   0.865   1.489   2.963
  284SOL    HW2  881   0.949   1.445   3.096
  285SOL     OW  882   1.351   0.590   3.295
  285SOL    HW1  883   1.379   0.547   3.380
  285SOL    HW2  884   1.376   0.686   3.296
  286SOL     OW  885   0.803   1.402   2.786
  286SOL    HW1  886   0.893   1.416   2.744
  286SOL    HW2  887   0.732   1.404   2.715
  287SOL     OW  888   0.922   0.503   2.761
  287SOL    HW1  889   0.897   0.494   2.665
  287SOL    HW2  890   0.970   0.421   2.792
  288SOL     OW  891   0.539   0.064   2.374
  288SOL    HW1  892   0.458   0.065   2.432
  288SOL    HW2  893   0.542   0.147   2.319
  289SOL     OW  894   1.434   1.188   1.903
  289SOL    HW1  895   1.466   1.112   1.960
  289SOL    HW2  896   1.342   1.215   1.933
  290SOL     OW  897   0.297   0.035   2.033
  290SOL    HW1  898   0.346   0.119   2.012
  290SOL    HW2  899   0.359  -0.030   2.078
  291SOL     OW  900   0.935   0.236   2.342
  291SOL    HW1  901   0.887   0.277   2.264
  291SOL    HW2  902   1.034   0.234   2.323
  292SOL     OW  903   1.076   0.683   3.326
  292SOL    HW1  904   0.996   0.622   3.329
  292SOL    HW2  905   1.157   0.630   3.302
  293SOL     OW  906   1.227   1.570   2.655
  293SOL    HW1  907   1.248   1.644   2.590
  293SOL    HW2  908   1.295   1.570   2.728
  294SOL     OW  909   0.459   1.152   2.603
  294SOL    HW1  910   0.388   1.125   2.668
  294SOL    HW2  911   0.433   1.124   2.510
  295SOL     OW  912   1.271   1.797   2.453
  295SOL    HW1  913   1.315   1.861   2.389
  295SOL    HW2  914   1.221   1.849   2.523
  296SOL     OW  915   1.032   0.549   1.878
  296SOL    HW1  916   0.991   0.631   1.839
  296SOL    HW2  917   1.096   0.575   1.951
  297SOL     OW  918   0.078   0.556   3.248
  297SOL    HW1  919   0.170   0.555   3.207
  297SOL    HW2  920   0.072   0.630   3.315
  298SOL     OW  921   0.561   0.222   3.009
  298SOL    HW1  922   0.599   0.138   3.046
  298SOL    HW2  923   0.473   0.241   3.053
  299SOL     OW  924   0.866   0.454   2.504
  299SOL    HW1  925   0.834   0.526   2.442
  299SOL    HW2  926   0.890   0.373   2.451
  300SOL     OW  927   1.017   0.039   2.615
  300SOL    HW1  928   0.945   0.044   2.546
  300SOL    HW2  929   0.993  -0.030   2.684
  301SOL     OW  930   1.429   1.173   2.729
  301SOL    HW1  931   1.374   1.089   2.722
  301SOL    HW2  932   1.455   1.202   2.637
  302SOL     OW  933   1.466   0.590   2.854
  302SOL    HW1  934   1.436   0.495   2.861
  302SOL    HW2  935   1.539   0.606   2.920
  303SOL     OW  936   1.857   0.833   2.239
  303SOL    HW1  937   1.899   0.769   2.303
  303SOL    HW2  938   1.819   0.782   2.161
  304SOL     OW  939   0.488   1.385   2.036
  304SOL    HW1  940   0.401   1.370   2.083
  304SOL    HW2  941   0.471   1.411   1.941
  305SOL     OW  942   1.664   1.280   2.519
  305SOL    HW1  943   1.763   1.288   2.533
  305SOL    HW2  944   1.619   1.364   2.550
  306SOL     OW  945   1.390   0.575   1.940
  306SOL    HW1  946   1.336   0.554   2.021
  306SOL    HW2  947   1.481   0.534   1.949
  307SOL     OW  948   0.527   0.256   2.190
  307SOL    HW1  949   0.554   0.197   2.115
  307SOL    HW2  950   0.527   0.351   2.159
  308SOL     OW  951   1.754   1.223   3.450
  308SOL    HW1  952   1.845   1.184   3.437
  308SOL    HW2  953   1.762   1.319   3.474
  309SOL     OW  954   1.064   1.347   3.202
  309SOL    HW1  955   0.984   1.324   3.257
  309SOL    HW2  956   1.147   1.321   3.251
  310SOL     OW  957   1.592   1.629   3.487
  310SOL    HW1  958   1.619   1.663   3.397
  310SOL    HW2  959   1.671   1.591   3.533
  311SOL     OW  960   1.111   1.195   2.962
  311SOL    HW1  961   1.071   1.239   3.043
  311SOL    HW2  962   1.070   1.232   2.879
  312SOL     OW  963   1.638   1.099   2.941
  312SOL    HW1  964   1.643   1.180   3.000
  312SOL    HW2  965   1.552   1.101   2.890
  313SOL     OW  966   0.915   0.089   3.264
  313SOL    HW1  967   0.940   0.069   3.169
  313SOL    HW2  968   0.987   0.145   3.306
  314SOL     OW  969   0.980   1.116   3.581
  314SOL    HW1  970   0.881   1.122   3.591
  314SOL    HW2  971   1.003   1.036   3.525
  315SOL     OW  972   0.705   1.050   2.230
  315SOL    HW1  973   0.691   1.057   2.329
  315SOL    HW2  974   0.789   0.999   2.212
  316SOL     OW  975   0.410   0.813   3.113
  316SOL    HW1  976   0.496   0.825   3.163
  316SOL    HW2  977   0.368   0.726   3.140
  317SOL     OW  978   1.274   0.386   3.124
  317SOL    HW1  979   1.295   0.460   3.188
  317SOL    HW2  980   1.185   0.403   3.081
  318SOL     OW  981   0.064   1.564   3.193
  318SOL    HW1  982   0.018   1.646   3.159
  318SOL    HW2  983   0.162   1.583   3.202
  319SOL     OW  984   0.367   1.100   2.363
  319SOL    HW1  985   0.360   1.183   2.307
  319SOL    HW2  986   0.371   1.020   2.303
  320SOL     OW  987   0.566   0.537   2.727
  320SOL    HW1  988   0.578   0.603   2.653
  320SOL    HW2  989   0.612   0.571   2.810
  321SOL     OW  990   1.252   1.348   2.250
  321SOL    HW1  991   1.302   1.425   2.290
  321SOL    HW2  992   1.157   1.350   2.282
  322SOL     OW  993   1.272   1.445   3.004
  322SOL    HW1  994   1.319   1.458   3.091
  322SOL    HW2  995   1.206   1.371   3.013
  323SOL     OW  996   1.582   0.639   2.334
  323SOL    HW1  997   1.551   0.700   2.407
  323SOL    HW2  998   1.632   0.691   2.265
  324SOL     OW  999   0.354   1.510   3.191
  324SOL    HW1 1000   0.333   1.466   3.104
  324SOL    HW2 1001   0.451   1.536   3.194
  325SOL     OW 1002   0.402   0.751   3.460
  325SOL    HW1 1003   0.470   0.806   3.413
  325SOL    HW2 1004   0.442   0.663   3.487
  326SOL     OW 1005   1.587   0.779   3.532
  326SOL    HW1 1006   1.495   0.817   3.527
  326SOL    HW2 1007   1.647   0.826   3.467
  327SOL     OW 1008   1.013   0.105   3.632
  327SOL    HW1 1009   1.019   0.190   3.580
  327SOL    HW2 1010   1.045   0.029   3.575
  328SOL     OW 1011   0.504   0.050   3.602
  328SOL    HW1 1012   0.462  -0.007   3.532
  328SOL    HW2 1013   0.438   0.119   3.634
  329SOL     OW 1014   0.573   0.870   2.891
  329SOL    HW1 1015   0.617   0.959   2.882
  329SOL    HW2 1016   0.510   0.870   2.968
  330SOL     OW 1017   1.360   0.862   2.907
  330SOL    HW1 1018   1.285   0.862   2.841
  330SOL    HW2 1019   1.397   0.770   2.916
  331SOL     OW 1020   1.209   0.525   2.137
  331SOL    HW1 1021   1.222   0.441   2.191
  331SOL    HW2 1022   1.180   0.599   2.197
  332SOL     OW 1023   0.307   0.213   3.093
  332SOL    HW1 1024   0.284   0.250   3.183
  332SOL    HW2 1025   0.277   0.118   3.087
  333SOL     OW 1026   0.037   1.310   3.144
  333SOL    HW1 1027   0.090   1.261   3.212
  333SOL    HW2 1028   0.059   1.408   3.149
  334SOL     OW 1029   0.732   0.634   2.926
  334SOL    HW1 1030   0.791   0.608   2.850
  334SOL    HW2 1031   0.704   0.730   2.915
  335SOL     OW 1032   1.728   0.935   3.716
  335SOL    HW1 1033   1.682   0.928   3.627
  335SOL    HW2 1034   1.666   0.979   3.782
  336SOL     OW 1035   0.307   0.063   2.480
  336SOL    HW1 1036   0.296   0.157   2.513
  336SOL    HW2 1037   0.302   0.000   2.557
  337SOL     OW 1038   1.622   0.367   2.236
  337SOL    HW1 1039   1.624   0.291   2.300
  337SOL    HW2 1040   1.574   0.444   2.276
  338SOL     OW 1041   1.023   0.766   2.828
  338SOL    HW1 1042   1.038   0.787   2.924
  338SOL    HW2 1043   0.993   0.671   2.819
  339SOL     OW 1044   0.980   1.573   3.562
  339SOL    HW1 1045   0.960   1.617   3.474
  339SOL    HW2 1046   1.019   1.482   3.546
  340SOL     OW 1047   1.859   1.518   3.467
  340SOL    HW1 1048   1.873   1.545   3.372
  340SOL    HW2 1049   1.942   1.540   3.520
  341SOL     OW 1050   0.350   0.898   3.666
  341SOL    HW1 1051   0.426   0.942   3.714
  341SOL    HW2 1052   0.385   0.851   3.584
  342SOL     OW 1053   1.540   0.274   1.987
  342SOL    HW1 1054   1.479   0.199   2.010
  342SOL    HW2 1055   1.562   0.326   2.070
  343SOL     OW 1056   1.303   0.838   1.904
  343SOL    HW1 1057   1.337   0.745   1.919
  343SOL    HW2 1058   1.321   0.865   1.809
  344SOL     OW 1059   1.068   1.333   2.711
  344SOL    HW1 1060   1.075   1.249   2.656
  344SOL    HW2 1061   1.130   1.402   2.675
  345SOL     OW 1062   0.319   0.810   2.811
  345SOL    HW1 1063   0.412   0.846   2.816
  345SOL    HW2 1064   0.313   0.725   2.863
  346SOL     OW 1065   0.339   0.509   2.868
  346SOL    HW1 1066   0.287   0.426   2.851
  346SOL    HW2 1067   0.416   0.514   2.804
  347SOL     OW 1068   1.138   0.380   3.540
  347SOL    HW1 1069   1.093   0.443   3.604
  347SOL    HW2 1070   1.231   0.411   3.523
  348SOL     OW 1071   1.160   0.207   3.339
  348SOL    HW1 1072   1.160   0.271   3.416
  348SOL    HW2 1073   1.188   0.255   3.256
  349SOL     OW 1074   0.008   1.326   2.062
  349SOL    HW1 1075  -0.085   1.347   2.031
  349SOL    HW2 1076   0.018   1.227   2.075
  350SOL     OW 1077   0.088   1.801   2.789
  350SOL    HW1 1078   0.046   1.715   2.762
  350SOL    HW2 1079   0.182   1.804   2.755
  351SOL     OW 1080   0.504   1.568   2.772
  351SOL    HW1 1081   0.570   1.642   2.781
  351SOL    HW2 1082   0.548   1.489   2.730
  352SOL     OW 1083   1.002   0.796   3.100
  352SOL    HW1 1084   1.043   0.764   3.186
  352SOL    HW2 1085   0.906   0.769   3.097
  353SOL     OW 1086   0.040   0.544   2.976
  353SOL    HW1 1087   0.125   0.511   2.935
  353SOL    HW2 1088   0.053   0.559   3.074
  354SOL     OW 1089   0.189   0.520   3.584
  354SOL    HW1 1090   0.248   0.480   3.514
  354SOL    HW2 1091   0.131   0.591   3.543
  355SOL     OW 1092   1.369   0.950   3.522
  355SOL    HW1 1093   1.408   1.039   3.542
  355SOL    HW2 1094   1.379   0.930   3.425
  356SOL     OW 1095   0.815   0.572   2.187
  356SOL    HW1 1096   0.822   0.483   2.141
  356SOL    HW2 1097   0.721   0.606   2.179
  357SOL     OW 1098   1.657   0.604   3.068
  357SOL    HW1 1099   1.619   0.535   3.130
  357SOL    HW2 1100   1.739   0.568   3.024
  358SOL     OW 1101   0.252   1.564   3.606
  358SOL    HW1 1102   0.222   1.621   3.682
  358SOL    HW2 1103   0.245   1.467   3.632
  359SOL     OW 1104   0.671   0.464   3.131
  359SOL    HW1 1105   0.637   0.375   3.101
  359SOL    HW2 1106   0.697   0.518   3.051
  360SOL     OW 1107   0.930   1.678   3.327
  360SOL    HW1 1108   0.906   1.660   3.232
  360SOL    HW2 1109   0.960   1.772   3.337
  361SOL     OW 1110   0.473   0.500   2.053
  361SOL    HW1 1111   0.534   0.580   2.057
  361SOL    HW2 1112   0.378   0.531   2.060
  362SOL     OW 1113   0.159   1.137   3.328
  362SOL    HW1 1114   0.181   1.076   3.404
  362SOL    HW2 1115   0.169   1.088   3.242
  363SOL     OW 1116   1.347   1.059   3.096
  363SOL    HW1 1117   1.371   0.996   3.022
  363SOL    HW2 1118   1.257   1.099   3.078
  364SOL     OW 1119   1.302   0.855   2.171
  364SOL    HW1 1120   1.216   0.824   2.213
  364SOL    HW2 1121   1.298   0.841   2.072
  365SOL     OW 1122   1.759   1.747   3.016
  365SOL    HW1 1123   1.820   1.777   2.943
  365SOL    HW2 1124   1.721   1.658   2.994
  366SOL     OW 1125   1.252   1.731   2.990
  366SOL    HW1 1126   1.336   1.736   2.936
  366SOL    HW2 1127   1.229   1.635   3.008
  367SOL     OW 1128   0.083   1.258   2.884
  367SOL    HW1 1129   0.078   1.257   2.984
  367SOL    HW2 1130   0.000   1.217   2.846
  368SOL     OW 1131   0.688   1.662   3.578
  368SOL    HW1 1132   0.632   1.743   3.587
  368SOL    HW2 1133   0.740   1.666   3.492
  369SOL     OW 1134   1.726   0.135   2.385
  369SOL    HW1 1135   1.799   0.118   2.318
  369SOL    HW2 1136   1.695   0.048   2.423
  370SOL     OW 1137   1.388   1.573   2.339
  370SOL    HW1 1138   1.455   1.585   2.265
  370SOL    HW2 1139   1.348   1.662   2.362
  371SOL     OW 1140   0.130   1.794   3.713
  371SOL    HW1 1141   0.089   1.720   3.766
  371SOL    HW2 1142   0.194   1.845   3.771
  372SOL     OW 1143   1.280   0.927   2.534
  372SOL    HW1 1144   1.340   0.846   2.536
  372SOL    HW2 1145   1.320   0.996   2.474
  373SOL     OW 1146   0.830   1.273   3.284
  373SOL    HW1 1147   0.825   1.306   3.379
  373SOL    HW2 1148   0.744   1.292   3.238
  374SOL     OW 1149   0.672   1.616   2.016
  374SOL    HW1 1150   0.681   1.626   1.917
  374SOL    HW2 1151   0.632   1.527   2.037
  375SOL     OW 1152   1.650   1.720   3.256
  375SOL    HW1 1153   1.703   1.730   3.172
  375SOL    HW2 1154   1.623   1.810   3.290
  376SOL     OW 1155   1.841   0.175   2.825
  376SOL    HW1 1156   1.880   0.090   2.789
  376SOL    HW2 1157   1.743   0.177   2.806
  377SOL     OW 1158   0.263   0.326   2.582
  377SOL    HW1 1159   0.184   0.377   2.548
  377SOL    HW2 1160   0.254   0.311   2.680
  378SOL     OW 1161   1.194   1.612   1.893
  378SOL    HW1 1162   1.200   1.519   1.930
  378SOL    HW2 1163   1.135   1.612   1.813
  379SOL     OW 1164   0.822   1.002   3.234
  379SOL    HW1 1165   0.862   1.001   3.142
  379SOL    HW2 1166   0.832   1.094   3.274
  380SOL     OW 1167   0.916   0.910   2.153
  380SOL    HW1 1168   0.979   0.948   2.085
  380SOL    HW2 1169   0.956   0.827   2.192
  381SOL     OW 1170   1.504   1.607   1.906
  381SOL    HW1 1171   1.412   1.644   1.913
  381SOL    HW2 1172   1.542   1.627   1.816
  382SOL     OW 1173   0.372   1.288   3.352
  382SOL    HW1 1174   0.359   1.381   3.318
  382SOL    HW2 1175   0.288   1.236   3.339
  383SOL     OW 1176   1.614   1.292   3.151
  383SOL    HW1 1177   1.674   1.295   3.231
  383SOL    HW2 1178   1.539   1.356   3.164
  384SOL     OW 1179   1.039   1.098   2.558
  384SOL    HW1 1180   0.969   1.051   2.612
  384SOL    HW2 1181   1.098   1.030   2.515
  385SOL     OW 1182   1.014   0.236   2.833
  385SOL    HW1 1183   1.006   0.200   2.740
  385SOL    HW2 1184   1.012   0.160   2.898
  386SOL     OW 1185   0.590   1.487   2.353
  386SOL    HW1 1186   0.632   1.429   2.283
  386SOL    HW2 1187   0.546   1.566   2.309
  387SOL     OW 1188   1.709   0.385   3.243
  387SOL    HW1 1189   1.782   0.454   3.247
  387SOL    HW2 1190   1.737   0.310   3.184
  388SOL     OW 1191   0.255   1.348   2.152
  388SOL    HW1 1192   0.159   1.349   2.125
  388SOL    HW2 1193   0.267   1.401   2.236
  389SOL     OW 1194   0.105   1.013   3.588
  389SOL    HW1 1195   0.028   0.980   3.642
  389SOL    HW2 1196   0.190   0.983   3.630
  390SOL     OW 1197   0.672   0.203   3.351
  390SOL    HW1 1198   0.762   0.187   3.311
  390SOL    HW2 1199   0.680   0.208   3.450
  391SOL     OW 1200   0.075   0.345   1.895
  391SOL    HW1 1201  -0.017   0.317   1.866
  391SOL    HW2 1202   0.106   0.422   1.839
  392SOL     OW 1203   1.440   0.856   3.260
  392SOL    HW1 1204   1.383   0.908   3.197
  392SOL    HW2 1205   1.536   0.868   3.236
  393SOL     OW 1206   0.072   0.166   2.180
  393SOL    HW1 1207   0.055   0.249   2.126
  393SOL    HW2 1208   0.162   0.129   2.158
  394SOL     OW 1209   1.183   1.335   1.981
  394SOL    HW1 1210   1.084   1.324   1.983
  394SOL    HW2 1211   1.217   1.350   2.074
  395SOL     OW 1212   0.613   0.842   3.293
  395SOL    HW1 1213   0.669   0.923   3.276
  395SOL    HW2 1214   0.672   0.762   3.296
  396SOL     OW 1215   1.493   1.767   2.821
  396SOL    HW1 1216   1.526   1.831   2.752
  396SOL    HW2 1217   1.559   1.761   2.896
  397SOL     OW 1218   0.716   0.565   3.570
  397SOL    HW1 1219   0.735   0.630   3.644
  397SOL    HW2 1220   0.776   0.485   3.579
  398SOL     OW 1221   1.450   1.220   3.495
  398SOL    HW1 1222   1.441   1.210   3.594
  398SOL    HW2 1223   1.546   1.213   3.469
  399SOL     OW 1224   0.390   1.741   3.422
  399SOL    HW1 1225   0.299   1.782   3.420
  399SOL    HW2 1226   0.383   1.647   3.454
  400SOL     OW 1227   1.674   0.883   3.116
  400SOL    HW1 1228   1.647   0.794   3.079
  400SOL    HW2 1229   1.675   0.951   3.043
  401SOL     OW 1230   1.225   0.325   2.311
  401SOL    HW1 1231   1.290   0.251   2.300
  401SOL    HW2 1232   1.245   0.375   2.395
  402SOL     OW 1233   0.594   0.745   2.514
  402SOL    HW1 1234   0.644   0.830   2.495
  402SOL    HW2 1235   0.506   0.747   2.466
  403SOL     OW 1236   1.777   0.342   3.504
  403SOL    HW1 1237   1.760   0.373   3.410
  403SOL    HW2 1238   1.693   0.305   3.542
  404SOL     OW 1239   1.730   0.934   3.379
  404SOL    HW1 1240   1.768   1.025   3.394
  404SOL    HW2 1241   1.722   0.917   3.280
  405SOL     OW 1242   0.859   1.374   1.878
  405SOL    HW1 1243   0.813   1.389   1.966
  405SOL    HW2 1244   0.903   1.459   1.848
  406SOL     OW 1245   0.661   1.790   2.815
  406SOL    HW1 1246   0.615   1.878   2.802
  406SOL    HW2 1247   0.760   1.802   2.808
  407SOL     OW 1248   0.859   0.956   2.723
  407SOL    HW1 1249   0.913   0.887   2.771
  407SOL    HW2 1250   0.827   1.025   2.789
  408SOL     OW 1251   1.083   0.984   1.949
  408SOL    HW1 1252   1.060   1.037   1.867
  408SOL    HW2 1253   1.164   0.928   1.930
  409SOL     OW 1254   1.861   1.569   2.713
  409SOL    HW1 1255   1.790   1.557   2.643
  409SOL    HW2 1256   1.862   1.490   2.773
  410SOL     OW 1257   0.221   1.314   3.706
  410SOL    HW1 1258   0.156   1.241   3.685
  410SOL    HW2 1259   0.225   1.328   3.804
  411SOL     OW 1260   0.079   1.240   2.515
  411SOL    HW1 1261   0.078   1.193   2.603
  411SOL    HW2 1262   0.161   1.212   2.464
  412SOL     OW 1263   0.672   1.391   3.486
  412SOL    HW1 1264   0.594   1.341   3.524
  412SOL    HW2 1265   0.669   1.486   3.517
  413SOL     OW 1266   1.824   0.192   3.089
  413SOL    HW1 1267   1.820   0.102   3.133
  413SOL    HW2 1268   1.827   0.181   2.990
  414SOL     OW 1269   0.428   0.424   2.382
  414SOL    HW1 1270   0.458   0.352   2.320
  414SOL    HW2 1271   0.389   0.384   2.465
  415SOL     OW 1272   1.705   1.487   2.966
  415SOL    HW1 1273   1.612   1.462   2.939
  415SOL    HW2 1274   1.731   1.437   3.048
  416SOL     OW 1275   0.317   0.547   3.142
  416SOL    HW1 1276   0.355   0.488   3.214
  416SOL    HW2 1277   0.357   0.521   3.054
  417SOL     OW 1278   0.812   1.586   2.549
  417SOL    HW1 1279   0.844   1.596   2.455
  417SOL    HW2 1280   0.733   1.524   2.551
  418SOL     OW 1281   1.424   0.214   2.974
  418SOL    HW1 1282   1.476   0.149   3.029
  418SOL    HW2 1283   1.375   0.277   3.035
  419SOL     OW 1284   1.001   0.034   3.016
  419SOL    HW1 1285   0.938  -0.038   2.985
  419SOL    HW2 1286   1.094  -0.002   3.016
  420SOL     OW 1287   0.770   1.330   2.163
  420SOL    HW1 1288   0.724   1.243   2.180
  420SOL    HW2 1289   0.861   1.327   2.204
  421SOL     OW 1290   0.618   1.567   3.146
  421SOL    HW1 1291   0.613   1.649   3.203
  421SOL    HW2 1292   0.707   1.564   3.101
  422SOL     OW 1293   1.352   0.052   2.030
  422SOL    HW1 1294   1.387   0.011   1.946
  422SOL    HW2 1295   1.262   0.014   2.050
  423SOL     OW 1296   1.300   0.453   2.553
  423SOL    HW1 1297   1.241   0.533   2.557
  423SOL    HW2 1298   1.315   0.418   2.646
  424SOL     OW 1299   1.593   0.221   2.744
  424SOL    HW1 1300   1.509   0.220   2.798
  424SOL    HW2 1301   1.595   0.304   2.688
  425SOL     OW 1302   0.039   1.077   2.162
  425SOL    HW1 1303   0.138   1.066   2.153
  425SOL    HW2 1304  -0.001   0.991   2.194
  426SOL     OW 1305   0.875   1.646   2.199
  426SOL    HW1 1306   0.798   1.611   2.145
  426SOL    HW2 1307   0.843   1.717   2.261
  427SOL     OW 1308   0.230   0.628   3.837
  427SOL    HW1 1309   0.137   0.626   3.874
  427SOL    HW2 1310   0.231   0.589   3.745
  428SOL     OW 1311   0.225   0.275   4.720
  428SOL    HW1 1312   0.260   0.258   4.812
  428SOL    HW2 1313   0.137   0.230   4.708
  429SOL     OW 1314   0.019   0.368   4.371
  429SOL    HW1 1315  -0.063   0.411   4.410
  429SOL    HW2 1316  -0.009   0.295   4.308
  430SOL     OW 1317   0.569   1.275   4.889
  430SOL    HW1 1318   0.476   1.268   4.852
  430SOL    HW2 1319   0.580   1.364   4.933
  431SOL     OW 1320   1.555   1.511   4.427
  431SOL    HW1 1321   1.498   1.495   4.508
  431SOL    HW2 1322   1.496   1.521   4.347
  432SOL     OW 1323   1.135   0.703   4.441
  432SOL    HW1 1324   1.192   0.781   4.416
  432SOL    HW2 1325   1.075   0.729   4.517
  433SOL     OW 1326   1.755   0.607   3.955
  433SOL    HW1 1327   1.743   0.594   3.856
  433SOL    HW2 1328   1.725   0.526   4.004
  434SOL     OW 1329   0.768   1.144   4.747
  434SOL    HW1 1330   0.690   1.161   4.807
  434SOL    HW2 1331   0.802   1.231   4.711
  435SOL     OW 1332   0.685   1.012   4.389
  435SOL    HW1 1333   0.754   0.996   4.459
  435SOL    HW2 1334   0.612   1.069   4.427
  436SOL     OW 1335   0.335   1.435   4.785
  436SOL    HW1 1336   0.257   1.404   4.732
  436SOL    HW2 1337   0.393   1.493   4.728
  437SOL     OW 1338   1.460   1.505   5.063
  437SOL    HW1 1339   1.484   1.599   5.089
  437SOL    HW2 1340   1.444   1.451   5.145
  438SOL     OW 1341   0.438   0.392   5.223
  438SOL    HW1 1342   0.520   0.336   5.232
  438SOL    HW2 1343   0.357   0.334   5.227
  439SOL     OW 1344   1.603   0.447   4.461
  439SOL    HW1 1345   1.529   0.493   4.411
  439SOL    HW2 1346   1.654   0.515   4.514
  440SOL     OW 1347   0.231   1.713   4.207
  440SOL    HW1 1348   0.265   1.790   4.261
  440SOL    HW2 1349   0.275   1.713   4.117
  441SOL     OW 1350   0.230   1.434   4.262
  441SOL    HW1 1351   0.204   1.530   4.262
  441SOL    HW2 1352   0.159   1.380   4.307
  442SOL     OW 1353   0.240   1.091   4.610
  442SOL    HW1 1354   0.254   1.007   4.662
  442SOL    HW2 1355   0.185   1.155   4.665
  443SOL     OW 1356   0.620   1.786   5.163
  443SOL    HW1 1357   0.528   1.769   5.198
  443SOL    HW2 1358   0.648   1.878   5.189
  444SOL     OW 1359   0.606   0.964   3.847
  444SOL    HW1 1360   0.613   1.048   3.793
  444SOL    HW2 1361   0.652   0.977   3.935
  445SOL     OW 1362   1.594   0.114   5.204
  445SOL    HW1 1363   1.576   0.181   5.132
  445SOL    HW2 1364   1.591   0.160   5.293
  446SOL     OW 1365   0.122   0.643   4.287
  446SOL    HW1 1366   0.077   0.555   4.304
  446SOL    HW2 1367   0.121   0.697   4.371
  447SOL     OW 1368   1.842   1.767   4.083
  447SOL    HW1 1369   1.896   1.738   4.163
  447SOL    HW2 1370   1.872   1.857   4.054
  448SOL     OW 1371   0.027   1.596   3.841
  448SOL    HW1 1372   0.008   1.500   3.862
  448SOL    HW2 1373  -0.006   1.654   3.916
  449SOL     OW 1374   1.689   0.922   4.336
  449SOL    HW1 1375   1.784   0.893   4.344
  449SOL    HW2 1376   1.681   0.987   4.261
  450SOL     OW 1377   1.641   1.108   4.156
  450SOL    HW1 1378   1.727   1.110   4.104
  450SOL    HW2 1379   1.655   1.155   4.244
  451SOL     OW 1380   0.613   1.365   4.450
  451SOL    HW1 1381   0.564   1.278   4.459
  451SOL    HW2 1382   0.590   1.408   4.363
  452SOL     OW 1383   1.293   1.228   5.147
  452SOL    HW1 1384   1.330   1.155   5.089
  452SOL    HW2 1385   1.345   1.233   5.232
  453SOL     OW 1386   0.809   0.004   4.226
  453SOL    HW1 1387   0.849   0.095   4.217
  453SOL    HW2 1388   0.709   0.012   4.232
  454SOL     OW 1389   0.197   0.976   4.988
  454SOL    HW1 1390   0.286   0.931   4.974
  454SOL    HW2 1391   0.124   0.911   4.969
  455SOL     OW 1392   1.525   0.999   3.914
  455SOL    HW1 1393   1.462   0.923   3.927
  455SOL    HW2 1394   1.573   1.017   4.000
  456SOL     OW 1395   1.466   1.417   4.677
  456SOL    HW1 1396   1.407   1.423   4.757
  456SOL    HW2 1397   1.451   1.329   4.631
  457SOL     OW 1398   1.667   1.714   4.296
  457SOL    HW1 1399   1.626   1.691   4.208
  457SOL    HW2 1400   1.649   1.640   4.361
  458SOL     OW 1401   0.598   0.729   3.994
  458SOL    HW1 1402   0.622   0.798   3.926
  458SOL    HW2 1403   0.520   0.762   4.048
  459SOL     OW 1404   1.281   0.345   4.668
  459SOL    HW1 1405   1.195   0.295   4.655
  459SOL    HW2 1406   1.343   0.291   4.724
  460SOL     OW 1407   1.576   1.662   4.031
  460SOL    HW1 1408   1.665   1.708   4.034
  460SOL    HW2 1409   1.555   1.638   3.936
  461SOL     OW 1410   0.807   0.605   5.189
  461SOL    HW1 1411   0.760   0.602   5.278
  461SOL    HW2 1412   0.756   0.550   5.123
  462SOL     OW 1413   0.973   0.890   5.296
  462SOL    HW1 1414   1.019   0.806   5.267
  462SOL    HW2 1415   0.917   0.924   5.221
  463SOL     OW 1416   0.991   0.410   4.966
  463SOL    HW1 1417   0.914   0.444   5.020
  463SOL    HW2 1418   0.957   0.359   4.887
  464SOL     OW 1419   1.041   0.701   4.153
  464SOL    HW1 1420   1.067   0.697   4.249
  464SOL    HW2 1421   0.956   0.650   4.139
  465SOL     OW 1422   0.076   0.811   4.513
  465SOL    HW1 1423   0.175   0.799   4.522
  465SOL    HW2 1424   0.052   0.906   4.534
  466SOL     OW 1425   0.130   1.821   5.295
  466SOL    HW1 1426   0.120   1.806   5.394
  466SOL    HW2 1427   0.044   1.857   5.259
  467SOL     OW 1428   0.865   0.348   3.919
  467SOL    HW1 1429   0.924   0.411   3.870
  467SOL    HW2 1430   0.884   0.254   3.890
  468SOL     OW 1431   1.362   1.144   4.269
  468SOL    HW1 1432   1.445   1.115   4.221
  468SOL    HW2 1433   1.313   1.211   4.213
  469SOL     OW 1434   0.550   0.196   4.609
  469SOL    HW1 1435   0.545   0.191   4.709
  469SOL    HW2 1436   0.552   0.292   4.580
  470SOL     OW 1437   1.008   1.456   4.201
  470SOL    HW1 1438   0.962   1.528   4.149
  470SOL    HW2 1439   1.004   1.476   4.299
  471SOL     OW 1440   0.351   1.801   4.577
  471SOL    HW1 1441   0.401   1.715   4.583
  471SOL    HW2 1442   0.416   1.878   4.574
  472SOL     OW 1443   1.795   1.066   4.597
  472SOL    HW1 1444   1.733   1.051   4.521
  472SOL    HW2 1445   1.743   1.077   4.682
  473SOL     OW 1446   0.321   0.943   3.966
  473SOL    HW1 1447   0.403   0.982   3.924
  473SOL    HW2 1448   0.294   0.861   3.917
  474SOL     OW 1449   1.458   0.735   4.452
  474SOL    HW1 1450   1.453   0.670   4.527
  474SOL    HW2 1451   1.538   0.794   4.465
  475SOL     OW 1452   1.111   1.776   3.961
  475SOL    HW1 1453   1.051   1.714   4.011
  475SOL    HW2 1454   1.142   1.732   3.876
  476SOL     OW 1455   1.632   1.377   3.805
  476SOL    HW1 1456   1.600   1.471   3.795
  476SOL    HW2 1457   1.556   1.314   3.793
  477SOL     OW 1458   0.464   1.743   4.047
  477SOL    HW1 1459   0.497   1.782   4.133
  477SOL    HW2 1460   0.540   1.736   3.982
  478SOL     OW 1461   1.400   0.107   4.150
  478SOL    HW1 1462   1.376   0.070   4.060
  478SOL    HW2 1463   1.499   0.123   4.154
  479SOL     OW 1464   0.249   1.785   4.965
  479SOL    HW1 1465   0.306   1.720   5.015
  479SOL    HW2 1466   0.233   1.752   4.872
  480SOL     OW 1467   0.940   1.698   4.628
  480SOL    HW1 1468   1.020   1.641   4.649
  480SOL    HW2 1469   0.891   1.658   4.551
  481SOL     OW 1470   0.382   0.700   4.204
  481SOL    HW1 1471   0.427   0.610   4.201
  481SOL    HW2 1472   0.288   0.689   4.237
  482SOL     OW 1473   0.614   0.122   3.841
  482SOL    HW1 1474   0.712   0.100   3.848
  482SOL    HW2 1475   0.583   0.105   3.748
  483SOL     OW 1476   0.888   1.514   4.919
  483SOL    HW1 1477   0.865   1.489   4.825
  483SOL    HW2 1478   0.949   1.445   4.958
  484SOL     OW 1479   1.351   0.590   5.157
  484SOL    HW1 1480   1.379   0.547   5.242
  484SOL    HW2 1481   1.376   0.686   5.158
  485SOL     OW 1482   0.803   1.402   4.648
  485SOL    HW1 1483   0.893   1.416   4.606
  485SOL    HW2 1484   0.732   1.404   4.577
  486SOL     OW 1485   0.922   0.503   4.623
  486SOL    HW1 1486   0.897   0.494   4.527
  486SOL    HW2 1487   0.970   0.421   4.654
  487SOL     OW 1488   0.539   0.064   4.236
  487SOL    HW1 1489   0.458   0.065   4.294
  487SOL    HW2 1490   0.542   0.147   4.181
  488SOL     OW 1491   1.434   1.188   3.765
  488SOL    HW1 1492   1.466   1.112   3.822
  488SOL    HW2 1493   1.342   1.215   3.795
  489SOL     OW 1494   0.297   0.035   3.895
  489SOL    HW1 1495   0.346   0.119   3.874
  489SOL    HW2 1496   0.359  -0.030   3.940
  490SOL     OW 1497   0.935   0.236   4.204
  490SOL    HW1 1498   0.887   0.277   4.126
  490SOL    HW2 1499   1.034   0.234   4.185
  491SOL     OW 1500   1.227   1.570   4.517
  491SOL    HW1 1501   1.248   1.644   4.452
  491SOL    HW2 1502   1.295   1.570   4.590
  492SOL     OW 1503   0.459   1.152   4.465
  492SOL    HW1 1504   0.388   1.125   4.530
  492SOL    HW2 1505   0.433   1.124   4.372
  493SOL     OW 1506   1.271   1.797   4.315
  493SOL    HW1 1507   1.315   1.861   4.251
  493SOL    HW2 1508   1.221   1.849   4.385
  494SOL     OW 1509   1.032   0.549   3.740
  494SOL    HW1 1510   0.991   0.631   3.701
  494SOL    HW2 1511   1.096   0.575   3.813
  495SOL     OW 1512   0.078   0.556   5.110
  495SOL    HW1 1513   0.170   0.555   5.069
  495SOL    HW2 1514   0.072   0.630   5.177
  496SOL     OW 1515   0.561   0.222   4.871
  496SOL    HW1 1516   0.599   0.138   4.908
  496SOL    HW2 1517   0.473   0.241   4.915
  497SOL     OW 1518   0.866   0.454   4.366
  497SOL    HW1 1519   0.834   0.526   4.304
  497SOL    HW2 1520   0.890   0.373   4.313
  498SOL     OW 1521   1.017   0.039   4.477
  498SOL    HW1 1522   0.945   0.044   4.408
  498SOL    HW2 1523   0.993  -0.030   4.546
  499SOL     OW 1524   1.429   1.173   4.591
  499SOL    HW1 1525   1.374   1.089   4.584
  499SOL    HW2 1526   1.455   1.202   4.499
  500SOL     OW 1527   1.466   0.590   4.716
  500SOL    HW1 1528   1.436   0.495   4.723
  500SOL    HW2 1529   1.539   0.606   4.782
  501SOL     OW 1530   1.857   0.833   4.101
  501SOL    HW1 1531   1.899   0.769   4.165
  501SOL    HW2 1532   1.819   0.782   4.023
  502SOL     OW 1533   0.488   1.385   3.898
  502SOL    HW1 1534   0.401   1.370   3.945
  502SOL    HW2 1535   0.471   1.411   3.803
  503SOL     OW 1536   1.664   1.280   4.381
  503SOL    HW1 1537   1.763   1.288   4.395
  503SOL    HW2 1538   1.619   1.364   4.412
  504SOL     OW 1539   1.390   0.575   3.802
  504SOL    HW1 1540   1.336   0.554   3.883
  504SOL    HW2 1541   1.481   0.534   3.811
  505SOL     OW 1542   0.527   0.256   4.052
  505SOL    HW1 1543   0.554   0.197   3.977
  505SOL    HW2 1544   0.527   0.351   4.021
  506SOL     OW 1545   1.754   1.223   5.312
  506SOL    HW1 1546   1.845   1.184   5.299
  506SOL    HW2 1547   1.762   1.319   5.336
  507SOL     OW 1548   1.064   1.347   5.064
  507SOL    HW1 1549   0.984   1.324   5.119
  507SOL    HW2 1550   1.147   1.321   5.113
  508SOL     OW 1551   1.111   1.195   4.824
  508SOL    HW1 1552   1.071   1.239   4.905
  508SOL    HW2 1553   1.070   1.232   4.741
  509SOL     OW 1554   1.638   1.099   4.803
  509SOL    HW1 1555   1.643   1.180   4.862
  509SOL    HW2 1556   1.552   1.101   4.752
  510SOL     OW 1557   0.915   0.089   5.126
  510SOL    HW1 1558   0.940   0.069   5.031
  510SOL    HW2 1559   0.987   0.145   5.168
  511SOL     OW 1560   0.705   1.050   4.092
  511SOL    HW1 1561   0.691   1.057   4.191
  511SOL    HW2 1562   0.789   0.999   4.074
  512SOL     OW 1563   0.410   0.813   4.975
  512SOL    HW1 1564   0.496   0.825   5.025
  512SOL    HW2 1565   0.368   0.726   5.002
  513SOL     OW 1566   1.274   0.386   4.986
  513SOL    HW1 1567   1.295   0.460   5.050
  513SOL    HW2 1568   1.185   0.403   4.943
  514SOL     OW 1569   0.064   1.564   5.055
  514SOL    HW1 1570   0.018   1.646   5.021
  514SOL    HW2 1571   0.162   1.583   5.064
  515SOL     OW 1572   0.367   1.100   4.225
  515SOL    HW1 1573   0.360   1.183   4.169
  515SOL    HW2 1574   0.371   1.020   4.165
  516SOL     OW 1575   0.566   0.537   4.589
  516SOL    HW1 1576   0.578   0.603   4.515
  516SOL    HW2 1577   0.612   0.571   4.672
  517SOL     OW 1578   1.252   1.348   4.112
  517SOL    HW1 1579   1.302   1.425   4.152
  517SOL    HW2 1580   1.157   1.350   4.144
  518SOL     OW 1581   1.272   1.445   4.866
  518SOL    HW1 1582   1.319   1.458   4.953
  518SOL    HW2 1583   1.206   1.371   4.875
  519SOL     OW 1584   1.582   0.639   4.196
  519SOL    HW1 1585   1.551   0.700   4.269
  519SOL    HW2 1586   1.632   0.691   4.127
  520SOL     OW 1587   0.354   1.510   5.053
  520SOL    HW1 1588   0.333   1.466   4.966
  520SOL    HW2 1589   0.451   1.536   5.056
  521SOL     OW 1590   0.402   0.751   5.322
  521SOL    HW1 1591   0.470   0.806   5.275
  521SOL    HW2 1592   0.442   0.663   5.349
  522SOL     OW 1593   1.587   0.779   5.394
  522SOL    HW1 1594   1.495   0.817   5.389
  522SOL    HW2 1595   1.647   0.826   5.329
  523SOL     OW 1596   0.573   0.870   4.753
  523SOL    HW1 1597   0.617   0.959   4.744
  523SOL    HW2 1598   0.510   0.870   4.830
  524SOL     OW 1599   1.360   0.862   4.769
  524SOL    HW1 1600   1.285   0.862   4.703
  524SOL    HW2 1601   1.397   0.770   4.778
  525SOL     OW 1602   1.209   0.525   3.999
  525SOL    HW1 1603   1.222   0.441   4.053
  525SOL    HW2 1604   1.180   0.599   4.059
  526SOL     OW 1605   0.307   0.213   4.955
  526SOL    HW1 1606   0.284   0.250   5.045
  526SOL    HW2 1607   0.277   0.118   4.949
  527SOL     OW 1608   0.037   1.310   5.006
  527SOL    HW1 1609   0.090   1.261   5.074
  527SOL    HW2 1610   0.059   1.408   5.011
  528SOL     OW 1611   0.732   0.634   4.788
  528SOL    HW1 1612   0.791   0.608   4.712
  528SOL    HW2 1613   0.704   0.730   4.777
  529SOL     OW 1614   0.307   0.063   4.342
  529SOL    HW1 1615   0.296   0.157   4.375
  529SOL    HW2 1616   0.302   0.000   4.419
  530SOL     OW 1617   1.622   0.367   4.098
  530SOL    HW1 1618   1.624   0.291   4.162
  530SOL    HW2 1619   1.574   0.444   4.138
  531SOL     OW 1620   1.023   0.766   4.690
  531SOL    HW1 1621   1.038   0.787   4.786
  531SOL    HW2 1622   0.993   0.671   4.681
  532SOL     OW 1623   0.980   1.573   5.424
  532SOL    HW1 1624   0.960   1.617   5.336
  532SOL    HW2 1625   1.019   1.482   5.408
  533SOL     OW 1626   1.540   0.274   3.849
  533SOL    HW1 1627   1.479   0.199   3.872
  533SOL    HW2 1628   1.562   0.326   3.932
  534SOL     OW 1629   1.303   0.838   3.766
  534SOL    HW1 1630   1.337   0.745   3.781
  534SOL    HW2 1631   1.321   0.865   3.671
  535SOL     OW 1632   1.068   1.333   4.573
  535SOL    HW1 1633   1.075   1.249   4.518
  535SOL    HW2 1634   1.130   1.402   4.537
  536SOL     OW 1635   0.319   0.810   4.673
  536SOL    HW1 1636   0.412   0.846   4.678
  536SOL    HW2 1637   0.313   0.725   4.725
  537SOL     OW 1638   0.339   0.509   4.730
  537SOL    HW1 1639   0.287   0.426   4.713
  537SOL    HW2 1640   0.416   0.514   4.666
  538SOL     OW 1641   1.138   0.380   5.402
  538SOL    HW1 1642   1.093   0.443   5.466
  538SOL    HW2 1643   1.231   0.411   5.385
  539SOL     OW 1644   1.160   0.207   5.201
  539SOL    HW1 1645   1.160   0.271   5.278
  539SOL    HW2 1646   1.188   0.255   5.118
  540SOL     OW 1647   0.008   1.326   3.924
  540SOL    HW1 1648  -0.085   1.347   3.893
  540SOL    HW2 1649   0.018   1.227   3.937
  541SOL     OW 1650   0.088   1.801   4.651
  541SOL    HW1 1651   0.046   1.715   4.624
  541SOL    HW2 1652   0.182   1.804   4.617
  542SOL     OW 1653   0.504   1.568   4.634
  542SOL    HW1 1654   0.570   1.642   4.643
  542SOL    HW2 1655   0.548   1.489   4.592
  543SOL     OW 1656   1.002   0.796   4.962
  543SOL    HW1 1657   1.043   0.764   5.048
  543SOL    HW2 1658   0.906   0.769   4.959
  544SOL     OW 1659   0.040   0.544   4.838
  544SOL    HW1 1660   0.125   0.511   4.797
  544SOL    HW2 1661   0.053   0.559   4.936
  545SOL     OW 1662   0.815   0.572   4.049
  545SOL    HW1 1663   0.822   0.483   4.003
  545SOL    HW2 1664   0.721   0.606   4.041
  546SOL     OW 1665   1.657   0.604   4.930
  546SOL    HW1 1666   1.619   0.535   4.992
  546SOL    HW2 1667   1.739   0.568   4.886
  547SOL     OW 1668   0.252   1.564   5.468
  547SOL    HW1 1669   0.222   1.621   5.544
  547SOL    HW2 1670   0.245   1.467   5.494
  548SOL     OW 1671   0.671   0.464   4.993
  548SOL    HW1 1672   0.637   0.375   4.963
  548SOL    HW2 1673   0.697   0.518   4.913
  549SOL     OW 1674   0.930   1.678   5.189
  549SOL    HW1 1675   0.906   1.660   5.094
  549SOL    HW2 1676   0.960   1.772   5.199
  550SOL     OW 1677   0.473   0.500   3.915
  550SOL    HW1 1678   0.534   0.580   3.919
  550SOL    HW2 1679   0.378   0.531   3.922
  551SOL     OW 1680   0.159   1.137   5.190
  551SOL    HW1 1681   0.181   1.076   5.266
  551SOL    HW2 1682   0.169   1.088   5.104
  552SOL     OW 1683   1.347   1.059   4.958
  552SOL    HW1 1684   1.371   0.996   4.884
  552SOL    HW2 1685   1.257   1.099   4.940
  553SOL     OW 1686   1.302   0.855   4.033
  553SOL    HW1 1687   1.216   0.824   4.075
  553SOL    HW2 1688   1.298   0.841   3.934
  554SOL     OW 1689   1.759   1.747   4.878
  554SOL    HW1 1690   1.820   1.777   4.805
  554SOL    HW2 1691   1.721   1.658   4.856
  555SOL     OW 1692   1.252   1.731   4.852
  555SOL    HW1 1693   1.336   1.736   4.798
  555SOL    HW2 1694   1.229   1.635   4.870
  556SOL     OW 1695   0.083   1.258   4.746
  556SOL    HW1 1696   0.078   1.257   4.846
  556SOL    HW2 1697   0.000   1.217   4.708
  557SOL     OW 1698   1.726   0.135   4.247
  557SOL    HW1 1699   1.799   0.118   4.180
  557SOL    HW2 1700   1.695   0.048   4.285
  558SOL     OW 1701   1.388   1.573   4.201
  558SOL    HW1 1702   1.455   1.585   4.127
  558SOL    HW2 1703   1.348   1.662   4.224
  559SOL     OW 1704   0.130   1.794   5.575
  559SOL    HW1 1705   0.089   1.720   5.628
  559SOL    HW2 1706   0.194   1.845   5.633
  560SOL     OW 1707   1.280   0.927   4.396
  560SOL    HW1 1708   1.340   0.846   4.398
  560SOL    HW2 1709   1.320   0.996   4.336
  561SOL     OW 1710   0.672   1.616   3.878
  561SOL    HW1 1711   0.681   1.626   3.779
  561SOL    HW2 1712   0.632   1.527   3.899
  562SOL     OW 1713   1.650   1.720   5.118
  562SOL    HW1 1714   1.703   1.730   5.034
  562SOL    HW2 1715   1.623   1.810   5.152
  563SOL     OW 1716   1.841   0.175   4.687
  563SOL    HW1 1717   1.880   0.090   4.651
  563SOL    HW2 1718   1.743   0.177   4.668
  564SOL     OW 1719   0.263   0.326   4.444
  564SOL    HW1 1720   0.184   0.377   4.410
  564SOL    HW2 1721   0.254   0.311   4.542
  565SOL     OW 1722   1.194   1.612   3.755
  565SOL    HW1 1723   1.200   1.519   3.792
  565SOL    HW2 1724   1.135   1.612   3.675
  566SOL     OW 1725   0.822   1.002   5.096
  566SOL    HW1 1726   0.862   1.001   5.004
  566SOL    HW2 1727   0.832   1.094   5.136
  567SOL     OW 1728   0.916   0.910   4.015
  567SOL    HW1 1729   0.979   0.948   3.947
  567SOL    HW2 1730   0.956   0.827   4.054
  568SOL     OW 1731   1.504   1.607   3.768
  568SOL    HW1 1732   1.412   1.644   3.775
  568SOL    HW2 1733   1.542   1.627   3.678
  569SOL     OW 1734   0.372   1.288   5.214
  569SOL    HW1 1735   0.359   1.381   5.180
  569SOL    HW2 1736   0.288   1.236   5.201
  570SOL     OW 1737   1.614   1.292   5.013
  570SOL    HW1 1738   1.674   1.295   5.093
  570SOL    HW2 1739   1.539   1.356   5.026
  571SOL     OW 1740   1.039   1.098   4.420
  571SOL    HW1 1741   0.969   1.051   4.474
  571SOL    HW2 1742   1.098   1.030   4.377
  572SOL     OW 1743   1.014   0.236   4.695
  572SOL    HW1 1744   1.006   0.200   4.602
  572SOL    HW2 1745   1.012   0.160   4.760
  573SOL     OW 1746   0.590   1.487   4.215
  573SOL    HW1 1747   0.632   1.429   4.145
  573SOL    HW2 1748   0.546   1.566   4.171
  574SOL     OW 1749   1.709   0.385   5.105
  574SOL    HW1 1750   1.782   0.454   5.109
  574SOL    HW2 1751   1.737   0.310   5.046
  575SOL     OW 1752   0.255   1.348   4.014
  575SOL    HW1 1753   0.159   1.349   3.987
  575SOL    HW2 1754   0.267   1.401   4.098
  576SOL     OW 1755   0.672   0.203   5.213
  576SOL    HW1 1756   0.762   0.187   5.173
  576SOL    HW2 1757   0.680   0.208   5.312
  577SOL     OW 1758   0.075   0.345   3.757
  577SOL    HW1 1759  -0.017   0.317   3.728
  577SOL    HW2 1760   0.106   0.422   3.701
  578SOL     OW 1761   1.440   0.856   5.122
  578SOL    HW1 1762   1.383   0.908   5.059
  578SOL    HW2 1763   1.536   0.868   5.098
  579SOL     OW 1764   0.072   0.166   4.042
  579SOL    HW1 1765   0.055   0.249   3.988
  579SOL    HW2 1766   0.162   0.129   4.020
  580SOL     OW 1767   1.183   1.335   3.843
  580SOL    HW1 1768   1.084   1.324   3.845
  580SOL    HW2 1769   1.217   1.350   3.936
  581SOL     OW 1770   0.613   0.842   5.155
  581SOL    HW1 1771   0.669   0.923   5.138
  581SOL    HW2 1772   0.672   0.762   5.158
  582SOL     OW 1773   1.493   1.767   4.683
  582SOL    HW1 1774   1.526   1.831   4.614
  582SOL    HW2 1775   1.559   1.761   4.758
  583SOL     OW 1776   0.390   1.741   5.284
  583SOL    HW1 1777   0.299   1.782   5.282
  583SOL    HW2 1778   0.383   1.647   5.316
  584SOL     OW 1779   1.674   0.883   4.978
  584SOL    HW1 1780   1.647   0.794   4.941
  584SOL    HW2 1781   1.675   0.951   4.905
  585SOL     OW 1782   1.225   0.325   4.173
  585SOL    HW1 1783   1.290   0.251   4.162
  585SOL    HW2 1784   1.245   0.375   4.257
  586SOL     OW 1785   0.594   0.745   4.376
  586SOL    HW1 1786   0.644   0.830   4.357
  586SOL    HW2 1787   0.506   0.747   4.328
  587SOL     OW 1788   1.777   0.342   5.366
  587SOL    HW1 1789   1.760   0.373   5.272
  587SOL    HW2 1790   1.693   0.305   5.404
  588SOL     OW 1791   1.730   0.934   5.241
  588SOL    HW1 1792   1.768   1.025   5.256
  588SOL    HW2 1793   1.722   0.917   5.142
  589SOL     OW 1794   0.859   1.374   3.740
  589SOL    HW1 1795   0.813   1.389   3.828
  589SOL    HW2 1796   0.903   1.459   3.710
  590SOL     OW 1797   0.661   1.790   4.677
  590SOL    HW1 1798   0.615   1.878   4.664
  590SOL    HW2 1799   0.760   1.802   4.670
  591SOL     OW 1800   0.859   0.956   4.585
  591SOL    HW1 1801   0.913   0.887   4.633
  591SOL    HW2 1802   0.827   1.025   4.651
  592SOL     OW 1803   1.083   0.984   3.811
  592SOL    HW1 1804   1.060   1.037   3.729
  592SOL    HW2 1805   1.164   0.928   3.792
  593SOL     OW 1806   1.861   1.569   4.575
  593SOL    HW1 1807   1.790   1.557   4.505
  593SOL    HW2 1808   1.862   1.490   4.635
  594SOL     OW 1809   0.079   1.240   4.377
  594SOL    HW1 1810   0.078   1.193   4.465
  594SOL    HW2 1811   0.161   1.212   4.326
  595SOL     OW 1812   1.824   0.192   4.951
  595SOL    HW1 1813   1.820   0.102   4.995
  595SOL    HW2 1814   1.827   0.181   4.852
  596SOL     OW 1815   0.428   0.424   4.244
  596SOL    HW1 1816   0.458   0.352   4.182
  596SOL    HW2 1817   0.389   0.384   4.327
  597SOL     OW 1818   1.705   1.487   4.828
  597SOL    HW1 1819   1.612   1.462   4.801
  597SOL    HW2 1820   1.731   1.437   4.910
  598SOL     OW 1821   0.317   0.547   5.004
  598SOL    HW1 1822   0.355   0.488   5.076
  598SOL    HW2 1823   0.357   0.521   4.916
  599SOL     OW 1824   0.812   1.586   4.411
  599SOL    HW1 1825   0.844   1.596   4.317
  599SOL    HW2 1826   0.733   1.524   4.413
  600SOL     OW 1827   1.424   0.214   4.836
  600SOL    HW1 1828   1.476   0.149   4.891
  600SOL    HW2 1829   1.375   0.277   4.897
  601SOL     OW 1830   1.001   0.034   4.878
  601SOL    HW1 1831   0.938  -0.038   4.847
  601SOL    HW2 1832   1.094  -0.002   4.878
  602SOL     OW 1833   0.770   1.330   4.025
  602SOL    HW1 1834   0.724   1.243   4.042
  602SOL    HW2 1835   0.861   1.327   4.066
  603SOL     OW 1836   0.618   1.567   5.008
  603SOL    HW1 1837   0.613   1.649   5.065
  603SOL    HW2 1838   0.707   1.564   4.963
  604SOL     OW 1839   1.352   0.052   3.892
  604SOL    HW1 1840   1.387   0.011   3.808
  604SOL    HW2 1841   1.262   0.014   3.912
  605SOL     OW 1842   1.300   0.453   4.415
  605SOL    HW1 1843   1.241   0.533   4.419
  605SOL    HW2 1844   1.315   0.418   4.508
  606SOL     OW 1845   1.593   0.221   4.606
  606SOL    HW1 1846   1.509   0.220   4.660
  606SOL    HW2 1847   1.595   0.304   4.550
  607SOL     OW 1848   0.039   1.077   4.024
  607SOL    HW1 1849   0.138   1.066   4.015
  607SOL    HW2 1850  -0.001   0.991   4.056
  608SOL     OW 1851   0.875   1.646   4.061
  608SOL    HW1 1852   0.798   1.611   4.007
  608SOL    HW2 1853   0.843   1.717   4.123
  609SOL     OW 1854   0.230   2.490   0.113
  609SOL    HW1 1855   0.137   2.488   0.150
  609SOL    HW2 1856   0.231   2.451   0.021
  610SOL     OW 1857   0.225   2.137   0.996
  610SOL    HW1 1858   0.260   2.120   1.088
  610SOL    HW2 1859   0.137   2.092   0.984
  611SOL     OW 1860   0.019   2.230   0.647
  611SOL    HW1 1861  -0.063   2.273   0.686
  611SOL    HW2 1862  -0.009   2.157   0.584
  612SOL     OW 1863   0.569   3.137   1.165
  612SOL    HW1 1864   0.476   3.130   1.128
  612SOL    HW2 1865   0.580   3.226   1.209
  613SOL     OW 1866   1.555   3.373   0.703
  613SOL    HW1 1867   1.498   3.357   0.784
  613SOL    HW2 1868   1.496   3.383   0.623
  614SOL     OW 1869   1.135   2.565   0.717
  614SOL    HW1 1870   1.192   2.643   0.692
  614SOL    HW2 1871   1.075   2.591   0.793
  615SOL     OW 1872   1.755   2.469   0.231
  615SOL    HW1 1873   1.743   2.456   0.132
  615SOL    HW2 1874   1.725   2.388   0.280
  616SOL     OW 1875   0.768   3.006   1.023
  616SOL    HW1 1876   0.690   3.023   1.083
  616SOL    HW2 1877   0.802   3.093   0.987
  617SOL     OW 1878   0.850   2.660   1.823
  617SOL    HW1 1879   0.846   2.736   1.888
  617SOL    HW2 1880   0.872   2.696   1.732
  618SOL     OW 1881   0.685   2.874   0.665
  618SOL    HW1 1882   0.754   2.858   0.735
  618SOL    HW2 1883   0.612   2.931   0.703
  619SOL     OW 1884   0.686   3.023   1.803
  619SOL    HW1 1885   0.746   3.102   1.817
  619SOL    HW2 1886   0.600   3.054   1.762
  620SOL     OW 1887   0.335   3.297   1.061
  620SOL    HW1 1888   0.257   3.266   1.008
  620SOL    HW2 1889   0.393   3.355   1.004
  621SOL     OW 1890   1.460   3.367   1.339
  621SOL    HW1 1891   1.484   3.461   1.365
  621SOL    HW2 1892   1.444   3.313   1.421
  622SOL     OW 1893   0.438   2.254   1.499
  622SOL    HW1 1894   0.520   2.198   1.508
  622SOL    HW2 1895   0.357   2.196   1.503
  623SOL     OW 1896   1.603   2.309   0.737
  623SOL    HW1 1897   1.529   2.355   0.687
  623SOL    HW2 1898   1.654   2.377   0.790
  624SOL     OW 1899   0.231   3.575   0.483
  624SOL    HW1 1900   0.265   3.652   0.537
  624SOL    HW2 1901   0.275   3.575   0.393
  625SOL     OW 1902   1.127   3.203   1.690
  625SOL    HW1 1903   1.174   3.203   1.778
  625SOL    HW2 1904   1.079   3.116   1.679
  626SOL     OW 1905   0.230   3.296   0.538
  626SOL    HW1 1906   0.204   3.392   0.538
  626SOL    HW2 1907   0.159   3.242   0.583
  627SOL     OW 1908   0.240   2.953   0.886
  627SOL    HW1 1909   0.254   2.869   0.938
  627SOL    HW2 1910   0.185   3.017   0.941
  628SOL     OW 1911   0.620   3.648   1.439
  628SOL    HW1 1912   0.528   3.631   1.474
  628SOL    HW2 1913   0.648   3.740   1.465
  629SOL     OW 1914   0.606   2.826   0.123
  629SOL    HW1 1915   0.613   2.910   0.069
  629SOL    HW2 1916   0.652   2.839   0.211
  630SOL     OW 1917   1.594   1.976   1.480
  630SOL    HW1 1918   1.576   2.043   1.408
  630SOL    HW2 1919   1.591   2.022   1.569
  631SOL     OW 1920   0.122   2.505   0.563
  631SOL    HW1 1921   0.077   2.417   0.580
  631SOL    HW2 1922   0.121   2.559   0.647
  632SOL     OW 1923   1.842   3.629   0.359
  632SOL    HW1 1924   1.896   3.600   0.439
  632SOL    HW2 1925   1.872   3.719   0.330
  633SOL     OW 1926   0.027   3.458   0.117
  633SOL    HW1 1927   0.008   3.362   0.138
  633SOL    HW2 1928  -0.006   3.516   0.192
  634SOL     OW 1929   1.689   2.784   0.612
  634SOL    HW1 1930   1.784   2.755   0.620
  634SOL    HW2 1931   1.681   2.849   0.537
  635SOL     OW 1932   1.641   2.970   0.432
  635SOL    HW1 1933   1.727   2.972   0.380
  635SOL    HW2 1934   1.655   3.017   0.520
  636SOL     OW 1935   0.113   2.599   1.597
  636SOL    HW1 1936   0.201   2.586   1.642
  636SOL    HW2 1937   0.100   2.696   1.575
  637SOL     OW 1938   0.613   3.227   0.726
  637SOL    HW1 1939   0.564   3.140   0.735
  637SOL    HW2 1940   0.590   3.270   0.639
  638SOL     OW 1941   1.293   3.090   1.423
  638SOL    HW1 1942   1.330   3.017   1.365
  638SOL    HW2 1943   1.345   3.095   1.508
  639SOL     OW 1944   0.809   1.866   0.502
  639SOL    HW1 1945   0.849   1.957   0.493
  639SOL    HW2 1946   0.709   1.874   0.508
  640SOL     OW 1947   0.197   2.838   1.264
  640SOL    HW1 1948   0.286   2.793   1.250
  640SOL    HW2 1949   0.124   2.773   1.245
  641SOL     OW 1950   1.525   2.861   0.190
  641SOL    HW1 1951   1.462   2.785   0.203
  641SOL    HW2 1952   1.573   2.879   0.276
  642SOL     OW 1953   1.187   3.654   1.616
  642SOL    HW1 1954   1.211   3.714   1.540
  642SOL    HW2 1955   1.194   3.559   1.586
  643SOL     OW 1956   0.317   2.113   1.801
  643SOL    HW1 1957   0.388   2.184   1.807
  643SOL    HW2 1958   0.229   2.152   1.829
  644SOL     OW 1959   1.466   3.279   0.953
  644SOL    HW1 1960   1.407   3.285   1.033
  644SOL    HW2 1961   1.451   3.191   0.907
  645SOL     OW 1962   1.667   3.576   0.572
  645SOL    HW1 1963   1.626   3.553   0.484
  645SOL    HW2 1964   1.649   3.502   0.637
  646SOL     OW 1965   0.598   2.591   0.270
  646SOL    HW1 1966   0.622   2.660   0.202
  646SOL    HW2 1967   0.520   2.624   0.324
  647SOL     OW 1968   1.281   2.207   0.944
  647SOL    HW1 1969   1.195   2.157   0.931
  647SOL    HW2 1970   1.343   2.153   1.000
  648SOL     OW 1971   1.576   3.524   0.307
  648SOL    HW1 1972   1.665   3.570   0.310
  648SOL    HW2 1973   1.555   3.500   0.212
  649SOL     OW 1974   0.807   2.467   1.465
  649SOL    HW1 1975   0.760   2.464   1.554
  649SOL    HW2 1976   0.756   2.412   1.399
  650SOL     OW 1977   1.394   2.331   1.674
  650SOL    HW1 1978   1.374   2.374   1.762
  650SOL    HW2 1979   1.472   2.269   1.683
  651SOL     OW 1980   0.973   2.752   1.572
  651SOL    HW1 1981   1.019   2.668   1.543
  651SOL    HW2 1982   0.917   2.786   1.497
  652SOL     OW 1983   0.991   2.272   1.242
  652SOL    HW1 1984   0.914   2.306   1.296
  652SOL    HW2 1985   0.957   2.221   1.163
  653SOL     OW 1986   1.041   2.563   0.429
  653SOL    HW1 1987   1.067   2.559   0.525
  653SOL    HW2 1988   0.956   2.512   0.415
  654SOL     OW 1989   0.076   2.673   0.789
  654SOL    HW1 1990   0.175   2.661   0.798
  654SOL    HW2 1991   0.052   2.768   0.810
  655SOL     OW 1992   0.130   3.683   1.571
  655SOL    HW1 1993   0.120   3.668   1.670
  655SOL    HW2 1994   0.044   3.719   1.535
  656SOL     OW 1995   0.865   2.210   0.195
  656SOL    HW1 1996   0.924   2.273   0.146
  656SOL    HW2 1997   0.884   2.116   0.166
  657SOL     OW 1998   1.719   2.447   1.831
  657SOL    HW1 1999   1.693   2.536   1.795
  657SOL    HW2 2000   1.717   2.379   1.758
  658SOL     OW 2001   1.362   3.006   0.545
  658SOL    HW1 2002   1.445   2.977   0.497
  658SOL    HW2 2003   1.313   3.073   0.489
  659SOL     OW 2004   0.550   2.058   0.885
  659SOL    HW1 2005   0.545   2.053   0.985
  659SOL    HW2 2006   0.552   2.154   0.856
  660SOL     OW 2007   1.008   3.318   0.477
  660SOL    HW1 2008   0.962   3.390   0.425
  660SOL    HW2 2009   1.004   3.338   0.575
  661SOL     OW 2010   0.351   3.663   0.853
  661SOL    HW1 2011   0.401   3.577   0.859
  661SOL    HW2 2012   0.416   3.740   0.850
  662SOL     OW 2013   1.795   2.928   0.873
  662SOL    HW1 2014   1.733   2.913   0.797
  662SOL    HW2 2015   1.743   2.939   0.958
  663SOL     OW 2016   1.227   3.412   1.506
  663SOL    HW1 2017   1.233   3.335   1.570
  663SOL    HW2 2018   1.175   3.386   1.426
  664SOL     OW 2019   0.321   2.805   0.242
  664SOL    HW1 2020   0.403   2.844   0.200
  664SOL    HW2 2021   0.294   2.723   0.193
  665SOL     OW 2022   1.458   2.597   0.728
  665SOL    HW1 2023   1.453   2.532   0.803
  665SOL    HW2 2024   1.538   2.656   0.741
  666SOL     OW 2025   0.461   3.128   1.727
  666SOL    HW1 2026   0.411   3.129   1.641
  666SOL    HW2 2027   0.398   3.110   1.803
  667SOL     OW 2028   1.111   3.638   0.237
  667SOL    HW1 2029   1.051   3.576   0.287
  667SOL    HW2 2030   1.142   3.594   0.152
  668SOL     OW 2031   0.202   2.147   1.498
  668SOL    HW1 2032   0.122   2.207   1.485
  668SOL    HW2 2033   0.192   2.098   1.584
  669SOL     OW 2034   1.632   3.239   0.081
  669SOL    HW1 2035   1.600   3.333   0.071
  669SOL    HW2 2036   1.556   3.176   0.069
  670SOL     OW 2037   0.464   3.605   0.323
  670SOL    HW1 2038   0.497   3.644   0.409
  670SOL    HW2 2039   0.540   3.598   0.258
  671SOL     OW 2040   1.400   1.969   0.426
  671SOL    HW1 2041   1.376   1.932   0.336
  671SOL    HW2 2042   1.499   1.985   0.430
  672SOL     OW 2043   0.249   3.647   1.241
  672SOL    HW1 2044   0.306   3.582   1.291
  672SOL    HW2 2045   0.233   3.614   1.148
  673SOL     OW 2046   0.940   3.560   0.904
  673SOL    HW1 2047   1.020   3.503   0.925
  673SOL    HW2 2048   0.891   3.520   0.827
  674SOL     OW 2049   0.382   2.562   0.480
  674SOL    HW1 2050   0.427   2.472   0.477
  674SOL    HW2 2051   0.288   2.551   0.513
  675SOL     OW 2052   1.547   2.084   1.729
  675SOL    HW1 2053   1.542   2.121   1.821
  675SOL    HW2 2054   1.475   2.015   1.717
  676SOL     OW 2055   0.614   1.984   0.117
  676SOL    HW1 2056   0.712   1.962   0.124
  676SOL    HW2 2057   0.583   1.967   0.024
  677SOL     OW 2058   0.781   2.126   1.749
  677SOL    HW1 2059   0.848   2.065   1.792
  677SOL    HW2 2060   0.708   2.145   1.814
  678SOL     OW 2061   0.888   3.376   1.195
  678SOL    HW1 2062   0.865   3.351   1.101
  678SOL    HW2 2063   0.949   3.307   1.234
  679SOL     OW 2064   1.351   2.452   1.433
  679SOL    HW1 2065   1.379   2.409   1.518
  679SOL    HW2 2066   1.376   2.548   1.434
  680SOL     OW 2067   0.803   3.264   0.924
  680SOL    HW1 2068   0.893   3.278   0.882
  680SOL    HW2 2069   0.732   3.266   0.853
  681SOL     OW 2070   0.922   2.365   0.899
  681SOL    HW1 2071   0.897   2.356   0.803
  681SOL    HW2 2072   0.970   2.283   0.930
  682SOL     OW 2073   0.539   1.926   0.512
  682SOL    HW1 2074   0.458   1.927   0.570
  682SOL    HW2 2075   0.542   2.009   0.457
  683SOL     OW 2076   1.434   3.050   0.041
  683SOL    HW1 2077   1.466   2.974   0.098
  683SOL    HW2 2078   1.342   3.077   0.071
  684SOL     OW 2079   0.297   1.897   0.171
  684SOL    HW1 2080   0.346   1.981   0.150
  684SOL    HW2 2081   0.359   1.832   0.216
  685SOL     OW 2082   0.935   2.098   0.480
  685SOL    HW1 2083   0.887   2.139   0.402
  685SOL    HW2 2084   1.034   2.096   0.461
  686SOL     OW 2085   1.076   2.545   1.464
  686SOL    HW1 2086   0.996   2.484   1.467
  686SOL    HW2 2087   1.157   2.492   1.440
  687SOL     OW 2088   1.227   3.432   0.793
  687SOL    HW1 2089   1.248   3.506   0.728
  687SOL    HW2 2090   1.295   3.432   0.866
  688SOL     OW 2091   0.459   3.014   0.741
  688SOL    HW1 2092   0.388   2.987   0.806
  688SOL    HW2 2093   0.433   2.986   0.648
  689SOL     OW 2094   1.271   3.659   0.591
  689SOL    HW1 2095   1.315   3.723   0.527
  689SOL    HW2 2096   1.221   3.711   0.661
  690SOL     OW 2097   1.032   2.411   0.016
  690SOL    HW1 2098   0.991   2.493  -0.023
  690SOL    HW2 2099   1.096   2.437   0.089
  691SOL     OW 2100   0.078   2.418   1.386
  691SOL    HW1 2101   0.170   2.417   1.345
  691SOL    HW2 2102   0.072   2.492   1.453
  692SOL     OW 2103   0.561   2.084   1.147
  692SOL    HW1 2104   0.599   2.000   1.184
  692SOL    HW2 2105   0.473   2.103   1.191
  693SOL     OW 2106   0.866   2.316   0.642
  693SOL    HW1 2107   0.834   2.388   0.580
  693SOL    HW2 2108   0.890   2.235   0.589
  694SOL     OW 2109   1.017   1.901   0.753
  694SOL    HW1 2110   0.945   1.906   0.684
  694SOL    HW2 2111   0.993   1.832   0.822
  695SOL     OW 2112   1.429   3.035   0.867
  695SOL    HW1 2113   1.374   2.951   0.860
  695SOL    HW2 2114   1.455   3.064   0.775
  696SOL     OW 2115   1.466   2.452   0.992
  696SOL    HW1 2116   1.436   2.357   0.999
  696SOL    HW2 2117   1.539   2.468   1.058
  697SOL     OW 2118   1.857   2.695   0.377
  697SOL    HW1 2119   1.899   2.631   0.441
  697SOL    HW2 2120   1.819   2.644   0.299
  698SOL     OW 2121   0.488   3.247   0.174
  698SOL    HW1 2122   0.401   3.232   0.221
  698SOL    HW2 2123   0.471   3.273   0.079
  699SOL     OW 2124   1.664   3.142   0.657
  699SOL    HW1 2125   1.763   3.150   0.671
  699SOL    HW2 2126   1.619   3.226   0.688
  700SOL     OW 2127   1.390   2.437   0.078
  700SOL    HW1 2128   1.336   2.416   0.159
  700SOL    HW2 2129   1.481   2.396   0.087
  701SOL     OW 2130   0.527   2.118   0.328
  701SOL    HW1 2131   0.554   2.059   0.253
  701SOL    HW2 2132   0.527   2.213   0.297
  702SOL     OW 2133   1.754   3.085   1.588
  702SOL    HW1 2134   1.845   3.046   1.575
  702SOL    HW2 2135   1.762   3.181   1.612
  703SOL     OW 2136   1.064   3.209   1.340
  703SOL    HW1 2137   0.984   3.186   1.395
  703SOL    HW2 2138   1.147   3.183   1.389
  704SOL     OW 2139   1.592   3.491   1.625
  704SOL    HW1 2140   1.619   3.525   1.535
  704SOL    HW2 2141   1.671   3.453   1.671
  705SOL     OW 2142   1.111   3.057   1.100
  705SOL    HW1 2143   1.071   3.101   1.181
  705SOL    HW2 2144   1.070   3.094   1.017
  706SOL     OW 2145   1.638   2.961   1.079
  706SOL    HW1 2146   1.643   3.042   1.138
  706SOL    HW2 2147   1.552   2.963   1.028
  707SOL     OW 2148   0.915   1.951   1.402
  707SOL    HW1 2149   0.940   1.931   1.307
  707SOL    HW2 2150   0.987   2.007   1.444
  708SOL     OW 2151   0.980   2.978   1.719
  708SOL    HW1 2152   0.881   2.984   1.729
  708SOL    HW2 2153   1.003   2.898   1.663
  709SOL     OW 2154   0.705   2.912   0.368
  709SOL    HW1 2155   0.691   2.919   0.467
  709SOL    HW2 2156   0.789   2.861   0.350
  710SOL     OW 2157   0.410   2.675   1.251
  710SOL    HW1 2158   0.496   2.687   1.301
  710SOL    HW2 2159   0.368   2.588   1.278
  711SOL     OW 2160   1.274   2.248   1.262
  711SOL    HW1 2161   1.295   2.322   1.326
  711SOL    HW2 2162   1.185   2.265   1.219
  712SOL     OW 2163   0.064   3.426   1.331
  712SOL    HW1 2164   0.018   3.508   1.297
  712SOL    HW2 2165   0.162   3.445   1.340
  713SOL     OW 2166   0.367   2.962   0.501
  713SOL    HW1 2167   0.360   3.045   0.445
  713SOL    HW2 2168   0.371   2.882   0.441
  714SOL     OW 2169   0.566   2.399   0.865
  714SOL    HW1 2170   0.578   2.465   0.791
  714SOL    HW2 2171   0.612   2.433   0.948
  715SOL     OW 2172   1.252   3.210   0.388
  715SOL    HW1 2173   1.302   3.287   0.428
  715SOL    HW2 2174   1.157   3.212   0.420
  716SOL     OW 2175   1.272   3.307   1.142
  716SOL    HW1 2176   1.319   3.320   1.229
  716SOL    HW2 2177   1.206   3.233   1.151
  717SOL     OW 2178   1.582   2.501   0.472
  717SOL    HW1 2179   1.551   2.562   0.545
  717SOL    HW2 2180   1.632   2.553   0.403
  718SOL     OW 2181   0.354   3.372   1.329
  718SOL    HW1 2182   0.333   3.328   1.242
  718SOL    HW2 2183   0.451   3.398   1.332
  719SOL     OW 2184   0.402   2.613   1.598
  719SOL    HW1 2185   0.470   2.668   1.551
  719SOL    HW2 2186   0.442   2.525   1.625
  720SOL     OW 2187   1.587   2.641   1.670
  720SOL    HW1 2188   1.495   2.679   1.665
  720SOL    HW2 2189   1.647   2.688   1.605
  721SOL     OW 2190   1.013   1.967   1.770
  721SOL    HW1 2191   1.019   2.052   1.718
  721SOL    HW2 2192   1.045   1.891   1.713
  722SOL     OW 2193   0.504   1.912   1.740
  722SOL    HW1 2194   0.462   1.855   1.670
  722SOL    HW2 2195   0.438   1.981   1.772
  723SOL     OW 2196   0.573   2.732   1.029
  723SOL    HW1 2197   0.617   2.821   1.020
  723SOL    HW2 2198   0.510   2.732   1.106
  724SOL     OW 2199   1.360   2.724   1.045
  724SOL    HW1 2200   1.285   2.724   0.979
  724SOL    HW2 2201   1.397   2.632   1.054
  725SOL     OW 2202   1.209   2.387   0.275
  725SOL    HW1 2203   1.222   2.303   0.329
  725SOL    HW2 2204   1.180   2.461   0.335
  726SOL     OW 2205   0.307   2.075   1.231
  726SOL    HW1 2206   0.284   2.112   1.321
  726SOL    HW2 2207   0.277   1.980   1.225
  727SOL     OW 2208   0.037   3.172   1.282
  727SOL    HW1 2209   0.090   3.123   1.350
  727SOL    HW2 2210   0.059   3.270   1.287
  728SOL     OW 2211   0.732   2.496   1.064
  728SOL    HW1 2212   0.791   2.470   0.988
  728SOL    HW2 2213   0.704   2.592   1.053
  729SOL     OW 2214   1.728   2.797   1.854
  729SOL    HW1 2215   1.682   2.790   1.765
  729SOL    HW2 2216   1.666   2.841   1.920
  730SOL     OW 2217   0.307   1.925   0.618
  730SOL    HW1 2218   0.296   2.019   0.651
  730SOL    HW2 2219   0.302   1.862   0.695
  731SOL     OW 2220   1.622   2.229   0.374
  731SOL    HW1 2221   1.624   2.153   0.438
  731SOL    HW2 2222   1.574   2.306   0.414
  732SOL     OW 2223   1.023   2.628   0.966
  732SOL    HW1 2224   1.038   2.649   1.062
  732SOL    HW2 2225   0.993   2.533   0.957
  733SOL     OW 2226   0.980   3.435   1.700
  733SOL    HW1 2227   0.960   3.479   1.612
  733SOL    HW2 2228   1.019   3.344   1.684
  734SOL     OW 2229   1.859   3.380   1.605
  734SOL    HW1 2230   1.873   3.407   1.510
  734SOL    HW2 2231   1.942   3.402   1.658
  735SOL     OW 2232   0.350   2.760   1.804
  735SOL    HW1 2233   0.426   2.804   1.852
  735SOL    HW2 2234   0.385   2.713   1.722
  736SOL     OW 2235   1.540   2.136   0.125
  736SOL    HW1 2236   1.479   2.061   0.148
  736SOL    HW2 2237   1.562   2.188   0.208
  737SOL     OW 2238   1.303   2.700   0.042
  737SOL    HW1 2239   1.337   2.607   0.057
  737SOL    HW2 2240   1.321   2.727  -0.053
  738SOL     OW 2241   1.068   3.195   0.849
  738SOL    HW1 2242   1.075   3.111   0.794
  738SOL    HW2 2243   1.130   3.264   0.813
  739SOL     OW 2244   0.319   2.672   0.949
  739SOL    HW1 2245   0.412   2.708   0.954
  739SOL    HW2 2246   0.313   2.587   1.001
  740SOL     OW 2247   0.339   2.371   1.006
  740SOL    HW1 2248   0.287   2.288   0.989
  740SOL    HW2 2249   0.416   2.376   0.942
  741SOL     OW 2250   1.138   2.242   1.678
  741SOL    HW1 2251   1.093   2.305   1.742
  741SOL    HW2 2252   1.231   2.273   1.661
  742SOL     OW 2253   1.160   2.069   1.477
  742SOL    HW1 2254   1.160   2.133   1.554
  742SOL    HW2 2255   1.188   2.117   1.394
  743SOL     OW 2256   0.008   3.188   0.200
  743SOL    HW1 2257  -0.085   3.209   0.169
  743SOL    HW2 2258   0.018   3.089   0.213
  744SOL     OW 2259   0.088   3.663   0.927
  744SOL    HW1 2260   0.046   3.577   0.900
  744SOL    HW2 2261   0.182   3.666   0.893
  745SOL     OW 2262   0.504   3.430   0.910
  745SOL    HW1 2263   0.570   3.504   0.919
  745SOL    HW2 2264   0.548   3.351   0.868
  746SOL     OW 2265   1.002   2.658   1.238
  746SOL    HW1 2266   1.043   2.626   1.324
  746SOL    HW2 2267   0.906   2.631   1.235
  747SOL     OW 2268   0.040   2.406   1.114
  747SOL    HW1 2269   0.125   2.373   1.073
  747SOL    HW2 2270   0.053   2.421   1.212
  748SOL     OW 2271   0.189   2.382   1.722
  748SOL    HW1 2272   0.248   2.342   1.652
  748SOL    HW2 2273   0.131   2.453   1.681
  749SOL     OW 2274   1.369   2.812   1.660
  749SOL    HW1 2275   1.408   2.901   1.680
  749SOL    HW2 2276   1.379   2.792   1.563
  750SOL     OW 2277   0.815   2.434   0.325
  750SOL    HW1 2278   0.822   2.345   0.279
  750SOL    HW2 2279   0.721   2.468   0.317
  751SOL     OW 2280   1.657   2.466   1.206
  751SOL    HW1 2281   1.619   2.397   1.268
  751SOL    HW2 2282   1.739   2.430   1.162
  752SOL     OW 2283   0.252   3.426   1.744
  752SOL    HW1 2284   0.222   3.483   1.820
  752SOL    HW2 2285   0.245   3.329   1.770
  753SOL     OW 2286   0.671   2.326   1.269
  753SOL    HW1 2287   0.637   2.237   1.239
  753SOL    HW2 2288   0.697   2.380   1.189
  754SOL     OW 2289   0.930   3.540   1.465
  754SOL    HW1 2290   0.906   3.522   1.370
  754SOL    HW2 2291   0.960   3.634   1.475
  755SOL     OW 2292   0.473   2.362   0.191
  755SOL    HW1 2293   0.534   2.442   0.195
  755SOL    HW2 2294   0.378   2.393   0.198
  756SOL     OW 2295   0.159   2.999   1.466
  756SOL    HW1 2296   0.181   2.938   1.542
  756SOL    HW2 2297   0.169   2.950   1.380
  757SOL     OW 2298   1.347   2.921   1.234
  757SOL    HW1 2299   1.371   2.858   1.160
  757SOL    HW2 2300   1.257   2.961   1.216
  758SOL     OW 2301   1.302   2.717   0.309
  758SOL    HW1 2302   1.216   2.686   0.351
  758SOL    HW2 2303   1.298   2.703   0.210
  759SOL     OW 2304   1.759   3.609   1.154
  759SOL    HW1 2305   1.820   3.639   1.081
  759SOL    HW2 2306   1.721   3.520   1.132
  760SOL     OW 2307   1.252   3.593   1.128
  760SOL    HW1 2308   1.336   3.598   1.074
  760SOL    HW2 2309   1.229   3.497   1.146
  761SOL     OW 2310   0.083   3.120   1.022
  761SOL    HW1 2311   0.078   3.119   1.122
  761SOL    HW2 2312   0.000   3.079   0.984
  762SOL     OW 2313   0.688   3.524   1.716
  762SOL    HW1 2314   0.632   3.605   1.725
  762SOL    HW2 2315   0.740   3.528   1.630
  763SOL     OW 2316   0.903   1.948   0.133
  763SOL    HW1 2317   0.954   1.949   0.047
  763SOL    HW2 2318   0.959   1.906   0.204
  764SOL     OW 2319   1.726   1.997   0.523
  764SOL    HW1 2320   1.799   1.980   0.456
  764SOL    HW2 2321   1.695   1.910   0.561
  765SOL     OW 2322   1.388   3.435   0.477
  765SOL    HW1 2323   1.455   3.447   0.403
  765SOL    HW2 2324   1.348   3.524   0.500
  766SOL     OW 2325   0.130   3.656   1.851
  766SOL    HW1 2326   0.089   3.582   1.904
  766SOL    HW2 2327   0.194   3.707   1.909
  767SOL     OW 2328   1.280   2.789   0.672
  767SOL    HW1 2329   1.340   2.708   0.674
  767SOL    HW2 2330   1.320   2.858   0.612
  768SOL     OW 2331   0.830   3.135   1.422
  768SOL    HW1 2332   0.825   3.168   1.517
  768SOL    HW2 2333   0.744   3.154   1.376
  769SOL     OW 2334   0.672   3.478   0.154
  769SOL    HW1 2335   0.681   3.488   0.055
  769SOL    HW2 2336   0.632   3.389   0.175
  770SOL     OW 2337   1.650   3.582   1.394
  770SOL    HW1 2338   1.703   3.592   1.310
  770SOL    HW2 2339   1.623   3.672   1.428
  771SOL     OW 2340   1.841   2.037   0.963
  771SOL    HW1 2341   1.880   1.952   0.927
  771SOL    HW2 2342   1.743   2.039   0.944
  772SOL     OW 2343   0.263   2.188   0.720
  772SOL    HW1 2344   0.184   2.239   0.686
  772SOL    HW2 2345   0.254   2.173   0.818
  773SOL     OW 2346   1.194   3.474   0.031
  773SOL    HW1 2347   1.200   3.381   0.068
  773SOL    HW2 2348   1.135   3.474  -0.049
  774SOL     OW 2349   0.822   2.864   1.372
  774SOL    HW1 2350   0.862   2.863   1.280
  774SOL    HW2 2351   0.832   2.956   1.412
  775SOL     OW 2352   0.916   2.772   0.291
  775SOL    HW1 2353   0.979   2.810   0.223
  775SOL    HW2 2354   0.956   2.689   0.330
  776SOL     OW 2355   1.504   3.469   0.044
  776SOL    HW1 2356   1.412   3.506   0.051
  776SOL    HW2 2357   1.542   3.489  -0.046
  777SOL     OW 2358   0.372   3.150   1.490
  777SOL    HW1 2359   0.359   3.243   1.456
  777SOL    HW2 2360   0.288   3.098   1.477
  778SOL     OW 2361   1.614   3.154   1.289
  778SOL    HW1 2362   1.674   3.157   1.369
  778SOL    HW2 2363   1.539   3.218   1.302
  779SOL     OW 2364   1.039   2.960   0.696
  779SOL    HW1 2365   0.969   2.913   0.750
  779SOL    HW2 2366   1.098   2.892   0.653
  780SOL     OW 2367   1.014   2.098   0.971
  780SOL    HW1 2368   1.006   2.062   0.878
  780SOL    HW2 2369   1.012   2.022   1.036
  781SOL     OW 2370   0.590   3.349   0.491
  781SOL    HW1 2371   0.632   3.291   0.421
  781SOL    HW2 2372   0.546   3.428   0.447
  782SOL     OW 2373   1.709   2.247   1.381
  782SOL    HW1 2374   1.782   2.316   1.385
  782SOL    HW2 2375   1.737   2.172   1.322
  783SOL     OW 2376   0.255   3.210   0.290
  783SOL    HW1 2377   0.159   3.211   0.263
  783SOL    HW2 2378   0.267   3.263   0.374
  784SOL     OW 2379   0.105   2.875   1.726
  784SOL    HW1 2380   0.028   2.842   1.780
  784SOL    HW2 2381   0.190   2.845   1.768
  785SOL     OW 2382   0.672   2.065   1.489
  785SOL    HW1 2383   0.762   2.049   1.449
  785SOL    HW2 2384   0.680   2.070   1.588
  786SOL     OW 2385   0.075   2.207   0.033
  786SOL    HW1 2386  -0.017   2.179   0.004
  786SOL    HW2 2387   0.106   2.284  -0.023
  787SOL     OW 2388   1.440   2.718   1.398
  787SOL    HW1 2389   1.383   2.770   1.335
  787SOL    HW2 2390   1.536   2.730   1.374
  788SOL     OW 2391   0.072   2.028   0.318
  788SOL    HW1 2392   0.055   2.111   0.264
  788SOL    HW2 2393   0.162   1.991   0.296
  789SOL     OW 2394   1.183   3.197   0.119
  789SOL    HW1 2395   1.084   3.186   0.121
  789SOL    HW2 2396   1.217   3.212   0.212
  790SOL     OW 2397   0.613   2.704   1.431
  790SOL    HW1 2398   0.669   2.785   1.414
  790SOL    HW2 2399   0.672   2.624   1.434
  791SOL     OW 2400   1.493   3.629   0.959
  791SOL    HW1 2401   1.526   3.693   0.890
  791SOL    HW2 2402   1.559   3.623   1.034
  792SOL     OW 2403   0.716   2.427   1.708
  792SOL    HW1 2404   0.735   2.492   1.782
  792SOL    HW2 2405   0.776   2.347   1.717
  793SOL     OW 2406   1.450   3.082   1.633
  793SOL    HW1 2407   1.441   3.072   1.732
  793SOL    HW2 2408   1.546   3.075   1.607
  794SOL     OW 2409   0.390   3.603   1.560
  794SOL    HW1 2410   0.299   3.644   1.558
  794SOL    HW2 2411   0.383   3.509   1.592
  795SOL     OW 2412   1.674   2.745   1.254
  795SOL    HW1 2413   1.647   2.656   1.217
  795SOL    HW2 2414   1.675   2.813   1.181
  796SOL     OW 2415   1.225   2.187   0.449
  796SOL    HW1 2416   1.290   2.113   0.438
  796SOL    HW2 2417   1.245   2.237   0.533
  797SOL     OW 2418   0.594   2.607   0.652
  797SOL    HW1 2419   0.644   2.692   0.633
  797SOL    HW2 2420   0.506   2.609   0.604
  798SOL     OW 2421   1.777   2.204   1.642
  798SOL    HW1 2422   1.760   2.235   1.548
  798SOL    HW2 2423   1.693   2.167   1.680
  799SOL     OW 2424   1.730   2.796   1.517
  799SOL    HW1 2425   1.768   2.887   1.532
  799SOL    HW2 2426   1.722   2.779   1.418
  800SOL     OW 2427   0.859   3.236   0.016
  800SOL    HW1 2428   0.813   3.251   0.104
  800SOL    HW2 2429   0.903   3.321  -0.014
  801SOL     OW 2430   0.661   3.652   0.953
  801SOL    HW1 2431   0.615   3.740   0.940
  801SOL    HW2 2432   0.760   3.664   0.946
  802SOL     OW 2433   0.859   2.818   0.861
  802SOL    HW1 2434   0.913   2.749   0.909
  802SOL    HW2 2435   0.827   2.887   0.927
  803SOL     OW 2436   1.083   2.846   0.087
  803SOL    HW1 2437   1.060   2.899   0.005
  803SOL    HW2 2438   1.164   2.790   0.068
  804SOL     OW 2439   1.861   3.431   0.851
  804SOL    HW1 2440   1.790   3.419   0.781
  804SOL    HW2 2441   1.862   3.352   0.911
  805SOL     OW 2442   0.221   3.176   1.844
  805SOL    HW1 2443   0.156   3.103   1.823
  805SOL    HW2 2444   0.225   3.190   1.942
  806SOL     OW 2445   0.079   3.102   0.653
  806SOL    HW1 2446   0.078   3.055   0.741
  806SOL    HW2 2447   0.161   3.074   0.602
  807SOL     OW 2448   0.672   3.253   1.624
  807SOL    HW1 2449   0.594   3.203   1.662
  807SOL    HW2 2450   0.669   3.348   1.655
  808SOL     OW 2451   1.824   2.054   1.227
  808SOL    HW1 2452   1.820   1.964   1.271
  808SOL    HW2 2453   1.827   2.043   1.128
  809SOL     OW 2454   0.428   2.286   0.520
  809SOL    HW1 2455   0.458   2.214   0.458
  809SOL    HW2 2456   0.389   2.246   0.603
  810SOL     OW 2457   1.705   3.349   1.104
  810SOL    HW1 2458   1.612   3.324   1.077
  810SOL    HW2 2459   1.731   3.299   1.186
  811SOL     OW 2460   0.317   2.409   1.280
  811SOL    HW1 2461   0.355   2.350   1.352
  811SOL    HW2 2462   0.357   2.383   1.192
  812SOL     OW 2463   0.812   3.448   0.687
  812SOL    HW1 2464   0.844   3.458   0.593
  812SOL    HW2 2465   0.733   3.386   0.689
  813SOL     OW 2466   1.424   2.076   1.112
  813SOL    HW1 2467   1.476   2.011   1.167
  813SOL    HW2 2468   1.375   2.139   1.173
  814SOL     OW 2469   1.001   1.896   1.154
  814SOL    HW1 2470   0.938   1.824   1.123
  814SOL    HW2 2471   1.094   1.860   1.154
  815SOL     OW 2472   0.770   3.192   0.301
  815SOL    HW1 2473   0.724   3.105   0.318
  815SOL    HW2 2474   0.861   3.189   0.342
  816SOL     OW 2475   0.618   3.429   1.284
  816SOL    HW1 2476   0.613   3.511   1.341
  816SOL    HW2 2477   0.707   3.426   1.239
  817SOL     OW 2478   1.352   1.914   0.168
  817SOL    HW1 2479   1.387   1.873   0.084
  817SOL    HW2 2480   1.262   1.876   0.188
  818SOL     OW 2481   1.300   2.315   0.691
  818SOL    HW1 2482   1.241   2.395   0.695
  818SOL    HW2 2483   1.315   2.280   0.784
  819SOL     OW 2484   1.593   2.083   0.882
  819SOL    HW1 2485   1.509   2.082   0.936
  819SOL    HW2 2486   1.595   2.166   0.826
  820SOL     OW 2487   0.039   2.939   0.300
  820SOL    HW1 2488   0.138   2.928   0.291
  820SOL    HW2 2489  -0.001   2.853   0.332
  821SOL     OW 2490   0.875   3.508   0.337
  821SOL    HW1 2491   0.798   3.473   0.283
  821SOL    HW2 2492   0.843   3.579   0.399
  822SOL     OW 2493   0.230   2.490   1.975
  822SOL    HW1 2494   0.137   2.488   2.012
  822SOL    HW2 2495   0.231   2.451   1.883
  823SOL     OW 2496   0.225   2.137   2.858
  823SOL    HW1 2497   0.260   2.120   2.950
  823SOL    HW2 2498   0.137   2.092   2.846
  824SOL     OW 2499   0.019   2.230   2.509
  824SOL    HW1 2500  -0.063   2.273   2.548
  824SOL    HW2 2501  -0.009   2.157   2.446
  825SOL     OW 2502   0.569   3.137   3.027
  825SOL    HW1 2503   0.476   3.130   2.990
  825SOL    HW2 2504   0.580   3.226   3.071
  826SOL     OW 2505   1.555   3.373   2.565
  826SOL    HW1 2506   1.498   3.357   2.646
  826SOL    HW2 2507   1.496   3.383   2.485
  827SOL     OW 2508   1.135   2.565   2.579
  827SOL    HW1 2509   1.192   2.643   2.554
  827SOL    HW2 2510   1.075   2.591   2.655
  828SOL     OW 2511   1.755   2.469   2.093
  828SOL    HW1 2512   1.743   2.456   1.994
  828SOL    HW2 2513   1.725   2.388   2.142
  829SOL     OW 2514   0.768   3.006   2.885
  829SOL    HW1 2515   0.690   3.023   2.945
  829SOL    HW2 2516   0.802   3.093   2.849
  830SOL     OW 2517   0.850   2.660   3.685
  830SOL    HW1 2518   0.846   2.736   3.750
  830SOL    HW2 2519   0.872   2.696   3.594
  831SOL     OW 2520   0.685   2.874   2.527
  831SOL    HW1 2521   0.754   2.858   2.597
  831SOL    HW2 2522   0.612   2.931   2.565
  832SOL     OW 2523   0.686   3.023   3.665
  832SOL    HW1 2524   0.746   3.102   3.679
  832SOL    HW2 2525   0.600   3.054   3.624
  833SOL     OW 2526   0.335   3.297   2.923
  833SOL    HW1 2527   0.257   3.266   2.870
  833SOL    HW2 2528   0.393   3.355   2.866
  834SOL     OW 2529   1.460   3.367   3.201
  834SOL    HW1 2530   1.484   3.461   3.227
  834SOL    HW2 2531   1.444   3.313   3.283
  835SOL     OW 2532   0.438   2.254   3.361
  835SOL    HW1 2533   0.520   2.198   3.370
  835SOL    HW2 2534   0.357   2.196   3.365
  836SOL     OW 2535   1.603   2.309   2.599
  836SOL    HW1 2536   1.529   2.355   2.549
  836SOL    HW2 2537   1.654   2.377   2.652
  837SOL     OW 2538   0.231   3.575   2.345
  837SOL    HW1 2539   0.265   3.652   2.399
  837SOL    HW2 2540   0.275   3.575   2.255
  838SOL     OW 2541   1.127   3.203   3.552
  838SOL    HW1 2542   1.174   3.203   3.640
  838SOL    HW2 2543   1.079   3.116   3.541
  839SOL     OW 2544   0.230   3.296   2.400
  839SOL    HW1 2545   0.204   3.392   2.400
  839SOL    HW2 2546   0.159   3.242   2.445
  840SOL     OW 2547   0.240   2.953   2.748
  840SOL    HW1 2548   0.254   2.869   2.800
  840SOL    HW2 2549   0.185   3.017   2.803
  841SOL     OW 2550   0.620   3.648   3.301
  841SOL    HW1 2551   0.528   3.631   3.336
  841SOL    HW2 2552   0.648   3.740   3.327
  842SOL     OW 2553   0.606   2.826   1.985
  842SOL    HW1 2554   0.613   2.910   1.931
  842SOL    HW2 2555   0.652   2.839   2.073
  843SOL     OW 2556   1.594   1.976   3.342
  843SOL    HW1 2557   1.576   2.043   3.270
  843SOL    HW2 2558   1.591   2.022   3.431
  844SOL     OW 2559   0.122   2.505   2.425
  844SOL    HW1 2560   0.077   2.417   2.442
  844SOL    HW2 2561   0.121   2.559   2.509
  845SOL     OW 2562   1.842   3.629   2.221
  845SOL    HW1 2563   1.896   3.600   2.301
  845SOL    HW2 2564   1.872   3.719   2.192
  846SOL     OW 2565   0.027   3.458   1.979
  846SOL    HW1 2566   0.008   3.362   2.000
  846SOL    HW2 2567  -0.006   3.516   2.054
  847SOL     OW 2568   1.689   2.784   2.474
  847SOL    HW1 2569   1.784   2.755   2.482
  847SOL    HW2 2570   1.681   2.849   2.399
  848SOL     OW 2571   1.641   2.970   2.294
  848SOL    HW1 2572   1.727   2.972   2.242
  848SOL    HW2 2573   1.655   3.017   2.382
  849SOL     OW 2574   0.113   2.599   3.459
  849SOL    HW1 2575   0.201   2.586   3.504
  849SOL    HW2 2576   0.100   2.696   3.437
  850SOL     OW 2577   0.613   3.227   2.588
  850SOL    HW1 2578   0.564   3.140   2.597
  850SOL    HW2 2579   0.590   3.270   2.501
  851SOL     OW 2580   1.293   3.090   3.285
  851SOL    HW1 2581   1.330   3.017   3.227
  851SOL    HW2 2582   1.345   3.095   3.370
  852SOL     OW 2583   0.809   1.866   2.364
  852SOL    HW1 2584   0.849   1.957   2.355
  852SOL    HW2 2585   0.709   1.874   2.370
  853SOL     OW 2586   0.197   2.838   3.126
  853SOL    HW1 2587   0.286   2.793   3.112
  853SOL    HW2 2588   0.124   2.773   3.107
  854SOL     OW 2589   1.525   2.861   2.052
  854SOL    HW1 2590   1.462   2.785   2.065
  854SOL    HW2 2591   1.573   2.879   2.138
  855SOL     OW 2592   1.187   3.654   3.478
  855SOL    HW1 2593   1.211   3.714   3.402
  855SOL    HW2 2594   1.194   3.559   3.448
  856SOL     OW 2595   0.317   2.113   3.663
  856SOL    HW1 2596   0.388   2.184   3.669
  856SOL    HW2 2597   0.229   2.152   3.691
  857SOL     OW 2598   1.466   3.279   2.815
  857SOL    HW1 2599   1.407   3.285   2.895
  857SOL    HW2 2600   1.451   3.191   2.769
  858SOL     OW 2601   1.667   3.576   2.434
  858SOL    HW1 2602   1.626   3.553   2.346
  858SOL    HW2 2603   1.649   3.502   2.499
  859SOL     OW 2604   0.598   2.591   2.132
  859SOL    HW1 2605   0.622   2.660   2.064
  859SOL    HW2 2606   0.520   2.624   2.186
  860SOL     OW 2607   1.281   2.207   2.806
  860SOL    HW1 2608   1.195   2.157   2.793
  860SOL    HW2 2609   1.343   2.153   2.862
  861SOL     OW 2610   1.576   3.524   2.169
  861SOL    HW1 2611   1.665   3.570   2.172
  861SOL    HW2 2612   1.555   3.500   2.074
  862SOL     OW 2613   0.807   2.467   3.327
  862SOL    HW1 2614   0.760   2.464   3.416
  862SOL    HW2 2615   0.756   2.412   3.261
  863SOL     OW 2616   1.394   2.331   3.536
  863SOL    HW1 2617   1.374   2.374   3.624
  863SOL    HW2 2618   1.472   2.269   3.545
  864SOL     OW 2619   0.973   2.752   3.434
  864SOL    HW1 2620   1.019   2.668   3.405
  864SOL    HW2 2621   0.917   2.786   3.359
  865SOL     OW 2622   0.991   2.272   3.104
  865SOL    HW1 2623   0.914   2.306   3.158
  865SOL    HW2 2624   0.957   2.221   3.025
  866SOL     OW 2625   1.041   2.563   2.291
  866SOL    HW1 2626   1.067   2.559   2.387
  866SOL    HW2 2627   0.956   2.512   2.277
  867SOL     OW 2628   0.076   2.673   2.651
  867SOL    HW1 2629   0.175   2.661   2.660
  867SOL    HW2 2630   0.052   2.768   2.672
  868SOL     OW 2631   0.130   3.683   3.433
  868SOL    HW1 2632   0.120   3.668   3.532
  868SOL    HW2 2633   0.044   3.719   3.397
  869SOL     OW 2634   0.865   2.210   2.057
  869SOL    HW1 2635   0.924   2.273   2.008
  869SOL    HW2 2636   0.884   2.116   2.028
  870SOL     OW 2637   1.719   2.447   3.693
  870SOL    HW1 2638   1.693   2.536   3.657
  870SOL    HW2 2639   1.717   2.379   3.620
  871SOL     OW 2640   1.362   3.006   2.407
  871SOL    HW1 2641   1.445   2.977   2.359
  871SOL    HW2 2642   1.313   3.073   2.351
  872SOL     OW 2643   0.550   2.058   2.747
  872SOL    HW1 2644   0.545   2.053   2.847
  872SOL    HW2 2645   0.552   2.154   2.718
  873SOL     OW 2646   1.008   3.318   2.339
  873SOL    HW1 2647   0.962   3.390   2.287
  873SOL    HW2 2648   1.004   3.338   2.437
  874SOL     OW 2649   0.351   3.663   2.715
  874SOL    HW1 2650   0.401   3.577   2.721
  874SOL    HW2 2651   0.416   3.740   2.712
  875SOL     OW 2652   1.795   2.928   2.735
  875SOL    HW1 2653   1.733   2.913   2.659
  875SOL    HW2 2654   1.743   2.939   2.820
  876SOL     OW 2655   1.227   3.412   3.368
  876SOL    HW1 2656   1.233   3.335   3.432
  876SOL    HW2 2657   1.175   3.386   3.288
  877SOL     OW 2658   0.321   2.805   2.104
  877SOL    HW1 2659   0.403   2.844   2.062
  877SOL    HW2 2660   0.294   2.723   2.055
  878SOL     OW 2661   1.458   2.597   2.590
  878SOL    HW1 2662   1.453   2.532   2.665
  878SOL    HW2 2663   1.538   2.656   2.603
  879SOL     OW 2664   0.461   3.128   3.589
  879SOL    HW1 2665   0.411   3.129   3.503
  879SOL    HW2 2666   0.398   3.110   3.665
  880SOL     OW 2667   1.111   3.638   2.099
  880SOL    HW1 2668   1.051   3.576   2.149
  880SOL    HW2 2669   1.142   3.594   2.014
  881SOL     OW 2670   0.202   2.147   3.360
  881SOL    HW1 2671   0.122   2.207   3.347
  881SOL    HW2 2672   0.192   2.098   3.446
  882SOL     OW 2673   1.632   3.239   1.943
  882SOL    HW1 2674   1.600   3.333   1.933
  882SOL    HW2 2675   1.556   3.176   1.931
  883SOL     OW 2676   0.464   3.605   2.185
  883SOL    HW1 2677   0.497   3.644   2.271
  883SOL    HW2 2678   0.540   3.598   2.120
  884SOL     OW 2679   1.400   1.969   2.288
  884SOL    HW1 2680   1.376   1.932   2.198
  884SOL    HW2 2681   1.499   1.985   2.292
  885SOL     OW 2682   0.249   3.647   3.103
  885SOL    HW1 2683   0.306   3.582   3.153
  885SOL    HW2 2684   0.233   3.614   3.010
  886SOL     OW 2685   0.940   3.560   2.766
  886SOL    HW1 2686   1.020   3.503   2.787
  886SOL    HW2 2687   0.891   3.520   2.689
  887SOL     OW 2688   0.382   2.562   2.342
  887SOL    HW1 2689   0.427   2.472   2.339
  887SOL    HW2 2690   0.288   2.551   2.375
  888SOL     OW 2691   1.547   2.084   3.591
  888SOL    HW1 2692   1.542   2.121   3.683
  888SOL    HW2 2693   1.475   2.015   3.579
  889SOL     OW 2694   0.614   1.984   1.979
  889SOL    HW1 2695   0.712   1.962   1.986
  889SOL    HW2 2696   0.583   1.967   1.886
  890SOL     OW 2697   0.781   2.126   3.611
  890SOL    HW1 2698   0.848   2.065   3.654
  890SOL    HW2 2699   0.708   2.145   3.676
  891SOL     OW 2700   0.888   3.376   3.057
  891SOL    HW1 2701   0.865   3.351   2.963
  891SOL    HW2 2702   0.949   3.307   3.096
  892SOL     OW 2703   1.351   2.452   3.295
  892SOL    HW1 2704   1.379   2.409   3.380
  892SOL    HW2 2705   1.376   2.548   3.296
  893SOL     OW 2706   0.803   3.264   2.786
  893SOL    HW1 2707   0.893   3.278   2.744
  893SOL    HW2 2708   0.732   3.266   2.715
  894SOL     OW 2709   0.922   2.365   2.761
  894SOL    HW1 2710   0.897   2.356   2.665
  894SOL    HW2 2711   0.970   2.283   2.792
  895SOL     OW 2712   0.539   1.926   2.374
  895SOL    HW1 2713   0.458   1.927   2.432
  895SOL    HW2 2714   0.542   2.009   2.319
  896SOL     OW 2715   1.434   3.050   1.903
  896SOL    HW1 2716   1.466   2.974   1.960
  896SOL    HW2 2717   1.342   3.077   1.933
  897SOL     OW 2718   0.297   1.897   2.033
  897SOL    HW1 2719   0.346   1.981   2.012
  897SOL    HW2 2720   0.359   1.832   2.078
  898SOL     OW 2721   0.935   2.098   2.342
  898SOL    HW1 2722   0.887   2.139   2.264
  898SOL    HW2 2723   1.034   2.096   2.323
  899SOL     OW 2724   1.076   2.545   3.326
  899SOL    HW1 2725   0.996   2.484   3.329
  899SOL    HW2 2726   1.157   2.492   3.302
  900SOL     OW 2727   1.227   3.432   2.655
  900SOL    HW1 2728   1.248   3.506   2.590
  900SOL    HW2 2729   1.295   3.432   2.728
  901SOL     OW 2730   0.459   3.014   2.603
  901SOL    HW1 2731   0.388   2.987   2.668
  901SOL    HW2 2732   0.433   2.986   2.510
  902SOL     OW 2733   1.271   3.659   2.453
  902SOL    HW1 2734   1.315   3.723   2.389
  902SOL    HW2 2735   1.221   3.711   2.523
  903SOL     OW 2736   1.032   2.411   1.878
  903SOL    HW1 2737   0.991   2.493   1.839
  903SOL    HW2 2738   1.096   2.437   1.951
  904SOL     OW 2739   0.078   2.418   3.248
  904SOL    HW1 2740   0.170   2.417   3.207
  904SOL    HW2 2741   0.072   2.492   3.315
  905SOL     OW 2742   0.561   2.084   3.009
  905SOL    HW1 2743   0.599   2.000   3.046
  905SOL    HW2 2744   0.473   2.103   3.053
  906SOL     OW 2745   0.866   2.316   2.504
  906SOL    HW1 2746   0.834   2.388   2.442
  906SOL    HW2 2747   0.890   2.235   2.451
  907SOL     OW 2748   1.017   1.901   2.615
  907SOL    HW1 2749   0.945   1.906   2.546
  907SOL    HW2 2750   0.993   1.832   2.684
  908SOL     OW 2751   1.429   3.035   2.729
  908SOL    HW1 2752   1.374   2.951   2.722
  908SOL    HW2 2753   1.455   3.064   2.637
  909SOL     OW 2754   1.466   2.452   2.854
  909SOL    HW1 2755   1.436   2.357   2.861
  909SOL    HW2 2756   1.539   2.468   2.920
  910SOL     OW 2757   1.857   2.695   2.239
  910SOL    HW1 2758   1.899   2.631   2.303
  910SOL    HW2 2759   1.819   2.644   2.161
  911SOL     OW 2760   0.488   3.247   2.036
  911SOL    HW1 2761   0.401   3.232   2.083
  911SOL    HW2 2762   0.471   3.273   1.941
  912SOL     OW 2763   1.664   3.142   2.519
  912SOL    HW1 2764   1.763   3.150   2.533
  912SOL    HW2 2765   1.619   3.226   2.550
  913SOL     OW 2766   1.390   2.437   1.940
  913SOL    HW1 2767   1.336   2.416   2.021
  913SOL    HW2 2768   1.481   2.396   1.949
  914SOL     OW 2769   0.527   2.118   2.190
  914SOL    HW1 2770   0.554   2.059   2.115
  914SOL    HW2 2771   0.527   2.213   2.159
  915SOL     OW 2772   1.754   3.085   3.450
  915SOL    HW1 2773   1.845   3.046   3.437
  915SOL    HW2 2774   1.762   3.181   3.474
  916SOL     OW 2775   1.064   3.209   3.202
  916SOL    HW1 2776   0.984   3.186   3.257
  916SOL    HW2 2777   1.147   3.183   3.251
  917SOL     OW 2778   1.592   3.491   3.487
  917SOL    HW1 2779   1.619   3.525   3.397
  917SOL    HW2 2780   1.671   3.453   3.533
  918SOL     OW 2781   1.111   3.057   2.962
  918SOL    HW1 2782   1.071   3.101   3.043
  918SOL    HW2 2783   1.070   3.094   2.879
  919SOL     OW 2784   1.638   2.961   2.941
  919SOL    HW1 2785   1.643   3.042   3.000
  919SOL    HW2 2786   1.552   2.963   2.890
  920SOL     OW 2787   0.915   1.951   3.264
  920SOL    HW1 2788   0.940   1.931   3.169
  920SOL    HW2 2789   0.987   2.007   3.306
  921SOL     OW 2790   0.980   2.978   3.581
  921SOL    HW1 2791   0.881   2.984   3.591
  921SOL    HW2 2792   1.003   2.898   3.525
  922SOL     OW 2793   0.705   2.912   2.230
  922SOL    HW1 2794   0.691   2.919   2.329
  922SOL    HW2 2795   0.789   2.861   2.212
  923SOL     OW 2796   0.410   2.675   3.113
  923SOL    HW1 2797   0.496   2.687   3.163
  923SOL    HW2 2798   0.368   2.588   3.140
  924SOL     OW 2799   1.274   2.248   3.124
  924SOL    HW1 2800   1.295   2.322   3.188
  924SOL    HW2 2801   1.185   2.265   3.081
  925SOL     OW 2802   0.064   3.426   3.193
  925SOL    HW1 2803   0.018   3.508   3.159
  925SOL    HW2 2804   0.162   3.445   3.202
  926SOL     OW 2805   0.367   2.962   2.363
  926SOL    HW1 2806   0.360   3.045   2.307
  926SOL    HW2 2807   0.371   2.882   2.303
  927SOL     OW 2808   0.566   2.399   2.727
  927SOL    HW1 2809   0.578   2.465   2.653
  927SOL    HW2 2810   0.612   2.433   2.810
  928SOL     OW 2811   1.252   3.210   2.250
  928SOL    HW1 2812   1.302   3.287   2.290
  928SOL    HW2 2813   1.157   3.212   2.282
  929SOL     OW 2814   1.272   3.307   3.004
  929SOL    HW1 2815   1.319   3.320   3.091
  929SOL    HW2 2816   1.206   3.233   3.013
  930SOL     OW 2817   1.582   2.501   2.334
  930SOL    HW1 2818   1.551   2.562   2.407
  930SOL    HW2 2819   1.632   2.553   2.265
  931SOL     OW 2820   0.354   3.372   3.191
  931SOL    HW1 2821   0.333   3.328   3.104
  931SOL    HW2 2822   0.451   3.398   3.194
  932SOL     OW 2823   0.402   2.613   3.460
  932SOL    HW1 2824   0.470   2.668   3.413
  932SOL    HW2 2825   0.442   2.525   3.487
  933SOL     OW 2826   1.587   2.641   3.532
  933SOL    HW1 2827   1.495   2.679   3.527
  933SOL    HW2 2828   1.647   2.688   3.467
  934SOL     OW 2829   1.013   1.967   3.632
  934SOL    HW1 2830   1.019   2.052   3.580
  934SOL    HW2 2831   1.045   1.891   3.575
  935SOL     OW 2832   0.504   1.912   3.602
  935SOL    HW1 2833   0.462   1.855   3.532
  935SOL    HW2 2834   0.438   1.981   3.634
  936SOL     OW 2835   0.573   2.732   2.891
  936SOL    HW1 2836   0.617   2.821   2.882
  936SOL    HW2 2837   0.510   2.732   2.968
  937SOL     OW 2838   1.360   2.724   2.907
  937SOL    HW1 2839   1.285   2.724   2.841
  937SOL    HW2 2840   1.397   2.632   2.916
  938SOL     OW 2841   1.209   2.387   2.137
  938SOL    HW1 2842   1.222   2.303   2.191
  938SOL    HW2 2843   1.180   2.461   2.197
  939SOL     OW 2844   0.307   2.075   3.093
  939SOL    HW1 2845   0.284   2.112   3.183
  939SOL    HW2 2846   0.277   1.980   3.087
  940SOL     OW 2847   0.037   3.172   3.144
  940SOL    HW1 2848   0.090   3.123   3.212
  940SOL    HW2 2849   0.059   3.270   3.149
  941SOL     OW 2850   0.732   2.496   2.926
  941SOL    HW1 2851   0.791   2.470   2.850
  941SOL    HW2 2852   0.704   2.592   2.915
  942SOL     OW 2853   1.728   2.797   3.716
  942SOL    HW1 2854   1.682   2.790   3.627
  942SOL    HW2 2855   1.666   2.841   3.782
  943SOL     OW 2856   0.307   1.925   2.480
  943SOL    HW1 2857   0.296   2.019   2.513
  943SOL    HW2 2858   0.302   1.862   2.557
  944SOL     OW 2859   1.622   2.229   2.236
  944SOL    HW1 2860   1.624   2.153   2.300
  944SOL    HW2 2861   1.574   2.306   2.276
  945SOL     OW 2862   1.023   2.628   2.828
  945SOL    HW1 2863   1.038   2.649   2.924
  945SOL    HW2 2864   0.993   2.533   2.819
  946SOL     OW 2865   0.980   3.435   3.562
  946SOL    HW1 2866   0.960   3.479   3.474
  946SOL    HW2 2867   1.019   3.344   3.546
  947SOL     OW 2868   1.859   3.380   3.467
  947SOL    HW1 2869   1.873   3.407   3.372
  947SOL    HW2 2870   1.942   3.402   3.520
  948SOL     OW 2871   0.350   2.760   3.666
  948SOL    HW1 2872   0.426   2.804   3.714
  948SOL    HW2 2873   0.385   2.713   3.584
  949SOL     OW 2874   1.540   2.136   1.987
  949SOL    HW1 2875   1.479   2.061   2.010
  949SOL    HW2 2876   1.562   2.188   2.070
  950SOL     OW 2877   1.303   2.700   1.904
  950SOL    HW1 2878   1.337   2.607   1.919
  950SOL    HW2 2879   1.321   2.727   1.809
  951SOL     OW 2880   1.068   3.195   2.711
  951SOL    HW1 2881   1.075   3.111   2.656
  951SOL    HW2 2882   1.130   3.264   2.675
  952SOL     OW 2883   0.319   2.672   2.811
  952SOL    HW1 2884   0.412   2.708   2.816
  952SOL    HW2 2885   0.313   2.587   2.863
  953SOL     OW 2886   0.339   2.371   2.868
  953SOL    HW1 2887   0.287   2.288   2.851
  953SOL    HW2 2888   0.416   2.376   2.804
  954SOL     OW 2889   1.138   2.242   3.540
  954SOL    HW1 2890   1.093   2.305   3.604
  954SOL    HW2 2891   1.231   2.273   3.523
  955SOL     OW 2892   1.160   2.069   3.339
  955SOL    HW1 2893   1.160   2.133   3.416
  955SOL    HW2 2894   1.188   2.117   3.256
  956SOL     OW 2895   0.008   3.188   2.062
  956SOL    HW1 2896  -0.085   3.209   2.031
  956SOL    HW2 2897   0.018   3.089   2.075
  957SOL     OW 2898   0.088   3.663   2.789
  957SOL    HW1 2899   0.046   3.577   2.762
  957SOL    HW2 2900   0.182   3.666   2.755
  958SOL     OW 2901   0.504   3.430   2.772
  958SOL    HW1 2902   0.570   3.504   2.781
  958SOL    HW2 2903   0.548   3.351   2.730
  959SOL     OW 2904   1.002   2.658   3.100
  959SOL    HW1 2905   1.043   2.626   3.186
  959SOL    HW2 2906   0.906   2.631   3.097
  960SOL     OW 2907   0.040   2.406   2.976
  960SOL    HW1 2908   0.125   2.373   2.935
  960SOL    HW2 2909   0.053   2.421   3.074
  961SOL     OW 2910   0.189   2.382   3.584
  961SOL    HW1 2911   0.248   2.342   3.514
  961SOL    HW2 2912   0.131   2.453   3.543
  962SOL     OW 2913   1.369   2.812   3.522
  962SOL    HW1 2914   1.408   2.901   3.542
  962SOL    HW2 2915   1.379   2.792   3.425
  963SOL     OW 2916   0.815   2.434   2.187
  963SOL    HW1 2917   0.822   2.345   2.141
  963SOL    HW2 2918   0.721   2.468   2.179
  964SOL     OW 2919   1.657   2.466   3.068
  964SOL    HW1 2920   1.619   2.397   3.130
  964SOL    HW2 2921   1.739   2.430   3.024
  965SOL     OW 2922   0.252   3.426   3.606
  965SOL    HW1 2923   0.222   3.483   3.682
  965SOL    HW2 2924   0.245   3.329   3.632
  966SOL     OW 2925   0.671   2.326   3.131
  966SOL    HW1 2926   0.637   2.237   3.101
  966SOL    HW2 2927   0.697   2.380   3.051
  967SOL     OW 2928   0.930   3.540   3.327
  967SOL    HW1 2929   0.906   3.522   3.232
  967SOL    HW2 2930   0.960   3.634   3.337
  968SOL     OW 2931   0.473   2.362   2.053
  968SOL    HW1 2932   0.534   2.442   2.057
  968SOL    HW2 2933   0.378   2.393   2.060
  969SOL     OW 2934   0.159   2.999   3.328
  969SOL    HW1 2935   0.181   2.938   3.404
  969SOL    HW2 2936   0.169   2.950   3.242
  970SOL     OW 2937   1.347   2.921   3.096
  970SOL    HW1 2938   1.371   2.858   3.022
  970SOL    HW2 2939   1.257   2.961   3.078
  971SOL     OW 2940   1.302   2.717   2.171
  971SOL    HW1 2941   1.216   2.686   2.213
  971SOL    HW2 2942   1.298   2.703   2.072
  972SOL     OW 2943   1.759   3.609   3.016
  972SOL    HW1 2944   1.820   3.639   2.943
  972SOL    HW2 2945   1.721   3.520   2.994
  973SOL     OW 2946   1.252   3.593   2.990
  973SOL    HW1 2947   1.336   3.598   2.936
  973SOL    HW2 2948   1.229   3.497   3.008
  974SOL     OW 2949   0.083   3.120   2.884
  974SOL    HW1 2950   0.078   3.119   2.984
  974SOL    HW2 2951   0.000   3.079   2.846
  975SOL     OW 2952   0.688   3.524   3.578
  975SOL    HW1 2953   0.632   3.605   3.587
  975SOL    HW2 2954   0.740   3.528   3.492
  976SOL     OW 2955   1.726   1.997   2.385
  976SOL    HW1 2956   1.799   1.980   2.318
  976SOL    HW2 2957   1.695   1.910   2.423
  977SOL     OW 2958   1.388   3.435   2.339
  977SOL    HW1 2959   1.455   3.447   2.265
  977SOL    HW2 2960   1.348   3.524   2.362
  978SOL     OW 2961   0.130   3.656   3.713
  978SOL    HW1 2962   0.089   3.582   3.766
  978SOL    HW2 2963   0.194   3.707   3.771
  979SOL     OW 2964   1.280   2.789   2.534
  979SOL    HW1 2965   1.340   2.708   2.536
  979SOL    HW2 2966   1.320   2.858   2.474
  980SOL     OW 2967   0.830   3.135   3.284
  980SOL    HW1 2968   0.825   3.168   3.379
  980SOL    HW2 2969   0.744   3.154   3.238
  981SOL     OW 2970   0.672   3.478   2.016
  981SOL    HW1 2971   0.681   3.488   1.917
  981SOL    HW2 2972   0.632   3.389   2.037
  982SOL     OW 2973   1.650   3.582   3.256
  982SOL    HW1 2974   1.703   3.592   3.172
  982SOL    HW2 2975   1.623   3.672   3.290
  983SOL     OW 2976   1.841   2.037   2.825
  983SOL    HW1 2977   1.880   1.952   2.789
  983SOL    HW2 2978   1.743   2.039   2.806
  984SOL     OW 2979   0.263   2.188   2.582
  984SOL    HW1 2980   0.184   2.239   2.548
  984SOL    HW2 2981   0.254   2.173   2.680
  985SOL     OW 2982   1.194   3.474   1.893
  985SOL    HW1 2983   1.200   3.381   1.930
  985SOL    HW2 2984   1.135   3.474   1.813
  986SOL     OW 2985   0.822   2.864   3.234
  986SOL    HW1 2986   0.862   2.863   3.142
  986SOL    HW2 2987   0.832   2.956   3.274
  987SOL     OW 2988   0.916   2.772   2.153
  987SOL    HW1 2989   0.979   2.810   2.085
  987SOL    HW2 2990   0.956   2.689   2.192
  988SOL     OW 2991   1.504   3.469   1.906
  988SOL    HW1 2992   1.412   3.506   1.913
  988SOL    HW2 2993   1.542   3.489   1.816
  989SOL     OW 2994   0.372   3.150   3.352
  989SOL    HW1 2995   0.359   3.243   3.318
  989SOL    HW2 2996   0.288   3.098   3.339
  990SOL     OW 2997   1.614   3.154   3.151
  990SOL    HW1 2998   1.674   3.157   3.231
  990SOL    HW2 2999   1.539   3.218   3.164
  991SOL     OW 3000   1.039   2.960   2.558
  991SOL    HW1 3001   0.969   2.913   2.612
  991SOL    HW2 3002   1.098   2.892   2.515
  992SOL     OW 3003   1.014   2.098   2.833
  992SOL    HW1 3004   1.006   2.062   2.740
  992SOL    HW2 3005   1.012   2.022   2.898
  993SOL     OW 3006   0.590   3.349   2.353
  993SOL    HW1 3007   0.632   3.291   2.283
  993SOL    HW2 3008   0.546   3.428   2.309
  994SOL     OW 3009   1.709   2.247   3.243
  994SOL    HW1 3010   1.782   2.316   3.247
  994SOL    HW2 3011   1.737   2.172   3.184
  995SOL     OW 3012   0.255   3.210   2.152
  995SOL    HW1 3013   0.159   3.211   2.125
  995SOL    HW2 3014   0.267   3.263   2.236
  996SOL     OW 3015   0.105   2.875   3.588
  996SOL    HW1 3016   0.028   2.842   3.642
  996SOL    HW2 3017   0.190   2.845   3.630
  997SOL     OW 3018   0.672   2.065   3.351
  997SOL    HW1 3019   0.762   2.049   3.311
  997SOL    HW2 3020   0.680   2.070   3.450
  998SOL     OW 3021   0.075   2.207   1.895
  998SOL    HW1 3022  -0.017   2.179   1.866
  998SOL    HW2 3023   0.106   2.284   1.839
  999SOL     OW 3024   1.440   2.718   3.260
  999SOL    HW1 3025   1.383   2.770   3.197
  999SOL    HW2 3026   1.536   2.730   3.236
 1000SOL     OW 3027   0.072   2.028   2.180
 1000SOL    HW1 3028   0.055   2.111   2.126
 1000SOL    HW2 3029   0.162   1.991   2.158
 1001SOL     OW 3030   1.183   3.197   1.981
 1001SOL    HW1 3031   1.084   3.186   1.983
 1001SOL    HW2 3032   1.217   3.212   2.074
 1002SOL     OW 3033   0.613   2.704   3.293
 1002SOL    HW1 3034   0.669   2.785   3.276
 1002SOL    HW2 3035   0.672   2.624   3.296
 1003SOL     OW 3036   1.493   3.629   2.821
 1003SOL    HW1 3037   1.526   3.693   2.752
 1003SOL    HW2 3038   1.559   3.623   2.896
 1004SOL     OW 3039   0.716   2.427   3.570
 1004SOL    HW1 3040   0.735   2.492   3.644
 1004SOL    HW2 3041   0.776   2.347   3.579
 1005SOL     OW 3042   1.450   3.082   3.495
 1005SOL    HW1 3043   1.441   3.072   3.594
 1005SOL    HW2 3044   1.546   3.075   3.469
 1006SOL     OW 3045   0.390   3.603   3.422
 1006SOL    HW1 3046   0.299   3.644   3.420
 1006SOL    HW2 3047   0.383   3.509   3.454
 1007SOL     OW 3048   1.674   2.745   3.116
 1007SOL    HW1 3049   1.647   2.656   3.079
 1007SOL    HW2 3050   1.675   2.813   3.043
 1008SOL     OW 3051   1.225   2.187   2.311
 1008SOL    HW1 3052   1.290   2.113   2.300
 1008SOL    HW2 3053   1.245   2.237   2.395
 1009SOL     OW 3054   0.594   2.607   2.514
 1009SOL    HW1 3055   0.644   2.692   2.495
 1009SOL    HW2 3056   0.506   2.609   2.466
 1010SOL     OW 3057   1.777   2.204   3.504
 1010SOL    HW1 3058   1.760   2.235   3.410
 1010SOL    HW2 3059   1.693   2.167   3.542
 1011SOL     OW 3060   1.730   2.796   3.379
 1011SOL    HW1 3061   1.768   2.887   3.394
 1011SOL    HW2 3062   1.722   2.779   3.280
 1012SOL     OW 3063   0.859   3.236   1.878
 1012SOL    HW1 3064   0.813   3.251   1.966
 1012SOL    HW2 3065   0.903   3.321   1.848
 1013SOL     OW 3066   0.661   3.652   2.815
 1013SOL    HW1 3067   0.615   3.740   2.802
 1013SOL    HW2 3068   0.760   3.664   2.808
 1014SOL     OW 3069   0.859   2.818   2.723
 1014SOL    HW1 3070   0.913   2.749   2.771
 1014SOL    HW2 3071   0.827   2.887   2.789
 1015SOL     OW 3072   1.083   2.846   1.949
 1015SOL    HW1 3073   1.060   2.899   1.867
 1015SOL    HW2 3074   1.164   2.790   1.930
 1016SOL     OW 3075   1.861   3.431   2.713
 1016SOL    HW1 3076   1.790   3.419   2.643
 1016SOL    HW2 3077   1.862   3.352   2.773
 1017SOL     OW 3078   0.221   3.176   3.706
 1017SOL    HW1 3079   0.156   3.103   3.685
 1017SOL    HW2 3080   0.225   3.190   3.804
 1018SOL     OW 3081   0.079   3.102   2.515
 1018SOL    HW1 3082   0.078   3.055   2.603
 1018SOL    HW2 3083   0.161   3.074   2.464
 1019SOL     OW 3084   0.672   3.253   3.486
 1019SOL    HW1 3085   0.594   3.203   3.524
 1019SOL    HW2 3086   0.669   3.348   3.517
 1020SOL     OW 3087   1.824   2.054   3.089
 1020SOL    HW1 3088   1.820   1.964   3.133
 1020SOL    HW2 3089   1.827   2.043   2.990
 1021SOL     OW 3090   0.428   2.286   2.382
 1021SOL    HW1 3091   0.458   2.214   2.320
 1021SOL    HW2 3092   0.389   2.246   2.465
 1022SOL     OW 3093   1.705   3.349   2.966
 1022SOL    HW1 3094   1.612   3.324   2.939
 1022SOL    HW2 3095   1.731   3.299   3.048
 1023SOL     OW 3096   0.317   2.409   3.142
 1023SOL    HW1 3097   0.355   2.350   3.214
 1023SOL    HW2 3098   0.357   2.383   3.054
 1024SOL     OW 3099   0.812   3.448   2.549
 1024SOL    HW1 3100   0.844   3.458   2.455
 1024SOL    HW2 3101   0.733   3.386   2.551
 1025SOL     OW 3102   1.424   2.076   2.974
 1025SOL    HW1 3103   1.476   2.011   3.029
 1025SOL    HW2 3104   1.375   2.139   3.035
 1026SOL     OW 3105   1.001   1.896   3.016
 1026SOL    HW1 3106   0.938   1.824   2.985
 1026SOL    HW2 3107   1.094   1.860   3.016
 1027SOL     OW 3108   0.770   3.192   2.163
 1027SOL    HW1 3109   0.724   3.105   2.180
 1027SOL    HW2 3110   0.861   3.189   2.204
 1028SOL     OW 3111   0.618   3.429   3.146
 1028SOL    HW1 3112   0.613   3.511   3.203
 1028SOL    HW2 3113   0.707   3.426   3.101
 1029SOL     OW 3114   1.352   1.914   2.030
 1029SOL    HW1 3115   1.387   1.873   1.946
 1029SOL    HW2 3116   1.262   1.876   2.050
 1030SOL     OW 3117   1.300   2.315   2.553
 1030SOL    HW1 3118   1.241   2.395   2.557
 1030SOL    HW2 3119   1.315   2.280   2.646
 1031SOL     OW 3120   1.593   2.083   2.744
 1031SOL    HW1 3121   1.509   2.082   2.798
 1031SOL    HW2 3122   1.595   2.166   2.688
 1032SOL     OW 3123   0.039   2.939   2.162
 1032SOL    HW1 3124   0.138   2.928   2.153
 1032SOL    HW2 3125  -0.001   2.853   2.194
 1033SOL     OW 3126   0.875   3.508   2.199
 1033SOL    HW1 3127   0.798   3.473   2.145
 1033SOL    HW2 3128   0.843   3.579   2.261
 1034SOL     OW 3129   0.230   2.490   3.837
 1034SOL    HW1 3130   0.137   2.488   3.874
 1034SOL    HW2 3131   0.231   2.451   3.745
 1035SOL     OW 3132   0.225   2.137   4.720
 1035SOL    HW1 3133   0.260   2.120   4.812
 1035SOL    HW2 3134   0.137   2.092   4.708
 1036SOL     OW 3135   0.019   2.230   4.371
 1036SOL    HW1 3136  -0.063   2.273   4.410
 1036SOL    HW2 3137  -0.009   2.157   4.308
 1037SOL     OW 3138   0.569   3.137   4.889
 1037SOL    HW1 3139   0.476   3.130   4.852
 1037SOL    HW2 3140   0.580   3.226   4.933
 1038SOL     OW 3141   1.555   3.373   4.427
 1038SOL    HW1 3142   1.498   3.357   4.508
 1038SOL    HW2 3143   1.496   3.383   4.347
 1039SOL     OW 3144   1.135   2.565   4.441
 1039SOL    HW1 3145   1.192   2.643   4.416
 1039SOL    HW2 3146   1.075   2.591   4.517
 1040SOL     OW 3147   1.755   2.469   3.955
 1040SOL    HW1 3148   1.743   2.456   3.856
 1040SOL    HW2 3149   1.725   2.388   4.004
 1041SOL     OW 3150   0.768   3.006   4.747
 1041SOL    HW1 3151   0.690   3.023   4.807
 1041SOL    HW2 3152   0.802   3.093   4.711
 1042SOL     OW 3153   0.685   2.874   4.389
 1042SOL    HW1 3154   0.754   2.858   4.459
 1042SOL    HW2 3155   0.612   2.931   4.427
 1043SOL     OW 3156   0.335   3.297   4.785
 1043SOL    HW1 3157   0.257   3.266   4.732
 1043SOL    HW2 3158   0.393   3.355   4.728
 1044SOL     OW 3159   1.460   3.367   5.063
 1044SOL    HW1 3160   1.484   3.461   5.089
 1044SOL    HW2 3161   1.444   3.313   5.145
 1045SOL     OW 3162   0.438   2.254   5.223
 1045SOL    HW1 3163   0.520   2.198   5.232
 1045SOL    HW2 3164   0.357   2.196   5.227
 1046SOL     OW 3165   1.603   2.309   4.461
 1046SOL    HW1 3166   1.529   2.355   4.411
 1046SOL    HW2 3167   1.654   2.377   4.514
 1047SOL     OW 3168   0.231   3.575   4.207
 1047SOL    HW1 3169   0.265   3.652   4.261
 1047SOL    HW2 3170   0.275   3.575   4.117
 1048SOL     OW 3171   0.230   3.296   4.262
 1048SOL    HW1 3172   0.204   3.392   4.262
 1048SOL    HW2 3173   0.159   3.242   4.307
 1049SOL     OW 3174   0.240   2.953   4.610
 1049SOL    HW1 3175   0.254   2.869   4.662
 1049SOL    HW2 3176   0.185   3.017   4.665
 1050SOL     OW 3177   0.620   3.648   5.163
 1050SOL    HW1 3178   0.528   3.631   5.198
 1050SOL    HW2 3179   0.648   3.740   5.189
 1051SOL     OW 3180   0.606   2.826   3.847
 1051SOL    HW1 3181   0.613   2.910   3.793
 1051SOL    HW2 3182   0.652   2.839   3.935
 1052SOL     OW 3183   1.594   1.976   5.204
 1052SOL    HW1 3184   1.576   2.043   5.132
 1052SOL    HW2 3185   1.591   2.022   5.293
 1053SOL     OW 3186   0.122   2.505   4.287
 1053SOL    HW1 3187   0.077   2.417   4.304
 1053SOL    HW2 3188   0.121   2.559   4.371
 1054SOL     OW 3189   1.842   3.629   4.083
 1054SOL    HW1 3190   1.896   3.600   4.163
 1054SOL    HW2 3191   1.872   3.719   4.054
 1055SOL     OW 3192   0.027   3.458   3.841
 1055SOL    HW1 3193   0.008   3.362   3.862
 1055SOL    HW2 3194  -0.006   3.516   3.916
 1056SOL     OW 3195   1.689   2.784   4.336
 1056SOL    HW1 3196   1.784   2.755   4.344
 1056SOL    HW2 3197   1.681   2.849   4.261
 1057SOL     OW 3198   1.641   2.970   4.156
 1057SOL    HW1 3199   1.727   2.972   4.104
 1057SOL    HW2 3200   1.655   3.017   4.244
 1058SOL     OW 3201   0.613   3.227   4.450
 1058SOL    HW1 3202   0.564   3.140   4.459
 1058SOL    HW2 3203   0.590   3.270   4.363
 1059SOL     OW 3204   1.293   3.090   5.147
 1059SOL    HW1 3205   1.330   3.017   5.089
 1059SOL    HW2 3206   1.345   3.095   5.232
 1060SOL     OW 3207   0.809   1.866   4.226
 1060SOL    HW1 3208   0.849   1.957   4.217
 1060SOL    HW2 3209   0.709   1.874   4.232
 1061SOL     OW 3210   0.197   2.838   4.988
 1061SOL    HW1 3211   0.286   2.793   4.974
 1061SOL    HW2 3212   0.124   2.773   4.969
 1062SOL     OW 3213   1.525   2.861   3.914
 1062SOL    HW1 3214   1.462   2.785   3.927
 1062SOL    HW2 3215   1.573   2.879   4.000
 1063SOL     OW 3216   1.466   3.279   4.677
 1063SOL    HW1 3217   1.407   3.285   4.757
 1063SOL    HW2 3218   1.451   3.191   4.631
 1064SOL     OW 3219   1.667   3.576   4.296
 1064SOL    HW1 3220   1.626   3.553   4.208
 1064SOL    HW2 3221   1.649   3.502   4.361
 1065SOL     OW 3222   0.598   2.591   3.994
 1065SOL    HW1 3223   0.622   2.660   3.926
 1065SOL    HW2 3224   0.520   2.624   4.048
 1066SOL     OW 3225   1.281   2.207   4.668
 1066SOL    HW1 3226   1.195   2.157   4.655
 1066SOL    HW2 3227   1.343   2.153   4.724
 1067SOL     OW 3228   1.576   3.524   4.031
 1067SOL    HW1 3229   1.665   3.570   4.034
 1067SOL    HW2 3230   1.555   3.500   3.936
 1068SOL     OW 3231   0.807   2.467   5.189
 1068SOL    HW1 3232   0.760   2.464   5.278
 1068SOL    HW2 3233   0.756   2.412   5.123
 1069SOL     OW 3234   0.973   2.752   5.296
 1069SOL    HW1 3235   1.019   2.668   5.267
 1069SOL    HW2 3236   0.917   2.786   5.221
 1070SOL     OW 3237   0.991   2.272   4.966
 1070SOL    HW1 3238   0.914   2.306   5.020
 1070SOL    HW2 3239   0.957   2.221   4.887
 1071SOL     OW 3240   1.041   2.563   4.153
 1071SOL    HW1 3241   1.067   2.559   4.249
 1071SOL    HW2 3242   0.956   2.512   4.139
 1072SOL     OW 3243   0.076   2.673   4.513
 1072SOL    HW1 3244   0.175   2.661   4.522
 1072SOL    HW2 3245   0.052   2.768   4.534
 1073SOL     OW 3246   0.130   3.683   5.295
 1073SOL    HW1 3247   0.120   3.668   5.394
 1073SOL    HW2 3248   0.044   3.719   5.259
 1074SOL     OW 3249   0.865   2.210   3.919
 1074SOL    HW1 3250   0.924   2.273   3.870
 1074SOL    HW2 3251   0.884   2.116   3.890
 1075SOL     OW 3252   1.362   3.006   4.269
 1075SOL    HW1 3253   1.445   2.977   4.221
 1075SOL    HW2 3254   1.313   3.073   4.213
 1076SOL     OW 3255   0.550   2.058   4.609
 1076SOL    HW1 3256   0.545   2.053   4.709
 1076SOL    HW2 3257   0.552   2.154   4.580
 1077SOL     OW 3258   1.008   3.318   4.201
 1077SOL    HW1 3259   0.962   3.390   4.149
 1077SOL    HW2 3260   1.004   3.338   4.299
 1078SOL     OW 3261   0.351   3.663   4.577
 1078SOL    HW1 3262   0.401   3.577   4.583
 1078SOL    HW2 3263   0.416   3.740   4.574
 1079SOL     OW 3264   1.795   2.928   4.597
 1079SOL    HW1 3265   1.733   2.913   4.521
 1079SOL    HW2 3266   1.743   2.939   4.682
 1080SOL     OW 3267   0.321   2.805   3.966
 1080SOL    HW1 3268   0.403   2.844   3.924
 1080SOL    HW2 3269   0.294   2.723   3.917
 1081SOL     OW 3270   1.458   2.597   4.452
 1081SOL    HW1 3271   1.453   2.532   4.527
 1081SOL    HW2 3272   1.538   2.656   4.465
 1082SOL     OW 3273   1.111   3.638   3.961
 1082SOL    HW1 3274   1.051   3.576   4.011
 1082SOL    HW2 3275   1.142   3.594   3.876
 1083SOL     OW 3276   1.632   3.239   3.805
 1083SOL    HW1 3277   1.600   3.333   3.795
 1083SOL    HW2 3278   1.556   3.176   3.793
 1084SOL     OW 3279   0.464   3.605   4.047
 1084SOL    HW1 3280   0.497   3.644   4.133
 1084SOL    HW2 3281   0.540   3.598   3.982
 1085SOL     OW 3282   1.400   1.969   4.150
 1085SOL    HW1 3283   1.376   1.932   4.060
 1085SOL    HW2 3284   1.499   1.985   4.154
 1086SOL     OW 3285   0.249   3.647   4.965
 1086SOL    HW1 3286   0.306   3.582   5.015
 1086SOL    HW2 3287   0.233   3.614   4.872
 1087SOL     OW 3288   0.940   3.560   4.628
 1087SOL    HW1 3289   1.020   3.503   4.649
 1087SOL    HW2 3290   0.891   3.520   4.551
 1088SOL     OW 3291   0.382   2.562   4.204
 1088SOL    HW1 3292   0.427   2.472   4.201
 1088SOL    HW2 3293   0.288   2.551   4.237
 1089SOL     OW 3294   0.614   1.984   3.841
 1089SOL    HW1 3295   0.712   1.962   3.848
 1089SOL    HW2 3296   0.583   1.967   3.748
 1090SOL     OW 3297   0.888   3.376   4.919
 1090SOL    HW1 3298   0.865   3.351   4.825
 1090SOL    HW2 3299   0.949   3.307   4.958
 1091SOL     OW 3300   1.351   2.452   5.157
 1091SOL    HW1 3301   1.379   2.409   5.242
 1091SOL    HW2 3302   1.376   2.548   5.158
 1092SOL     OW 3303   0.803   3.264   4.648
 1092SOL    HW1 3304   0.893   3.278   4.606
 1092SOL    HW2 3305   0.732   3.266   4.577
 1093SOL     OW 3306   0.922   2.365   4.623
 1093SOL    HW1 3307   0.897   2.356   4.527
 1093SOL    HW2 3308   0.970   2.283   4.654
 1094SOL     OW 3309   0.539   1.926   4.236
 1094SOL    HW1 3310   0.458   1.927   4.294
 1094SOL    HW2 3311   0.542   2.009   4.181
 1095SOL     OW 3312   1.434   3.050   3.765
 1095SOL    HW1 3313   1.466   2.974   3.822
 1095SOL    HW2 3314   1.342   3.077   3.795
 1096SOL     OW 3315   0.297   1.897   3.895
 1096SOL    HW1 3316   0.346   1.981   3.874
 1096SOL    HW2 3317   0.359   1.832   3.940
 1097SOL     OW 3318   0.935   2.098   4.204
 1097SOL    HW1 3319   0.887   2.139   4.126
 1097SOL    HW2 3320   1.034   2.096   4.185
 1098SOL     OW 3321   1.227   3.432   4.517
 1098SOL    HW1 3322   1.248   3.506   4.452
 1098SOL    HW2 3323   1.295   3.432   4.590
 1099SOL     OW 3324   0.459   3.014   4.465
 1099SOL    HW1 3325   0.388   2.987   4.530
 1099SOL    HW2 3326   0.433   2.986   4.372
 1100SOL     OW 3327   1.271   3.659   4.315
 1100SOL    HW1 3328   1.315   3.723   4.251
 1100SOL    HW2 3329   1.221   3.711   4.385
 1101SOL     OW 3330   1.032   2.411   3.740
 1101SOL    HW1 3331   0.991   2.493   3.701
 1101SOL    HW2 3332   1.096   2.437   3.813
 1102SOL     OW 3333   0.078   2.418   5.110
 1102SOL    HW1 3334   0.170   2.417   5.069
 1102SOL    HW2 3335   0.072   2.492   5.177
 1103SOL     OW 3336   0.561   2.084   4.871
 1103SOL    HW1 3337   0.599   2.000   4.908
 1103SOL    HW2 3338   0.473   2.103   4.915
 1104SOL     OW 3339   0.866   2.316   4.366
 1104SOL    HW1 3340   0.834   2.388   4.304
 1104SOL    HW2 3341   0.890   2.235   4.313
 1105SOL     OW 3342   1.017   1.901   4.477
 1105SOL    HW1 3343   0.945   1.906   4.408
 1105SOL    HW2 3344   0.993   1.832   4.546
 1106SOL     OW 3345   1.429   3.035   4.591
 1106SOL    HW1 3346   1.374   2.951   4.584
 1106SOL    HW2 3347   1.455   3.064   4.499
 1107SOL     OW 3348   1.466   2.452   4.716
 1107SOL    HW1 3349   1.436   2.357   4.723
 1107SOL    HW2 3350   1.539   2.468   4.782
 1108SOL     OW 3351   1.857   2.695   4.101
 1108SOL    HW1 3352   1.899   2.631   4.165
 1108SOL    HW2 3353   1.819   2.644   4.023
 1109SOL     OW 3354   0.488   3.247   3.898
 1109SOL    HW1 3355   0.401   3.232   3.945
 1109SOL    HW2 3356   0.471   3.273   3.803
 1110SOL     OW 3357   1.664   3.142   4.381
 1110SOL    HW1 3358   1.763   3.150   4.395
 1110SOL    HW2 3359   1.619   3.226   4.412
 1111SOL     OW 3360   1.390   2.437   3.802
 1111SOL    HW1 3361   1.336   2.416   3.883
 1111SOL    HW2 3362   1.481   2.396   3.811
 1112SOL     OW 3363   0.527   2.118   4.052
 1112SOL    HW1 3364   0.554   2.059   3.977
 1112SOL    HW2 3365   0.527   2.213   4.021
 1113SOL     OW 3366   1.754   3.085   5.312
 1113SOL    HW1 3367   1.845   3.046   5.299
 1113SOL    HW2 3368   1.762   3.181   5.336
 1114SOL     OW 3369   1.064   3.209   5.064
 1114SOL    HW1 3370   0.984   3.186   5.119
 1114SOL    HW2 3371   1.147   3.183   5.113
 1115SOL     OW 3372   1.111   3.057   4.824
 1115SOL    HW1 3373   1.071   3.101   4.905
 1115SOL    HW2 3374   1.070   3.094   4.741
 1116SOL     OW 3375   1.638   2.961   4.803
 1116SOL    HW1 3376   1.643   3.042   4.862
 1116SOL    HW2 3377   1.552   2.963   4.752
 1117SOL     OW 3378   0.915   1.951   5.126
 1117SOL    HW1 3379   0.940   1.931   5.031
 1117SOL    HW2 3380   0.987   2.007   5.168
 1118SOL     OW 3381   0.705   2.912   4.092
 1118SOL    HW1 3382   0.691   2.919   4.191
 1118SOL    HW2 3383   0.789   2.861   4.074
 1119SOL     OW 3384   0.410   2.675   4.975
 1119SOL    HW1 3385   0.496   2.687   5.025
 1119SOL    HW2 3386   0.368   2.588   5.002
 1120SOL     OW 3387   1.274   2.248   4.986
 1120SOL    HW1 3388   1.295   2.322   5.050
 1120SOL    HW2 3389   1.185   2.265   4.943
 1121SOL     OW 3390   0.064   3.426   5.055
 1121SOL    HW1 3391   0.018   3.508   5.021
 1121SOL    HW2 3392   0.162   3.445   5.064
 1122SOL     OW 3393   0.367   2.962   4.225
 1122SOL    HW1 3394   0.360   3.045   4.169
 1122SOL    HW2 3395   0.371   2.882   4.165
 1123SOL     OW 3396   0.566   2.399   4.589
 1123SOL    HW1 3397   0.578   2.465   4.515
 1123SOL    HW2 3398   0.612   2.433   4.672
 1124SOL     OW 3399   1.252   3.210   4.112
 1124SOL    HW1 3400   1.302   3.287   4.152
 1124SOL    HW2 3401   1.157   3.212   4.144
 1125SOL     OW 3402   1.272   3.307   4.866
 1125SOL    HW1 3403   1.319   3.320   4.953
 1125SOL    HW2 3404   1.206   3.233   4.875
 1126SOL     OW 3405   1.582   2.501   4.196
 1126SOL    HW1 3406   1.551   2.562   4.269
 1126SOL    HW2 3407   1.632   2.553   4.127
 1127SOL     OW 3408   0.354   3.372   5.053
 1127SOL    HW1 3409   0.333   3.328   4.966
 1127SOL    HW2 3410   0.451   3.398   5.056
 1128SOL     OW 3411   0.402   2.613   5.322
 1128SOL    HW1 3412   0.470   2.668   5.275
 1128SOL    HW2 3413   0.442   2.525   5.349
 1129SOL     OW 3414   1.587   2.641   5.394
 1129SOL    HW1 3415   1.495   2.679   5.389
 1129SOL    HW2 3416   1.647   2.688   5.329
 1130SOL     OW 3417   0.573   2.732   4.753
 1130SOL    HW1 3418   0.617   2.821   4.744
 1130SOL    HW2 3419   0.510   2.732   4.830
 1131SOL     OW 3420   1.360   2.724   4.769
 1131SOL    HW1 3421   1.285   2.724   4.703
 1131SOL    HW2 3422   1.397   2.632   4.778
 1132SOL     OW 3423   1.209   2.387   3.999
 1132SOL    HW1 3424   1.222   2.303   4.053
 1132SOL    HW2 3425   1.180   2.461   4.059
 1133SOL     OW 3426   0.307   2.075   4.955
 1133SOL    HW1 3427   0.284   2.112   5.045
 1133SOL    HW2 3428   0.277   1.980   4.949
 1134SOL     OW 3429   0.037   3.172   5.006
 1134SOL    HW1 3430   0.090   3.123   5.074
 1134SOL    HW2 3431   0.059   3.270   5.011
 1135SOL     OW 3432   0.732   2.496   4.788
 1135SOL    HW1 3433   0.791   2.470   4.712
 1135SOL    HW2 3434   0.704   2.592   4.777
 1136SOL     OW 3435   0.307   1.925   4.342
 1136SOL    HW1 3436   0.296   2.019   4.375
 1136SOL    HW2 3437   0.302   1.862   4.419
 1137SOL     OW 3438   1.622   2.229   4.098
 1137SOL    HW1 3439   1.624   2.153   4.162
 1137SOL    HW2 3440   1.574   2.306   4.138
 1138SOL     OW 3441   1.023   2.628   4.690
 1138SOL    HW1 3442   1.038   2.649   4.786
 1138SOL    HW2 3443   0.993   2.533   4.681
 1139SOL     OW 3444   0.980   3.435   5.424
 1139SOL    HW1 3445   0.960   3.479   5.336
 1139SOL    HW2 3446   1.019   3.344   5.408
 1140SOL     OW 3447   1.540   2.136   3.849
 1140SOL    HW1 3448   1.479   2.061   3.872
 1140SOL    HW2 3449   1.562   2.188   3.932
 1141SOL     OW 3450   1.303   2.700   3.766
 1141SOL    HW1 3451   1.337   2.607   3.781
 1141SOL    HW2 3452   1.321   2.727   3.671
 1142SOL     OW 3453   1.068   3.195   4.573
 1142SOL    HW1 3454   1.075   3.111   4.518
 1142SOL    HW2 3455   1.130   3.264   4.537
 1143SOL     OW 3456   0.319   2.672   4.673
 1143SOL    HW1 3457   0.412   2.708   4.678
 1143SOL    HW2 3458   0.313   2.587   4.725
 1144SOL     OW 3459   0.339   2.371   4.730
 1144SOL    HW1 3460   0.287   2.288   4.713
 1144SOL    HW2 3461   0.416   2.376   4.666
 1145SOL     OW 3462   1.138   2.242   5.402
 1145SOL    HW1 3463   1.093   2.305   5.466
 1145SOL    HW2 3464   1.231   2.273   5.385
 1146SOL     OW 3465   1.160   2.069   5.201
 1146SOL    HW1 3466   1.160   2.133   5.278
 1146SOL    HW2 3467   1.188   2.117   5.118
 1147SOL     OW 3468   0.008   3.188   3.924
 1147SOL    HW1 3469  -0.085   3.209   3.893
 1147SOL    HW2 3470   0.018   3.089   3.937
 1148SOL     OW 3471   0.088   3.663   4.651
 1148SOL    HW1 3472   0.046   3.577   4.624
 1148SOL    HW2 3473   0.182   3.666   4.617
 1149SOL     OW 3474   0.504   3.430   4.634
 1149SOL    HW1 3475   0.570   3.504   4.643
 1149SOL    HW2 3476   0.548   3.351   4.592
 1150SOL     OW 3477   1.002   2.658   4.962
 1150SOL    HW1 3478   1.043   2.626   5.048
 1150SOL    HW2 3479   0.906   2.631   4.959
 1151SOL     OW 3480   0.040   2.406   4.838
 1151SOL    HW1 3481   0.125   2.373   4.797
 1151SOL    HW2 3482   0.053   2.421   4.936
 1152SOL     OW 3483   0.815   2.434   4.049
 1152SOL    HW1 3484   0.822   2.345   4.003
 1152SOL    HW2 3485   0.721   2.468   4.041
 1153SOL     OW 3486   1.657   2.466   4.930
 1153SOL    HW1 3487   1.619   2.397   4.992
 1153SOL    HW2 3488   1.739   2.430   4.886
 1154SOL     OW 3489   0.252   3.426   5.468
 1154SOL    HW1 3490   0.222   3.483   5.544
 1154SOL    HW2 3491   0.245   3.329   5.494
 1155SOL     OW 3492   0.671   2.326   4.993
 1155SOL    HW1 3493   0.637   2.237   4.963
 1155SOL    HW2 3494   0.697   2.380   4.913
 1156SOL     OW 3495   0.930   3.540   5.189
 1156SOL    HW1 3496   0.906   3.522   5.094
 1156SOL    HW2 3497   0.960   3.634   5.199
 1157SOL     OW 3498   0.473   2.362   3.915
 1157SOL    HW1 3499   0.534   2.442   3.919
 1157SOL    HW2 3500   0.378   2.393   3.922
 1158SOL     OW 3501   0.159   2.999   5.190
 1158SOL    HW1 3502   0.181   2.938   5.266
 1158SOL    HW2 3503   0.169   2.950   5.104
 1159SOL     OW 3504   1.347   2.921   4.958
 1159SOL    HW1 3505   1.371   2.858   4.884
 1159SOL    HW2 3506   1.257   2.961   4.940
 1160SOL     OW 3507   1.302   2.717   4.033
 1160SOL    HW1 3508   1.216   2.686   4.075
 1160SOL    HW2 3509   1.298   2.703   3.934
 1161SOL     OW 3510   1.759   3.609   4.878
 1161SOL    HW1 3511   1.820   3.639   4.805
 1161SOL    HW2 3512   1.721   3.520   4.856
 1162SOL     OW 3513   1.252   3.593   4.852
 1162SOL    HW1 3514   1.336   3.598   4.798
 1162SOL    HW2 3515   1.229   3.497   4.870
 1163SOL     OW 3516   0.083   3.120   4.746
 1163SOL    HW1 3517   0.078   3.119   4.846
 1163SOL    HW2 3518   0.000   3.079   4.708
 1164SOL     OW 3519   1.726   1.997   4.247
 1164SOL    HW1 3520   1.799   1.980   4.180
 1164SOL    HW2 3521   1.695   1.910   4.285
 1165SOL     OW 3522   1.388   3.435   4.201
 1165SOL    HW1 3523   1.455   3.447   4.127
 1165SOL    HW2 3524   1.348   3.524   4.224
 1166SOL     OW 3525   0.130   3.656   5.575
 1166SOL    HW1 3526   0.089   3.582   5.628
 1166SOL    HW2 3527   0.194   3.707   5.633
 1167SOL     OW 3528   1.280   2.789   4.396
 1167SOL    HW1 3529   1.340   2.708   4.398
 1167SOL    HW2 3530   1.320   2.858   4.336
 1168SOL     OW 3531   0.672   3.478   3.878
 1168SOL    HW1 3532   0.681   3.488   3.779
 1168SOL    HW2 3533   0.632   3.389   3.899
 1169SOL     OW 3534   1.650   3.582   5.118
 1169SOL    HW1 3535   1.703   3.592   5.034
 1169SOL    HW2 3536   1.623   3.672   5.152
 1170SOL     OW 3537   1.841   2.037   4.687
 1170SOL    HW1 3538   1.880   1.952   4.651
 1170SOL    HW2 3539   1.743   2.039   4.668
 1171SOL     OW 3540   0.263   2.188   4.444
 1171SOL    HW1 3541   0.184   2.239   4.410
 1171SOL    HW2 3542   0.254   2.173   4.542
 1172SOL     OW 3543   1.194   3.474   3.755
 1172SOL    HW1 3544   1.200   3.381   3.792
 1172SOL    HW2 3545   1.135   3.474   3.675
 1173SOL     OW 3546   0.822   2.864   5.096
 1173SOL    HW1 3547   0.862   2.863   5.004
 1173SOL    HW2 3548   0.832   2.956   5.136
 1174SOL     OW 3549   0.916   2.772   4.015
 1174SOL    HW1 3550   0.979   2.810   3.947
 1174SOL    HW2 3551   0.956   2.689   4.054
 1175SOL     OW 3552   1.504   3.469   3.768
 1175SOL    HW1 3553   1.412   3.506   3.775
 1175SOL    HW2 3554   1.542   3.489   3.678
 1176SOL     OW 3555   0.372   3.150   5.214
 1176SOL    HW1 3556   0.359   3.243   5.180
 1176SOL    HW2 3557   0.288   3.098   5.201
 1177SOL     OW 3558   1.614   3.154   5.013
 1177SOL    HW1 3559   1.674   3.157   5.093
 1177SOL    HW2 3560   1.539   3.218   5.026
 1178SOL     OW 3561   1.039   2.960   4.420
 1178SOL    HW1 3562   0.969   2.913   4.474
 1178SOL    HW2 3563   1.098   2.892   4.377
 1179SOL     OW 3564   1.014   2.098   4.695
 1179SOL    HW1 3565   1.006   2.062   4.602
 1179SOL    HW2 3566   1.012   2.022   4.760
 1180SOL     OW 3567   0.590   3.349   4.215
 1180SOL    HW1 3568   0.632   3.291   4.145
 1180SOL    HW2 3569   0.546   3.428   4.171
 1181SOL     OW 3570   1.709   2.247   5.105
 1181SOL    HW1 3571   1.782   2.316   5.109
 1181SOL    HW2 3572   1.737   2.172   5.046
 1182SOL     OW 3573   0.255   3.210   4.014
 1182SOL    HW1 3574   0.159   3.211   3.987
 1182SOL    HW2 3575   0.267   3.263   4.098
 1183SOL     OW 3576   0.672   2.065   5.213
 1183SOL    HW1 3577   0.762   2.049   5.173
 1183SOL    HW2 3578   0.680   2.070   5.312
 1184SOL     OW 3579   0.075   2.207   3.757
 1184SOL    HW1 3580  -0.017   2.179   3.728
 1184SOL    HW2 3581   0.106   2.284   3.701
 1185SOL     OW 3582   1.440   2.718   5.122
 1185SOL    HW1 3583   1.383   2.770   5.059
 1185SOL    HW2 3584   1.536   2.730   5.098
 1186SOL     OW 3585   0.072   2.028   4.042
 1186SOL    HW1 3586   0.055   2.111   3.988
 1186SOL    HW2 3587   0.162   1.991   4.020
 1187SOL     OW 3588   1.183   3.197   3.843
 1187SOL    HW1 3589   1.084   3.186   3.845
 1187SOL    HW2 3590   1.217   3.212   3.936
 1188SOL     OW 3591   0.613   2.704   5.155
 1188SOL    HW1 3592   0.669   2.785   5.138
 1188SOL    HW2 3593   0.672   2.624   5.158
 1189SOL     OW 3594   1.493   3.629   4.683
 1189SOL    HW1 3595   1.526   3.693   4.614
 1189SOL    HW2 3596   1.559   3.623   4.758
 1190SOL     OW 3597   0.390   3.603   5.284
 1190SOL    HW1 3598   0.299   3.644   5.282
 1190SOL    HW2 3599   0.383   3.509   5.316
 1191SOL     OW 3600   1.674   2.745   4.978
 1191SOL    HW1 3601   1.647   2.656   4.941
 1191SOL    HW2 3602   1.675   2.813   4.905
 1192SOL     OW 3603   1.225   2.187   4.173
 1192SOL    HW1 3604   1.290   2.113   4.162
 1192SOL    HW2 3605   1.245   2.237   4.257
 1193SOL     OW 3606   0.594   2.607   4.376
 1193SOL    HW1 3607   0.644   2.692   4.357
 1193SOL    HW2 3608   0.506   2.609   4.328
 1194SOL     OW 3609   1.777   2.204   5.366
 1194SOL    HW1 3610   1.760   2.235   5.272
 1194SOL    HW2 3611   1.693   2.167   5.404
 1195SOL     OW 3612   1.730   2.796   5.241
 1195SOL    HW1 3613   1.768   2.887   5.256
 1195SOL    HW2 3614   1.722   2.779   5.142
 1196SOL     OW 3615   0.859   3.236   3.740
 1196SOL    HW1 3616   0.813   3.251   3.828
 1196SOL    HW2 3617   0.903   3.321   3.710
 1197SOL     OW 3618   0.661   3.652   4.677
 1197SOL    HW1 3619   0.615   3.740   4.664
 1197SOL    HW2 3620   0.760   3.664   4.670
 1198SOL     OW 3621   0.859   2.818   4.585
 1198SOL    HW1 3622   0.913   2.749   4.633
 1198SOL    HW2 3623   0.827   2.887   4.651
 1199SOL     OW 3624   1.083   2.846   3.811
 1199SOL    HW1 3625   1.060   2.899   3.729
 1199SOL    HW2 3626   1.164   2.790   3.792
 1200SOL     OW 3627   1.861   3.431   4.575
 1200SOL    HW1 3628   1.790   3.419   4.505
 1200SOL    HW2 3629   1.862   3.352   4.635
 1201SOL     OW 3630   0.079   3.102   4.377
 1201SOL    HW1 3631   0.078   3.055   4.465
 1201SOL    HW2 3632   0.161   3.074   4.326
 1202SOL     OW 3633   1.824   2.054   4.951
 1202SOL    HW1 3634   1.820   1.964   4.995
 1202SOL    HW2 3635   1.827   2.043   4.852
 1203SOL     OW 3636   0.428   2.286   4.244
 1203SOL    HW1 3637   0.458   2.214   4.182
 1203SOL    HW2 3638   0.389   2.246   4.327
 1204SOL     OW 3639   1.705   3.349   4.828
 1204SOL    HW1 3640   1.612   3.324   4.801
 1204SOL    HW2 3641   1.731   3.299   4.910
 1205SOL     OW 3642   0.317   2.409   5.004
 1205SOL    HW1 3643   0.355   2.350   5.076
 1205SOL    HW2 3644   0.357   2.383   4.916
 1206SOL     OW 3645   0.812   3.448   4.411
 1206SOL    HW1 3646   0.844   3.458   4.317
 1206SOL    HW2 3647   0.733   3.386   4.413
 1207SOL     OW 3648   1.424   2.076   4.836
 1207SOL    HW1 3649   1.476   2.011   4.891
 1207SOL    HW2 3650   1.375   2.139   4.897
 1208SOL     OW 3651   1.001   1.896   4.878
 1208SOL    HW1 3652   0.938   1.824   4.847
 1208SOL    HW2 3653   1.094   1.860   4.878
 1209SOL     OW 3654   0.770   3.192   4.025
 1209SOL    HW1 3655   0.724   3.105   4.042
 1209SOL    HW2 3656   0.861   3.189   4.066
 1210SOL     OW 3657   0.618   3.429   5.008
 1210SOL    HW1 3658   0.613   3.511   5.065
 1210SOL    HW2 3659   0.707   3.426   4.963
 1211SOL     OW 3660   1.352   1.914   3.892
 1211SOL    HW1 3661   1.387   1.873   3.808
 1211SOL    HW2 3662   1.262   1.876   3.912
 1212SOL     OW 3663   1.300   2.315   4.415
 1212SOL    HW1 3664   1.241   2.395   4.419
 1212SOL    HW2 3665   1.315   2.280   4.508
 1213SOL     OW 3666   1.593   2.083   4.606
 1213SOL    HW1 3667   1.509   2.082   4.660
 1213SOL    HW2 3668   1.595   2.166   4.550
 1214SOL     OW 3669   0.039   2.939   4.024
 1214SOL    HW1 3670   0.138   2.928   4.015
 1214SOL    HW2 3671  -0.001   2.853   4.056
 1215SOL     OW 3672   0.875   3.508   4.061
 1215SOL    HW1 3673   0.798   3.473   4.007
 1215SOL    HW2 3674   0.843   3.579   4.123
 1216SOL     OW 3675   0.230   4.352   0.113
 1216SOL    HW1 3676   0.137   4.350   0.150
 1216SOL    HW2 3677   0.231   4.313   0.021
 1217SOL     OW 3678   0.225   3.999   0.996
 1217SOL    HW1 3679   0.260   3.982   1.088
 1217SOL    HW2 3680   0.137   3.954   0.984
 1218SOL     OW 3681   0.019   4.092   0.647
 1218SOL    HW1 3682  -0.063   4.135   0.686
 1218SOL    HW2 3683  -0.009   4.019   0.584
 1219SOL     OW 3684   0.569   4.999   1.165
 1219SOL    HW1 3685   0.476   4.992   1.128
 1219SOL    HW2 3686   0.580   5.088   1.209
 1220SOL     OW 3687   1.555   5.235   0.703
 1220SOL    HW1 3688   1.498   5.219   0.784
 1220SOL    HW2 3689   1.496   5.245   0.623
 1221SOL     OW 3690   1.135   4.427   0.717
 1221SOL    HW1 3691   1.192   4.505   0.692
 1221SOL    HW2 3692   1.075   4.453   0.793
 1222SOL     OW 3693   1.755   4.331   0.231
 1222SOL    HW1 3694   1.743   4.318   0.132
 1222SOL    HW2 3695   1.725   4.250   0.280
 1223SOL     OW 3696   0.768   4.868   1.023
 1223SOL    HW1 3697   0.690   4.885   1.083
 1223SOL    HW2 3698   0.802   4.955   0.987
 1224SOL     OW 3699   0.850   4.522   1.823
 1224SOL    HW1 3700   0.846   4.598   1.888
 1224SOL    HW2 3701   0.872   4.558   1.732
 1225SOL     OW 3702   0.685   4.736   0.665
 1225SOL    HW1 3703   0.754   4.720   0.735
 1225SOL    HW2 3704   0.612   4.793   0.703
 1226SOL     OW 3705   0.686   4.885   1.803
 1226SOL    HW1 3706   0.746   4.964   1.817
 1226SOL    HW2 3707   0.600   4.916   1.762
 1227SOL     OW 3708   0.335   5.159   1.061
 1227SOL    HW1 3709   0.257   5.128   1.008
 1227SOL    HW2 3710   0.393   5.217   1.004
 1228SOL     OW 3711   1.460   5.229   1.339
 1228SOL    HW1 3712   1.484   5.323   1.365
 1228SOL    HW2 3713   1.444   5.175   1.421
 1229SOL     OW 3714   0.438   4.116   1.499
 1229SOL    HW1 3715   0.520   4.060   1.508
 1229SOL    HW2 3716   0.357   4.058   1.503
 1230SOL     OW 3717   1.603   4.171   0.737
 1230SOL    HW1 3718   1.529   4.217   0.687
 1230SOL    HW2 3719   1.654   4.239   0.790
 1231SOL     OW 3720   1.127   5.065   1.690
 1231SOL    HW1 3721   1.174   5.065   1.778
 1231SOL    HW2 3722   1.079   4.978   1.679
 1232SOL     OW 3723   0.230   5.158   0.538
 1232SOL    HW1 3724   0.204   5.254   0.538
 1232SOL    HW2 3725   0.159   5.104   0.583
 1233SOL     OW 3726   0.240   4.815   0.886
 1233SOL    HW1 3727   0.254   4.731   0.938
 1233SOL    HW2 3728   0.185   4.879   0.941
 1234SOL     OW 3729   0.606   4.688   0.123
 1234SOL    HW1 3730   0.613   4.772   0.069
 1234SOL    HW2 3731   0.652   4.701   0.211
 1235SOL     OW 3732   1.594   3.838   1.480
 1235SOL    HW1 3733   1.576   3.905   1.408
 1235SOL    HW2 3734   1.591   3.884   1.569
 1236SOL     OW 3735   0.122   4.367   0.563
 1236SOL    HW1 3736   0.077   4.279   0.580
 1236SOL    HW2 3737   0.121   4.421   0.647
 1237SOL     OW 3738   0.027   5.320   0.117
 1237SOL    HW1 3739   0.008   5.224   0.138
 1237SOL    HW2 3740  -0.006   5.378   0.192
 1238SOL     OW 3741   1.689   4.646   0.612
 1238SOL    HW1 3742   1.784   4.617   0.620
 1238SOL    HW2 3743   1.681   4.711   0.537
 1239SOL     OW 3744   1.641   4.832   0.432
 1239SOL    HW1 3745   1.727   4.834   0.380
 1239SOL    HW2 3746   1.655   4.879   0.520
 1240SOL     OW 3747   0.113   4.461   1.597
 1240SOL    HW1 3748   0.201   4.448   1.642
 1240SOL    HW2 3749   0.100   4.558   1.575
 1241SOL     OW 3750   0.613   5.089   0.726
 1241SOL    HW1 3751   0.564   5.002   0.735
 1241SOL    HW2 3752   0.590   5.132   0.639
 1242SOL     OW 3753   1.293   4.952   1.423
 1242SOL    HW1 3754   1.330   4.879   1.365
 1242SOL    HW2 3755   1.345   4.957   1.508
 1243SOL     OW 3756   0.809   3.728   0.502
 1243SOL    HW1 3757   0.849   3.819   0.493
 1243SOL    HW2 3758   0.709   3.736   0.508
 1244SOL     OW 3759   0.197   4.700   1.264
 1244SOL    HW1 3760   0.286   4.655   1.250
 1244SOL    HW2 3761   0.124   4.635   1.245
 1245SOL     OW 3762   1.525   4.723   0.190
 1245SOL    HW1 3763   1.462   4.647   0.203
 1245SOL    HW2 3764   1.573   4.741   0.276
 1246SOL     OW 3765   0.317   3.975   1.801
 1246SOL    HW1 3766   0.388   4.046   1.807
 1246SOL    HW2 3767   0.229   4.014   1.829
 1247SOL     OW 3768   1.466   5.141   0.953
 1247SOL    HW1 3769   1.407   5.147   1.033
 1247SOL    HW2 3770   1.451   5.053   0.907
 1248SOL     OW 3771   0.598   4.453   0.270
 1248SOL    HW1 3772   0.622   4.522   0.202
 1248SOL    HW2 3773   0.520   4.486   0.324
 1249SOL     OW 3774   1.281   4.069   0.944
 1249SOL    HW1 3775   1.195   4.019   0.931
 1249SOL    HW2 3776   1.343   4.015   1.000
 1250SOL     OW 3777   1.576   5.386   0.307
 1250SOL    HW1 3778   1.665   5.432   0.310
 1250SOL    HW2 3779   1.555   5.362   0.212
 1251SOL     OW 3780   0.807   4.329   1.465
 1251SOL    HW1 3781   0.760   4.326   1.554
 1251SOL    HW2 3782   0.756   4.274   1.399
 1252SOL     OW 3783   1.394   4.193   1.674
 1252SOL    HW1 3784   1.374   4.236   1.762
 1252SOL    HW2 3785   1.472   4.131   1.683
 1253SOL     OW 3786   0.973   4.614   1.572
 1253SOL    HW1 3787   1.019   4.530   1.543
 1253SOL    HW2 3788   0.917   4.648   1.497
 1254SOL     OW 3789   0.991   4.134   1.242
 1254SOL    HW1 3790   0.914   4.168   1.296
 1254SOL    HW2 3791   0.957   4.083   1.163
 1255SOL     OW 3792   1.041   4.425   0.429
 1255SOL    HW1 3793   1.067   4.421   0.525
 1255SOL    HW2 3794   0.956   4.374   0.415
 1256SOL     OW 3795   0.076   4.535   0.789
 1256SOL    HW1 3796   0.175   4.523   0.798
 1256SOL    HW2 3797   0.052   4.630   0.810
 1257SOL     OW 3798   0.865   4.072   0.195
 1257SOL    HW1 3799   0.924   4.135   0.146
 1257SOL    HW2 3800   0.884   3.978   0.166
 1258SOL     OW 3801   1.719   4.309   1.831
 1258SOL    HW1 3802   1.693   4.398   1.795
 1258SOL    HW2 3803   1.717   4.241   1.758
 1259SOL     OW 3804   1.362   4.868   0.545
 1259SOL    HW1 3805   1.445   4.839   0.497
 1259SOL    HW2 3806   1.313   4.935   0.489
 1260SOL     OW 3807   0.550   3.920   0.885
 1260SOL    HW1 3808   0.545   3.915   0.985
 1260SOL    HW2 3809   0.552   4.016   0.856
 1261SOL     OW 3810   1.008   5.180   0.477
 1261SOL    HW1 3811   0.962   5.252   0.425
 1261SOL    HW2 3812   1.004   5.200   0.575
 1262SOL     OW 3813   1.795   4.790   0.873
 1262SOL    HW1 3814   1.733   4.775   0.797
 1262SOL    HW2 3815   1.743   4.801   0.958
 1263SOL     OW 3816   1.227   5.274   1.506
 1263SOL    HW1 3817   1.233   5.197   1.570
 1263SOL    HW2 3818   1.175   5.248   1.426
 1264SOL     OW 3819   0.321   4.667   0.242
 1264SOL    HW1 3820   0.403   4.706   0.200
 1264SOL    HW2 3821   0.294   4.585   0.193
 1265SOL     OW 3822   1.458   4.459   0.728
 1265SOL    HW1 3823   1.453   4.394   0.803
 1265SOL    HW2 3824   1.538   4.518   0.741
 1266SOL     OW 3825   0.461   4.990   1.727
 1266SOL    HW1 3826   0.411   4.991   1.641
 1266SOL    HW2 3827   0.398   4.972   1.803
 1267SOL     OW 3828   1.111   5.500   0.237
 1267SOL    HW1 3829   1.051   5.438   0.287
 1267SOL    HW2 3830   1.142   5.456   0.152
 1268SOL     OW 3831   0.202   4.009   1.498
 1268SOL    HW1 3832   0.122   4.069   1.485
 1268SOL    HW2 3833   0.192   3.960   1.584
 1269SOL     OW 3834   1.632   5.101   0.081
 1269SOL    HW1 3835   1.600   5.195   0.071
 1269SOL    HW2 3836   1.556   5.038   0.069
 1270SOL     OW 3837   1.400   3.831   0.426
 1270SOL    HW1 3838   1.376   3.794   0.336
 1270SOL    HW2 3839   1.499   3.847   0.430
 1271SOL     OW 3840   0.382   4.424   0.480
 1271SOL    HW1 3841   0.427   4.334   0.477
 1271SOL    HW2 3842   0.288   4.413   0.513
 1272SOL     OW 3843   1.547   3.946   1.729
 1272SOL    HW1 3844   1.542   3.983   1.821
 1272SOL    HW2 3845   1.475   3.877   1.717
 1273SOL     OW 3846   0.614   3.846   0.117
 1273SOL    HW1 3847   0.712   3.824   0.124
 1273SOL    HW2 3848   0.583   3.829   0.024
 1274SOL     OW 3849   0.781   3.988   1.749
 1274SOL    HW1 3850   0.848   3.927   1.792
 1274SOL    HW2 3851   0.708   4.007   1.814
 1275SOL     OW 3852   1.351   4.314   1.433
 1275SOL    HW1 3853   1.379   4.271   1.518
 1275SOL    HW2 3854   1.376   4.410   1.434
 1276SOL     OW 3855   0.803   5.126   0.924
 1276SOL    HW1 3856   0.893   5.140   0.882
 1276SOL    HW2 3857   0.732   5.128   0.853
 1277SOL     OW 3858   0.922   4.227   0.899
 1277SOL    HW1 3859   0.897   4.218   0.803
 1277SOL    HW2 3860   0.970   4.145   0.930
 1278SOL     OW 3861   0.539   3.788   0.512
 1278SOL    HW1 3862   0.458   3.789   0.570
 1278SOL    HW2 3863   0.542   3.871   0.457
 1279SOL     OW 3864   1.434   4.912   0.041
 1279SOL    HW1 3865   1.466   4.836   0.098
 1279SOL    HW2 3866   1.342   4.939   0.071
 1280SOL     OW 3867   0.297   3.759   0.171
 1280SOL    HW1 3868   0.346   3.843   0.150
 1280SOL    HW2 3869   0.359   3.694   0.216
 1281SOL     OW 3870   0.935   3.960   0.480
 1281SOL    HW1 3871   0.887   4.001   0.402
 1281SOL    HW2 3872   1.034   3.958   0.461
 1282SOL     OW 3873   1.076   4.407   1.464
 1282SOL    HW1 3874   0.996   4.346   1.467
 1282SOL    HW2 3875   1.157   4.354   1.440
 1283SOL     OW 3876   1.227   5.294   0.793
 1283SOL    HW1 3877   1.248   5.368   0.728
 1283SOL    HW2 3878   1.295   5.294   0.866
 1284SOL     OW 3879   0.459   4.876   0.741
 1284SOL    HW1 3880   0.388   4.849   0.806
 1284SOL    HW2 3881   0.433   4.848   0.648
 1285SOL     OW 3882   1.032   4.273   0.016
 1285SOL    HW1 3883   0.991   4.355  -0.023
 1285SOL    HW2 3884   1.096   4.299   0.089
 1286SOL     OW 3885   0.078   4.280   1.386
 1286SOL    HW1 3886   0.170   4.279   1.345
 1286SOL    HW2 3887   0.072   4.354   1.453
 1287SOL     OW 3888   0.561   3.946   1.147
 1287SOL    HW1 3889   0.599   3.862   1.184
 1287SOL    HW2 3890   0.473   3.965   1.191
 1288SOL     OW 3891   0.866   4.178   0.642
 1288SOL    HW1 3892   0.834   4.250   0.580
 1288SOL    HW2 3893   0.890   4.097   0.589
 1289SOL     OW 3894   1.017   3.763   0.753
 1289SOL    HW1 3895   0.945   3.768   0.684
 1289SOL    HW2 3896   0.993   3.694   0.822
 1290SOL     OW 3897   1.429   4.897   0.867
 1290SOL    HW1 3898   1.374   4.813   0.860
 1290SOL    HW2 3899   1.455   4.926   0.775
 1291SOL     OW 3900   1.466   4.314   0.992
 1291SOL    HW1 3901   1.436   4.219   0.999
 1291SOL    HW2 3902   1.539   4.330   1.058
 1292SOL     OW 3903   1.857   4.557   0.377
 1292SOL    HW1 3904   1.899   4.493   0.441
 1292SOL    HW2 3905   1.819   4.506   0.299
 1293SOL     OW 3906   0.488   5.109   0.174
 1293SOL    HW1 3907   0.401   5.094   0.221
 1293SOL    HW2 3908   0.471   5.135   0.079
 1294SOL     OW 3909   1.664   5.004   0.657
 1294SOL    HW1 3910   1.763   5.012   0.671
 1294SOL    HW2 3911   1.619   5.088   0.688
 1295SOL     OW 3912   1.390   4.299   0.078
 1295SOL    HW1 3913   1.336   4.278   0.159
 1295SOL    HW2 3914   1.481   4.258   0.087
 1296SOL     OW 3915   0.527   3.980   0.328
 1296SOL    HW1 3916   0.554   3.921   0.253
 1296SOL    HW2 3917   0.527   4.075   0.297
 1297SOL     OW 3918   1.754   4.947   1.588
 1297SOL    HW1 3919   1.845   4.908   1.575
 1297SOL    HW2 3920   1.762   5.043   1.612
 1298SOL     OW 3921   1.064   5.071   1.340
 1298SOL    HW1 3922   0.984   5.048   1.395
 1298SOL    HW2 3923   1.147   5.045   1.389
 1299SOL     OW 3924   1.111   4.919   1.100
 1299SOL    HW1 3925   1.071   4.963   1.181
 1299SOL    HW2 3926   1.070   4.956   1.017
 1300SOL     OW 3927   1.638   4.823   1.079
 1300SOL    HW1 3928   1.643   4.904   1.138
 1300SOL    HW2 3929   1.552   4.825   1.028
 1301SOL     OW 3930   0.915   3.813   1.402
 1301SOL    HW1 3931   0.940   3.793   1.307
 1301SOL    HW2 3932   0.987   3.869   1.444
 1302SOL     OW 3933   0.980   4.840   1.719
 1302SOL    HW1 3934   0.881   4.846   1.729
 1302SOL    HW2 3935   1.003   4.760   1.663
 1303SOL     OW 3936   0.705   4.774   0.368
 1303SOL    HW1 3937   0.691   4.781   0.467
 1303SOL    HW2 3938   0.789   4.723   0.350
 1304SOL     OW 3939   0.410   4.537   1.251
 1304SOL    HW1 3940   0.496   4.549   1.301
 1304SOL    HW2 3941   0.368   4.450   1.278
 1305SOL     OW 3942   1.274   4.110   1.262
 1305SOL    HW1 3943   1.295   4.184   1.326
 1305SOL    HW2 3944   1.185   4.127   1.219
 1306SOL     OW 3945   0.064   5.288   1.331
 1306SOL    HW1 3946   0.018   5.370   1.297
 1306SOL    HW2 3947   0.162   5.307   1.340
 1307SOL     OW 3948   0.367   4.824   0.501
 1307SOL    HW1 3949   0.360   4.907   0.445
 1307SOL    HW2 3950   0.371   4.744   0.441
 1308SOL     OW 3951   0.566   4.261   0.865
 1308SOL    HW1 3952   0.578   4.327   0.791
 1308SOL    HW2 3953   0.612   4.295   0.948
 1309SOL     OW 3954   1.252   5.072   0.388
 1309SOL    HW1 3955   1.302   5.149   0.428
 1309SOL    HW2 3956   1.157   5.074   0.420
 1310SOL     OW 3957   1.272   5.169   1.142
 1310SOL    HW1 3958   1.319   5.182   1.229
 1310SOL    HW2 3959   1.206   5.095   1.151
 1311SOL     OW 3960   1.582   4.363   0.472
 1311SOL    HW1 3961   1.551   4.424   0.545
 1311SOL    HW2 3962   1.632   4.415   0.403
 1312SOL     OW 3963   0.354   5.234   1.329
 1312SOL    HW1 3964   0.333   5.190   1.242
 1312SOL    HW2 3965   0.451   5.260   1.332
 1313SOL     OW 3966   0.402   4.475   1.598
 1313SOL    HW1 3967   0.470   4.530   1.551
 1313SOL    HW2 3968   0.442   4.387   1.625
 1314SOL     OW 3969   1.587   4.503   1.670
 1314SOL    HW1 3970   1.495   4.541   1.665
 1314SOL    HW2 3971   1.647   4.550   1.605
 1315SOL     OW 3972   1.013   3.829   1.770
 1315SOL    HW1 3973   1.019   3.914   1.718
 1315SOL    HW2 3974   1.045   3.753   1.713
 1316SOL     OW 3975   0.504   3.774   1.740
 1316SOL    HW1 3976   0.462   3.717   1.670
 1316SOL    HW2 3977   0.438   3.843   1.772
 1317SOL     OW 3978   0.573   4.594   1.029
 1317SOL    HW1 3979   0.617   4.683   1.020
 1317SOL    HW2 3980   0.510   4.594   1.106
 1318SOL     OW 3981   1.360   4.586   1.045
 1318SOL    HW1 3982   1.285   4.586   0.979
 1318SOL    HW2 3983   1.397   4.494   1.054
 1319SOL     OW 3984   1.209   4.249   0.275
 1319SOL    HW1 3985   1.222   4.165   0.329
 1319SOL    HW2 3986   1.180   4.323   0.335
 1320SOL     OW 3987   0.307   3.937   1.231
 1320SOL    HW1 3988   0.284   3.974   1.321
 1320SOL    HW2 3989   0.277   3.842   1.225
 1321SOL     OW 3990   0.037   5.034   1.282
 1321SOL    HW1 3991   0.090   4.985   1.350
 1321SOL    HW2 3992   0.059   5.132   1.287
 1322SOL     OW 3993   0.732   4.358   1.064
 1322SOL    HW1 3994   0.791   4.332   0.988
 1322SOL    HW2 3995   0.704   4.454   1.053
 1323SOL     OW 3996   1.728   4.659   1.854
 1323SOL    HW1 3997   1.682   4.652   1.765
 1323SOL    HW2 3998   1.666   4.703   1.920
 1324SOL     OW 3999   0.307   3.787   0.618
 1324SOL    HW1 4000   0.296   3.881   0.651
 1324SOL    HW2 4001   0.302   3.724   0.695
 1325SOL     OW 4002   1.622   4.091   0.374
 1325SOL    HW1 4003   1.624   4.015   0.438
 1325SOL    HW2 4004   1.574   4.168   0.414
 1326SOL     OW 4005   1.023   4.490   0.966
 1326SOL    HW1 4006   1.038   4.511   1.062
 1326SOL    HW2 4007   0.993   4.395   0.957
 1327SOL     OW 4008   1.859   5.242   1.605
 1327SOL    HW1 4009   1.873   5.269   1.510
 1327SOL    HW2 4010   1.942   5.264   1.658
 1328SOL     OW 4011   0.350   4.622   1.804
 1328SOL    HW1 4012   0.426   4.666   1.852
 1328SOL    HW2 4013   0.385   4.575   1.722
 1329SOL     OW 4014   1.540   3.998   0.125
 1329SOL    HW1 4015   1.479   3.923   0.148
 1329SOL    HW2 4016   1.562   4.050   0.208
 1330SOL     OW 4017   1.303   4.562   0.042
 1330SOL    HW1 4018   1.337   4.469   0.057
 1330SOL    HW2 4019   1.321   4.589  -0.053
 1331SOL     OW 4020   1.068   5.057   0.849
 1331SOL    HW1 4021   1.075   4.973   0.794
 1331SOL    HW2 4022   1.130   5.126   0.813
 1332SOL     OW 4023   0.319   4.534   0.949
 1332SOL    HW1 4024   0.412   4.570   0.954
 1332SOL    HW2 4025   0.313   4.449   1.001
 1333SOL     OW 4026   0.339   4.233   1.006
 1333SOL    HW1 4027   0.287   4.150   0.989
 1333SOL    HW2 4028   0.416   4.238   0.942
 1334SOL     OW 4029   1.138   4.104   1.678
 1334SOL    HW1 4030   1.093   4.167   1.742
 1334SOL    HW2 4031   1.231   4.135   1.661
 1335SOL     OW 4032   1.160   3.931   1.477
 1335SOL    HW1 4033   1.160   3.995   1.554
 1335SOL    HW2 4034   1.188   3.979   1.394
 1336SOL     OW 4035   0.008   5.050   0.200
 1336SOL    HW1 4036  -0.085   5.071   0.169
 1336SOL    HW2 4037   0.018   4.951   0.213
 1337SOL     OW 4038   1.002   4.520   1.238
 1337SOL    HW1 4039   1.043   4.488   1.324
 1337SOL    HW2 4040   0.906   4.493   1.235
 1338SOL     OW 4041   0.040   4.268   1.114
 1338SOL    HW1 4042   0.125   4.235   1.073
 1338SOL    HW2 4043   0.053   4.283   1.212
 1339SOL     OW 4044   0.189   4.244   1.722
 1339SOL    HW1 4045   0.248   4.204   1.652
 1339SOL    HW2 4046   0.131   4.315   1.681
 1340SOL     OW 4047   1.369   4.674   1.660
 1340SOL    HW1 4048   1.408   4.763   1.680
 1340SOL    HW2 4049   1.379   4.654   1.563
 1341SOL     OW 4050   0.815   4.296   0.325
 1341SOL    HW1 4051   0.822   4.207   0.279
 1341SOL    HW2 4052   0.721   4.330   0.317
 1342SOL     OW 4053   1.657   4.328   1.206
 1342SOL    HW1 4054   1.619   4.259   1.268
 1342SOL    HW2 4055   1.739   4.292   1.162
 1343SOL     OW 4056   0.252   5.288   1.744
 1343SOL    HW1 4057   0.222   5.345   1.820
 1343SOL    HW2 4058   0.245   5.191   1.770
 1344SOL     OW 4059   0.671   4.188   1.269
 1344SOL    HW1 4060   0.637   4.099   1.239
 1344SOL    HW2 4061   0.697   4.242   1.189
 1345SOL     OW 4062   0.473   4.224   0.191
 1345SOL    HW1 4063   0.534   4.304   0.195
 1345SOL    HW2 4064   0.378   4.255   0.198
 1346SOL     OW 4065   0.159   4.861   1.466
 1346SOL    HW1 4066   0.181   4.800   1.542
 1346SOL    HW2 4067   0.169   4.812   1.380
 1347SOL     OW 4068   1.347   4.783   1.234
 1347SOL    HW1 4069   1.371   4.720   1.160
 1347SOL    HW2 4070   1.257   4.823   1.216
 1348SOL     OW 4071   1.302   4.579   0.309
 1348SOL    HW1 4072   1.216   4.548   0.351
 1348SOL    HW2 4073   1.298   4.565   0.210
 1349SOL     OW 4074   0.083   4.982   1.022
 1349SOL    HW1 4075   0.078   4.981   1.122
 1349SOL    HW2 4076   0.000   4.941   0.984
 1350SOL     OW 4077   0.688   5.386   1.716
 1350SOL    HW1 4078   0.632   5.467   1.725
 1350SOL    HW2 4079   0.740   5.390   1.630
 1351SOL     OW 4080   0.903   3.810   0.133
 1351SOL    HW1 4081   0.954   3.811   0.047
 1351SOL    HW2 4082   0.959   3.768   0.204
 1352SOL     OW 4083   1.726   3.859   0.523
 1352SOL    HW1 4084   1.799   3.842   0.456
 1352SOL    HW2 4085   1.695   3.772   0.561
 1353SOL     OW 4086   1.280   4.651   0.672
 1353SOL    HW1 4087   1.340   4.570   0.674
 1353SOL    HW2 4088   1.320   4.720   0.612
 1354SOL     OW 4089   0.830   4.997   1.422
 1354SOL    HW1 4090   0.825   5.030   1.517
 1354SOL    HW2 4091   0.744   5.016   1.376
 1355SOL     OW 4092   1.841   3.899   0.963
 1355SOL    HW1 4093   1.880   3.814   0.927
 1355SOL    HW2 4094   1.743   3.901   0.944
 1356SOL     OW 4095   0.263   4.050   0.720
 1356SOL    HW1 4096   0.184   4.101   0.686
 1356SOL    HW2 4097   0.254   4.035   0.818
 1357SOL     OW 4098   1.194   5.336   0.031
 1357SOL    HW1 4099   1.200   5.243   0.068
 1357SOL    HW2 4100   1.135   5.336  -0.049
 1358SOL     OW 4101   0.822   4.726   1.372
 1358SOL    HW1 4102   0.862   4.725   1.280
 1358SOL    HW2 4103   0.832   4.818   1.412
 1359SOL     OW 4104   0.916   4.634   0.291
 1359SOL    HW1 4105   0.979   4.672   0.223
 1359SOL    HW2 4106   0.956   4.551   0.330
 1360SOL     OW 4107   0.372   5.012   1.490
 1360SOL    HW1 4108   0.359   5.105   1.456
 1360SOL    HW2 4109   0.288   4.960   1.477
 1361SOL     OW 4110   1.614   5.016   1.289
 1361SOL    HW1 4111   1.674   5.019   1.369
 1361SOL    HW2 4112   1.539   5.080   1.302
 1362SOL     OW 4113   1.039   4.822   0.696
 1362SOL    HW1 4114   0.969   4.775   0.750
 1362SOL    HW2 4115   1.098   4.754   0.653
 1363SOL     OW 4116   1.014   3.960   0.971
 1363SOL    HW1 4117   1.006   3.924   0.878
 1363SOL    HW2 4118   1.012   3.884   1.036
 1364SOL     OW 4119   1.709   4.109   1.381
 1364SOL    HW1 4120   1.782   4.178   1.385
 1364SOL    HW2 4121   1.737   4.034   1.322
 1365SOL     OW 4122   0.255   5.072   0.290
 1365SOL    HW1 4123   0.159   5.073   0.263
 1365SOL    HW2 4124   0.267   5.125   0.374
 1366SOL     OW 4125   0.105   4.737   1.726
 1366SOL    HW1 4126   0.028   4.704   1.780
 1366SOL    HW2 4127   0.190   4.707   1.768
 1367SOL     OW 4128   0.672   3.927   1.489
 1367SOL    HW1 4129   0.762   3.911   1.449
 1367SOL    HW2 4130   0.680   3.932   1.588
 1368SOL     OW 4131   0.075   4.069   0.033
 1368SOL    HW1 4132  -0.017   4.041   0.004
 1368SOL    HW2 4133   0.106   4.146  -0.023
 1369SOL     OW 4134   1.440   4.580   1.398
 1369SOL    HW1 4135   1.383   4.632   1.335
 1369SOL    HW2 4136   1.536   4.592   1.374
 1370SOL     OW 4137   0.072   3.890   0.318
 1370SOL    HW1 4138   0.055   3.973   0.264
 1370SOL    HW2 4139   0.162   3.853   0.296
 1371SOL     OW 4140   1.183   5.059   0.119
 1371SOL    HW1 4141   1.084   5.048   0.121
 1371SOL    HW2 4142   1.217   5.074   0.212
 1372SOL     OW 4143   0.613   4.566   1.431
 1372SOL    HW1 4144   0.669   4.647   1.414
 1372SOL    HW2 4145   0.672   4.486   1.434
 1373SOL     OW 4146   0.716   4.289   1.708
 1373SOL    HW1 4147   0.735   4.354   1.782
 1373SOL    HW2 4148   0.776   4.209   1.717
 1374SOL     OW 4149   1.450   4.944   1.633
 1374SOL    HW1 4150   1.441   4.934   1.732
 1374SOL    HW2 4151   1.546   4.937   1.607
 1375SOL     OW 4152   1.674   4.607   1.254
 1375SOL    HW1 4153   1.647   4.518   1.217
 1375SOL    HW2 4154   1.675   4.675   1.181
 1376SOL     OW 4155   1.225   4.049   0.449
 1376SOL    HW1 4156   1.290   3.975   0.438
 1376SOL    HW2 4157   1.245   4.099   0.533
 1377SOL     OW 4158   0.594   4.469   0.652
 1377SOL    HW1 4159   0.644   4.554   0.633
 1377SOL    HW2 4160   0.506   4.471   0.604
 1378SOL     OW 4161   1.777   4.066   1.642
 1378SOL    HW1 4162   1.760   4.097   1.548
 1378SOL    HW2 4163   1.693   4.029   1.680
 1379SOL     OW 4164   1.730   4.658   1.517
 1379SOL    HW1 4165   1.768   4.749   1.532
 1379SOL    HW2 4166   1.722   4.641   1.418
 1380SOL     OW 4167   0.859   5.098   0.016
 1380SOL    HW1 4168   0.813   5.113   0.104
 1380SOL    HW2 4169   0.903   5.183  -0.014
 1381SOL     OW 4170   0.859   4.680   0.861
 1381SOL    HW1 4171   0.913   4.611   0.909
 1381SOL    HW2 4172   0.827   4.749   0.927
 1382SOL     OW 4173   1.083   4.708   0.087
 1382SOL    HW1 4174   1.060   4.761   0.005
 1382SOL    HW2 4175   1.164   4.652   0.068
 1383SOL     OW 4176   0.221   5.038   1.844
 1383SOL    HW1 4177   0.156   4.965   1.823
 1383SOL    HW2 4178   0.225   5.052   1.942
 1384SOL     OW 4179   0.079   4.964   0.653
 1384SOL    HW1 4180   0.078   4.917   0.741
 1384SOL    HW2 4181   0.161   4.936   0.602
 1385SOL     OW 4182   0.672   5.115   1.624
 1385SOL    HW1 4183   0.594   5.065   1.662
 1385SOL    HW2 4184   0.669   5.210   1.655
 1386SOL     OW 4185   1.824   3.916   1.227
 1386SOL    HW1 4186   1.820   3.826   1.271
 1386SOL    HW2 4187   1.827   3.905   1.128
 1387SOL     OW 4188   0.428   4.148   0.520
 1387SOL    HW1 4189   0.458   4.076   0.458
 1387SOL    HW2 4190   0.389   4.108   0.603
 1388SOL     OW 4191   1.705   5.211   1.104
 1388SOL    HW1 4192   1.612   5.186   1.077
 1388SOL    HW2 4193   1.731   5.161   1.186
 1389SOL     OW 4194   0.317   4.271   1.280
 1389SOL    HW1 4195   0.355   4.212   1.352
 1389SOL    HW2 4196   0.357   4.245   1.192
 1390SOL     OW 4197   1.424   3.938   1.112
 1390SOL    HW1 4198   1.476   3.873   1.167
 1390SOL    HW2 4199   1.375   4.001   1.173
 1391SOL     OW 4200   1.001   3.758   1.154
 1391SOL    HW1 4201   0.938   3.686   1.123
 1391SOL    HW2 4202   1.094   3.722   1.154
 1392SOL     OW 4203   0.770   5.054   0.301
 1392SOL    HW1 4204   0.724   4.967   0.318
 1392SOL    HW2 4205   0.861   5.051   0.342
 1393SOL     OW 4206   0.618   5.291   1.284
 1393SOL    HW1 4207   0.613   5.373   1.341
 1393SOL    HW2 4208   0.707   5.288   1.239
 1394SOL     OW 4209   1.352   3.776   0.168
 1394SOL    HW1 4210   1.387   3.735   0.084
 1394SOL    HW2 4211   1.262   3.738   0.188
 1395SOL     OW 4212   1.300   4.177   0.691
 1395SOL    HW1 4213   1.241   4.257   0.695
 1395SOL    HW2 4214   1.315   4.142   0.784
 1396SOL     OW 4215   1.593   3.945   0.882
 1396SOL    HW1 4216   1.509   3.944   0.936
 1396SOL    HW2 4217   1.595   4.028   0.826
 1397SOL     OW 4218   0.039   4.801   0.300
 1397SOL    HW1 4219   0.138   4.790   0.291
 1397SOL    HW2 4220  -0.001   4.715   0.332
 1398SOL     OW 4221   0.230   4.352   1.975
 1398SOL    HW1 4222   0.137   4.350   2.012
 1398SOL    HW2 4223   0.231   4.313   1.883
 1399SOL     OW 4224   0.225   3.999   2.858
 1399SOL    HW1 4225   0.260   3.982   2.950
 1399SOL    HW2 4226   0.137   3.954   2.846
 1400SOL     OW 4227   0.019   4.092   2.509
 1400SOL    HW1 4228  -0.063   4.135   2.548
 1400SOL    HW2 4229  -0.009   4.019   2.446
 1401SOL     OW 4230   0.569   4.999   3.027
 1401SOL    HW1 4231   0.476   4.992   2.990
 1401SOL    HW2 4232   0.580   5.088   3.071
 1402SOL     OW 4233   1.555   5.235   2.565
 1402SOL    HW1 4234   1.498   5.219   2.646
 1402SOL    HW2 4235   1.496   5.245   2.485
 1403SOL     OW 4236   1.135   4.427   2.579
 1403SOL    HW1 4237   1.192   4.505   2.554
 1403SOL    HW2 4238   1.075   4.453   2.655
 1404SOL     OW 4239   1.755   4.331   2.093
 1404SOL    HW1 4240   1.743   4.318   1.994
 1404SOL    HW2 4241   1.725   4.250   2.142
 1405SOL     OW 4242   0.768   4.868   2.885
 1405SOL    HW1 4243   0.690   4.885   2.945
 1405SOL    HW2 4244   0.802   4.955   2.849
 1406SOL     OW 4245   0.850   4.522   3.685
 1406SOL    HW1 4246   0.846   4.598   3.750
 1406SOL    HW2 4247   0.872   4.558   3.594
 1407SOL     OW 4248   0.685   4.736   2.527
 1407SOL    HW1 4249   0.754   4.720   2.597
 1407SOL    HW2 4250   0.612   4.793   2.565
 1408SOL     OW 4251   0.686   4.885   3.665
 1408SOL    HW1 4252   0.746   4.964   3.679
 1408SOL    HW2 4253   0.600   4.916   3.624
 1409SOL     OW 4254   0.335   5.159   2.923
 1409SOL    HW1 4255   0.257   5.128   2.870
 1409SOL    HW2 4256   0.393   5.217   2.866
 1410SOL     OW 4257   1.460   5.229   3.201
 1410SOL    HW1 4258   1.484   5.323   3.227
 1410SOL    HW2 4259   1.444   5.175   3.283
 1411SOL     OW 4260   0.438   4.116   3.361
 1411SOL    HW1 4261   0.520   4.060   3.370
 1411SOL    HW2 4262   0.357   4.058   3.365
 1412SOL     OW 4263   1.603   4.171   2.599
 1412SOL    HW1 4264   1.529   4.217   2.549
 1412SOL    HW2 4265   1.654   4.239   2.652
 1413SOL     OW 4266   1.127   5.065   3.552
 1413SOL    HW1 4267   1.174   5.065   3.640
 1413SOL    HW2 4268   1.079   4.978   3.541
 1414SOL     OW 4269   0.230   5.158   2.400
 1414SOL    HW1 4270   0.204   5.254   2.400
 1414SOL    HW2 4271   0.159   5.104   2.445
 1415SOL     OW 4272   0.240   4.815   2.748
 1415SOL    HW1 4273   0.254   4.731   2.800
 1415SOL    HW2 4274   0.185   4.879   2.803
 1416SOL     OW 4275   0.606   4.688   1.985
 1416SOL    HW1 4276   0.613   4.772   1.931
 1416SOL    HW2 4277   0.652   4.701   2.073
 1417SOL     OW 4278   1.594   3.838   3.342
 1417SOL    HW1 4279   1.576   3.905   3.270
 1417SOL    HW2 4280   1.591   3.884   3.431
 1418SOL     OW 4281   0.122   4.367   2.425
 1418SOL    HW1 4282   0.077   4.279   2.442
 1418SOL    HW2 4283   0.121   4.421   2.509
 1419SOL     OW 4284   0.027   5.320   1.979
 1419SOL    HW1 4285   0.008   5.224   2.000
 1419SOL    HW2 4286  -0.006   5.378   2.054
 1420SOL     OW 4287   1.689   4.646   2.474
 1420SOL    HW1 4288   1.784   4.617   2.482
 1420SOL    HW2 4289   1.681   4.711   2.399
 1421SOL     OW 4290   1.641   4.832   2.294
 1421SOL    HW1 4291   1.727   4.834   2.242
 1421SOL    HW2 4292   1.655   4.879   2.382
 1422SOL     OW 4293   0.113   4.461   3.459
 1422SOL    HW1 4294   0.201   4.448   3.504
 1422SOL    HW2 4295   0.100   4.558   3.437
 1423SOL     OW 4296   0.613   5.089   2.588
 1423SOL    HW1 4297   0.564   5.002   2.597
 1423SOL    HW2 4298   0.590   5.132   2.501
 1424SOL     OW 4299   1.293   4.952   3.285
 1424SOL    HW1 4300   1.330   4.879   3.227
 1424SOL    HW2 4301   1.345   4.957   3.370
 1425SOL     OW 4302   0.809   3.728   2.364
 1425SOL    HW1 4303   0.849   3.819   2.355
 1425SOL    HW2 4304   0.709   3.736   2.370
 1426SOL     OW 4305   0.197   4.700   3.126
 1426SOL    HW1 4306   0.286   4.655   3.112
 1426SOL    HW2 4307   0.124   4.635   3.107
 1427SOL     OW 4308   1.525   4.723   2.052
 1427SOL    HW1 4309   1.462   4.647   2.065
 1427SOL    HW2 4310   1.573   4.741   2.138
 1428SOL     OW 4311   0.317   3.975   3.663
 1428SOL    HW1 4312   0.388   4.046   3.669
 1428SOL    HW2 4313   0.229   4.014   3.691
 1429SOL     OW 4314   1.466   5.141   2.815
 1429SOL    HW1 4315   1.407   5.147   2.895
 1429SOL    HW2 4316   1.451   5.053   2.769
 1430SOL     OW 4317   0.598   4.453   2.132
 1430SOL    HW1 4318   0.622   4.522   2.064
 1430SOL    HW2 4319   0.520   4.486   2.186
 1431SOL     OW 4320   1.281   4.069   2.806
 1431SOL    HW1 4321   1.195   4.019   2.793
 1431SOL    HW2 4322   1.343   4.015   2.862
 1432SOL     OW 4323   1.576   5.386   2.169
 1432SOL    HW1 4324   1.665   5.432   2.172
 1432SOL    HW2 4325   1.555   5.362   2.074
 1433SOL     OW 4326   0.807   4.329   3.327
 1433SOL    HW1 4327   0.760   4.326   3.416
 1433SOL    HW2 4328   0.756   4.274   3.261
 1434SOL     OW 4329   1.394   4.193   3.536
 1434SOL    HW1 4330   1.374   4.236   3.624
 1434SOL    HW2 4331   1.472   4.131   3.545
 1435SOL     OW 4332   0.973   4.614   3.434
 1435SOL    HW1 4333   1.019   4.530   3.405
 1435SOL    HW2 4334   0.917   4.648   3.359
 1436SOL     OW 4335   0.991   4.134   3.104
 1436SOL    HW1 4336   0.914   4.168   3.158
 1436SOL    HW2 4337   0.957   4.083   3.025
 1437SOL     OW 4338   1.041   4.425   2.291
 1437SOL    HW1 4339   1.067   4.421   2.387
 1437SOL    HW2 4340   0.956   4.374   2.277
 1438SOL     OW 4341   0.076   4.535   2.651
 1438SOL    HW1 4342   0.175   4.523   2.660
 1438SOL    HW2 4343   0.052   4.630   2.672
 1439SOL     OW 4344   0.865   4.072   2.057
 1439SOL    HW1 4345   0.924   4.135   2.008
 1439SOL    HW2 4346   0.884   3.978   2.028
 1440SOL     OW 4347   1.719   4.309   3.693
 1440SOL    HW1 4348   1.693   4.398   3.657
 1440SOL    HW2 4349   1.717   4.241   3.620
 1441SOL     OW 4350   1.362   4.868   2.407
 1441SOL    HW1 4351   1.445   4.839   2.359
 1441SOL    HW2 4352   1.313   4.935   2.351
 1442SOL     OW 4353   0.550   3.920   2.747
 1442SOL    HW1 4354   0.545   3.915   2.847
 1442SOL    HW2 4355   0.552   4.016   2.718
 1443SOL     OW 4356   1.008   5.180   2.339
 1443SOL    HW1 4357   0.962   5.252   2.287
 1443SOL    HW2 4358   1.004   5.200   2.437
 1444SOL     OW 4359   1.795   4.790   2.735
 1444SOL    HW1 4360   1.733   4.775   2.659
 1444SOL    HW2 4361   1.743   4.801   2.820
 1445SOL     OW 4362   1.227   5.274   3.368
 1445SOL    HW1 4363   1.233   5.197   3.432
 1445SOL    HW2 4364   1.175   5.248   3.288
 1446SOL     OW 4365   0.321   4.667   2.104
 1446SOL    HW1 4366   0.403   4.706   2.062
 1446SOL    HW2 4367   0.294   4.585   2.055
 1447SOL     OW 4368   1.458   4.459   2.590
 1447SOL    HW1 4369   1.453   4.394   2.665
 1447SOL    HW2 4370   1.538   4.518   2.603
 1448SOL     OW 4371   0.461   4.990   3.589
 1448SOL    HW1 4372   0.411   4.991   3.503
 1448SOL    HW2 4373   0.398   4.972   3.665
 1449SOL     OW 4374   1.111   5.500   2.099
 1449SOL    HW1 4375   1.051   5.438   2.149
 1449SOL    HW2 4376   1.142   5.456   2.014
 1450SOL     OW 4377   0.202   4.009   3.360
 1450SOL    HW1 4378   0.122   4.069   3.347
 1450SOL    HW2 4379   0.192   3.960   3.446
 1451SOL     OW 4380   1.632   5.101   1.943
 1451SOL    HW1 4381   1.600   5.195   1.933
 1451SOL    HW2 4382   1.556   5.038   1.931
 1452SOL     OW 4383   1.400   3.831   2.288
 1452SOL    HW1 4384   1.376   3.794   2.198
 1452SOL    HW2 4385   1.499   3.847   2.292
 1453SOL     OW 4386   0.382   4.424   2.342
 1453SOL    HW1 4387   0.427   4.334   2.339
 1453SOL    HW2 4388   0.288   4.413   2.375
 1454SOL     OW 4389   1.547   3.946   3.591
 1454SOL    HW1 4390   1.542   3.983   3.683
 1454SOL    HW2 4391   1.475   3.877   3.579
 1455SOL     OW 4392   0.614   3.846   1.979
 1455SOL    HW1 4393   0.712   3.824   1.986
 1455SOL    HW2 4394   0.583   3.829   1.886
 1456SOL     OW 4395   0.781   3.988   3.611
 1456SOL    HW1 4396   0.848   3.927   3.654
 1456SOL    HW2 4397   0.708   4.007   3.676
 1457SOL     OW 4398   1.351   4.314   3.295
 1457SOL    HW1 4399   1.379   4.271   3.380
 1457SOL    HW2 4400   1.376   4.410   3.296
 1458SOL     OW 4401   0.803   5.126   2.786
 1458SOL    HW1 4402   0.893   5.140   2.744
 1458SOL    HW2 4403   0.732   5.128   2.715
 1459SOL     OW 4404   0.922   4.227   2.761
 1459SOL    HW1 4405   0.897   4.218   2.665
 1459SOL    HW2 4406   0.970   4.145   2.792
 1460SOL     OW 4407   0.539   3.788   2.374
 1460SOL    HW1 4408   0.458   3.789   2.432
 1460SOL    HW2 4409   0.542   3.871   2.319
 1461SOL     OW 4410   1.434   4.912   1.903
 1461SOL    HW1 4411   1.466   4.836   1.960
 1461SOL    HW2 4412   1.342   4.939   1.933
 1462SOL     OW 4413   0.297   3.759   2.033
 1462SOL    HW1 4414   0.346   3.843   2.012
 1462SOL    HW2 4415   0.359   3.694   2.078
 1463SOL     OW 4416   0.935   3.960   2.342
 1463SOL    HW1 4417   0.887   4.001   2.264
 1463SOL    HW2 4418   1.034   3.958   2.323
 1464SOL     OW 4419   1.076   4.407   3.326
 1464SOL    HW1 4420   0.996   4.346   3.329
 1464SOL    HW2 4421   1.157   4.354   3.302
 1465SOL     OW 4422   1.227   5.294   2.655
 1465SOL    HW1 4423   1.248   5.368   2.590
 1465SOL    HW2 4424   1.295   5.294   2.728
 1466SOL     OW 4425   0.459   4.876   2.603
 1466SOL    HW1 4426   0.388   4.849   2.668
 1466SOL    HW2 4427   0.433   4.848   2.510
 1467SOL     OW 4428   1.032   4.273   1.878
 1467SOL    HW1 4429   0.991   4.355   1.839
 1467SOL    HW2 4430   1.096   4.299   1.951
 1468SOL     OW 4431   0.078   4.280   3.248
 1468SOL    HW1 4432   0.170   4.279   3.207
 1468SOL    HW2 4433   0.072   4.354   3.315
 1469SOL     OW 4434   0.561   3.946   3.009
 1469SOL    HW1 4435   0.599   3.862   3.046
 1469SOL    HW2 4436   0.473   3.965   3.053
 1470SOL     OW 4437   0.866   4.178   2.504
 1470SOL    HW1 4438   0.834   4.250   2.442
 1470SOL    HW2 4439   0.890   4.097   2.451
 1471SOL     OW 4440   1.017   3.763   2.615
 1471SOL    HW1 4441   0.945   3.768   2.546
 1471SOL    HW2 4442   0.993   3.694   2.684
 1472SOL     OW 4443   1.429   4.897   2.729
 1472SOL    HW1 4444   1.374   4.813   2.722
 1472SOL    HW2 4445   1.455   4.926   2.637
 1473SOL     OW 4446   1.466   4.314   2.854
 1473SOL    HW1 4447   1.436   4.219   2.861
 1473SOL    HW2 4448   1.539   4.330   2.920
 1474SOL     OW 4449   1.857   4.557   2.239
 1474SOL    HW1 4450   1.899   4.493   2.303
 1474SOL    HW2 4451   1.819   4.506   2.161
 1475SOL     OW 4452   0.488   5.109   2.036
 1475SOL    HW1 4453   0.401   5.094   2.083
 1475SOL    HW2 4454   0.471   5.135   1.941
 1476SOL     OW 4455   1.664   5.004   2.519
 1476SOL    HW1 4456   1.763   5.012   2.533
 1476SOL    HW2 4457   1.619   5.088   2.550
 1477SOL     OW 4458   1.390   4.299   1.940
 1477SOL    HW1 4459   1.336   4.278   2.021
 1477SOL    HW2 4460   1.481   4.258   1.949
 1478SOL     OW 4461   0.527   3.980   2.190
 1478SOL    HW1 4462   0.554   3.921   2.115
 1478SOL    HW2 4463   0.527   4.075   2.159
 1479SOL     OW 4464   1.754   4.947   3.450
 1479SOL    HW1 4465   1.845   4.908   3.437
 1479SOL    HW2 4466   1.762   5.043   3.474
 1480SOL     OW 4467   1.064   5.071   3.202
 1480SOL    HW1 4468   0.984   5.048   3.257
 1480SOL    HW2 4469   1.147   5.045   3.251
 1481SOL     OW 4470   1.111   4.919   2.962
 1481SOL    HW1 4471   1.071   4.963   3.043
 1481SOL    HW2 4472   1.070   4.956   2.879
 1482SOL     OW 4473   1.638   4.823   2.941
 1482SOL    HW1 4474   1.643   4.904   3.000
 1482SOL    HW2 4475   1.552   4.825   2.890
 1483SOL     OW 4476   0.915   3.813   3.264
 1483SOL    HW1 4477   0.940   3.793   3.169
 1483SOL    HW2 4478   0.987   3.869   3.306
 1484SOL     OW 4479   0.980   4.840   3.581
 1484SOL    HW1 4480   0.881   4.846   3.591
 1484SOL    HW2 4481   1.003   4.760   3.525
 1485SOL     OW 4482   0.705   4.774   2.230
 1485SOL    HW1 4483   0.691   4.781   2.329
 1485SOL    HW2 4484   0.789   4.723   2.212
 1486SOL     OW 4485   0.410   4.537   3.113
 1486SOL    HW1 4486   0.496   4.549   3.163
 1486SOL    HW2 4487   0.368   4.450   3.140
 1487SOL     OW 4488   1.274   4.110   3.124
 1487SOL    HW1 4489   1.295   4.184   3.188
 1487SOL    HW2 4490   1.185   4.127   3.081
 1488SOL     OW 4491   0.064   5.288   3.193
 1488SOL    HW1 4492   0.018   5.370   3.159
 1488SOL    HW2 4493   0.162   5.307   3.202
 1489SOL     OW 4494   0.367   4.824   2.363
 1489SOL    HW1 4495   0.360   4.907   2.307
 1489SOL    HW2 4496   0.371   4.744   2.303
 1490SOL     OW 4497   0.566   4.261   2.727
 1490SOL    HW1 4498   0.578   4.327   2.653
 1490SOL    HW2 4499   0.612   4.295   2.810
 1491SOL     OW 4500   1.252   5.072   2.250
 1491SOL    HW1 4501   1.302   5.149   2.290
 1491SOL    HW2 4502   1.157   5.074   2.282
 1492SOL     OW 4503   1.272   5.169   3.004
 1492SOL    HW1 4504   1.319   5.182   3.091
 1492SOL    HW2 4505   1.206   5.095   3.013
 1493SOL     OW 4506   1.582   4.363   2.334
 1493SOL    HW1 4507   1.551   4.424   2.407
 1493SOL    HW2 4508   1.632   4.415   2.265
 1494SOL     OW 4509   0.354   5.234   3.191
 1494SOL    HW1 4510   0.333   5.190   3.104
 1494SOL    HW2 4511   0.451   5.260   3.194
 1495SOL     OW 4512   0.402   4.475   3.460
 1495SOL    HW1 4513   0.470   4.530   3.413
 1495SOL    HW2 4514   0.442   4.387   3.487
 1496SOL     OW 4515   1.587   4.503   3.532
 1496SOL    HW1 4516   1.495   4.541   3.527
 1496SOL    HW2 4517   1.647   4.550   3.467
 1497SOL     OW 4518   1.013   3.829   3.632
 1497SOL    HW1 4519   1.019   3.914   3.580
 1497SOL    HW2 4520   1.045   3.753   3.575
 1498SOL     OW 4521   0.504   3.774   3.602
 1498SOL    HW1 4522   0.462   3.717   3.532
 1498SOL    HW2 4523   0.438   3.843   3.634
 1499SOL     OW 4524   0.573   4.594   2.891
 1499SOL    HW1 4525   0.617   4.683   2.882
 1499SOL    HW2 4526   0.510   4.594   2.968
 1500SOL     OW 4527   1.360   4.586   2.907
 1500SOL    HW1 4528   1.285   4.586   2.841
 1500SOL    HW2 4529   1.397   4.494   2.916
 1501SOL     OW 4530   1.209   4.249   2.137
 1501SOL    HW1 4531   1.222   4.165   2.191
 1501SOL    HW2 4532   1.180   4.323   2.197
 1502SOL     OW 4533   0.307   3.937   3.093
 1502SOL    HW1 4534   0.284   3.974   3.183
 1502SOL    HW2 4535   0.277   3.842   3.087
 1503SOL     OW 4536   0.037   5.034   3.144
 1503SOL    HW1 4537   0.090   4.985   3.212
 1503SOL    HW2 4538   0.059   5.132   3.149
 1504SOL     OW 4539   0.732   4.358   2.926
 1504SOL    HW1 4540   0.791   4.332   2.850
 1504SOL    HW2 4541   0.704   4.454   2.915
 1505SOL     OW 4542   1.728   4.659   3.716
 1505SOL    HW1 4543   1.682   4.652   3.627
 1505SOL    HW2 4544   1.666   4.703   3.782
 1506SOL     OW 4545   0.307   3.787   2.480
 1506SOL    HW1 4546   0.296   3.881   2.513
 1506SOL    HW2 4547   0.302   3.724   2.557
 1507SOL     OW 4548   1.622   4.091   2.236
 1507SOL    HW1 4549   1.624   4.015   2.300
 1507SOL    HW2 4550   1.574   4.168   2.276
 1508SOL     OW 4551   1.023   4.490   2.828
 1508SOL    HW1 4552   1.038   4.511   2.924
 1508SOL    HW2 4553   0.993   4.395   2.819
 1509SOL     OW 4554   1.859   5.242   3.467
 1509SOL    HW1 4555   1.873   5.269   3.372
 1509SOL    HW2 4556   1.942   5.264   3.520
 1510SOL     OW 4557   0.350   4.622   3.666
 1510SOL    HW1 4558   0.426   4.666   3.714
 1510SOL    HW2 4559   0.385   4.575   3.584
 1511SOL     OW 4560   1.540   3.998   1.987
 1511SOL    HW1 4561   1.479   3.923   2.010
 1511SOL    HW2 4562   1.562   4.050   2.070
 1512SOL     OW 4563   1.303   4.562   1.904
 1512SOL    HW1 4564   1.337   4.469   1.919
 1512SOL    HW2 4565   1.321   4.589   1.809
 1513SOL     OW 4566   1.068   5.057   2.711
 1513SOL    HW1 4567   1.075   4.973   2.656
 1513SOL    HW2 4568   1.130   5.126   2.675
 1514SOL     OW 4569   0.319   4.534   2.811
 1514SOL    HW1 4570   0.412   4.570   2.816
 1514SOL    HW2 4571   0.313   4.449   2.863
 1515SOL     OW 4572   0.339   4.233   2.868
 1515SOL    HW1 4573   0.287   4.150   2.851
 1515SOL    HW2 4574   0.416   4.238   2.804
 1516SOL     OW 4575   1.138   4.104   3.540
 1516SOL    HW1 4576   1.093   4.167   3.604
 1516SOL    HW2 4577   1.231   4.135   3.523
 1517SOL     OW 4578   1.160   3.931   3.339
 1517SOL    HW1 4579   1.160   3.995   3.416
 1517SOL    HW2 4580   1.188   3.979   3.256
 1518SOL     OW 4581   0.008   5.050   2.062
 1518SOL    HW1 4582  -0.085   5.071   2.031
 1518SOL    HW2 4583   0.018   4.951   2.075
 1519SOL     OW 4584   1.002   4.520   3.100
 1519SOL    HW1 4585   1.043   4.488   3.186
 1519SOL    HW2 4586   0.906   4.493   3.097
 1520SOL     OW 4587   0.040   4.268   2.976
 1520SOL    HW1 4588   0.125   4.235   2.935
 1520SOL    HW2 4589   0.053   4.283   3.074
 1521SOL     OW 4590   0.189   4.244   3.584
 1521SOL    HW1 4591   0.248   4.204   3.514
 1521SOL    HW2 4592   0.131   4.315   3.543
 1522SOL     OW 4593   1.369   4.674   3.522
 1522SOL    HW1 4594   1.408   4.763   3.542
 1522SOL    HW2 4595   1.379   4.654   3.425
 1523SOL     OW 4596   0.815   4.296   2.187
 1523SOL    HW1 4597   0.822   4.207   2.141
 1523SOL    HW2 4598   0.721   4.330   2.179
 1524SOL     OW 4599   1.657   4.328   3.068
 1524SOL    HW1 4600   1.619   4.259   3.130
 1524SOL    HW2 4601   1.739   4.292   3.024
 1525SOL     OW 4602   0.252   5.288   3.606
 1525SOL    HW1 4603   0.222   5.345   3.682
 1525SOL    HW2 4604   0.245   5.191   3.632
 1526SOL     OW 4605   0.671   4.188   3.131
 1526SOL    HW1 4606   0.637   4.099   3.101
 1526SOL    HW2 4607   0.697   4.242   3.051
 1527SOL     OW 4608   0.473   4.224   2.053
 1527SOL    HW1 4609   0.534   4.304   2.057
 1527SOL    HW2 4610   0.378   4.255   2.060
 1528SOL     OW 4611   0.159   4.861   3.328
 1528SOL    HW1 4612   0.181   4.800   3.404
 1528SOL    HW2 4613   0.169   4.812   3.242
 1529SOL     OW 4614   1.347   4.783   3.096
 1529SOL    HW1 4615   1.371   4.720   3.022
 1529SOL    HW2 4616   1.257   4.823   3.078
 1530SOL     OW 4617   1.302   4.579   2.171
 1530SOL    HW1 4618   1.216   4.548   2.213
 1530SOL    HW2 4619   1.298   4.565   2.072
 1531SOL     OW 4620   0.083   4.982   2.884
 1531SOL    HW1 4621   0.078   4.981   2.984
 1531SOL    HW2 4622   0.000   4.941   2.846
 1532SOL     OW 4623   0.688   5.386   3.578
 1532SOL    HW1 4624   0.632   5.467   3.587
 1532SOL    HW2 4625   0.740   5.390   3.492
 1533SOL     OW 4626   1.726   3.859   2.385
 1533SOL    HW1 4627   1.799   3.842   2.318
 1533SOL    HW2 4628   1.695   3.772   2.423
 1534SOL     OW 4629   1.280   4.651   2.534
 1534SOL    HW1 4630   1.340   4.570   2.536
 1534SOL    HW2 4631   1.320   4.720   2.474
 1535SOL     OW 4632   0.830   4.997   3.284
 1535SOL    HW1 4633   0.825   5.030   3.379
 1535SOL    HW2 4634   0.744   5.016   3.238
 1536SOL     OW 4635   1.841   3.899   2.825
 1536SOL    HW1 4636   1.880   3.814   2.789
 1536SOL    HW2 4637   1.743   3.901   2.806
 1537SOL     OW 4638   0.263   4.050   2.582
 1537SOL    HW1 4639   0.184   4.101   2.548
 1537SOL    HW2 4640   0.254   4.035   2.680
 1538SOL     OW 4641   0.822   4.726   3.234
 1538SOL    HW1 4642   0.862   4.725   3.142
 1538SOL    HW2 4643   0.832   4.818   3.274
 1539SOL     OW 4644   0.916   4.634   2.153
 1539SOL    HW1 4645   0.979   4.672   2.085
 1539SOL    HW2 4646   0.956   4.551   2.192
 1540SOL     OW 4647   0.372   5.012   3.352
 1540SOL    HW1 4648   0.359   5.105   3.318
 1540SOL    HW2 4649   0.288   4.960   3.339
 1541SOL     OW 4650   1.614   5.016   3.151
 1541SOL    HW1 4651   1.674   5.019   3.231
 1541SOL    HW2 4652   1.539   5.080   3.164
 1542SOL     OW 4653   1.039   4.822   2.558
 1542SOL    HW1 4654   0.969   4.775   2.612
 1542SOL    HW2 4655   1.098   4.754   2.515
 1543SOL     OW 4656   1.014   3.960   2.833
 1543SOL    HW1 4657   1.006   3.924   2.740
 1543SOL    HW2 4658   1.012   3.884   2.898
 1544SOL     OW 4659   1.709   4.109   3.243
 1544SOL    HW1 4660   1.782   4.178   3.247
 1544SOL    HW2 4661   1.737   4.034   3.184
 1545SOL     OW 4662   0.255   5.072   2.152
 1545SOL    HW1 4663   0.159   5.073   2.125
 1545SOL    HW2 4664   0.267   5.125   2.236
 1546SOL     OW 4665   0.105   4.737   3.588
 1546SOL    HW1 4666   0.028   4.704   3.642
 1546SOL    HW2 4667   0.190   4.707   3.630
 1547SOL     OW 4668   0.672   3.927   3.351
 1547SOL    HW1 4669   0.762   3.911   3.311
 1547SOL    HW2 4670   0.680   3.932   3.450
 1548SOL     OW 4671   0.075   4.069   1.895
 1548SOL    HW1 4672  -0.017   4.041   1.866
 1548SOL    HW2 4673   0.106   4.146   1.839
 1549SOL     OW 4674   1.440   4.580   3.260
 1549SOL    HW1 4675   1.383   4.632   3.197
 1549SOL    HW2 4676   1.536   4.592   3.236
 1550SOL     OW 4677   0.072   3.890   2.180
 1550SOL    HW1 4678   0.055   3.973   2.126
 1550SOL    HW2 4679   0.162   3.853   2.158
 1551SOL     OW 4680   1.183   5.059   1.981
 1551SOL    HW1 4681   1.084   5.048   1.983
 1551SOL    HW2 4682   1.217   5.074   2.074
 1552SOL     OW 4683   0.613   4.566   3.293
 1552SOL    HW1 4684   0.669   4.647   3.276
 1552SOL    HW2 4685   0.672   4.486   3.296
 1553SOL     OW 4686   0.716   4.289   3.570
 1553SOL    HW1 4687   0.735   4.354   3.644
 1553SOL    HW2 4688   0.776   4.209   3.579
 1554SOL     OW 4689   1.450   4.944   3.495
 1554SOL    HW1 4690   1.441   4.934   3.594
 1554SOL    HW2 4691   1.546   4.937   3.469
 1555SOL     OW 4692   1.674   4.607   3.116
 1555SOL    HW1 4693   1.647   4.518   3.079
 1555SOL    HW2 4694   1.675   4.675   3.043
 1556SOL     OW 4695   1.225   4.049   2.311
 1556SOL    HW1 4696   1.290   3.975   2.300
 1556SOL    HW2 4697   1.245   4.099   2.395
 1557SOL     OW 4698   0.594   4.469   2.514
 1557SOL    HW1 4699   0.644   4.554   2.495
 1557SOL    HW2 4700   0.506   4.471   2.466
 1558SOL     OW 4701   1.777   4.066   3.504
 1558SOL    HW1 4702   1.760   4.097   3.410
 1558SOL    HW2 4703   1.693   4.029   3.542
 1559SOL     OW 4704   1.730   4.658   3.379
 1559SOL    HW1 4705   1.768   4.749   3.394
 1559SOL    HW2 4706   1.722   4.641   3.280
 1560SOL     OW 4707   0.859   5.098   1.878
 1560SOL    HW1 4708   0.813   5.113   1.966
 1560SOL    HW2 4709   0.903   5.183   1.848
 1561SOL     OW 4710   0.859   4.680   2.723
 1561SOL    HW1 4711   0.913   4.611   2.771
 1561SOL    HW2 4712   0.827   4.749   2.789
 1562SOL     OW 4713   1.083   4.708   1.949
 1562SOL    HW1 4714   1.060   4.761   1.867
 1562SOL    HW2 4715   1.164   4.652   1.930
 1563SOL     OW 4716   0.221   5.038   3.706
 1563SOL    HW1 4717   0.156   4.965   3.685
 1563SOL    HW2 4718   0.225   5.052   3.804
 1564SOL     OW 4719   0.079   4.964   2.515
 1564SOL    HW1 4720   0.078   4.917   2.603
 1564SOL    HW2 4721   0.161   4.936   2.464
 1565SOL     OW 4722   0.672   5.115   3.486
 1565SOL    HW1 4723   0.594   5.065   3.524
 1565SOL    HW2 4724   0.669   5.210   3.517
 1566SOL     OW 4725   1.824   3.916   3.089
 1566SOL    HW1 4726   1.820   3.826   3.133
 1566SOL    HW2 4727   1.827   3.905   2.990
 1567SOL     OW 4728   0.428   4.148   2.382
 1567SOL    HW1 4729   0.458   4.076   2.320
 1567SOL    HW2 4730   0.389   4.108   2.465
 1568SOL     OW 4731   1.705   5.211   2.966
 1568SOL    HW1 4732   1.612   5.186   2.939
 1568SOL    HW2 4733   1.731   5.161   3.048
 1569SOL     OW 4734   0.317   4.271   3.142
 1569SOL    HW1 4735   0.355   4.212   3.214
 1569SOL    HW2 4736   0.357   4.245   3.054
 1570SOL     OW 4737   1.424   3.938   2.974
 1570SOL    HW1 4738   1.476   3.873   3.029
 1570SOL    HW2 4739   1.375   4.001   3.035
 1571SOL     OW 4740   1.001   3.758   3.016
 1571SOL    HW1 4741   0.938   3.686   2.985
 1571SOL    HW2 4742   1.094   3.722   3.016
 1572SOL     OW 4743   0.770   5.054   2.163
 1572SOL    HW1 4744   0.724   4.967   2.180
 1572SOL    HW2 4745   0.861   5.051   2.204
 1573SOL     OW 4746   0.618   5.291   3.146
 1573SOL    HW1 4747   0.613   5.373   3.203
 1573SOL    HW2 4748   0.707   5.288   3.101
 1574SOL     OW 4749   1.352   3.776   2.030
 1574SOL    HW1 4750   1.387   3.735   1.946
 1574SOL    HW2 4751   1.262   3.738   2.050
 1575SOL     OW 4752   1.300   4.177   2.553
 1575SOL    HW1 4753   1.241   4.257   2.557
 1575SOL    HW2 4754   1.315   4.142   2.646
 1576SOL     OW 4755   1.593   3.945   2.744
 1576SOL    HW1 4756   1.509   3.944   2.798
 1576SOL    HW2 4757   1.595   4.028   2.688
 1577SOL     OW 4758   0.039   4.801   2.162
 1577SOL    HW1 4759   0.138   4.790   2.153
 1577SOL    HW2 4760  -0.001   4.715   2.194
 1578SOL     OW 4761   0.230   4.352   3.837
 1578SOL    HW1 4762   0.137   4.350   3.874
 1578SOL    HW2 4763   0.231   4.313   3.745
 1579SOL     OW 4764   0.225   3.999   4.720
 1579SOL    HW1 4765   0.260   3.982   4.812
 1579SOL    HW2 4766   0.137   3.954   4.708
 1580SOL     OW 4767   0.019   4.092   4.371
 1580SOL    HW1 4768  -0.063   4.135   4.410
 1580SOL    HW2 4769  -0.009   4.019   4.308
 1581SOL     OW 4770   0.569   4.999   4.889
 1581SOL    HW1 4771   0.476   4.992   4.852
 1581SOL    HW2 4772   0.580   5.088   4.933
 1582SOL     OW 4773   1.555   5.235   4.427
 1582SOL    HW1 4774   1.498   5.219   4.508
 1582SOL    HW2 4775   1.496   5.245   4.347
 1583SOL     OW 4776   1.135   4.427   4.441
 1583SOL    HW1 4777   1.192   4.505   4.416
 1583SOL    HW2 4778   1.075   4.453   4.517
 1584SOL     OW 4779   1.755   4.331   3.955
 1584SOL    HW1 4780   1.743   4.318   3.856
 1584SOL    HW2 4781   1.725   4.250   4.004
 1585SOL     OW 4782   0.768   4.868   4.747
 1585SOL    HW1 4783   0.690   4.885   4.807
 1585SOL    HW2 4784   0.802   4.955   4.711
 1586SOL     OW 4785   0.685   4.736   4.389
 1586SOL    HW1 4786   0.754   4.720   4.459
 1586SOL    HW2 4787   0.612   4.793   4.427
 1587SOL     OW 4788   0.335   5.159   4.785
 1587SOL    HW1 4789   0.257   5.128   4.732
 1587SOL    HW2 4790   0.393   5.217   4.728
 1588SOL     OW 4791   1.460   5.229   5.063
 1588SOL    HW1 4792   1.484   5.323   5.089
 1588SOL    HW2 4793   1.444   5.175   5.145
 1589SOL     OW 4794   0.438   4.116   5.223
 1589SOL    HW1 4795   0.520   4.060   5.232
 1589SOL    HW2 4796   0.357   4.058   5.227
 1590SOL     OW 4797   1.603   4.171   4.461
 1590SOL    HW1 4798   1.529   4.217   4.411
 1590SOL    HW2 4799   1.654   4.239   4.514
 1591SOL     OW 4800   0.230   5.158   4.262
 1591SOL    HW1 4801   0.204   5.254   4.262
 1591SOL    HW2 4802   0.159   5.104   4.307
 1592SOL     OW 4803   0.240   4.815   4.610
 1592SOL    HW1 4804   0.254   4.731   4.662
 1592SOL    HW2 4805   0.185   4.879   4.665
 1593SOL     OW 4806   0.606   4.688   3.847
 1593SOL    HW1 4807   0.613   4.772   3.793
 1593SOL    HW2 4808   0.652   4.701   3.935
 1594SOL     OW 4809   1.594   3.838   5.204
 1594SOL    HW1 4810   1.576   3.905   5.132
 1594SOL    HW2 4811   1.591   3.884   5.293
 1595SOL     OW 4812   0.122   4.367   4.287
 1595SOL    HW1 4813   0.077   4.279   4.304
 1595SOL    HW2 4814   0.121   4.421   4.371
 1596SOL     OW 4815   0.027   5.320   3.841
 1596SOL    HW1 4816   0.008   5.224   3.862
 1596SOL    HW2 4817  -0.006   5.378   3.916
 1597SOL     OW 4818   1.689   4.646   4.336
 1597SOL    HW1 4819   1.784   4.617   4.344
 1597SOL    HW2 4820   1.681   4.711   4.261
 1598SOL     OW 4821   1.641   4.832   4.156
 1598SOL    HW1 4822   1.727   4.834   4.104
 1598SOL    HW2 4823   1.655   4.879   4.244
 1599SOL     OW 4824   0.613   5.089   4.450
 1599SOL    HW1 4825   0.564   5.002   4.459
 1599SOL    HW2 4826   0.590   5.132   4.363
 1600SOL     OW 4827   1.293   4.952   5.147
 1600SOL    HW1 4828   1.330   4.879   5.089
 1600SOL    HW2 4829   1.345   4.957   5.232
 1601SOL     OW 4830   0.809   3.728   4.226
 1601SOL    HW1 4831   0.849   3.819   4.217
 1601SOL    HW2 4832   0.709   3.736   4.232
 1602SOL     OW 4833   0.197   4.700   4.988
 1602SOL    HW1 4834   0.286   4.655   4.974
 1602SOL    HW2 4835   0.124   4.635   4.969
 1603SOL     OW 4836   1.525   4.723   3.914
 1603SOL    HW1 4837   1.462   4.647   3.927
 1603SOL    HW2 4838   1.573   4.741   4.000
 1604SOL     OW 4839   1.466   5.141   4.677
 1604SOL    HW1 4840   1.407   5.147   4.757
 1604SOL    HW2 4841   1.451   5.053   4.631
 1605SOL     OW 4842   0.598   4.453   3.994
 1605SOL    HW1 4843   0.622   4.522   3.926
 1605SOL    HW2 4844   0.520   4.486   4.048
 1606SOL     OW 4845   1.281   4.069   4.668
 1606SOL    HW1 4846   1.195   4.019   4.655
 1606SOL    HW2 4847   1.343   4.015   4.724
 1607SOL     OW 4848   1.576   5.386   4.031
 1607SOL    HW1 4849   1.665   5.432   4.034
 1607SOL    HW2 4850   1.555   5.362   3.936
 1608SOL     OW 4851   0.807   4.329   5.189
 1608SOL    HW1 4852   0.760   4.326   5.278
 1608SOL    HW2 4853   0.756   4.274   5.123
 1609SOL     OW 4854   0.973   4.614   5.296
 1609SOL    HW1 4855   1.019   4.530   5.267
 1609SOL    HW2 4856   0.917   4.648   5.221
 1610SOL     OW 4857   0.991   4.134   4.966
 1610SOL    HW1 4858   0.914   4.168   5.020
 1610SOL    HW2 4859   0.957   4.083   4.887
 1611SOL     OW 4860   1.041   4.425   4.153
 1611SOL    HW1 4861   1.067   4.421   4.249
 1611SOL    HW2 4862   0.956   4.374   4.139
 1612SOL     OW 4863   0.076   4.535   4.513
 1612SOL    HW1 4864   0.175   4.523   4.522
 1612SOL    HW2 4865   0.052   4.630   4.534
 1613SOL     OW 4866   0.865   4.072   3.919
 1613SOL    HW1 4867   0.924   4.135   3.870
 1613SOL    HW2 4868   0.884   3.978   3.890
 1614SOL     OW 4869   1.362   4.868   4.269
 1614SOL    HW1 4870   1.445   4.839   4.221
 1614SOL    HW2 4871   1.313   4.935   4.213
 1615SOL     OW 4872   0.550   3.920   4.609
 1615SOL    HW1 4873   0.545   3.915   4.709
 1615SOL    HW2 4874   0.552   4.016   4.580
 1616SOL     OW 4875   1.008   5.180   4.201
 1616SOL    HW1 4876   0.962   5.252   4.149
 1616SOL    HW2 4877   1.004   5.200   4.299
 1617SOL     OW 4878   1.795   4.790   4.597
 1617SOL    HW1 4879   1.733   4.775   4.521
 1617SOL    HW2 4880   1.743   4.801   4.682
 1618SOL     OW 4881   0.321   4.667   3.966
 1618SOL    HW1 4882   0.403   4.706   3.924
 1618SOL    HW2 4883   0.294   4.585   3.917
 1619SOL     OW 4884   1.458   4.459   4.452
 1619SOL    HW1 4885   1.453   4.394   4.527
 1619SOL    HW2 4886   1.538   4.518   4.465
 1620SOL     OW 4887   1.111   5.500   3.961
 1620SOL    HW1 4888   1.051   5.438   4.011
 1620SOL    HW2 4889   1.142   5.456   3.876
 1621SOL     OW 4890   1.632   5.101   3.805
 1621SOL    HW1 4891   1.600   5.195   3.795
 1621SOL    HW2 4892   1.556   5.038   3.793
 1622SOL     OW 4893   1.400   3.831   4.150
 1622SOL    HW1 4894   1.376   3.794   4.060
 1622SOL    HW2 4895   1.499   3.847   4.154
 1623SOL     OW 4896   0.382   4.424   4.204
 1623SOL    HW1 4897   0.427   4.334   4.201
 1623SOL    HW2 4898   0.288   4.413   4.237
 1624SOL     OW 4899   0.614   3.846   3.841
 1624SOL    HW1 4900   0.712   3.824   3.848
 1624SOL    HW2 4901   0.583   3.829   3.748
 1625SOL     OW 4902   1.351   4.314   5.157
 1625SOL    HW1 4903   1.379   4.271   5.242
 1625SOL    HW2 4904   1.376   4.410   5.158
 1626SOL     OW 4905   0.803   5.126   4.648
 1626SOL    HW1 4906   0.893   5.140   4.606
 1626SOL    HW2 4907   0.732   5.128   4.577
 1627SOL     OW 4908   0.922   4.227   4.623
 1627SOL    HW1 4909   0.897   4.218   4.527
 1627SOL    HW2 4910   0.970   4.145   4.654
 1628SOL     OW 4911   0.539   3.788   4.236
 1628SOL    HW1 4912   0.458   3.789   4.294
 1628SOL    HW2 4913   0.542   3.871   4.181
 1629SOL     OW 4914   1.434   4.912   3.765
 1629SOL    HW1 4915   1.466   4.836   3.822
 1629SOL    HW2 4916   1.342   4.939   3.795
 1630SOL     OW 4917   0.297   3.759   3.895
 1630SOL    HW1 4918   0.346   3.843   3.874
 1630SOL    HW2 4919   0.359   3.694   3.940
 1631SOL     OW 4920   0.935   3.960   4.204
 1631SOL    HW1 4921   0.887   4.001   4.126
 1631SOL    HW2 4922   1.034   3.958   4.185
 1632SOL     OW 4923   1.227   5.294   4.517
 1632SOL    HW1 4924   1.248   5.368   4.452
 1632SOL    HW2 4925   1.295   5.294   4.590
 1633SOL     OW 4926   0.459   4.876   4.465
 1633SOL    HW1 4927   0.388   4.849   4.530
 1633SOL    HW2 4928   0.433   4.848   4.372
 1634SOL     OW 4929   1.032   4.273   3.740
 1634SOL    HW1 4930   0.991   4.355   3.701
 1634SOL    HW2 4931   1.096   4.299   3.813
 1635SOL     OW 4932   0.078   4.280   5.110
 1635SOL    HW1 4933   0.170   4.279   5.069
 1635SOL    HW2 4934   0.072   4.354   5.177
 1636SOL     OW 4935   0.561   3.946   4.871
 1636SOL    HW1 4936   0.599   3.862   4.908
 1636SOL    HW2 4937   0.473   3.965   4.915
 1637SOL     OW 4938   0.866   4.178   4.366
 1637SOL    HW1 4939   0.834   4.250   4.304
 1637SOL    HW2 4940   0.890   4.097   4.313
 1638SOL     OW 4941   1.017   3.763   4.477
 1638SOL    HW1 4942   0.945   3.768   4.408
 1638SOL    HW2 4943   0.993   3.694   4.546
 1639SOL     OW 4944   1.429   4.897   4.591
 1639SOL    HW1 4945   1.374   4.813   4.584
 1639SOL    HW2 4946   1.455   4.926   4.499
 1640SOL     OW 4947   1.466   4.314   4.716
 1640SOL    HW1 4948   1.436   4.219   4.723
 1640SOL    HW2 4949   1.539   4.330   4.782
 1641SOL     OW 4950   1.857   4.557   4.101
 1641SOL    HW1 4951   1.899   4.493   4.165
 1641SOL    HW2 4952   1.819   4.506   4.023
 1642SOL     OW 4953   0.488   5.109   3.898
 1642SOL    HW1 4954   0.401   5.094   3.945
 1642SOL    HW2 4955   0.471   5.135   3.803
 1643SOL     OW 4956   1.664   5.004   4.381
 1643SOL    HW1 4957   1.763   5.012   4.395
 1643SOL    HW2 4958   1.619   5.088   4.412
 1644SOL     OW 4959   1.390   4.299   3.802
 1644SOL    HW1 4960   1.336   4.278   3.883
 1644SOL    HW2 4961   1.481   4.258   3.811
 1645SOL     OW 4962   0.527   3.980   4.052
 1645SOL    HW1 4963   0.554   3.921   3.977
 1645SOL    HW2 4964   0.527   4.075   4.021
 1646SOL     OW 4965   1.754   4.947   5.312
 1646SOL    HW1 4966   1.845   4.908   5.299
 1646SOL    HW2 4967   1.762   5.043   5.336
 1647SOL     OW 4968   1.064   5.071   5.064
 1647SOL    HW1 4969   0.984   5.048   5.119
 1647SOL    HW2 4970   1.147   5.045   5.113
 1648SOL     OW 4971   1.111   4.919   4.824
 1648SOL    HW1 4972   1.071   4.963   4.905
 1648SOL    HW2 4973   1.070   4.956   4.741
 1649SOL     OW 4974   1.638   4.823   4.803
 1649SOL    HW1 4975   1.643   4.904   4.862
 1649SOL    HW2 4976   1.552   4.825   4.752
 1650SOL     OW 4977   0.915   3.813   5.126
 1650SOL    HW1 4978   0.940   3.793   5.031
 1650SOL    HW2 4979   0.987   3.869   5.168
 1651SOL     OW 4980   0.705   4.774   4.092
 1651SOL    HW1 4981   0.691   4.781   4.191
 1651SOL    HW2 4982   0.789   4.723   4.074
 1652SOL     OW 4983   0.410   4.537   4.975
 1652SOL    HW1 4984   0.496   4.549   5.025
 1652SOL    HW2 4985   0.368   4.450   5.002
 1653SOL     OW 4986   1.274   4.110   4.986
 1653SOL    HW1 4987   1.295   4.184   5.050
 1653SOL    HW2 4988   1.185   4.127   4.943
 1654SOL     OW 4989   0.064   5.288   5.055
 1654SOL    HW1 4990   0.018   5.370   5.021
 1654SOL    HW2 4991   0.162   5.307   5.064
 1655SOL     OW 4992   0.367   4.824   4.225
 1655SOL    HW1 4993   0.360   4.907   4.169
 1655SOL    HW2 4994   0.371   4.744   4.165
 1656SOL     OW 4995   0.566   4.261   4.589
 1656SOL    HW1 4996   0.578   4.327   4.515
 1656SOL    HW2 4997   0.612   4.295   4.672
 1657SOL     OW 4998   1.252   5.072   4.112
 1657SOL    HW1 4999   1.302   5.149   4.152
 1657SOL    HW2 5000   1.157   5.074   4.144
 1658SOL     OW 5001   1.272   5.169   4.866
 1658SOL    HW1 5002   1.319   5.182   4.953
 1658SOL    HW2 5003   1.206   5.095   4.875
 1659SOL     OW 5004   1.582   4.363   4.196
 1659SOL    HW1 5005   1.551   4.424   4.269
 1659SOL    HW2 5006   1.632   4.415   4.127
 1660SOL     OW 5007   0.354   5.234   5.053
 1660SOL    HW1 5008   0.333   5.190   4.966
 1660SOL    HW2 5009   0.451   5.260   5.056
 1661SOL     OW 5010   0.402   4.475   5.322
 1661SOL    HW1 5011   0.470   4.530   5.275
 1661SOL    HW2 5012   0.442   4.387   5.349
 1662SOL     OW 5013   1.587   4.503   5.394
 1662SOL    HW1 5014   1.495   4.541   5.389
 1662SOL    HW2 5015   1.647   4.550   5.329
 1663SOL     OW 5016   0.573   4.594   4.753
 1663SOL    HW1 5017   0.617   4.683   4.744
 1663SOL    HW2 5018   0.510   4.594   4.830
 1664SOL     OW 5019   1.360   4.586   4.769
 1664SOL    HW1 5020   1.285   4.586   4.703
 1664SOL    HW2 5021   1.397   4.494   4.778
 1665SOL     OW 5022   1.209   4.249   3.999
 1665SOL    HW1 5023   1.222   4.165   4.053
 1665SOL    HW2 5024   1.180   4.323   4.059
 1666SOL     OW 5025   0.307   3.937   4.955
 1666SOL    HW1 5026   0.284   3.974   5.045
 1666SOL    HW2 5027   0.277   3.842   4.949
 1667SOL     OW 5028   0.037   5.034   5.006
 1667SOL    HW1 5029   0.090   4.985   5.074
 1667SOL    HW2 5030   0.059   5.132   5.011
 1668SOL     OW 5031   0.732   4.358   4.788
 1668SOL    HW1 5032   0.791   4.332   4.712
 1668SOL    HW2 5033   0.704   4.454   4.777
 1669SOL     OW 5034   0.307   3.787   4.342
 1669SOL    HW1 5035   0.296   3.881   4.375
 1669SOL    HW2 5036   0.302   3.724   4.419
 1670SOL     OW 5037   1.622   4.091   4.098
 1670SOL    HW1 5038   1.624   4.015   4.162
 1670SOL    HW2 5039   1.574   4.168   4.138
 1671SOL     OW 5040   1.023   4.490   4.690
 1671SOL    HW1 5041   1.038   4.511   4.786
 1671SOL    HW2 5042   0.993   4.395   4.681
 1672SOL     OW 5043   1.540   3.998   3.849
 1672SOL    HW1 5044   1.479   3.923   3.872
 1672SOL    HW2 5045   1.562   4.050   3.932
 1673SOL     OW 5046   1.303   4.562   3.766
 1673SOL    HW1 5047   1.337   4.469   3.781
 1673SOL    HW2 5048   1.321   4.589   3.671
 1674SOL     OW 5049   1.068   5.057   4.573
 1674SOL    HW1 5050   1.075   4.973   4.518
 1674SOL    HW2 5051   1.130   5.126   4.537
 1675SOL     OW 5052   0.319   4.534   4.673
 1675SOL    HW1 5053   0.412   4.570   4.678
 1675SOL    HW2 5054   0.313   4.449   4.725
 1676SOL     OW 5055   0.339   4.233   4.730
 1676SOL    HW1 5056   0.287   4.150   4.713
 1676SOL    HW2 5057   0.416   4.238   4.666
 1677SOL     OW 5058   1.138   4.104   5.402
 1677SOL    HW1 5059   1.093   4.167   5.466
 1677SOL    HW2 5060   1.231   4.135   5.385
 1678SOL     OW 5061   1.160   3.931   5.201
 1678SOL    HW1 5062   1.160   3.995   5.278
 1678SOL    HW2 5063   1.188   3.979   5.118
 1679SOL     OW 5064   0.008   5.050   3.924
 1679SOL    HW1 5065  -0.085   5.071   3.893
 1679SOL    HW2 5066   0.018   4.951   3.937
 1680SOL     OW 5067   1.002   4.520   4.962
 1680SOL    HW1 5068   1.043   4.488   5.048
 1680SOL    HW2 5069   0.906   4.493   4.959
 1681SOL     OW 5070   0.040   4.268   4.838
 1681SOL    HW1 5071   0.125   4.235   4.797
 1681SOL    HW2 5072   0.053   4.283   4.936
 1682SOL     OW 5073   0.815   4.296   4.049
 1682SOL    HW1 5074   0.822   4.207   4.003
 1682SOL    HW2 5075   0.721   4.330   4.041
 1683SOL     OW 5076   1.657   4.328   4.930
 1683SOL    HW1 5077   1.619   4.259   4.992
 1683SOL    HW2 5078   1.739   4.292   4.886
 1684SOL     OW 5079   0.671   4.188   4.993
 1684SOL    HW1 5080   0.637   4.099   4.963
 1684SOL    HW2 5081   0.697   4.242   4.913
 1685SOL     OW 5082   0.473   4.224   3.915
 1685SOL    HW1 5083   0.534   4.304   3.919
 1685SOL    HW2 5084   0.378   4.255   3.922
 1686SOL     OW 5085   0.159   4.861   5.190
 1686SOL    HW1 5086   0.181   4.800   5.266
 1686SOL    HW2 5087   0.169   4.812   5.104
 1687SOL     OW 5088   1.347   4.783   4.958
 1687SOL    HW1 5089   1.371   4.720   4.884
 1687SOL    HW2 5090   1.257   4.823   4.940
 1688SOL     OW 5091   1.302   4.579   4.033
 1688SOL    HW1 5092   1.216   4.548   4.075
 1688SOL    HW2 5093   1.298   4.565   3.934
 1689SOL     OW 5094   0.083   4.982   4.746
 1689SOL    HW1 5095   0.078   4.981   4.846
 1689SOL    HW2 5096   0.000   4.941   4.708
 1690SOL     OW 5097   1.726   3.859   4.247
 1690SOL    HW1 5098   1.799   3.842   4.180
 1690SOL    HW2 5099   1.695   3.772   4.285
 1691SOL     OW 5100   1.280   4.651   4.396
 1691SOL    HW1 5101   1.340   4.570   4.398
 1691SOL    HW2 5102   1.320   4.720   4.336
 1692SOL     OW 5103   1.841   3.899   4.687
 1692SOL    HW1 5104   1.880   3.814   4.651
 1692SOL    HW2 5105   1.743   3.901   4.668
 1693SOL     OW 5106   0.263   4.050   4.444
 1693SOL    HW1 5107   0.184   4.101   4.410
 1693SOL    HW2 5108   0.254   4.035   4.542
 1694SOL     OW 5109   0.822   4.726   5.096
 1694SOL    HW1 5110   0.862   4.725   5.004
 1694SOL    HW2 5111   0.832   4.818   5.136
 1695SOL     OW 5112   0.916   4.634   4.015
 1695SOL    HW1 5113   0.979   4.672   3.947
 1695SOL    HW2 5114   0.956   4.551   4.054
 1696SOL     OW 5115   0.372   5.012   5.214
 1696SOL    HW1 5116   0.359   5.105   5.180
 1696SOL    HW2 5117   0.288   4.960   5.201
 1697SOL     OW 5118   1.614   5.016   5.013
 1697SOL    HW1 5119   1.674   5.019   5.093
 1697SOL    HW2 5120   1.539   5.080   5.026
 1698SOL     OW 5121   1.039   4.822   4.420
 1698SOL    HW1 5122   0.969   4.775   4.474
 1698SOL    HW2 5123   1.098   4.754   4.377
 1699SOL     OW 5124   1.014   3.960   4.695
 1699SOL    HW1 5125   1.006   3.924   4.602
 1699SOL    HW2 5126   1.012   3.884   4.760
 1700SOL     OW 5127   1.709   4.109   5.105
 1700SOL    HW1 5128   1.782   4.178   5.109
 1700SOL    HW2 5129   1.737   4.034   5.046
 1701SOL     OW 5130   0.255   5.072   4.014
 1701SOL    HW1 5131   0.159   5.073   3.987
 1701SOL    HW2 5132   0.267   5.125   4.098
 1702SOL     OW 5133   0.672   3.927   5.213
 1702SOL    HW1 5134   0.762   3.911   5.173
 1702SOL    HW2 5135   0.680   3.932   5.312
 1703SOL     OW 5136   0.075   4.069   3.757
 1703SOL    HW1 5137  -0.017   4.041   3.728
 1703SOL    HW2 5138   0.106   4.146   3.701
 1704SOL     OW 5139   1.440   4.580   5.122
 1704SOL    HW1 5140   1.383   4.632   5.059
 1704SOL    HW2 5141   1.536   4.592   5.098
 1705SOL     OW 5142   0.072   3.890   4.042
 1705SOL    HW1 5143   0.055   3.973   3.988
 1705SOL    HW2 5144   0.162   3.853   4.020
 1706SOL     OW 5145   1.183   5.059   3.843
 1706SOL    HW1 5146   1.084   5.048   3.845
 1706SOL    HW2 5147   1.217   5.074   3.936
 1707SOL     OW 5148   0.613   4.566   5.155
 1707SOL    HW1 5149   0.669   4.647   5.138
 1707SOL    HW2 5150   0.672   4.486   5.158
 1708SOL     OW 5151   0.390   5.465   5.284
 1708SOL    HW1 5152   0.299   5.506   5.282
 1708SOL    HW2 5153   0.383   5.371   5.316
 1709SOL     OW 5154   1.674   4.607   4.978
 1709SOL    HW1 5155   1.647   4.518   4.941
 1709SOL    HW2 5156   1.675   4.675   4.905
 1710SOL     OW 5157   1.225   4.049   4.173
 1710SOL    HW1 5158   1.290   3.975   4.162
 1710SOL    HW2 5159   1.245   4.099   4.257
 1711SOL     OW 5160   0.594   4.469   4.376
 1711SOL    HW1 5161   0.644   4.554   4.357
 1711SOL    HW2 5162   0.506   4.471   4.328
 1712SOL     OW 5163   1.777   4.066   5.366
 1712SOL    HW1 5164   1.760   4.097   5.272
 1712SOL    HW2 5165   1.693   4.029   5.404
 1713SOL     OW 5166   1.730   4.658   5.241
 1713SOL    HW1 5167   1.768   4.749   5.256
 1713SOL    HW2 5168   1.722   4.641   5.142
 1714SOL     OW 5169   0.859   5.098   3.740
 1714SOL    HW1 5170   0.813   5.113   3.828
 1714SOL    HW2 5171   0.903   5.183   3.710
 1715SOL     OW 5172   0.859   4.680   4.585
 1715SOL    HW1 5173   0.913   4.611   4.633
 1715SOL    HW2 5174   0.827   4.749   4.651
 1716SOL     OW 5175   1.083   4.708   3.811
 1716SOL    HW1 5176   1.060   4.761   3.729
 1716SOL    HW2 5177   1.164   4.652   3.792
 1717SOL     OW 5178   0.079   4.964   4.377
 1717SOL    HW1 5179   0.078   4.917   4.465
 1717SOL    HW2 5180   0.161   4.936   4.326
 1718SOL     OW 5181   0.672   5.115   5.348
 1718SOL    HW1 5182   0.594   5.065   5.386
 1718SOL    HW2 5183   0.669   5.210   5.379
 1719SOL     OW 5184   1.824   3.916   4.951
 1719SOL    HW1 5185   1.820   3.826   4.995
 1719SOL    HW2 5186   1.827   3.905   4.852
 1720SOL     OW 5187   0.428   4.148   4.244
 1720SOL    HW1 5188   0.458   4.076   4.182
 1720SOL    HW2 5189   0.389   4.108   4.327
 1721SOL     OW 5190   1.705   5.211   4.828
 1721SOL    HW1 5191   1.612   5.186   4.801
 1721SOL    HW2 5192   1.731   5.161   4.910
 1722SOL     OW 5193   0.317   4.271   5.004
 1722SOL    HW1 5194   0.355   4.212   5.076
 1722SOL    HW2 5195   0.357   4.245   4.916
 1723SOL     OW 5196   1.424   3.938   4.836
 1723SOL    HW1 5197   1.476   3.873   4.891
 1723SOL    HW2 5198   1.375   4.001   4.897
 1724SOL     OW 5199   1.001   3.758   4.878
 1724SOL    HW1 5200   0.938   3.686   4.847
 1724SOL    HW2 5201   1.094   3.722   4.878
 1725SOL     OW 5202   0.770   5.054   4.025
 1725SOL    HW1 5203   0.724   4.967   4.042
 1725SOL    HW2 5204   0.861   5.051   4.066
 1726SOL     OW 5205   0.618   5.291   5.008
 1726SOL    HW1 5206   0.613   5.373   5.065
 1726SOL    HW2 5207   0.707   5.288   4.963
 1727SOL     OW 5208   1.352   3.776   3.892
 1727SOL    HW1 5209   1.387   3.735   3.808
 1727SOL    HW2 5210   1.262   3.738   3.912
 1728SOL     OW 5211   1.300   4.177   4.415
 1728SOL    HW1 5212   1.241   4.257   4.419
 1728SOL    HW2 5213   1.315   4.142   4.508
 1729SOL     OW 5214   1.593   3.945   4.606
 1729SOL    HW1 5215   1.509   3.944   4.660
 1729SOL    HW2 5216   1.595   4.028   4.550
 1730SOL     OW 5217   0.039   4.801   4.024
 1730SOL    HW1 5218   0.138   4.790   4.015
 1730SOL    HW2 5219  -0.001   4.715   4.056
 1731SOL     OW 5220   2.092   0.628   0.113
 1731SOL    HW1 5221   1.999   0.626   0.150
 1731SOL    HW2 5222   2.093   0.589   0.021
 1732SOL     OW 5223   2.087   0.275   0.996
 1732SOL    HW1 5224   2.122   0.258   1.088
 1732SOL    HW2 5225   1.999   0.230   0.984
 1733SOL     OW 5226   1.881   0.368   0.647
 1733SOL    HW1 5227   1.799   0.411   0.686
 1733SOL    HW2 5228   1.853   0.295   0.584
 1734SOL     OW 5229   2.431   1.275   1.165
 1734SOL    HW1 5230   2.338   1.268   1.128
 1734SOL    HW2 5231   2.442   1.364   1.209
 1735SOL     OW 5232   3.417   1.511   0.703
 1735SOL    HW1 5233   3.360   1.495   0.784
 1735SOL    HW2 5234   3.358   1.521   0.623
 1736SOL     OW 5235   2.997   0.703   0.717
 1736SOL    HW1 5236   3.054   0.781   0.692
 1736SOL    HW2 5237   2.937   0.729   0.793
 1737SOL     OW 5238   3.617   0.607   0.231
 1737SOL    HW1 5239   3.605   0.594   0.132
 1737SOL    HW2 5240   3.587   0.526   0.280
 1738SOL     OW 5241   2.630   1.144   1.023
 1738SOL    HW1 5242   2.552   1.161   1.083
 1738SOL    HW2 5243   2.664   1.231   0.987
 1739SOL     OW 5244   2.712   0.798   1.823
 1739SOL    HW1 5245   2.708   0.874   1.888
 1739SOL    HW2 5246   2.734   0.834   1.732
 1740SOL     OW 5247   2.547   1.012   0.665
 1740SOL    HW1 5248   2.616   0.996   0.735
 1740SOL    HW2 5249   2.474   1.069   0.703
 1741SOL     OW 5250   2.548   1.161   1.803
 1741SOL    HW1 5251   2.608   1.240   1.817
 1741SOL    HW2 5252   2.462   1.192   1.762
 1742SOL     OW 5253   2.197   1.435   1.061
 1742SOL    HW1 5254   2.119   1.404   1.008
 1742SOL    HW2 5255   2.255   1.493   1.004
 1743SOL     OW 5256   3.322   1.505   1.339
 1743SOL    HW1 5257   3.346   1.599   1.365
 1743SOL    HW2 5258   3.306   1.451   1.421
 1744SOL     OW 5259   2.300   0.392   1.499
 1744SOL    HW1 5260   2.382   0.336   1.508
 1744SOL    HW2 5261   2.219   0.334   1.503
 1745SOL     OW 5262   3.465   0.447   0.737
 1745SOL    HW1 5263   3.391   0.493   0.687
 1745SOL    HW2 5264   3.516   0.515   0.790
 1746SOL     OW 5265   2.093   1.713   0.483
 1746SOL    HW1 5266   2.127   1.790   0.537
 1746SOL    HW2 5267   2.137   1.713   0.393
 1747SOL     OW 5268   2.989   1.341   1.690
 1747SOL    HW1 5269   3.036   1.341   1.778
 1747SOL    HW2 5270   2.941   1.254   1.679
 1748SOL     OW 5271   2.092   1.434   0.538
 1748SOL    HW1 5272   2.066   1.530   0.538
 1748SOL    HW2 5273   2.021   1.380   0.583
 1749SOL     OW 5274   2.102   1.091   0.886
 1749SOL    HW1 5275   2.116   1.007   0.938
 1749SOL    HW2 5276   2.047   1.155   0.941
 1750SOL     OW 5277   2.482   1.786   1.439
 1750SOL    HW1 5278   2.390   1.769   1.474
 1750SOL    HW2 5279   2.510   1.878   1.465
 1751SOL     OW 5280   2.468   0.964   0.123
 1751SOL    HW1 5281   2.475   1.048   0.069
 1751SOL    HW2 5282   2.514   0.977   0.211
 1752SOL     OW 5283   3.456   0.114   1.480
 1752SOL    HW1 5284   3.438   0.181   1.408
 1752SOL    HW2 5285   3.453   0.160   1.569
 1753SOL     OW 5286   1.984   0.643   0.563
 1753SOL    HW1 5287   1.939   0.555   0.580
 1753SOL    HW2 5288   1.983   0.697   0.647
 1754SOL     OW 5289   3.704   1.767   0.359
 1754SOL    HW1 5290   3.758   1.738   0.439
 1754SOL    HW2 5291   3.734   1.857   0.330
 1755SOL     OW 5292   1.889   1.596   0.117
 1755SOL    HW1 5293   1.870   1.500   0.138
 1755SOL    HW2 5294   1.856   1.654   0.192
 1756SOL     OW 5295   3.551   0.922   0.612
 1756SOL    HW1 5296   3.646   0.893   0.620
 1756SOL    HW2 5297   3.543   0.987   0.537
 1757SOL     OW 5298   3.503   1.108   0.432
 1757SOL    HW1 5299   3.589   1.110   0.380
 1757SOL    HW2 5300   3.517   1.155   0.520
 1758SOL     OW 5301   1.975   0.737   1.597
 1758SOL    HW1 5302   2.063   0.724   1.642
 1758SOL    HW2 5303   1.962   0.834   1.575
 1759SOL     OW 5304   2.475   1.365   0.726
 1759SOL    HW1 5305   2.426   1.278   0.735
 1759SOL    HW2 5306   2.452   1.408   0.639
 1760SOL     OW 5307   3.155   1.228   1.423
 1760SOL    HW1 5308   3.192   1.155   1.365
 1760SOL    HW2 5309   3.207   1.233   1.508
 1761SOL     OW 5310   2.671   0.004   0.502
 1761SOL    HW1 5311   2.711   0.095   0.493
 1761SOL    HW2 5312   2.571   0.012   0.508
 1762SOL     OW 5313   2.059   0.976   1.264
 1762SOL    HW1 5314   2.148   0.931   1.250
 1762SOL    HW2 5315   1.986   0.911   1.245
 1763SOL     OW 5316   3.387   0.999   0.190
 1763SOL    HW1 5317   3.324   0.923   0.203
 1763SOL    HW2 5318   3.435   1.017   0.276
 1764SOL     OW 5319   3.049   1.792   1.616
 1764SOL    HW1 5320   3.073   1.852   1.540
 1764SOL    HW2 5321   3.056   1.697   1.586
 1765SOL     OW 5322   2.179   0.251   1.801
 1765SOL    HW1 5323   2.250   0.322   1.807
 1765SOL    HW2 5324   2.091   0.290   1.829
 1766SOL     OW 5325   3.328   1.417   0.953
 1766SOL    HW1 5326   3.269   1.423   1.033
 1766SOL    HW2 5327   3.313   1.329   0.907
 1767SOL     OW 5328   3.529   1.714   0.572
 1767SOL    HW1 5329   3.488   1.691   0.484
 1767SOL    HW2 5330   3.511   1.640   0.637
 1768SOL     OW 5331   2.460   0.729   0.270
 1768SOL    HW1 5332   2.484   0.798   0.202
 1768SOL    HW2 5333   2.382   0.762   0.324
 1769SOL     OW 5334   3.143   0.345   0.944
 1769SOL    HW1 5335   3.057   0.295   0.931
 1769SOL    HW2 5336   3.205   0.291   1.000
 1770SOL     OW 5337   3.438   1.662   0.307
 1770SOL    HW1 5338   3.527   1.708   0.310
 1770SOL    HW2 5339   3.417   1.638   0.212
 1771SOL     OW 5340   2.669   0.605   1.465
 1771SOL    HW1 5341   2.622   0.602   1.554
 1771SOL    HW2 5342   2.618   0.550   1.399
 1772SOL     OW 5343   3.256   0.469   1.674
 1772SOL    HW1 5344   3.236   0.512   1.762
 1772SOL    HW2 5345   3.334   0.407   1.683
 1773SOL     OW 5346   2.835   0.890   1.572
 1773SOL    HW1 5347   2.881   0.806   1.543
 1773SOL    HW2 5348   2.779   0.924   1.497
 1774SOL     OW 5349   2.853   0.410   1.242
 1774SOL    HW1 5350   2.776   0.444   1.296
 1774SOL    HW2 5351   2.819   0.359   1.163
 1775SOL     OW 5352   2.903   0.701   0.429
 1775SOL    HW1 5353   2.929   0.697   0.525
 1775SOL    HW2 5354   2.818   0.650   0.415
 1776SOL     OW 5355   1.938   0.811   0.789
 1776SOL    HW1 5356   2.037   0.799   0.798
 1776SOL    HW2 5357   1.914   0.906   0.810
 1777SOL     OW 5358   1.992   1.821   1.571
 1777SOL    HW1 5359   1.982   1.806   1.670
 1777SOL    HW2 5360   1.906   1.857   1.535
 1778SOL     OW 5361   2.727   0.348   0.195
 1778SOL    HW1 5362   2.786   0.411   0.146
 1778SOL    HW2 5363   2.746   0.254   0.166
 1779SOL     OW 5364   3.581   0.585   1.831
 1779SOL    HW1 5365   3.555   0.674   1.795
 1779SOL    HW2 5366   3.579   0.517   1.758
 1780SOL     OW 5367   3.224   1.144   0.545
 1780SOL    HW1 5368   3.307   1.115   0.497
 1780SOL    HW2 5369   3.175   1.211   0.489
 1781SOL     OW 5370   2.412   0.196   0.885
 1781SOL    HW1 5371   2.407   0.191   0.985
 1781SOL    HW2 5372   2.414   0.292   0.856
 1782SOL     OW 5373   2.870   1.456   0.477
 1782SOL    HW1 5374   2.824   1.528   0.425
 1782SOL    HW2 5375   2.866   1.476   0.575
 1783SOL     OW 5376   2.213   1.801   0.853
 1783SOL    HW1 5377   2.263   1.715   0.859
 1783SOL    HW2 5378   2.278   1.878   0.850
 1784SOL     OW 5379   3.657   1.066   0.873
 1784SOL    HW1 5380   3.595   1.051   0.797
 1784SOL    HW2 5381   3.605   1.077   0.958
 1785SOL     OW 5382   3.089   1.550   1.506
 1785SOL    HW1 5383   3.095   1.473   1.570
 1785SOL    HW2 5384   3.037   1.524   1.426
 1786SOL     OW 5385   2.183   0.943   0.242
 1786SOL    HW1 5386   2.265   0.982   0.200
 1786SOL    HW2 5387   2.156   0.861   0.193
 1787SOL     OW 5388   3.320   0.735   0.728
 1787SOL    HW1 5389   3.315   0.670   0.803
 1787SOL    HW2 5390   3.400   0.794   0.741
 1788SOL     OW 5391   2.323   1.266   1.727
 1788SOL    HW1 5392   2.273   1.267   1.641
 1788SOL    HW2 5393   2.260   1.248   1.803
 1789SOL     OW 5394   2.973   1.776   0.237
 1789SOL    HW1 5395   2.913   1.714   0.287
 1789SOL    HW2 5396   3.004   1.732   0.152
 1790SOL     OW 5397   2.064   0.285   1.498
 1790SOL    HW1 5398   1.984   0.345   1.485
 1790SOL    HW2 5399   2.054   0.236   1.584
 1791SOL     OW 5400   3.494   1.377   0.081
 1791SOL    HW1 5401   3.462   1.471   0.071
 1791SOL    HW2 5402   3.418   1.314   0.069
 1792SOL     OW 5403   2.326   1.743   0.323
 1792SOL    HW1 5404   2.359   1.782   0.409
 1792SOL    HW2 5405   2.402   1.736   0.258
 1793SOL     OW 5406   3.262   0.107   0.426
 1793SOL    HW1 5407   3.238   0.070   0.336
 1793SOL    HW2 5408   3.361   0.123   0.430
 1794SOL     OW 5409   2.111   1.785   1.241
 1794SOL    HW1 5410   2.168   1.720   1.291
 1794SOL    HW2 5411   2.095   1.752   1.148
 1795SOL     OW 5412   2.802   1.698   0.904
 1795SOL    HW1 5413   2.882   1.641   0.925
 1795SOL    HW2 5414   2.753   1.658   0.827
 1796SOL     OW 5415   2.244   0.700   0.480
 1796SOL    HW1 5416   2.289   0.610   0.477
 1796SOL    HW2 5417   2.150   0.689   0.513
 1797SOL     OW 5418   3.409   0.222   1.729
 1797SOL    HW1 5419   3.404   0.259   1.821
 1797SOL    HW2 5420   3.337   0.153   1.717
 1798SOL     OW 5421   2.476   0.122   0.117
 1798SOL    HW1 5422   2.574   0.100   0.124
 1798SOL    HW2 5423   2.445   0.105   0.024
 1799SOL     OW 5424   2.643   0.264   1.749
 1799SOL    HW1 5425   2.710   0.203   1.792
 1799SOL    HW2 5426   2.570   0.283   1.814
 1800SOL     OW 5427   2.750   1.514   1.195
 1800SOL    HW1 5428   2.727   1.489   1.101
 1800SOL    HW2 5429   2.811   1.445   1.234
 1801SOL     OW 5430   3.213   0.590   1.433
 1801SOL    HW1 5431   3.241   0.547   1.518
 1801SOL    HW2 5432   3.238   0.686   1.434
 1802SOL     OW 5433   2.665   1.402   0.924
 1802SOL    HW1 5434   2.755   1.416   0.882
 1802SOL    HW2 5435   2.594   1.404   0.853
 1803SOL     OW 5436   2.784   0.503   0.899
 1803SOL    HW1 5437   2.759   0.494   0.803
 1803SOL    HW2 5438   2.832   0.421   0.930
 1804SOL     OW 5439   2.401   0.064   0.512
 1804SOL    HW1 5440   2.320   0.065   0.570
 1804SOL    HW2 5441   2.404   0.147   0.457
 1805SOL     OW 5442   3.296   1.188   0.041
 1805SOL    HW1 5443   3.328   1.112   0.098
 1805SOL    HW2 5444   3.204   1.215   0.071
 1806SOL     OW 5445   2.159   0.035   0.171
 1806SOL    HW1 5446   2.208   0.119   0.150
 1806SOL    HW2 5447   2.221  -0.030   0.216
 1807SOL     OW 5448   2.797   0.236   0.480
 1807SOL    HW1 5449   2.749   0.277   0.402
 1807SOL    HW2 5450   2.896   0.234   0.461
 1808SOL     OW 5451   2.938   0.683   1.464
 1808SOL    HW1 5452   2.858   0.622   1.467
 1808SOL    HW2 5453   3.019   0.630   1.440
 1809SOL     OW 5454   3.089   1.570   0.793
 1809SOL    HW1 5455   3.110   1.644   0.728
 1809SOL    HW2 5456   3.157   1.570   0.866
 1810SOL     OW 5457   2.321   1.152   0.741
 1810SOL    HW1 5458   2.250   1.125   0.806
 1810SOL    HW2 5459   2.295   1.124   0.648
 1811SOL     OW 5460   3.133   1.797   0.591
 1811SOL    HW1 5461   3.177   1.861   0.527
 1811SOL    HW2 5462   3.083   1.849   0.661
 1812SOL     OW 5463   2.894   0.549   0.016
 1812SOL    HW1 5464   2.853   0.631  -0.023
 1812SOL    HW2 5465   2.958   0.575   0.089
 1813SOL     OW 5466   1.940   0.556   1.386
 1813SOL    HW1 5467   2.032   0.555   1.345
 1813SOL    HW2 5468   1.934   0.630   1.453
 1814SOL     OW 5469   2.423   0.222   1.147
 1814SOL    HW1 5470   2.461   0.138   1.184
 1814SOL    HW2 5471   2.335   0.241   1.191
 1815SOL     OW 5472   2.728   0.454   0.642
 1815SOL    HW1 5473   2.696   0.526   0.580
 1815SOL    HW2 5474   2.752   0.373   0.589
 1816SOL     OW 5475   2.879   0.039   0.753
 1816SOL    HW1 5476   2.807   0.044   0.684
 1816SOL    HW2 5477   2.855  -0.030   0.822
 1817SOL     OW 5478   3.291   1.173   0.867
 1817SOL    HW1 5479   3.236   1.089   0.860
 1817SOL    HW2 5480   3.317   1.202   0.775
 1818SOL     OW 5481   3.328   0.590   0.992
 1818SOL    HW1 5482   3.298   0.495   0.999
 1818SOL    HW2 5483   3.401   0.606   1.058
 1819SOL     OW 5484   3.719   0.833   0.377
 1819SOL    HW1 5485   3.761   0.769   0.441
 1819SOL    HW2 5486   3.681   0.782   0.299
 1820SOL     OW 5487   2.350   1.385   0.174
 1820SOL    HW1 5488   2.263   1.370   0.221
 1820SOL    HW2 5489   2.333   1.411   0.079
 1821SOL     OW 5490   3.526   1.280   0.657
 1821SOL    HW1 5491   3.625   1.288   0.671
 1821SOL    HW2 5492   3.481   1.364   0.688
 1822SOL     OW 5493   3.252   0.575   0.078
 1822SOL    HW1 5494   3.198   0.554   0.159
 1822SOL    HW2 5495   3.343   0.534   0.087
 1823SOL     OW 5496   2.389   0.256   0.328
 1823SOL    HW1 5497   2.416   0.197   0.253
 1823SOL    HW2 5498   2.389   0.351   0.297
 1824SOL     OW 5499   3.616   1.223   1.588
 1824SOL    HW1 5500   3.707   1.184   1.575
 1824SOL    HW2 5501   3.624   1.319   1.612
 1825SOL     OW 5502   2.926   1.347   1.340
 1825SOL    HW1 5503   2.846   1.324   1.395
 1825SOL    HW2 5504   3.009   1.321   1.389
 1826SOL     OW 5505   3.454   1.629   1.625
 1826SOL    HW1 5506   3.481   1.663   1.535
 1826SOL    HW2 5507   3.533   1.591   1.671
 1827SOL     OW 5508   2.973   1.195   1.100
 1827SOL    HW1 5509   2.933   1.239   1.181
 1827SOL    HW2 5510   2.932   1.232   1.017
 1828SOL     OW 5511   3.500   1.099   1.079
 1828SOL    HW1 5512   3.505   1.180   1.138
 1828SOL    HW2 5513   3.414   1.101   1.028
 1829SOL     OW 5514   2.777   0.089   1.402
 1829SOL    HW1 5515   2.802   0.069   1.307
 1829SOL    HW2 5516   2.849   0.145   1.444
 1830SOL     OW 5517   2.842   1.116   1.719
 1830SOL    HW1 5518   2.743   1.122   1.729
 1830SOL    HW2 5519   2.865   1.036   1.663
 1831SOL     OW 5520   2.567   1.050   0.368
 1831SOL    HW1 5521   2.553   1.057   0.467
 1831SOL    HW2 5522   2.651   0.999   0.350
 1832SOL     OW 5523   2.272   0.813   1.251
 1832SOL    HW1 5524   2.358   0.825   1.301
 1832SOL    HW2 5525   2.230   0.726   1.278
 1833SOL     OW 5526   3.136   0.386   1.262
 1833SOL    HW1 5527   3.157   0.460   1.326
 1833SOL    HW2 5528   3.047   0.403   1.219
 1834SOL     OW 5529   1.926   1.564   1.331
 1834SOL    HW1 5530   1.880   1.646   1.297
 1834SOL    HW2 5531   2.024   1.583   1.340
 1835SOL     OW 5532   2.229   1.100   0.501
 1835SOL    HW1 5533   2.222   1.183   0.445
 1835SOL    HW2 5534   2.233   1.020   0.441
 1836SOL     OW 5535   2.428   0.537   0.865
 1836SOL    HW1 5536   2.440   0.603   0.791
 1836SOL    HW2 5537   2.474   0.571   0.948
 1837SOL     OW 5538   3.114   1.348   0.388
 1837SOL    HW1 5539   3.164   1.425   0.428
 1837SOL    HW2 5540   3.019   1.350   0.420
 1838SOL     OW 5541   3.134   1.445   1.142
 1838SOL    HW1 5542   3.181   1.458   1.229
 1838SOL    HW2 5543   3.068   1.371   1.151
 1839SOL     OW 5544   3.444   0.639   0.472
 1839SOL    HW1 5545   3.413   0.700   0.545
 1839SOL    HW2 5546   3.494   0.691   0.403
 1840SOL     OW 5547   2.216   1.510   1.329
 1840SOL    HW1 5548   2.195   1.466   1.242
 1840SOL    HW2 5549   2.313   1.536   1.332
 1841SOL     OW 5550   2.264   0.751   1.598
 1841SOL    HW1 5551   2.332   0.806   1.551
 1841SOL    HW2 5552   2.304   0.663   1.625
 1842SOL     OW 5553   3.449   0.779   1.670
 1842SOL    HW1 5554   3.357   0.817   1.665
 1842SOL    HW2 5555   3.509   0.826   1.605
 1843SOL     OW 5556   2.875   0.105   1.770
 1843SOL    HW1 5557   2.881   0.190   1.718
 1843SOL    HW2 5558   2.907   0.029   1.713
 1844SOL     OW 5559   2.366   0.050   1.740
 1844SOL    HW1 5560   2.324  -0.007   1.670
 1844SOL    HW2 5561   2.300   0.119   1.772
 1845SOL     OW 5562   2.435   0.870   1.029
 1845SOL    HW1 5563   2.479   0.959   1.020
 1845SOL    HW2 5564   2.372   0.870   1.106
 1846SOL     OW 5565   3.222   0.862   1.045
 1846SOL    HW1 5566   3.147   0.862   0.979
 1846SOL    HW2 5567   3.259   0.770   1.054
 1847SOL     OW 5568   3.071   0.525   0.275
 1847SOL    HW1 5569   3.084   0.441   0.329
 1847SOL    HW2 5570   3.042   0.599   0.335
 1848SOL     OW 5571   2.169   0.213   1.231
 1848SOL    HW1 5572   2.146   0.250   1.321
 1848SOL    HW2 5573   2.139   0.118   1.225
 1849SOL     OW 5574   1.899   1.310   1.282
 1849SOL    HW1 5575   1.952   1.261   1.350
 1849SOL    HW2 5576   1.921   1.408   1.287
 1850SOL     OW 5577   2.594   0.634   1.064
 1850SOL    HW1 5578   2.653   0.608   0.988
 1850SOL    HW2 5579   2.566   0.730   1.053
 1851SOL     OW 5580   3.590   0.935   1.854
 1851SOL    HW1 5581   3.544   0.928   1.765
 1851SOL    HW2 5582   3.528   0.979   1.920
 1852SOL     OW 5583   2.169   0.063   0.618
 1852SOL    HW1 5584   2.158   0.157   0.651
 1852SOL    HW2 5585   2.164   0.000   0.695
 1853SOL     OW 5586   3.484   0.367   0.374
 1853SOL    HW1 5587   3.486   0.291   0.438
 1853SOL    HW2 5588   3.436   0.444   0.414
 1854SOL     OW 5589   2.885   0.766   0.966
 1854SOL    HW1 5590   2.900   0.787   1.062
 1854SOL    HW2 5591   2.855   0.671   0.957
 1855SOL     OW 5592   2.842   1.573   1.700
 1855SOL    HW1 5593   2.822   1.617   1.612
 1855SOL    HW2 5594   2.881   1.482   1.684
 1856SOL     OW 5595   3.721   1.518   1.605
 1856SOL    HW1 5596   3.735   1.545   1.510
 1856SOL    HW2 5597   3.804   1.540   1.658
 1857SOL     OW 5598   2.212   0.898   1.804
 1857SOL    HW1 5599   2.288   0.942   1.852
 1857SOL    HW2 5600   2.247   0.851   1.722
 1858SOL     OW 5601   3.402   0.274   0.125
 1858SOL    HW1 5602   3.341   0.199   0.148
 1858SOL    HW2 5603   3.424   0.326   0.208
 1859SOL     OW 5604   3.165   0.838   0.042
 1859SOL    HW1 5605   3.199   0.745   0.057
 1859SOL    HW2 5606   3.183   0.865  -0.053
 1860SOL     OW 5607   2.930   1.333   0.849
 1860SOL    HW1 5608   2.937   1.249   0.794
 1860SOL    HW2 5609   2.992   1.402   0.813
 1861SOL     OW 5610   2.181   0.810   0.949
 1861SOL    HW1 5611   2.274   0.846   0.954
 1861SOL    HW2 5612   2.175   0.725   1.001
 1862SOL     OW 5613   2.201   0.509   1.006
 1862SOL    HW1 5614   2.149   0.426   0.989
 1862SOL    HW2 5615   2.278   0.514   0.942
 1863SOL     OW 5616   3.000   0.380   1.678
 1863SOL    HW1 5617   2.955   0.443   1.742
 1863SOL    HW2 5618   3.093   0.411   1.661
 1864SOL     OW 5619   3.022   0.207   1.477
 1864SOL    HW1 5620   3.022   0.271   1.554
 1864SOL    HW2 5621   3.050   0.255   1.394
 1865SOL     OW 5622   1.870   1.326   0.200
 1865SOL    HW1 5623   1.777   1.347   0.169
 1865SOL    HW2 5624   1.880   1.227   0.213
 1866SOL     OW 5625   1.950   1.801   0.927
 1866SOL    HW1 5626   1.908   1.715   0.900
 1866SOL    HW2 5627   2.044   1.804   0.893
 1867SOL     OW 5628   2.366   1.568   0.910
 1867SOL    HW1 5629   2.432   1.642   0.919
 1867SOL    HW2 5630   2.410   1.489   0.868
 1868SOL     OW 5631   2.864   0.796   1.238
 1868SOL    HW1 5632   2.905   0.764   1.324
 1868SOL    HW2 5633   2.768   0.769   1.235
 1869SOL     OW 5634   1.902   0.544   1.114
 1869SOL    HW1 5635   1.987   0.511   1.073
 1869SOL    HW2 5636   1.915   0.559   1.212
 1870SOL     OW 5637   2.051   0.520   1.722
 1870SOL    HW1 5638   2.110   0.480   1.652
 1870SOL    HW2 5639   1.993   0.591   1.681
 1871SOL     OW 5640   3.231   0.950   1.660
 1871SOL    HW1 5641   3.270   1.039   1.680
 1871SOL    HW2 5642   3.241   0.930   1.563
 1872SOL     OW 5643   2.677   0.572   0.325
 1872SOL    HW1 5644   2.684   0.483   0.279
 1872SOL    HW2 5645   2.583   0.606   0.317
 1873SOL     OW 5646   3.519   0.604   1.206
 1873SOL    HW1 5647   3.481   0.535   1.268
 1873SOL    HW2 5648   3.601   0.568   1.162
 1874SOL     OW 5649   2.114   1.564   1.744
 1874SOL    HW1 5650   2.084   1.621   1.820
 1874SOL    HW2 5651   2.107   1.467   1.770
 1875SOL     OW 5652   2.533   0.464   1.269
 1875SOL    HW1 5653   2.499   0.375   1.239
 1875SOL    HW2 5654   2.559   0.518   1.189
 1876SOL     OW 5655   2.792   1.678   1.465
 1876SOL    HW1 5656   2.768   1.660   1.370
 1876SOL    HW2 5657   2.822   1.772   1.475
 1877SOL     OW 5658   2.335   0.500   0.191
 1877SOL    HW1 5659   2.396   0.580   0.195
 1877SOL    HW2 5660   2.240   0.531   0.198
 1878SOL     OW 5661   2.021   1.137   1.466
 1878SOL    HW1 5662   2.043   1.076   1.542
 1878SOL    HW2 5663   2.031   1.088   1.380
 1879SOL     OW 5664   3.209   1.059   1.234
 1879SOL    HW1 5665   3.233   0.996   1.160
 1879SOL    HW2 5666   3.119   1.099   1.216
 1880SOL     OW 5667   3.164   0.855   0.309
 1880SOL    HW1 5668   3.078   0.824   0.351
 1880SOL    HW2 5669   3.160   0.841   0.210
 1881SOL     OW 5670   3.621   1.747   1.154
 1881SOL    HW1 5671   3.682   1.777   1.081
 1881SOL    HW2 5672   3.583   1.658   1.132
 1882SOL     OW 5673   3.114   1.731   1.128
 1882SOL    HW1 5674   3.198   1.736   1.074
 1882SOL    HW2 5675   3.091   1.635   1.146
 1883SOL     OW 5676   1.945   1.258   1.022
 1883SOL    HW1 5677   1.940   1.257   1.122
 1883SOL    HW2 5678   1.862   1.217   0.984
 1884SOL     OW 5679   2.550   1.662   1.716
 1884SOL    HW1 5680   2.494   1.743   1.725
 1884SOL    HW2 5681   2.602   1.666   1.630
 1885SOL     OW 5682   2.765   0.086   0.133
 1885SOL    HW1 5683   2.816   0.087   0.047
 1885SOL    HW2 5684   2.821   0.044   0.204
 1886SOL     OW 5685   3.588   0.135   0.523
 1886SOL    HW1 5686   3.661   0.118   0.456
 1886SOL    HW2 5687   3.557   0.048   0.561
 1887SOL     OW 5688   3.250   1.573   0.477
 1887SOL    HW1 5689   3.317   1.585   0.403
 1887SOL    HW2 5690   3.210   1.662   0.500
 1888SOL     OW 5691   1.992   1.794   1.851
 1888SOL    HW1 5692   1.951   1.720   1.904
 1888SOL    HW2 5693   2.056   1.845   1.909
 1889SOL     OW 5694   3.142   0.927   0.672
 1889SOL    HW1 5695   3.202   0.846   0.674
 1889SOL    HW2 5696   3.182   0.996   0.612
 1890SOL     OW 5697   2.692   1.273   1.422
 1890SOL    HW1 5698   2.687   1.306   1.517
 1890SOL    HW2 5699   2.606   1.292   1.376
 1891SOL     OW 5700   2.534   1.616   0.154
 1891SOL    HW1 5701   2.543   1.626   0.055
 1891SOL    HW2 5702   2.494   1.527   0.175
 1892SOL     OW 5703   3.512   1.720   1.394
 1892SOL    HW1 5704   3.565   1.730   1.310
 1892SOL    HW2 5705   3.485   1.810   1.428
 1893SOL     OW 5706   3.703   0.175   0.963
 1893SOL    HW1 5707   3.742   0.090   0.927
 1893SOL    HW2 5708   3.605   0.177   0.944
 1894SOL     OW 5709   2.125   0.326   0.720
 1894SOL    HW1 5710   2.046   0.377   0.686
 1894SOL    HW2 5711   2.116   0.311   0.818
 1895SOL     OW 5712   3.056   1.612   0.031
 1895SOL    HW1 5713   3.062   1.519   0.068
 1895SOL    HW2 5714   2.997   1.612  -0.049
 1896SOL     OW 5715   2.684   1.002   1.372
 1896SOL    HW1 5716   2.724   1.001   1.280
 1896SOL    HW2 5717   2.694   1.094   1.412
 1897SOL     OW 5718   2.778   0.910   0.291
 1897SOL    HW1 5719   2.841   0.948   0.223
 1897SOL    HW2 5720   2.818   0.827   0.330
 1898SOL     OW 5721   3.366   1.607   0.044
 1898SOL    HW1 5722   3.274   1.644   0.051
 1898SOL    HW2 5723   3.404   1.627  -0.046
 1899SOL     OW 5724   2.234   1.288   1.490
 1899SOL    HW1 5725   2.221   1.381   1.456
 1899SOL    HW2 5726   2.150   1.236   1.477
 1900SOL     OW 5727   3.476   1.292   1.289
 1900SOL    HW1 5728   3.536   1.295   1.369
 1900SOL    HW2 5729   3.401   1.356   1.302
 1901SOL     OW 5730   2.901   1.098   0.696
 1901SOL    HW1 5731   2.831   1.051   0.750
 1901SOL    HW2 5732   2.960   1.030   0.653
 1902SOL     OW 5733   2.876   0.236   0.971
 1902SOL    HW1 5734   2.868   0.200   0.878
 1902SOL    HW2 5735   2.874   0.160   1.036
 1903SOL     OW 5736   2.452   1.487   0.491
 1903SOL    HW1 5737   2.494   1.429   0.421
 1903SOL    HW2 5738   2.408   1.566   0.447
 1904SOL     OW 5739   3.571   0.385   1.381
 1904SOL    HW1 5740   3.644   0.454   1.385
 1904SOL    HW2 5741   3.599   0.310   1.322
 1905SOL     OW 5742   2.117   1.348   0.290
 1905SOL    HW1 5743   2.021   1.349   0.263
 1905SOL    HW2 5744   2.129   1.401   0.374
 1906SOL     OW 5745   1.967   1.013   1.726
 1906SOL    HW1 5746   1.890   0.980   1.780
 1906SOL    HW2 5747   2.052   0.983   1.768
 1907SOL     OW 5748   2.534   0.203   1.489
 1907SOL    HW1 5749   2.624   0.187   1.449
 1907SOL    HW2 5750   2.542   0.208   1.588
 1908SOL     OW 5751   3.302   0.856   1.398
 1908SOL    HW1 5752   3.245   0.908   1.335
 1908SOL    HW2 5753   3.398   0.868   1.374
 1909SOL     OW 5754   1.934   0.166   0.318
 1909SOL    HW1 5755   1.917   0.249   0.264
 1909SOL    HW2 5756   2.024   0.129   0.296
 1910SOL     OW 5757   3.045   1.335   0.119
 1910SOL    HW1 5758   2.946   1.324   0.121
 1910SOL    HW2 5759   3.079   1.350   0.212
 1911SOL     OW 5760   2.475   0.842   1.431
 1911SOL    HW1 5761   2.531   0.923   1.414
 1911SOL    HW2 5762   2.534   0.762   1.434
 1912SOL     OW 5763   3.355   1.767   0.959
 1912SOL    HW1 5764   3.388   1.831   0.890
 1912SOL    HW2 5765   3.421   1.761   1.034
 1913SOL     OW 5766   2.578   0.565   1.708
 1913SOL    HW1 5767   2.597   0.630   1.782
 1913SOL    HW2 5768   2.638   0.485   1.717
 1914SOL     OW 5769   3.312   1.220   1.633
 1914SOL    HW1 5770   3.303   1.210   1.732
 1914SOL    HW2 5771   3.408   1.213   1.607
 1915SOL     OW 5772   2.252   1.741   1.560
 1915SOL    HW1 5773   2.161   1.782   1.558
 1915SOL    HW2 5774   2.245   1.647   1.592
 1916SOL     OW 5775   3.536   0.883   1.254
 1916SOL    HW1 5776   3.509   0.794   1.217
 1916SOL    HW2 5777   3.537   0.951   1.181
 1917SOL     OW 5778   3.087   0.325   0.449
 1917SOL    HW1 5779   3.152   0.251   0.438
 1917SOL    HW2 5780   3.107   0.375   0.533
 1918SOL     OW 5781   2.456   0.745   0.652
 1918SOL    HW1 5782   2.506   0.830   0.633
 1918SOL    HW2 5783   2.368   0.747   0.604
 1919SOL     OW 5784   3.639   0.342   1.642
 1919SOL    HW1 5785   3.622   0.373   1.548
 1919SOL    HW2 5786   3.555   0.305   1.680
 1920SOL     OW 5787   3.592   0.934   1.517
 1920SOL    HW1 5788   3.630   1.025   1.532
 1920SOL    HW2 5789   3.584   0.917   1.418
 1921SOL     OW 5790   2.721   1.374   0.016
 1921SOL    HW1 5791   2.675   1.389   0.104
 1921SOL    HW2 5792   2.765   1.459  -0.014
 1922SOL     OW 5793   2.523   1.790   0.953
 1922SOL    HW1 5794   2.477   1.878   0.940
 1922SOL    HW2 5795   2.622   1.802   0.946
 1923SOL     OW 5796   2.721   0.956   0.861
 1923SOL    HW1 5797   2.775   0.887   0.909
 1923SOL    HW2 5798   2.689   1.025   0.927
 1924SOL     OW 5799   2.945   0.984   0.087
 1924SOL    HW1 5800   2.922   1.037   0.005
 1924SOL    HW2 5801   3.026   0.928   0.068
 1925SOL     OW 5802   3.723   1.569   0.851
 1925SOL    HW1 5803   3.652   1.557   0.781
 1925SOL    HW2 5804   3.724   1.490   0.911
 1926SOL     OW 5805   2.083   1.314   1.844
 1926SOL    HW1 5806   2.018   1.241   1.823
 1926SOL    HW2 5807   2.087   1.328   1.942
 1927SOL     OW 5808   1.941   1.240   0.653
 1927SOL    HW1 5809   1.940   1.193   0.741
 1927SOL    HW2 5810   2.023   1.212   0.602
 1928SOL     OW 5811   2.534   1.391   1.624
 1928SOL    HW1 5812   2.456   1.341   1.662
 1928SOL    HW2 5813   2.531   1.486   1.655
 1929SOL     OW 5814   3.686   0.192   1.227
 1929SOL    HW1 5815   3.682   0.102   1.271
 1929SOL    HW2 5816   3.689   0.181   1.128
 1930SOL     OW 5817   2.290   0.424   0.520
 1930SOL    HW1 5818   2.320   0.352   0.458
 1930SOL    HW2 5819   2.251   0.384   0.603
 1931SOL     OW 5820   3.567   1.487   1.104
 1931SOL    HW1 5821   3.474   1.462   1.077
 1931SOL    HW2 5822   3.593   1.437   1.186
 1932SOL     OW 5823   2.179   0.547   1.280
 1932SOL    HW1 5824   2.217   0.488   1.352
 1932SOL    HW2 5825   2.219   0.521   1.192
 1933SOL     OW 5826   2.674   1.586   0.687
 1933SOL    HW1 5827   2.706   1.596   0.593
 1933SOL    HW2 5828   2.595   1.524   0.689
 1934SOL     OW 5829   3.286   0.214   1.112
 1934SOL    HW1 5830   3.338   0.149   1.167
 1934SOL    HW2 5831   3.237   0.277   1.173
 1935SOL     OW 5832   2.863   0.034   1.154
 1935SOL    HW1 5833   2.800  -0.038   1.123
 1935SOL    HW2 5834   2.956  -0.002   1.154
 1936SOL     OW 5835   2.632   1.330   0.301
 1936SOL    HW1 5836   2.586   1.243   0.318
 1936SOL    HW2 5837   2.723   1.327   0.342
 1937SOL     OW 5838   2.480   1.567   1.284
 1937SOL    HW1 5839   2.475   1.649   1.341
 1937SOL    HW2 5840   2.569   1.564   1.239
 1938SOL     OW 5841   3.214   0.052   0.168
 1938SOL    HW1 5842   3.249   0.011   0.084
 1938SOL    HW2 5843   3.124   0.014   0.188
 1939SOL     OW 5844   3.162   0.453   0.691
 1939SOL    HW1 5845   3.103   0.533   0.695
 1939SOL    HW2 5846   3.177   0.418   0.784
 1940SOL     OW 5847   3.455   0.221   0.882
 1940SOL    HW1 5848   3.371   0.220   0.936
 1940SOL    HW2 5849   3.457   0.304   0.826
 1941SOL     OW 5850   1.901   1.077   0.300
 1941SOL    HW1 5851   2.000   1.066   0.291
 1941SOL    HW2 5852   1.861   0.991   0.332
 1942SOL     OW 5853   2.737   1.646   0.337
 1942SOL    HW1 5854   2.660   1.611   0.283
 1942SOL    HW2 5855   2.705   1.717   0.399
 1943SOL     OW 5856   2.092   0.628   1.975
 1943SOL    HW1 5857   1.999   0.626   2.012
 1943SOL    HW2 5858   2.093   0.589   1.883
 1944SOL     OW 5859   2.087   0.275   2.858
 1944SOL    HW1 5860   2.122   0.258   2.950
 1944SOL    HW2 5861   1.999   0.230   2.846
 1945SOL     OW 5862   1.881   0.368   2.509
 1945SOL    HW1 5863   1.799   0.411   2.548
 1945SOL    HW2 5864   1.853   0.295   2.446
 1946SOL     OW 5865   2.431   1.275   3.027
 1946SOL    HW1 5866   2.338   1.268   2.990
 1946SOL    HW2 5867   2.442   1.364   3.071
 1947SOL     OW 5868   3.417   1.511   2.565
 1947SOL    HW1 5869   3.360   1.495   2.646
 1947SOL    HW2 5870   3.358   1.521   2.485
 1948SOL     OW 5871   2.997   0.703   2.579
 1948SOL    HW1 5872   3.054   0.781   2.554
 1948SOL    HW2 5873   2.937   0.729   2.655
 1949SOL     OW 5874   3.617   0.607   2.093
 1949SOL    HW1 5875   3.605   0.594   1.994
 1949SOL    HW2 5876   3.587   0.526   2.142
 1950SOL     OW 5877   2.630   1.144   2.885
 1950SOL    HW1 5878   2.552   1.161   2.945
 1950SOL    HW2 5879   2.664   1.231   2.849
 1951SOL     OW 5880   2.712   0.798   3.685
 1951SOL    HW1 5881   2.708   0.874   3.750
 1951SOL    HW2 5882   2.734   0.834   3.594
 1952SOL     OW 5883   2.547   1.012   2.527
 1952SOL    HW1 5884   2.616   0.996   2.597
 1952SOL    HW2 5885   2.474   1.069   2.565
 1953SOL     OW 5886   2.548   1.161   3.665
 1953SOL    HW1 5887   2.608   1.240   3.679
 1953SOL    HW2 5888   2.462   1.192   3.624
 1954SOL     OW 5889   2.197   1.435   2.923
 1954SOL    HW1 5890   2.119   1.404   2.870
 1954SOL    HW2 5891   2.255   1.493   2.866
 1955SOL     OW 5892   3.322   1.505   3.201
 1955SOL    HW1 5893   3.346   1.599   3.227
 1955SOL    HW2 5894   3.306   1.451   3.283
 1956SOL     OW 5895   2.300   0.392   3.361
 1956SOL    HW1 5896   2.382   0.336   3.370
 1956SOL    HW2 5897   2.219   0.334   3.365
 1957SOL     OW 5898   3.465   0.447   2.599
 1957SOL    HW1 5899   3.391   0.493   2.549
 1957SOL    HW2 5900   3.516   0.515   2.652
 1958SOL     OW 5901   2.093   1.713   2.345
 1958SOL    HW1 5902   2.127   1.790   2.399
 1958SOL    HW2 5903   2.137   1.713   2.255
 1959SOL     OW 5904   2.989   1.341   3.552
 1959SOL    HW1 5905   3.036   1.341   3.640
 1959SOL    HW2 5906   2.941   1.254   3.541
 1960SOL     OW 5907   2.092   1.434   2.400
 1960SOL    HW1 5908   2.066   1.530   2.400
 1960SOL    HW2 5909   2.021   1.380   2.445
 1961SOL     OW 5910   2.102   1.091   2.748
 1961SOL    HW1 5911   2.116   1.007   2.800
 1961SOL    HW2 5912   2.047   1.155   2.803
 1962SOL     OW 5913   2.482   1.786   3.301
 1962SOL    HW1 5914   2.390   1.769   3.336
 1962SOL    HW2 5915   2.510   1.878   3.327
 1963SOL     OW 5916   2.468   0.964   1.985
 1963SOL    HW1 5917   2.475   1.048   1.931
 1963SOL    HW2 5918   2.514   0.977   2.073
 1964SOL     OW 5919   3.456   0.114   3.342
 1964SOL    HW1 5920   3.438   0.181   3.270
 1964SOL    HW2 5921   3.453   0.160   3.431
 1965SOL     OW 5922   1.984   0.643   2.425
 1965SOL    HW1 5923   1.939   0.555   2.442
 1965SOL    HW2 5924   1.983   0.697   2.509
 1966SOL     OW 5925   3.704   1.767   2.221
 1966SOL    HW1 5926   3.758   1.738   2.301
 1966SOL    HW2 5927   3.734   1.857   2.192
 1967SOL     OW 5928   1.889   1.596   1.979
 1967SOL    HW1 5929   1.870   1.500   2.000
 1967SOL    HW2 5930   1.856   1.654   2.054
 1968SOL     OW 5931   3.551   0.922   2.474
 1968SOL    HW1 5932   3.646   0.893   2.482
 1968SOL    HW2 5933   3.543   0.987   2.399
 1969SOL     OW 5934   3.503   1.108   2.294
 1969SOL    HW1 5935   3.589   1.110   2.242
 1969SOL    HW2 5936   3.517   1.155   2.382
 1970SOL     OW 5937   1.975   0.737   3.459
 1970SOL    HW1 5938   2.063   0.724   3.504
 1970SOL    HW2 5939   1.962   0.834   3.437
 1971SOL     OW 5940   2.475   1.365   2.588
 1971SOL    HW1 5941   2.426   1.278   2.597
 1971SOL    HW2 5942   2.452   1.408   2.501
 1972SOL     OW 5943   3.155   1.228   3.285
 1972SOL    HW1 5944   3.192   1.155   3.227
 1972SOL    HW2 5945   3.207   1.233   3.370
 1973SOL     OW 5946   2.671   0.004   2.364
 1973SOL    HW1 5947   2.711   0.095   2.355
 1973SOL    HW2 5948   2.571   0.012   2.370
 1974SOL     OW 5949   2.059   0.976   3.126
 1974SOL    HW1 5950   2.148   0.931   3.112
 1974SOL    HW2 5951   1.986   0.911   3.107
 1975SOL     OW 5952   3.387   0.999   2.052
 1975SOL    HW1 5953   3.324   0.923   2.065
 1975SOL    HW2 5954   3.435   1.017   2.138
 1976SOL     OW 5955   3.049   1.792   3.478
 1976SOL    HW1 5956   3.073   1.852   3.402
 1976SOL    HW2 5957   3.056   1.697   3.448
 1977SOL     OW 5958   2.179   0.251   3.663
 1977SOL    HW1 5959   2.250   0.322   3.669
 1977SOL    HW2 5960   2.091   0.290   3.691
 1978SOL     OW 5961   3.328   1.417   2.815
 1978SOL    HW1 5962   3.269   1.423   2.895
 1978SOL    HW2 5963   3.313   1.329   2.769
 1979SOL     OW 5964   3.529   1.714   2.434
 1979SOL    HW1 5965   3.488   1.691   2.346
 1979SOL    HW2 5966   3.511   1.640   2.499
 1980SOL     OW 5967   2.460   0.729   2.132
 1980SOL    HW1 5968   2.484   0.798   2.064
 1980SOL    HW2 5969   2.382   0.762   2.186
 1981SOL     OW 5970   3.143   0.345   2.806
 1981SOL    HW1 5971   3.057   0.295   2.793
 1981SOL    HW2 5972   3.205   0.291   2.862
 1982SOL     OW 5973   3.438   1.662   2.169
 1982SOL    HW1 5974   3.527   1.708   2.172
 1982SOL    HW2 5975   3.417   1.638   2.074
 1983SOL     OW 5976   2.669   0.605   3.327
 1983SOL    HW1 5977   2.622   0.602   3.416
 1983SOL    HW2 5978   2.618   0.550   3.261
 1984SOL     OW 5979   3.256   0.469   3.536
 1984SOL    HW1 5980   3.236   0.512   3.624
 1984SOL    HW2 5981   3.334   0.407   3.545
 1985SOL     OW 5982   2.835   0.890   3.434
 1985SOL    HW1 5983   2.881   0.806   3.405
 1985SOL    HW2 5984   2.779   0.924   3.359
 1986SOL     OW 5985   2.853   0.410   3.104
 1986SOL    HW1 5986   2.776   0.444   3.158
 1986SOL    HW2 5987   2.819   0.359   3.025
 1987SOL     OW 5988   2.903   0.701   2.291
 1987SOL    HW1 5989   2.929   0.697   2.387
 1987SOL    HW2 5990   2.818   0.650   2.277
 1988SOL     OW 5991   1.938   0.811   2.651
 1988SOL    HW1 5992   2.037   0.799   2.660
 1988SOL    HW2 5993   1.914   0.906   2.672
 1989SOL     OW 5994   1.992   1.821   3.433
 1989SOL    HW1 5995   1.982   1.806   3.532
 1989SOL    HW2 5996   1.906   1.857   3.397
 1990SOL     OW 5997   2.727   0.348   2.057
 1990SOL    HW1 5998   2.786   0.411   2.008
 1990SOL    HW2 5999   2.746   0.254   2.028
 1991SOL     OW 6000   3.581   0.585   3.693
 1991SOL    HW1 6001   3.555   0.674   3.657
 1991SOL    HW2 6002   3.579   0.517   3.620
 1992SOL     OW 6003   3.224   1.144   2.407
 1992SOL    HW1 6004   3.307   1.115   2.359
 1992SOL    HW2 6005   3.175   1.211   2.351
 1993SOL     OW 6006   2.412   0.196   2.747
 1993SOL    HW1 6007   2.407   0.191   2.847
 1993SOL    HW2 6008   2.414   0.292   2.718
 1994SOL     OW 6009   2.870   1.456   2.339
 1994SOL    HW1 6010   2.824   1.528   2.287
 1994SOL    HW2 6011   2.866   1.476   2.437
 1995SOL     OW 6012   2.213   1.801   2.715
 1995SOL    HW1 6013   2.263   1.715   2.721
 1995SOL    HW2 6014   2.278   1.878   2.712
 1996SOL     OW 6015   3.657   1.066   2.735
 1996SOL    HW1 6016   3.595   1.051   2.659
 1996SOL    HW2 6017   3.605   1.077   2.820
 1997SOL     OW 6018   3.089   1.550   3.368
 1997SOL    HW1 6019   3.095   1.473   3.432
 1997SOL    HW2 6020   3.037   1.524   3.288
 1998SOL     OW 6021   2.183   0.943   2.104
 1998SOL    HW1 6022   2.265   0.982   2.062
 1998SOL    HW2 6023   2.156   0.861   2.055
 1999SOL     OW 6024   3.320   0.735   2.590
 1999SOL    HW1 6025   3.315   0.670   2.665
 1999SOL    HW2 6026   3.400   0.794   2.603
 2000SOL     OW 6027   2.323   1.266   3.589
 2000SOL    HW1 6028   2.273   1.267   3.503
 2000SOL    HW2 6029   2.260   1.248   3.665
 2001SOL     OW 6030   2.973   1.776   2.099
 2001SOL    HW1 6031   2.913   1.714   2.149
 2001SOL    HW2 6032   3.004   1.732   2.014
 2002SOL     OW 6033   2.064   0.285   3.360
 2002SOL    HW1 6034   1.984   0.345   3.347
 2002SOL    HW2 6035   2.054   0.236   3.446
 2003SOL     OW 6036   3.494   1.377   1.943
 2003SOL    HW1 6037   3.462   1.471   1.933
 2003SOL    HW2 6038   3.418   1.314   1.931
 2004SOL     OW 6039   2.326   1.743   2.185
 2004SOL    HW1 6040   2.359   1.782   2.271
 2004SOL    HW2 6041   2.402   1.736   2.120
 2005SOL     OW 6042   3.262   0.107   2.288
 2005SOL    HW1 6043   3.238   0.070   2.198
 2005SOL    HW2 6044   3.361   0.123   2.292
 2006SOL     OW 6045   2.111   1.785   3.103
 2006SOL    HW1 6046   2.168   1.720   3.153
 2006SOL    HW2 6047   2.095   1.752   3.010
 2007SOL     OW 6048   2.802   1.698   2.766
 2007SOL    HW1 6049   2.882   1.641   2.787
 2007SOL    HW2 6050   2.753   1.658   2.689
 2008SOL     OW 6051   2.244   0.700   2.342
 2008SOL    HW1 6052   2.289   0.610   2.339
 2008SOL    HW2 6053   2.150   0.689   2.375
 2009SOL     OW 6054   3.409   0.222   3.591
 2009SOL    HW1 6055   3.404   0.259   3.683
 2009SOL    HW2 6056   3.337   0.153   3.579
 2010SOL     OW 6057   2.476   0.122   1.979
 2010SOL    HW1 6058   2.574   0.100   1.986
 2010SOL    HW2 6059   2.445   0.105   1.886
 2011SOL     OW 6060   2.643   0.264   3.611
 2011SOL    HW1 6061   2.710   0.203   3.654
 2011SOL    HW2 6062   2.570   0.283   3.676
 2012SOL     OW 6063   2.750   1.514   3.057
 2012SOL    HW1 6064   2.727   1.489   2.963
 2012SOL    HW2 6065   2.811   1.445   3.096
 2013SOL     OW 6066   3.213   0.590   3.295
 2013SOL    HW1 6067   3.241   0.547   3.380
 2013SOL    HW2 6068   3.238   0.686   3.296
 2014SOL     OW 6069   2.665   1.402   2.786
 2014SOL    HW1 6070   2.755   1.416   2.744
 2014SOL    HW2 6071   2.594   1.404   2.715
 2015SOL     OW 6072   2.784   0.503   2.761
 2015SOL    HW1 6073   2.759   0.494   2.665
 2015SOL    HW2 6074   2.832   0.421   2.792
 2016SOL     OW 6075   2.401   0.064   2.374
 2016SOL    HW1 6076   2.320   0.065   2.432
 2016SOL    HW2 6077   2.404   0.147   2.319
 2017SOL     OW 6078   3.296   1.188   1.903
 2017SOL    HW1 6079   3.328   1.112   1.960
 2017SOL    HW2 6080   3.204   1.215   1.933
 2018SOL     OW 6081   2.159   0.035   2.033
 2018SOL    HW1 6082   2.208   0.119   2.012
 2018SOL    HW2 6083   2.221  -0.030   2.078
 2019SOL     OW 6084   2.797   0.236   2.342
 2019SOL    HW1 6085   2.749   0.277   2.264
 2019SOL    HW2 6086   2.896   0.234   2.323
 2020SOL     OW 6087   2.938   0.683   3.326
 2020SOL    HW1 6088   2.858   0.622   3.329
 2020SOL    HW2 6089   3.019   0.630   3.302
 2021SOL     OW 6090   3.089   1.570   2.655
 2021SOL    HW1 6091   3.110   1.644   2.590
 2021SOL    HW2 6092   3.157   1.570   2.728
 2022SOL     OW 6093   2.321   1.152   2.603
 2022SOL    HW1 6094   2.250   1.125   2.668
 2022SOL    HW2 6095   2.295   1.124   2.510
 2023SOL     OW 6096   3.133   1.797   2.453
 2023SOL    HW1 6097   3.177   1.861   2.389
 2023SOL    HW2 6098   3.083   1.849   2.523
 2024SOL     OW 6099   2.894   0.549   1.878
 2024SOL    HW1 6100   2.853   0.631   1.839
 2024SOL    HW2 6101   2.958   0.575   1.951
 2025SOL     OW 6102   1.940   0.556   3.248
 2025SOL    HW1 6103   2.032   0.555   3.207
 2025SOL    HW2 6104   1.934   0.630   3.315
 2026SOL     OW 6105   2.423   0.222   3.009
 2026SOL    HW1 6106   2.461   0.138   3.046
 2026SOL    HW2 6107   2.335   0.241   3.053
 2027SOL     OW 6108   2.728   0.454   2.504
 2027SOL    HW1 6109   2.696   0.526   2.442
 2027SOL    HW2 6110   2.752   0.373   2.451
 2028SOL     OW 6111   2.879   0.039   2.615
 2028SOL    HW1 6112   2.807   0.044   2.546
 2028SOL    HW2 6113   2.855  -0.030   2.684
 2029SOL     OW 6114   3.291   1.173   2.729
 2029SOL    HW1 6115   3.236   1.089   2.722
 2029SOL    HW2 6116   3.317   1.202   2.637
 2030SOL     OW 6117   3.328   0.590   2.854
 2030SOL    HW1 6118   3.298   0.495   2.861
 2030SOL    HW2 6119   3.401   0.606   2.920
 2031SOL     OW 6120   3.719   0.833   2.239
 2031SOL    HW1 6121   3.761   0.769   2.303
 2031SOL    HW2 6122   3.681   0.782   2.161
 2032SOL     OW 6123   2.350   1.385   2.036
 2032SOL    HW1 6124   2.263   1.370   2.083
 2032SOL    HW2 6125   2.333   1.411   1.941
 2033SOL     OW 6126   3.526   1.280   2.519
 2033SOL    HW1 6127   3.625   1.288   2.533
 2033SOL    HW2 6128   3.481   1.364   2.550
 2034SOL     OW 6129   3.252   0.575   1.940
 2034SOL    HW1 6130   3.198   0.554   2.021
 2034SOL    HW2 6131   3.343   0.534   1.949
 2035SOL     OW 6132   2.389   0.256   2.190
 2035SOL    HW1 6133   2.416   0.197   2.115
 2035SOL    HW2 6134   2.389   0.351   2.159
 2036SOL     OW 6135   3.616   1.223   3.450
 2036SOL    HW1 6136   3.707   1.184   3.437
 2036SOL    HW2 6137   3.624   1.319   3.474
 2037SOL     OW 6138   2.926   1.347   3.202
 2037SOL    HW1 6139   2.846   1.324   3.257
 2037SOL    HW2 6140   3.009   1.321   3.251
 2038SOL     OW 6141   3.454   1.629   3.487
 2038SOL    HW1 6142   3.481   1.663   3.397
 2038SOL    HW2 6143   3.533   1.591   3.533
 2039SOL     OW 6144   2.973   1.195   2.962
 2039SOL    HW1 6145   2.933   1.239   3.043
 2039SOL    HW2 6146   2.932   1.232   2.879
 2040SOL     OW 6147   3.500   1.099   2.941
 2040SOL    HW1 6148   3.505   1.180   3.000
 2040SOL    HW2 6149   3.414   1.101   2.890
 2041SOL     OW 6150   2.777   0.089   3.264
 2041SOL    HW1 6151   2.802   0.069   3.169
 2041SOL    HW2 6152   2.849   0.145   3.306
 2042SOL     OW 6153   2.842   1.116   3.581
 2042SOL    HW1 6154   2.743   1.122   3.591
 2042SOL    HW2 6155   2.865   1.036   3.525
 2043SOL     OW 6156   2.567   1.050   2.230
 2043SOL    HW1 6157   2.553   1.057   2.329
 2043SOL    HW2 6158   2.651   0.999   2.212
 2044SOL     OW 6159   2.272   0.813   3.113
 2044SOL    HW1 6160   2.358   0.825   3.163
 2044SOL    HW2 6161   2.230   0.726   3.140
 2045SOL     OW 6162   3.136   0.386   3.124
 2045SOL    HW1 6163   3.157   0.460   3.188
 2045SOL    HW2 6164   3.047   0.403   3.081
 2046SOL     OW 6165   1.926   1.564   3.193
 2046SOL    HW1 6166   1.880   1.646   3.159
 2046SOL    HW2 6167   2.024   1.583   3.202
 2047SOL     OW 6168   2.229   1.100   2.363
 2047SOL    HW1 6169   2.222   1.183   2.307
 2047SOL    HW2 6170   2.233   1.020   2.303
 2048SOL     OW 6171   2.428   0.537   2.727
 2048SOL    HW1 6172   2.440   0.603   2.653
 2048SOL    HW2 6173   2.474   0.571   2.810
 2049SOL     OW 6174   3.114   1.348   2.250
 2049SOL    HW1 6175   3.164   1.425   2.290
 2049SOL    HW2 6176   3.019   1.350   2.282
 2050SOL     OW 6177   3.134   1.445   3.004
 2050SOL    HW1 6178   3.181   1.458   3.091
 2050SOL    HW2 6179   3.068   1.371   3.013
 2051SOL     OW 6180   3.444   0.639   2.334
 2051SOL    HW1 6181   3.413   0.700   2.407
 2051SOL    HW2 6182   3.494   0.691   2.265
 2052SOL     OW 6183   2.216   1.510   3.191
 2052SOL    HW1 6184   2.195   1.466   3.104
 2052SOL    HW2 6185   2.313   1.536   3.194
 2053SOL     OW 6186   2.264   0.751   3.460
 2053SOL    HW1 6187   2.332   0.806   3.413
 2053SOL    HW2 6188   2.304   0.663   3.487
 2054SOL     OW 6189   3.449   0.779   3.532
 2054SOL    HW1 6190   3.357   0.817   3.527
 2054SOL    HW2 6191   3.509   0.826   3.467
 2055SOL     OW 6192   2.875   0.105   3.632
 2055SOL    HW1 6193   2.881   0.190   3.580
 2055SOL    HW2 6194   2.907   0.029   3.575
 2056SOL     OW 6195   2.366   0.050   3.602
 2056SOL    HW1 6196   2.324  -0.007   3.532
 2056SOL    HW2 6197   2.300   0.119   3.634
 2057SOL     OW 6198   2.435   0.870   2.891
 2057SOL    HW1 6199   2.479   0.959   2.882
 2057SOL    HW2 6200   2.372   0.870   2.968
 2058SOL     OW 6201   3.222   0.862   2.907
 2058SOL    HW1 6202   3.147   0.862   2.841
 2058SOL    HW2 6203   3.259   0.770   2.916
 2059SOL     OW 6204   3.071   0.525   2.137
 2059SOL    HW1 6205   3.084   0.441   2.191
 2059SOL    HW2 6206   3.042   0.599   2.197
 2060SOL     OW 6207   2.169   0.213   3.093
 2060SOL    HW1 6208   2.146   0.250   3.183
 2060SOL    HW2 6209   2.139   0.118   3.087
 2061SOL     OW 6210   1.899   1.310   3.144
 2061SOL    HW1 6211   1.952   1.261   3.212
 2061SOL    HW2 6212   1.921   1.408   3.149
 2062SOL     OW 6213   2.594   0.634   2.926
 2062SOL    HW1 6214   2.653   0.608   2.850
 2062SOL    HW2 6215   2.566   0.730   2.915
 2063SOL     OW 6216   3.590   0.935   3.716
 2063SOL    HW1 6217   3.544   0.928   3.627
 2063SOL    HW2 6218   3.528   0.979   3.782
 2064SOL     OW 6219   2.169   0.063   2.480
 2064SOL    HW1 6220   2.158   0.157   2.513
 2064SOL    HW2 6221   2.164   0.000   2.557
 2065SOL     OW 6222   3.484   0.367   2.236
 2065SOL    HW1 6223   3.486   0.291   2.300
 2065SOL    HW2 6224   3.436   0.444   2.276
 2066SOL     OW 6225   2.885   0.766   2.828
 2066SOL    HW1 6226   2.900   0.787   2.924
 2066SOL    HW2 6227   2.855   0.671   2.819
 2067SOL     OW 6228   2.842   1.573   3.562
 2067SOL    HW1 6229   2.822   1.617   3.474
 2067SOL    HW2 6230   2.881   1.482   3.546
 2068SOL     OW 6231   3.721   1.518   3.467
 2068SOL    HW1 6232   3.735   1.545   3.372
 2068SOL    HW2 6233   3.804   1.540   3.520
 2069SOL     OW 6234   2.212   0.898   3.666
 2069SOL    HW1 6235   2.288   0.942   3.714
 2069SOL    HW2 6236   2.247   0.851   3.584
 2070SOL     OW 6237   3.402   0.274   1.987
 2070SOL    HW1 6238   3.341   0.199   2.010
 2070SOL    HW2 6239   3.424   0.326   2.070
 2071SOL     OW 6240   3.165   0.838   1.904
 2071SOL    HW1 6241   3.199   0.745   1.919
 2071SOL    HW2 6242   3.183   0.865   1.809
 2072SOL     OW 6243   2.930   1.333   2.711
 2072SOL    HW1 6244   2.937   1.249   2.656
 2072SOL    HW2 6245   2.992   1.402   2.675
 2073SOL     OW 6246   2.181   0.810   2.811
 2073SOL    HW1 6247   2.274   0.846   2.816
 2073SOL    HW2 6248   2.175   0.725   2.863
 2074SOL     OW 6249   2.201   0.509   2.868
 2074SOL    HW1 6250   2.149   0.426   2.851
 2074SOL    HW2 6251   2.278   0.514   2.804
 2075SOL     OW 6252   3.000   0.380   3.540
 2075SOL    HW1 6253   2.955   0.443   3.604
 2075SOL    HW2 6254   3.093   0.411   3.523
 2076SOL     OW 6255   3.022   0.207   3.339
 2076SOL    HW1 6256   3.022   0.271   3.416
 2076SOL    HW2 6257   3.050   0.255   3.256
 2077SOL     OW 6258   1.870   1.326   2.062
 2077SOL    HW1 6259   1.777   1.347   2.031
 2077SOL    HW2 6260   1.880   1.227   2.075
 2078SOL     OW 6261   1.950   1.801   2.789
 2078SOL    HW1 6262   1.908   1.715   2.762
 2078SOL    HW2 6263   2.044   1.804   2.755
 2079SOL     OW 6264   2.366   1.568   2.772
 2079SOL    HW1 6265   2.432   1.642   2.781
 2079SOL    HW2 6266   2.410   1.489   2.730
 2080SOL     OW 6267   2.864   0.796   3.100
 2080SOL    HW1 6268   2.905   0.764   3.186
 2080SOL    HW2 6269   2.768   0.769   3.097
 2081SOL     OW 6270   1.902   0.544   2.976
 2081SOL    HW1 6271   1.987   0.511   2.935
 2081SOL    HW2 6272   1.915   0.559   3.074
 2082SOL     OW 6273   2.051   0.520   3.584
 2082SOL    HW1 6274   2.110   0.480   3.514
 2082SOL    HW2 6275   1.993   0.591   3.543
 2083SOL     OW 6276   3.231   0.950   3.522
 2083SOL    HW1 6277   3.270   1.039   3.542
 2083SOL    HW2 6278   3.241   0.930   3.425
 2084SOL     OW 6279   2.677   0.572   2.187
 2084SOL    HW1 6280   2.684   0.483   2.141
 2084SOL    HW2 6281   2.583   0.606   2.179
 2085SOL     OW 6282   3.519   0.604   3.068
 2085SOL    HW1 6283   3.481   0.535   3.130
 2085SOL    HW2 6284   3.601   0.568   3.024
 2086SOL     OW 6285   2.114   1.564   3.606
 2086SOL    HW1 6286   2.084   1.621   3.682
 2086SOL    HW2 6287   2.107   1.467   3.632
 2087SOL     OW 6288   2.533   0.464   3.131
 2087SOL    HW1 6289   2.499   0.375   3.101
 2087SOL    HW2 6290   2.559   0.518   3.051
 2088SOL     OW 6291   2.792   1.678   3.327
 2088SOL    HW1 6292   2.768   1.660   3.232
 2088SOL    HW2 6293   2.822   1.772   3.337
 2089SOL     OW 6294   2.335   0.500   2.053
 2089SOL    HW1 6295   2.396   0.580   2.057
 2089SOL    HW2 6296   2.240   0.531   2.060
 2090SOL     OW 6297   2.021   1.137   3.328
 2090SOL    HW1 6298   2.043   1.076   3.404
 2090SOL    HW2 6299   2.031   1.088   3.242
 2091SOL     OW 6300   3.209   1.059   3.096
 2091SOL    HW1 6301   3.233   0.996   3.022
 2091SOL    HW2 6302   3.119   1.099   3.078
 2092SOL     OW 6303   3.164   0.855   2.171
 2092SOL    HW1 6304   3.078   0.824   2.213
 2092SOL    HW2 6305   3.160   0.841   2.072
 2093SOL     OW 6306   3.621   1.747   3.016
 2093SOL    HW1 6307   3.682   1.777   2.943
 2093SOL    HW2 6308   3.583   1.658   2.994
 2094SOL     OW 6309   3.114   1.731   2.990
 2094SOL    HW1 6310   3.198   1.736   2.936
 2094SOL    HW2 6311   3.091   1.635   3.008
 2095SOL     OW 6312   1.945   1.258   2.884
 2095SOL    HW1 6313   1.940   1.257   2.984
 2095SOL    HW2 6314   1.862   1.217   2.846
 2096SOL     OW 6315   2.550   1.662   3.578
 2096SOL    HW1 6316   2.494   1.743   3.587
 2096SOL    HW2 6317   2.602   1.666   3.492
 2097SOL     OW 6318   3.588   0.135   2.385
 2097SOL    HW1 6319   3.661   0.118   2.318
 2097SOL    HW2 6320   3.557   0.048   2.423
 2098SOL     OW 6321   3.250   1.573   2.339
 2098SOL    HW1 6322   3.317   1.585   2.265
 2098SOL    HW2 6323   3.210   1.662   2.362
 2099SOL     OW 6324   1.992   1.794   3.713
 2099SOL    HW1 6325   1.951   1.720   3.766
 2099SOL    HW2 6326   2.056   1.845   3.771
 2100SOL     OW 6327   3.142   0.927   2.534
 2100SOL    HW1 6328   3.202   0.846   2.536
 2100SOL    HW2 6329   3.182   0.996   2.474
 2101SOL     OW 6330   2.692   1.273   3.284
 2101SOL    HW1 6331   2.687   1.306   3.379
 2101SOL    HW2 6332   2.606   1.292   3.238
 2102SOL     OW 6333   2.534   1.616   2.016
 2102SOL    HW1 6334   2.543   1.626   1.917
 2102SOL    HW2 6335   2.494   1.527   2.037
 2103SOL     OW 6336   3.512   1.720   3.256
 2103SOL    HW1 6337   3.565   1.730   3.172
 2103SOL    HW2 6338   3.485   1.810   3.290
 2104SOL     OW 6339   3.703   0.175   2.825
 2104SOL    HW1 6340   3.742   0.090   2.789
 2104SOL    HW2 6341   3.605   0.177   2.806
 2105SOL     OW 6342   2.125   0.326   2.582
 2105SOL    HW1 6343   2.046   0.377   2.548
 2105SOL    HW2 6344   2.116   0.311   2.680
 2106SOL     OW 6345   3.056   1.612   1.893
 2106SOL    HW1 6346   3.062   1.519   1.930
 2106SOL    HW2 6347   2.997   1.612   1.813
 2107SOL     OW 6348   2.684   1.002   3.234
 2107SOL    HW1 6349   2.724   1.001   3.142
 2107SOL    HW2 6350   2.694   1.094   3.274
 2108SOL     OW 6351   2.778   0.910   2.153
 2108SOL    HW1 6352   2.841   0.948   2.085
 2108SOL    HW2 6353   2.818   0.827   2.192
 2109SOL     OW 6354   3.366   1.607   1.906
 2109SOL    HW1 6355   3.274   1.644   1.913
 2109SOL    HW2 6356   3.404   1.627   1.816
 2110SOL     OW 6357   2.234   1.288   3.352
 2110SOL    HW1 6358   2.221   1.381   3.318
 2110SOL    HW2 6359   2.150   1.236   3.339
 2111SOL     OW 6360   3.476   1.292   3.151
 2111SOL    HW1 6361   3.536   1.295   3.231
 2111SOL    HW2 6362   3.401   1.356   3.164
 2112SOL     OW 6363   2.901   1.098   2.558
 2112SOL    HW1 6364   2.831   1.051   2.612
 2112SOL    HW2 6365   2.960   1.030   2.515
 2113SOL     OW 6366   2.876   0.236   2.833
 2113SOL    HW1 6367   2.868   0.200   2.740
 2113SOL    HW2 6368   2.874   0.160   2.898
 2114SOL     OW 6369   2.452   1.487   2.353
 2114SOL    HW1 6370   2.494   1.429   2.283
 2114SOL    HW2 6371   2.408   1.566   2.309
 2115SOL     OW 6372   3.571   0.385   3.243
 2115SOL    HW1 6373   3.644   0.454   3.247
 2115SOL    HW2 6374   3.599   0.310   3.184
 2116SOL     OW 6375   2.117   1.348   2.152
 2116SOL    HW1 6376   2.021   1.349   2.125
 2116SOL    HW2 6377   2.129   1.401   2.236
 2117SOL     OW 6378   1.967   1.013   3.588
 2117SOL    HW1 6379   1.890   0.980   3.642
 2117SOL    HW2 6380   2.052   0.983   3.630
 2118SOL     OW 6381   2.534   0.203   3.351
 2118SOL    HW1 6382   2.624   0.187   3.311
 2118SOL    HW2 6383   2.542   0.208   3.450
 2119SOL     OW 6384   1.937   0.345   1.895
 2119SOL    HW1 6385   1.845   0.317   1.866
 2119SOL    HW2 6386   1.968   0.422   1.839
 2120SOL     OW 6387   3.302   0.856   3.260
 2120SOL    HW1 6388   3.245   0.908   3.197
 2120SOL    HW2 6389   3.398   0.868   3.236
 2121SOL     OW 6390   1.934   0.166   2.180
 2121SOL    HW1 6391   1.917   0.249   2.126
 2121SOL    HW2 6392   2.024   0.129   2.158
 2122SOL     OW 6393   3.045   1.335   1.981
 2122SOL    HW1 6394   2.946   1.324   1.983
 2122SOL    HW2 6395   3.079   1.350   2.074
 2123SOL     OW 6396   2.475   0.842   3.293
 2123SOL    HW1 6397   2.531   0.923   3.276
 2123SOL    HW2 6398   2.534   0.762   3.296
 2124SOL     OW 6399   3.355   1.767   2.821
 2124SOL    HW1 6400   3.388   1.831   2.752
 2124SOL    HW2 6401   3.421   1.761   2.896
 2125SOL     OW 6402   2.578   0.565   3.570
 2125SOL    HW1 6403   2.597   0.630   3.644
 2125SOL    HW2 6404   2.638   0.485   3.579
 2126SOL     OW 6405   3.312   1.220   3.495
 2126SOL    HW1 6406   3.303   1.210   3.594
 2126SOL    HW2 6407   3.408   1.213   3.469
 2127SOL     OW 6408   2.252   1.741   3.422
 2127SOL    HW1 6409   2.161   1.782   3.420
 2127SOL    HW2 6410   2.245   1.647   3.454
 2128SOL     OW 6411   3.536   0.883   3.116
 2128SOL    HW1 6412   3.509   0.794   3.079
 2128SOL    HW2 6413   3.537   0.951   3.043
 2129SOL     OW 6414   3.087   0.325   2.311
 2129SOL    HW1 6415   3.152   0.251   2.300
 2129SOL    HW2 6416   3.107   0.375   2.395
 2130SOL     OW 6417   2.456   0.745   2.514
 2130SOL    HW1 6418   2.506   0.830   2.495
 2130SOL    HW2 6419   2.368   0.747   2.466
 2131SOL     OW 6420   3.639   0.342   3.504
 2131SOL    HW1 6421   3.622   0.373   3.410
 2131SOL    HW2 6422   3.555   0.305   3.542
 2132SOL     OW 6423   3.592   0.934   3.379
 2132SOL    HW1 6424   3.630   1.025   3.394
 2132SOL    HW2 6425   3.584   0.917   3.280
 2133SOL     OW 6426   2.721   1.374   1.878
 2133SOL    HW1 6427   2.675   1.389   1.966
 2133SOL    HW2 6428   2.765   1.459   1.848
 2134SOL     OW 6429   2.523   1.790   2.815
 2134SOL    HW1 6430   2.477   1.878   2.802
 2134SOL    HW2 6431   2.622   1.802   2.808
 2135SOL     OW 6432   2.721   0.956   2.723
 2135SOL    HW1 6433   2.775   0.887   2.771
 2135SOL    HW2 6434   2.689   1.025   2.789
 2136SOL     OW 6435   2.945   0.984   1.949
 2136SOL    HW1 6436   2.922   1.037   1.867
 2136SOL    HW2 6437   3.026   0.928   1.930
 2137SOL     OW 6438   3.723   1.569   2.713
 2137SOL    HW1 6439   3.652   1.557   2.643
 2137SOL    HW2 6440   3.724   1.490   2.773
 2138SOL     OW 6441   2.083   1.314   3.706
 2138SOL    HW1 6442   2.018   1.241   3.685
 2138SOL    HW2 6443   2.087   1.328   3.804
 2139SOL     OW 6444   1.941   1.240   2.515
 2139SOL    HW1 6445   1.940   1.193   2.603
 2139SOL    HW2 6446   2.023   1.212   2.464
 2140SOL     OW 6447   2.534   1.391   3.486
 2140SOL    HW1 6448   2.456   1.341   3.524
 2140SOL    HW2 6449   2.531   1.486   3.517
 2141SOL     OW 6450   3.686   0.192   3.089
 2141SOL    HW1 6451   3.682   0.102   3.133
 2141SOL    HW2 6452   3.689   0.181   2.990
 2142SOL     OW 6453   2.290   0.424   2.382
 2142SOL    HW1 6454   2.320   0.352   2.320
 2142SOL    HW2 6455   2.251   0.384   2.465
 2143SOL     OW 6456   3.567   1.487   2.966
 2143SOL    HW1 6457   3.474   1.462   2.939
 2143SOL    HW2 6458   3.593   1.437   3.048
 2144SOL     OW 6459   2.179   0.547   3.142
 2144SOL    HW1 6460   2.217   0.488   3.214
 2144SOL    HW2 6461   2.219   0.521   3.054
 2145SOL     OW 6462   2.674   1.586   2.549
 2145SOL    HW1 6463   2.706   1.596   2.455
 2145SOL    HW2 6464   2.595   1.524   2.551
 2146SOL     OW 6465   3.286   0.214   2.974
 2146SOL    HW1 6466   3.338   0.149   3.029
 2146SOL    HW2 6467   3.237   0.277   3.035
 2147SOL     OW 6468   2.863   0.034   3.016
 2147SOL    HW1 6469   2.800  -0.038   2.985
 2147SOL    HW2 6470   2.956  -0.002   3.016
 2148SOL     OW 6471   2.632   1.330   2.163
 2148SOL    HW1 6472   2.586   1.243   2.180
 2148SOL    HW2 6473   2.723   1.327   2.204
 2149SOL     OW 6474   2.480   1.567   3.146
 2149SOL    HW1 6475   2.475   1.649   3.203
 2149SOL    HW2 6476   2.569   1.564   3.101
 2150SOL     OW 6477   3.214   0.052   2.030
 2150SOL    HW1 6478   3.249   0.011   1.946
 2150SOL    HW2 6479   3.124   0.014   2.050
 2151SOL     OW 6480   3.162   0.453   2.553
 2151SOL    HW1 6481   3.103   0.533   2.557
 2151SOL    HW2 6482   3.177   0.418   2.646
 2152SOL     OW 6483   3.455   0.221   2.744
 2152SOL    HW1 6484   3.371   0.220   2.798
 2152SOL    HW2 6485   3.457   0.304   2.688
 2153SOL     OW 6486   1.901   1.077   2.162
 2153SOL    HW1 6487   2.000   1.066   2.153
 2153SOL    HW2 6488   1.861   0.991   2.194
 2154SOL     OW 6489   2.737   1.646   2.199
 2154SOL    HW1 6490   2.660   1.611   2.145
 2154SOL    HW2 6491   2.705   1.717   2.261
 2155SOL     OW 6492   2.092   0.628   3.837
 2155SOL    HW1 6493   1.999   0.626   3.874
 2155SOL    HW2 6494   2.093   0.589   3.745
 2156SOL     OW 6495   2.087   0.275   4.720
 2156SOL    HW1 6496   2.122   0.258   4.812
 2156SOL    HW2 6497   1.999   0.230   4.708
 2157SOL     OW 6498   1.881   0.368   4.371
 2157SOL    HW1 6499   1.799   0.411   4.410
 2157SOL    HW2 6500   1.853   0.295   4.308
 2158SOL     OW 6501   2.431   1.275   4.889
 2158SOL    HW1 6502   2.338   1.268   4.852
 2158SOL    HW2 6503   2.442   1.364   4.933
 2159SOL     OW 6504   3.417   1.511   4.427
 2159SOL    HW1 6505   3.360   1.495   4.508
 2159SOL    HW2 6506   3.358   1.521   4.347
 2160SOL     OW 6507   2.997   0.703   4.441
 2160SOL    HW1 6508   3.054   0.781   4.416
 2160SOL    HW2 6509   2.937   0.729   4.517
 2161SOL     OW 6510   3.617   0.607   3.955
 2161SOL    HW1 6511   3.605   0.594   3.856
 2161SOL    HW2 6512   3.587   0.526   4.004
 2162SOL     OW 6513   2.630   1.144   4.747
 2162SOL    HW1 6514   2.552   1.161   4.807
 2162SOL    HW2 6515   2.664   1.231   4.711
 2163SOL     OW 6516   2.547   1.012   4.389
 2163SOL    HW1 6517   2.616   0.996   4.459
 2163SOL    HW2 6518   2.474   1.069   4.427
 2164SOL     OW 6519   2.197   1.435   4.785
 2164SOL    HW1 6520   2.119   1.404   4.732
 2164SOL    HW2 6521   2.255   1.493   4.728
 2165SOL     OW 6522   3.322   1.505   5.063
 2165SOL    HW1 6523   3.346   1.599   5.089
 2165SOL    HW2 6524   3.306   1.451   5.145
 2166SOL     OW 6525   2.300   0.392   5.223
 2166SOL    HW1 6526   2.382   0.336   5.232
 2166SOL    HW2 6527   2.219   0.334   5.227
 2167SOL     OW 6528   3.465   0.447   4.461
 2167SOL    HW1 6529   3.391   0.493   4.411
 2167SOL    HW2 6530   3.516   0.515   4.514
 2168SOL     OW 6531   2.093   1.713   4.207
 2168SOL    HW1 6532   2.127   1.790   4.261
 2168SOL    HW2 6533   2.137   1.713   4.117
 2169SOL     OW 6534   2.092   1.434   4.262
 2169SOL    HW1 6535   2.066   1.530   4.262
 2169SOL    HW2 6536   2.021   1.380   4.307
 2170SOL     OW 6537   2.102   1.091   4.610
 2170SOL    HW1 6538   2.116   1.007   4.662
 2170SOL    HW2 6539   2.047   1.155   4.665
 2171SOL     OW 6540   2.482   1.786   5.163
 2171SOL    HW1 6541   2.390   1.769   5.198
 2171SOL    HW2 6542   2.510   1.878   5.189
 2172SOL     OW 6543   2.468   0.964   3.847
 2172SOL    HW1 6544   2.475   1.048   3.793
 2172SOL    HW2 6545   2.514   0.977   3.935
 2173SOL     OW 6546   3.456   0.114   5.204
 2173SOL    HW1 6547   3.438   0.181   5.132
 2173SOL    HW2 6548   3.453   0.160   5.293
 2174SOL     OW 6549   1.984   0.643   4.287
 2174SOL    HW1 6550   1.939   0.555   4.304
 2174SOL    HW2 6551   1.983   0.697   4.371
 2175SOL     OW 6552   3.704   1.767   4.083
 2175SOL    HW1 6553   3.758   1.738   4.163
 2175SOL    HW2 6554   3.734   1.857   4.054
 2176SOL     OW 6555   1.889   1.596   3.841
 2176SOL    HW1 6556   1.870   1.500   3.862
 2176SOL    HW2 6557   1.856   1.654   3.916
 2177SOL     OW 6558   3.551   0.922   4.336
 2177SOL    HW1 6559   3.646   0.893   4.344
 2177SOL    HW2 6560   3.543   0.987   4.261
 2178SOL     OW 6561   3.503   1.108   4.156
 2178SOL    HW1 6562   3.589   1.110   4.104
 2178SOL    HW2 6563   3.517   1.155   4.244
 2179SOL     OW 6564   2.475   1.365   4.450
 2179SOL    HW1 6565   2.426   1.278   4.459
 2179SOL    HW2 6566   2.452   1.408   4.363
 2180SOL     OW 6567   3.155   1.228   5.147
 2180SOL    HW1 6568   3.192   1.155   5.089
 2180SOL    HW2 6569   3.207   1.233   5.232
 2181SOL     OW 6570   2.671   0.004   4.226
 2181SOL    HW1 6571   2.711   0.095   4.217
 2181SOL    HW2 6572   2.571   0.012   4.232
 2182SOL     OW 6573   2.059   0.976   4.988
 2182SOL    HW1 6574   2.148   0.931   4.974
 2182SOL    HW2 6575   1.986   0.911   4.969
 2183SOL     OW 6576   3.387   0.999   3.914
 2183SOL    HW1 6577   3.324   0.923   3.927
 2183SOL    HW2 6578   3.435   1.017   4.000
 2184SOL     OW 6579   3.328   1.417   4.677
 2184SOL    HW1 6580   3.269   1.423   4.757
 2184SOL    HW2 6581   3.313   1.329   4.631
 2185SOL     OW 6582   3.529   1.714   4.296
 2185SOL    HW1 6583   3.488   1.691   4.208
 2185SOL    HW2 6584   3.511   1.640   4.361
 2186SOL     OW 6585   2.460   0.729   3.994
 2186SOL    HW1 6586   2.484   0.798   3.926
 2186SOL    HW2 6587   2.382   0.762   4.048
 2187SOL     OW 6588   3.143   0.345   4.668
 2187SOL    HW1 6589   3.057   0.295   4.655
 2187SOL    HW2 6590   3.205   0.291   4.724
 2188SOL     OW 6591   3.438   1.662   4.031
 2188SOL    HW1 6592   3.527   1.708   4.034
 2188SOL    HW2 6593   3.417   1.638   3.936
 2189SOL     OW 6594   2.669   0.605   5.189
 2189SOL    HW1 6595   2.622   0.602   5.278
 2189SOL    HW2 6596   2.618   0.550   5.123
 2190SOL     OW 6597   2.835   0.890   5.296
 2190SOL    HW1 6598   2.881   0.806   5.267
 2190SOL    HW2 6599   2.779   0.924   5.221
 2191SOL     OW 6600   2.853   0.410   4.966
 2191SOL    HW1 6601   2.776   0.444   5.020
 2191SOL    HW2 6602   2.819   0.359   4.887
 2192SOL     OW 6603   2.903   0.701   4.153
 2192SOL    HW1 6604   2.929   0.697   4.249
 2192SOL    HW2 6605   2.818   0.650   4.139
 2193SOL     OW 6606   1.938   0.811   4.513
 2193SOL    HW1 6607   2.037   0.799   4.522
 2193SOL    HW2 6608   1.914   0.906   4.534
 2194SOL     OW 6609   1.992   1.821   5.295
 2194SOL    HW1 6610   1.982   1.806   5.394
 2194SOL    HW2 6611   1.906   1.857   5.259
 2195SOL     OW 6612   2.727   0.348   3.919
 2195SOL    HW1 6613   2.786   0.411   3.870
 2195SOL    HW2 6614   2.746   0.254   3.890
 2196SOL     OW 6615   3.224   1.144   4.269
 2196SOL    HW1 6616   3.307   1.115   4.221
 2196SOL    HW2 6617   3.175   1.211   4.213
 2197SOL     OW 6618   2.412   0.196   4.609
 2197SOL    HW1 6619   2.407   0.191   4.709
 2197SOL    HW2 6620   2.414   0.292   4.580
 2198SOL     OW 6621   2.870   1.456   4.201
 2198SOL    HW1 6622   2.824   1.528   4.149
 2198SOL    HW2 6623   2.866   1.476   4.299
 2199SOL     OW 6624   2.213   1.801   4.577
 2199SOL    HW1 6625   2.263   1.715   4.583
 2199SOL    HW2 6626   2.278   1.878   4.574
 2200SOL     OW 6627   3.657   1.066   4.597
 2200SOL    HW1 6628   3.595   1.051   4.521
 2200SOL    HW2 6629   3.605   1.077   4.682
 2201SOL     OW 6630   2.183   0.943   3.966
 2201SOL    HW1 6631   2.265   0.982   3.924
 2201SOL    HW2 6632   2.156   0.861   3.917
 2202SOL     OW 6633   3.320   0.735   4.452
 2202SOL    HW1 6634   3.315   0.670   4.527
 2202SOL    HW2 6635   3.400   0.794   4.465
 2203SOL     OW 6636   2.973   1.776   3.961
 2203SOL    HW1 6637   2.913   1.714   4.011
 2203SOL    HW2 6638   3.004   1.732   3.876
 2204SOL     OW 6639   2.064   0.285   5.222
 2204SOL    HW1 6640   1.984   0.345   5.209
 2204SOL    HW2 6641   2.054   0.236   5.308
 2205SOL     OW 6642   3.494   1.377   3.805
 2205SOL    HW1 6643   3.462   1.471   3.795
 2205SOL    HW2 6644   3.418   1.314   3.793
 2206SOL     OW 6645   2.326   1.743   4.047
 2206SOL    HW1 6646   2.359   1.782   4.133
 2206SOL    HW2 6647   2.402   1.736   3.982
 2207SOL     OW 6648   3.262   0.107   4.150
 2207SOL    HW1 6649   3.238   0.070   4.060
 2207SOL    HW2 6650   3.361   0.123   4.154
 2208SOL     OW 6651   2.111   1.785   4.965
 2208SOL    HW1 6652   2.168   1.720   5.015
 2208SOL    HW2 6653   2.095   1.752   4.872
 2209SOL     OW 6654   2.802   1.698   4.628
 2209SOL    HW1 6655   2.882   1.641   4.649
 2209SOL    HW2 6656   2.753   1.658   4.551
 2210SOL     OW 6657   2.244   0.700   4.204
 2210SOL    HW1 6658   2.289   0.610   4.201
 2210SOL    HW2 6659   2.150   0.689   4.237
 2211SOL     OW 6660   2.476   0.122   3.841
 2211SOL    HW1 6661   2.574   0.100   3.848
 2211SOL    HW2 6662   2.445   0.105   3.748
 2212SOL     OW 6663   2.750   1.514   4.919
 2212SOL    HW1 6664   2.727   1.489   4.825
 2212SOL    HW2 6665   2.811   1.445   4.958
 2213SOL     OW 6666   3.213   0.590   5.157
 2213SOL    HW1 6667   3.241   0.547   5.242
 2213SOL    HW2 6668   3.238   0.686   5.158
 2214SOL     OW 6669   2.665   1.402   4.648
 2214SOL    HW1 6670   2.755   1.416   4.606
 2214SOL    HW2 6671   2.594   1.404   4.577
 2215SOL     OW 6672   2.784   0.503   4.623
 2215SOL    HW1 6673   2.759   0.494   4.527
 2215SOL    HW2 6674   2.832   0.421   4.654
 2216SOL     OW 6675   2.401   0.064   4.236
 2216SOL    HW1 6676   2.320   0.065   4.294
 2216SOL    HW2 6677   2.404   0.147   4.181
 2217SOL     OW 6678   3.296   1.188   3.765
 2217SOL    HW1 6679   3.328   1.112   3.822
 2217SOL    HW2 6680   3.204   1.215   3.795
 2218SOL     OW 6681   2.159   0.035   3.895
 2218SOL    HW1 6682   2.208   0.119   3.874
 2218SOL    HW2 6683   2.221  -0.030   3.940
 2219SOL     OW 6684   2.797   0.236   4.204
 2219SOL    HW1 6685   2.749   0.277   4.126
 2219SOL    HW2 6686   2.896   0.234   4.185
 2220SOL     OW 6687   3.089   1.570   4.517
 2220SOL    HW1 6688   3.110   1.644   4.452
 2220SOL    HW2 6689   3.157   1.570   4.590
 2221SOL     OW 6690   2.321   1.152   4.465
 2221SOL    HW1 6691   2.250   1.125   4.530
 2221SOL    HW2 6692   2.295   1.124   4.372
 2222SOL     OW 6693   3.133   1.797   4.315
 2222SOL    HW1 6694   3.177   1.861   4.251
 2222SOL    HW2 6695   3.083   1.849   4.385
 2223SOL     OW 6696   2.894   0.549   3.740
 2223SOL    HW1 6697   2.853   0.631   3.701
 2223SOL    HW2 6698   2.958   0.575   3.813
 2224SOL     OW 6699   1.940   0.556   5.110
 2224SOL    HW1 6700   2.032   0.555   5.069
 2224SOL    HW2 6701   1.934   0.630   5.177
 2225SOL     OW 6702   2.423   0.222   4.871
 2225SOL    HW1 6703   2.461   0.138   4.908
 2225SOL    HW2 6704   2.335   0.241   4.915
 2226SOL     OW 6705   2.728   0.454   4.366
 2226SOL    HW1 6706   2.696   0.526   4.304
 2226SOL    HW2 6707   2.752   0.373   4.313
 2227SOL     OW 6708   2.879   0.039   4.477
 2227SOL    HW1 6709   2.807   0.044   4.408
 2227SOL    HW2 6710   2.855  -0.030   4.546
 2228SOL     OW 6711   3.291   1.173   4.591
 2228SOL    HW1 6712   3.236   1.089   4.584
 2228SOL    HW2 6713   3.317   1.202   4.499
 2229SOL     OW 6714   3.328   0.590   4.716
 2229SOL    HW1 6715   3.298   0.495   4.723
 2229SOL    HW2 6716   3.401   0.606   4.782
 2230SOL     OW 6717   3.719   0.833   4.101
 2230SOL    HW1 6718   3.761   0.769   4.165
 2230SOL    HW2 6719   3.681   0.782   4.023
 2231SOL     OW 6720   2.350   1.385   3.898
 2231SOL    HW1 6721   2.263   1.370   3.945
 2231SOL    HW2 6722   2.333   1.411   3.803
 2232SOL     OW 6723   3.526   1.280   4.381
 2232SOL    HW1 6724   3.625   1.288   4.395
 2232SOL    HW2 6725   3.481   1.364   4.412
 2233SOL     OW 6726   3.252   0.575   3.802
 2233SOL    HW1 6727   3.198   0.554   3.883
 2233SOL    HW2 6728   3.343   0.534   3.811
 2234SOL     OW 6729   2.389   0.256   4.052
 2234SOL    HW1 6730   2.416   0.197   3.977
 2234SOL    HW2 6731   2.389   0.351   4.021
 2235SOL     OW 6732   3.616   1.223   5.312
 2235SOL    HW1 6733   3.707   1.184   5.299
 2235SOL    HW2 6734   3.624   1.319   5.336
 2236SOL     OW 6735   2.926   1.347   5.064
 2236SOL    HW1 6736   2.846   1.324   5.119
 2236SOL    HW2 6737   3.009   1.321   5.113
 2237SOL     OW 6738   2.973   1.195   4.824
 2237SOL    HW1 6739   2.933   1.239   4.905
 2237SOL    HW2 6740   2.932   1.232   4.741
 2238SOL     OW 6741   3.500   1.099   4.803
 2238SOL    HW1 6742   3.505   1.180   4.862
 2238SOL    HW2 6743   3.414   1.101   4.752
 2239SOL     OW 6744   2.777   0.089   5.126
 2239SOL    HW1 6745   2.802   0.069   5.031
 2239SOL    HW2 6746   2.849   0.145   5.168
 2240SOL     OW 6747   2.567   1.050   4.092
 2240SOL    HW1 6748   2.553   1.057   4.191
 2240SOL    HW2 6749   2.651   0.999   4.074
 2241SOL     OW 6750   2.272   0.813   4.975
 2241SOL    HW1 6751   2.358   0.825   5.025
 2241SOL    HW2 6752   2.230   0.726   5.002
 2242SOL     OW 6753   3.136   0.386   4.986
 2242SOL    HW1 6754   3.157   0.460   5.050
 2242SOL    HW2 6755   3.047   0.403   4.943
 2243SOL     OW 6756   1.926   1.564   5.055
 2243SOL    HW1 6757   1.880   1.646   5.021
 2243SOL    HW2 6758   2.024   1.583   5.064
 2244SOL     OW 6759   2.229   1.100   4.225
 2244SOL    HW1 6760   2.222   1.183   4.169
 2244SOL    HW2 6761   2.233   1.020   4.165
 2245SOL     OW 6762   2.428   0.537   4.589
 2245SOL    HW1 6763   2.440   0.603   4.515
 2245SOL    HW2 6764   2.474   0.571   4.672
 2246SOL     OW 6765   3.114   1.348   4.112
 2246SOL    HW1 6766   3.164   1.425   4.152
 2246SOL    HW2 6767   3.019   1.350   4.144
 2247SOL     OW 6768   3.134   1.445   4.866
 2247SOL    HW1 6769   3.181   1.458   4.953
 2247SOL    HW2 6770   3.068   1.371   4.875
 2248SOL     OW 6771   3.444   0.639   4.196
 2248SOL    HW1 6772   3.413   0.700   4.269
 2248SOL    HW2 6773   3.494   0.691   4.127
 2249SOL     OW 6774   2.216   1.510   5.053
 2249SOL    HW1 6775   2.195   1.466   4.966
 2249SOL    HW2 6776   2.313   1.536   5.056
 2250SOL     OW 6777   2.264   0.751   5.322
 2250SOL    HW1 6778   2.332   0.806   5.275
 2250SOL    HW2 6779   2.304   0.663   5.349
 2251SOL     OW 6780   3.449   0.779   5.394
 2251SOL    HW1 6781   3.357   0.817   5.389
 2251SOL    HW2 6782   3.509   0.826   5.329
 2252SOL     OW 6783   2.435   0.870   4.753
 2252SOL    HW1 6784   2.479   0.959   4.744
 2252SOL    HW2 6785   2.372   0.870   4.830
 2253SOL     OW 6786   3.222   0.862   4.769
 2253SOL    HW1 6787   3.147   0.862   4.703
 2253SOL    HW2 6788   3.259   0.770   4.778
 2254SOL     OW 6789   3.071   0.525   3.999
 2254SOL    HW1 6790   3.084   0.441   4.053
 2254SOL    HW2 6791   3.042   0.599   4.059
 2255SOL     OW 6792   2.169   0.213   4.955
 2255SOL    HW1 6793   2.146   0.250   5.045
 2255SOL    HW2 6794   2.139   0.118   4.949
 2256SOL     OW 6795   1.899   1.310   5.006
 2256SOL    HW1 6796   1.952   1.261   5.074
 2256SOL    HW2 6797   1.921   1.408   5.011
 2257SOL     OW 6798   2.594   0.634   4.788
 2257SOL    HW1 6799   2.653   0.608   4.712
 2257SOL    HW2 6800   2.566   0.730   4.777
 2258SOL     OW 6801   2.169   0.063   4.342
 2258SOL    HW1 6802   2.158   0.157   4.375
 2258SOL    HW2 6803   2.164   0.000   4.419
 2259SOL     OW 6804   3.484   0.367   4.098
 2259SOL    HW1 6805   3.486   0.291   4.162
 2259SOL    HW2 6806   3.436   0.444   4.138
 2260SOL     OW 6807   2.885   0.766   4.690
 2260SOL    HW1 6808   2.900   0.787   4.786
 2260SOL    HW2 6809   2.855   0.671   4.681
 2261SOL     OW 6810   2.842   1.573   5.424
 2261SOL    HW1 6811   2.822   1.617   5.336
 2261SOL    HW2 6812   2.881   1.482   5.408
 2262SOL     OW 6813   3.402   0.274   3.849
 2262SOL    HW1 6814   3.341   0.199   3.872
 2262SOL    HW2 6815   3.424   0.326   3.932
 2263SOL     OW 6816   3.165   0.838   3.766
 2263SOL    HW1 6817   3.199   0.745   3.781
 2263SOL    HW2 6818   3.183   0.865   3.671
 2264SOL     OW 6819   2.930   1.333   4.573
 2264SOL    HW1 6820   2.937   1.249   4.518
 2264SOL    HW2 6821   2.992   1.402   4.537
 2265SOL     OW 6822   2.181   0.810   4.673
 2265SOL    HW1 6823   2.274   0.846   4.678
 2265SOL    HW2 6824   2.175   0.725   4.725
 2266SOL     OW 6825   2.201   0.509   4.730
 2266SOL    HW1 6826   2.149   0.426   4.713
 2266SOL    HW2 6827   2.278   0.514   4.666
 2267SOL     OW 6828   3.000   0.380   5.402
 2267SOL    HW1 6829   2.955   0.443   5.466
 2267SOL    HW2 6830   3.093   0.411   5.385
 2268SOL     OW 6831   3.022   0.207   5.201
 2268SOL    HW1 6832   3.022   0.271   5.278
 2268SOL    HW2 6833   3.050   0.255   5.118
 2269SOL     OW 6834   1.870   1.326   3.924
 2269SOL    HW1 6835   1.777   1.347   3.893
 2269SOL    HW2 6836   1.880   1.227   3.937
 2270SOL     OW 6837   1.950   1.801   4.651
 2270SOL    HW1 6838   1.908   1.715   4.624
 2270SOL    HW2 6839   2.044   1.804   4.617
 2271SOL     OW 6840   2.366   1.568   4.634
 2271SOL    HW1 6841   2.432   1.642   4.643
 2271SOL    HW2 6842   2.410   1.489   4.592
 2272SOL     OW 6843   2.864   0.796   4.962
 2272SOL    HW1 6844   2.905   0.764   5.048
 2272SOL    HW2 6845   2.768   0.769   4.959
 2273SOL     OW 6846   1.902   0.544   4.838
 2273SOL    HW1 6847   1.987   0.511   4.797
 2273SOL    HW2 6848   1.915   0.559   4.936
 2274SOL     OW 6849   2.677   0.572   4.049
 2274SOL    HW1 6850   2.684   0.483   4.003
 2274SOL    HW2 6851   2.583   0.606   4.041
 2275SOL     OW 6852   3.519   0.604   4.930
 2275SOL    HW1 6853   3.481   0.535   4.992
 2275SOL    HW2 6854   3.601   0.568   4.886
 2276SOL     OW 6855   2.114   1.564   5.468
 2276SOL    HW1 6856   2.084   1.621   5.544
 2276SOL    HW2 6857   2.107   1.467   5.494
 2277SOL     OW 6858   2.533   0.464   4.993
 2277SOL    HW1 6859   2.499   0.375   4.963
 2277SOL    HW2 6860   2.559   0.518   4.913
 2278SOL     OW 6861   2.792   1.678   5.189
 2278SOL    HW1 6862   2.768   1.660   5.094
 2278SOL    HW2 6863   2.822   1.772   5.199
 2279SOL     OW 6864   2.335   0.500   3.915
 2279SOL    HW1 6865   2.396   0.580   3.919
 2279SOL    HW2 6866   2.240   0.531   3.922
 2280SOL     OW 6867   2.021   1.137   5.190
 2280SOL    HW1 6868   2.043   1.076   5.266
 2280SOL    HW2 6869   2.031   1.088   5.104
 2281SOL     OW 6870   3.209   1.059   4.958
 2281SOL    HW1 6871   3.233   0.996   4.884
 2281SOL    HW2 6872   3.119   1.099   4.940
 2282SOL     OW 6873   3.164   0.855   4.033
 2282SOL    HW1 6874   3.078   0.824   4.075
 2282SOL    HW2 6875   3.160   0.841   3.934
 2283SOL     OW 6876   3.621   1.747   4.878
 2283SOL    HW1 6877   3.682   1.777   4.805
 2283SOL    HW2 6878   3.583   1.658   4.856
 2284SOL     OW 6879   3.114   1.731   4.852
 2284SOL    HW1 6880   3.198   1.736   4.798
 2284SOL    HW2 6881   3.091   1.635   4.870
 2285SOL     OW 6882   1.945   1.258   4.746
 2285SOL    HW1 6883   1.940   1.257   4.846
 2285SOL    HW2 6884   1.862   1.217   4.708
 2286SOL     OW 6885   3.588   0.135   4.247
 2286SOL    HW1 6886   3.661   0.118   4.180
 2286SOL    HW2 6887   3.557   0.048   4.285
 2287SOL     OW 6888   3.250   1.573   4.201
 2287SOL    HW1 6889   3.317   1.585   4.127
 2287SOL    HW2 6890   3.210   1.662   4.224
 2288SOL     OW 6891   3.142   0.927   4.396
 2288SOL    HW1 6892   3.202   0.846   4.398
 2288SOL    HW2 6893   3.182   0.996   4.336
 2289SOL     OW 6894   2.534   1.616   3.878
 2289SOL    HW1 6895   2.543   1.626   3.779
 2289SOL    HW2 6896   2.494   1.527   3.899
 2290SOL     OW 6897   3.512   1.720   5.118
 2290SOL    HW1 6898   3.565   1.730   5.034
 2290SOL    HW2 6899   3.485   1.810   5.152
 2291SOL     OW 6900   3.703   0.175   4.687
 2291SOL    HW1 6901   3.742   0.090   4.651
 2291SOL    HW2 6902   3.605   0.177   4.668
 2292SOL     OW 6903   2.125   0.326   4.444
 2292SOL    HW1 6904   2.046   0.377   4.410
 2292SOL    HW2 6905   2.116   0.311   4.542
 2293SOL     OW 6906   3.056   1.612   3.755
 2293SOL    HW1 6907   3.062   1.519   3.792
 2293SOL    HW2 6908   2.997   1.612   3.675
 2294SOL     OW 6909   2.684   1.002   5.096
 2294SOL    HW1 6910   2.724   1.001   5.004
 2294SOL    HW2 6911   2.694   1.094   5.136
 2295SOL     OW 6912   2.778   0.910   4.015
 2295SOL    HW1 6913   2.841   0.948   3.947
 2295SOL    HW2 6914   2.818   0.827   4.054
 2296SOL     OW 6915   3.366   1.607   3.768
 2296SOL    HW1 6916   3.274   1.644   3.775
 2296SOL    HW2 6917   3.404   1.627   3.678
 2297SOL     OW 6918   2.234   1.288   5.214
 2297SOL    HW1 6919   2.221   1.381   5.180
 2297SOL    HW2 6920   2.150   1.236   5.201
 2298SOL     OW 6921   3.476   1.292   5.013
 2298SOL    HW1 6922   3.536   1.295   5.093
 2298SOL    HW2 6923   3.401   1.356   5.026
 2299SOL     OW 6924   2.901   1.098   4.420
 2299SOL    HW1 6925   2.831   1.051   4.474
 2299SOL    HW2 6926   2.960   1.030   4.377
 2300SOL     OW 6927   2.876   0.236   4.695
 2300SOL    HW1 6928   2.868   0.200   4.602
 2300SOL    HW2 6929   2.874   0.160   4.760
 2301SOL     OW 6930   2.452   1.487   4.215
 2301SOL    HW1 6931   2.494   1.429   4.145
 2301SOL    HW2 6932   2.408   1.566   4.171
 2302SOL     OW 6933   3.571   0.385   5.105
 2302SOL    HW1 6934   3.644   0.454   5.109
 2302SOL    HW2 6935   3.599   0.310   5.046
 2303SOL     OW 6936   2.117   1.348   4.014
 2303SOL    HW1 6937   2.021   1.349   3.987
 2303SOL    HW2 6938   2.129   1.401   4.098
 2304SOL     OW 6939   2.534   0.203   5.213
 2304SOL    HW1 6940   2.624   0.187   5.173
 2304SOL    HW2 6941   2.542   0.208   5.312
 2305SOL     OW 6942   1.937   0.345   3.757
 2305SOL    HW1 6943   1.845   0.317   3.728
 2305SOL    HW2 6944   1.968   0.422   3.701
 2306SOL     OW 6945   3.302   0.856   5.122
 2306SOL    HW1 6946   3.245   0.908   5.059
 2306SOL    HW2 6947   3.398   0.868   5.098
 2307SOL     OW 6948   1.934   0.166   4.042
 2307SOL    HW1 6949   1.917   0.249   3.988
 2307SOL    HW2 6950   2.024   0.129   4.020
 2308SOL     OW 6951   3.045   1.335   3.843
 2308SOL    HW1 6952   2.946   1.324   3.845
 2308SOL    HW2 6953   3.079   1.350   3.936
 2309SOL     OW 6954   2.475   0.842   5.155
 2309SOL    HW1 6955   2.531   0.923   5.138
 2309SOL    HW2 6956   2.534   0.762   5.158
 2310SOL     OW 6957   3.355   1.767   4.683
 2310SOL    HW1 6958   3.388   1.831   4.614
 2310SOL    HW2 6959   3.421   1.761   4.758
 2311SOL     OW 6960   2.252   1.741   5.284
 2311SOL    HW1 6961   2.161   1.782   5.282
 2311SOL    HW2 6962   2.245   1.647   5.316
 2312SOL     OW 6963   3.536   0.883   4.978
 2312SOL    HW1 6964   3.509   0.794   4.941
 2312SOL    HW2 6965   3.537   0.951   4.905
 2313SOL     OW 6966   3.087   0.325   4.173
 2313SOL    HW1 6967   3.152   0.251   4.162
 2313SOL    HW2 6968   3.107   0.375   4.257
 2314SOL     OW 6969   2.456   0.745   4.376
 2314SOL    HW1 6970   2.506   0.830   4.357
 2314SOL    HW2 6971   2.368   0.747   4.328
 2315SOL     OW 6972   3.639   0.342   5.366
 2315SOL    HW1 6973   3.622   0.373   5.272
 2315SOL    HW2 6974   3.555   0.305   5.404
 2316SOL     OW 6975   3.592   0.934   5.241
 2316SOL    HW1 6976   3.630   1.025   5.256
 2316SOL    HW2 6977   3.584   0.917   5.142
 2317SOL     OW 6978   2.721   1.374   3.740
 2317SOL    HW1 6979   2.675   1.389   3.828
 2317SOL    HW2 6980   2.765   1.459   3.710
 2318SOL     OW 6981   2.523   1.790   4.677
 2318SOL    HW1 6982   2.477   1.878   4.664
 2318SOL    HW2 6983   2.622   1.802   4.670
 2319SOL     OW 6984   2.721   0.956   4.585
 2319SOL    HW1 6985   2.775   0.887   4.633
 2319SOL    HW2 6986   2.689   1.025   4.651
 2320SOL     OW 6987   2.945   0.984   3.811
 2320SOL    HW1 6988   2.922   1.037   3.729
 2320SOL    HW2 6989   3.026   0.928   3.792
 2321SOL     OW 6990   3.723   1.569   4.575
 2321SOL    HW1 6991   3.652   1.557   4.505
 2321SOL    HW2 6992   3.724   1.490   4.635
 2322SOL     OW 6993   1.941   1.240   4.377
 2322SOL    HW1 6994   1.940   1.193   4.465
 2322SOL    HW2 6995   2.023   1.212   4.326
 2323SOL     OW 6996   3.686   0.192   4.951
 2323SOL    HW1 6997   3.682   0.102   4.995
 2323SOL    HW2 6998   3.689   0.181   4.852
 2324SOL     OW 6999   2.290   0.424   4.244
 2324SOL    HW1 7000   2.320   0.352   4.182
 2324SOL    HW2 7001   2.251   0.384   4.327
 2325SOL     OW 7002   3.567   1.487   4.828
 2325SOL    HW1 7003   3.474   1.462   4.801
 2325SOL    HW2 7004   3.593   1.437   4.910
 2326SOL     OW 7005   2.179   0.547   5.004
 2326SOL    HW1 7006   2.217   0.488   5.076
 2326SOL    HW2 7007   2.219   0.521   4.916
 2327SOL     OW 7008   2.674   1.586   4.411
 2327SOL    HW1 7009   2.706   1.596   4.317
 2327SOL    HW2 7010   2.595   1.524   4.413
 2328SOL     OW 7011   3.286   0.214   4.836
 2328SOL    HW1 7012   3.338   0.149   4.891
 2328SOL    HW2 7013   3.237   0.277   4.897
 2329SOL     OW 7014   2.863   0.034   4.878
 2329SOL    HW1 7015   2.800  -0.038   4.847
 2329SOL    HW2 7016   2.956  -0.002   4.878
 2330SOL     OW 7017   2.632   1.330   4.025
 2330SOL    HW1 7018   2.586   1.243   4.042
 2330SOL    HW2 7019   2.723   1.327   4.066
 2331SOL     OW 7020   2.480   1.567   5.008
 2331SOL    HW1 7021   2.475   1.649   5.065
 2331SOL    HW2 7022   2.569   1.564   4.963
 2332SOL     OW 7023   3.214   0.052   3.892
 2332SOL    HW1 7024   3.249   0.011   3.808
 2332SOL    HW2 7025   3.124   0.014   3.912
 2333SOL     OW 7026   3.162   0.453   4.415
 2333SOL    HW1 7027   3.103   0.533   4.419
 2333SOL    HW2 7028   3.177   0.418   4.508
 2334SOL     OW 7029   3.455   0.221   4.606
 2334SOL    HW1 7030   3.371   0.220   4.660
 2334SOL    HW2 7031   3.457   0.304   4.550
 2335SOL     OW 7032   1.901   1.077   4.024
 2335SOL    HW1 7033   2.000   1.066   4.015
 2335SOL    HW2 7034   1.861   0.991   4.056
 2336SOL     OW 7035   2.737   1.646   4.061
 2336SOL    HW1 7036   2.660   1.611   4.007
 2336SOL    HW2 7037   2.705   1.717   4.123
 2337SOL     OW 7038   2.092   2.490   0.113
 2337SOL    HW1 7039   1.999   2.488   0.150
 2337SOL    HW2 7040   2.093   2.451   0.021
 2338SOL     OW 7041   2.087   2.137   0.996
 2338SOL    HW1 7042   2.122   2.120   1.088
 2338SOL    HW2 7043   1.999   2.092   0.984
 2339SOL     OW 7044   1.881   2.230   0.647
 2339SOL    HW1 7045   1.799   2.273   0.686
 2339SOL    HW2 7046   1.853   2.157   0.584
 2340SOL     OW 7047   2.431   3.137   1.165
 2340SOL    HW1 7048   2.338   3.130   1.128
 2340SOL    HW2 7049   2.442   3.226   1.209
 2341SOL     OW 7050   3.417   3.373   0.703
 2341SOL    HW1 7051   3.360   3.357   0.784
 2341SOL    HW2 7052   3.358   3.383   0.623
 2342SOL     OW 7053   2.997   2.565   0.717
 2342SOL    HW1 7054   3.054   2.643   0.692
 2342SOL    HW2 7055   2.937   2.591   0.793
 2343SOL     OW 7056   3.617   2.469   0.231
 2343SOL    HW1 7057   3.605   2.456   0.132
 2343SOL    HW2 7058   3.587   2.388   0.280
 2344SOL     OW 7059   2.630   3.006   1.023
 2344SOL    HW1 7060   2.552   3.023   1.083
 2344SOL    HW2 7061   2.664   3.093   0.987
 2345SOL     OW 7062   2.712   2.660   1.823
 2345SOL    HW1 7063   2.708   2.736   1.888
 2345SOL    HW2 7064   2.734   2.696   1.732
 2346SOL     OW 7065   2.547   2.874   0.665
 2346SOL    HW1 7066   2.616   2.858   0.735
 2346SOL    HW2 7067   2.474   2.931   0.703
 2347SOL     OW 7068   2.548   3.023   1.803
 2347SOL    HW1 7069   2.608   3.102   1.817
 2347SOL    HW2 7070   2.462   3.054   1.762
 2348SOL     OW 7071   2.197   3.297   1.061
 2348SOL    HW1 7072   2.119   3.266   1.008
 2348SOL    HW2 7073   2.255   3.355   1.004
 2349SOL     OW 7074   3.322   3.367   1.339
 2349SOL    HW1 7075   3.346   3.461   1.365
 2349SOL    HW2 7076   3.306   3.313   1.421
 2350SOL     OW 7077   2.300   2.254   1.499
 2350SOL    HW1 7078   2.382   2.198   1.508
 2350SOL    HW2 7079   2.219   2.196   1.503
 2351SOL     OW 7080   3.465   2.309   0.737
 2351SOL    HW1 7081   3.391   2.355   0.687
 2351SOL    HW2 7082   3.516   2.377   0.790
 2352SOL     OW 7083   2.093   3.575   0.483
 2352SOL    HW1 7084   2.127   3.652   0.537
 2352SOL    HW2 7085   2.137   3.575   0.393
 2353SOL     OW 7086   2.989   3.203   1.690
 2353SOL    HW1 7087   3.036   3.203   1.778
 2353SOL    HW2 7088   2.941   3.116   1.679
 2354SOL     OW 7089   2.092   3.296   0.538
 2354SOL    HW1 7090   2.066   3.392   0.538
 2354SOL    HW2 7091   2.021   3.242   0.583
 2355SOL     OW 7092   2.102   2.953   0.886
 2355SOL    HW1 7093   2.116   2.869   0.938
 2355SOL    HW2 7094   2.047   3.017   0.941
 2356SOL     OW 7095   2.482   3.648   1.439
 2356SOL    HW1 7096   2.390   3.631   1.474
 2356SOL    HW2 7097   2.510   3.740   1.465
 2357SOL     OW 7098   2.468   2.826   0.123
 2357SOL    HW1 7099   2.475   2.910   0.069
 2357SOL    HW2 7100   2.514   2.839   0.211
 2358SOL     OW 7101   3.456   1.976   1.480
 2358SOL    HW1 7102   3.438   2.043   1.408
 2358SOL    HW2 7103   3.453   2.022   1.569
 2359SOL     OW 7104   1.984   2.505   0.563
 2359SOL    HW1 7105   1.939   2.417   0.580
 2359SOL    HW2 7106   1.983   2.559   0.647
 2360SOL     OW 7107   3.704   3.629   0.359
 2360SOL    HW1 7108   3.758   3.600   0.439
 2360SOL    HW2 7109   3.734   3.719   0.330
 2361SOL     OW 7110   1.889   3.458   0.117
 2361SOL    HW1 7111   1.870   3.362   0.138
 2361SOL    HW2 7112   1.856   3.516   0.192
 2362SOL     OW 7113   3.551   2.784   0.612
 2362SOL    HW1 7114   3.646   2.755   0.620
 2362SOL    HW2 7115   3.543   2.849   0.537
 2363SOL     OW 7116   3.503   2.970   0.432
 2363SOL    HW1 7117   3.589   2.972   0.380
 2363SOL    HW2 7118   3.517   3.017   0.520
 2364SOL     OW 7119   1.975   2.599   1.597
 2364SOL    HW1 7120   2.063   2.586   1.642
 2364SOL    HW2 7121   1.962   2.696   1.575
 2365SOL     OW 7122   2.475   3.227   0.726
 2365SOL    HW1 7123   2.426   3.140   0.735
 2365SOL    HW2 7124   2.452   3.270   0.639
 2366SOL     OW 7125   3.155   3.090   1.423
 2366SOL    HW1 7126   3.192   3.017   1.365
 2366SOL    HW2 7127   3.207   3.095   1.508
 2367SOL     OW 7128   2.671   1.866   0.502
 2367SOL    HW1 7129   2.711   1.957   0.493
 2367SOL    HW2 7130   2.571   1.874   0.508
 2368SOL     OW 7131   2.059   2.838   1.264
 2368SOL    HW1 7132   2.148   2.793   1.250
 2368SOL    HW2 7133   1.986   2.773   1.245
 2369SOL     OW 7134   3.387   2.861   0.190
 2369SOL    HW1 7135   3.324   2.785   0.203
 2369SOL    HW2 7136   3.435   2.879   0.276
 2370SOL     OW 7137   3.049   3.654   1.616
 2370SOL    HW1 7138   3.073   3.714   1.540
 2370SOL    HW2 7139   3.056   3.559   1.586
 2371SOL     OW 7140   2.179   2.113   1.801
 2371SOL    HW1 7141   2.250   2.184   1.807
 2371SOL    HW2 7142   2.091   2.152   1.829
 2372SOL     OW 7143   3.328   3.279   0.953
 2372SOL    HW1 7144   3.269   3.285   1.033
 2372SOL    HW2 7145   3.313   3.191   0.907
 2373SOL     OW 7146   3.529   3.576   0.572
 2373SOL    HW1 7147   3.488   3.553   0.484
 2373SOL    HW2 7148   3.511   3.502   0.637
 2374SOL     OW 7149   2.460   2.591   0.270
 2374SOL    HW1 7150   2.484   2.660   0.202
 2374SOL    HW2 7151   2.382   2.624   0.324
 2375SOL     OW 7152   3.143   2.207   0.944
 2375SOL    HW1 7153   3.057   2.157   0.931
 2375SOL    HW2 7154   3.205   2.153   1.000
 2376SOL     OW 7155   3.438   3.524   0.307
 2376SOL    HW1 7156   3.527   3.570   0.310
 2376SOL    HW2 7157   3.417   3.500   0.212
 2377SOL     OW 7158   2.669   2.467   1.465
 2377SOL    HW1 7159   2.622   2.464   1.554
 2377SOL    HW2 7160   2.618   2.412   1.399
 2378SOL     OW 7161   3.256   2.331   1.674
 2378SOL    HW1 7162   3.236   2.374   1.762
 2378SOL    HW2 7163   3.334   2.269   1.683
 2379SOL     OW 7164   2.835   2.752   1.572
 2379SOL    HW1 7165   2.881   2.668   1.543
 2379SOL    HW2 7166   2.779   2.786   1.497
 2380SOL     OW 7167   2.853   2.272   1.242
 2380SOL    HW1 7168   2.776   2.306   1.296
 2380SOL    HW2 7169   2.819   2.221   1.163
 2381SOL     OW 7170   2.903   2.563   0.429
 2381SOL    HW1 7171   2.929   2.559   0.525
 2381SOL    HW2 7172   2.818   2.512   0.415
 2382SOL     OW 7173   1.938   2.673   0.789
 2382SOL    HW1 7174   2.037   2.661   0.798
 2382SOL    HW2 7175   1.914   2.768   0.810
 2383SOL     OW 7176   1.992   3.683   1.571
 2383SOL    HW1 7177   1.982   3.668   1.670
 2383SOL    HW2 7178   1.906   3.719   1.535
 2384SOL     OW 7179   2.727   2.210   0.195
 2384SOL    HW1 7180   2.786   2.273   0.146
 2384SOL    HW2 7181   2.746   2.116   0.166
 2385SOL     OW 7182   3.581   2.447   1.831
 2385SOL    HW1 7183   3.555   2.536   1.795
 2385SOL    HW2 7184   3.579   2.379   1.758
 2386SOL     OW 7185   3.224   3.006   0.545
 2386SOL    HW1 7186   3.307   2.977   0.497
 2386SOL    HW2 7187   3.175   3.073   0.489
 2387SOL     OW 7188   2.412   2.058   0.885
 2387SOL    HW1 7189   2.407   2.053   0.985
 2387SOL    HW2 7190   2.414   2.154   0.856
 2388SOL     OW 7191   2.870   3.318   0.477
 2388SOL    HW1 7192   2.824   3.390   0.425
 2388SOL    HW2 7193   2.866   3.338   0.575
 2389SOL     OW 7194   2.213   3.663   0.853
 2389SOL    HW1 7195   2.263   3.577   0.859
 2389SOL    HW2 7196   2.278   3.740   0.850
 2390SOL     OW 7197   3.657   2.928   0.873
 2390SOL    HW1 7198   3.595   2.913   0.797
 2390SOL    HW2 7199   3.605   2.939   0.958
 2391SOL     OW 7200   3.089   3.412   1.506
 2391SOL    HW1 7201   3.095   3.335   1.570
 2391SOL    HW2 7202   3.037   3.386   1.426
 2392SOL     OW 7203   2.183   2.805   0.242
 2392SOL    HW1 7204   2.265   2.844   0.200
 2392SOL    HW2 7205   2.156   2.723   0.193
 2393SOL     OW 7206   3.320   2.597   0.728
 2393SOL    HW1 7207   3.315   2.532   0.803
 2393SOL    HW2 7208   3.400   2.656   0.741
 2394SOL     OW 7209   2.323   3.128   1.727
 2394SOL    HW1 7210   2.273   3.129   1.641
 2394SOL    HW2 7211   2.260   3.110   1.803
 2395SOL     OW 7212   2.973   3.638   0.237
 2395SOL    HW1 7213   2.913   3.576   0.287
 2395SOL    HW2 7214   3.004   3.594   0.152
 2396SOL     OW 7215   2.064   2.147   1.498
 2396SOL    HW1 7216   1.984   2.207   1.485
 2396SOL    HW2 7217   2.054   2.098   1.584
 2397SOL     OW 7218   3.494   3.239   0.081
 2397SOL    HW1 7219   3.462   3.333   0.071
 2397SOL    HW2 7220   3.418   3.176   0.069
 2398SOL     OW 7221   2.326   3.605   0.323
 2398SOL    HW1 7222   2.359   3.644   0.409
 2398SOL    HW2 7223   2.402   3.598   0.258
 2399SOL     OW 7224   3.262   1.969   0.426
 2399SOL    HW1 7225   3.238   1.932   0.336
 2399SOL    HW2 7226   3.361   1.985   0.430
 2400SOL     OW 7227   2.111   3.647   1.241
 2400SOL    HW1 7228   2.168   3.582   1.291
 2400SOL    HW2 7229   2.095   3.614   1.148
 2401SOL     OW 7230   2.802   3.560   0.904
 2401SOL    HW1 7231   2.882   3.503   0.925
 2401SOL    HW2 7232   2.753   3.520   0.827
 2402SOL     OW 7233   2.244   2.562   0.480
 2402SOL    HW1 7234   2.289   2.472   0.477
 2402SOL    HW2 7235   2.150   2.551   0.513
 2403SOL     OW 7236   3.409   2.084   1.729
 2403SOL    HW1 7237   3.404   2.121   1.821
 2403SOL    HW2 7238   3.337   2.015   1.717
 2404SOL     OW 7239   2.476   1.984   0.117
 2404SOL    HW1 7240   2.574   1.962   0.124
 2404SOL    HW2 7241   2.445   1.967   0.024
 2405SOL     OW 7242   2.643   2.126   1.749
 2405SOL    HW1 7243   2.710   2.065   1.792
 2405SOL    HW2 7244   2.570   2.145   1.814
 2406SOL     OW 7245   2.750   3.376   1.195
 2406SOL    HW1 7246   2.727   3.351   1.101
 2406SOL    HW2 7247   2.811   3.307   1.234
 2407SOL     OW 7248   3.213   2.452   1.433
 2407SOL    HW1 7249   3.241   2.409   1.518
 2407SOL    HW2 7250   3.238   2.548   1.434
 2408SOL     OW 7251   2.665   3.264   0.924
 2408SOL    HW1 7252   2.755   3.278   0.882
 2408SOL    HW2 7253   2.594   3.266   0.853
 2409SOL     OW 7254   2.784   2.365   0.899
 2409SOL    HW1 7255   2.759   2.356   0.803
 2409SOL    HW2 7256   2.832   2.283   0.930
 2410SOL     OW 7257   2.401   1.926   0.512
 2410SOL    HW1 7258   2.320   1.927   0.570
 2410SOL    HW2 7259   2.404   2.009   0.457
 2411SOL     OW 7260   3.296   3.050   0.041
 2411SOL    HW1 7261   3.328   2.974   0.098
 2411SOL    HW2 7262   3.204   3.077   0.071
 2412SOL     OW 7263   2.159   1.897   0.171
 2412SOL    HW1 7264   2.208   1.981   0.150
 2412SOL    HW2 7265   2.221   1.832   0.216
 2413SOL     OW 7266   2.797   2.098   0.480
 2413SOL    HW1 7267   2.749   2.139   0.402
 2413SOL    HW2 7268   2.896   2.096   0.461
 2414SOL     OW 7269   2.938   2.545   1.464
 2414SOL    HW1 7270   2.858   2.484   1.467
 2414SOL    HW2 7271   3.019   2.492   1.440
 2415SOL     OW 7272   3.089   3.432   0.793
 2415SOL    HW1 7273   3.110   3.506   0.728
 2415SOL    HW2 7274   3.157   3.432   0.866
 2416SOL     OW 7275   2.321   3.014   0.741
 2416SOL    HW1 7276   2.250   2.987   0.806
 2416SOL    HW2 7277   2.295   2.986   0.648
 2417SOL     OW 7278   3.133   3.659   0.591
 2417SOL    HW1 7279   3.177   3.723   0.527
 2417SOL    HW2 7280   3.083   3.711   0.661
 2418SOL     OW 7281   2.894   2.411   0.016
 2418SOL    HW1 7282   2.853   2.493  -0.023
 2418SOL    HW2 7283   2.958   2.437   0.089
 2419SOL     OW 7284   1.940   2.418   1.386
 2419SOL    HW1 7285   2.032   2.417   1.345
 2419SOL    HW2 7286   1.934   2.492   1.453
 2420SOL     OW 7287   2.423   2.084   1.147
 2420SOL    HW1 7288   2.461   2.000   1.184
 2420SOL    HW2 7289   2.335   2.103   1.191
 2421SOL     OW 7290   2.728   2.316   0.642
 2421SOL    HW1 7291   2.696   2.388   0.580
 2421SOL    HW2 7292   2.752   2.235   0.589
 2422SOL     OW 7293   2.879   1.901   0.753
 2422SOL    HW1 7294   2.807   1.906   0.684
 2422SOL    HW2 7295   2.855   1.832   0.822
 2423SOL     OW 7296   3.291   3.035   0.867
 2423SOL    HW1 7297   3.236   2.951   0.860
 2423SOL    HW2 7298   3.317   3.064   0.775
 2424SOL     OW 7299   3.328   2.452   0.992
 2424SOL    HW1 7300   3.298   2.357   0.999
 2424SOL    HW2 7301   3.401   2.468   1.058
 2425SOL     OW 7302   3.719   2.695   0.377
 2425SOL    HW1 7303   3.761   2.631   0.441
 2425SOL    HW2 7304   3.681   2.644   0.299
 2426SOL     OW 7305   2.350   3.247   0.174
 2426SOL    HW1 7306   2.263   3.232   0.221
 2426SOL    HW2 7307   2.333   3.273   0.079
 2427SOL     OW 7308   3.526   3.142   0.657
 2427SOL    HW1 7309   3.625   3.150   0.671
 2427SOL    HW2 7310   3.481   3.226   0.688
 2428SOL     OW 7311   3.252   2.437   0.078
 2428SOL    HW1 7312   3.198   2.416   0.159
 2428SOL    HW2 7313   3.343   2.396   0.087
 2429SOL     OW 7314   2.389   2.118   0.328
 2429SOL    HW1 7315   2.416   2.059   0.253
 2429SOL    HW2 7316   2.389   2.213   0.297
 2430SOL     OW 7317   3.616   3.085   1.588
 2430SOL    HW1 7318   3.707   3.046   1.575
 2430SOL    HW2 7319   3.624   3.181   1.612
 2431SOL     OW 7320   2.926   3.209   1.340
 2431SOL    HW1 7321   2.846   3.186   1.395
 2431SOL    HW2 7322   3.009   3.183   1.389
 2432SOL     OW 7323   3.454   3.491   1.625
 2432SOL    HW1 7324   3.481   3.525   1.535
 2432SOL    HW2 7325   3.533   3.453   1.671
 2433SOL     OW 7326   2.973   3.057   1.100
 2433SOL    HW1 7327   2.933   3.101   1.181
 2433SOL    HW2 7328   2.932   3.094   1.017
 2434SOL     OW 7329   3.500   2.961   1.079
 2434SOL    HW1 7330   3.505   3.042   1.138
 2434SOL    HW2 7331   3.414   2.963   1.028
 2435SOL     OW 7332   2.777   1.951   1.402
 2435SOL    HW1 7333   2.802   1.931   1.307
 2435SOL    HW2 7334   2.849   2.007   1.444
 2436SOL     OW 7335   2.842   2.978   1.719
 2436SOL    HW1 7336   2.743   2.984   1.729
 2436SOL    HW2 7337   2.865   2.898   1.663
 2437SOL     OW 7338   2.567   2.912   0.368
 2437SOL    HW1 7339   2.553   2.919   0.467
 2437SOL    HW2 7340   2.651   2.861   0.350
 2438SOL     OW 7341   2.272   2.675   1.251
 2438SOL    HW1 7342   2.358   2.687   1.301
 2438SOL    HW2 7343   2.230   2.588   1.278
 2439SOL     OW 7344   3.136   2.248   1.262
 2439SOL    HW1 7345   3.157   2.322   1.326
 2439SOL    HW2 7346   3.047   2.265   1.219
 2440SOL     OW 7347   1.926   3.426   1.331
 2440SOL    HW1 7348   1.880   3.508   1.297
 2440SOL    HW2 7349   2.024   3.445   1.340
 2441SOL     OW 7350   2.229   2.962   0.501
 2441SOL    HW1 7351   2.222   3.045   0.445
 2441SOL    HW2 7352   2.233   2.882   0.441
 2442SOL     OW 7353   2.428   2.399   0.865
 2442SOL    HW1 7354   2.440   2.465   0.791
 2442SOL    HW2 7355   2.474   2.433   0.948
 2443SOL     OW 7356   3.114   3.210   0.388
 2443SOL    HW1 7357   3.164   3.287   0.428
 2443SOL    HW2 7358   3.019   3.212   0.420
 2444SOL     OW 7359   3.134   3.307   1.142
 2444SOL    HW1 7360   3.181   3.320   1.229
 2444SOL    HW2 7361   3.068   3.233   1.151
 2445SOL     OW 7362   3.444   2.501   0.472
 2445SOL    HW1 7363   3.413   2.562   0.545
 2445SOL    HW2 7364   3.494   2.553   0.403
 2446SOL     OW 7365   2.216   3.372   1.329
 2446SOL    HW1 7366   2.195   3.328   1.242
 2446SOL    HW2 7367   2.313   3.398   1.332
 2447SOL     OW 7368   2.264   2.613   1.598
 2447SOL    HW1 7369   2.332   2.668   1.551
 2447SOL    HW2 7370   2.304   2.525   1.625
 2448SOL     OW 7371   3.449   2.641   1.670
 2448SOL    HW1 7372   3.357   2.679   1.665
 2448SOL    HW2 7373   3.509   2.688   1.605
 2449SOL     OW 7374   2.875   1.967   1.770
 2449SOL    HW1 7375   2.881   2.052   1.718
 2449SOL    HW2 7376   2.907   1.891   1.713
 2450SOL     OW 7377   2.366   1.912   1.740
 2450SOL    HW1 7378   2.324   1.855   1.670
 2450SOL    HW2 7379   2.300   1.981   1.772
 2451SOL     OW 7380   2.435   2.732   1.029
 2451SOL    HW1 7381   2.479   2.821   1.020
 2451SOL    HW2 7382   2.372   2.732   1.106
 2452SOL     OW 7383   3.222   2.724   1.045
 2452SOL    HW1 7384   3.147   2.724   0.979
 2452SOL    HW2 7385   3.259   2.632   1.054
 2453SOL     OW 7386   3.071   2.387   0.275
 2453SOL    HW1 7387   3.084   2.303   0.329
 2453SOL    HW2 7388   3.042   2.461   0.335
 2454SOL     OW 7389   2.169   2.075   1.231
 2454SOL    HW1 7390   2.146   2.112   1.321
 2454SOL    HW2 7391   2.139   1.980   1.225
 2455SOL     OW 7392   1.899   3.172   1.282
 2455SOL    HW1 7393   1.952   3.123   1.350
 2455SOL    HW2 7394   1.921   3.270   1.287
 2456SOL     OW 7395   2.594   2.496   1.064
 2456SOL    HW1 7396   2.653   2.470   0.988
 2456SOL    HW2 7397   2.566   2.592   1.053
 2457SOL     OW 7398   3.590   2.797   1.854
 2457SOL    HW1 7399   3.544   2.790   1.765
 2457SOL    HW2 7400   3.528   2.841   1.920
 2458SOL     OW 7401   2.169   1.925   0.618
 2458SOL    HW1 7402   2.158   2.019   0.651
 2458SOL    HW2 7403   2.164   1.862   0.695
 2459SOL     OW 7404   3.484   2.229   0.374
 2459SOL    HW1 7405   3.486   2.153   0.438
 2459SOL    HW2 7406   3.436   2.306   0.414
 2460SOL     OW 7407   2.885   2.628   0.966
 2460SOL    HW1 7408   2.900   2.649   1.062
 2460SOL    HW2 7409   2.855   2.533   0.957
 2461SOL     OW 7410   2.842   3.435   1.700
 2461SOL    HW1 7411   2.822   3.479   1.612
 2461SOL    HW2 7412   2.881   3.344   1.684
 2462SOL     OW 7413   3.721   3.380   1.605
 2462SOL    HW1 7414   3.735   3.407   1.510
 2462SOL    HW2 7415   3.804   3.402   1.658
 2463SOL     OW 7416   2.212   2.760   1.804
 2463SOL    HW1 7417   2.288   2.804   1.852
 2463SOL    HW2 7418   2.247   2.713   1.722
 2464SOL     OW 7419   3.402   2.136   0.125
 2464SOL    HW1 7420   3.341   2.061   0.148
 2464SOL    HW2 7421   3.424   2.188   0.208
 2465SOL     OW 7422   3.165   2.700   0.042
 2465SOL    HW1 7423   3.199   2.607   0.057
 2465SOL    HW2 7424   3.183   2.727  -0.053
 2466SOL     OW 7425   2.930   3.195   0.849
 2466SOL    HW1 7426   2.937   3.111   0.794
 2466SOL    HW2 7427   2.992   3.264   0.813
 2467SOL     OW 7428   2.181   2.672   0.949
 2467SOL    HW1 7429   2.274   2.708   0.954
 2467SOL    HW2 7430   2.175   2.587   1.001
 2468SOL     OW 7431   2.201   2.371   1.006
 2468SOL    HW1 7432   2.149   2.288   0.989
 2468SOL    HW2 7433   2.278   2.376   0.942
 2469SOL     OW 7434   3.000   2.242   1.678
 2469SOL    HW1 7435   2.955   2.305   1.742
 2469SOL    HW2 7436   3.093   2.273   1.661
 2470SOL     OW 7437   3.022   2.069   1.477
 2470SOL    HW1 7438   3.022   2.133   1.554
 2470SOL    HW2 7439   3.050   2.117   1.394
 2471SOL     OW 7440   1.870   3.188   0.200
 2471SOL    HW1 7441   1.777   3.209   0.169
 2471SOL    HW2 7442   1.880   3.089   0.213
 2472SOL     OW 7443   1.950   3.663   0.927
 2472SOL    HW1 7444   1.908   3.577   0.900
 2472SOL    HW2 7445   2.044   3.666   0.893
 2473SOL     OW 7446   2.366   3.430   0.910
 2473SOL    HW1 7447   2.432   3.504   0.919
 2473SOL    HW2 7448   2.410   3.351   0.868
 2474SOL     OW 7449   2.864   2.658   1.238
 2474SOL    HW1 7450   2.905   2.626   1.324
 2474SOL    HW2 7451   2.768   2.631   1.235
 2475SOL     OW 7452   1.902   2.406   1.114
 2475SOL    HW1 7453   1.987   2.373   1.073
 2475SOL    HW2 7454   1.915   2.421   1.212
 2476SOL     OW 7455   2.051   2.382   1.722
 2476SOL    HW1 7456   2.110   2.342   1.652
 2476SOL    HW2 7457   1.993   2.453   1.681
 2477SOL     OW 7458   3.231   2.812   1.660
 2477SOL    HW1 7459   3.270   2.901   1.680
 2477SOL    HW2 7460   3.241   2.792   1.563
 2478SOL     OW 7461   2.677   2.434   0.325
 2478SOL    HW1 7462   2.684   2.345   0.279
 2478SOL    HW2 7463   2.583   2.468   0.317
 2479SOL     OW 7464   3.519   2.466   1.206
 2479SOL    HW1 7465   3.481   2.397   1.268
 2479SOL    HW2 7466   3.601   2.430   1.162
 2480SOL     OW 7467   2.114   3.426   1.744
 2480SOL    HW1 7468   2.084   3.483   1.820
 2480SOL    HW2 7469   2.107   3.329   1.770
 2481SOL     OW 7470   2.533   2.326   1.269
 2481SOL    HW1 7471   2.499   2.237   1.239
 2481SOL    HW2 7472   2.559   2.380   1.189
 2482SOL     OW 7473   2.792   3.540   1.465
 2482SOL    HW1 7474   2.768   3.522   1.370
 2482SOL    HW2 7475   2.822   3.634   1.475
 2483SOL     OW 7476   2.335   2.362   0.191
 2483SOL    HW1 7477   2.396   2.442   0.195
 2483SOL    HW2 7478   2.240   2.393   0.198
 2484SOL     OW 7479   2.021   2.999   1.466
 2484SOL    HW1 7480   2.043   2.938   1.542
 2484SOL    HW2 7481   2.031   2.950   1.380
 2485SOL     OW 7482   3.209   2.921   1.234
 2485SOL    HW1 7483   3.233   2.858   1.160
 2485SOL    HW2 7484   3.119   2.961   1.216
 2486SOL     OW 7485   3.164   2.717   0.309
 2486SOL    HW1 7486   3.078   2.686   0.351
 2486SOL    HW2 7487   3.160   2.703   0.210
 2487SOL     OW 7488   3.621   3.609   1.154
 2487SOL    HW1 7489   3.682   3.639   1.081
 2487SOL    HW2 7490   3.583   3.520   1.132
 2488SOL     OW 7491   3.114   3.593   1.128
 2488SOL    HW1 7492   3.198   3.598   1.074
 2488SOL    HW2 7493   3.091   3.497   1.146
 2489SOL     OW 7494   1.945   3.120   1.022
 2489SOL    HW1 7495   1.940   3.119   1.122
 2489SOL    HW2 7496   1.862   3.079   0.984
 2490SOL     OW 7497   2.550   3.524   1.716
 2490SOL    HW1 7498   2.494   3.605   1.725
 2490SOL    HW2 7499   2.602   3.528   1.630
 2491SOL     OW 7500   2.765   1.948   0.133
 2491SOL    HW1 7501   2.816   1.949   0.047
 2491SOL    HW2 7502   2.821   1.906   0.204
 2492SOL     OW 7503   3.588   1.997   0.523
 2492SOL    HW1 7504   3.661   1.980   0.456
 2492SOL    HW2 7505   3.557   1.910   0.561
 2493SOL     OW 7506   3.250   3.435   0.477
 2493SOL    HW1 7507   3.317   3.447   0.403
 2493SOL    HW2 7508   3.210   3.524   0.500
 2494SOL     OW 7509   1.992   3.656   1.851
 2494SOL    HW1 7510   1.951   3.582   1.904
 2494SOL    HW2 7511   2.056   3.707   1.909
 2495SOL     OW 7512   3.142   2.789   0.672
 2495SOL    HW1 7513   3.202   2.708   0.674
 2495SOL    HW2 7514   3.182   2.858   0.612
 2496SOL     OW 7515   2.692   3.135   1.422
 2496SOL    HW1 7516   2.687   3.168   1.517
 2496SOL    HW2 7517   2.606   3.154   1.376
 2497SOL     OW 7518   2.534   3.478   0.154
 2497SOL    HW1 7519   2.543   3.488   0.055
 2497SOL    HW2 7520   2.494   3.389   0.175
 2498SOL     OW 7521   3.512   3.582   1.394
 2498SOL    HW1 7522   3.565   3.592   1.310
 2498SOL    HW2 7523   3.485   3.672   1.428
 2499SOL     OW 7524   3.703   2.037   0.963
 2499SOL    HW1 7525   3.742   1.952   0.927
 2499SOL    HW2 7526   3.605   2.039   0.944
 2500SOL     OW 7527   2.125   2.188   0.720
 2500SOL    HW1 7528   2.046   2.239   0.686
 2500SOL    HW2 7529   2.116   2.173   0.818
 2501SOL     OW 7530   3.056   3.474   0.031
 2501SOL    HW1 7531   3.062   3.381   0.068
 2501SOL    HW2 7532   2.997   3.474  -0.049
 2502SOL     OW 7533   2.684   2.864   1.372
 2502SOL    HW1 7534   2.724   2.863   1.280
 2502SOL    HW2 7535   2.694   2.956   1.412
 2503SOL     OW 7536   2.778   2.772   0.291
 2503SOL    HW1 7537   2.841   2.810   0.223
 2503SOL    HW2 7538   2.818   2.689   0.330
 2504SOL     OW 7539   3.366   3.469   0.044
 2504SOL    HW1 7540   3.274   3.506   0.051
 2504SOL    HW2 7541   3.404   3.489  -0.046
 2505SOL     OW 7542   2.234   3.150   1.490
 2505SOL    HW1 7543   2.221   3.243   1.456
 2505SOL    HW2 7544   2.150   3.098   1.477
 2506SOL     OW 7545   3.476   3.154   1.289
 2506SOL    HW1 7546   3.536   3.157   1.369
 2506SOL    HW2 7547   3.401   3.218   1.302
 2507SOL     OW 7548   2.901   2.960   0.696
 2507SOL    HW1 7549   2.831   2.913   0.750
 2507SOL    HW2 7550   2.960   2.892   0.653
 2508SOL     OW 7551   2.876   2.098   0.971
 2508SOL    HW1 7552   2.868   2.062   0.878
 2508SOL    HW2 7553   2.874   2.022   1.036
 2509SOL     OW 7554   2.452   3.349   0.491
 2509SOL    HW1 7555   2.494   3.291   0.421
 2509SOL    HW2 7556   2.408   3.428   0.447
 2510SOL     OW 7557   3.571   2.247   1.381
 2510SOL    HW1 7558   3.644   2.316   1.385
 2510SOL    HW2 7559   3.599   2.172   1.322
 2511SOL     OW 7560   2.117   3.210   0.290
 2511SOL    HW1 7561   2.021   3.211   0.263
 2511SOL    HW2 7562   2.129   3.263   0.374
 2512SOL     OW 7563   1.967   2.875   1.726
 2512SOL    HW1 7564   1.890   2.842   1.780
 2512SOL    HW2 7565   2.052   2.845   1.768
 2513SOL     OW 7566   2.534   2.065   1.489
 2513SOL    HW1 7567   2.624   2.049   1.449
 2513SOL    HW2 7568   2.542   2.070   1.588
 2514SOL     OW 7569   3.302   2.718   1.398
 2514SOL    HW1 7570   3.245   2.770   1.335
 2514SOL    HW2 7571   3.398   2.730   1.374
 2515SOL     OW 7572   1.934   2.028   0.318
 2515SOL    HW1 7573   1.917   2.111   0.264
 2515SOL    HW2 7574   2.024   1.991   0.296
 2516SOL     OW 7575   3.045   3.197   0.119
 2516SOL    HW1 7576   2.946   3.186   0.121
 2516SOL    HW2 7577   3.079   3.212   0.212
 2517SOL     OW 7578   2.475   2.704   1.431
 2517SOL    HW1 7579   2.531   2.785   1.414
 2517SOL    HW2 7580   2.534   2.624   1.434
 2518SOL     OW 7581   3.355   3.629   0.959
 2518SOL    HW1 7582   3.388   3.693   0.890
 2518SOL    HW2 7583   3.421   3.623   1.034
 2519SOL     OW 7584   2.578   2.427   1.708
 2519SOL    HW1 7585   2.597   2.492   1.782
 2519SOL    HW2 7586   2.638   2.347   1.717
 2520SOL     OW 7587   3.312   3.082   1.633
 2520SOL    HW1 7588   3.303   3.072   1.732
 2520SOL    HW2 7589   3.408   3.075   1.607
 2521SOL     OW 7590   2.252   3.603   1.560
 2521SOL    HW1 7591   2.161   3.644   1.558
 2521SOL    HW2 7592   2.245   3.509   1.592
 2522SOL     OW 7593   3.536   2.745   1.254
 2522SOL    HW1 7594   3.509   2.656   1.217
 2522SOL    HW2 7595   3.537   2.813   1.181
 2523SOL     OW 7596   3.087   2.187   0.449
 2523SOL    HW1 7597   3.152   2.113   0.438
 2523SOL    HW2 7598   3.107   2.237   0.533
 2524SOL     OW 7599   2.456   2.607   0.652
 2524SOL    HW1 7600   2.506   2.692   0.633
 2524SOL    HW2 7601   2.368   2.609   0.604
 2525SOL     OW 7602   3.639   2.204   1.642
 2525SOL    HW1 7603   3.622   2.235   1.548
 2525SOL    HW2 7604   3.555   2.167   1.680
 2526SOL     OW 7605   3.592   2.796   1.517
 2526SOL    HW1 7606   3.630   2.887   1.532
 2526SOL    HW2 7607   3.584   2.779   1.418
 2527SOL     OW 7608   2.721   3.236   0.016
 2527SOL    HW1 7609   2.675   3.251   0.104
 2527SOL    HW2 7610   2.765   3.321  -0.014
 2528SOL     OW 7611   2.523   3.652   0.953
 2528SOL    HW1 7612   2.477   3.740   0.940
 2528SOL    HW2 7613   2.622   3.664   0.946
 2529SOL     OW 7614   2.721   2.818   0.861
 2529SOL    HW1 7615   2.775   2.749   0.909
 2529SOL    HW2 7616   2.689   2.887   0.927
 2530SOL     OW 7617   2.945   2.846   0.087
 2530SOL    HW1 7618   2.922   2.899   0.005
 2530SOL    HW2 7619   3.026   2.790   0.068
 2531SOL     OW 7620   3.723   3.431   0.851
 2531SOL    HW1 7621   3.652   3.419   0.781
 2531SOL    HW2 7622   3.724   3.352   0.911
 2532SOL     OW 7623   2.083   3.176   1.844
 2532SOL    HW1 7624   2.018   3.103   1.823
 2532SOL    HW2 7625   2.087   3.190   1.942
 2533SOL     OW 7626   1.941   3.102   0.653
 2533SOL    HW1 7627   1.940   3.055   0.741
 2533SOL    HW2 7628   2.023   3.074   0.602
 2534SOL     OW 7629   2.534   3.253   1.624
 2534SOL    HW1 7630   2.456   3.203   1.662
 2534SOL    HW2 7631   2.531   3.348   1.655
 2535SOL     OW 7632   3.686   2.054   1.227
 2535SOL    HW1 7633   3.682   1.964   1.271
 2535SOL    HW2 7634   3.689   2.043   1.128
 2536SOL     OW 7635   2.290   2.286   0.520
 2536SOL    HW1 7636   2.320   2.214   0.458
 2536SOL    HW2 7637   2.251   2.246   0.603
 2537SOL     OW 7638   3.567   3.349   1.104
 2537SOL    HW1 7639   3.474   3.324   1.077
 2537SOL    HW2 7640   3.593   3.299   1.186
 2538SOL     OW 7641   2.179   2.409   1.280
 2538SOL    HW1 7642   2.217   2.350   1.352
 2538SOL    HW2 7643   2.219   2.383   1.192
 2539SOL     OW 7644   2.674   3.448   0.687
 2539SOL    HW1 7645   2.706   3.458   0.593
 2539SOL    HW2 7646   2.595   3.386   0.689
 2540SOL     OW 7647   3.286   2.076   1.112
 2540SOL    HW1 7648   3.338   2.011   1.167
 2540SOL    HW2 7649   3.237   2.139   1.173
 2541SOL     OW 7650   2.863   1.896   1.154
 2541SOL    HW1 7651   2.800   1.824   1.123
 2541SOL    HW2 7652   2.956   1.860   1.154
 2542SOL     OW 7653   2.632   3.192   0.301
 2542SOL    HW1 7654   2.586   3.105   0.318
 2542SOL    HW2 7655   2.723   3.189   0.342
 2543SOL     OW 7656   2.480   3.429   1.284
 2543SOL    HW1 7657   2.475   3.511   1.341
 2543SOL    HW2 7658   2.569   3.426   1.239
 2544SOL     OW 7659   3.214   1.914   0.168
 2544SOL    HW1 7660   3.249   1.873   0.084
 2544SOL    HW2 7661   3.124   1.876   0.188
 2545SOL     OW 7662   3.162   2.315   0.691
 2545SOL    HW1 7663   3.103   2.395   0.695
 2545SOL    HW2 7664   3.177   2.280   0.784
 2546SOL     OW 7665   3.455   2.083   0.882
 2546SOL    HW1 7666   3.371   2.082   0.936
 2546SOL    HW2 7667   3.457   2.166   0.826
 2547SOL     OW 7668   1.901   2.939   0.300
 2547SOL    HW1 7669   2.000   2.928   0.291
 2547SOL    HW2 7670   1.861   2.853   0.332
 2548SOL     OW 7671   2.737   3.508   0.337
 2548SOL    HW1 7672   2.660   3.473   0.283
 2548SOL    HW2 7673   2.705   3.579   0.399
 2549SOL     OW 7674   2.092   2.490   1.975
 2549SOL    HW1 7675   1.999   2.488   2.012
 2549SOL    HW2 7676   2.093   2.451   1.883
 2550SOL     OW 7677   2.087   2.137   2.858
 2550SOL    HW1 7678   2.122   2.120   2.950
 2550SOL    HW2 7679   1.999   2.092   2.846
 2551SOL     OW 7680   1.881   2.230   2.509
 2551SOL    HW1 7681   1.799   2.273   2.548
 2551SOL    HW2 7682   1.853   2.157   2.446
 2552SOL     OW 7683   2.431   3.137   3.027
 2552SOL    HW1 7684   2.338   3.130   2.990
 2552SOL    HW2 7685   2.442   3.226   3.071
 2553SOL     OW 7686   3.417   3.373   2.565
 2553SOL    HW1 7687   3.360   3.357   2.646
 2553SOL    HW2 7688   3.358   3.383   2.485
 2554SOL     OW 7689   2.997   2.565   2.579
 2554SOL    HW1 7690   3.054   2.643   2.554
 2554SOL    HW2 7691   2.937   2.591   2.655
 2555SOL     OW 7692   3.617   2.469   2.093
 2555SOL    HW1 7693   3.605   2.456   1.994
 2555SOL    HW2 7694   3.587   2.388   2.142
 2556SOL     OW 7695   2.630   3.006   2.885
 2556SOL    HW1 7696   2.552   3.023   2.945
 2556SOL    HW2 7697   2.664   3.093   2.849
 2557SOL     OW 7698   2.712   2.660   3.685
 2557SOL    HW1 7699   2.708   2.736   3.750
 2557SOL    HW2 7700   2.734   2.696   3.594
 2558SOL     OW 7701   2.548   3.023   3.665
 2558SOL    HW1 7702   2.608   3.102   3.679
 2558SOL    HW2 7703   2.462   3.054   3.624
 2559SOL     OW 7704   2.197   3.297   2.923
 2559SOL    HW1 7705   2.119   3.266   2.870
 2559SOL    HW2 7706   2.255   3.355   2.866
 2560SOL     OW 7707   3.322   3.367   3.201
 2560SOL    HW1 7708   3.346   3.461   3.227
 2560SOL    HW2 7709   3.306   3.313   3.283
 2561SOL     OW 7710   2.300   2.254   3.361
 2561SOL    HW1 7711   2.382   2.198   3.370
 2561SOL    HW2 7712   2.219   2.196   3.365
 2562SOL     OW 7713   3.465   2.309   2.599
 2562SOL    HW1 7714   3.391   2.355   2.549
 2562SOL    HW2 7715   3.516   2.377   2.652
 2563SOL     OW 7716   2.093   3.575   2.345
 2563SOL    HW1 7717   2.127   3.652   2.399
 2563SOL    HW2 7718   2.137   3.575   2.255
 2564SOL     OW 7719   2.989   3.203   3.552
 2564SOL    HW1 7720   3.036   3.203   3.640
 2564SOL    HW2 7721   2.941   3.116   3.541
 2565SOL     OW 7722   2.092   3.296   2.400
 2565SOL    HW1 7723   2.066   3.392   2.400
 2565SOL    HW2 7724   2.021   3.242   2.445
 2566SOL     OW 7725   2.102   2.953   2.748
 2566SOL    HW1 7726   2.116   2.869   2.800
 2566SOL    HW2 7727   2.047   3.017   2.803
 2567SOL     OW 7728   2.482   3.648   3.301
 2567SOL    HW1 7729   2.390   3.631   3.336
 2567SOL    HW2 7730   2.510   3.740   3.327
 2568SOL     OW 7731   2.468   2.826   1.985
 2568SOL    HW1 7732   2.475   2.910   1.931
 2568SOL    HW2 7733   2.514   2.839   2.073
 2569SOL     OW 7734   3.456   1.976   3.342
 2569SOL    HW1 7735   3.438   2.043   3.270
 2569SOL    HW2 7736   3.453   2.022   3.431
 2570SOL     OW 7737   1.984   2.505   2.425
 2570SOL    HW1 7738   1.939   2.417   2.442
 2570SOL    HW2 7739   1.983   2.559   2.509
 2571SOL     OW 7740   3.704   3.629   2.221
 2571SOL    HW1 7741   3.758   3.600   2.301
 2571SOL    HW2 7742   3.734   3.719   2.192
 2572SOL     OW 7743   1.889   3.458   1.979
 2572SOL    HW1 7744   1.870   3.362   2.000
 2572SOL    HW2 7745   1.856   3.516   2.054
 2573SOL     OW 7746   3.551   2.784   2.474
 2573SOL    HW1 7747   3.646   2.755   2.482
 2573SOL    HW2 7748   3.543   2.849   2.399
 2574SOL     OW 7749   3.503   2.970   2.294
 2574SOL    HW1 7750   3.589   2.972   2.242
 2574SOL    HW2 7751   3.517   3.017   2.382
 2575SOL     OW 7752   1.975   2.599   3.459
 2575SOL    HW1 7753   2.063   2.586   3.504
 2575SOL    HW2 7754   1.962   2.696   3.437
 2576SOL     OW 7755   2.475   3.227   2.588
 2576SOL    HW1 7756   2.426   3.140   2.597
 2576SOL    HW2 7757   2.452   3.270   2.501
 2577SOL     OW 7758   3.155   3.090   3.285
 2577SOL    HW1 7759   3.192   3.017   3.227
 2577SOL    HW2 7760   3.207   3.095   3.370
 2578SOL     OW 7761   2.671   1.866   2.364
 2578SOL    HW1 7762   2.711   1.957   2.355
 2578SOL    HW2 7763   2.571   1.874   2.370
 2579SOL     OW 7764   2.059   2.838   3.126
 2579SOL    HW1 7765   2.148   2.793   3.112
 2579SOL    HW2 7766   1.986   2.773   3.107
 2580SOL     OW 7767   3.387   2.861   2.052
 2580SOL    HW1 7768   3.324   2.785   2.065
 2580SOL    HW2 7769   3.435   2.879   2.138
 2581SOL     OW 7770   3.049   3.654   3.478
 2581SOL    HW1 7771   3.073   3.714   3.402
 2581SOL    HW2 7772   3.056   3.559   3.448
 2582SOL     OW 7773   2.179   2.113   3.663
 2582SOL    HW1 7774   2.250   2.184   3.669
 2582SOL    HW2 7775   2.091   2.152   3.691
 2583SOL     OW 7776   3.328   3.279   2.815
 2583SOL    HW1 7777   3.269   3.285   2.895
 2583SOL    HW2 7778   3.313   3.191   2.769
 2584SOL     OW 7779   3.529   3.576   2.434
 2584SOL    HW1 7780   3.488   3.553   2.346
 2584SOL    HW2 7781   3.511   3.502   2.499
 2585SOL     OW 7782   2.460   2.591   2.132
 2585SOL    HW1 7783   2.484   2.660   2.064
 2585SOL    HW2 7784   2.382   2.624   2.186
 2586SOL     OW 7785   3.143   2.207   2.806
 2586SOL    HW1 7786   3.057   2.157   2.793
 2586SOL    HW2 7787   3.205   2.153   2.862
 2587SOL     OW 7788   3.438   3.524   2.169
 2587SOL    HW1 7789   3.527   3.570   2.172
 2587SOL    HW2 7790   3.417   3.500   2.074
 2588SOL     OW 7791   2.669   2.467   3.327
 2588SOL    HW1 7792   2.622   2.464   3.416
 2588SOL    HW2 7793   2.618   2.412   3.261
 2589SOL     OW 7794   3.256   2.331   3.536
 2589SOL    HW1 7795   3.236   2.374   3.624
 2589SOL    HW2 7796   3.334   2.269   3.545
 2590SOL     OW 7797   2.835   2.752   3.434
 2590SOL    HW1 7798   2.881   2.668   3.405
 2590SOL    HW2 7799   2.779   2.786   3.359
 2591SOL     OW 7800   2.853   2.272   3.104
 2591SOL    HW1 7801   2.776   2.306   3.158
 2591SOL    HW2 7802   2.819   2.221   3.025
 2592SOL     OW 7803   2.903   2.563   2.291
 2592SOL    HW1 7804   2.929   2.559   2.387
 2592SOL    HW2 7805   2.818   2.512   2.277
 2593SOL     OW 7806   1.938   2.673   2.651
 2593SOL    HW1 7807   2.037   2.661   2.660
 2593SOL    HW2 7808   1.914   2.768   2.672
 2594SOL     OW 7809   1.992   3.683   3.433
 2594SOL    HW1 7810   1.982   3.668   3.532
 2594SOL    HW2 7811   1.906   3.719   3.397
 2595SOL     OW 7812   2.727   2.210   2.057
 2595SOL    HW1 7813   2.786   2.273   2.008
 2595SOL    HW2 7814   2.746   2.116   2.028
 2596SOL     OW 7815   3.581   2.447   3.693
 2596SOL    HW1 7816   3.555   2.536   3.657
 2596SOL    HW2 7817   3.579   2.379   3.620
 2597SOL     OW 7818   3.224   3.006   2.407
 2597SOL    HW1 7819   3.307   2.977   2.359
 2597SOL    HW2 7820   3.175   3.073   2.351
 2598SOL     OW 7821   2.412   2.058   2.747
 2598SOL    HW1 7822   2.407   2.053   2.847
 2598SOL    HW2 7823   2.414   2.154   2.718
 2599SOL     OW 7824   2.870   3.318   2.339
 2599SOL    HW1 7825   2.824   3.390   2.287
 2599SOL    HW2 7826   2.866   3.338   2.437
 2600SOL     OW 7827   2.213   3.663   2.715
 2600SOL    HW1 7828   2.263   3.577   2.721
 2600SOL    HW2 7829   2.278   3.740   2.712
 2601SOL     OW 7830   3.657   2.928   2.735
 2601SOL    HW1 7831   3.595   2.913   2.659
 2601SOL    HW2 7832   3.605   2.939   2.820
 2602SOL     OW 7833   3.089   3.412   3.368
 2602SOL    HW1 7834   3.095   3.335   3.432
 2602SOL    HW2 7835   3.037   3.386   3.288
 2603SOL     OW 7836   2.183   2.805   2.104
 2603SOL    HW1 7837   2.265   2.844   2.062
 2603SOL    HW2 7838   2.156   2.723   2.055
 2604SOL     OW 7839   3.320   2.597   2.590
 2604SOL    HW1 7840   3.315   2.532   2.665
 2604SOL    HW2 7841   3.400   2.656   2.603
 2605SOL     OW 7842   2.323   3.128   3.589
 2605SOL    HW1 7843   2.273   3.129   3.503
 2605SOL    HW2 7844   2.260   3.110   3.665
 2606SOL     OW 7845   2.973   3.638   2.099
 2606SOL    HW1 7846   2.913   3.576   2.149
 2606SOL    HW2 7847   3.004   3.594   2.014
 2607SOL     OW 7848   2.064   2.147   3.360
 2607SOL    HW1 7849   1.984   2.207   3.347
 2607SOL    HW2 7850   2.054   2.098   3.446
 2608SOL     OW 7851   3.494   3.239   1.943
 2608SOL    HW1 7852   3.462   3.333   1.933
 2608SOL    HW2 7853   3.418   3.176   1.931
 2609SOL     OW 7854   2.326   3.605   2.185
 2609SOL    HW1 7855   2.359   3.644   2.271
 2609SOL    HW2 7856   2.402   3.598   2.120
 2610SOL     OW 7857   3.262   1.969   2.288
 2610SOL    HW1 7858   3.238   1.932   2.198
 2610SOL    HW2 7859   3.361   1.985   2.292
 2611SOL     OW 7860   2.111   3.647   3.103
 2611SOL    HW1 7861   2.168   3.582   3.153
 2611SOL    HW2 7862   2.095   3.614   3.010
 2612SOL     OW 7863   2.802   3.560   2.766
 2612SOL    HW1 7864   2.882   3.503   2.787
 2612SOL    HW2 7865   2.753   3.520   2.689
 2613SOL     OW 7866   3.409   2.084   3.591
 2613SOL    HW1 7867   3.404   2.121   3.683
 2613SOL    HW2 7868   3.337   2.015   3.579
 2614SOL     OW 7869   2.476   1.984   1.979
 2614SOL    HW1 7870   2.574   1.962   1.986
 2614SOL    HW2 7871   2.445   1.967   1.886
 2615SOL     OW 7872   2.643   2.126   3.611
 2615SOL    HW1 7873   2.710   2.065   3.654
 2615SOL    HW2 7874   2.570   2.145   3.676
 2616SOL     OW 7875   2.750   3.376   3.057
 2616SOL    HW1 7876   2.727   3.351   2.963
 2616SOL    HW2 7877   2.811   3.307   3.096
 2617SOL     OW 7878   3.213   2.452   3.295
 2617SOL    HW1 7879   3.241   2.409   3.380
 2617SOL    HW2 7880   3.238   2.548   3.296
 2618SOL     OW 7881   2.665   3.264   2.786
 2618SOL    HW1 7882   2.755   3.278   2.744
 2618SOL    HW2 7883   2.594   3.266   2.715
 2619SOL     OW 7884   2.784   2.365   2.761
 2619SOL    HW1 7885   2.759   2.356   2.665
 2619SOL    HW2 7886   2.832   2.283   2.792
 2620SOL     OW 7887   2.401   1.926   2.374
 2620SOL    HW1 7888   2.320   1.927   2.432
 2620SOL    HW2 7889   2.404   2.009   2.319
 2621SOL     OW 7890   3.296   3.050   1.903
 2621SOL    HW1 7891   3.328   2.974   1.960
 2621SOL    HW2 7892   3.204   3.077   1.933
 2622SOL     OW 7893   2.159   1.897   2.033
 2622SOL    HW1 7894   2.208   1.981   2.012
 2622SOL    HW2 7895   2.221   1.832   2.078
 2623SOL     OW 7896   2.797   2.098   2.342
 2623SOL    HW1 7897   2.749   2.139   2.264
 2623SOL    HW2 7898   2.896   2.096   2.323
 2624SOL     OW 7899   2.938   2.545   3.326
 2624SOL    HW1 7900   2.858   2.484   3.329
 2624SOL    HW2 7901   3.019   2.492   3.302
 2625SOL     OW 7902   3.089   3.432   2.655
 2625SOL    HW1 7903   3.110   3.506   2.590
 2625SOL    HW2 7904   3.157   3.432   2.728
 2626SOL     OW 7905   2.321   3.014   2.603
 2626SOL    HW1 7906   2.250   2.987   2.668
 2626SOL    HW2 7907   2.295   2.986   2.510
 2627SOL     OW 7908   3.133   3.659   2.453
 2627SOL    HW1 7909   3.177   3.723   2.389
 2627SOL    HW2 7910   3.083   3.711   2.523
 2628SOL     OW 7911   2.894   2.411   1.878
 2628SOL    HW1 7912   2.853   2.493   1.839
 2628SOL    HW2 7913   2.958   2.437   1.951
 2629SOL     OW 7914   1.940   2.418   3.248
 2629SOL    HW1 7915   2.032   2.417   3.207
 2629SOL    HW2 7916   1.934   2.492   3.315
 2630SOL     OW 7917   2.423   2.084   3.009
 2630SOL    HW1 7918   2.461   2.000   3.046
 2630SOL    HW2 7919   2.335   2.103   3.053
 2631SOL     OW 7920   2.728   2.316   2.504
 2631SOL    HW1 7921   2.696   2.388   2.442
 2631SOL    HW2 7922   2.752   2.235   2.451
 2632SOL     OW 7923   2.879   1.901   2.615
 2632SOL    HW1 7924   2.807   1.906   2.546
 2632SOL    HW2 7925   2.855   1.832   2.684
 2633SOL     OW 7926   3.291   3.035   2.729
 2633SOL    HW1 7927   3.236   2.951   2.722
 2633SOL    HW2 7928   3.317   3.064   2.637
 2634SOL     OW 7929   3.328   2.452   2.854
 2634SOL    HW1 7930   3.298   2.357   2.861
 2634SOL    HW2 7931   3.401   2.468   2.920
 2635SOL     OW 7932   3.719   2.695   2.239
 2635SOL    HW1 7933   3.761   2.631   2.303
 2635SOL    HW2 7934   3.681   2.644   2.161
 2636SOL     OW 7935   2.350   3.247   2.036
 2636SOL    HW1 7936   2.263   3.232   2.083
 2636SOL    HW2 7937   2.333   3.273   1.941
 2637SOL     OW 7938   3.526   3.142   2.519
 2637SOL    HW1 7939   3.625   3.150   2.533
 2637SOL    HW2 7940   3.481   3.226   2.550
 2638SOL     OW 7941   3.252   2.437   1.940
 2638SOL    HW1 7942   3.198   2.416   2.021
 2638SOL    HW2 7943   3.343   2.396   1.949
 2639SOL     OW 7944   2.389   2.118   2.190
 2639SOL    HW1 7945   2.416   2.059   2.115
 2639SOL    HW2 7946   2.389   2.213   2.159
 2640SOL     OW 7947   3.616   3.085   3.450
 2640SOL    HW1 7948   3.707   3.046   3.437
 2640SOL    HW2 7949   3.624   3.181   3.474
 2641SOL     OW 7950   2.926   3.209   3.202
 2641SOL    HW1 7951   2.846   3.186   3.257
 2641SOL    HW2 7952   3.009   3.183   3.251
 2642SOL     OW 7953   3.454   3.491   3.487
 2642SOL    HW1 7954   3.481   3.525   3.397
 2642SOL    HW2 7955   3.533   3.453   3.533
 2643SOL     OW 7956   3.500   2.961   2.941
 2643SOL    HW1 7957   3.505   3.042   3.000
 2643SOL    HW2 7958   3.414   2.963   2.890
 2644SOL     OW 7959   2.777   1.951   3.264
 2644SOL    HW1 7960   2.802   1.931   3.169
 2644SOL    HW2 7961   2.849   2.007   3.306
 2645SOL     OW 7962   2.842   2.978   3.581
 2645SOL    HW1 7963   2.743   2.984   3.591
 2645SOL    HW2 7964   2.865   2.898   3.525
 2646SOL     OW 7965   2.567   2.912   2.230
 2646SOL    HW1 7966   2.553   2.919   2.329
 2646SOL    HW2 7967   2.651   2.861   2.212
 2647SOL     OW 7968   2.272   2.675   3.113
 2647SOL    HW1 7969   2.358   2.687   3.163
 2647SOL    HW2 7970   2.230   2.588   3.140
 2648SOL     OW 7971   3.136   2.248   3.124
 2648SOL    HW1 7972   3.157   2.322   3.188
 2648SOL    HW2 7973   3.047   2.265   3.081
 2649SOL     OW 7974   1.926   3.426   3.193
 2649SOL    HW1 7975   1.880   3.508   3.159
 2649SOL    HW2 7976   2.024   3.445   3.202
 2650SOL     OW 7977   2.229   2.962   2.363
 2650SOL    HW1 7978   2.222   3.045   2.307
 2650SOL    HW2 7979   2.233   2.882   2.303
 2651SOL     OW 7980   3.114   3.210   2.250
 2651SOL    HW1 7981   3.164   3.287   2.290
 2651SOL    HW2 7982   3.019   3.212   2.282
 2652SOL     OW 7983   3.134   3.307   3.004
 2652SOL    HW1 7984   3.181   3.320   3.091
 2652SOL    HW2 7985   3.068   3.233   3.013
 2653SOL     OW 7986   3.444   2.501   2.334
 2653SOL    HW1 7987   3.413   2.562   2.407
 2653SOL    HW2 7988   3.494   2.553   2.265
 2654SOL     OW 7989   2.216   3.372   3.191
 2654SOL    HW1 7990   2.195   3.328   3.104
 2654SOL    HW2 7991   2.313   3.398   3.194
 2655SOL     OW 7992   2.264   2.613   3.460
 2655SOL    HW1 7993   2.332   2.668   3.413
 2655SOL    HW2 7994   2.304   2.525   3.487
 2656SOL     OW 7995   3.449   2.641   3.532
 2656SOL    HW1 7996   3.357   2.679   3.527
 2656SOL    HW2 7997   3.509   2.688   3.467
 2657SOL     OW 7998   2.875   1.967   3.632
 2657SOL    HW1 7999   2.881   2.052   3.580
 2657SOL    HW2 8000   2.907   1.891   3.575
 2658SOL     OW 8001   2.366   1.912   3.602
 2658SOL    HW1 8002   2.324   1.855   3.532
 2658SOL    HW2 8003   2.300   1.981   3.634
 2659SOL     OW 8004   2.435   2.732   2.891
 2659SOL    HW1 8005   2.479   2.821   2.882
 2659SOL    HW2 8006   2.372   2.732   2.968
 2660SOL     OW 8007   3.222   2.724   2.907
 2660SOL    HW1 8008   3.147   2.724   2.841
 2660SOL    HW2 8009   3.259   2.632   2.916
 2661SOL     OW 8010   3.071   2.387   2.137
 2661SOL    HW1 8011   3.084   2.303   2.191
 2661SOL    HW2 8012   3.042   2.461   2.197
 2662SOL     OW 8013   2.169   2.075   3.093
 2662SOL    HW1 8014   2.146   2.112   3.183
 2662SOL    HW2 8015   2.139   1.980   3.087
 2663SOL     OW 8016   1.899   3.172   3.144
 2663SOL    HW1 8017   1.952   3.123   3.212
 2663SOL    HW2 8018   1.921   3.270   3.149
 2664SOL     OW 8019   2.594   2.496   2.926
 2664SOL    HW1 8020   2.653   2.470   2.850
 2664SOL    HW2 8021   2.566   2.592   2.915
 2665SOL     OW 8022   3.590   2.797   3.716
 2665SOL    HW1 8023   3.544   2.790   3.627
 2665SOL    HW2 8024   3.528   2.841   3.782
 2666SOL     OW 8025   2.169   1.925   2.480
 2666SOL    HW1 8026   2.158   2.019   2.513
 2666SOL    HW2 8027   2.164   1.862   2.557
 2667SOL     OW 8028   3.484   2.229   2.236
 2667SOL    HW1 8029   3.486   2.153   2.300
 2667SOL    HW2 8030   3.436   2.306   2.276
 2668SOL     OW 8031   2.842   3.435   3.562
 2668SOL    HW1 8032   2.822   3.479   3.474
 2668SOL    HW2 8033   2.881   3.344   3.546
 2669SOL     OW 8034   3.721   3.380   3.467
 2669SOL    HW1 8035   3.735   3.407   3.372
 2669SOL    HW2 8036   3.804   3.402   3.520
 2670SOL     OW 8037   2.212   2.760   3.666
 2670SOL    HW1 8038   2.288   2.804   3.714
 2670SOL    HW2 8039   2.247   2.713   3.584
 2671SOL     OW 8040   3.402   2.136   1.987
 2671SOL    HW1 8041   3.341   2.061   2.010
 2671SOL    HW2 8042   3.424   2.188   2.070
 2672SOL     OW 8043   3.165   2.700   1.904
 2672SOL    HW1 8044   3.199   2.607   1.919
 2672SOL    HW2 8045   3.183   2.727   1.809
 2673SOL     OW 8046   2.181   2.672   2.811
 2673SOL    HW1 8047   2.274   2.708   2.816
 2673SOL    HW2 8048   2.175   2.587   2.863
 2674SOL     OW 8049   2.201   2.371   2.868
 2674SOL    HW1 8050   2.149   2.288   2.851
 2674SOL    HW2 8051   2.278   2.376   2.804
 2675SOL     OW 8052   3.000   2.242   3.540
 2675SOL    HW1 8053   2.955   2.305   3.604
 2675SOL    HW2 8054   3.093   2.273   3.523
 2676SOL     OW 8055   3.022   2.069   3.339
 2676SOL    HW1 8056   3.022   2.133   3.416
 2676SOL    HW2 8057   3.050   2.117   3.256
 2677SOL     OW 8058   1.870   3.188   2.062
 2677SOL    HW1 8059   1.777   3.209   2.031
 2677SOL    HW2 8060   1.880   3.089   2.075
 2678SOL     OW 8061   1.950   3.663   2.789
 2678SOL    HW1 8062   1.908   3.577   2.762
 2678SOL    HW2 8063   2.044   3.666   2.755
 2679SOL     OW 8064   2.366   3.430   2.772
 2679SOL    HW1 8065   2.432   3.504   2.781
 2679SOL    HW2 8066   2.410   3.351   2.730
 2680SOL     OW 8067   2.864   2.658   3.100
 2680SOL    HW1 8068   2.905   2.626   3.186
 2680SOL    HW2 8069   2.768   2.631   3.097
 2681SOL     OW 8070   1.902   2.406   2.976
 2681SOL    HW1 8071   1.987   2.373   2.935
 2681SOL    HW2 8072   1.915   2.421   3.074
 2682SOL     OW 8073   2.051   2.382   3.584
 2682SOL    HW1 8074   2.110   2.342   3.514
 2682SOL    HW2 8075   1.993   2.453   3.543
 2683SOL     OW 8076   3.231   2.812   3.522
 2683SOL    HW1 8077   3.270   2.901   3.542
 2683SOL    HW2 8078   3.241   2.792   3.425
 2684SOL     OW 8079   2.677   2.434   2.187
 2684SOL    HW1 8080   2.684   2.345   2.141
 2684SOL    HW2 8081   2.583   2.468   2.179
 2685SOL     OW 8082   3.519   2.466   3.068
 2685SOL    HW1 8083   3.481   2.397   3.130
 2685SOL    HW2 8084   3.601   2.430   3.024
 2686SOL     OW 8085   2.114   3.426   3.606
 2686SOL    HW1 8086   2.084   3.483   3.682
 2686SOL    HW2 8087   2.107   3.329   3.632
 2687SOL     OW 8088   2.533   2.326   3.131
 2687SOL    HW1 8089   2.499   2.237   3.101
 2687SOL    HW2 8090   2.559   2.380   3.051
 2688SOL     OW 8091   2.792   3.540   3.327
 2688SOL    HW1 8092   2.768   3.522   3.232
 2688SOL    HW2 8093   2.822   3.634   3.337
 2689SOL     OW 8094   2.335   2.362   2.053
 2689SOL    HW1 8095   2.396   2.442   2.057
 2689SOL    HW2 8096   2.240   2.393   2.060
 2690SOL     OW 8097   2.021   2.999   3.328
 2690SOL    HW1 8098   2.043   2.938   3.404
 2690SOL    HW2 8099   2.031   2.950   3.242
 2691SOL     OW 8100   3.209   2.921   3.096
 2691SOL    HW1 8101   3.233   2.858   3.022
 2691SOL    HW2 8102   3.119   2.961   3.078
 2692SOL     OW 8103   3.164   2.717   2.171
 2692SOL    HW1 8104   3.078   2.686   2.213
 2692SOL    HW2 8105   3.160   2.703   2.072
 2693SOL     OW 8106   3.621   3.609   3.016
 2693SOL    HW1 8107   3.682   3.639   2.943
 2693SOL    HW2 8108   3.583   3.520   2.994
 2694SOL     OW 8109   3.114   3.593   2.990
 2694SOL    HW1 8110   3.198   3.598   2.936
 2694SOL    HW2 8111   3.091   3.497   3.008
 2695SOL     OW 8112   1.945   3.120   2.884
 2695SOL    HW1 8113   1.940   3.119   2.984
 2695SOL    HW2 8114   1.862   3.079   2.846
 2696SOL     OW 8115   2.550   3.524   3.578
 2696SOL    HW1 8116   2.494   3.605   3.587
 2696SOL    HW2 8117   2.602   3.528   3.492
 2697SOL     OW 8118   3.588   1.997   2.385
 2697SOL    HW1 8119   3.661   1.980   2.318
 2697SOL    HW2 8120   3.557   1.910   2.423
 2698SOL     OW 8121   3.250   3.435   2.339
 2698SOL    HW1 8122   3.317   3.447   2.265
 2698SOL    HW2 8123   3.210   3.524   2.362
 2699SOL     OW 8124   1.992   3.656   3.713
 2699SOL    HW1 8125   1.951   3.582   3.766
 2699SOL    HW2 8126   2.056   3.707   3.771
 2700SOL     OW 8127   3.142   2.789   2.534
 2700SOL    HW1 8128   3.202   2.708   2.536
 2700SOL    HW2 8129   3.182   2.858   2.474
 2701SOL     OW 8130   2.692   3.135   3.284
 2701SOL    HW1 8131   2.687   3.168   3.379
 2701SOL    HW2 8132   2.606   3.154   3.238
 2702SOL     OW 8133   2.534   3.478   2.016
 2702SOL    HW1 8134   2.543   3.488   1.917
 2702SOL    HW2 8135   2.494   3.389   2.037
 2703SOL     OW 8136   3.512   3.582   3.256
 2703SOL    HW1 8137   3.565   3.592   3.172
 2703SOL    HW2 8138   3.485   3.672   3.290
 2704SOL     OW 8139   3.703   2.037   2.825
 2704SOL    HW1 8140   3.742   1.952   2.789
 2704SOL    HW2 8141   3.605   2.039   2.806
 2705SOL     OW 8142   3.056   3.474   1.893
 2705SOL    HW1 8143   3.062   3.381   1.930
 2705SOL    HW2 8144   2.997   3.474   1.813
 2706SOL     OW 8145   2.684   2.864   3.234
 2706SOL    HW1 8146   2.724   2.863   3.142
 2706SOL    HW2 8147   2.694   2.956   3.274
 2707SOL     OW 8148   2.778   2.772   2.153
 2707SOL    HW1 8149   2.841   2.810   2.085
 2707SOL    HW2 8150   2.818   2.689   2.192
 2708SOL     OW 8151   3.366   3.469   1.906
 2708SOL    HW1 8152   3.274   3.506   1.913
 2708SOL    HW2 8153   3.404   3.489   1.816
 2709SOL     OW 8154   2.234   3.150   3.352
 2709SOL    HW1 8155   2.221   3.243   3.318
 2709SOL    HW2 8156   2.150   3.098   3.339
 2710SOL     OW 8157   3.476   3.154   3.151
 2710SOL    HW1 8158   3.536   3.157   3.231
 2710SOL    HW2 8159   3.401   3.218   3.164
 2711SOL     OW 8160   2.876   2.098   2.833
 2711SOL    HW1 8161   2.868   2.062   2.740
 2711SOL    HW2 8162   2.874   2.022   2.898
 2712SOL     OW 8163   2.452   3.349   2.353
 2712SOL    HW1 8164   2.494   3.291   2.283
 2712SOL    HW2 8165   2.408   3.428   2.309
 2713SOL     OW 8166   3.571   2.247   3.243
 2713SOL    HW1 8167   3.644   2.316   3.247
 2713SOL    HW2 8168   3.599   2.172   3.184
 2714SOL     OW 8169   2.117   3.210   2.152
 2714SOL    HW1 8170   2.021   3.211   2.125
 2714SOL    HW2 8171   2.129   3.263   2.236
 2715SOL     OW 8172   1.967   2.875   3.588
 2715SOL    HW1 8173   1.890   2.842   3.642
 2715SOL    HW2 8174   2.052   2.845   3.630
 2716SOL     OW 8175   2.534   2.065   3.351
 2716SOL    HW1 8176   2.624   2.049   3.311
 2716SOL    HW2 8177   2.542   2.070   3.450
 2717SOL     OW 8178   1.937   2.207   1.895
 2717SOL    HW1 8179   1.845   2.179   1.866
 2717SOL    HW2 8180   1.968   2.284   1.839
 2718SOL     OW 8181   3.302   2.718   3.260
 2718SOL    HW1 8182   3.245   2.770   3.197
 2718SOL    HW2 8183   3.398   2.730   3.236
 2719SOL     OW 8184   1.934   2.028   2.180
 2719SOL    HW1 8185   1.917   2.111   2.126
 2719SOL    HW2 8186   2.024   1.991   2.158
 2720SOL     OW 8187   3.045   3.197   1.981
 2720SOL    HW1 8188   2.946   3.186   1.983
 2720SOL    HW2 8189   3.079   3.212   2.074
 2721SOL     OW 8190   2.475   2.704   3.293
 2721SOL    HW1 8191   2.531   2.785   3.276
 2721SOL    HW2 8192   2.534   2.624   3.296
 2722SOL     OW 8193   3.355   3.629   2.821
 2722SOL    HW1 8194   3.388   3.693   2.752
 2722SOL    HW2 8195   3.421   3.623   2.896
 2723SOL     OW 8196   2.578   2.427   3.570
 2723SOL    HW1 8197   2.597   2.492   3.644
 2723SOL    HW2 8198   2.638   2.347   3.579
 2724SOL     OW 8199   3.312   3.082   3.495
 2724SOL    HW1 8200   3.303   3.072   3.594
 2724SOL    HW2 8201   3.408   3.075   3.469
 2725SOL     OW 8202   2.252   3.603   3.422
 2725SOL    HW1 8203   2.161   3.644   3.420
 2725SOL    HW2 8204   2.245   3.509   3.454
 2726SOL     OW 8205   3.536   2.745   3.116
 2726SOL    HW1 8206   3.509   2.656   3.079
 2726SOL    HW2 8207   3.537   2.813   3.043
 2727SOL     OW 8208   3.087   2.187   2.311
 2727SOL    HW1 8209   3.152   2.113   2.300
 2727SOL    HW2 8210   3.107   2.237   2.395
 2728SOL     OW 8211   3.639   2.204   3.504
 2728SOL    HW1 8212   3.622   2.235   3.410
 2728SOL    HW2 8213   3.555   2.167   3.542
 2729SOL     OW 8214   3.592   2.796   3.379
 2729SOL    HW1 8215   3.630   2.887   3.394
 2729SOL    HW2 8216   3.584   2.779   3.280
 2730SOL     OW 8217   2.721   3.236   1.878
 2730SOL    HW1 8218   2.675   3.251   1.966
 2730SOL    HW2 8219   2.765   3.321   1.848
 2731SOL     OW 8220   2.523   3.652   2.815
 2731SOL    HW1 8221   2.477   3.740   2.802
 2731SOL    HW2 8222   2.622   3.664   2.808
 2732SOL     OW 8223   2.945   2.846   1.949
 2732SOL    HW1 8224   2.922   2.899   1.867
 2732SOL    HW2 8225   3.026   2.790   1.930
 2733SOL     OW 8226   3.723   3.431   2.713
 2733SOL    HW1 8227   3.652   3.419   2.643
 2733SOL    HW2 8228   3.724   3.352   2.773
 2734SOL     OW 8229   2.083   3.176   3.706
 2734SOL    HW1 8230   2.018   3.103   3.685
 2734SOL    HW2 8231   2.087   3.190   3.804
 2735SOL     OW 8232   1.941   3.102   2.515
 2735SOL    HW1 8233   1.940   3.055   2.603
 2735SOL    HW2 8234   2.023   3.074   2.464
 2736SOL     OW 8235   2.534   3.253   3.486
 2736SOL    HW1 8236   2.456   3.203   3.524
 2736SOL    HW2 8237   2.531   3.348   3.517
 2737SOL     OW 8238   3.686   2.054   3.089
 2737SOL    HW1 8239   3.682   1.964   3.133
 2737SOL    HW2 8240   3.689   2.043   2.990
 2738SOL     OW 8241   3.567   3.349   2.966
 2738SOL    HW1 8242   3.474   3.324   2.939
 2738SOL    HW2 8243   3.593   3.299   3.048
 2739SOL     OW 8244   2.179   2.409   3.142
 2739SOL    HW1 8245   2.217   2.350   3.214
 2739SOL    HW2 8246   2.219   2.383   3.054
 2740SOL     OW 8247   2.674   3.448   2.549
 2740SOL    HW1 8248   2.706   3.458   2.455
 2740SOL    HW2 8249   2.595   3.386   2.551
 2741SOL     OW 8250   3.286   2.076   2.974
 2741SOL    HW1 8251   3.338   2.011   3.029
 2741SOL    HW2 8252   3.237   2.139   3.035
 2742SOL     OW 8253   2.863   1.896   3.016
 2742SOL    HW1 8254   2.800   1.824   2.985
 2742SOL    HW2 8255   2.956   1.860   3.016
 2743SOL     OW 8256   2.632   3.192   2.163
 2743SOL    HW1 8257   2.586   3.105   2.180
 2743SOL    HW2 8258   2.723   3.189   2.204
 2744SOL     OW 8259   2.480   3.429   3.146
 2744SOL    HW1 8260   2.475   3.511   3.203
 2744SOL    HW2 8261   2.569   3.426   3.101
 2745SOL     OW 8262   3.214   1.914   2.030
 2745SOL    HW1 8263   3.249   1.873   1.946
 2745SOL    HW2 8264   3.124   1.876   2.050
 2746SOL     OW 8265   3.162   2.315   2.553
 2746SOL    HW1 8266   3.103   2.395   2.557
 2746SOL    HW2 8267   3.177   2.280   2.646
 2747SOL     OW 8268   3.455   2.083   2.744
 2747SOL    HW1 8269   3.371   2.082   2.798
 2747SOL    HW2 8270   3.457   2.166   2.688
 2748SOL     OW 8271   1.901   2.939   2.162
 2748SOL    HW1 8272   2.000   2.928   2.153
 2748SOL    HW2 8273   1.861   2.853   2.194
 2749SOL     OW 8274   2.737   3.508   2.199
 2749SOL    HW1 8275   2.660   3.473   2.145
 2749SOL    HW2 8276   2.705   3.579   2.261
 2750SOL     OW 8277   2.092   2.490   3.837
 2750SOL    HW1 8278   1.999   2.488   3.874
 2750SOL    HW2 8279   2.093   2.451   3.745
 2751SOL     OW 8280   2.087   2.137   4.720
 2751SOL    HW1 8281   2.122   2.120   4.812
 2751SOL    HW2 8282   1.999   2.092   4.708
 2752SOL     OW 8283   1.881   2.230   4.371
 2752SOL    HW1 8284   1.799   2.273   4.410
 2752SOL    HW2 8285   1.853   2.157   4.308
 2753SOL     OW 8286   2.431   3.137   4.889
 2753SOL    HW1 8287   2.338   3.130   4.852
 2753SOL    HW2 8288   2.442   3.226   4.933
 2754SOL     OW 8289   3.417   3.373   4.427
 2754SOL    HW1 8290   3.360   3.357   4.508
 2754SOL    HW2 8291   3.358   3.383   4.347
 2755SOL     OW 8292   2.997   2.565   4.441
 2755SOL    HW1 8293   3.054   2.643   4.416
 2755SOL    HW2 8294   2.937   2.591   4.517
 2756SOL     OW 8295   3.617   2.469   3.955
 2756SOL    HW1 8296   3.605   2.456   3.856
 2756SOL    HW2 8297   3.587   2.388   4.004
 2757SOL     OW 8298   2.630   3.006   4.747
 2757SOL    HW1 8299   2.552   3.023   4.807
 2757SOL    HW2 8300   2.664   3.093   4.711
 2758SOL     OW 8301   2.547   2.874   4.389
 2758SOL    HW1 8302   2.616   2.858   4.459
 2758SOL    HW2 8303   2.474   2.931   4.427
 2759SOL     OW 8304   2.197   3.297   4.785
 2759SOL    HW1 8305   2.119   3.266   4.732
 2759SOL    HW2 8306   2.255   3.355   4.728
 2760SOL     OW 8307   3.322   3.367   5.063
 2760SOL    HW1 8308   3.346   3.461   5.089
 2760SOL    HW2 8309   3.306   3.313   5.145
 2761SOL     OW 8310   2.300   2.254   5.223
 2761SOL    HW1 8311   2.382   2.198   5.232
 2761SOL    HW2 8312   2.219   2.196   5.227
 2762SOL     OW 8313   3.465   2.309   4.461
 2762SOL    HW1 8314   3.391   2.355   4.411
 2762SOL    HW2 8315   3.516   2.377   4.514
 2763SOL     OW 8316   2.093   3.575   4.207
 2763SOL    HW1 8317   2.127   3.652   4.261
 2763SOL    HW2 8318   2.137   3.575   4.117
 2764SOL     OW 8319   2.092   3.296   4.262
 2764SOL    HW1 8320   2.066   3.392   4.262
 2764SOL    HW2 8321   2.021   3.242   4.307
 2765SOL     OW 8322   2.102   2.953   4.610
 2765SOL    HW1 8323   2.116   2.869   4.662
 2765SOL    HW2 8324   2.047   3.017   4.665
 2766SOL     OW 8325   2.482   3.648   5.163
 2766SOL    HW1 8326   2.390   3.631   5.198
 2766SOL    HW2 8327   2.510   3.740   5.189
 2767SOL     OW 8328   2.468   2.826   3.847
 2767SOL    HW1 8329   2.475   2.910   3.793
 2767SOL    HW2 8330   2.514   2.839   3.935
 2768SOL     OW 8331   3.456   1.976   5.204
 2768SOL    HW1 8332   3.438   2.043   5.132
 2768SOL    HW2 8333   3.453   2.022   5.293
 2769SOL     OW 8334   1.984   2.505   4.287
 2769SOL    HW1 8335   1.939   2.417   4.304
 2769SOL    HW2 8336   1.983   2.559   4.371
 2770SOL     OW 8337   3.704   3.629   4.083
 2770SOL    HW1 8338   3.758   3.600   4.163
 2770SOL    HW2 8339   3.734   3.719   4.054
 2771SOL     OW 8340   1.889   3.458   3.841
 2771SOL    HW1 8341   1.870   3.362   3.862
 2771SOL    HW2 8342   1.856   3.516   3.916
 2772SOL     OW 8343   3.551   2.784   4.336
 2772SOL    HW1 8344   3.646   2.755   4.344
 2772SOL    HW2 8345   3.543   2.849   4.261
 2773SOL     OW 8346   3.503   2.970   4.156
 2773SOL    HW1 8347   3.589   2.972   4.104
 2773SOL    HW2 8348   3.517   3.017   4.244
 2774SOL     OW 8349   2.475   3.227   4.450
 2774SOL    HW1 8350   2.426   3.140   4.459
 2774SOL    HW2 8351   2.452   3.270   4.363
 2775SOL     OW 8352   3.155   3.090   5.147
 2775SOL    HW1 8353   3.192   3.017   5.089
 2775SOL    HW2 8354   3.207   3.095   5.232
 2776SOL     OW 8355   2.671   1.866   4.226
 2776SOL    HW1 8356   2.711   1.957   4.217
 2776SOL    HW2 8357   2.571   1.874   4.232
 2777SOL     OW 8358   2.059   2.838   4.988
 2777SOL    HW1 8359   2.148   2.793   4.974
 2777SOL    HW2 8360   1.986   2.773   4.969
 2778SOL     OW 8361   3.387   2.861   3.914
 2778SOL    HW1 8362   3.324   2.785   3.927
 2778SOL    HW2 8363   3.435   2.879   4.000
 2779SOL     OW 8364   3.328   3.279   4.677
 2779SOL    HW1 8365   3.269   3.285   4.757
 2779SOL    HW2 8366   3.313   3.191   4.631
 2780SOL     OW 8367   3.529   3.576   4.296
 2780SOL    HW1 8368   3.488   3.553   4.208
 2780SOL    HW2 8369   3.511   3.502   4.361
 2781SOL     OW 8370   2.460   2.591   3.994
 2781SOL    HW1 8371   2.484   2.660   3.926
 2781SOL    HW2 8372   2.382   2.624   4.048
 2782SOL     OW 8373   3.143   2.207   4.668
 2782SOL    HW1 8374   3.057   2.157   4.655
 2782SOL    HW2 8375   3.205   2.153   4.724
 2783SOL     OW 8376   3.438   3.524   4.031
 2783SOL    HW1 8377   3.527   3.570   4.034
 2783SOL    HW2 8378   3.417   3.500   3.936
 2784SOL     OW 8379   2.669   2.467   5.189
 2784SOL    HW1 8380   2.622   2.464   5.278
 2784SOL    HW2 8381   2.618   2.412   5.123
 2785SOL     OW 8382   2.835   2.752   5.296
 2785SOL    HW1 8383   2.881   2.668   5.267
 2785SOL    HW2 8384   2.779   2.786   5.221
 2786SOL     OW 8385   2.853   2.272   4.966
 2786SOL    HW1 8386   2.776   2.306   5.020
 2786SOL    HW2 8387   2.819   2.221   4.887
 2787SOL     OW 8388   2.903   2.563   4.153
 2787SOL    HW1 8389   2.929   2.559   4.249
 2787SOL    HW2 8390   2.818   2.512   4.139
 2788SOL     OW 8391   1.938   2.673   4.513
 2788SOL    HW1 8392   2.037   2.661   4.522
 2788SOL    HW2 8393   1.914   2.768   4.534
 2789SOL     OW 8394   1.992   3.683   5.295
 2789SOL    HW1 8395   1.982   3.668   5.394
 2789SOL    HW2 8396   1.906   3.719   5.259
 2790SOL     OW 8397   2.727   2.210   3.919
 2790SOL    HW1 8398   2.786   2.273   3.870
 2790SOL    HW2 8399   2.746   2.116   3.890
 2791SOL     OW 8400   3.224   3.006   4.269
 2791SOL    HW1 8401   3.307   2.977   4.221
 2791SOL    HW2 8402   3.175   3.073   4.213
 2792SOL     OW 8403   2.412   2.058   4.609
 2792SOL    HW1 8404   2.407   2.053   4.709
 2792SOL    HW2 8405   2.414   2.154   4.580
 2793SOL     OW 8406   2.870   3.318   4.201
 2793SOL    HW1 8407   2.824   3.390   4.149
 2793SOL    HW2 8408   2.866   3.338   4.299
 2794SOL     OW 8409   2.213   3.663   4.577
 2794SOL    HW1 8410   2.263   3.577   4.583
 2794SOL    HW2 8411   2.278   3.740   4.574
 2795SOL     OW 8412   3.657   2.928   4.597
 2795SOL    HW1 8413   3.595   2.913   4.521
 2795SOL    HW2 8414   3.605   2.939   4.682
 2796SOL     OW 8415   2.183   2.805   3.966
 2796SOL    HW1 8416   2.265   2.844   3.924
 2796SOL    HW2 8417   2.156   2.723   3.917
 2797SOL     OW 8418   3.320   2.597   4.452
 2797SOL    HW1 8419   3.315   2.532   4.527
 2797SOL    HW2 8420   3.400   2.656   4.465
 2798SOL     OW 8421   2.973   3.638   3.961
 2798SOL    HW1 8422   2.913   3.576   4.011
 2798SOL    HW2 8423   3.004   3.594   3.876
 2799SOL     OW 8424   2.064   2.147   5.222
 2799SOL    HW1 8425   1.984   2.207   5.209
 2799SOL    HW2 8426   2.054   2.098   5.308
 2800SOL     OW 8427   3.494   3.239   3.805
 2800SOL    HW1 8428   3.462   3.333   3.795
 2800SOL    HW2 8429   3.418   3.176   3.793
 2801SOL     OW 8430   2.326   3.605   4.047
 2801SOL    HW1 8431   2.359   3.644   4.133
 2801SOL    HW2 8432   2.402   3.598   3.982
 2802SOL     OW 8433   3.262   1.969   4.150
 2802SOL    HW1 8434   3.238   1.932   4.060
 2802SOL    HW2 8435   3.361   1.985   4.154
 2803SOL     OW 8436   2.111   3.647   4.965
 2803SOL    HW1 8437   2.168   3.582   5.015
 2803SOL    HW2 8438   2.095   3.614   4.872
 2804SOL     OW 8439   2.802   3.560   4.628
 2804SOL    HW1 8440   2.882   3.503   4.649
 2804SOL    HW2 8441   2.753   3.520   4.551
 2805SOL     OW 8442   2.244   2.562   4.204
 2805SOL    HW1 8443   2.289   2.472   4.201
 2805SOL    HW2 8444   2.150   2.551   4.237
 2806SOL     OW 8445   2.476   1.984   3.841
 2806SOL    HW1 8446   2.574   1.962   3.848
 2806SOL    HW2 8447   2.445   1.967   3.748
 2807SOL     OW 8448   2.750   3.376   4.919
 2807SOL    HW1 8449   2.727   3.351   4.825
 2807SOL    HW2 8450   2.811   3.307   4.958
 2808SOL     OW 8451   3.213   2.452   5.157
 2808SOL    HW1 8452   3.241   2.409   5.242
 2808SOL    HW2 8453   3.238   2.548   5.158
 2809SOL     OW 8454   2.665   3.264   4.648
 2809SOL    HW1 8455   2.755   3.278   4.606
 2809SOL    HW2 8456   2.594   3.266   4.577
 2810SOL     OW 8457   2.784   2.365   4.623
 2810SOL    HW1 8458   2.759   2.356   4.527
 2810SOL    HW2 8459   2.832   2.283   4.654
 2811SOL     OW 8460   2.401   1.926   4.236
 2811SOL    HW1 8461   2.320   1.927   4.294
 2811SOL    HW2 8462   2.404   2.009   4.181
 2812SOL     OW 8463   3.296   3.050   3.765
 2812SOL    HW1 8464   3.328   2.974   3.822
 2812SOL    HW2 8465   3.204   3.077   3.795
 2813SOL     OW 8466   2.159   1.897   3.895
 2813SOL    HW1 8467   2.208   1.981   3.874
 2813SOL    HW2 8468   2.221   1.832   3.940
 2814SOL     OW 8469   2.797   2.098   4.204
 2814SOL    HW1 8470   2.749   2.139   4.126
 2814SOL    HW2 8471   2.896   2.096   4.185
 2815SOL     OW 8472   3.089   3.432   4.517
 2815SOL    HW1 8473   3.110   3.506   4.452
 2815SOL    HW2 8474   3.157   3.432   4.590
 2816SOL     OW 8475   2.321   3.014   4.465
 2816SOL    HW1 8476   2.250   2.987   4.530
 2816SOL    HW2 8477   2.295   2.986   4.372
 2817SOL     OW 8478   3.133   3.659   4.315
 2817SOL    HW1 8479   3.177   3.723   4.251
 2817SOL    HW2 8480   3.083   3.711   4.385
 2818SOL     OW 8481   2.894   2.411   3.740
 2818SOL    HW1 8482   2.853   2.493   3.701
 2818SOL    HW2 8483   2.958   2.437   3.813
 2819SOL     OW 8484   1.940   2.418   5.110
 2819SOL    HW1 8485   2.032   2.417   5.069
 2819SOL    HW2 8486   1.934   2.492   5.177
 2820SOL     OW 8487   2.423   2.084   4.871
 2820SOL    HW1 8488   2.461   2.000   4.908
 2820SOL    HW2 8489   2.335   2.103   4.915
 2821SOL     OW 8490   2.728   2.316   4.366
 2821SOL    HW1 8491   2.696   2.388   4.304
 2821SOL    HW2 8492   2.752   2.235   4.313
 2822SOL     OW 8493   2.879   1.901   4.477
 2822SOL    HW1 8494   2.807   1.906   4.408
 2822SOL    HW2 8495   2.855   1.832   4.546
 2823SOL     OW 8496   3.291   3.035   4.591
 2823SOL    HW1 8497   3.236   2.951   4.584
 2823SOL    HW2 8498   3.317   3.064   4.499
 2824SOL     OW 8499   3.328   2.452   4.716
 2824SOL    HW1 8500   3.298   2.357   4.723
 2824SOL    HW2 8501   3.401   2.468   4.782
 2825SOL     OW 8502   3.719   2.695   4.101
 2825SOL    HW1 8503   3.761   2.631   4.165
 2825SOL    HW2 8504   3.681   2.644   4.023
 2826SOL     OW 8505   2.350   3.247   3.898
 2826SOL    HW1 8506   2.263   3.232   3.945
 2826SOL    HW2 8507   2.333   3.273   3.803
 2827SOL     OW 8508   3.526   3.142   4.381
 2827SOL    HW1 8509   3.625   3.150   4.395
 2827SOL    HW2 8510   3.481   3.226   4.412
 2828SOL     OW 8511   3.252   2.437   3.802
 2828SOL    HW1 8512   3.198   2.416   3.883
 2828SOL    HW2 8513   3.343   2.396   3.811
 2829SOL     OW 8514   2.389   2.118   4.052
 2829SOL    HW1 8515   2.416   2.059   3.977
 2829SOL    HW2 8516   2.389   2.213   4.021
 2830SOL     OW 8517   3.616   3.085   5.312
 2830SOL    HW1 8518   3.707   3.046   5.299
 2830SOL    HW2 8519   3.624   3.181   5.336
 2831SOL     OW 8520   2.926   3.209   5.064
 2831SOL    HW1 8521   2.846   3.186   5.119
 2831SOL    HW2 8522   3.009   3.183   5.113
 2832SOL     OW 8523   2.973   3.057   4.824
 2832SOL    HW1 8524   2.933   3.101   4.905
 2832SOL    HW2 8525   2.932   3.094   4.741
 2833SOL     OW 8526   3.500   2.961   4.803
 2833SOL    HW1 8527   3.505   3.042   4.862
 2833SOL    HW2 8528   3.414   2.963   4.752
 2834SOL     OW 8529   2.777   1.951   5.126
 2834SOL    HW1 8530   2.802   1.931   5.031
 2834SOL    HW2 8531   2.849   2.007   5.168
 2835SOL     OW 8532   2.567   2.912   4.092
 2835SOL    HW1 8533   2.553   2.919   4.191
 2835SOL    HW2 8534   2.651   2.861   4.074
 2836SOL     OW 8535   2.272   2.675   4.975
 2836SOL    HW1 8536   2.358   2.687   5.025
 2836SOL    HW2 8537   2.230   2.588   5.002
 2837SOL     OW 8538   3.136   2.248   4.986
 2837SOL    HW1 8539   3.157   2.322   5.050
 2837SOL    HW2 8540   3.047   2.265   4.943
 2838SOL     OW 8541   1.926   3.426   5.055
 2838SOL    HW1 8542   1.880   3.508   5.021
 2838SOL    HW2 8543   2.024   3.445   5.064
 2839SOL     OW 8544   2.229   2.962   4.225
 2839SOL    HW1 8545   2.222   3.045   4.169
 2839SOL    HW2 8546   2.233   2.882   4.165
 2840SOL     OW 8547   2.428   2.399   4.589
 2840SOL    HW1 8548   2.440   2.465   4.515
 2840SOL    HW2 8549   2.474   2.433   4.672
 2841SOL     OW 8550   3.114   3.210   4.112
 2841SOL    HW1 8551   3.164   3.287   4.152
 2841SOL    HW2 8552   3.019   3.212   4.144
 2842SOL     OW 8553   3.134   3.307   4.866
 2842SOL    HW1 8554   3.181   3.320   4.953
 2842SOL    HW2 8555   3.068   3.233   4.875
 2843SOL     OW 8556   3.444   2.501   4.196
 2843SOL    HW1 8557   3.413   2.562   4.269
 2843SOL    HW2 8558   3.494   2.553   4.127
 2844SOL     OW 8559   2.216   3.372   5.053
 2844SOL    HW1 8560   2.195   3.328   4.966
 2844SOL    HW2 8561   2.313   3.398   5.056
 2845SOL     OW 8562   2.264   2.613   5.322
 2845SOL    HW1 8563   2.332   2.668   5.275
 2845SOL    HW2 8564   2.304   2.525   5.349
 2846SOL     OW 8565   3.449   2.641   5.394
 2846SOL    HW1 8566   3.357   2.679   5.389
 2846SOL    HW2 8567   3.509   2.688   5.329
 2847SOL     OW 8568   2.435   2.732   4.753
 2847SOL    HW1 8569   2.479   2.821   4.744
 2847SOL    HW2 8570   2.372   2.732   4.830
 2848SOL     OW 8571   3.222   2.724   4.769
 2848SOL    HW1 8572   3.147   2.724   4.703
 2848SOL    HW2 8573   3.259   2.632   4.778
 2849SOL     OW 8574   3.071   2.387   3.999
 2849SOL    HW1 8575   3.084   2.303   4.053
 2849SOL    HW2 8576   3.042   2.461   4.059
 2850SOL     OW 8577   2.169   2.075   4.955
 2850SOL    HW1 8578   2.146   2.112   5.045
 2850SOL    HW2 8579   2.139   1.980   4.949
 2851SOL     OW 8580   1.899   3.172   5.006
 2851SOL    HW1 8581   1.952   3.123   5.074
 2851SOL    HW2 8582   1.921   3.270   5.011
 2852SOL     OW 8583   2.594   2.496   4.788
 2852SOL    HW1 8584   2.653   2.470   4.712
 2852SOL    HW2 8585   2.566   2.592   4.777
 2853SOL     OW 8586   2.169   1.925   4.342
 2853SOL    HW1 8587   2.158   2.019   4.375
 2853SOL    HW2 8588   2.164   1.862   4.419
 2854SOL     OW 8589   3.484   2.229   4.098
 2854SOL    HW1 8590   3.486   2.153   4.162
 2854SOL    HW2 8591   3.436   2.306   4.138
 2855SOL     OW 8592   2.885   2.628   4.690
 2855SOL    HW1 8593   2.900   2.649   4.786
 2855SOL    HW2 8594   2.855   2.533   4.681
 2856SOL     OW 8595   2.842   3.435   5.424
 2856SOL    HW1 8596   2.822   3.479   5.336
 2856SOL    HW2 8597   2.881   3.344   5.408
 2857SOL     OW 8598   3.402   2.136   3.849
 2857SOL    HW1 8599   3.341   2.061   3.872
 2857SOL    HW2 8600   3.424   2.188   3.932
 2858SOL     OW 8601   3.165   2.700   3.766
 2858SOL    HW1 8602   3.199   2.607   3.781
 2858SOL    HW2 8603   3.183   2.727   3.671
 2859SOL     OW 8604   2.930   3.195   4.573
 2859SOL    HW1 8605   2.937   3.111   4.518
 2859SOL    HW2 8606   2.992   3.264   4.537
 2860SOL     OW 8607   2.181   2.672   4.673
 2860SOL    HW1 8608   2.274   2.708   4.678
 2860SOL    HW2 8609   2.175   2.587   4.725
 2861SOL     OW 8610   2.201   2.371   4.730
 2861SOL    HW1 8611   2.149   2.288   4.713
 2861SOL    HW2 8612   2.278   2.376   4.666
 2862SOL     OW 8613   3.000   2.242   5.402
 2862SOL    HW1 8614   2.955   2.305   5.466
 2862SOL    HW2 8615   3.093   2.273   5.385
 2863SOL     OW 8616   3.022   2.069   5.201
 2863SOL    HW1 8617   3.022   2.133   5.278
 2863SOL    HW2 8618   3.050   2.117   5.118
 2864SOL     OW 8619   1.870   3.188   3.924
 2864SOL    HW1 8620   1.777   3.209   3.893
 2864SOL    HW2 8621   1.880   3.089   3.937
 2865SOL     OW 8622   1.950   3.663   4.651
 2865SOL    HW1 8623   1.908   3.577   4.624
 2865SOL    HW2 8624   2.044   3.666   4.617
 2866SOL     OW 8625   2.366   3.430   4.634
 2866SOL    HW1 8626   2.432   3.504   4.643
 2866SOL    HW2 8627   2.410   3.351   4.592
 2867SOL     OW 8628   2.864   2.658   4.962
 2867SOL    HW1 8629   2.905   2.626   5.048
 2867SOL    HW2 8630   2.768   2.631   4.959
 2868SOL     OW 8631   1.902   2.406   4.838
 2868SOL    HW1 8632   1.987   2.373   4.797
 2868SOL    HW2 8633   1.915   2.421   4.936
 2869SOL     OW 8634   2.677   2.434   4.049
 2869SOL    HW1 8635   2.684   2.345   4.003
 2869SOL    HW2 8636   2.583   2.468   4.041
 2870SOL     OW 8637   3.519   2.466   4.930
 2870SOL    HW1 8638   3.481   2.397   4.992
 2870SOL    HW2 8639   3.601   2.430   4.886
 2871SOL     OW 8640   2.114   3.426   5.468
 2871SOL    HW1 8641   2.084   3.483   5.544
 2871SOL    HW2 8642   2.107   3.329   5.494
 2872SOL     OW 8643   2.533   2.326   4.993
 2872SOL    HW1 8644   2.499   2.237   4.963
 2872SOL    HW2 8645   2.559   2.380   4.913
 2873SOL     OW 8646   2.792   3.540   5.189
 2873SOL    HW1 8647   2.768   3.522   5.094
 2873SOL    HW2 8648   2.822   3.634   5.199
 2874SOL     OW 8649   2.335   2.362   3.915
 2874SOL    HW1 8650   2.396   2.442   3.919
 2874SOL    HW2 8651   2.240   2.393   3.922
 2875SOL     OW 8652   2.021   2.999   5.190
 2875SOL    HW1 8653   2.043   2.938   5.266
 2875SOL    HW2 8654   2.031   2.950   5.104
 2876SOL     OW 8655   3.209   2.921   4.958
 2876SOL    HW1 8656   3.233   2.858   4.884
 2876SOL    HW2 8657   3.119   2.961   4.940
 2877SOL     OW 8658   3.164   2.717   4.033
 2877SOL    HW1 8659   3.078   2.686   4.075
 2877SOL    HW2 8660   3.160   2.703   3.934
 2878SOL     OW 8661   3.621   3.609   4.878
 2878SOL    HW1 8662   3.682   3.639   4.805
 2878SOL    HW2 8663   3.583   3.520   4.856
 2879SOL     OW 8664   3.114   3.593   4.852
 2879SOL    HW1 8665   3.198   3.598   4.798
 2879SOL    HW2 8666   3.091   3.497   4.870
 2880SOL     OW 8667   1.945   3.120   4.746
 2880SOL    HW1 8668   1.940   3.119   4.846
 2880SOL    HW2 8669   1.862   3.079   4.708
 2881SOL     OW 8670   3.588   1.997   4.247
 2881SOL    HW1 8671   3.661   1.980   4.180
 2881SOL    HW2 8672   3.557   1.910   4.285
 2882SOL     OW 8673   3.250   3.435   4.201
 2882SOL    HW1 8674   3.317   3.447   4.127
 2882SOL    HW2 8675   3.210   3.524   4.224
 2883SOL     OW 8676   3.142   2.789   4.396
 2883SOL    HW1 8677   3.202   2.708   4.398
 2883SOL    HW2 8678   3.182   2.858   4.336
 2884SOL     OW 8679   2.534   3.478   3.878
 2884SOL    HW1 8680   2.543   3.488   3.779
 2884SOL    HW2 8681   2.494   3.389   3.899
 2885SOL     OW 8682   3.512   3.582   5.118
 2885SOL    HW1 8683   3.565   3.592   5.034
 2885SOL    HW2 8684   3.485   3.672   5.152
 2886SOL     OW 8685   3.703   2.037   4.687
 2886SOL    HW1 8686   3.742   1.952   4.651
 2886SOL    HW2 8687   3.605   2.039   4.668
 2887SOL     OW 8688   2.125   2.188   4.444
 2887SOL    HW1 8689   2.046   2.239   4.410
 2887SOL    HW2 8690   2.116   2.173   4.542
 2888SOL     OW 8691   3.056   3.474   3.755
 2888SOL    HW1 8692   3.062   3.381   3.792
 2888SOL    HW2 8693   2.997   3.474   3.675
 2889SOL     OW 8694   2.684   2.864   5.096
 2889SOL    HW1 8695   2.724   2.863   5.004
 2889SOL    HW2 8696   2.694   2.956   5.136
 2890SOL     OW 8697   2.778   2.772   4.015
 2890SOL    HW1 8698   2.841   2.810   3.947
 2890SOL    HW2 8699   2.818   2.689   4.054
 2891SOL     OW 8700   3.366   3.469   3.768
 2891SOL    HW1 8701   3.274   3.506   3.775
 2891SOL    HW2 8702   3.404   3.489   3.678
 2892SOL     OW 8703   2.234   3.150   5.214
 2892SOL    HW1 8704   2.221   3.243   5.180
 2892SOL    HW2 8705   2.150   3.098   5.201
 2893SOL     OW 8706   3.476   3.154   5.013
 2893SOL    HW1 8707   3.536   3.157   5.093
 2893SOL    HW2 8708   3.401   3.218   5.026
 2894SOL     OW 8709   2.901   2.960   4.420
 2894SOL    HW1 8710   2.831   2.913   4.474
 2894SOL    HW2 8711   2.960   2.892   4.377
 2895SOL     OW 8712   2.876   2.098   4.695
 2895SOL    HW1 8713   2.868   2.062   4.602
 2895SOL    HW2 8714   2.874   2.022   4.760
 2896SOL     OW 8715   2.452   3.349   4.215
 2896SOL    HW1 8716   2.494   3.291   4.145
 2896SOL    HW2 8717   2.408   3.428   4.171
 2897SOL     OW 8718   3.571   2.247   5.105
 2897SOL    HW1 8719   3.644   2.316   5.109
 2897SOL    HW2 8720   3.599   2.172   5.046
 2898SOL     OW 8721   2.117   3.210   4.014
 2898SOL    HW1 8722   2.021   3.211   3.987
 2898SOL    HW2 8723   2.129   3.263   4.098
 2899SOL     OW 8724   2.534   2.065   5.213
 2899SOL    HW1 8725   2.624   2.049   5.173
 2899SOL    HW2 8726   2.542   2.070   5.312
 2900SOL     OW 8727   1.937   2.207   3.757
 2900SOL    HW1 8728   1.845   2.179   3.728
 2900SOL    HW2 8729   1.968   2.284   3.701
 2901SOL     OW 8730   3.302   2.718   5.122
 2901SOL    HW1 8731   3.245   2.770   5.059
 2901SOL    HW2 8732   3.398   2.730   5.098
 2902SOL     OW 8733   1.934   2.028   4.042
 2902SOL    HW1 8734   1.917   2.111   3.988
 2902SOL    HW2 8735   2.024   1.991   4.020
 2903SOL     OW 8736   3.045   3.197   3.843
 2903SOL    HW1 8737   2.946   3.186   3.845
 2903SOL    HW2 8738   3.079   3.212   3.936
 2904SOL     OW 8739   2.475   2.704   5.155
 2904SOL    HW1 8740   2.531   2.785   5.138
 2904SOL    HW2 8741   2.534   2.624   5.158
 2905SOL     OW 8742   3.355   3.629   4.683
 2905SOL    HW1 8743   3.388   3.693   4.614
 2905SOL    HW2 8744   3.421   3.623   4.758
 2906SOL     OW 8745   2.252   3.603   5.284
 2906SOL    HW1 8746   2.161   3.644   5.282
 2906SOL    HW2 8747   2.245   3.509   5.316
 2907SOL     OW 8748   3.536   2.745   4.978
 2907SOL    HW1 8749   3.509   2.656   4.941
 2907SOL    HW2 8750   3.537   2.813   4.905
 2908SOL     OW 8751   3.087   2.187   4.173
 2908SOL    HW1 8752   3.152   2.113   4.162
 2908SOL    HW2 8753   3.107   2.237   4.257
 2909SOL     OW 8754   2.456   2.607   4.376
 2909SOL    HW1 8755   2.506   2.692   4.357
 2909SOL    HW2 8756   2.368   2.609   4.328
 2910SOL     OW 8757   3.639   2.204   5.366
 2910SOL    HW1 8758   3.622   2.235   5.272
 2910SOL    HW2 8759   3.555   2.167   5.404
 2911SOL     OW 8760   3.592   2.796   5.241
 2911SOL    HW1 8761   3.630   2.887   5.256
 2911SOL    HW2 8762   3.584   2.779   5.142
 2912SOL     OW 8763   2.721   3.236   3.740
 2912SOL    HW1 8764   2.675   3.251   3.828
 2912SOL    HW2 8765   2.765   3.321   3.710
 2913SOL     OW 8766   2.523   3.652   4.677
 2913SOL    HW1 8767   2.477   3.740   4.664
 2913SOL    HW2 8768   2.622   3.664   4.670
 2914SOL     OW 8769   2.721   2.818   4.585
 2914SOL    HW1 8770   2.775   2.749   4.633
 2914SOL    HW2 8771   2.689   2.887   4.651
 2915SOL     OW 8772   2.945   2.846   3.811
 2915SOL    HW1 8773   2.922   2.899   3.729
 2915SOL    HW2 8774   3.026   2.790   3.792
 2916SOL     OW 8775   3.723   3.431   4.575
 2916SOL    HW1 8776   3.652   3.419   4.505
 2916SOL    HW2 8777   3.724   3.352   4.635
 2917SOL     OW 8778   1.941   3.102   4.377
 2917SOL    HW1 8779   1.940   3.055   4.465
 2917SOL    HW2 8780   2.023   3.074   4.326
 2918SOL     OW 8781   3.686   2.054   4.951
 2918SOL    HW1 8782   3.682   1.964   4.995
 2918SOL    HW2 8783   3.689   2.043   4.852
 2919SOL     OW 8784   2.290   2.286   4.244
 2919SOL    HW1 8785   2.320   2.214   4.182
 2919SOL    HW2 8786   2.251   2.246   4.327
 2920SOL     OW 8787   3.567   3.349   4.828
 2920SOL    HW1 8788   3.474   3.324   4.801
 2920SOL    HW2 8789   3.593   3.299   4.910
 2921SOL     OW 8790   2.179   2.409   5.004
 2921SOL    HW1 8791   2.217   2.350   5.076
 2921SOL    HW2 8792   2.219   2.383   4.916
 2922SOL     OW 8793   2.674   3.448   4.411
 2922SOL    HW1 8794   2.706   3.458   4.317
 2922SOL    HW2 8795   2.595   3.386   4.413
 2923SOL     OW 8796   3.286   2.076   4.836
 2923SOL    HW1 8797   3.338   2.011   4.891
 2923SOL    HW2 8798   3.237   2.139   4.897
 2924SOL     OW 8799   2.863   1.896   4.878
 2924SOL    HW1 8800   2.800   1.824   4.847
 2924SOL    HW2 8801   2.956   1.860   4.878
 2925SOL     OW 8802   2.632   3.192   4.025
 2925SOL    HW1 8803   2.586   3.105   4.042
 2925SOL    HW2 8804   2.723   3.189   4.066
 2926SOL     OW 8805   2.480   3.429   5.008
 2926SOL    HW1 8806   2.475   3.511   5.065
 2926SOL    HW2 8807   2.569   3.426   4.963
 2927SOL     OW 8808   3.214   1.914   3.892
 2927SOL    HW1 8809   3.249   1.873   3.808
 2927SOL    HW2 8810   3.124   1.876   3.912
 2928SOL     OW 8811   3.162   2.315   4.415
 2928SOL    HW1 8812   3.103   2.395   4.419
 2928SOL    HW2 8813   3.177   2.280   4.508
 2929SOL     OW 8814   3.455   2.083   4.606
 2929SOL    HW1 8815   3.371   2.082   4.660
 2929SOL    HW2 8816   3.457   2.166   4.550
 2930SOL     OW 8817   1.901   2.939   4.024
 2930SOL    HW1 8818   2.000   2.928   4.015
 2930SOL    HW2 8819   1.861   2.853   4.056
 2931SOL     OW 8820   2.737   3.508   4.061
 2931SOL    HW1 8821   2.660   3.473   4.007
 2931SOL    HW2 8822   2.705   3.579   4.123
 2932SOL     OW 8823   2.092   4.352   0.113
 2932SOL    HW1 8824   1.999   4.350   0.150
 2932SOL    HW2 8825   2.093   4.313   0.021
 2933SOL     OW 8826   2.087   3.999   0.996
 2933SOL    HW1 8827   2.122   3.982   1.088
 2933SOL    HW2 8828   1.999   3.954   0.984
 2934SOL     OW 8829   1.881   4.092   0.647
 2934SOL    HW1 8830   1.799   4.135   0.686
 2934SOL    HW2 8831   1.853   4.019   0.584
 2935SOL     OW 8832   2.431   4.999   1.165
 2935SOL    HW1 8833   2.338   4.992   1.128
 2935SOL    HW2 8834   2.442   5.088   1.209
 2936SOL     OW 8835   3.417   5.235   0.703
 2936SOL    HW1 8836   3.360   5.219   0.784
 2936SOL    HW2 8837   3.358   5.245   0.623
 2937SOL     OW 8838   2.997   4.427   0.717
 2937SOL    HW1 8839   3.054   4.505   0.692
 2937SOL    HW2 8840   2.937   4.453   0.793
 2938SOL     OW 8841   3.617   4.331   0.231
 2938SOL    HW1 8842   3.605   4.318   0.132
 2938SOL    HW2 8843   3.587   4.250   0.280
 2939SOL     OW 8844   2.630   4.868   1.023
 2939SOL    HW1 8845   2.552   4.885   1.083
 2939SOL    HW2 8846   2.664   4.955   0.987
 2940SOL     OW 8847   2.712   4.522   1.823
 2940SOL    HW1 8848   2.708   4.598   1.888
 2940SOL    HW2 8849   2.734   4.558   1.732
 2941SOL     OW 8850   2.547   4.736   0.665
 2941SOL    HW1 8851   2.616   4.720   0.735
 2941SOL    HW2 8852   2.474   4.793   0.703
 2942SOL     OW 8853   2.548   4.885   1.803
 2942SOL    HW1 8854   2.608   4.964   1.817
 2942SOL    HW2 8855   2.462   4.916   1.762
 2943SOL     OW 8856   2.197   5.159   1.061
 2943SOL    HW1 8857   2.119   5.128   1.008
 2943SOL    HW2 8858   2.255   5.217   1.004
 2944SOL     OW 8859   3.322   5.229   1.339
 2944SOL    HW1 8860   3.346   5.323   1.365
 2944SOL    HW2 8861   3.306   5.175   1.421
 2945SOL     OW 8862   2.300   4.116   1.499
 2945SOL    HW1 8863   2.382   4.060   1.508
 2945SOL    HW2 8864   2.219   4.058   1.503
 2946SOL     OW 8865   3.465   4.171   0.737
 2946SOL    HW1 8866   3.391   4.217   0.687
 2946SOL    HW2 8867   3.516   4.239   0.790
 2947SOL     OW 8868   2.989   5.065   1.690
 2947SOL    HW1 8869   3.036   5.065   1.778
 2947SOL    HW2 8870   2.941   4.978   1.679
 2948SOL     OW 8871   2.092   5.158   0.538
 2948SOL    HW1 8872   2.066   5.254   0.538
 2948SOL    HW2 8873   2.021   5.104   0.583
 2949SOL     OW 8874   2.102   4.815   0.886
 2949SOL    HW1 8875   2.116   4.731   0.938
 2949SOL    HW2 8876   2.047   4.879   0.941
 2950SOL     OW 8877   2.468   4.688   0.123
 2950SOL    HW1 8878   2.475   4.772   0.069
 2950SOL    HW2 8879   2.514   4.701   0.211
 2951SOL     OW 8880   3.456   3.838   1.480
 2951SOL    HW1 8881   3.438   3.905   1.408
 2951SOL    HW2 8882   3.453   3.884   1.569
 2952SOL     OW 8883   1.984   4.367   0.563
 2952SOL    HW1 8884   1.939   4.279   0.580
 2952SOL    HW2 8885   1.983   4.421   0.647
 2953SOL     OW 8886   1.889   5.320   0.117
 2953SOL    HW1 8887   1.870   5.224   0.138
 2953SOL    HW2 8888   1.856   5.378   0.192
 2954SOL     OW 8889   3.551   4.646   0.612
 2954SOL    HW1 8890   3.646   4.617   0.620
 2954SOL    HW2 8891   3.543   4.711   0.537
 2955SOL     OW 8892   3.503   4.832   0.432
 2955SOL    HW1 8893   3.589   4.834   0.380
 2955SOL    HW2 8894   3.517   4.879   0.520
 2956SOL     OW 8895   1.975   4.461   1.597
 2956SOL    HW1 8896   2.063   4.448   1.642
 2956SOL    HW2 8897   1.962   4.558   1.575
 2957SOL     OW 8898   2.475   5.089   0.726
 2957SOL    HW1 8899   2.426   5.002   0.735
 2957SOL    HW2 8900   2.452   5.132   0.639
 2958SOL     OW 8901   3.155   4.952   1.423
 2958SOL    HW1 8902   3.192   4.879   1.365
 2958SOL    HW2 8903   3.207   4.957   1.508
 2959SOL     OW 8904   2.671   3.728   0.502
 2959SOL    HW1 8905   2.711   3.819   0.493
 2959SOL    HW2 8906   2.571   3.736   0.508
 2960SOL     OW 8907   2.059   4.700   1.264
 2960SOL    HW1 8908   2.148   4.655   1.250
 2960SOL    HW2 8909   1.986   4.635   1.245
 2961SOL     OW 8910   3.387   4.723   0.190
 2961SOL    HW1 8911   3.324   4.647   0.203
 2961SOL    HW2 8912   3.435   4.741   0.276
 2962SOL     OW 8913   2.179   3.975   1.801
 2962SOL    HW1 8914   2.250   4.046   1.807
 2962SOL    HW2 8915   2.091   4.014   1.829
 2963SOL     OW 8916   3.328   5.141   0.953
 2963SOL    HW1 8917   3.269   5.147   1.033
 2963SOL    HW2 8918   3.313   5.053   0.907
 2964SOL     OW 8919   2.460   4.453   0.270
 2964SOL    HW1 8920   2.484   4.522   0.202
 2964SOL    HW2 8921   2.382   4.486   0.324
 2965SOL     OW 8922   3.143   4.069   0.944
 2965SOL    HW1 8923   3.057   4.019   0.931
 2965SOL    HW2 8924   3.205   4.015   1.000
 2966SOL     OW 8925   3.438   5.386   0.307
 2966SOL    HW1 8926   3.527   5.432   0.310
 2966SOL    HW2 8927   3.417   5.362   0.212
 2967SOL     OW 8928   2.669   4.329   1.465
 2967SOL    HW1 8929   2.622   4.326   1.554
 2967SOL    HW2 8930   2.618   4.274   1.399
 2968SOL     OW 8931   3.256   4.193   1.674
 2968SOL    HW1 8932   3.236   4.236   1.762
 2968SOL    HW2 8933   3.334   4.131   1.683
 2969SOL     OW 8934   2.835   4.614   1.572
 2969SOL    HW1 8935   2.881   4.530   1.543
 2969SOL    HW2 8936   2.779   4.648   1.497
 2970SOL     OW 8937   2.853   4.134   1.242
 2970SOL    HW1 8938   2.776   4.168   1.296
 2970SOL    HW2 8939   2.819   4.083   1.163
 2971SOL     OW 8940   2.903   4.425   0.429
 2971SOL    HW1 8941   2.929   4.421   0.525
 2971SOL    HW2 8942   2.818   4.374   0.415
 2972SOL     OW 8943   1.938   4.535   0.789
 2972SOL    HW1 8944   2.037   4.523   0.798
 2972SOL    HW2 8945   1.914   4.630   0.810
 2973SOL     OW 8946   2.727   4.072   0.195
 2973SOL    HW1 8947   2.786   4.135   0.146
 2973SOL    HW2 8948   2.746   3.978   0.166
 2974SOL     OW 8949   3.581   4.309   1.831
 2974SOL    HW1 8950   3.555   4.398   1.795
 2974SOL    HW2 8951   3.579   4.241   1.758
 2975SOL     OW 8952   3.224   4.868   0.545
 2975SOL    HW1 8953   3.307   4.839   0.497
 2975SOL    HW2 8954   3.175   4.935   0.489
 2976SOL     OW 8955   2.412   3.920   0.885
 2976SOL    HW1 8956   2.407   3.915   0.985
 2976SOL    HW2 8957   2.414   4.016   0.856
 2977SOL     OW 8958   2.870   5.180   0.477
 2977SOL    HW1 8959   2.824   5.252   0.425
 2977SOL    HW2 8960   2.866   5.200   0.575
 2978SOL     OW 8961   3.657   4.790   0.873
 2978SOL    HW1 8962   3.595   4.775   0.797
 2978SOL    HW2 8963   3.605   4.801   0.958
 2979SOL     OW 8964   3.089   5.274   1.506
 2979SOL    HW1 8965   3.095   5.197   1.570
 2979SOL    HW2 8966   3.037   5.248   1.426
 2980SOL     OW 8967   2.183   4.667   0.242
 2980SOL    HW1 8968   2.265   4.706   0.200
 2980SOL    HW2 8969   2.156   4.585   0.193
 2981SOL     OW 8970   3.320   4.459   0.728
 2981SOL    HW1 8971   3.315   4.394   0.803
 2981SOL    HW2 8972   3.400   4.518   0.741
 2982SOL     OW 8973   2.323   4.990   1.727
 2982SOL    HW1 8974   2.273   4.991   1.641
 2982SOL    HW2 8975   2.260   4.972   1.803
 2983SOL     OW 8976   2.973   5.500   0.237
 2983SOL    HW1 8977   2.913   5.438   0.287
 2983SOL    HW2 8978   3.004   5.456   0.152
 2984SOL     OW 8979   2.064   4.009   1.498
 2984SOL    HW1 8980   1.984   4.069   1.485
 2984SOL    HW2 8981   2.054   3.960   1.584
 2985SOL     OW 8982   3.494   5.101   0.081
 2985SOL    HW1 8983   3.462   5.195   0.071
 2985SOL    HW2 8984   3.418   5.038   0.069
 2986SOL     OW 8985   3.262   3.831   0.426
 2986SOL    HW1 8986   3.238   3.794   0.336
 2986SOL    HW2 8987   3.361   3.847   0.430
 2987SOL     OW 8988   2.244   4.424   0.480
 2987SOL    HW1 8989   2.289   4.334   0.477
 2987SOL    HW2 8990   2.150   4.413   0.513
 2988SOL     OW 8991   3.409   3.946   1.729
 2988SOL    HW1 8992   3.404   3.983   1.821
 2988SOL    HW2 8993   3.337   3.877   1.717
 2989SOL     OW 8994   2.476   3.846   0.117
 2989SOL    HW1 8995   2.574   3.824   0.124
 2989SOL    HW2 8996   2.445   3.829   0.024
 2990SOL     OW 8997   2.643   3.988   1.749
 2990SOL    HW1 8998   2.710   3.927   1.792
 2990SOL    HW2 8999   2.570   4.007   1.814
 2991SOL     OW 9000   3.213   4.314   1.433
 2991SOL    HW1 9001   3.241   4.271   1.518
 2991SOL    HW2 9002   3.238   4.410   1.434
 2992SOL     OW 9003   2.665   5.126   0.924
 2992SOL    HW1 9004   2.755   5.140   0.882
 2992SOL    HW2 9005   2.594   5.128   0.853
 2993SOL     OW 9006   2.784   4.227   0.899
 2993SOL    HW1 9007   2.759   4.218   0.803
 2993SOL    HW2 9008   2.832   4.145   0.930
 2994SOL     OW 9009   2.401   3.788   0.512
 2994SOL    HW1 9010   2.320   3.789   0.570
 2994SOL    HW2 9011   2.404   3.871   0.457
 2995SOL     OW 9012   3.296   4.912   0.041
 2995SOL    HW1 9013   3.328   4.836   0.098
 2995SOL    HW2 9014   3.204   4.939   0.071
 2996SOL     OW 9015   2.159   3.759   0.171
 2996SOL    HW1 9016   2.208   3.843   0.150
 2996SOL    HW2 9017   2.221   3.694   0.216
 2997SOL     OW 9018   2.797   3.960   0.480
 2997SOL    HW1 9019   2.749   4.001   0.402
 2997SOL    HW2 9020   2.896   3.958   0.461
 2998SOL     OW 9021   2.938   4.407   1.464
 2998SOL    HW1 9022   2.858   4.346   1.467
 2998SOL    HW2 9023   3.019   4.354   1.440
 2999SOL     OW 9024   3.089   5.294   0.793
 2999SOL    HW1 9025   3.110   5.368   0.728
 2999SOL    HW2 9026   3.157   5.294   0.866
 3000SOL     OW 9027   2.321   4.876   0.741
 3000SOL    HW1 9028   2.250   4.849   0.806
 3000SOL    HW2 9029   2.295   4.848   0.648
 3001SOL     OW 9030   2.894   4.273   0.016
 3001SOL    HW1 9031   2.853   4.355  -0.023
 3001SOL    HW2 9032   2.958   4.299   0.089
 3002SOL     OW 9033   1.940   4.280   1.386
 3002SOL    HW1 9034   2.032   4.279   1.345
 3002SOL    HW2 9035   1.934   4.354   1.453
 3003SOL     OW 9036   2.423   3.946   1.147
 3003SOL    HW1 9037   2.461   3.862   1.184
 3003SOL    HW2 9038   2.335   3.965   1.191
 3004SOL     OW 9039   2.728   4.178   0.642
 3004SOL    HW1 9040   2.696   4.250   0.580
 3004SOL    HW2 9041   2.752   4.097   0.589
 3005SOL     OW 9042   2.879   3.763   0.753
 3005SOL    HW1 9043   2.807   3.768   0.684
 3005SOL    HW2 9044   2.855   3.694   0.822
 3006SOL     OW 9045   3.291   4.897   0.867
 3006SOL    HW1 9046   3.236   4.813   0.860
 3006SOL    HW2 9047   3.317   4.926   0.775
 3007SOL     OW 9048   3.328   4.314   0.992
 3007SOL    HW1 9049   3.298   4.219   0.999
 3007SOL    HW2 9050   3.401   4.330   1.058
 3008SOL     OW 9051   3.719   4.557   0.377
 3008SOL    HW1 9052   3.761   4.493   0.441
 3008SOL    HW2 9053   3.681   4.506   0.299
 3009SOL     OW 9054   2.350   5.109   0.174
 3009SOL    HW1 9055   2.263   5.094   0.221
 3009SOL    HW2 9056   2.333   5.135   0.079
 3010SOL     OW 9057   3.526   5.004   0.657
 3010SOL    HW1 9058   3.625   5.012   0.671
 3010SOL    HW2 9059   3.481   5.088   0.688
 3011SOL     OW 9060   3.252   4.299   0.078
 3011SOL    HW1 9061   3.198   4.278   0.159
 3011SOL    HW2 9062   3.343   4.258   0.087
 3012SOL     OW 9063   2.389   3.980   0.328
 3012SOL    HW1 9064   2.416   3.921   0.253
 3012SOL    HW2 9065   2.389   4.075   0.297
 3013SOL     OW 9066   3.616   4.947   1.588
 3013SOL    HW1 9067   3.707   4.908   1.575
 3013SOL    HW2 9068   3.624   5.043   1.612
 3014SOL     OW 9069   2.926   5.071   1.340
 3014SOL    HW1 9070   2.846   5.048   1.395
 3014SOL    HW2 9071   3.009   5.045   1.389
 3015SOL     OW 9072   2.973   4.919   1.100
 3015SOL    HW1 9073   2.933   4.963   1.181
 3015SOL    HW2 9074   2.932   4.956   1.017
 3016SOL     OW 9075   3.500   4.823   1.079
 3016SOL    HW1 9076   3.505   4.904   1.138
 3016SOL    HW2 9077   3.414   4.825   1.028
 3017SOL     OW 9078   2.777   3.813   1.402
 3017SOL    HW1 9079   2.802   3.793   1.307
 3017SOL    HW2 9080   2.849   3.869   1.444
 3018SOL     OW 9081   2.842   4.840   1.719
 3018SOL    HW1 9082   2.743   4.846   1.729
 3018SOL    HW2 9083   2.865   4.760   1.663
 3019SOL     OW 9084   2.567   4.774   0.368
 3019SOL    HW1 9085   2.553   4.781   0.467
 3019SOL    HW2 9086   2.651   4.723   0.350
 3020SOL     OW 9087   2.272   4.537   1.251
 3020SOL    HW1 9088   2.358   4.549   1.301
 3020SOL    HW2 9089   2.230   4.450   1.278
 3021SOL     OW 9090   3.136   4.110   1.262
 3021SOL    HW1 9091   3.157   4.184   1.326
 3021SOL    HW2 9092   3.047   4.127   1.219
 3022SOL     OW 9093   2.229   4.824   0.501
 3022SOL    HW1 9094   2.222   4.907   0.445
 3022SOL    HW2 9095   2.233   4.744   0.441
 3023SOL     OW 9096   2.428   4.261   0.865
 3023SOL    HW1 9097   2.440   4.327   0.791
 3023SOL    HW2 9098   2.474   4.295   0.948
 3024SOL     OW 9099   3.114   5.072   0.388
 3024SOL    HW1 9100   3.164   5.149   0.428
 3024SOL    HW2 9101   3.019   5.074   0.420
 3025SOL     OW 9102   3.134   5.169   1.142
 3025SOL    HW1 9103   3.181   5.182   1.229
 3025SOL    HW2 9104   3.068   5.095   1.151
 3026SOL     OW 9105   3.444   4.363   0.472
 3026SOL    HW1 9106   3.413   4.424   0.545
 3026SOL    HW2 9107   3.494   4.415   0.403
 3027SOL     OW 9108   2.216   5.234   1.329
 3027SOL    HW1 9109   2.195   5.190   1.242
 3027SOL    HW2 9110   2.313   5.260   1.332
 3028SOL     OW 9111   2.264   4.475   1.598
 3028SOL    HW1 9112   2.332   4.530   1.551
 3028SOL    HW2 9113   2.304   4.387   1.625
 3029SOL     OW 9114   3.449   4.503   1.670
 3029SOL    HW1 9115   3.357   4.541   1.665
 3029SOL    HW2 9116   3.509   4.550   1.605
 3030SOL     OW 9117   2.875   3.829   1.770
 3030SOL    HW1 9118   2.881   3.914   1.718
 3030SOL    HW2 9119   2.907   3.753   1.713
 3031SOL     OW 9120   2.366   3.774   1.740
 3031SOL    HW1 9121   2.324   3.717   1.670
 3031SOL    HW2 9122   2.300   3.843   1.772
 3032SOL     OW 9123   2.435   4.594   1.029
 3032SOL    HW1 9124   2.479   4.683   1.020
 3032SOL    HW2 9125   2.372   4.594   1.106
 3033SOL     OW 9126   3.222   4.586   1.045
 3033SOL    HW1 9127   3.147   4.586   0.979
 3033SOL    HW2 9128   3.259   4.494   1.054
 3034SOL     OW 9129   3.071   4.249   0.275
 3034SOL    HW1 9130   3.084   4.165   0.329
 3034SOL    HW2 9131   3.042   4.323   0.335
 3035SOL     OW 9132   2.169   3.937   1.231
 3035SOL    HW1 9133   2.146   3.974   1.321
 3035SOL    HW2 9134   2.139   3.842   1.225
 3036SOL     OW 9135   1.899   5.034   1.282
 3036SOL    HW1 9136   1.952   4.985   1.350
 3036SOL    HW2 9137   1.921   5.132   1.287
 3037SOL     OW 9138   2.594   4.358   1.064
 3037SOL    HW1 9139   2.653   4.332   0.988
 3037SOL    HW2 9140   2.566   4.454   1.053
 3038SOL     OW 9141   3.590   4.659   1.854
 3038SOL    HW1 9142   3.544   4.652   1.765
 3038SOL    HW2 9143   3.528   4.703   1.920
 3039SOL     OW 9144   2.169   3.787   0.618
 3039SOL    HW1 9145   2.158   3.881   0.651
 3039SOL    HW2 9146   2.164   3.724   0.695
 3040SOL     OW 9147   3.484   4.091   0.374
 3040SOL    HW1 9148   3.486   4.015   0.438
 3040SOL    HW2 9149   3.436   4.168   0.414
 3041SOL     OW 9150   2.885   4.490   0.966
 3041SOL    HW1 9151   2.900   4.511   1.062
 3041SOL    HW2 9152   2.855   4.395   0.957
 3042SOL     OW 9153   3.721   5.242   1.605
 3042SOL    HW1 9154   3.735   5.269   1.510
 3042SOL    HW2 9155   3.804   5.264   1.658
 3043SOL     OW 9156   2.212   4.622   1.804
 3043SOL    HW1 9157   2.288   4.666   1.852
 3043SOL    HW2 9158   2.247   4.575   1.722
 3044SOL     OW 9159   3.402   3.998   0.125
 3044SOL    HW1 9160   3.341   3.923   0.148
 3044SOL    HW2 9161   3.424   4.050   0.208
 3045SOL     OW 9162   3.165   4.562   0.042
 3045SOL    HW1 9163   3.199   4.469   0.057
 3045SOL    HW2 9164   3.183   4.589  -0.053
 3046SOL     OW 9165   2.930   5.057   0.849
 3046SOL    HW1 9166   2.937   4.973   0.794
 3046SOL    HW2 9167   2.992   5.126   0.813
 3047SOL     OW 9168   2.181   4.534   0.949
 3047SOL    HW1 9169   2.274   4.570   0.954
 3047SOL    HW2 9170   2.175   4.449   1.001
 3048SOL     OW 9171   2.201   4.233   1.006
 3048SOL    HW1 9172   2.149   4.150   0.989
 3048SOL    HW2 9173   2.278   4.238   0.942
 3049SOL     OW 9174   3.000   4.104   1.678
 3049SOL    HW1 9175   2.955   4.167   1.742
 3049SOL    HW2 9176   3.093   4.135   1.661
 3050SOL     OW 9177   3.022   3.931   1.477
 3050SOL    HW1 9178   3.022   3.995   1.554
 3050SOL    HW2 9179   3.050   3.979   1.394
 3051SOL     OW 9180   1.870   5.050   0.200
 3051SOL    HW1 9181   1.777   5.071   0.169
 3051SOL    HW2 9182   1.880   4.951   0.213
 3052SOL     OW 9183   2.864   4.520   1.238
 3052SOL    HW1 9184   2.905   4.488   1.324
 3052SOL    HW2 9185   2.768   4.493   1.235
 3053SOL     OW 9186   1.902   4.268   1.114
 3053SOL    HW1 9187   1.987   4.235   1.073
 3053SOL    HW2 9188   1.915   4.283   1.212
 3054SOL     OW 9189   2.051   4.244   1.722
 3054SOL    HW1 9190   2.110   4.204   1.652
 3054SOL    HW2 9191   1.993   4.315   1.681
 3055SOL     OW 9192   3.231   4.674   1.660
 3055SOL    HW1 9193   3.270   4.763   1.680
 3055SOL    HW2 9194   3.241   4.654   1.563
 3056SOL     OW 9195   2.677   4.296   0.325
 3056SOL    HW1 9196   2.684   4.207   0.279
 3056SOL    HW2 9197   2.583   4.330   0.317
 3057SOL     OW 9198   3.519   4.328   1.206
 3057SOL    HW1 9199   3.481   4.259   1.268
 3057SOL    HW2 9200   3.601   4.292   1.162
 3058SOL     OW 9201   2.114   5.288   1.744
 3058SOL    HW1 9202   2.084   5.345   1.820
 3058SOL    HW2 9203   2.107   5.191   1.770
 3059SOL     OW 9204   2.533   4.188   1.269
 3059SOL    HW1 9205   2.499   4.099   1.239
 3059SOL    HW2 9206   2.559   4.242   1.189
 3060SOL     OW 9207   2.335   4.224   0.191
 3060SOL    HW1 9208   2.396   4.304   0.195
 3060SOL    HW2 9209   2.240   4.255   0.198
 3061SOL     OW 9210   2.021   4.861   1.466
 3061SOL    HW1 9211   2.043   4.800   1.542
 3061SOL    HW2 9212   2.031   4.812   1.380
 3062SOL     OW 9213   3.209   4.783   1.234
 3062SOL    HW1 9214   3.233   4.720   1.160
 3062SOL    HW2 9215   3.119   4.823   1.216
 3063SOL     OW 9216   3.164   4.579   0.309
 3063SOL    HW1 9217   3.078   4.548   0.351
 3063SOL    HW2 9218   3.160   4.565   0.210
 3064SOL     OW 9219   1.945   4.982   1.022
 3064SOL    HW1 9220   1.940   4.981   1.122
 3064SOL    HW2 9221   1.862   4.941   0.984
 3065SOL     OW 9222   2.550   5.386   1.716
 3065SOL    HW1 9223   2.494   5.467   1.725
 3065SOL    HW2 9224   2.602   5.390   1.630
 3066SOL     OW 9225   2.765   3.810   0.133
 3066SOL    HW1 9226   2.816   3.811   0.047
 3066SOL    HW2 9227   2.821   3.768   0.204
 3067SOL     OW 9228   3.588   3.859   0.523
 3067SOL    HW1 9229   3.661   3.842   0.456
 3067SOL    HW2 9230   3.557   3.772   0.561
 3068SOL     OW 9231   3.142   4.651   0.672
 3068SOL    HW1 9232   3.202   4.570   0.674
 3068SOL    HW2 9233   3.182   4.720   0.612
 3069SOL     OW 9234   2.692   4.997   1.422
 3069SOL    HW1 9235   2.687   5.030   1.517
 3069SOL    HW2 9236   2.606   5.016   1.376
 3070SOL     OW 9237   3.703   3.899   0.963
 3070SOL    HW1 9238   3.742   3.814   0.927
 3070SOL    HW2 9239   3.605   3.901   0.944
 3071SOL     OW 9240   2.125   4.050   0.720
 3071SOL    HW1 9241   2.046   4.101   0.686
 3071SOL    HW2 9242   2.116   4.035   0.818
 3072SOL     OW 9243   3.056   5.336   0.031
 3072SOL    HW1 9244   3.062   5.243   0.068
 3072SOL    HW2 9245   2.997   5.336  -0.049
 3073SOL     OW 9246   2.684   4.726   1.372
 3073SOL    HW1 9247   2.724   4.725   1.280
 3073SOL    HW2 9248   2.694   4.818   1.412
 3074SOL     OW 9249   2.778   4.634   0.291
 3074SOL    HW1 9250   2.841   4.672   0.223
 3074SOL    HW2 9251   2.818   4.551   0.330
 3075SOL     OW 9252   2.234   5.012   1.490
 3075SOL    HW1 9253   2.221   5.105   1.456
 3075SOL    HW2 9254   2.150   4.960   1.477
 3076SOL     OW 9255   3.476   5.016   1.289
 3076SOL    HW1 9256   3.536   5.019   1.369
 3076SOL    HW2 9257   3.401   5.080   1.302
 3077SOL     OW 9258   2.901   4.822   0.696
 3077SOL    HW1 9259   2.831   4.775   0.750
 3077SOL    HW2 9260   2.960   4.754   0.653
 3078SOL     OW 9261   2.876   3.960   0.971
 3078SOL    HW1 9262   2.868   3.924   0.878
 3078SOL    HW2 9263   2.874   3.884   1.036
 3079SOL     OW 9264   3.571   4.109   1.381
 3079SOL    HW1 9265   3.644   4.178   1.385
 3079SOL    HW2 9266   3.599   4.034   1.322
 3080SOL     OW 9267   2.117   5.072   0.290
 3080SOL    HW1 9268   2.021   5.073   0.263
 3080SOL    HW2 9269   2.129   5.125   0.374
 3081SOL     OW 9270   1.967   4.737   1.726
 3081SOL    HW1 9271   1.890   4.704   1.780
 3081SOL    HW2 9272   2.052   4.707   1.768
 3082SOL     OW 9273   2.534   3.927   1.489
 3082SOL    HW1 9274   2.624   3.911   1.449
 3082SOL    HW2 9275   2.542   3.932   1.588
 3083SOL     OW 9276   3.302   4.580   1.398
 3083SOL    HW1 9277   3.245   4.632   1.335
 3083SOL    HW2 9278   3.398   4.592   1.374
 3084SOL     OW 9279   1.934   3.890   0.318
 3084SOL    HW1 9280   1.917   3.973   0.264
 3084SOL    HW2 9281   2.024   3.853   0.296
 3085SOL     OW 9282   3.045   5.059   0.119
 3085SOL    HW1 9283   2.946   5.048   0.121
 3085SOL    HW2 9284   3.079   5.074   0.212
 3086SOL     OW 9285   2.475   4.566   1.431
 3086SOL    HW1 9286   2.531   4.647   1.414
 3086SOL    HW2 9287   2.534   4.486   1.434
 3087SOL     OW 9288   2.578   4.289   1.708
 3087SOL    HW1 9289   2.597   4.354   1.782
 3087SOL    HW2 9290   2.638   4.209   1.717
 3088SOL     OW 9291   3.312   4.944   1.633
 3088SOL    HW1 9292   3.303   4.934   1.732
 3088SOL    HW2 9293   3.408   4.937   1.607
 3089SOL     OW 9294   3.536   4.607   1.254
 3089SOL    HW1 9295   3.509   4.518   1.217
 3089SOL    HW2 9296   3.537   4.675   1.181
 3090SOL     OW 9297   3.087   4.049   0.449
 3090SOL    HW1 9298   3.152   3.975   0.438
 3090SOL    HW2 9299   3.107   4.099   0.533
 3091SOL     OW 9300   2.456   4.469   0.652
 3091SOL    HW1 9301   2.506   4.554   0.633
 3091SOL    HW2 9302   2.368   4.471   0.604
 3092SOL     OW 9303   3.639   4.066   1.642
 3092SOL    HW1 9304   3.622   4.097   1.548
 3092SOL    HW2 9305   3.555   4.029   1.680
 3093SOL     OW 9306   3.592   4.658   1.517
 3093SOL    HW1 9307   3.630   4.749   1.532
 3093SOL    HW2 9308   3.584   4.641   1.418
 3094SOL     OW 9309   2.721   5.098   0.016
 3094SOL    HW1 9310   2.675   5.113   0.104
 3094SOL    HW2 9311   2.765   5.183  -0.014
 3095SOL     OW 9312   2.721   4.680   0.861
 3095SOL    HW1 9313   2.775   4.611   0.909
 3095SOL    HW2 9314   2.689   4.749   0.927
 3096SOL     OW 9315   2.945   4.708   0.087
 3096SOL    HW1 9316   2.922   4.761   0.005
 3096SOL    HW2 9317   3.026   4.652   0.068
 3097SOL     OW 9318   2.083   5.038   1.844
 3097SOL    HW1 9319   2.018   4.965   1.823
 3097SOL    HW2 9320   2.087   5.052   1.942
 3098SOL     OW 9321   1.941   4.964   0.653
 3098SOL    HW1 9322   1.940   4.917   0.741
 3098SOL    HW2 9323   2.023   4.936   0.602
 3099SOL     OW 9324   2.534   5.115   1.624
 3099SOL    HW1 9325   2.456   5.065   1.662
 3099SOL    HW2 9326   2.531   5.210   1.655
 3100SOL     OW 9327   3.686   3.916   1.227
 3100SOL    HW1 9328   3.682   3.826   1.271
 3100SOL    HW2 9329   3.689   3.905   1.128
 3101SOL     OW 9330   2.290   4.148   0.520
 3101SOL    HW1 9331   2.320   4.076   0.458
 3101SOL    HW2 9332   2.251   4.108   0.603
 3102SOL     OW 9333   3.567   5.211   1.104
 3102SOL    HW1 9334   3.474   5.186   1.077
 3102SOL    HW2 9335   3.593   5.161   1.186
 3103SOL     OW 9336   2.179   4.271   1.280
 3103SOL    HW1 9337   2.217   4.212   1.352
 3103SOL    HW2 9338   2.219   4.245   1.192
 3104SOL     OW 9339   3.286   3.938   1.112
 3104SOL    HW1 9340   3.338   3.873   1.167
 3104SOL    HW2 9341   3.237   4.001   1.173
 3105SOL     OW 9342   2.863   3.758   1.154
 3105SOL    HW1 9343   2.800   3.686   1.123
 3105SOL    HW2 9344   2.956   3.722   1.154
 3106SOL     OW 9345   2.632   5.054   0.301
 3106SOL    HW1 9346   2.586   4.967   0.318
 3106SOL    HW2 9347   2.723   5.051   0.342
 3107SOL     OW 9348   2.480   5.291   1.284
 3107SOL    HW1 9349   2.475   5.373   1.341
 3107SOL    HW2 9350   2.569   5.288   1.239
 3108SOL     OW 9351   3.214   3.776   0.168
 3108SOL    HW1 9352   3.249   3.735   0.084
 3108SOL    HW2 9353   3.124   3.738   0.188
 3109SOL     OW 9354   3.162   4.177   0.691
 3109SOL    HW1 9355   3.103   4.257   0.695
 3109SOL    HW2 9356   3.177   4.142   0.784
 3110SOL     OW 9357   3.455   3.945   0.882
 3110SOL    HW1 9358   3.371   3.944   0.936
 3110SOL    HW2 9359   3.457   4.028   0.826
 3111SOL     OW 9360   1.901   4.801   0.300
 3111SOL    HW1 9361   2.000   4.790   0.291
 3111SOL    HW2 9362   1.861   4.715   0.332
 3112SOL     OW 9363   2.092   4.352   1.975
 3112SOL    HW1 9364   1.999   4.350   2.012
 3112SOL    HW2 9365   2.093   4.313   1.883
 3113SOL     OW 9366   2.087   3.999   2.858
 3113SOL    HW1 9367   2.122   3.982   2.950
 3113SOL    HW2 9368   1.999   3.954   2.846
 3114SOL     OW 9369   1.881   4.092   2.509
 3114SOL    HW1 9370   1.799   4.135   2.548
 3114SOL    HW2 9371   1.853   4.019   2.446
 3115SOL     OW 9372   2.431   4.999   3.027
 3115SOL    HW1 9373   2.338   4.992   2.990
 3115SOL    HW2 9374   2.442   5.088   3.071
 3116SOL     OW 9375   3.417   5.235   2.565
 3116SOL    HW1 9376   3.360   5.219   2.646
 3116SOL    HW2 9377   3.358   5.245   2.485
 3117SOL     OW 9378   2.997   4.427   2.579
 3117SOL    HW1 9379   3.054   4.505   2.554
 3117SOL    HW2 9380   2.937   4.453   2.655
 3118SOL     OW 9381   3.617   4.331   2.093
 3118SOL    HW1 9382   3.605   4.318   1.994
 3118SOL    HW2 9383   3.587   4.250   2.142
 3119SOL     OW 9384   2.630   4.868   2.885
 3119SOL    HW1 9385   2.552   4.885   2.945
 3119SOL    HW2 9386   2.664   4.955   2.849
 3120SOL     OW 9387   2.712   4.522   3.685
 3120SOL    HW1 9388   2.708   4.598   3.750
 3120SOL    HW2 9389   2.734   4.558   3.594
 3121SOL     OW 9390   2.547   4.736   2.527
 3121SOL    HW1 9391   2.616   4.720   2.597
 3121SOL    HW2 9392   2.474   4.793   2.565
 3122SOL     OW 9393   2.548   4.885   3.665
 3122SOL    HW1 9394   2.608   4.964   3.679
 3122SOL    HW2 9395   2.462   4.916   3.624
 3123SOL     OW 9396   2.197   5.159   2.923
 3123SOL    HW1 9397   2.119   5.128   2.870
 3123SOL    HW2 9398   2.255   5.217   2.866
 3124SOL     OW 9399   3.322   5.229   3.201
 3124SOL    HW1 9400   3.346   5.323   3.227
 3124SOL    HW2 9401   3.306   5.175   3.283
 3125SOL     OW 9402   2.300   4.116   3.361
 3125SOL    HW1 9403   2.382   4.060   3.370
 3125SOL    HW2 9404   2.219   4.058   3.365
 3126SOL     OW 9405   3.465   4.171   2.599
 3126SOL    HW1 9406   3.391   4.217   2.549
 3126SOL    HW2 9407   3.516   4.239   2.652
 3127SOL     OW 9408   2.989   5.065   3.552
 3127SOL    HW1 9409   3.036   5.065   3.640
 3127SOL    HW2 9410   2.941   4.978   3.541
 3128SOL     OW 9411   2.092   5.158   2.400
 3128SOL    HW1 9412   2.066   5.254   2.400
 3128SOL    HW2 9413   2.021   5.104   2.445
 3129SOL     OW 9414   2.102   4.815   2.748
 3129SOL    HW1 9415   2.116   4.731   2.800
 3129SOL    HW2 9416   2.047   4.879   2.803
 3130SOL     OW 9417   2.468   4.688   1.985
 3130SOL    HW1 9418   2.475   4.772   1.931
 3130SOL    HW2 9419   2.514   4.701   2.073
 3131SOL     OW 9420   3.456   3.838   3.342
 3131SOL    HW1 9421   3.438   3.905   3.270
 3131SOL    HW2 9422   3.453   3.884   3.431
 3132SOL     OW 9423   1.984   4.367   2.425
 3132SOL    HW1 9424   1.939   4.279   2.442
 3132SOL    HW2 9425   1.983   4.421   2.509
 3133SOL     OW 9426   1.889   5.320   1.979
 3133SOL    HW1 9427   1.870   5.224   2.000
 3133SOL    HW2 9428   1.856   5.378   2.054
 3134SOL     OW 9429   3.551   4.646   2.474
 3134SOL    HW1 9430   3.646   4.617   2.482
 3134SOL    HW2 9431   3.543   4.711   2.399
 3135SOL     OW 9432   3.503   4.832   2.294
 3135SOL    HW1 9433   3.589   4.834   2.242
 3135SOL    HW2 9434   3.517   4.879   2.382
 3136SOL     OW 9435   1.975   4.461   3.459
 3136SOL    HW1 9436   2.063   4.448   3.504
 3136SOL    HW2 9437   1.962   4.558   3.437
 3137SOL     OW 9438   2.475   5.089   2.588
 3137SOL    HW1 9439   2.426   5.002   2.597
 3137SOL    HW2 9440   2.452   5.132   2.501
 3138SOL     OW 9441   3.155   4.952   3.285
 3138SOL    HW1 9442   3.192   4.879   3.227
 3138SOL    HW2 9443   3.207   4.957   3.370
 3139SOL     OW 9444   2.671   3.728   2.364
 3139SOL    HW1 9445   2.711   3.819   2.355
 3139SOL    HW2 9446   2.571   3.736   2.370
 3140SOL     OW 9447   2.059   4.700   3.126
 3140SOL    HW1 9448   2.148   4.655   3.112
 3140SOL    HW2 9449   1.986   4.635   3.107
 3141SOL     OW 9450   3.387   4.723   2.052
 3141SOL    HW1 9451   3.324   4.647   2.065
 3141SOL    HW2 9452   3.435   4.741   2.138
 3142SOL     OW 9453   2.179   3.975   3.663
 3142SOL    HW1 9454   2.250   4.046   3.669
 3142SOL    HW2 9455   2.091   4.014   3.691
 3143SOL     OW 9456   3.328   5.141   2.815
 3143SOL    HW1 9457   3.269   5.147   2.895
 3143SOL    HW2 9458   3.313   5.053   2.769
 3144SOL     OW 9459   2.460   4.453   2.132
 3144SOL    HW1 9460   2.484   4.522   2.064
 3144SOL    HW2 9461   2.382   4.486   2.186
 3145SOL     OW 9462   3.143   4.069   2.806
 3145SOL    HW1 9463   3.057   4.019   2.793
 3145SOL    HW2 9464   3.205   4.015   2.862
 3146SOL     OW 9465   3.438   5.386   2.169
 3146SOL    HW1 9466   3.527   5.432   2.172
 3146SOL    HW2 9467   3.417   5.362   2.074
 3147SOL     OW 9468   2.669   4.329   3.327
 3147SOL    HW1 9469   2.622   4.326   3.416
 3147SOL    HW2 9470   2.618   4.274   3.261
 3148SOL     OW 9471   3.256   4.193   3.536
 3148SOL    HW1 9472   3.236   4.236   3.624
 3148SOL    HW2 9473   3.334   4.131   3.545
 3149SOL     OW 9474   2.835   4.614   3.434
 3149SOL    HW1 9475   2.881   4.530   3.405
 3149SOL    HW2 9476   2.779   4.648   3.359
 3150SOL     OW 9477   2.853   4.134   3.104
 3150SOL    HW1 9478   2.776   4.168   3.158
 3150SOL    HW2 9479   2.819   4.083   3.025
 3151SOL     OW 9480   2.903   4.425   2.291
 3151SOL    HW1 9481   2.929   4.421   2.387
 3151SOL    HW2 9482   2.818   4.374   2.277
 3152SOL     OW 9483   1.938   4.535   2.651
 3152SOL    HW1 9484   2.037   4.523   2.660
 3152SOL    HW2 9485   1.914   4.630   2.672
 3153SOL     OW 9486   2.727   4.072   2.057
 3153SOL    HW1 9487   2.786   4.135   2.008
 3153SOL    HW2 9488   2.746   3.978   2.028
 3154SOL     OW 9489   3.581   4.309   3.693
 3154SOL    HW1 9490   3.555   4.398   3.657
 3154SOL    HW2 9491   3.579   4.241   3.620
 3155SOL     OW 9492   3.224   4.868   2.407
 3155SOL    HW1 9493   3.307   4.839   2.359
 3155SOL    HW2 9494   3.175   4.935   2.351
 3156SOL     OW 9495   2.412   3.920   2.747
 3156SOL    HW1 9496   2.407   3.915   2.847
 3156SOL    HW2 9497   2.414   4.016   2.718
 3157SOL     OW 9498   2.870   5.180   2.339
 3157SOL    HW1 9499   2.824   5.252   2.287
 3157SOL    HW2 9500   2.866   5.200   2.437
 3158SOL     OW 9501   3.657   4.790   2.735
 3158SOL    HW1 9502   3.595   4.775   2.659
 3158SOL    HW2 9503   3.605   4.801   2.820
 3159SOL     OW 9504   3.089   5.274   3.368
 3159SOL    HW1 9505   3.095   5.197   3.432
 3159SOL    HW2 9506   3.037   5.248   3.288
 3160SOL     OW 9507   2.183   4.667   2.104
 3160SOL    HW1 9508   2.265   4.706   2.062
 3160SOL    HW2 9509   2.156   4.585   2.055
 3161SOL     OW 9510   3.320   4.459   2.590
 3161SOL    HW1 9511   3.315   4.394   2.665
 3161SOL    HW2 9512   3.400   4.518   2.603
 3162SOL     OW 9513   2.323   4.990   3.589
 3162SOL    HW1 9514   2.273   4.991   3.503
 3162SOL    HW2 9515   2.260   4.972   3.665
 3163SOL     OW 9516   2.973   5.500   2.099
 3163SOL    HW1 9517   2.913   5.438   2.149
 3163SOL    HW2 9518   3.004   5.456   2.014
 3164SOL     OW 9519   2.064   4.009   3.360
 3164SOL    HW1 9520   1.984   4.069   3.347
 3164SOL    HW2 9521   2.054   3.960   3.446
 3165SOL     OW 9522   3.494   5.101   1.943
 3165SOL    HW1 9523   3.462   5.195   1.933
 3165SOL    HW2 9524   3.418   5.038   1.931
 3166SOL     OW 9525   3.262   3.831   2.288
 3166SOL    HW1 9526   3.238   3.794   2.198
 3166SOL    HW2 9527   3.361   3.847   2.292
 3167SOL     OW 9528   2.244   4.424   2.342
 3167SOL    HW1 9529   2.289   4.334   2.339
 3167SOL    HW2 9530   2.150   4.413   2.375
 3168SOL     OW 9531   3.409   3.946   3.591
 3168SOL    HW1 9532   3.404   3.983   3.683
 3168SOL    HW2 9533   3.337   3.877   3.579
 3169SOL     OW 9534   2.476   3.846   1.979
 3169SOL    HW1 9535   2.574   3.824   1.986
 3169SOL    HW2 9536   2.445   3.829   1.886
 3170SOL     OW 9537   2.643   3.988   3.611
 3170SOL    HW1 9538   2.710   3.927   3.654
 3170SOL    HW2 9539   2.570   4.007   3.676
 3171SOL     OW 9540   3.213   4.314   3.295
 3171SOL    HW1 9541   3.241   4.271   3.380
 3171SOL    HW2 9542   3.238   4.410   3.296
 3172SOL     OW 9543   2.665   5.126   2.786
 3172SOL    HW1 9544   2.755   5.140   2.744
 3172SOL    HW2 9545   2.594   5.128   2.715
 3173SOL     OW 9546   2.784   4.227   2.761
 3173SOL    HW1 9547   2.759   4.218   2.665
 3173SOL    HW2 9548   2.832   4.145   2.792
 3174SOL     OW 9549   2.401   3.788   2.374
 3174SOL    HW1 9550   2.320   3.789   2.432
 3174SOL    HW2 9551   2.404   3.871   2.319
 3175SOL     OW 9552   3.296   4.912   1.903
 3175SOL    HW1 9553   3.328   4.836   1.960
 3175SOL    HW2 9554   3.204   4.939   1.933
 3176SOL     OW 9555   2.159   3.759   2.033
 3176SOL    HW1 9556   2.208   3.843   2.012
 3176SOL    HW2 9557   2.221   3.694   2.078
 3177SOL     OW 9558   2.797   3.960   2.342
 3177SOL    HW1 9559   2.749   4.001   2.264
 3177SOL    HW2 9560   2.896   3.958   2.323
 3178SOL     OW 9561   2.938   4.407   3.326
 3178SOL    HW1 9562   2.858   4.346   3.329
 3178SOL    HW2 9563   3.019   4.354   3.302
 3179SOL     OW 9564   3.089   5.294   2.655
 3179SOL    HW1 9565   3.110   5.368   2.590
 3179SOL    HW2 9566   3.157   5.294   2.728
 3180SOL     OW 9567   2.321   4.876   2.603
 3180SOL    HW1 9568   2.250   4.849   2.668
 3180SOL    HW2 9569   2.295   4.848   2.510
 3181SOL     OW 9570   2.894   4.273   1.878
 3181SOL    HW1 9571   2.853   4.355   1.839
 3181SOL    HW2 9572   2.958   4.299   1.951
 3182SOL     OW 9573   1.940   4.280   3.248
 3182SOL    HW1 9574   2.032   4.279   3.207
 3182SOL    HW2 9575   1.934   4.354   3.315
 3183SOL     OW 9576   2.423   3.946   3.009
 3183SOL    HW1 9577   2.461   3.862   3.046
 3183SOL    HW2 9578   2.335   3.965   3.053
 3184SOL     OW 9579   2.728   4.178   2.504
 3184SOL    HW1 9580   2.696   4.250   2.442
 3184SOL    HW2 9581   2.752   4.097   2.451
 3185SOL     OW 9582   2.879   3.763   2.615
 3185SOL    HW1 9583   2.807   3.768   2.546
 3185SOL    HW2 9584   2.855   3.694   2.684
 3186SOL     OW 9585   3.291   4.897   2.729
 3186SOL    HW1 9586   3.236   4.813   2.722
 3186SOL    HW2 9587   3.317   4.926   2.637
 3187SOL     OW 9588   3.328   4.314   2.854
 3187SOL    HW1 9589   3.298   4.219   2.861
 3187SOL    HW2 9590   3.401   4.330   2.920
 3188SOL     OW 9591   3.719   4.557   2.239
 3188SOL    HW1 9592   3.761   4.493   2.303
 3188SOL    HW2 9593   3.681   4.506   2.161
 3189SOL     OW 9594   2.350   5.109   2.036
 3189SOL    HW1 9595   2.263   5.094   2.083
 3189SOL    HW2 9596   2.333   5.135   1.941
 3190SOL     OW 9597   3.526   5.004   2.519
 3190SOL    HW1 9598   3.625   5.012   2.533
 3190SOL    HW2 9599   3.481   5.088   2.550
 3191SOL     OW 9600   3.252   4.299   1.940
 3191SOL    HW1 9601   3.198   4.278   2.021
 3191SOL    HW2 9602   3.343   4.258   1.949
 3192SOL     OW 9603   2.389   3.980   2.190
 3192SOL    HW1 9604   2.416   3.921   2.115
 3192SOL    HW2 9605   2.389   4.075   2.159
 3193SOL     OW 9606   3.616   4.947   3.450
 3193SOL    HW1 9607   3.707   4.908   3.437
 3193SOL    HW2 9608   3.624   5.043   3.474
 3194SOL     OW 9609   2.926   5.071   3.202
 3194SOL    HW1 9610   2.846   5.048   3.257
 3194SOL    HW2 9611   3.009   5.045   3.251
 3195SOL     OW 9612   2.973   4.919   2.962
 3195SOL    HW1 9613   2.933   4.963   3.043
 3195SOL    HW2 9614   2.932   4.956   2.879
 3196SOL     OW 9615   3.500   4.823   2.941
 3196SOL    HW1 9616   3.505   4.904   3.000
 3196SOL    HW2 9617   3.414   4.825   2.890
 3197SOL     OW 9618   2.777   3.813   3.264
 3197SOL    HW1 9619   2.802   3.793   3.169
 3197SOL    HW2 9620   2.849   3.869   3.306
 3198SOL     OW 9621   2.842   4.840   3.581
 3198SOL    HW1 9622   2.743   4.846   3.591
 3198SOL    HW2 9623   2.865   4.760   3.525
 3199SOL     OW 9624   2.567   4.774   2.230
 3199SOL    HW1 9625   2.553   4.781   2.329
 3199SOL    HW2 9626   2.651   4.723   2.212
 3200SOL     OW 9627   2.272   4.537   3.113
 3200SOL    HW1 9628   2.358   4.549   3.163
 3200SOL    HW2 9629   2.230   4.450   3.140
 3201SOL     OW 9630   3.136   4.110   3.124
 3201SOL    HW1 9631   3.157   4.184   3.188
 3201SOL    HW2 9632   3.047   4.127   3.081
 3202SOL     OW 9633   2.229   4.824   2.363
 3202SOL    HW1 9634   2.222   4.907   2.307
 3202SOL    HW2 9635   2.233   4.744   2.303
 3203SOL     OW 9636   2.428   4.261   2.727
 3203SOL    HW1 9637   2.440   4.327   2.653
 3203SOL    HW2 9638   2.474   4.295   2.810
 3204SOL     OW 9639   3.114   5.072   2.250
 3204SOL    HW1 9640   3.164   5.149   2.290
 3204SOL    HW2 9641   3.019   5.074   2.282
 3205SOL     OW 9642   3.134   5.169   3.004
 3205SOL    HW1 9643   3.181   5.182   3.091
 3205SOL    HW2 9644   3.068   5.095   3.013
 3206SOL     OW 9645   3.444   4.363   2.334
 3206SOL    HW1 9646   3.413   4.424   2.407
 3206SOL    HW2 9647   3.494   4.415   2.265
 3207SOL     OW 9648   2.216   5.234   3.191
 3207SOL    HW1 9649   2.195   5.190   3.104
 3207SOL    HW2 9650   2.313   5.260   3.194
 3208SOL     OW 9651   2.264   4.475   3.460
 3208SOL    HW1 9652   2.332   4.530   3.413
 3208SOL    HW2 9653   2.304   4.387   3.487
 3209SOL     OW 9654   3.449   4.503   3.532
 3209SOL    HW1 9655   3.357   4.541   3.527
 3209SOL    HW2 9656   3.509   4.550   3.467
 3210SOL     OW 9657   2.875   3.829   3.632
 3210SOL    HW1 9658   2.881   3.914   3.580
 3210SOL    HW2 9659   2.907   3.753   3.575
 3211SOL     OW 9660   2.366   3.774   3.602
 3211SOL    HW1 9661   2.324   3.717   3.532
 3211SOL    HW2 9662   2.300   3.843   3.634
 3212SOL     OW 9663   2.435   4.594   2.891
 3212SOL    HW1 9664   2.479   4.683   2.882
 3212SOL    HW2 9665   2.372   4.594   2.968
 3213SOL     OW 9666   3.222   4.586   2.907
 3213SOL    HW1 9667   3.147   4.586   2.841
 3213SOL    HW2 9668   3.259   4.494   2.916
 3214SOL     OW 9669   3.071   4.249   2.137
 3214SOL    HW1 9670   3.084   4.165   2.191
 3214SOL    HW2 9671   3.042   4.323   2.197
 3215SOL     OW 9672   2.169   3.937   3.093
 3215SOL    HW1 9673   2.146   3.974   3.183
 3215SOL    HW2 9674   2.139   3.842   3.087
 3216SOL     OW 9675   1.899   5.034   3.144
 3216SOL    HW1 9676   1.952   4.985   3.212
 3216SOL    HW2 9677   1.921   5.132   3.149
 3217SOL     OW 9678   2.594   4.358   2.926
 3217SOL    HW1 9679   2.653   4.332   2.850
 3217SOL    HW2 9680   2.566   4.454   2.915
 3218SOL     OW 9681   3.590   4.659   3.716
 3218SOL    HW1 9682   3.544   4.652   3.627
 3218SOL    HW2 9683   3.528   4.703   3.782
 3219SOL     OW 9684   2.169   3.787   2.480
 3219SOL    HW1 9685   2.158   3.881   2.513
 3219SOL    HW2 9686   2.164   3.724   2.557
 3220SOL     OW 9687   3.484   4.091   2.236
 3220SOL    HW1 9688   3.486   4.015   2.300
 3220SOL    HW2 9689   3.436   4.168   2.276
 3221SOL     OW 9690   2.885   4.490   2.828
 3221SOL    HW1 9691   2.900   4.511   2.924
 3221SOL    HW2 9692   2.855   4.395   2.819
 3222SOL     OW 9693   3.721   5.242   3.467
 3222SOL    HW1 9694   3.735   5.269   3.372
 3222SOL    HW2 9695   3.804   5.264   3.520
 3223SOL     OW 9696   2.212   4.622   3.666
 3223SOL    HW1 9697   2.288   4.666   3.714
 3223SOL    HW2 9698   2.247   4.575   3.584
 3224SOL     OW 9699   3.402   3.998   1.987
 3224SOL    HW1 9700   3.341   3.923   2.010
 3224SOL    HW2 9701   3.424   4.050   2.070
 3225SOL     OW 9702   3.165   4.562   1.904
 3225SOL    HW1 9703   3.199   4.469   1.919
 3225SOL    HW2 9704   3.183   4.589   1.809
 3226SOL     OW 9705   2.930   5.057   2.711
 3226SOL    HW1 9706   2.937   4.973   2.656
 3226SOL    HW2 9707   2.992   5.126   2.675
 3227SOL     OW 9708   2.181   4.534   2.811
 3227SOL    HW1 9709   2.274   4.570   2.816
 3227SOL    HW2 9710   2.175   4.449   2.863
 3228SOL     OW 9711   2.201   4.233   2.868
 3228SOL    HW1 9712   2.149   4.150   2.851
 3228SOL    HW2 9713   2.278   4.238   2.804
 3229SOL     OW 9714   3.000   4.104   3.540
 3229SOL    HW1 9715   2.955   4.167   3.604
 3229SOL    HW2 9716   3.093   4.135   3.523
 3230SOL     OW 9717   3.022   3.931   3.339
 3230SOL    HW1 9718   3.022   3.995   3.416
 3230SOL    HW2 9719   3.050   3.979   3.256
 3231SOL     OW 9720   1.870   5.050   2.062
 3231SOL    HW1 9721   1.777   5.071   2.031
 3231SOL    HW2 9722   1.880   4.951   2.075
 3232SOL     OW 9723   2.864   4.520   3.100
 3232SOL    HW1 9724   2.905   4.488   3.186
 3232SOL    HW2 9725   2.768   4.493   3.097
 3233SOL     OW 9726   1.902   4.268   2.976
 3233SOL    HW1 9727   1.987   4.235   2.935
 3233SOL    HW2 9728   1.915   4.283   3.074
 3234SOL     OW 9729   2.051   4.244   3.584
 3234SOL    HW1 9730   2.110   4.204   3.514
 3234SOL    HW2 9731   1.993   4.315   3.543
 3235SOL     OW 9732   3.231   4.674   3.522
 3235SOL    HW1 9733   3.270   4.763   3.542
 3235SOL    HW2 9734   3.241   4.654   3.425
 3236SOL     OW 9735   2.677   4.296   2.187
 3236SOL    HW1 9736   2.684   4.207   2.141
 3236SOL    HW2 9737   2.583   4.330   2.179
 3237SOL     OW 9738   3.519   4.328   3.068
 3237SOL    HW1 9739   3.481   4.259   3.130
 3237SOL    HW2 9740   3.601   4.292   3.024
 3238SOL     OW 9741   2.114   5.288   3.606
 3238SOL    HW1 9742   2.084   5.345   3.682
 3238SOL    HW2 9743   2.107   5.191   3.632
 3239SOL     OW 9744   2.533   4.188   3.131
 3239SOL    HW1 9745   2.499   4.099   3.101
 3239SOL    HW2 9746   2.559   4.242   3.051
 3240SOL     OW 9747   2.335   4.224   2.053
 3240SOL    HW1 9748   2.396   4.304   2.057
 3240SOL    HW2 9749   2.240   4.255   2.060
 3241SOL     OW 9750   2.021   4.861   3.328
 3241SOL    HW1 9751   2.043   4.800   3.404
 3241SOL    HW2 9752   2.031   4.812   3.242
 3242SOL     OW 9753   3.209   4.783   3.096
 3242SOL    HW1 9754   3.233   4.720   3.022
 3242SOL    HW2 9755   3.119   4.823   3.078
 3243SOL     OW 9756   3.164   4.579   2.171
 3243SOL    HW1 9757   3.078   4.548   2.213
 3243SOL    HW2 9758   3.160   4.565   2.072
 3244SOL     OW 9759   1.945   4.982   2.884
 3244SOL    HW1 9760   1.940   4.981   2.984
 3244SOL    HW2 9761   1.862   4.941   2.846
 3245SOL     OW 9762   2.550   5.386   3.578
 3245SOL    HW1 9763   2.494   5.467   3.587
 3245SOL    HW2 9764   2.602   5.390   3.492
 3246SOL     OW 9765   3.588   3.859   2.385
 3246SOL    HW1 9766   3.661   3.842   2.318
 3246SOL    HW2 9767   3.557   3.772   2.423
 3247SOL     OW 9768   3.142   4.651   2.534
 3247SOL    HW1 9769   3.202   4.570   2.536
 3247SOL    HW2 9770   3.182   4.720   2.474
 3248SOL     OW 9771   2.692   4.997   3.284
 3248SOL    HW1 9772   2.687   5.030   3.379
 3248SOL    HW2 9773   2.606   5.016   3.238
 3249SOL     OW 9774   3.703   3.899   2.825
 3249SOL    HW1 9775   3.742   3.814   2.789
 3249SOL    HW2 9776   3.605   3.901   2.806
 3250SOL     OW 9777   2.125   4.050   2.582
 3250SOL    HW1 9778   2.046   4.101   2.548
 3250SOL    HW2 9779   2.116   4.035   2.680
 3251SOL     OW 9780   2.684   4.726   3.234
 3251SOL    HW1 9781   2.724   4.725   3.142
 3251SOL    HW2 9782   2.694   4.818   3.274
 3252SOL     OW 9783   2.778   4.634   2.153
 3252SOL    HW1 9784   2.841   4.672   2.085
 3252SOL    HW2 9785   2.818   4.551   2.192
 3253SOL     OW 9786   2.234   5.012   3.352
 3253SOL    HW1 9787   2.221   5.105   3.318
 3253SOL    HW2 9788   2.150   4.960   3.339
 3254SOL     OW 9789   3.476   5.016   3.151
 3254SOL    HW1 9790   3.536   5.019   3.231
 3254SOL    HW2 9791   3.401   5.080   3.164
 3255SOL     OW 9792   2.901   4.822   2.558
 3255SOL    HW1 9793   2.831   4.775   2.612
 3255SOL    HW2 9794   2.960   4.754   2.515
 3256SOL     OW 9795   2.876   3.960   2.833
 3256SOL    HW1 9796   2.868   3.924   2.740
 3256SOL    HW2 9797   2.874   3.884   2.898
 3257SOL     OW 9798   3.571   4.109   3.243
 3257SOL    HW1 9799   3.644   4.178   3.247
 3257SOL    HW2 9800   3.599   4.034   3.184
 3258SOL     OW 9801   2.117   5.072   2.152
 3258SOL    HW1 9802   2.021   5.073   2.125
 3258SOL    HW2 9803   2.129   5.125   2.236
 3259SOL     OW 9804   1.967   4.737   3.588
 3259SOL    HW1 9805   1.890   4.704   3.642
 3259SOL    HW2 9806   2.052   4.707   3.630
 3260SOL     OW 9807   2.534   3.927   3.351
 3260SOL    HW1 9808   2.624   3.911   3.311
 3260SOL    HW2 9809   2.542   3.932   3.450
 3261SOL     OW 9810   1.937   4.069   1.895
 3261SOL    HW1 9811   1.845   4.041   1.866
 3261SOL    HW2 9812   1.968   4.146   1.839
 3262SOL     OW 9813   3.302   4.580   3.260
 3262SOL    HW1 9814   3.245   4.632   3.197
 3262SOL    HW2 9815   3.398   4.592   3.236
 3263SOL     OW 9816   1.934   3.890   2.180
 3263SOL    HW1 9817   1.917   3.973   2.126
 3263SOL    HW2 9818   2.024   3.853   2.158
 3264SOL     OW 9819   3.045   5.059   1.981
 3264SOL    HW1 9820   2.946   5.048   1.983
 3264SOL    HW2 9821   3.079   5.074   2.074
 3265SOL     OW 9822   2.475   4.566   3.293
 3265SOL    HW1 9823   2.531   4.647   3.276
 3265SOL    HW2 9824   2.534   4.486   3.296
 3266SOL     OW 9825   2.578   4.289   3.570
 3266SOL    HW1 9826   2.597   4.354   3.644
 3266SOL    HW2 9827   2.638   4.209   3.579
 3267SOL     OW 9828   3.312   4.944   3.495
 3267SOL    HW1 9829   3.303   4.934   3.594
 3267SOL    HW2 9830   3.408   4.937   3.469
 3268SOL     OW 9831   3.536   4.607   3.116
 3268SOL    HW1 9832   3.509   4.518   3.079
 3268SOL    HW2 9833   3.537   4.675   3.043
 3269SOL     OW 9834   3.087   4.049   2.311
 3269SOL    HW1 9835   3.152   3.975   2.300
 3269SOL    HW2 9836   3.107   4.099   2.395
 3270SOL     OW 9837   2.456   4.469   2.514
 3270SOL    HW1 9838   2.506   4.554   2.495
 3270SOL    HW2 9839   2.368   4.471   2.466
 3271SOL     OW 9840   3.639   4.066   3.504
 3271SOL    HW1 9841   3.622   4.097   3.410
 3271SOL    HW2 9842   3.555   4.029   3.542
 3272SOL     OW 9843   3.592   4.658   3.379
 3272SOL    HW1 9844   3.630   4.749   3.394
 3272SOL    HW2 9845   3.584   4.641   3.280
 3273SOL     OW 9846   2.721   5.098   1.878
 3273SOL    HW1 9847   2.675   5.113   1.966
 3273SOL    HW2 9848   2.765   5.183   1.848
 3274SOL     OW 9849   2.721   4.680   2.723
 3274SOL    HW1 9850   2.775   4.611   2.771
 3274SOL    HW2 9851   2.689   4.749   2.789
 3275SOL     OW 9852   2.945   4.708   1.949
 3275SOL    HW1 9853   2.922   4.761   1.867
 3275SOL    HW2 9854   3.026   4.652   1.930
 3276SOL     OW 9855   2.083   5.038   3.706
 3276SOL    HW1 9856   2.018   4.965   3.685
 3276SOL    HW2 9857   2.087   5.052   3.804
 3277SOL     OW 9858   1.941   4.964   2.515
 3277SOL    HW1 9859   1.940   4.917   2.603
 3277SOL    HW2 9860   2.023   4.936   2.464
 3278SOL     OW 9861   2.534   5.115   3.486
 3278SOL    HW1 9862   2.456   5.065   3.524
 3278SOL    HW2 9863   2.531   5.210   3.517
 3279SOL     OW 9864   3.686   3.916   3.089
 3279SOL    HW1 9865   3.682   3.826   3.133
 3279SOL    HW2 9866   3.689   3.905   2.990
 3280SOL     OW 9867   2.290   4.148   2.382
 3280SOL    HW1 9868   2.320   4.076   2.320
 3280SOL    HW2 9869   2.251   4.108   2.465
 3281SOL     OW 9870   3.567   5.211   2.966
 3281SOL    HW1 9871   3.474   5.186   2.939
 3281SOL    HW2 9872   3.593   5.161   3.048
 3282SOL     OW 9873   2.179   4.271   3.142
 3282SOL    HW1 9874   2.217   4.212   3.214
 3282SOL    HW2 9875   2.219   4.245   3.054
 3283SOL     OW 9876   3.286   3.938   2.974
 3283SOL    HW1 9877   3.338   3.873   3.029
 3283SOL    HW2 9878   3.237   4.001   3.035
 3284SOL     OW 9879   2.863   3.758   3.016
 3284SOL    HW1 9880   2.800   3.686   2.985
 3284SOL    HW2 9881   2.956   3.722   3.016
 3285SOL     OW 9882   2.632   5.054   2.163
 3285SOL    HW1 9883   2.586   4.967   2.180
 3285SOL    HW2 9884   2.723   5.051   2.204
 3286SOL     OW 9885   2.480   5.291   3.146
 3286SOL    HW1 9886   2.475   5.373   3.203
 3286SOL    HW2 9887   2.569   5.288   3.101
 3287SOL     OW 9888   3.214   3.776   2.030
 3287SOL    HW1 9889   3.249   3.735   1.946
 3287SOL    HW2 9890   3.124   3.738   2.050
 3288SOL     OW 9891   3.162   4.177   2.553
 3288SOL    HW1 9892   3.103   4.257   2.557
 3288SOL    HW2 9893   3.177   4.142   2.646
 3289SOL     OW 9894   3.455   3.945   2.744
 3289SOL    HW1 9895   3.371   3.944   2.798
 3289SOL    HW2 9896   3.457   4.028   2.688
 3290SOL     OW 9897   1.901   4.801   2.162
 3290SOL    HW1 9898   2.000   4.790   2.153
 3290SOL    HW2 9899   1.861   4.715   2.194
 3291SOL     OW 9900   2.092   4.352   3.837
 3291SOL    HW1 9901   1.999   4.350   3.874
 3291SOL    HW2 9902   2.093   4.313   3.745
 3292SOL     OW 9903   2.087   3.999   4.720
 3292SOL    HW1 9904   2.122   3.982   4.812
 3292SOL    HW2 9905   1.999   3.954   4.708
 3293SOL     OW 9906   1.881   4.092   4.371
 3293SOL    HW1 9907   1.799   4.135   4.410
 3293SOL    HW2 9908   1.853   4.019   4.308
 3294SOL     OW 9909   2.431   4.999   4.889
 3294SOL    HW1 9910   2.338   4.992   4.852
 3294SOL    HW2 9911   2.442   5.088   4.933
 3295SOL     OW 9912   3.417   5.235   4.427
 3295SOL    HW1 9913   3.360   5.219   4.508
 3295SOL    HW2 9914   3.358   5.245   4.347
 3296SOL     OW 9915   2.997   4.427   4.441
 3296SOL    HW1 9916   3.054   4.505   4.416
 3296SOL    HW2 9917   2.937   4.453   4.517
 3297SOL     OW 9918   3.617   4.331   3.955
 3297SOL    HW1 9919   3.605   4.318   3.856
 3297SOL    HW2 9920   3.587   4.250   4.004
 3298SOL     OW 9921   2.630   4.868   4.747
 3298SOL    HW1 9922   2.552   4.885   4.807
 3298SOL    HW2 9923   2.664   4.955   4.711
 3299SOL     OW 9924   2.547   4.736   4.389
 3299SOL    HW1 9925   2.616   4.720   4.459
 3299SOL    HW2 9926   2.474   4.793   4.427
 3300SOL     OW 9927   2.197   5.159   4.785
 3300SOL    HW1 9928   2.119   5.128   4.732
 3300SOL    HW2 9929   2.255   5.217   4.728
 3301SOL     OW 9930   3.322   5.229   5.063
 3301SOL    HW1 9931   3.346   5.323   5.089
 3301SOL    HW2 9932   3.306   5.175   5.145
 3302SOL     OW 9933   2.300   4.116   5.223
 3302SOL    HW1 9934   2.382   4.060   5.232
 3302SOL    HW2 9935   2.219   4.058   5.227
 3303SOL     OW 9936   3.465   4.171   4.461
 3303SOL    HW1 9937   3.391   4.217   4.411
 3303SOL    HW2 9938   3.516   4.239   4.514
 3304SOL     OW 9939   2.092   5.158   4.262
 3304SOL    HW1 9940   2.066   5.254   4.262
 3304SOL    HW2 9941   2.021   5.104   4.307
 3305SOL     OW 9942   2.102   4.815   4.610
 3305SOL    HW1 9943   2.116   4.731   4.662
 3305SOL    HW2 9944   2.047   4.879   4.665
 3306SOL     OW 9945   2.468   4.688   3.847
 3306SOL    HW1 9946   2.475   4.772   3.793
 3306SOL    HW2 9947   2.514   4.701   3.935
 3307SOL     OW 9948   3.456   3.838   5.204
 3307SOL    HW1 9949   3.438   3.905   5.132
 3307SOL    HW2 9950   3.453   3.884   5.293
 3308SOL     OW 9951   1.984   4.367   4.287
 3308SOL    HW1 9952   1.939   4.279   4.304
 3308SOL    HW2 9953   1.983   4.421   4.371
 3309SOL     OW 9954   1.889   5.320   3.841
 3309SOL    HW1 9955   1.870   5.224   3.862
 3309SOL    HW2 9956   1.856   5.378   3.916
 3310SOL     OW 9957   3.551   4.646   4.336
 3310SOL    HW1 9958   3.646   4.617   4.344
 3310SOL    HW2 9959   3.543   4.711   4.261
 3311SOL     OW 9960   3.503   4.832   4.156
 3311SOL    HW1 9961   3.589   4.834   4.104
 3311SOL    HW2 9962   3.517   4.879   4.244
 3312SOL     OW 9963   2.475   5.089   4.450
 3312SOL    HW1 9964   2.426   5.002   4.459
 3312SOL    HW2 9965   2.452   5.132   4.363
 3313SOL     OW 9966   3.155   4.952   5.147
 3313SOL    HW1 9967   3.192   4.879   5.089
 3313SOL    HW2 9968   3.207   4.957   5.232
 3314SOL     OW 9969   2.671   3.728   4.226
 3314SOL    HW1 9970   2.711   3.819   4.217
 3314SOL    HW2 9971   2.571   3.736   4.232
 3315SOL     OW 9972   2.059   4.700   4.988
 3315SOL    HW1 9973   2.148   4.655   4.974
 3315SOL    HW2 9974   1.986   4.635   4.969
 3316SOL     OW 9975   3.387   4.723   3.914
 3316SOL    HW1 9976   3.324   4.647   3.927
 3316SOL    HW2 9977   3.435   4.741   4.000
 3317SOL     OW 9978   3.328   5.141   4.677
 3317SOL    HW1 9979   3.269   5.147   4.757
 3317SOL    HW2 9980   3.313   5.053   4.631
 3318SOL     OW 9981   2.460   4.453   3.994
 3318SOL    HW1 9982   2.484   4.522   3.926
 3318SOL    HW2 9983   2.382   4.486   4.048
 3319SOL     OW 9984   3.143   4.069   4.668
 3319SOL    HW1 9985   3.057   4.019   4.655
 3319SOL    HW2 9986   3.205   4.015   4.724
 3320SOL     OW 9987   3.438   5.386   4.031
 3320SOL    HW1 9988   3.527   5.432   4.034
 3320SOL    HW2 9989   3.417   5.362   3.936
 3321SOL     OW 9990   2.669   4.329   5.189
 3321SOL    HW1 9991   2.622   4.326   5.278
 3321SOL    HW2 9992   2.618   4.274   5.123
 3322SOL     OW 9993   2.835   4.614   5.296
 3322SOL    HW1 9994   2.881   4.530   5.267
 3322SOL    HW2 9995   2.779   4.648   5.221
 3323SOL     OW 9996   2.853   4.134   4.966
 3323SOL    HW1 9997   2.776   4.168   5.020
 3323SOL    HW2 9998   2.819   4.083   4.887
 3324SOL     OW 9999   2.903   4.425   4.153
 3324SOL    HW110000   2.929   4.421   4.249
 3324SOL    HW210001   2.818   4.374   4.139
 3325SOL     OW10002   1.938   4.535   4.513
 3325SOL    HW110003   2.037   4.523   4.522
 3325SOL    HW210004   1.914   4.630   4.534
 3326SOL     OW10005   2.727   4.072   3.919
 3326SOL    HW110006   2.786   4.135   3.870
 3326SOL    HW210007   2.746   3.978   3.890
 3327SOL     OW10008   3.224   4.868   4.269
 3327SOL    HW110009   3.307   4.839   4.221
 3327SOL    HW210010   3.175   4.935   4.213
 3328SOL     OW10011   2.412   3.920   4.609
 3328SOL    HW110012   2.407   3.915   4.709
 3328SOL    HW210013   2.414   4.016   4.580
 3329SOL     OW10014   2.870   5.180   4.201
 3329SOL    HW110015   2.824   5.252   4.149
 3329SOL    HW210016   2.866   5.200   4.299
 3330SOL     OW10017   3.657   4.790   4.597
 3330SOL    HW110018   3.595   4.775   4.521
 3330SOL    HW210019   3.605   4.801   4.682
 3331SOL     OW10020   2.183   4.667   3.966
 3331SOL    HW110021   2.265   4.706   3.924
 3331SOL    HW210022   2.156   4.585   3.917
 3332SOL     OW10023   3.320   4.459   4.452
 3332SOL    HW110024   3.315   4.394   4.527
 3332SOL    HW210025   3.400   4.518   4.465
 3333SOL     OW10026   2.973   5.500   3.961
 3333SOL    HW110027   2.913   5.438   4.011
 3333SOL    HW210028   3.004   5.456   3.876
 3334SOL     OW10029   2.064   4.009   5.222
 3334SOL    HW110030   1.984   4.069   5.209
 3334SOL    HW210031   2.054   3.960   5.308
 3335SOL     OW10032   3.494   5.101   3.805
 3335SOL    HW110033   3.462   5.195   3.795
 3335SOL    HW210034   3.418   5.038   3.793
 3336SOL     OW10035   3.262   3.831   4.150
 3336SOL    HW110036   3.238   3.794   4.060
 3336SOL    HW210037   3.361   3.847   4.154
 3337SOL     OW10038   2.244   4.424   4.204
 3337SOL    HW110039   2.289   4.334   4.201
 3337SOL    HW210040   2.150   4.413   4.237
 3338SOL     OW10041   2.476   3.846   3.841
 3338SOL    HW110042   2.574   3.824   3.848
 3338SOL    HW210043   2.445   3.829   3.748
 3339SOL     OW10044   3.213   4.314   5.157
 3339SOL    HW110045   3.241   4.271   5.242
 3339SOL    HW210046   3.238   4.410   5.158
 3340SOL     OW10047   2.665   5.126   4.648
 3340SOL    HW110048   2.755   5.140   4.606
 3340SOL    HW210049   2.594   5.128   4.577
 3341SOL     OW10050   2.784   4.227   4.623
 3341SOL    HW110051   2.759   4.218   4.527
 3341SOL    HW210052   2.832   4.145   4.654
 3342SOL     OW10053   2.401   3.788   4.236
 3342SOL    HW110054   2.320   3.789   4.294
 3342SOL    HW210055   2.404   3.871   4.181
 3343SOL     OW10056   3.296   4.912   3.765
 3343SOL    HW110057   3.328   4.836   3.822
 3343SOL    HW210058   3.204   4.939   3.795
 3344SOL     OW10059   2.159   3.759   3.895
 3344SOL    HW110060   2.208   3.843   3.874
 3344SOL    HW210061   2.221   3.694   3.940
 3345SOL     OW10062   2.797   3.960   4.204
 3345SOL    HW110063   2.749   4.001   4.126
 3345SOL    HW210064   2.896   3.958   4.185
 3346SOL     OW10065   3.089   5.294   4.517
 3346SOL    HW110066   3.110   5.368   4.452
 3346SOL    HW210067   3.157   5.294   4.590
 3347SOL     OW10068   2.321   4.876   4.465
 3347SOL    HW110069   2.250   4.849   4.530
 3347SOL    HW210070   2.295   4.848   4.372
 3348SOL     OW10071   2.894   4.273   3.740
 3348SOL    HW110072   2.853   4.355   3.701
 3348SOL    HW210073   2.958   4.299   3.813
 3349SOL     OW10074   1.940   4.280   5.110
 3349SOL    HW110075   2.032   4.279   5.069
 3349SOL    HW210076   1.934   4.354   5.177
 3350SOL     OW10077   2.423   3.946   4.871
 3350SOL    HW110078   2.461   3.862   4.908
 3350SOL    HW210079   2.335   3.965   4.915
 3351SOL     OW10080   2.728   4.178   4.366
 3351SOL    HW110081   2.696   4.250   4.304
 3351SOL    HW210082   2.752   4.097   4.313
 3352SOL     OW10083   2.879   3.763   4.477
 3352SOL    HW110084   2.807   3.768   4.408
 3352SOL    HW210085   2.855   3.694   4.546
 3353SOL     OW10086   3.291   4.897   4.591
 3353SOL    HW110087   3.236   4.813   4.584
 3353SOL    HW210088   3.317   4.926   4.499
 3354SOL     OW10089   3.328   4.314   4.716
 3354SOL    HW110090   3.298   4.219   4.723
 3354SOL    HW210091   3.401   4.330   4.782
 3355SOL     OW10092   3.719   4.557   4.101
 3355SOL    HW110093   3.761   4.493   4.165
 3355SOL    HW210094   3.681   4.506   4.023
 3356SOL     OW10095   2.350   5.109   3.898
 3356SOL    HW110096   2.263   5.094   3.945
 3356SOL    HW210097   2.333   5.135   3.803
 3357SOL     OW10098   3.526   5.004   4.381
 3357SOL    HW110099   3.625   5.012   4.395
 3357SOL    HW210100   3.481   5.088   4.412
 3358SOL     OW10101   3.252   4.299   3.802
 3358SOL    HW110102   3.198   4.278   3.883
 3358SOL    HW210103   3.343   4.258   3.811
 3359SOL     OW10104   2.389   3.980   4.052
 3359SOL    HW110105   2.416   3.921   3.977
 3359SOL    HW210106   2.389   4.075   4.021
 3360SOL     OW10107   3.616   4.947   5.312
 3360SOL    HW110108   3.707   4.908   5.299
 3360SOL    HW210109   3.624   5.043   5.336
 3361SOL     OW10110   2.926   5.071   5.064
 3361SOL    HW110111   2.846   5.048   5.119
 3361SOL    HW210112   3.009   5.045   5.113
 3362SOL     OW10113   2.973   4.919   4.824
 3362SOL    HW110114   2.933   4.963   4.905
 3362SOL    HW210115   2.932   4.956   4.741
 3363SOL     OW10116   3.500   4.823   4.803
 3363SOL    HW110117   3.505   4.904   4.862
 3363SOL    HW210118   3.414   4.825   4.752
 3364SOL     OW10119   2.777   3.813   5.126
 3364SOL    HW110120   2.802   3.793   5.031
 3364SOL    HW210121   2.849   3.869   5.168
 3365SOL     OW10122   2.567   4.774   4.092
 3365SOL    HW110123   2.553   4.781   4.191
 3365SOL    HW210124   2.651   4.723   4.074
 3366SOL     OW10125   2.272   4.537   4.975
 3366SOL    HW110126   2.358   4.549   5.025
 3366SOL    HW210127   2.230   4.450   5.002
 3367SOL     OW10128   3.136   4.110   4.986
 3367SOL    HW110129   3.157   4.184   5.050
 3367SOL    HW210130   3.047   4.127   4.943
 3368SOL     OW10131   2.229   4.824   4.225
 3368SOL    HW110132   2.222   4.907   4.169
 3368SOL    HW210133   2.233   4.744   4.165
 3369SOL     OW10134   2.428   4.261   4.589
 3369SOL    HW110135   2.440   4.327   4.515
 3369SOL    HW210136   2.474   4.295   4.672
 3370SOL     OW10137   3.114   5.072   4.112
 3370SOL    HW110138   3.164   5.149   4.152
 3370SOL    HW210139   3.019   5.074   4.144
 3371SOL     OW10140   3.134   5.169   4.866
 3371SOL    HW110141   3.181   5.182   4.953
 3371SOL    HW210142   3.068   5.095   4.875
 3372SOL     OW10143   3.444   4.363   4.196
 3372SOL    HW110144   3.413   4.424   4.269
 3372SOL    HW210145   3.494   4.415   4.127
 3373SOL     OW10146   2.216   5.234   5.053
 3373SOL    HW110147   2.195   5.190   4.966
 3373SOL    HW210148   2.313   5.260   5.056
 3374SOL     OW10149   2.264   4.475   5.322
 3374SOL    HW110150   2.332   4.530   5.275
 3374SOL    HW210151   2.304   4.387   5.349
 3375SOL     OW10152   3.449   4.503   5.394
 3375SOL    HW110153   3.357   4.541   5.389
 3375SOL    HW210154   3.509   4.550   5.329
 3376SOL     OW10155   2.435   4.594   4.753
 3376SOL    HW110156   2.479   4.683   4.744
 3376SOL    HW210157   2.372   4.594   4.830
 3377SOL     OW10158   3.222   4.586   4.769
 3377SOL    HW110159   3.147   4.586   4.703
 3377SOL    HW210160   3.259   4.494   4.778
 3378SOL     OW10161   3.071   4.249   3.999
 3378SOL    HW110162   3.084   4.165   4.053
 3378SOL    HW210163   3.042   4.323   4.059
 3379SOL     OW10164   2.169   3.937   4.955
 3379SOL    HW110165   2.146   3.974   5.045
 3379SOL    HW210166   2.139   3.842   4.949
 3380SOL     OW10167   1.899   5.034   5.006
 3380SOL    HW110168   1.952   4.985   5.074
 3380SOL    HW210169   1.921   5.132   5.011
 3381SOL     OW10170   2.594   4.358   4.788
 3381SOL    HW110171   2.653   4.332   4.712
 3381SOL    HW210172   2.566   4.454   4.777
 3382SOL     OW10173   2.169   3.787   4.342
 3382SOL    HW110174   2.158   3.881   4.375
 3382SOL    HW210175   2.164   3.724   4.419
 3383SOL     OW10176   3.484   4.091   4.098
 3383SOL    HW110177   3.486   4.015   4.162
 3383SOL    HW210178   3.436   4.168   4.138
 3384SOL     OW10179   2.885   4.490   4.690
 3384SOL    HW110180   2.900   4.511   4.786
 3384SOL    HW210181   2.855   4.395   4.681
 3385SOL     OW10182   3.402   3.998   3.849
 3385SOL    HW110183   3.341   3.923   3.872
 3385SOL    HW210184   3.424   4.050   3.932
 3386SOL     OW10185   3.165   4.562   3.766
 3386SOL    HW110186   3.199   4.469   3.781
 3386SOL    HW210187   3.183   4.589   3.671
 3387SOL     OW10188   2.930   5.057   4.573
 3387SOL    HW110189   2.937   4.973   4.518
 3387SOL    HW210190   2.992   5.126   4.537
 3388SOL     OW10191   2.181   4.534   4.673
 3388SOL    HW110192   2.274   4.570   4.678
 3388SOL    HW210193   2.175   4.449   4.725
 3389SOL     OW10194   2.201   4.233   4.730
 3389SOL    HW110195   2.149   4.150   4.713
 3389SOL    HW210196   2.278   4.238   4.666
 3390SOL     OW10197   3.000   4.104   5.402
 3390SOL    HW110198   2.955   4.167   5.466
 3390SOL    HW210199   3.093   4.135   5.385
 3391SOL     OW10200   3.022   3.931   5.201
 3391SOL    HW110201   3.022   3.995   5.278
 3391SOL    HW210202   3.050   3.979   5.118
 3392SOL     OW10203   1.870   5.050   3.924
 3392SOL    HW110204   1.777   5.071   3.893
 3392SOL    HW210205   1.880   4.951   3.937
 3393SOL     OW10206   2.864   4.520   4.962
 3393SOL    HW110207   2.905   4.488   5.048
 3393SOL    HW210208   2.768   4.493   4.959
 3394SOL     OW10209   1.902   4.268   4.838
 3394SOL    HW110210   1.987   4.235   4.797
 3394SOL    HW210211   1.915   4.283   4.936
 3395SOL     OW10212   2.677   4.296   4.049
 3395SOL    HW110213   2.684   4.207   4.003
 3395SOL    HW210214   2.583   4.330   4.041
 3396SOL     OW10215   3.519   4.328   4.930
 3396SOL    HW110216   3.481   4.259   4.992
 3396SOL    HW210217   3.601   4.292   4.886
 3397SOL     OW10218   2.533   4.188   4.993
 3397SOL    HW110219   2.499   4.099   4.963
 3397SOL    HW210220   2.559   4.242   4.913
 3398SOL     OW10221   2.335   4.224   3.915
 3398SOL    HW110222   2.396   4.304   3.919
 3398SOL    HW210223   2.240   4.255   3.922
 3399SOL     OW10224   2.021   4.861   5.190
 3399SOL    HW110225   2.043   4.800   5.266
 3399SOL    HW210226   2.031   4.812   5.104
 3400SOL     OW10227   3.209   4.783   4.958
 3400SOL    HW110228   3.233   4.720   4.884
 3400SOL    HW210229   3.119   4.823   4.940
 3401SOL     OW10230   3.164   4.579   4.033
 3401SOL    HW110231   3.078   4.548   4.075
 3401SOL    HW210232   3.160   4.565   3.934
 3402SOL     OW10233   1.945   4.982   4.746
 3402SOL    HW110234   1.940   4.981   4.846
 3402SOL    HW210235   1.862   4.941   4.708
 3403SOL     OW10236   3.588   3.859   4.247
 3403SOL    HW110237   3.661   3.842   4.180
 3403SOL    HW210238   3.557   3.772   4.285
 3404SOL     OW10239   3.142   4.651   4.396
 3404SOL    HW110240   3.202   4.570   4.398
 3404SOL    HW210241   3.182   4.720   4.336
 3405SOL     OW10242   3.703   3.899   4.687
 3405SOL    HW110243   3.742   3.814   4.651
 3405SOL    HW210244   3.605   3.901   4.668
 3406SOL     OW10245   2.125   4.050   4.444
 3406SOL    HW110246   2.046   4.101   4.410
 3406SOL    HW210247   2.116   4.035   4.542
 3407SOL     OW10248   2.684   4.726   5.096
 3407SOL    HW110249   2.724   4.725   5.004
 3407SOL    HW210250   2.694   4.818   5.136
 3408SOL     OW10251   2.778   4.634   4.015
 3408SOL    HW110252   2.841   4.672   3.947
 3408SOL    HW210253   2.818   4.551   4.054
 3409SOL     OW10254   2.234   5.012   5.214
 3409SOL    HW110255   2.221   5.105   5.180
 3409SOL    HW210256   2.150   4.960   5.201
 3410SOL     OW10257   3.476   5.016   5.013
 3410SOL    HW110258   3.536   5.019   5.093
 3410SOL    HW210259   3.401   5.080   5.026
 3411SOL     OW10260   2.901   4.822   4.420
 3411SOL    HW110261   2.831   4.775   4.474
 3411SOL    HW210262   2.960   4.754   4.377
 3412SOL     OW10263   2.876   3.960   4.695
 3412SOL    HW110264   2.868   3.924   4.602
 3412SOL    HW210265   2.874   3.884   4.760
 3413SOL     OW10266   3.571   4.109   5.105
 3413SOL    HW110267   3.644   4.178   5.109
 3413SOL    HW210268   3.599   4.034   5.046
 3414SOL     OW10269   2.117   5.072   4.014
 3414SOL    HW110270   2.021   5.073   3.987
 3414SOL    HW210271   2.129   5.125   4.098
 3415SOL     OW10272   2.534   3.927   5.213
 3415SOL    HW110273   2.624   3.911   5.173
 3415SOL    HW210274   2.542   3.932   5.312
 3416SOL     OW10275   1.937   4.069   3.757
 3416SOL    HW110276   1.845   4.041   3.728
 3416SOL    HW210277   1.968   4.146   3.701
 3417SOL     OW10278   3.302   4.580   5.122
 3417SOL    HW110279   3.245   4.632   5.059
 3417SOL    HW210280   3.398   4.592   5.098
 3418SOL     OW10281   1.934   3.890   4.042
 3418SOL    HW110282   1.917   3.973   3.988
 3418SOL    HW210283   2.024   3.853   4.020
 3419SOL     OW10284   3.045   5.059   3.843
 3419SOL    HW110285   2.946   5.048   3.845
 3419SOL    HW210286   3.079   5.074   3.936
 3420SOL     OW10287   2.475   4.566   5.155
 3420SOL    HW110288   2.531   4.647   5.138
 3420SOL    HW210289   2.534   4.486   5.158
 3421SOL     OW10290   3.536   4.607   4.978
 3421SOL    HW110291   3.509   4.518   4.941
 3421SOL    HW210292   3.537   4.675   4.905
 3422SOL     OW10293   3.087   4.049   4.173
 3422SOL    HW110294   3.152   3.975   4.162
 3422SOL    HW210295   3.107   4.099   4.257
 3423SOL     OW10296   2.456   4.469   4.376
 3423SOL    HW110297   2.506   4.554   4.357
 3423SOL    HW210298   2.368   4.471   4.328
 3424SOL     OW10299   3.639   4.066   5.366
 3424SOL    HW110300   3.622   4.097   5.272
 3424SOL    HW210301   3.555   4.029   5.404
 3425SOL     OW10302   3.592   4.658   5.241
 3425SOL    HW110303   3.630   4.749   5.256
 3425SOL    HW210304   3.584   4.641   5.142
 3426SOL     OW10305   2.721   5.098   3.740
 3426SOL    HW110306   2.675   5.113   3.828
 3426SOL    HW210307   2.765   5.183   3.710
 3427SOL     OW10308   2.721   4.680   4.585
 3427SOL    HW110309   2.775   4.611   4.633
 3427SOL    HW210310   2.689   4.749   4.651
 3428SOL     OW10311   2.945   4.708   3.811
 3428SOL    HW110312   2.922   4.761   3.729
 3428SOL    HW210313   3.026   4.652   3.792
 3429SOL     OW10314   1.941   4.964   4.377
 3429SOL    HW110315   1.940   4.917   4.465
 3429SOL    HW210316   2.023   4.936   4.326
 3430SOL     OW10317   2.534   5.115   5.348
 3430SOL    HW110318   2.456   5.065   5.386
 3430SOL    HW210319   2.531   5.210   5.379
 3431SOL     OW10320   3.686   3.916   4.951
 3431SOL    HW110321   3.682   3.826   4.995
 3431SOL    HW210322   3.689   3.905   4.852
 3432SOL     OW10323   2.290   4.148   4.244
 3432SOL    HW110324   2.320   4.076   4.182
 3432SOL    HW210325   2.251   4.108   4.327
 3433SOL     OW10326   3.567   5.211   4.828
 3433SOL    HW110327   3.474   5.186   4.801
 3433SOL    HW210328   3.593   5.161   4.910
 3434SOL     OW10329   2.179   4.271   5.004
 3434SOL    HW110330   2.217   4.212   5.076
 3434SOL    HW210331   2.219   4.245   4.916
 3435SOL     OW10332   3.286   3.938   4.836
 3435SOL    HW110333   3.338   3.873   4.891
 3435SOL    HW210334   3.237   4.001   4.897
 3436SOL     OW10335   2.863   3.758   4.878
 3436SOL    HW110336   2.800   3.686   4.847
 3436SOL    HW210337   2.956   3.722   4.878
 3437SOL     OW10338   2.632   5.054   4.025
 3437SOL    HW110339   2.586   4.967   4.042
 3437SOL    HW210340   2.723   5.051   4.066
 3438SOL     OW10341   2.480   5.291   5.008
 3438SOL    HW110342   2.475   5.373   5.065
 3438SOL    HW210343   2.569   5.288   4.963
 3439SOL     OW10344   3.214   3.776   3.892
 3439SOL    HW110345   3.249   3.735   3.808
 3439SOL    HW210346   3.124   3.738   3.912
 3440SOL     OW10347   3.162   4.177   4.415
 3440SOL    HW110348   3.103   4.257   4.419
 3440SOL    HW210349   3.177   4.142   4.508
 3441SOL     OW10350   3.455   3.945   4.606
 3441SOL    HW110351   3.371   3.944   4.660
 3441SOL    HW210352   3.457   4.028   4.550
 3442SOL     OW10353   1.901   4.801   4.024
 3442SOL    HW110354   2.000   4.790   4.015
 3442SOL    HW210355   1.861   4.715   4.056
 3443SOL     OW10356   3.954   0.628   0.113
 3443SOL    HW110357   3.861   0.626   0.150
 3443SOL    HW210358   3.955   0.589   0.021
 3444SOL     OW10359   3.949   0.275   0.996
 3444SOL    HW110360   3.984   0.258   1.088
 3444SOL    HW210361   3.861   0.230   0.984
 3445SOL     OW10362   3.743   0.368   0.647
 3445SOL    HW110363   3.661   0.411   0.686
 3445SOL    HW210364   3.715   0.295   0.584
 3446SOL     OW10365   4.293   1.275   1.165
 3446SOL    HW110366   4.200   1.268   1.128
 3446SOL    HW210367   4.304   1.364   1.209
 3447SOL     OW10368   5.279   1.511   0.703
 3447SOL    HW110369   5.222   1.495   0.784
 3447SOL    HW210370   5.220   1.521   0.623
 3448SOL     OW10371   4.859   0.703   0.717
 3448SOL    HW110372   4.916   0.781   0.692
 3448SOL    HW210373   4.799   0.729   0.793
 3449SOL     OW10374   4.492   1.144   1.023
 3449SOL    HW110375   4.414   1.161   1.083
 3449SOL    HW210376   4.526   1.231   0.987
 3450SOL     OW10377   4.574   0.798   1.823
 3450SOL    HW110378   4.570   0.874   1.888
 3450SOL    HW210379   4.596   0.834   1.732
 3451SOL     OW10380   4.409   1.012   0.665
 3451SOL    HW110381   4.478   0.996   0.735
 3451SOL    HW210382   4.336   1.069   0.703
 3452SOL     OW10383   4.410   1.161   1.803
 3452SOL    HW110384   4.470   1.240   1.817
 3452SOL    HW210385   4.324   1.192   1.762
 3453SOL     OW10386   4.059   1.435   1.061
 3453SOL    HW110387   3.981   1.404   1.008
 3453SOL    HW210388   4.117   1.493   1.004
 3454SOL     OW10389   5.184   1.505   1.339
 3454SOL    HW110390   5.208   1.599   1.365
 3454SOL    HW210391   5.168   1.451   1.421
 3455SOL     OW10392   4.162   0.392   1.499
 3455SOL    HW110393   4.244   0.336   1.508
 3455SOL    HW210394   4.081   0.334   1.503
 3456SOL     OW10395   3.955   1.713   0.483
 3456SOL    HW110396   3.989   1.790   0.537
 3456SOL    HW210397   3.999   1.713   0.393
 3457SOL     OW10398   4.851   1.341   1.690
 3457SOL    HW110399   4.898   1.341   1.778
 3457SOL    HW210400   4.803   1.254   1.679
 3458SOL     OW10401   3.954   1.434   0.538
 3458SOL    HW110402   3.928   1.530   0.538
 3458SOL    HW210403   3.883   1.380   0.583
 3459SOL     OW10404   3.964   1.091   0.886
 3459SOL    HW110405   3.978   1.007   0.938
 3459SOL    HW210406   3.909   1.155   0.941
 3460SOL     OW10407   4.344   1.786   1.439
 3460SOL    HW110408   4.252   1.769   1.474
 3460SOL    HW210409   4.372   1.878   1.465
 3461SOL     OW10410   4.330   0.964   0.123
 3461SOL    HW110411   4.337   1.048   0.069
 3461SOL    HW210412   4.376   0.977   0.211
 3462SOL     OW10413   5.318   0.114   1.480
 3462SOL    HW110414   5.300   0.181   1.408
 3462SOL    HW210415   5.315   0.160   1.569
 3463SOL     OW10416   3.846   0.643   0.563
 3463SOL    HW110417   3.801   0.555   0.580
 3463SOL    HW210418   3.845   0.697   0.647
 3464SOL     OW10419   3.751   1.596   0.117
 3464SOL    HW110420   3.732   1.500   0.138
 3464SOL    HW210421   3.718   1.654   0.192
 3465SOL     OW10422   5.413   0.922   0.612
 3465SOL    HW110423   5.508   0.893   0.620
 3465SOL    HW210424   5.405   0.987   0.537
 3466SOL     OW10425   3.837   0.737   1.597
 3466SOL    HW110426   3.925   0.724   1.642
 3466SOL    HW210427   3.824   0.834   1.575
 3467SOL     OW10428   4.337   1.365   0.726
 3467SOL    HW110429   4.288   1.278   0.735
 3467SOL    HW210430   4.314   1.408   0.639
 3468SOL     OW10431   5.017   1.228   1.423
 3468SOL    HW110432   5.054   1.155   1.365
 3468SOL    HW210433   5.069   1.233   1.508
 3469SOL     OW10434   4.533   0.004   0.502
 3469SOL    HW110435   4.573   0.095   0.493
 3469SOL    HW210436   4.433   0.012   0.508
 3470SOL     OW10437   3.921   0.976   1.264
 3470SOL    HW110438   4.010   0.931   1.250
 3470SOL    HW210439   3.848   0.911   1.245
 3471SOL     OW10440   4.911   1.792   1.616
 3471SOL    HW110441   4.935   1.852   1.540
 3471SOL    HW210442   4.918   1.697   1.586
 3472SOL     OW10443   4.041   0.251   1.801
 3472SOL    HW110444   4.112   0.322   1.807
 3472SOL    HW210445   3.953   0.290   1.829
 3473SOL     OW10446   5.190   1.417   0.953
 3473SOL    HW110447   5.131   1.423   1.033
 3473SOL    HW210448   5.175   1.329   0.907
 3474SOL     OW10449   5.391   1.714   0.572
 3474SOL    HW110450   5.350   1.691   0.484
 3474SOL    HW210451   5.373   1.640   0.637
 3475SOL     OW10452   4.322   0.729   0.270
 3475SOL    HW110453   4.346   0.798   0.202
 3475SOL    HW210454   4.244   0.762   0.324
 3476SOL     OW10455   5.005   0.345   0.944
 3476SOL    HW110456   4.919   0.295   0.931
 3476SOL    HW210457   5.067   0.291   1.000
 3477SOL     OW10458   4.531   0.605   1.465
 3477SOL    HW110459   4.484   0.602   1.554
 3477SOL    HW210460   4.480   0.550   1.399
 3478SOL     OW10461   5.118   0.469   1.674
 3478SOL    HW110462   5.098   0.512   1.762
 3478SOL    HW210463   5.196   0.407   1.683
 3479SOL     OW10464   4.697   0.890   1.572
 3479SOL    HW110465   4.743   0.806   1.543
 3479SOL    HW210466   4.641   0.924   1.497
 3480SOL     OW10467   4.715   0.410   1.242
 3480SOL    HW110468   4.638   0.444   1.296
 3480SOL    HW210469   4.681   0.359   1.163
 3481SOL     OW10470   4.765   0.701   0.429
 3481SOL    HW110471   4.791   0.697   0.525
 3481SOL    HW210472   4.680   0.650   0.415
 3482SOL     OW10473   3.800   0.811   0.789
 3482SOL    HW110474   3.899   0.799   0.798
 3482SOL    HW210475   3.776   0.906   0.810
 3483SOL     OW10476   3.854   1.821   1.571
 3483SOL    HW110477   3.844   1.806   1.670
 3483SOL    HW210478   3.768   1.857   1.535
 3484SOL     OW10479   4.589   0.348   0.195
 3484SOL    HW110480   4.648   0.411   0.146
 3484SOL    HW210481   4.608   0.254   0.166
 3485SOL     OW10482   5.086   1.144   0.545
 3485SOL    HW110483   5.169   1.115   0.497
 3485SOL    HW210484   5.037   1.211   0.489
 3486SOL     OW10485   4.274   0.196   0.885
 3486SOL    HW110486   4.269   0.191   0.985
 3486SOL    HW210487   4.276   0.292   0.856
 3487SOL     OW10488   4.732   1.456   0.477
 3487SOL    HW110489   4.686   1.528   0.425
 3487SOL    HW210490   4.728   1.476   0.575
 3488SOL     OW10491   4.075   1.801   0.853
 3488SOL    HW110492   4.125   1.715   0.859
 3488SOL    HW210493   4.140   1.878   0.850
 3489SOL     OW10494   4.951   1.550   1.506
 3489SOL    HW110495   4.957   1.473   1.570
 3489SOL    HW210496   4.899   1.524   1.426
 3490SOL     OW10497   4.045   0.943   0.242
 3490SOL    HW110498   4.127   0.982   0.200
 3490SOL    HW210499   4.018   0.861   0.193
 3491SOL     OW10500   4.185   1.266   1.727
 3491SOL    HW110501   4.135   1.267   1.641
 3491SOL    HW210502   4.122   1.248   1.803
 3492SOL     OW10503   4.835   1.776   0.237
 3492SOL    HW110504   4.775   1.714   0.287
 3492SOL    HW210505   4.866   1.732   0.152
 3493SOL     OW10506   3.926   0.285   1.498
 3493SOL    HW110507   3.846   0.345   1.485
 3493SOL    HW210508   3.916   0.236   1.584
 3494SOL     OW10509   4.188   1.743   0.323
 3494SOL    HW110510   4.221   1.782   0.409
 3494SOL    HW210511   4.264   1.736   0.258
 3495SOL     OW10512   5.124   0.107   0.426
 3495SOL    HW110513   5.100   0.070   0.336
 3495SOL    HW210514   5.223   0.123   0.430
 3496SOL     OW10515   3.973   1.785   1.241
 3496SOL    HW110516   4.030   1.720   1.291
 3496SOL    HW210517   3.957   1.752   1.148
 3497SOL     OW10518   4.664   1.698   0.904
 3497SOL    HW110519   4.744   1.641   0.925
 3497SOL    HW210520   4.615   1.658   0.827
 3498SOL     OW10521   4.106   0.700   0.480
 3498SOL    HW110522   4.151   0.610   0.477
 3498SOL    HW210523   4.012   0.689   0.513
 3499SOL     OW10524   4.338   0.122   0.117
 3499SOL    HW110525   4.436   0.100   0.124
 3499SOL    HW210526   4.307   0.105   0.024
 3500SOL     OW10527   4.505   0.264   1.749
 3500SOL    HW110528   4.572   0.203   1.792
 3500SOL    HW210529   4.432   0.283   1.814
 3501SOL     OW10530   4.612   1.514   1.195
 3501SOL    HW110531   4.589   1.489   1.101
 3501SOL    HW210532   4.673   1.445   1.234
 3502SOL     OW10533   5.075   0.590   1.433
 3502SOL    HW110534   5.103   0.547   1.518
 3502SOL    HW210535   5.100   0.686   1.434
 3503SOL     OW10536   4.527   1.402   0.924
 3503SOL    HW110537   4.617   1.416   0.882
 3503SOL    HW210538   4.456   1.404   0.853
 3504SOL     OW10539   4.646   0.503   0.899
 3504SOL    HW110540   4.621   0.494   0.803
 3504SOL    HW210541   4.694   0.421   0.930
 3505SOL     OW10542   4.263   0.064   0.512
 3505SOL    HW110543   4.182   0.065   0.570
 3505SOL    HW210544   4.266   0.147   0.457
 3506SOL     OW10545   5.158   1.188   0.041
 3506SOL    HW110546   5.190   1.112   0.098
 3506SOL    HW210547   5.066   1.215   0.071
 3507SOL     OW10548   4.021   0.035   0.171
 3507SOL    HW110549   4.070   0.119   0.150
 3507SOL    HW210550   4.083  -0.030   0.216
 3508SOL     OW10551   4.659   0.236   0.480
 3508SOL    HW110552   4.611   0.277   0.402
 3508SOL    HW210553   4.758   0.234   0.461
 3509SOL     OW10554   4.800   0.683   1.464
 3509SOL    HW110555   4.720   0.622   1.467
 3509SOL    HW210556   4.881   0.630   1.440
 3510SOL     OW10557   4.951   1.570   0.793
 3510SOL    HW110558   4.972   1.644   0.728
 3510SOL    HW210559   5.019   1.570   0.866
 3511SOL     OW10560   4.183   1.152   0.741
 3511SOL    HW110561   4.112   1.125   0.806
 3511SOL    HW210562   4.157   1.124   0.648
 3512SOL     OW10563   4.995   1.797   0.591
 3512SOL    HW110564   5.039   1.861   0.527
 3512SOL    HW210565   4.945   1.849   0.661
 3513SOL     OW10566   4.756   0.549   0.016
 3513SOL    HW110567   4.715   0.631  -0.023
 3513SOL    HW210568   4.820   0.575   0.089
 3514SOL     OW10569   3.802   0.556   1.386
 3514SOL    HW110570   3.894   0.555   1.345
 3514SOL    HW210571   3.796   0.630   1.453
 3515SOL     OW10572   4.285   0.222   1.147
 3515SOL    HW110573   4.323   0.138   1.184
 3515SOL    HW210574   4.197   0.241   1.191
 3516SOL     OW10575   4.590   0.454   0.642
 3516SOL    HW110576   4.558   0.526   0.580
 3516SOL    HW210577   4.614   0.373   0.589
 3517SOL     OW10578   4.741   0.039   0.753
 3517SOL    HW110579   4.669   0.044   0.684
 3517SOL    HW210580   4.717  -0.030   0.822
 3518SOL     OW10581   5.153   1.173   0.867
 3518SOL    HW110582   5.098   1.089   0.860
 3518SOL    HW210583   5.179   1.202   0.775
 3519SOL     OW10584   4.212   1.385   0.174
 3519SOL    HW110585   4.125   1.370   0.221
 3519SOL    HW210586   4.195   1.411   0.079
 3520SOL     OW10587   5.114   0.575   0.078
 3520SOL    HW110588   5.060   0.554   0.159
 3520SOL    HW210589   5.205   0.534   0.087
 3521SOL     OW10590   4.251   0.256   0.328
 3521SOL    HW110591   4.278   0.197   0.253
 3521SOL    HW210592   4.251   0.351   0.297
 3522SOL     OW10593   4.788   1.347   1.340
 3522SOL    HW110594   4.708   1.324   1.395
 3522SOL    HW210595   4.871   1.321   1.389
 3523SOL     OW10596   5.316   1.629   1.625
 3523SOL    HW110597   5.343   1.663   1.535
 3523SOL    HW210598   5.395   1.591   1.671
 3524SOL     OW10599   4.835   1.195   1.100
 3524SOL    HW110600   4.795   1.239   1.181
 3524SOL    HW210601   4.794   1.232   1.017
 3525SOL     OW10602   4.639   0.089   1.402
 3525SOL    HW110603   4.664   0.069   1.307
 3525SOL    HW210604   4.711   0.145   1.444
 3526SOL     OW10605   4.704   1.116   1.719
 3526SOL    HW110606   4.605   1.122   1.729
 3526SOL    HW210607   4.727   1.036   1.663
 3527SOL     OW10608   4.429   1.050   0.368
 3527SOL    HW110609   4.415   1.057   0.467
 3527SOL    HW210610   4.513   0.999   0.350
 3528SOL     OW10611   4.134   0.813   1.251
 3528SOL    HW110612   4.220   0.825   1.301
 3528SOL    HW210613   4.092   0.726   1.278
 3529SOL     OW10614   4.998   0.386   1.262
 3529SOL    HW110615   5.019   0.460   1.326
 3529SOL    HW210616   4.909   0.403   1.219
 3530SOL     OW10617   3.788   1.564   1.331
 3530SOL    HW110618   3.742   1.646   1.297
 3530SOL    HW210619   3.886   1.583   1.340
 3531SOL     OW10620   4.091   1.100   0.501
 3531SOL    HW110621   4.084   1.183   0.445
 3531SOL    HW210622   4.095   1.020   0.441
 3532SOL     OW10623   4.290   0.537   0.865
 3532SOL    HW110624   4.302   0.603   0.791
 3532SOL    HW210625   4.336   0.571   0.948
 3533SOL     OW10626   4.976   1.348   0.388
 3533SOL    HW110627   5.026   1.425   0.428
 3533SOL    HW210628   4.881   1.350   0.420
 3534SOL     OW10629   4.996   1.445   1.142
 3534SOL    HW110630   5.043   1.458   1.229
 3534SOL    HW210631   4.930   1.371   1.151
 3535SOL     OW10632   4.078   1.510   1.329
 3535SOL    HW110633   4.057   1.466   1.242
 3535SOL    HW210634   4.175   1.536   1.332
 3536SOL     OW10635   4.126   0.751   1.598
 3536SOL    HW110636   4.194   0.806   1.551
 3536SOL    HW210637   4.166   0.663   1.625
 3537SOL     OW10638   4.737   0.105   1.770
 3537SOL    HW110639   4.743   0.190   1.718
 3537SOL    HW210640   4.769   0.029   1.713
 3538SOL     OW10641   4.228   0.050   1.740
 3538SOL    HW110642   4.186  -0.007   1.670
 3538SOL    HW210643   4.162   0.119   1.772
 3539SOL     OW10644   4.297   0.870   1.029
 3539SOL    HW110645   4.341   0.959   1.020
 3539SOL    HW210646   4.234   0.870   1.106
 3540SOL     OW10647   5.084   0.862   1.045
 3540SOL    HW110648   5.009   0.862   0.979
 3540SOL    HW210649   5.121   0.770   1.054
 3541SOL     OW10650   4.933   0.525   0.275
 3541SOL    HW110651   4.946   0.441   0.329
 3541SOL    HW210652   4.904   0.599   0.335
 3542SOL     OW10653   4.031   0.213   1.231
 3542SOL    HW110654   4.008   0.250   1.321
 3542SOL    HW210655   4.001   0.118   1.225
 3543SOL     OW10656   3.761   1.310   1.282
 3543SOL    HW110657   3.814   1.261   1.350
 3543SOL    HW210658   3.783   1.408   1.287
 3544SOL     OW10659   4.456   0.634   1.064
 3544SOL    HW110660   4.515   0.608   0.988
 3544SOL    HW210661   4.428   0.730   1.053
 3545SOL     OW10662   4.031   0.063   0.618
 3545SOL    HW110663   4.020   0.157   0.651
 3545SOL    HW210664   4.026   0.000   0.695
 3546SOL     OW10665   5.346   0.367   0.374
 3546SOL    HW110666   5.348   0.291   0.438
 3546SOL    HW210667   5.298   0.444   0.414
 3547SOL     OW10668   4.747   0.766   0.966
 3547SOL    HW110669   4.762   0.787   1.062
 3547SOL    HW210670   4.717   0.671   0.957
 3548SOL     OW10671   4.704   1.573   1.700
 3548SOL    HW110672   4.684   1.617   1.612
 3548SOL    HW210673   4.743   1.482   1.684
 3549SOL     OW10674   4.074   0.898   1.804
 3549SOL    HW110675   4.150   0.942   1.852
 3549SOL    HW210676   4.109   0.851   1.722
 3550SOL     OW10677   5.027   0.838   0.042
 3550SOL    HW110678   5.061   0.745   0.057
 3550SOL    HW210679   5.045   0.865  -0.053
 3551SOL     OW10680   4.792   1.333   0.849
 3551SOL    HW110681   4.799   1.249   0.794
 3551SOL    HW210682   4.854   1.402   0.813
 3552SOL     OW10683   4.043   0.810   0.949
 3552SOL    HW110684   4.136   0.846   0.954
 3552SOL    HW210685   4.037   0.725   1.001
 3553SOL     OW10686   4.063   0.509   1.006
 3553SOL    HW110687   4.011   0.426   0.989
 3553SOL    HW210688   4.140   0.514   0.942
 3554SOL     OW10689   4.862   0.380   1.678
 3554SOL    HW110690   4.817   0.443   1.742
 3554SOL    HW210691   4.955   0.411   1.661
 3555SOL     OW10692   4.884   0.207   1.477
 3555SOL    HW110693   4.884   0.271   1.554
 3555SOL    HW210694   4.912   0.255   1.394
 3556SOL     OW10695   3.732   1.326   0.200
 3556SOL    HW110696   3.639   1.347   0.169
 3556SOL    HW210697   3.742   1.227   0.213
 3557SOL     OW10698   3.812   1.801   0.927
 3557SOL    HW110699   3.770   1.715   0.900
 3557SOL    HW210700   3.906   1.804   0.893
 3558SOL     OW10701   4.228   1.568   0.910
 3558SOL    HW110702   4.294   1.642   0.919
 3558SOL    HW210703   4.272   1.489   0.868
 3559SOL     OW10704   4.726   0.796   1.238
 3559SOL    HW110705   4.767   0.764   1.324
 3559SOL    HW210706   4.630   0.769   1.235
 3560SOL     OW10707   3.764   0.544   1.114
 3560SOL    HW110708   3.849   0.511   1.073
 3560SOL    HW210709   3.777   0.559   1.212
 3561SOL     OW10710   3.913   0.520   1.722
 3561SOL    HW110711   3.972   0.480   1.652
 3561SOL    HW210712   3.855   0.591   1.681
 3562SOL     OW10713   5.093   0.950   1.660
 3562SOL    HW110714   5.132   1.039   1.680
 3562SOL    HW210715   5.103   0.930   1.563
 3563SOL     OW10716   4.539   0.572   0.325
 3563SOL    HW110717   4.546   0.483   0.279
 3563SOL    HW210718   4.445   0.606   0.317
 3564SOL     OW10719   3.976   1.564   1.744
 3564SOL    HW110720   3.946   1.621   1.820
 3564SOL    HW210721   3.969   1.467   1.770
 3565SOL     OW10722   4.395   0.464   1.269
 3565SOL    HW110723   4.361   0.375   1.239
 3565SOL    HW210724   4.421   0.518   1.189
 3566SOL     OW10725   4.654   1.678   1.465
 3566SOL    HW110726   4.630   1.660   1.370
 3566SOL    HW210727   4.684   1.772   1.475
 3567SOL     OW10728   4.197   0.500   0.191
 3567SOL    HW110729   4.258   0.580   0.195
 3567SOL    HW210730   4.102   0.531   0.198
 3568SOL     OW10731   3.883   1.137   1.466
 3568SOL    HW110732   3.905   1.076   1.542
 3568SOL    HW210733   3.893   1.088   1.380
 3569SOL     OW10734   5.071   1.059   1.234
 3569SOL    HW110735   5.095   0.996   1.160
 3569SOL    HW210736   4.981   1.099   1.216
 3570SOL     OW10737   5.026   0.855   0.309
 3570SOL    HW110738   4.940   0.824   0.351
 3570SOL    HW210739   5.022   0.841   0.210
 3571SOL     OW10740   4.976   1.731   1.128
 3571SOL    HW110741   5.060   1.736   1.074
 3571SOL    HW210742   4.953   1.635   1.146
 3572SOL     OW10743   3.807   1.258   1.022
 3572SOL    HW110744   3.802   1.257   1.122
 3572SOL    HW210745   3.724   1.217   0.984
 3573SOL     OW10746   4.412   1.662   1.716
 3573SOL    HW110747   4.356   1.743   1.725
 3573SOL    HW210748   4.464   1.666   1.630
 3574SOL     OW10749   4.627   0.086   0.133
 3574SOL    HW110750   4.678   0.087   0.047
 3574SOL    HW210751   4.683   0.044   0.204
 3575SOL     OW10752   5.450   0.135   0.523
 3575SOL    HW110753   5.523   0.118   0.456
 3575SOL    HW210754   5.419   0.048   0.561
 3576SOL     OW10755   5.112   1.573   0.477
 3576SOL    HW110756   5.179   1.585   0.403
 3576SOL    HW210757   5.072   1.662   0.500
 3577SOL     OW10758   3.854   1.794   1.851
 3577SOL    HW110759   3.813   1.720   1.904
 3577SOL    HW210760   3.918   1.845   1.909
 3578SOL     OW10761   5.004   0.927   0.672
 3578SOL    HW110762   5.064   0.846   0.674
 3578SOL    HW210763   5.044   0.996   0.612
 3579SOL     OW10764   4.554   1.273   1.422
 3579SOL    HW110765   4.549   1.306   1.517
 3579SOL    HW210766   4.468   1.292   1.376
 3580SOL     OW10767   4.396   1.616   0.154
 3580SOL    HW110768   4.405   1.626   0.055
 3580SOL    HW210769   4.356   1.527   0.175
 3581SOL     OW10770   3.987   0.326   0.720
 3581SOL    HW110771   3.908   0.377   0.686
 3581SOL    HW210772   3.978   0.311   0.818
 3582SOL     OW10773   4.918   1.612   0.031
 3582SOL    HW110774   4.924   1.519   0.068
 3582SOL    HW210775   4.859   1.612  -0.049
 3583SOL     OW10776   4.546   1.002   1.372
 3583SOL    HW110777   4.586   1.001   1.280
 3583SOL    HW210778   4.556   1.094   1.412
 3584SOL     OW10779   4.640   0.910   0.291
 3584SOL    HW110780   4.703   0.948   0.223
 3584SOL    HW210781   4.680   0.827   0.330
 3585SOL     OW10782   4.096   1.288   1.490
 3585SOL    HW110783   4.083   1.381   1.456
 3585SOL    HW210784   4.012   1.236   1.477
 3586SOL     OW10785   4.763   1.098   0.696
 3586SOL    HW110786   4.693   1.051   0.750
 3586SOL    HW210787   4.822   1.030   0.653
 3587SOL     OW10788   4.738   0.236   0.971
 3587SOL    HW110789   4.730   0.200   0.878
 3587SOL    HW210790   4.736   0.160   1.036
 3588SOL     OW10791   4.314   1.487   0.491
 3588SOL    HW110792   4.356   1.429   0.421
 3588SOL    HW210793   4.270   1.566   0.447
 3589SOL     OW10794   3.979   1.348   0.290
 3589SOL    HW110795   3.883   1.349   0.263
 3589SOL    HW210796   3.991   1.401   0.374
 3590SOL     OW10797   3.829   1.013   1.726
 3590SOL    HW110798   3.752   0.980   1.780
 3590SOL    HW210799   3.914   0.983   1.768
 3591SOL     OW10800   4.396   0.203   1.489
 3591SOL    HW110801   4.486   0.187   1.449
 3591SOL    HW210802   4.404   0.208   1.588
 3592SOL     OW10803   5.164   0.856   1.398
 3592SOL    HW110804   5.107   0.908   1.335
 3592SOL    HW210805   5.260   0.868   1.374
 3593SOL     OW10806   3.796   0.166   0.318
 3593SOL    HW110807   3.779   0.249   0.264
 3593SOL    HW210808   3.886   0.129   0.296
 3594SOL     OW10809   4.907   1.335   0.119
 3594SOL    HW110810   4.808   1.324   0.121
 3594SOL    HW210811   4.941   1.350   0.212
 3595SOL     OW10812   4.337   0.842   1.431
 3595SOL    HW110813   4.393   0.923   1.414
 3595SOL    HW210814   4.396   0.762   1.434
 3596SOL     OW10815   5.217   1.767   0.959
 3596SOL    HW110816   5.250   1.831   0.890
 3596SOL    HW210817   5.283   1.761   1.034
 3597SOL     OW10818   4.440   0.565   1.708
 3597SOL    HW110819   4.459   0.630   1.782
 3597SOL    HW210820   4.500   0.485   1.717
 3598SOL     OW10821   5.174   1.220   1.633
 3598SOL    HW110822   5.165   1.210   1.732
 3598SOL    HW210823   5.270   1.213   1.607
 3599SOL     OW10824   4.114   1.741   1.560
 3599SOL    HW110825   4.023   1.782   1.558
 3599SOL    HW210826   4.107   1.647   1.592
 3600SOL     OW10827   4.949   0.325   0.449
 3600SOL    HW110828   5.014   0.251   0.438
 3600SOL    HW210829   4.969   0.375   0.533
 3601SOL     OW10830   4.318   0.745   0.652
 3601SOL    HW110831   4.368   0.830   0.633
 3601SOL    HW210832   4.230   0.747   0.604
 3602SOL     OW10833   4.583   1.374   0.016
 3602SOL    HW110834   4.537   1.389   0.104
 3602SOL    HW210835   4.627   1.459  -0.014
 3603SOL     OW10836   4.385   1.790   0.953
 3603SOL    HW110837   4.339   1.878   0.940
 3603SOL    HW210838   4.484   1.802   0.946
 3604SOL     OW10839   4.583   0.956   0.861
 3604SOL    HW110840   4.637   0.887   0.909
 3604SOL    HW210841   4.551   1.025   0.927
 3605SOL     OW10842   4.807   0.984   0.087
 3605SOL    HW110843   4.784   1.037   0.005
 3605SOL    HW210844   4.888   0.928   0.068
 3606SOL     OW10845   3.945   1.314   1.844
 3606SOL    HW110846   3.880   1.241   1.823
 3606SOL    HW210847   3.949   1.328   1.942
 3607SOL     OW10848   3.803   1.240   0.653
 3607SOL    HW110849   3.802   1.193   0.741
 3607SOL    HW210850   3.885   1.212   0.602
 3608SOL     OW10851   4.396   1.391   1.624
 3608SOL    HW110852   4.318   1.341   1.662
 3608SOL    HW210853   4.393   1.486   1.655
 3609SOL     OW10854   4.152   0.424   0.520
 3609SOL    HW110855   4.182   0.352   0.458
 3609SOL    HW210856   4.113   0.384   0.603
 3610SOL     OW10857   4.041   0.547   1.280
 3610SOL    HW110858   4.079   0.488   1.352
 3610SOL    HW210859   4.081   0.521   1.192
 3611SOL     OW10860   4.536   1.586   0.687
 3611SOL    HW110861   4.568   1.596   0.593
 3611SOL    HW210862   4.457   1.524   0.689
 3612SOL     OW10863   5.148   0.214   1.112
 3612SOL    HW110864   5.200   0.149   1.167
 3612SOL    HW210865   5.099   0.277   1.173
 3613SOL     OW10866   4.725   0.034   1.154
 3613SOL    HW110867   4.662  -0.038   1.123
 3613SOL    HW210868   4.818  -0.002   1.154
 3614SOL     OW10869   4.494   1.330   0.301
 3614SOL    HW110870   4.448   1.243   0.318
 3614SOL    HW210871   4.585   1.327   0.342
 3615SOL     OW10872   4.342   1.567   1.284
 3615SOL    HW110873   4.337   1.649   1.341
 3615SOL    HW210874   4.431   1.564   1.239
 3616SOL     OW10875   5.076   0.052   0.168
 3616SOL    HW110876   5.111   0.011   0.084
 3616SOL    HW210877   4.986   0.014   0.188
 3617SOL     OW10878   5.024   0.453   0.691
 3617SOL    HW110879   4.965   0.533   0.695
 3617SOL    HW210880   5.039   0.418   0.784
 3618SOL     OW10881   5.317   0.221   0.882
 3618SOL    HW110882   5.233   0.220   0.936
 3618SOL    HW210883   5.319   0.304   0.826
 3619SOL     OW10884   3.763   1.077   0.300
 3619SOL    HW110885   3.862   1.066   0.291
 3619SOL    HW210886   3.723   0.991   0.332
 3620SOL     OW10887   4.599   1.646   0.337
 3620SOL    HW110888   4.522   1.611   0.283
 3620SOL    HW210889   4.567   1.717   0.399
 3621SOL     OW10890   3.954   0.628   1.975
 3621SOL    HW110891   3.861   0.626   2.012
 3621SOL    HW210892   3.955   0.589   1.883
 3622SOL     OW10893   3.949   0.275   2.858
 3622SOL    HW110894   3.984   0.258   2.950
 3622SOL    HW210895   3.861   0.230   2.846
 3623SOL     OW10896   3.743   0.368   2.509
 3623SOL    HW110897   3.661   0.411   2.548
 3623SOL    HW210898   3.715   0.295   2.446
 3624SOL     OW10899   4.293   1.275   3.027
 3624SOL    HW110900   4.200   1.268   2.990
 3624SOL    HW210901   4.304   1.364   3.071
 3625SOL     OW10902   5.279   1.511   2.565
 3625SOL    HW110903   5.222   1.495   2.646
 3625SOL    HW210904   5.220   1.521   2.485
 3626SOL     OW10905   4.859   0.703   2.579
 3626SOL    HW110906   4.916   0.781   2.554
 3626SOL    HW210907   4.799   0.729   2.655
 3627SOL     OW10908   4.492   1.144   2.885
 3627SOL    HW110909   4.414   1.161   2.945
 3627SOL    HW210910   4.526   1.231   2.849
 3628SOL     OW10911   4.574   0.798   3.685
 3628SOL    HW110912   4.570   0.874   3.750
 3628SOL    HW210913   4.596   0.834   3.594
 3629SOL     OW10914   4.409   1.012   2.527
 3629SOL    HW110915   4.478   0.996   2.597
 3629SOL    HW210916   4.336   1.069   2.565
 3630SOL     OW10917   4.410   1.161   3.665
 3630SOL    HW110918   4.470   1.240   3.679
 3630SOL    HW210919   4.324   1.192   3.624
 3631SOL     OW10920   4.059   1.435   2.923
 3631SOL    HW110921   3.981   1.404   2.870
 3631SOL    HW210922   4.117   1.493   2.866
 3632SOL     OW10923   5.184   1.505   3.201
 3632SOL    HW110924   5.208   1.599   3.227
 3632SOL    HW210925   5.168   1.451   3.283
 3633SOL     OW10926   4.162   0.392   3.361
 3633SOL    HW110927   4.244   0.336   3.370
 3633SOL    HW210928   4.081   0.334   3.365
 3634SOL     OW10929   3.955   1.713   2.345
 3634SOL    HW110930   3.989   1.790   2.399
 3634SOL    HW210931   3.999   1.713   2.255
 3635SOL     OW10932   4.851   1.341   3.552
 3635SOL    HW110933   4.898   1.341   3.640
 3635SOL    HW210934   4.803   1.254   3.541
 3636SOL     OW10935   3.954   1.434   2.400
 3636SOL    HW110936   3.928   1.530   2.400
 3636SOL    HW210937   3.883   1.380   2.445
 3637SOL     OW10938   3.964   1.091   2.748
 3637SOL    HW110939   3.978   1.007   2.800
 3637SOL    HW210940   3.909   1.155   2.803
 3638SOL     OW10941   4.344   1.786   3.301
 3638SOL    HW110942   4.252   1.769   3.336
 3638SOL    HW210943   4.372   1.878   3.327
 3639SOL     OW10944   4.330   0.964   1.985
 3639SOL    HW110945   4.337   1.048   1.931
 3639SOL    HW210946   4.376   0.977   2.073
 3640SOL     OW10947   5.318   0.114   3.342
 3640SOL    HW110948   5.300   0.181   3.270
 3640SOL    HW210949   5.315   0.160   3.431
 3641SOL     OW10950   3.846   0.643   2.425
 3641SOL    HW110951   3.801   0.555   2.442
 3641SOL    HW210952   3.845   0.697   2.509
 3642SOL     OW10953   3.751   1.596   1.979
 3642SOL    HW110954   3.732   1.500   2.000
 3642SOL    HW210955   3.718   1.654   2.054
 3643SOL     OW10956   5.413   0.922   2.474
 3643SOL    HW110957   5.508   0.893   2.482
 3643SOL    HW210958   5.405   0.987   2.399
 3644SOL     OW10959   3.837   0.737   3.459
 3644SOL    HW110960   3.925   0.724   3.504
 3644SOL    HW210961   3.824   0.834   3.437
 3645SOL     OW10962   4.337   1.365   2.588
 3645SOL    HW110963   4.288   1.278   2.597
 3645SOL    HW210964   4.314   1.408   2.501
 3646SOL     OW10965   5.017   1.228   3.285
 3646SOL    HW110966   5.054   1.155   3.227
 3646SOL    HW210967   5.069   1.233   3.370
 3647SOL     OW10968   4.533   0.004   2.364
 3647SOL    HW110969   4.573   0.095   2.355
 3647SOL    HW210970   4.433   0.012   2.370
 3648SOL     OW10971   3.921   0.976   3.126
 3648SOL    HW110972   4.010   0.931   3.112
 3648SOL    HW210973   3.848   0.911   3.107
 3649SOL     OW10974   4.911   1.792   3.478
 3649SOL    HW110975   4.935   1.852   3.402
 3649SOL    HW210976   4.918   1.697   3.448
 3650SOL     OW10977   4.041   0.251   3.663
 3650SOL    HW110978   4.112   0.322   3.669
 3650SOL    HW210979   3.953   0.290   3.691
 3651SOL     OW10980   5.190   1.417   2.815
 3651SOL    HW110981   5.131   1.423   2.895
 3651SOL    HW210982   5.175   1.329   2.769
 3652SOL     OW10983   5.391   1.714   2.434
 3652SOL    HW110984   5.350   1.691   2.346
 3652SOL    HW210985   5.373   1.640   2.499
 3653SOL     OW10986   4.322   0.729   2.132
 3653SOL    HW110987   4.346   0.798   2.064
 3653SOL    HW210988   4.244   0.762   2.186
 3654SOL     OW10989   5.005   0.345   2.806
 3654SOL    HW110990   4.919   0.295   2.793
 3654SOL    HW210991   5.067   0.291   2.862
 3655SOL     OW10992   4.531   0.605   3.327
 3655SOL    HW110993   4.484   0.602   3.416
 3655SOL    HW210994   4.480   0.550   3.261
 3656SOL     OW10995   5.118   0.469   3.536
 3656SOL    HW110996   5.098   0.512   3.624
 3656SOL    HW210997   5.196   0.407   3.545
 3657SOL     OW10998   4.697   0.890   3.434
 3657SOL    HW110999   4.743   0.806   3.405
 3657SOL    HW211000   4.641   0.924   3.359
 3658SOL     OW11001   4.715   0.410   3.104
 3658SOL    HW111002   4.638   0.444   3.158
 3658SOL    HW211003   4.681   0.359   3.025
 3659SOL     OW11004   4.765   0.701   2.291
 3659SOL    HW111005   4.791   0.697   2.387
 3659SOL    HW211006   4.680   0.650   2.277
 3660SOL     OW11007   3.800   0.811   2.651
 3660SOL    HW111008   3.899   0.799   2.660
 3660SOL    HW211009   3.776   0.906   2.672
 3661SOL     OW11010   3.854   1.821   3.433
 3661SOL    HW111011   3.844   1.806   3.532
 3661SOL    HW211012   3.768   1.857   3.397
 3662SOL     OW11013   4.589   0.348   2.057
 3662SOL    HW111014   4.648   0.411   2.008
 3662SOL    HW211015   4.608   0.254   2.028
 3663SOL     OW11016   5.086   1.144   2.407
 3663SOL    HW111017   5.169   1.115   2.359
 3663SOL    HW211018   5.037   1.211   2.351
 3664SOL     OW11019   4.274   0.196   2.747
 3664SOL    HW111020   4.269   0.191   2.847
 3664SOL    HW211021   4.276   0.292   2.718
 3665SOL     OW11022   4.732   1.456   2.339
 3665SOL    HW111023   4.686   1.528   2.287
 3665SOL    HW211024   4.728   1.476   2.437
 3666SOL     OW11025   4.075   1.801   2.715
 3666SOL    HW111026   4.125   1.715   2.721
 3666SOL    HW211027   4.140   1.878   2.712
 3667SOL     OW11028   4.951   1.550   3.368
 3667SOL    HW111029   4.957   1.473   3.432
 3667SOL    HW211030   4.899   1.524   3.288
 3668SOL     OW11031   4.045   0.943   2.104
 3668SOL    HW111032   4.127   0.982   2.062
 3668SOL    HW211033   4.018   0.861   2.055
 3669SOL     OW11034   4.185   1.266   3.589
 3669SOL    HW111035   4.135   1.267   3.503
 3669SOL    HW211036   4.122   1.248   3.665
 3670SOL     OW11037   4.835   1.776   2.099
 3670SOL    HW111038   4.775   1.714   2.149
 3670SOL    HW211039   4.866   1.732   2.014
 3671SOL     OW11040   3.926   0.285   3.360
 3671SOL    HW111041   3.846   0.345   3.347
 3671SOL    HW211042   3.916   0.236   3.446
 3672SOL     OW11043   4.188   1.743   2.185
 3672SOL    HW111044   4.221   1.782   2.271
 3672SOL    HW211045   4.264   1.736   2.120
 3673SOL     OW11046   5.124   0.107   2.288
 3673SOL    HW111047   5.100   0.070   2.198
 3673SOL    HW211048   5.223   0.123   2.292
 3674SOL     OW11049   3.973   1.785   3.103
 3674SOL    HW111050   4.030   1.720   3.153
 3674SOL    HW211051   3.957   1.752   3.010
 3675SOL     OW11052   4.664   1.698   2.766
 3675SOL    HW111053   4.744   1.641   2.787
 3675SOL    HW211054   4.615   1.658   2.689
 3676SOL     OW11055   4.106   0.700   2.342
 3676SOL    HW111056   4.151   0.610   2.339
 3676SOL    HW211057   4.012   0.689   2.375
 3677SOL     OW11058   4.338   0.122   1.979
 3677SOL    HW111059   4.436   0.100   1.986
 3677SOL    HW211060   4.307   0.105   1.886
 3678SOL     OW11061   4.505   0.264   3.611
 3678SOL    HW111062   4.572   0.203   3.654
 3678SOL    HW211063   4.432   0.283   3.676
 3679SOL     OW11064   4.612   1.514   3.057
 3679SOL    HW111065   4.589   1.489   2.963
 3679SOL    HW211066   4.673   1.445   3.096
 3680SOL     OW11067   5.075   0.590   3.295
 3680SOL    HW111068   5.103   0.547   3.380
 3680SOL    HW211069   5.100   0.686   3.296
 3681SOL     OW11070   4.527   1.402   2.786
 3681SOL    HW111071   4.617   1.416   2.744
 3681SOL    HW211072   4.456   1.404   2.715
 3682SOL     OW11073   4.646   0.503   2.761
 3682SOL    HW111074   4.621   0.494   2.665
 3682SOL    HW211075   4.694   0.421   2.792
 3683SOL     OW11076   4.263   0.064   2.374
 3683SOL    HW111077   4.182   0.065   2.432
 3683SOL    HW211078   4.266   0.147   2.319
 3684SOL     OW11079   5.158   1.188   1.903
 3684SOL    HW111080   5.190   1.112   1.960
 3684SOL    HW211081   5.066   1.215   1.933
 3685SOL     OW11082   4.021   0.035   2.033
 3685SOL    HW111083   4.070   0.119   2.012
 3685SOL    HW211084   4.083  -0.030   2.078
 3686SOL     OW11085   4.659   0.236   2.342
 3686SOL    HW111086   4.611   0.277   2.264
 3686SOL    HW211087   4.758   0.234   2.323
 3687SOL     OW11088   4.800   0.683   3.326
 3687SOL    HW111089   4.720   0.622   3.329
 3687SOL    HW211090   4.881   0.630   3.302
 3688SOL     OW11091   4.951   1.570   2.655
 3688SOL    HW111092   4.972   1.644   2.590
 3688SOL    HW211093   5.019   1.570   2.728
 3689SOL     OW11094   4.183   1.152   2.603
 3689SOL    HW111095   4.112   1.125   2.668
 3689SOL    HW211096   4.157   1.124   2.510
 3690SOL     OW11097   4.995   1.797   2.453
 3690SOL    HW111098   5.039   1.861   2.389
 3690SOL    HW211099   4.945   1.849   2.523
 3691SOL     OW11100   4.756   0.549   1.878
 3691SOL    HW111101   4.715   0.631   1.839
 3691SOL    HW211102   4.820   0.575   1.951
 3692SOL     OW11103   3.802   0.556   3.248
 3692SOL    HW111104   3.894   0.555   3.207
 3692SOL    HW211105   3.796   0.630   3.315
 3693SOL     OW11106   4.285   0.222   3.009
 3693SOL    HW111107   4.323   0.138   3.046
 3693SOL    HW211108   4.197   0.241   3.053
 3694SOL     OW11109   4.590   0.454   2.504
 3694SOL    HW111110   4.558   0.526   2.442
 3694SOL    HW211111   4.614   0.373   2.451
 3695SOL     OW11112   4.741   0.039   2.615
 3695SOL    HW111113   4.669   0.044   2.546
 3695SOL    HW211114   4.717  -0.030   2.684
 3696SOL     OW11115   5.153   1.173   2.729
 3696SOL    HW111116   5.098   1.089   2.722
 3696SOL    HW211117   5.179   1.202   2.637
 3697SOL     OW11118   4.212   1.385   2.036
 3697SOL    HW111119   4.125   1.370   2.083
 3697SOL    HW211120   4.195   1.411   1.941
 3698SOL     OW11121   5.114   0.575   1.940
 3698SOL    HW111122   5.060   0.554   2.021
 3698SOL    HW211123   5.205   0.534   1.949
 3699SOL     OW11124   4.251   0.256   2.190
 3699SOL    HW111125   4.278   0.197   2.115
 3699SOL    HW211126   4.251   0.351   2.159
 3700SOL     OW11127   4.788   1.347   3.202
 3700SOL    HW111128   4.708   1.324   3.257
 3700SOL    HW211129   4.871   1.321   3.251
 3701SOL     OW11130   5.316   1.629   3.487
 3701SOL    HW111131   5.343   1.663   3.397
 3701SOL    HW211132   5.395   1.591   3.533
 3702SOL     OW11133   4.835   1.195   2.962
 3702SOL    HW111134   4.795   1.239   3.043
 3702SOL    HW211135   4.794   1.232   2.879
 3703SOL     OW11136   4.639   0.089   3.264
 3703SOL    HW111137   4.664   0.069   3.169
 3703SOL    HW211138   4.711   0.145   3.306
 3704SOL     OW11139   4.704   1.116   3.581
 3704SOL    HW111140   4.605   1.122   3.591
 3704SOL    HW211141   4.727   1.036   3.525
 3705SOL     OW11142   4.429   1.050   2.230
 3705SOL    HW111143   4.415   1.057   2.329
 3705SOL    HW211144   4.513   0.999   2.212
 3706SOL     OW11145   4.134   0.813   3.113
 3706SOL    HW111146   4.220   0.825   3.163
 3706SOL    HW211147   4.092   0.726   3.140
 3707SOL     OW11148   4.998   0.386   3.124
 3707SOL    HW111149   5.019   0.460   3.188
 3707SOL    HW211150   4.909   0.403   3.081
 3708SOL     OW11151   3.788   1.564   3.193
 3708SOL    HW111152   3.742   1.646   3.159
 3708SOL    HW211153   3.886   1.583   3.202
 3709SOL     OW11154   4.091   1.100   2.363
 3709SOL    HW111155   4.084   1.183   2.307
 3709SOL    HW211156   4.095   1.020   2.303
 3710SOL     OW11157   4.290   0.537   2.727
 3710SOL    HW111158   4.302   0.603   2.653
 3710SOL    HW211159   4.336   0.571   2.810
 3711SOL     OW11160   4.976   1.348   2.250
 3711SOL    HW111161   5.026   1.425   2.290
 3711SOL    HW211162   4.881   1.350   2.282
 3712SOL     OW11163   4.996   1.445   3.004
 3712SOL    HW111164   5.043   1.458   3.091
 3712SOL    HW211165   4.930   1.371   3.013
 3713SOL     OW11166   4.078   1.510   3.191
 3713SOL    HW111167   4.057   1.466   3.104
 3713SOL    HW211168   4.175   1.536   3.194
 3714SOL     OW11169   4.126   0.751   3.460
 3714SOL    HW111170   4.194   0.806   3.413
 3714SOL    HW211171   4.166   0.663   3.487
 3715SOL     OW11172   4.737   0.105   3.632
 3715SOL    HW111173   4.743   0.190   3.580
 3715SOL    HW211174   4.769   0.029   3.575
 3716SOL     OW11175   4.228   0.050   3.602
 3716SOL    HW111176   4.186  -0.007   3.532
 3716SOL    HW211177   4.162   0.119   3.634
 3717SOL     OW11178   4.297   0.870   2.891
 3717SOL    HW111179   4.341   0.959   2.882
 3717SOL    HW211180   4.234   0.870   2.968
 3718SOL     OW11181   5.084   0.862   2.907
 3718SOL    HW111182   5.009   0.862   2.841
 3718SOL    HW211183   5.121   0.770   2.916
 3719SOL     OW11184   4.933   0.525   2.137
 3719SOL    HW111185   4.946   0.441   2.191
 3719SOL    HW211186   4.904   0.599   2.197
 3720SOL     OW11187   4.031   0.213   3.093
 3720SOL    HW111188   4.008   0.250   3.183
 3720SOL    HW211189   4.001   0.118   3.087
 3721SOL     OW11190   3.761   1.310   3.144
 3721SOL    HW111191   3.814   1.261   3.212
 3721SOL    HW211192   3.783   1.408   3.149
 3722SOL     OW11193   4.456   0.634   2.926
 3722SOL    HW111194   4.515   0.608   2.850
 3722SOL    HW211195   4.428   0.730   2.915
 3723SOL     OW11196   4.031   0.063   2.480
 3723SOL    HW111197   4.020   0.157   2.513
 3723SOL    HW211198   4.026   0.000   2.557
 3724SOL     OW11199   5.346   0.367   2.236
 3724SOL    HW111200   5.348   0.291   2.300
 3724SOL    HW211201   5.298   0.444   2.276
 3725SOL     OW11202   4.747   0.766   2.828
 3725SOL    HW111203   4.762   0.787   2.924
 3725SOL    HW211204   4.717   0.671   2.819
 3726SOL     OW11205   4.704   1.573   3.562
 3726SOL    HW111206   4.684   1.617   3.474
 3726SOL    HW211207   4.743   1.482   3.546
 3727SOL     OW11208   4.074   0.898   3.666
 3727SOL    HW111209   4.150   0.942   3.714
 3727SOL    HW211210   4.109   0.851   3.584
 3728SOL     OW11211   5.027   0.838   1.904
 3728SOL    HW111212   5.061   0.745   1.919
 3728SOL    HW211213   5.045   0.865   1.809
 3729SOL     OW11214   4.792   1.333   2.711
 3729SOL    HW111215   4.799   1.249   2.656
 3729SOL    HW211216   4.854   1.402   2.675
 3730SOL     OW11217   4.043   0.810   2.811
 3730SOL    HW111218   4.136   0.846   2.816
 3730SOL    HW211219   4.037   0.725   2.863
 3731SOL     OW11220   4.063   0.509   2.868
 3731SOL    HW111221   4.011   0.426   2.851
 3731SOL    HW211222   4.140   0.514   2.804
 3732SOL     OW11223   4.862   0.380   3.540
 3732SOL    HW111224   4.817   0.443   3.604
 3732SOL    HW211225   4.955   0.411   3.523
 3733SOL     OW11226   4.884   0.207   3.339
 3733SOL    HW111227   4.884   0.271   3.416
 3733SOL    HW211228   4.912   0.255   3.256
 3734SOL     OW11229   3.732   1.326   2.062
 3734SOL    HW111230   3.639   1.347   2.031
 3734SOL    HW211231   3.742   1.227   2.075
 3735SOL     OW11232   3.812   1.801   2.789
 3735SOL    HW111233   3.770   1.715   2.762
 3735SOL    HW211234   3.906   1.804   2.755
 3736SOL     OW11235   4.228   1.568   2.772
 3736SOL    HW111236   4.294   1.642   2.781
 3736SOL    HW211237   4.272   1.489   2.730
 3737SOL     OW11238   4.726   0.796   3.100
 3737SOL    HW111239   4.767   0.764   3.186
 3737SOL    HW211240   4.630   0.769   3.097
 3738SOL     OW11241   3.764   0.544   2.976
 3738SOL    HW111242   3.849   0.511   2.935
 3738SOL    HW211243   3.777   0.559   3.074
 3739SOL     OW11244   3.913   0.520   3.584
 3739SOL    HW111245   3.972   0.480   3.514
 3739SOL    HW211246   3.855   0.591   3.543
 3740SOL     OW11247   5.093   0.950   3.522
 3740SOL    HW111248   5.132   1.039   3.542
 3740SOL    HW211249   5.103   0.930   3.425
 3741SOL     OW11250   4.539   0.572   2.187
 3741SOL    HW111251   4.546   0.483   2.141
 3741SOL    HW211252   4.445   0.606   2.179
 3742SOL     OW11253   3.976   1.564   3.606
 3742SOL    HW111254   3.946   1.621   3.682
 3742SOL    HW211255   3.969   1.467   3.632
 3743SOL     OW11256   4.395   0.464   3.131
 3743SOL    HW111257   4.361   0.375   3.101
 3743SOL    HW211258   4.421   0.518   3.051
 3744SOL     OW11259   4.654   1.678   3.327
 3744SOL    HW111260   4.630   1.660   3.232
 3744SOL    HW211261   4.684   1.772   3.337
 3745SOL     OW11262   4.197   0.500   2.053
 3745SOL    HW111263   4.258   0.580   2.057
 3745SOL    HW211264   4.102   0.531   2.060
 3746SOL     OW11265   3.883   1.137   3.328
 3746SOL    HW111266   3.905   1.076   3.404
 3746SOL    HW211267   3.893   1.088   3.242
 3747SOL     OW11268   5.071   1.059   3.096
 3747SOL    HW111269   5.095   0.996   3.022
 3747SOL    HW211270   4.981   1.099   3.078
 3748SOL     OW11271   5.026   0.855   2.171
 3748SOL    HW111272   4.940   0.824   2.213
 3748SOL    HW211273   5.022   0.841   2.072
 3749SOL     OW11274   4.976   1.731   2.990
 3749SOL    HW111275   5.060   1.736   2.936
 3749SOL    HW211276   4.953   1.635   3.008
 3750SOL     OW11277   3.807   1.258   2.884
 3750SOL    HW111278   3.802   1.257   2.984
 3750SOL    HW211279   3.724   1.217   2.846
 3751SOL     OW11280   4.412   1.662   3.578
 3751SOL    HW111281   4.356   1.743   3.587
 3751SOL    HW211282   4.464   1.666   3.492
 3752SOL     OW11283   5.450   0.135   2.385
 3752SOL    HW111284   5.523   0.118   2.318
 3752SOL    HW211285   5.419   0.048   2.423
 3753SOL     OW11286   5.112   1.573   2.339
 3753SOL    HW111287   5.179   1.585   2.265
 3753SOL    HW211288   5.072   1.662   2.362
 3754SOL     OW11289   3.854   1.794   3.713
 3754SOL    HW111290   3.813   1.720   3.766
 3754SOL    HW211291   3.918   1.845   3.771
 3755SOL     OW11292   5.004   0.927   2.534
 3755SOL    HW111293   5.064   0.846   2.536
 3755SOL    HW211294   5.044   0.996   2.474
 3756SOL     OW11295   4.554   1.273   3.284
 3756SOL    HW111296   4.549   1.306   3.379
 3756SOL    HW211297   4.468   1.292   3.238
 3757SOL     OW11298   4.396   1.616   2.016
 3757SOL    HW111299   4.405   1.626   1.917
 3757SOL    HW211300   4.356   1.527   2.037
 3758SOL     OW11301   3.987   0.326   2.582
 3758SOL    HW111302   3.908   0.377   2.548
 3758SOL    HW211303   3.978   0.311   2.680
 3759SOL     OW11304   4.918   1.612   1.893
 3759SOL    HW111305   4.924   1.519   1.930
 3759SOL    HW211306   4.859   1.612   1.813
 3760SOL     OW11307   4.546   1.002   3.234
 3760SOL    HW111308   4.586   1.001   3.142
 3760SOL    HW211309   4.556   1.094   3.274
 3761SOL     OW11310   4.640   0.910   2.153
 3761SOL    HW111311   4.703   0.948   2.085
 3761SOL    HW211312   4.680   0.827   2.192
 3762SOL     OW11313   4.096   1.288   3.352
 3762SOL    HW111314   4.083   1.381   3.318
 3762SOL    HW211315   4.012   1.236   3.339
 3763SOL     OW11316   4.763   1.098   2.558
 3763SOL    HW111317   4.693   1.051   2.612
 3763SOL    HW211318   4.822   1.030   2.515
 3764SOL     OW11319   4.738   0.236   2.833
 3764SOL    HW111320   4.730   0.200   2.740
 3764SOL    HW211321   4.736   0.160   2.898
 3765SOL     OW11322   4.314   1.487   2.353
 3765SOL    HW111323   4.356   1.429   2.283
 3765SOL    HW211324   4.270   1.566   2.309
 3766SOL     OW11325   3.979   1.348   2.152
 3766SOL    HW111326   3.883   1.349   2.125
 3766SOL    HW211327   3.991   1.401   2.236
 3767SOL     OW11328   3.829   1.013   3.588
 3767SOL    HW111329   3.752   0.980   3.642
 3767SOL    HW211330   3.914   0.983   3.630
 3768SOL     OW11331   4.396   0.203   3.351
 3768SOL    HW111332   4.486   0.187   3.311
 3768SOL    HW211333   4.404   0.208   3.450
 3769SOL     OW11334   3.799   0.345   1.895
 3769SOL    HW111335   3.707   0.317   1.866
 3769SOL    HW211336   3.830   0.422   1.839
 3770SOL     OW11337   5.164   0.856   3.260
 3770SOL    HW111338   5.107   0.908   3.197
 3770SOL    HW211339   5.260   0.868   3.236
 3771SOL     OW11340   3.796   0.166   2.180
 3771SOL    HW111341   3.779   0.249   2.126
 3771SOL    HW211342   3.886   0.129   2.158
 3772SOL     OW11343   4.907   1.335   1.981
 3772SOL    HW111344   4.808   1.324   1.983
 3772SOL    HW211345   4.941   1.350   2.074
 3773SOL     OW11346   4.337   0.842   3.293
 3773SOL    HW111347   4.393   0.923   3.276
 3773SOL    HW211348   4.396   0.762   3.296
 3774SOL     OW11349   5.217   1.767   2.821
 3774SOL    HW111350   5.250   1.831   2.752
 3774SOL    HW211351   5.283   1.761   2.896
 3775SOL     OW11352   4.440   0.565   3.570
 3775SOL    HW111353   4.459   0.630   3.644
 3775SOL    HW211354   4.500   0.485   3.579
 3776SOL     OW11355   5.174   1.220   3.495
 3776SOL    HW111356   5.165   1.210   3.594
 3776SOL    HW211357   5.270   1.213   3.469
 3777SOL     OW11358   4.114   1.741   3.422
 3777SOL    HW111359   4.023   1.782   3.420
 3777SOL    HW211360   4.107   1.647   3.454
 3778SOL     OW11361   4.949   0.325   2.311
 3778SOL    HW111362   5.014   0.251   2.300
 3778SOL    HW211363   4.969   0.375   2.395
 3779SOL     OW11364   4.318   0.745   2.514
 3779SOL    HW111365   4.368   0.830   2.495
 3779SOL    HW211366   4.230   0.747   2.466
 3780SOL     OW11367   4.583   1.374   1.878
 3780SOL    HW111368   4.537   1.389   1.966
 3780SOL    HW211369   4.627   1.459   1.848
 3781SOL     OW11370   4.385   1.790   2.815
 3781SOL    HW111371   4.339   1.878   2.802
 3781SOL    HW211372   4.484   1.802   2.808
 3782SOL     OW11373   4.583   0.956   2.723
 3782SOL    HW111374   4.637   0.887   2.771
 3782SOL    HW211375   4.551   1.025   2.789
 3783SOL     OW11376   4.807   0.984   1.949
 3783SOL    HW111377   4.784   1.037   1.867
 3783SOL    HW211378   4.888   0.928   1.930
 3784SOL     OW11379   3.945   1.314   3.706
 3784SOL    HW111380   3.880   1.241   3.685
 3784SOL    HW211381   3.949   1.328   3.804
 3785SOL     OW11382   3.803   1.240   2.515
 3785SOL    HW111383   3.802   1.193   2.603
 3785SOL    HW211384   3.885   1.212   2.464
 3786SOL     OW11385   4.396   1.391   3.486
 3786SOL    HW111386   4.318   1.341   3.524
 3786SOL    HW211387   4.393   1.486   3.517
 3787SOL     OW11388   4.152   0.424   2.382
 3787SOL    HW111389   4.182   0.352   2.320
 3787SOL    HW211390   4.113   0.384   2.465
 3788SOL     OW11391   4.041   0.547   3.142
 3788SOL    HW111392   4.079   0.488   3.214
 3788SOL    HW211393   4.081   0.521   3.054
 3789SOL     OW11394   4.536   1.586   2.549
 3789SOL    HW111395   4.568   1.596   2.455
 3789SOL    HW211396   4.457   1.524   2.551
 3790SOL     OW11397   5.148   0.214   2.974
 3790SOL    HW111398   5.200   0.149   3.029
 3790SOL    HW211399   5.099   0.277   3.035
 3791SOL     OW11400   4.725   0.034   3.016
 3791SOL    HW111401   4.662  -0.038   2.985
 3791SOL    HW211402   4.818  -0.002   3.016
 3792SOL     OW11403   4.494   1.330   2.163
 3792SOL    HW111404   4.448   1.243   2.180
 3792SOL    HW211405   4.585   1.327   2.204
 3793SOL     OW11406   4.342   1.567   3.146
 3793SOL    HW111407   4.337   1.649   3.203
 3793SOL    HW211408   4.431   1.564   3.101
 3794SOL     OW11409   5.076   0.052   2.030
 3794SOL    HW111410   5.111   0.011   1.946
 3794SOL    HW211411   4.986   0.014   2.050
 3795SOL     OW11412   5.024   0.453   2.553
 3795SOL    HW111413   4.965   0.533   2.557
 3795SOL    HW211414   5.039   0.418   2.646
 3796SOL     OW11415   5.317   0.221   2.744
 3796SOL    HW111416   5.233   0.220   2.798
 3796SOL    HW211417   5.319   0.304   2.688
 3797SOL     OW11418   3.763   1.077   2.162
 3797SOL    HW111419   3.862   1.066   2.153
 3797SOL    HW211420   3.723   0.991   2.194
 3798SOL     OW11421   4.599   1.646   2.199
 3798SOL    HW111422   4.522   1.611   2.145
 3798SOL    HW211423   4.567   1.717   2.261
 3799SOL     OW11424   3.954   0.628   3.837
 3799SOL    HW111425   3.861   0.626   3.874
 3799SOL    HW211426   3.955   0.589   3.745
 3800SOL     OW11427   3.949   0.275   4.720
 3800SOL    HW111428   3.984   0.258   4.812
 3800SOL    HW211429   3.861   0.230   4.708
 3801SOL     OW11430   3.743   0.368   4.371
 3801SOL    HW111431   3.661   0.411   4.410
 3801SOL    HW211432   3.715   0.295   4.308
 3802SOL     OW11433   4.293   1.275   4.889
 3802SOL    HW111434   4.200   1.268   4.852
 3802SOL    HW211435   4.304   1.364   4.933
 3803SOL     OW11436   5.279   1.511   4.427
 3803SOL    HW111437   5.222   1.495   4.508
 3803SOL    HW211438   5.220   1.521   4.347
 3804SOL     OW11439   4.859   0.703   4.441
 3804SOL    HW111440   4.916   0.781   4.416
 3804SOL    HW211441   4.799   0.729   4.517
 3805SOL     OW11442   4.492   1.144   4.747
 3805SOL    HW111443   4.414   1.161   4.807
 3805SOL    HW211444   4.526   1.231   4.711
 3806SOL     OW11445   4.409   1.012   4.389
 3806SOL    HW111446   4.478   0.996   4.459
 3806SOL    HW211447   4.336   1.069   4.427
 3807SOL     OW11448   4.059   1.435   4.785
 3807SOL    HW111449   3.981   1.404   4.732
 3807SOL    HW211450   4.117   1.493   4.728
 3808SOL     OW11451   5.184   1.505   5.063
 3808SOL    HW111452   5.208   1.599   5.089
 3808SOL    HW211453   5.168   1.451   5.145
 3809SOL     OW11454   4.162   0.392   5.223
 3809SOL    HW111455   4.244   0.336   5.232
 3809SOL    HW211456   4.081   0.334   5.227
 3810SOL     OW11457   3.955   1.713   4.207
 3810SOL    HW111458   3.989   1.790   4.261
 3810SOL    HW211459   3.999   1.713   4.117
 3811SOL     OW11460   3.954   1.434   4.262
 3811SOL    HW111461   3.928   1.530   4.262
 3811SOL    HW211462   3.883   1.380   4.307
 3812SOL     OW11463   3.964   1.091   4.610
 3812SOL    HW111464   3.978   1.007   4.662
 3812SOL    HW211465   3.909   1.155   4.665
 3813SOL     OW11466   4.344   1.786   5.163
 3813SOL    HW111467   4.252   1.769   5.198
 3813SOL    HW211468   4.372   1.878   5.189
 3814SOL     OW11469   4.330   0.964   3.847
 3814SOL    HW111470   4.337   1.048   3.793
 3814SOL    HW211471   4.376   0.977   3.935
 3815SOL     OW11472   5.318   0.114   5.204
 3815SOL    HW111473   5.300   0.181   5.132
 3815SOL    HW211474   5.315   0.160   5.293
 3816SOL     OW11475   3.846   0.643   4.287
 3816SOL    HW111476   3.801   0.555   4.304
 3816SOL    HW211477   3.845   0.697   4.371
 3817SOL     OW11478   3.751   1.596   3.841
 3817SOL    HW111479   3.732   1.500   3.862
 3817SOL    HW211480   3.718   1.654   3.916
 3818SOL     OW11481   5.413   0.922   4.336
 3818SOL    HW111482   5.508   0.893   4.344
 3818SOL    HW211483   5.405   0.987   4.261
 3819SOL     OW11484   4.337   1.365   4.450
 3819SOL    HW111485   4.288   1.278   4.459
 3819SOL    HW211486   4.314   1.408   4.363
 3820SOL     OW11487   5.017   1.228   5.147
 3820SOL    HW111488   5.054   1.155   5.089
 3820SOL    HW211489   5.069   1.233   5.232
 3821SOL     OW11490   4.533   0.004   4.226
 3821SOL    HW111491   4.573   0.095   4.217
 3821SOL    HW211492   4.433   0.012   4.232
 3822SOL     OW11493   3.921   0.976   4.988
 3822SOL    HW111494   4.010   0.931   4.974
 3822SOL    HW211495   3.848   0.911   4.969
 3823SOL     OW11496   5.190   1.417   4.677
 3823SOL    HW111497   5.131   1.423   4.757
 3823SOL    HW211498   5.175   1.329   4.631
 3824SOL     OW11499   5.391   1.714   4.296
 3824SOL    HW111500   5.350   1.691   4.208
 3824SOL    HW211501   5.373   1.640   4.361
 3825SOL     OW11502   4.322   0.729   3.994
 3825SOL    HW111503   4.346   0.798   3.926
 3825SOL    HW211504   4.244   0.762   4.048
 3826SOL     OW11505   5.005   0.345   4.668
 3826SOL    HW111506   4.919   0.295   4.655
 3826SOL    HW211507   5.067   0.291   4.724
 3827SOL     OW11508   4.531   0.605   5.189
 3827SOL    HW111509   4.484   0.602   5.278
 3827SOL    HW211510   4.480   0.550   5.123
 3828SOL     OW11511   4.697   0.890   5.296
 3828SOL    HW111512   4.743   0.806   5.267
 3828SOL    HW211513   4.641   0.924   5.221
 3829SOL     OW11514   4.715   0.410   4.966
 3829SOL    HW111515   4.638   0.444   5.020
 3829SOL    HW211516   4.681   0.359   4.887
 3830SOL     OW11517   4.765   0.701   4.153
 3830SOL    HW111518   4.791   0.697   4.249
 3830SOL    HW211519   4.680   0.650   4.139
 3831SOL     OW11520   3.800   0.811   4.513
 3831SOL    HW111521   3.899   0.799   4.522
 3831SOL    HW211522   3.776   0.906   4.534
 3832SOL     OW11523   3.854   1.821   5.295
 3832SOL    HW111524   3.844   1.806   5.394
 3832SOL    HW211525   3.768   1.857   5.259
 3833SOL     OW11526   4.589   0.348   3.919
 3833SOL    HW111527   4.648   0.411   3.870
 3833SOL    HW211528   4.608   0.254   3.890
 3834SOL     OW11529   5.086   1.144   4.269
 3834SOL    HW111530   5.169   1.115   4.221
 3834SOL    HW211531   5.037   1.211   4.213
 3835SOL     OW11532   4.274   0.196   4.609
 3835SOL    HW111533   4.269   0.191   4.709
 3835SOL    HW211534   4.276   0.292   4.580
 3836SOL     OW11535   4.732   1.456   4.201
 3836SOL    HW111536   4.686   1.528   4.149
 3836SOL    HW211537   4.728   1.476   4.299
 3837SOL     OW11538   4.075   1.801   4.577
 3837SOL    HW111539   4.125   1.715   4.583
 3837SOL    HW211540   4.140   1.878   4.574
 3838SOL     OW11541   4.045   0.943   3.966
 3838SOL    HW111542   4.127   0.982   3.924
 3838SOL    HW211543   4.018   0.861   3.917
 3839SOL     OW11544   4.835   1.776   3.961
 3839SOL    HW111545   4.775   1.714   4.011
 3839SOL    HW211546   4.866   1.732   3.876
 3840SOL     OW11547   3.926   0.285   5.222
 3840SOL    HW111548   3.846   0.345   5.209
 3840SOL    HW211549   3.916   0.236   5.308
 3841SOL     OW11550   4.188   1.743   4.047
 3841SOL    HW111551   4.221   1.782   4.133
 3841SOL    HW211552   4.264   1.736   3.982
 3842SOL     OW11553   5.124   0.107   4.150
 3842SOL    HW111554   5.100   0.070   4.060
 3842SOL    HW211555   5.223   0.123   4.154
 3843SOL     OW11556   3.973   1.785   4.965
 3843SOL    HW111557   4.030   1.720   5.015
 3843SOL    HW211558   3.957   1.752   4.872
 3844SOL     OW11559   4.664   1.698   4.628
 3844SOL    HW111560   4.744   1.641   4.649
 3844SOL    HW211561   4.615   1.658   4.551
 3845SOL     OW11562   4.106   0.700   4.204
 3845SOL    HW111563   4.151   0.610   4.201
 3845SOL    HW211564   4.012   0.689   4.237
 3846SOL     OW11565   4.338   0.122   3.841
 3846SOL    HW111566   4.436   0.100   3.848
 3846SOL    HW211567   4.307   0.105   3.748
 3847SOL     OW11568   4.612   1.514   4.919
 3847SOL    HW111569   4.589   1.489   4.825
 3847SOL    HW211570   4.673   1.445   4.958
 3848SOL     OW11571   5.075   0.590   5.157
 3848SOL    HW111572   5.103   0.547   5.242
 3848SOL    HW211573   5.100   0.686   5.158
 3849SOL     OW11574   4.527   1.402   4.648
 3849SOL    HW111575   4.617   1.416   4.606
 3849SOL    HW211576   4.456   1.404   4.577
 3850SOL     OW11577   4.646   0.503   4.623
 3850SOL    HW111578   4.621   0.494   4.527
 3850SOL    HW211579   4.694   0.421   4.654
 3851SOL     OW11580   4.263   0.064   4.236
 3851SOL    HW111581   4.182   0.065   4.294
 3851SOL    HW211582   4.266   0.147   4.181
 3852SOL     OW11583   5.158   1.188   3.765
 3852SOL    HW111584   5.190   1.112   3.822
 3852SOL    HW211585   5.066   1.215   3.795
 3853SOL     OW11586   4.021   0.035   3.895
 3853SOL    HW111587   4.070   0.119   3.874
 3853SOL    HW211588   4.083  -0.030   3.940
 3854SOL     OW11589   4.659   0.236   4.204
 3854SOL    HW111590   4.611   0.277   4.126
 3854SOL    HW211591   4.758   0.234   4.185
 3855SOL     OW11592   4.951   1.570   4.517
 3855SOL    HW111593   4.972   1.644   4.452
 3855SOL    HW211594   5.019   1.570   4.590
 3856SOL     OW11595   4.183   1.152   4.465
 3856SOL    HW111596   4.112   1.125   4.530
 3856SOL    HW211597   4.157   1.124   4.372
 3857SOL     OW11598   4.995   1.797   4.315
 3857SOL    HW111599   5.039   1.861   4.251
 3857SOL    HW211600   4.945   1.849   4.385
 3858SOL     OW11601   4.756   0.549   3.740
 3858SOL    HW111602   4.715   0.631   3.701
 3858SOL    HW211603   4.820   0.575   3.813
 3859SOL     OW11604   3.802   0.556   5.110
 3859SOL    HW111605   3.894   0.555   5.069
 3859SOL    HW211606   3.796   0.630   5.177
 3860SOL     OW11607   4.285   0.222   4.871
 3860SOL    HW111608   4.323   0.138   4.908
 3860SOL    HW211609   4.197   0.241   4.915
 3861SOL     OW11610   4.590   0.454   4.366
 3861SOL    HW111611   4.558   0.526   4.304
 3861SOL    HW211612   4.614   0.373   4.313
 3862SOL     OW11613   4.741   0.039   4.477
 3862SOL    HW111614   4.669   0.044   4.408
 3862SOL    HW211615   4.717  -0.030   4.546
 3863SOL     OW11616   5.153   1.173   4.591
 3863SOL    HW111617   5.098   1.089   4.584
 3863SOL    HW211618   5.179   1.202   4.499
 3864SOL     OW11619   4.212   1.385   3.898
 3864SOL    HW111620   4.125   1.370   3.945
 3864SOL    HW211621   4.195   1.411   3.803
 3865SOL     OW11622   5.114   0.575   3.802
 3865SOL    HW111623   5.060   0.554   3.883
 3865SOL    HW211624   5.205   0.534   3.811
 3866SOL     OW11625   4.251   0.256   4.052
 3866SOL    HW111626   4.278   0.197   3.977
 3866SOL    HW211627   4.251   0.351   4.021
 3867SOL     OW11628   4.788   1.347   5.064
 3867SOL    HW111629   4.708   1.324   5.119
 3867SOL    HW211630   4.871   1.321   5.113
 3868SOL     OW11631   4.835   1.195   4.824
 3868SOL    HW111632   4.795   1.239   4.905
 3868SOL    HW211633   4.794   1.232   4.741
 3869SOL     OW11634   4.639   0.089   5.126
 3869SOL    HW111635   4.664   0.069   5.031
 3869SOL    HW211636   4.711   0.145   5.168
 3870SOL     OW11637   4.429   1.050   4.092
 3870SOL    HW111638   4.415   1.057   4.191
 3870SOL    HW211639   4.513   0.999   4.074
 3871SOL     OW11640   4.134   0.813   4.975
 3871SOL    HW111641   4.220   0.825   5.025
 3871SOL    HW211642   4.092   0.726   5.002
 3872SOL     OW11643   4.998   0.386   4.986
 3872SOL    HW111644   5.019   0.460   5.050
 3872SOL    HW211645   4.909   0.403   4.943
 3873SOL     OW11646   3.788   1.564   5.055
 3873SOL    HW111647   3.742   1.646   5.021
 3873SOL    HW211648   3.886   1.583   5.064
 3874SOL     OW11649   4.091   1.100   4.225
 3874SOL    HW111650   4.084   1.183   4.169
 3874SOL    HW211651   4.095   1.020   4.165
 3875SOL     OW11652   4.290   0.537   4.589
 3875SOL    HW111653   4.302   0.603   4.515
 3875SOL    HW211654   4.336   0.571   4.672
 3876SOL     OW11655   4.976   1.348   4.112
 3876SOL    HW111656   5.026   1.425   4.152
 3876SOL    HW211657   4.881   1.350   4.144
 3877SOL     OW11658   4.996   1.445   4.866
 3877SOL    HW111659   5.043   1.458   4.953
 3877SOL    HW211660   4.930   1.371   4.875
 3878SOL     OW11661   4.078   1.510   5.053
 3878SOL    HW111662   4.057   1.466   4.966
 3878SOL    HW211663   4.175   1.536   5.056
 3879SOL     OW11664   4.126   0.751   5.322
 3879SOL    HW111665   4.194   0.806   5.275
 3879SOL    HW211666   4.166   0.663   5.349
 3880SOL     OW11667   5.311   0.779   5.394
 3880SOL    HW111668   5.219   0.817   5.389
 3880SOL    HW211669   5.371   0.826   5.329
 3881SOL     OW11670   4.297   0.870   4.753
 3881SOL    HW111671   4.341   0.959   4.744
 3881SOL    HW211672   4.234   0.870   4.830
 3882SOL     OW11673   5.084   0.862   4.769
 3882SOL    HW111674   5.009   0.862   4.703
 3882SOL    HW211675   5.121   0.770   4.778
 3883SOL     OW11676   4.933   0.525   3.999
 3883SOL    HW111677   4.946   0.441   4.053
 3883SOL    HW211678   4.904   0.599   4.059
 3884SOL     OW11679   4.031   0.213   4.955
 3884SOL    HW111680   4.008   0.250   5.045
 3884SOL    HW211681   4.001   0.118   4.949
 3885SOL     OW11682   3.761   1.310   5.006
 3885SOL    HW111683   3.814   1.261   5.074
 3885SOL    HW211684   3.783   1.408   5.011
 3886SOL     OW11685   4.456   0.634   4.788
 3886SOL    HW111686   4.515   0.608   4.712
 3886SOL    HW211687   4.428   0.730   4.777
 3887SOL     OW11688   4.031   0.063   4.342
 3887SOL    HW111689   4.020   0.157   4.375
 3887SOL    HW211690   4.026   0.000   4.419
 3888SOL     OW11691   5.346   0.367   4.098
 3888SOL    HW111692   5.348   0.291   4.162
 3888SOL    HW211693   5.298   0.444   4.138
 3889SOL     OW11694   4.747   0.766   4.690
 3889SOL    HW111695   4.762   0.787   4.786
 3889SOL    HW211696   4.717   0.671   4.681
 3890SOL     OW11697   4.704   1.573   5.424
 3890SOL    HW111698   4.684   1.617   5.336
 3890SOL    HW211699   4.743   1.482   5.408
 3891SOL     OW11700   5.027   0.838   3.766
 3891SOL    HW111701   5.061   0.745   3.781
 3891SOL    HW211702   5.045   0.865   3.671
 3892SOL     OW11703   4.792   1.333   4.573
 3892SOL    HW111704   4.799   1.249   4.518
 3892SOL    HW211705   4.854   1.402   4.537
 3893SOL     OW11706   4.043   0.810   4.673
 3893SOL    HW111707   4.136   0.846   4.678
 3893SOL    HW211708   4.037   0.725   4.725
 3894SOL     OW11709   4.063   0.509   4.730
 3894SOL    HW111710   4.011   0.426   4.713
 3894SOL    HW211711   4.140   0.514   4.666
 3895SOL     OW11712   4.862   0.380   5.402
 3895SOL    HW111713   4.817   0.443   5.466
 3895SOL    HW211714   4.955   0.411   5.385
 3896SOL     OW11715   4.884   0.207   5.201
 3896SOL    HW111716   4.884   0.271   5.278
 3896SOL    HW211717   4.912   0.255   5.118
 3897SOL     OW11718   3.732   1.326   3.924
 3897SOL    HW111719   3.639   1.347   3.893
 3897SOL    HW211720   3.742   1.227   3.937
 3898SOL     OW11721   3.812   1.801   4.651
 3898SOL    HW111722   3.770   1.715   4.624
 3898SOL    HW211723   3.906   1.804   4.617
 3899SOL     OW11724   4.228   1.568   4.634
 3899SOL    HW111725   4.294   1.642   4.643
 3899SOL    HW211726   4.272   1.489   4.592
 3900SOL     OW11727   4.726   0.796   4.962
 3900SOL    HW111728   4.767   0.764   5.048
 3900SOL    HW211729   4.630   0.769   4.959
 3901SOL     OW11730   3.764   0.544   4.838
 3901SOL    HW111731   3.849   0.511   4.797
 3901SOL    HW211732   3.777   0.559   4.936
 3902SOL     OW11733   4.539   0.572   4.049
 3902SOL    HW111734   4.546   0.483   4.003
 3902SOL    HW211735   4.445   0.606   4.041
 3903SOL     OW11736   3.976   1.564   5.468
 3903SOL    HW111737   3.946   1.621   5.544
 3903SOL    HW211738   3.969   1.467   5.494
 3904SOL     OW11739   4.395   0.464   4.993
 3904SOL    HW111740   4.361   0.375   4.963
 3904SOL    HW211741   4.421   0.518   4.913
 3905SOL     OW11742   4.654   1.678   5.189
 3905SOL    HW111743   4.630   1.660   5.094
 3905SOL    HW211744   4.684   1.772   5.199
 3906SOL     OW11745   4.197   0.500   3.915
 3906SOL    HW111746   4.258   0.580   3.919
 3906SOL    HW211747   4.102   0.531   3.922
 3907SOL     OW11748   3.883   1.137   5.190
 3907SOL    HW111749   3.905   1.076   5.266
 3907SOL    HW211750   3.893   1.088   5.104
 3908SOL     OW11751   5.071   1.059   4.958
 3908SOL    HW111752   5.095   0.996   4.884
 3908SOL    HW211753   4.981   1.099   4.940
 3909SOL     OW11754   5.026   0.855   4.033
 3909SOL    HW111755   4.940   0.824   4.075
 3909SOL    HW211756   5.022   0.841   3.934
 3910SOL     OW11757   4.976   1.731   4.852
 3910SOL    HW111758   5.060   1.736   4.798
 3910SOL    HW211759   4.953   1.635   4.870
 3911SOL     OW11760   3.807   1.258   4.746
 3911SOL    HW111761   3.802   1.257   4.846
 3911SOL    HW211762   3.724   1.217   4.708
 3912SOL     OW11763   5.450   0.135   4.247
 3912SOL    HW111764   5.523   0.118   4.180
 3912SOL    HW211765   5.419   0.048   4.285
 3913SOL     OW11766   5.112   1.573   4.201
 3913SOL    HW111767   5.179   1.585   4.127
 3913SOL    HW211768   5.072   1.662   4.224
 3914SOL     OW11769   5.004   0.927   4.396
 3914SOL    HW111770   5.064   0.846   4.398
 3914SOL    HW211771   5.044   0.996   4.336
 3915SOL     OW11772   4.396   1.616   3.878
 3915SOL    HW111773   4.405   1.626   3.779
 3915SOL    HW211774   4.356   1.527   3.899
 3916SOL     OW11775   3.987   0.326   4.444
 3916SOL    HW111776   3.908   0.377   4.410
 3916SOL    HW211777   3.978   0.311   4.542
 3917SOL     OW11778   4.918   1.612   3.755
 3917SOL    HW111779   4.924   1.519   3.792
 3917SOL    HW211780   4.859   1.612   3.675
 3918SOL     OW11781   4.546   1.002   5.096
 3918SOL    HW111782   4.586   1.001   5.004
 3918SOL    HW211783   4.556   1.094   5.136
 3919SOL     OW11784   4.640   0.910   4.015
 3919SOL    HW111785   4.703   0.948   3.947
 3919SOL    HW211786   4.680   0.827   4.054
 3920SOL     OW11787   4.096   1.288   5.214
 3920SOL    HW111788   4.083   1.381   5.180
 3920SOL    HW211789   4.012   1.236   5.201
 3921SOL     OW11790   4.763   1.098   4.420
 3921SOL    HW111791   4.693   1.051   4.474
 3921SOL    HW211792   4.822   1.030   4.377
 3922SOL     OW11793   4.738   0.236   4.695
 3922SOL    HW111794   4.730   0.200   4.602
 3922SOL    HW211795   4.736   0.160   4.760
 3923SOL     OW11796   4.314   1.487   4.215
 3923SOL    HW111797   4.356   1.429   4.145
 3923SOL    HW211798   4.270   1.566   4.171
 3924SOL     OW11799   3.979   1.348   4.014
 3924SOL    HW111800   3.883   1.349   3.987
 3924SOL    HW211801   3.991   1.401   4.098
 3925SOL     OW11802   4.396   0.203   5.213
 3925SOL    HW111803   4.486   0.187   5.173
 3925SOL    HW211804   4.404   0.208   5.312
 3926SOL     OW11805   3.799   0.345   3.757
 3926SOL    HW111806   3.707   0.317   3.728
 3926SOL    HW211807   3.830   0.422   3.701
 3927SOL     OW11808   5.164   0.856   5.122
 3927SOL    HW111809   5.107   0.908   5.059
 3927SOL    HW211810   5.260   0.868   5.098
 3928SOL     OW11811   3.796   0.166   4.042
 3928SOL    HW111812   3.779   0.249   3.988
 3928SOL    HW211813   3.886   0.129   4.020
 3929SOL     OW11814   4.907   1.335   3.843
 3929SOL    HW111815   4.808   1.324   3.845
 3929SOL    HW211816   4.941   1.350   3.936
 3930SOL     OW11817   4.337   0.842   5.155
 3930SOL    HW111818   4.393   0.923   5.138
 3930SOL    HW211819   4.396   0.762   5.158
 3931SOL     OW11820   5.217   1.767   4.683
 3931SOL    HW111821   5.250   1.831   4.614
 3931SOL    HW211822   5.283   1.761   4.758
 3932SOL     OW11823   4.114   1.741   5.284
 3932SOL    HW111824   4.023   1.782   5.282
 3932SOL    HW211825   4.107   1.647   5.316
 3933SOL     OW11826   4.949   0.325   4.173
 3933SOL    HW111827   5.014   0.251   4.162
 3933SOL    HW211828   4.969   0.375   4.257
 3934SOL     OW11829   4.318   0.745   4.376
 3934SOL    HW111830   4.368   0.830   4.357
 3934SOL    HW211831   4.230   0.747   4.328
 3935SOL     OW11832   4.583   1.374   3.740
 3935SOL    HW111833   4.537   1.389   3.828
 3935SOL    HW211834   4.627   1.459   3.710
 3936SOL     OW11835   4.385   1.790   4.677
 3936SOL    HW111836   4.339   1.878   4.664
 3936SOL    HW211837   4.484   1.802   4.670
 3937SOL     OW11838   4.583   0.956   4.585
 3937SOL    HW111839   4.637   0.887   4.633
 3937SOL    HW211840   4.551   1.025   4.651
 3938SOL     OW11841   4.807   0.984   3.811
 3938SOL    HW111842   4.784   1.037   3.729
 3938SOL    HW211843   4.888   0.928   3.792
 3939SOL     OW11844   3.803   1.240   4.377
 3939SOL    HW111845   3.802   1.193   4.465
 3939SOL    HW211846   3.885   1.212   4.326
 3940SOL     OW11847   4.152   0.424   4.244
 3940SOL    HW111848   4.182   0.352   4.182
 3940SOL    HW211849   4.113   0.384   4.327
 3941SOL     OW11850   4.041   0.547   5.004
 3941SOL    HW111851   4.079   0.488   5.076
 3941SOL    HW211852   4.081   0.521   4.916
 3942SOL     OW11853   4.536   1.586   4.411
 3942SOL    HW111854   4.568   1.596   4.317
 3942SOL    HW211855   4.457   1.524   4.413
 3943SOL     OW11856   5.148   0.214   4.836
 3943SOL    HW111857   5.200   0.149   4.891
 3943SOL    HW211858   5.099   0.277   4.897
 3944SOL     OW11859   4.725   0.034   4.878
 3944SOL    HW111860   4.662  -0.038   4.847
 3944SOL    HW211861   4.818  -0.002   4.878
 3945SOL     OW11862   4.494   1.330   4.025
 3945SOL    HW111863   4.448   1.243   4.042
 3945SOL    HW211864   4.585   1.327   4.066
 3946SOL     OW11865   4.342   1.567   5.008
 3946SOL    HW111866   4.337   1.649   5.065
 3946SOL    HW211867   4.431   1.564   4.963
 3947SOL     OW11868   5.076   0.052   3.892
 3947SOL    HW111869   5.111   0.011   3.808
 3947SOL    HW211870   4.986   0.014   3.912
 3948SOL     OW11871   5.024   0.453   4.415
 3948SOL    HW111872   4.965   0.533   4.419
 3948SOL    HW211873   5.039   0.418   4.508
 3949SOL     OW11874   5.317   0.221   4.606
 3949SOL    HW111875   5.233   0.220   4.660
 3949SOL    HW211876   5.319   0.304   4.550
 3950SOL     OW11877   3.763   1.077   4.024
 3950SOL    HW111878   3.862   1.066   4.015
 3950SOL    HW211879   3.723   0.991   4.056
 3951SOL     OW11880   4.599   1.646   4.061
 3951SOL    HW111881   4.522   1.611   4.007
 3951SOL    HW211882   4.567   1.717   4.123
 3952SOL     OW11883   3.954   2.490   0.113
 3952SOL    HW111884   3.861   2.488   0.150
 3952SOL    HW211885   3.955   2.451   0.021
 3953SOL     OW11886   3.949   2.137   0.996
 3953SOL    HW111887   3.984   2.120   1.088
 3953SOL    HW211888   3.861   2.092   0.984
 3954SOL     OW11889   3.743   2.230   0.647
 3954SOL    HW111890   3.661   2.273   0.686
 3954SOL    HW211891   3.715   2.157   0.584
 3955SOL     OW11892   4.293   3.137   1.165
 3955SOL    HW111893   4.200   3.130   1.128
 3955SOL    HW211894   4.304   3.226   1.209
 3956SOL     OW11895   5.279   3.373   0.703
 3956SOL    HW111896   5.222   3.357   0.784
 3956SOL    HW211897   5.220   3.383   0.623
 3957SOL     OW11898   4.859   2.565   0.717
 3957SOL    HW111899   4.916   2.643   0.692
 3957SOL    HW211900   4.799   2.591   0.793
 3958SOL     OW11901   4.492   3.006   1.023
 3958SOL    HW111902   4.414   3.023   1.083
 3958SOL    HW211903   4.526   3.093   0.987
 3959SOL     OW11904   4.574   2.660   1.823
 3959SOL    HW111905   4.570   2.736   1.888
 3959SOL    HW211906   4.596   2.696   1.732
 3960SOL     OW11907   4.409   2.874   0.665
 3960SOL    HW111908   4.478   2.858   0.735
 3960SOL    HW211909   4.336   2.931   0.703
 3961SOL     OW11910   4.410   3.023   1.803
 3961SOL    HW111911   4.470   3.102   1.817
 3961SOL    HW211912   4.324   3.054   1.762
 3962SOL     OW11913   4.059   3.297   1.061
 3962SOL    HW111914   3.981   3.266   1.008
 3962SOL    HW211915   4.117   3.355   1.004
 3963SOL     OW11916   5.184   3.367   1.339
 3963SOL    HW111917   5.208   3.461   1.365
 3963SOL    HW211918   5.168   3.313   1.421
 3964SOL     OW11919   4.162   2.254   1.499
 3964SOL    HW111920   4.244   2.198   1.508
 3964SOL    HW211921   4.081   2.196   1.503
 3965SOL     OW11922   3.955   3.575   0.483
 3965SOL    HW111923   3.989   3.652   0.537
 3965SOL    HW211924   3.999   3.575   0.393
 3966SOL     OW11925   4.851   3.203   1.690
 3966SOL    HW111926   4.898   3.203   1.778
 3966SOL    HW211927   4.803   3.116   1.679
 3967SOL     OW11928   3.954   3.296   0.538
 3967SOL    HW111929   3.928   3.392   0.538
 3967SOL    HW211930   3.883   3.242   0.583
 3968SOL     OW11931   3.964   2.953   0.886
 3968SOL    HW111932   3.978   2.869   0.938
 3968SOL    HW211933   3.909   3.017   0.941
 3969SOL     OW11934   4.344   3.648   1.439
 3969SOL    HW111935   4.252   3.631   1.474
 3969SOL    HW211936   4.372   3.740   1.465
 3970SOL     OW11937   4.330   2.826   0.123
 3970SOL    HW111938   4.337   2.910   0.069
 3970SOL    HW211939   4.376   2.839   0.211
 3971SOL     OW11940   3.846   2.505   0.563
 3971SOL    HW111941   3.801   2.417   0.580
 3971SOL    HW211942   3.845   2.559   0.647
 3972SOL     OW11943   3.751   3.458   0.117
 3972SOL    HW111944   3.732   3.362   0.138
 3972SOL    HW211945   3.718   3.516   0.192
 3973SOL     OW11946   5.413   2.784   0.612
 3973SOL    HW111947   5.508   2.755   0.620
 3973SOL    HW211948   5.405   2.849   0.537
 3974SOL     OW11949   3.837   2.599   1.597
 3974SOL    HW111950   3.925   2.586   1.642
 3974SOL    HW211951   3.824   2.696   1.575
 3975SOL     OW11952   4.337   3.227   0.726
 3975SOL    HW111953   4.288   3.140   0.735
 3975SOL    HW211954   4.314   3.270   0.639
 3976SOL     OW11955   5.017   3.090   1.423
 3976SOL    HW111956   5.054   3.017   1.365
 3976SOL    HW211957   5.069   3.095   1.508
 3977SOL     OW11958   4.533   1.866   0.502
 3977SOL    HW111959   4.573   1.957   0.493
 3977SOL    HW211960   4.433   1.874   0.508
 3978SOL     OW11961   3.921   2.838   1.264
 3978SOL    HW111962   4.010   2.793   1.250
 3978SOL    HW211963   3.848   2.773   1.245
 3979SOL     OW11964   4.911   3.654   1.616
 3979SOL    HW111965   4.935   3.714   1.540
 3979SOL    HW211966   4.918   3.559   1.586
 3980SOL     OW11967   4.041   2.113   1.801
 3980SOL    HW111968   4.112   2.184   1.807
 3980SOL    HW211969   3.953   2.152   1.829
 3981SOL     OW11970   5.190   3.279   0.953
 3981SOL    HW111971   5.131   3.285   1.033
 3981SOL    HW211972   5.175   3.191   0.907
 3982SOL     OW11973   5.391   3.576   0.572
 3982SOL    HW111974   5.350   3.553   0.484
 3982SOL    HW211975   5.373   3.502   0.637
 3983SOL     OW11976   4.322   2.591   0.270
 3983SOL    HW111977   4.346   2.660   0.202
 3983SOL    HW211978   4.244   2.624   0.324
 3984SOL     OW11979   5.005   2.207   0.944
 3984SOL    HW111980   4.919   2.157   0.931
 3984SOL    HW211981   5.067   2.153   1.000
 3985SOL     OW11982   4.531   2.467   1.465
 3985SOL    HW111983   4.484   2.464   1.554
 3985SOL    HW211984   4.480   2.412   1.399
 3986SOL     OW11985   5.118   2.331   1.674
 3986SOL    HW111986   5.098   2.374   1.762
 3986SOL    HW211987   5.196   2.269   1.683
 3987SOL     OW11988   4.697   2.752   1.572
 3987SOL    HW111989   4.743   2.668   1.543
 3987SOL    HW211990   4.641   2.786   1.497
 3988SOL     OW11991   4.715   2.272   1.242
 3988SOL    HW111992   4.638   2.306   1.296
 3988SOL    HW211993   4.681   2.221   1.163
 3989SOL     OW11994   4.765   2.563   0.429
 3989SOL    HW111995   4.791   2.559   0.525
 3989SOL    HW211996   4.680   2.512   0.415
 3990SOL     OW11997   3.800   2.673   0.789
 3990SOL    HW111998   3.899   2.661   0.798
 3990SOL    HW211999   3.776   2.768   0.810
 3991SOL     OW12000   3.854   3.683   1.571
 3991SOL    HW112001   3.844   3.668   1.670
 3991SOL    HW212002   3.768   3.719   1.535
 3992SOL     OW12003   4.589   2.210   0.195
 3992SOL    HW112004   4.648   2.273   0.146
 3992SOL    HW212005   4.608   2.116   0.166
 3993SOL     OW12006   5.086   3.006   0.545
 3993SOL    HW112007   5.169   2.977   0.497
 3993SOL    HW212008   5.037   3.073   0.489
 3994SOL     OW12009   4.274   2.058   0.885
 3994SOL    HW112010   4.269   2.053   0.985
 3994SOL    HW212011   4.276   2.154   0.856
 3995SOL     OW12012   4.732   3.318   0.477
 3995SOL    HW112013   4.686   3.390   0.425
 3995SOL    HW212014   4.728   3.338   0.575
 3996SOL     OW12015   4.075   3.663   0.853
 3996SOL    HW112016   4.125   3.577   0.859
 3996SOL    HW212017   4.140   3.740   0.850
 3997SOL     OW12018   4.951   3.412   1.506
 3997SOL    HW112019   4.957   3.335   1.570
 3997SOL    HW212020   4.899   3.386   1.426
 3998SOL     OW12021   4.045   2.805   0.242
 3998SOL    HW112022   4.127   2.844   0.200
 3998SOL    HW212023   4.018   2.723   0.193
 3999SOL     OW12024   4.185   3.128   1.727
 3999SOL    HW112025   4.135   3.129   1.641
 3999SOL    HW212026   4.122   3.110   1.803
 4000SOL     OW12027   4.835   3.638   0.237
 4000SOL    HW112028   4.775   3.576   0.287
 4000SOL    HW212029   4.866   3.594   0.152
 4001SOL     OW12030   3.926   2.147   1.498
 4001SOL    HW112031   3.846   2.207   1.485
 4001SOL    HW212032   3.916   2.098   1.584
 4002SOL     OW12033   4.188   3.605   0.323
 4002SOL    HW112034   4.221   3.644   0.409
 4002SOL    HW212035   4.264   3.598   0.258
 4003SOL     OW12036   5.124   1.969   0.426
 4003SOL    HW112037   5.100   1.932   0.336
 4003SOL    HW212038   5.223   1.985   0.430
 4004SOL     OW12039   3.973   3.647   1.241
 4004SOL    HW112040   4.030   3.582   1.291
 4004SOL    HW212041   3.957   3.614   1.148
 4005SOL     OW12042   4.664   3.560   0.904
 4005SOL    HW112043   4.744   3.503   0.925
 4005SOL    HW212044   4.615   3.520   0.827
 4006SOL     OW12045   4.106   2.562   0.480
 4006SOL    HW112046   4.151   2.472   0.477
 4006SOL    HW212047   4.012   2.551   0.513
 4007SOL     OW12048   4.338   1.984   0.117
 4007SOL    HW112049   4.436   1.962   0.124
 4007SOL    HW212050   4.307   1.967   0.024
 4008SOL     OW12051   4.505   2.126   1.749
 4008SOL    HW112052   4.572   2.065   1.792
 4008SOL    HW212053   4.432   2.145   1.814
 4009SOL     OW12054   4.612   3.376   1.195
 4009SOL    HW112055   4.589   3.351   1.101
 4009SOL    HW212056   4.673   3.307   1.234
 4010SOL     OW12057   5.075   2.452   1.433
 4010SOL    HW112058   5.103   2.409   1.518
 4010SOL    HW212059   5.100   2.548   1.434
 4011SOL     OW12060   4.527   3.264   0.924
 4011SOL    HW112061   4.617   3.278   0.882
 4011SOL    HW212062   4.456   3.266   0.853
 4012SOL     OW12063   4.646   2.365   0.899
 4012SOL    HW112064   4.621   2.356   0.803
 4012SOL    HW212065   4.694   2.283   0.930
 4013SOL     OW12066   4.263   1.926   0.512
 4013SOL    HW112067   4.182   1.927   0.570
 4013SOL    HW212068   4.266   2.009   0.457
 4014SOL     OW12069   5.158   3.050   0.041
 4014SOL    HW112070   5.190   2.974   0.098
 4014SOL    HW212071   5.066   3.077   0.071
 4015SOL     OW12072   4.021   1.897   0.171
 4015SOL    HW112073   4.070   1.981   0.150
 4015SOL    HW212074   4.083   1.832   0.216
 4016SOL     OW12075   4.659   2.098   0.480
 4016SOL    HW112076   4.611   2.139   0.402
 4016SOL    HW212077   4.758   2.096   0.461
 4017SOL     OW12078   4.800   2.545   1.464
 4017SOL    HW112079   4.720   2.484   1.467
 4017SOL    HW212080   4.881   2.492   1.440
 4018SOL     OW12081   4.951   3.432   0.793
 4018SOL    HW112082   4.972   3.506   0.728
 4018SOL    HW212083   5.019   3.432   0.866
 4019SOL     OW12084   4.183   3.014   0.741
 4019SOL    HW112085   4.112   2.987   0.806
 4019SOL    HW212086   4.157   2.986   0.648
 4020SOL     OW12087   4.995   3.659   0.591
 4020SOL    HW112088   5.039   3.723   0.527
 4020SOL    HW212089   4.945   3.711   0.661
 4021SOL     OW12090   4.756   2.411   0.016
 4021SOL    HW112091   4.715   2.493  -0.023
 4021SOL    HW212092   4.820   2.437   0.089
 4022SOL     OW12093   3.802   2.418   1.386
 4022SOL    HW112094   3.894   2.417   1.345
 4022SOL    HW212095   3.796   2.492   1.453
 4023SOL     OW12096   4.285   2.084   1.147
 4023SOL    HW112097   4.323   2.000   1.184
 4023SOL    HW212098   4.197   2.103   1.191
 4024SOL     OW12099   4.590   2.316   0.642
 4024SOL    HW112100   4.558   2.388   0.580
 4024SOL    HW212101   4.614   2.235   0.589
 4025SOL     OW12102   4.741   1.901   0.753
 4025SOL    HW112103   4.669   1.906   0.684
 4025SOL    HW212104   4.717   1.832   0.822
 4026SOL     OW12105   5.153   3.035   0.867
 4026SOL    HW112106   5.098   2.951   0.860
 4026SOL    HW212107   5.179   3.064   0.775
 4027SOL     OW12108   4.212   3.247   0.174
 4027SOL    HW112109   4.125   3.232   0.221
 4027SOL    HW212110   4.195   3.273   0.079
 4028SOL     OW12111   5.114   2.437   0.078
 4028SOL    HW112112   5.060   2.416   0.159
 4028SOL    HW212113   5.205   2.396   0.087
 4029SOL     OW12114   4.251   2.118   0.328
 4029SOL    HW112115   4.278   2.059   0.253
 4029SOL    HW212116   4.251   2.213   0.297
 4030SOL     OW12117   4.788   3.209   1.340
 4030SOL    HW112118   4.708   3.186   1.395
 4030SOL    HW212119   4.871   3.183   1.389
 4031SOL     OW12120   5.316   3.491   1.625
 4031SOL    HW112121   5.343   3.525   1.535
 4031SOL    HW212122   5.395   3.453   1.671
 4032SOL     OW12123   4.835   3.057   1.100
 4032SOL    HW112124   4.795   3.101   1.181
 4032SOL    HW212125   4.794   3.094   1.017
 4033SOL     OW12126   4.639   1.951   1.402
 4033SOL    HW112127   4.664   1.931   1.307
 4033SOL    HW212128   4.711   2.007   1.444
 4034SOL     OW12129   4.704   2.978   1.719
 4034SOL    HW112130   4.605   2.984   1.729
 4034SOL    HW212131   4.727   2.898   1.663
 4035SOL     OW12132   4.429   2.912   0.368
 4035SOL    HW112133   4.415   2.919   0.467
 4035SOL    HW212134   4.513   2.861   0.350
 4036SOL     OW12135   4.134   2.675   1.251
 4036SOL    HW112136   4.220   2.687   1.301
 4036SOL    HW212137   4.092   2.588   1.278
 4037SOL     OW12138   4.998   2.248   1.262
 4037SOL    HW112139   5.019   2.322   1.326
 4037SOL    HW212140   4.909   2.265   1.219
 4038SOL     OW12141   3.788   3.426   1.331
 4038SOL    HW112142   3.742   3.508   1.297
 4038SOL    HW212143   3.886   3.445   1.340
 4039SOL     OW12144   4.091   2.962   0.501
 4039SOL    HW112145   4.084   3.045   0.445
 4039SOL    HW212146   4.095   2.882   0.441
 4040SOL     OW12147   4.290   2.399   0.865
 4040SOL    HW112148   4.302   2.465   0.791
 4040SOL    HW212149   4.336   2.433   0.948
 4041SOL     OW12150   4.976   3.210   0.388
 4041SOL    HW112151   5.026   3.287   0.428
 4041SOL    HW212152   4.881   3.212   0.420
 4042SOL     OW12153   4.996   3.307   1.142
 4042SOL    HW112154   5.043   3.320   1.229
 4042SOL    HW212155   4.930   3.233   1.151
 4043SOL     OW12156   4.078   3.372   1.329
 4043SOL    HW112157   4.057   3.328   1.242
 4043SOL    HW212158   4.175   3.398   1.332
 4044SOL     OW12159   4.126   2.613   1.598
 4044SOL    HW112160   4.194   2.668   1.551
 4044SOL    HW212161   4.166   2.525   1.625
 4045SOL     OW12162   4.737   1.967   1.770
 4045SOL    HW112163   4.743   2.052   1.718
 4045SOL    HW212164   4.769   1.891   1.713
 4046SOL     OW12165   4.228   1.912   1.740
 4046SOL    HW112166   4.186   1.855   1.670
 4046SOL    HW212167   4.162   1.981   1.772
 4047SOL     OW12168   4.297   2.732   1.029
 4047SOL    HW112169   4.341   2.821   1.020
 4047SOL    HW212170   4.234   2.732   1.106
 4048SOL     OW12171   5.084   2.724   1.045
 4048SOL    HW112172   5.009   2.724   0.979
 4048SOL    HW212173   5.121   2.632   1.054
 4049SOL     OW12174   4.933   2.387   0.275
 4049SOL    HW112175   4.946   2.303   0.329
 4049SOL    HW212176   4.904   2.461   0.335
 4050SOL     OW12177   4.031   2.075   1.231
 4050SOL    HW112178   4.008   2.112   1.321
 4050SOL    HW212179   4.001   1.980   1.225
 4051SOL     OW12180   3.761   3.172   1.282
 4051SOL    HW112181   3.814   3.123   1.350
 4051SOL    HW212182   3.783   3.270   1.287
 4052SOL     OW12183   4.456   2.496   1.064
 4052SOL    HW112184   4.515   2.470   0.988
 4052SOL    HW212185   4.428   2.592   1.053
 4053SOL     OW12186   4.031   1.925   0.618
 4053SOL    HW112187   4.020   2.019   0.651
 4053SOL    HW212188   4.026   1.862   0.695
 4054SOL     OW12189   5.346   2.229   0.374
 4054SOL    HW112190   5.348   2.153   0.438
 4054SOL    HW212191   5.298   2.306   0.414
 4055SOL     OW12192   4.747   2.628   0.966
 4055SOL    HW112193   4.762   2.649   1.062
 4055SOL    HW212194   4.717   2.533   0.957
 4056SOL     OW12195   4.704   3.435   1.700
 4056SOL    HW112196   4.684   3.479   1.612
 4056SOL    HW212197   4.743   3.344   1.684
 4057SOL     OW12198   4.074   2.760   1.804
 4057SOL    HW112199   4.150   2.804   1.852
 4057SOL    HW212200   4.109   2.713   1.722
 4058SOL     OW12201   5.027   2.700   0.042
 4058SOL    HW112202   5.061   2.607   0.057
 4058SOL    HW212203   5.045   2.727  -0.053
 4059SOL     OW12204   4.792   3.195   0.849
 4059SOL    HW112205   4.799   3.111   0.794
 4059SOL    HW212206   4.854   3.264   0.813
 4060SOL     OW12207   4.043   2.672   0.949
 4060SOL    HW112208   4.136   2.708   0.954
 4060SOL    HW212209   4.037   2.587   1.001
 4061SOL     OW12210   4.063   2.371   1.006
 4061SOL    HW112211   4.011   2.288   0.989
 4061SOL    HW212212   4.140   2.376   0.942
 4062SOL     OW12213   4.862   2.242   1.678
 4062SOL    HW112214   4.817   2.305   1.742
 4062SOL    HW212215   4.955   2.273   1.661
 4063SOL     OW12216   4.884   2.069   1.477
 4063SOL    HW112217   4.884   2.133   1.554
 4063SOL    HW212218   4.912   2.117   1.394
 4064SOL     OW12219   3.732   3.188   0.200
 4064SOL    HW112220   3.639   3.209   0.169
 4064SOL    HW212221   3.742   3.089   0.213
 4065SOL     OW12222   3.812   3.663   0.927
 4065SOL    HW112223   3.770   3.577   0.900
 4065SOL    HW212224   3.906   3.666   0.893
 4066SOL     OW12225   4.228   3.430   0.910
 4066SOL    HW112226   4.294   3.504   0.919
 4066SOL    HW212227   4.272   3.351   0.868
 4067SOL     OW12228   4.726   2.658   1.238
 4067SOL    HW112229   4.767   2.626   1.324
 4067SOL    HW212230   4.630   2.631   1.235
 4068SOL     OW12231   3.764   2.406   1.114
 4068SOL    HW112232   3.849   2.373   1.073
 4068SOL    HW212233   3.777   2.421   1.212
 4069SOL     OW12234   3.913   2.382   1.722
 4069SOL    HW112235   3.972   2.342   1.652
 4069SOL    HW212236   3.855   2.453   1.681
 4070SOL     OW12237   5.093   2.812   1.660
 4070SOL    HW112238   5.132   2.901   1.680
 4070SOL    HW212239   5.103   2.792   1.563
 4071SOL     OW12240   4.539   2.434   0.325
 4071SOL    HW112241   4.546   2.345   0.279
 4071SOL    HW212242   4.445   2.468   0.317
 4072SOL     OW12243   3.976   3.426   1.744
 4072SOL    HW112244   3.946   3.483   1.820
 4072SOL    HW212245   3.969   3.329   1.770
 4073SOL     OW12246   4.395   2.326   1.269
 4073SOL    HW112247   4.361   2.237   1.239
 4073SOL    HW212248   4.421   2.380   1.189
 4074SOL     OW12249   4.654   3.540   1.465
 4074SOL    HW112250   4.630   3.522   1.370
 4074SOL    HW212251   4.684   3.634   1.475
 4075SOL     OW12252   4.197   2.362   0.191
 4075SOL    HW112253   4.258   2.442   0.195
 4075SOL    HW212254   4.102   2.393   0.198
 4076SOL     OW12255   3.883   2.999   1.466
 4076SOL    HW112256   3.905   2.938   1.542
 4076SOL    HW212257   3.893   2.950   1.380
 4077SOL     OW12258   5.071   2.921   1.234
 4077SOL    HW112259   5.095   2.858   1.160
 4077SOL    HW212260   4.981   2.961   1.216
 4078SOL     OW12261   5.026   2.717   0.309
 4078SOL    HW112262   4.940   2.686   0.351
 4078SOL    HW212263   5.022   2.703   0.210
 4079SOL     OW12264   4.976   3.593   1.128
 4079SOL    HW112265   5.060   3.598   1.074
 4079SOL    HW212266   4.953   3.497   1.146
 4080SOL     OW12267   3.807   3.120   1.022
 4080SOL    HW112268   3.802   3.119   1.122
 4080SOL    HW212269   3.724   3.079   0.984
 4081SOL     OW12270   4.412   3.524   1.716
 4081SOL    HW112271   4.356   3.605   1.725
 4081SOL    HW212272   4.464   3.528   1.630
 4082SOL     OW12273   4.627   1.948   0.133
 4082SOL    HW112274   4.678   1.949   0.047
 4082SOL    HW212275   4.683   1.906   0.204
 4083SOL     OW12276   5.450   1.997   0.523
 4083SOL    HW112277   5.523   1.980   0.456
 4083SOL    HW212278   5.419   1.910   0.561
 4084SOL     OW12279   5.112   3.435   0.477
 4084SOL    HW112280   5.179   3.447   0.403
 4084SOL    HW212281   5.072   3.524   0.500
 4085SOL     OW12282   3.854   3.656   1.851
 4085SOL    HW112283   3.813   3.582   1.904
 4085SOL    HW212284   3.918   3.707   1.909
 4086SOL     OW12285   5.004   2.789   0.672
 4086SOL    HW112286   5.064   2.708   0.674
 4086SOL    HW212287   5.044   2.858   0.612
 4087SOL     OW12288   4.554   3.135   1.422
 4087SOL    HW112289   4.549   3.168   1.517
 4087SOL    HW212290   4.468   3.154   1.376
 4088SOL     OW12291   4.396   3.478   0.154
 4088SOL    HW112292   4.405   3.488   0.055
 4088SOL    HW212293   4.356   3.389   0.175
 4089SOL     OW12294   3.987   2.188   0.720
 4089SOL    HW112295   3.908   2.239   0.686
 4089SOL    HW212296   3.978   2.173   0.818
 4090SOL     OW12297   4.918   3.474   0.031
 4090SOL    HW112298   4.924   3.381   0.068
 4090SOL    HW212299   4.859   3.474  -0.049
 4091SOL     OW12300   4.546   2.864   1.372
 4091SOL    HW112301   4.586   2.863   1.280
 4091SOL    HW212302   4.556   2.956   1.412
 4092SOL     OW12303   4.640   2.772   0.291
 4092SOL    HW112304   4.703   2.810   0.223
 4092SOL    HW212305   4.680   2.689   0.330
 4093SOL     OW12306   4.096   3.150   1.490
 4093SOL    HW112307   4.083   3.243   1.456
 4093SOL    HW212308   4.012   3.098   1.477
 4094SOL     OW12309   4.763   2.960   0.696
 4094SOL    HW112310   4.693   2.913   0.750
 4094SOL    HW212311   4.822   2.892   0.653
 4095SOL     OW12312   4.738   2.098   0.971
 4095SOL    HW112313   4.730   2.062   0.878
 4095SOL    HW212314   4.736   2.022   1.036
 4096SOL     OW12315   4.314   3.349   0.491
 4096SOL    HW112316   4.356   3.291   0.421
 4096SOL    HW212317   4.270   3.428   0.447
 4097SOL     OW12318   3.979   3.210   0.290
 4097SOL    HW112319   3.883   3.211   0.263
 4097SOL    HW212320   3.991   3.263   0.374
 4098SOL     OW12321   3.829   2.875   1.726
 4098SOL    HW112322   3.752   2.842   1.780
 4098SOL    HW212323   3.914   2.845   1.768
 4099SOL     OW12324   4.396   2.065   1.489
 4099SOL    HW112325   4.486   2.049   1.449
 4099SOL    HW212326   4.404   2.070   1.588
 4100SOL     OW12327   5.164   2.718   1.398
 4100SOL    HW112328   5.107   2.770   1.335
 4100SOL    HW212329   5.260   2.730   1.374
 4101SOL     OW12330   3.796   2.028   0.318
 4101SOL    HW112331   3.779   2.111   0.264
 4101SOL    HW212332   3.886   1.991   0.296
 4102SOL     OW12333   4.907   3.197   0.119
 4102SOL    HW112334   4.808   3.186   0.121
 4102SOL    HW212335   4.941   3.212   0.212
 4103SOL     OW12336   4.337   2.704   1.431
 4103SOL    HW112337   4.393   2.785   1.414
 4103SOL    HW212338   4.396   2.624   1.434
 4104SOL     OW12339   5.217   3.629   0.959
 4104SOL    HW112340   5.250   3.693   0.890
 4104SOL    HW212341   5.283   3.623   1.034
 4105SOL     OW12342   4.440   2.427   1.708
 4105SOL    HW112343   4.459   2.492   1.782
 4105SOL    HW212344   4.500   2.347   1.717
 4106SOL     OW12345   5.174   3.082   1.633
 4106SOL    HW112346   5.165   3.072   1.732
 4106SOL    HW212347   5.270   3.075   1.607
 4107SOL     OW12348   4.114   3.603   1.560
 4107SOL    HW112349   4.023   3.644   1.558
 4107SOL    HW212350   4.107   3.509   1.592
 4108SOL     OW12351   4.949   2.187   0.449
 4108SOL    HW112352   5.014   2.113   0.438
 4108SOL    HW212353   4.969   2.237   0.533
 4109SOL     OW12354   4.318   2.607   0.652
 4109SOL    HW112355   4.368   2.692   0.633
 4109SOL    HW212356   4.230   2.609   0.604
 4110SOL     OW12357   4.583   3.236   0.016
 4110SOL    HW112358   4.537   3.251   0.104
 4110SOL    HW212359   4.627   3.321  -0.014
 4111SOL     OW12360   4.385   3.652   0.953
 4111SOL    HW112361   4.339   3.740   0.940
 4111SOL    HW212362   4.484   3.664   0.946
 4112SOL     OW12363   4.583   2.818   0.861
 4112SOL    HW112364   4.637   2.749   0.909
 4112SOL    HW212365   4.551   2.887   0.927
 4113SOL     OW12366   4.807   2.846   0.087
 4113SOL    HW112367   4.784   2.899   0.005
 4113SOL    HW212368   4.888   2.790   0.068
 4114SOL     OW12369   3.945   3.176   1.844
 4114SOL    HW112370   3.880   3.103   1.823
 4114SOL    HW212371   3.949   3.190   1.942
 4115SOL     OW12372   3.803   3.102   0.653
 4115SOL    HW112373   3.802   3.055   0.741
 4115SOL    HW212374   3.885   3.074   0.602
 4116SOL     OW12375   4.396   3.253   1.624
 4116SOL    HW112376   4.318   3.203   1.662
 4116SOL    HW212377   4.393   3.348   1.655
 4117SOL     OW12378   4.152   2.286   0.520
 4117SOL    HW112379   4.182   2.214   0.458
 4117SOL    HW212380   4.113   2.246   0.603
 4118SOL     OW12381   4.041   2.409   1.280
 4118SOL    HW112382   4.079   2.350   1.352
 4118SOL    HW212383   4.081   2.383   1.192
 4119SOL     OW12384   4.536   3.448   0.687
 4119SOL    HW112385   4.568   3.458   0.593
 4119SOL    HW212386   4.457   3.386   0.689
 4120SOL     OW12387   5.148   2.076   1.112
 4120SOL    HW112388   5.200   2.011   1.167
 4120SOL    HW212389   5.099   2.139   1.173
 4121SOL     OW12390   4.725   1.896   1.154
 4121SOL    HW112391   4.662   1.824   1.123
 4121SOL    HW212392   4.818   1.860   1.154
 4122SOL     OW12393   4.494   3.192   0.301
 4122SOL    HW112394   4.448   3.105   0.318
 4122SOL    HW212395   4.585   3.189   0.342
 4123SOL     OW12396   4.342   3.429   1.284
 4123SOL    HW112397   4.337   3.511   1.341
 4123SOL    HW212398   4.431   3.426   1.239
 4124SOL     OW12399   5.076   1.914   0.168
 4124SOL    HW112400   5.111   1.873   0.084
 4124SOL    HW212401   4.986   1.876   0.188
 4125SOL     OW12402   5.024   2.315   0.691
 4125SOL    HW112403   4.965   2.395   0.695
 4125SOL    HW212404   5.039   2.280   0.784
 4126SOL     OW12405   5.317   2.083   0.882
 4126SOL    HW112406   5.233   2.082   0.936
 4126SOL    HW212407   5.319   2.166   0.826
 4127SOL     OW12408   3.763   2.939   0.300
 4127SOL    HW112409   3.862   2.928   0.291
 4127SOL    HW212410   3.723   2.853   0.332
 4128SOL     OW12411   4.599   3.508   0.337
 4128SOL    HW112412   4.522   3.473   0.283
 4128SOL    HW212413   4.567   3.579   0.399
 4129SOL     OW12414   3.954   2.490   1.975
 4129SOL    HW112415   3.861   2.488   2.012
 4129SOL    HW212416   3.955   2.451   1.883
 4130SOL     OW12417   3.949   2.137   2.858
 4130SOL    HW112418   3.984   2.120   2.950
 4130SOL    HW212419   3.861   2.092   2.846
 4131SOL     OW12420   3.743   2.230   2.509
 4131SOL    HW112421   3.661   2.273   2.548
 4131SOL    HW212422   3.715   2.157   2.446
 4132SOL     OW12423   4.293   3.137   3.027
 4132SOL    HW112424   4.200   3.130   2.990
 4132SOL    HW212425   4.304   3.226   3.071
 4133SOL     OW12426   5.279   3.373   2.565
 4133SOL    HW112427   5.222   3.357   2.646
 4133SOL    HW212428   5.220   3.383   2.485
 4134SOL     OW12429   4.859   2.565   2.579
 4134SOL    HW112430   4.916   2.643   2.554
 4134SOL    HW212431   4.799   2.591   2.655
 4135SOL     OW12432   4.492   3.006   2.885
 4135SOL    HW112433   4.414   3.023   2.945
 4135SOL    HW212434   4.526   3.093   2.849
 4136SOL     OW12435   4.574   2.660   3.685
 4136SOL    HW112436   4.570   2.736   3.750
 4136SOL    HW212437   4.596   2.696   3.594
 4137SOL     OW12438   4.409   2.874   2.527
 4137SOL    HW112439   4.478   2.858   2.597
 4137SOL    HW212440   4.336   2.931   2.565
 4138SOL     OW12441   4.410   3.023   3.665
 4138SOL    HW112442   4.470   3.102   3.679
 4138SOL    HW212443   4.324   3.054   3.624
 4139SOL     OW12444   4.059   3.297   2.923
 4139SOL    HW112445   3.981   3.266   2.870
 4139SOL    HW212446   4.117   3.355   2.866
 4140SOL     OW12447   5.184   3.367   3.201
 4140SOL    HW112448   5.208   3.461   3.227
 4140SOL    HW212449   5.168   3.313   3.283
 4141SOL     OW12450   4.162   2.254   3.361
 4141SOL    HW112451   4.244   2.198   3.370
 4141SOL    HW212452   4.081   2.196   3.365
 4142SOL     OW12453   3.955   3.575   2.345
 4142SOL    HW112454   3.989   3.652   2.399
 4142SOL    HW212455   3.999   3.575   2.255
 4143SOL     OW12456   4.851   3.203   3.552
 4143SOL    HW112457   4.898   3.203   3.640
 4143SOL    HW212458   4.803   3.116   3.541
 4144SOL     OW12459   3.954   3.296   2.400
 4144SOL    HW112460   3.928   3.392   2.400
 4144SOL    HW212461   3.883   3.242   2.445
 4145SOL     OW12462   3.964   2.953   2.748
 4145SOL    HW112463   3.978   2.869   2.800
 4145SOL    HW212464   3.909   3.017   2.803
 4146SOL     OW12465   4.344   3.648   3.301
 4146SOL    HW112466   4.252   3.631   3.336
 4146SOL    HW212467   4.372   3.740   3.327
 4147SOL     OW12468   4.330   2.826   1.985
 4147SOL    HW112469   4.337   2.910   1.931
 4147SOL    HW212470   4.376   2.839   2.073
 4148SOL     OW12471   3.846   2.505   2.425
 4148SOL    HW112472   3.801   2.417   2.442
 4148SOL    HW212473   3.845   2.559   2.509
 4149SOL     OW12474   3.751   3.458   1.979
 4149SOL    HW112475   3.732   3.362   2.000
 4149SOL    HW212476   3.718   3.516   2.054
 4150SOL     OW12477   5.413   2.784   2.474
 4150SOL    HW112478   5.508   2.755   2.482
 4150SOL    HW212479   5.405   2.849   2.399
 4151SOL     OW12480   3.837   2.599   3.459
 4151SOL    HW112481   3.925   2.586   3.504
 4151SOL    HW212482   3.824   2.696   3.437
 4152SOL     OW12483   4.337   3.227   2.588
 4152SOL    HW112484   4.288   3.140   2.597
 4152SOL    HW212485   4.314   3.270   2.501
 4153SOL     OW12486   5.017   3.090   3.285
 4153SOL    HW112487   5.054   3.017   3.227
 4153SOL    HW212488   5.069   3.095   3.370
 4154SOL     OW12489   4.533   1.866   2.364
 4154SOL    HW112490   4.573   1.957   2.355
 4154SOL    HW212491   4.433   1.874   2.370
 4155SOL     OW12492   3.921   2.838   3.126
 4155SOL    HW112493   4.010   2.793   3.112
 4155SOL    HW212494   3.848   2.773   3.107
 4156SOL     OW12495   4.911   3.654   3.478
 4156SOL    HW112496   4.935   3.714   3.402
 4156SOL    HW212497   4.918   3.559   3.448
 4157SOL     OW12498   4.041   2.113   3.663
 4157SOL    HW112499   4.112   2.184   3.669
 4157SOL    HW212500   3.953   2.152   3.691
 4158SOL     OW12501   5.190   3.279   2.815
 4158SOL    HW112502   5.131   3.285   2.895
 4158SOL    HW212503   5.175   3.191   2.769
 4159SOL     OW12504   5.391   3.576   2.434
 4159SOL    HW112505   5.350   3.553   2.346
 4159SOL    HW212506   5.373   3.502   2.499
 4160SOL     OW12507   4.322   2.591   2.132
 4160SOL    HW112508   4.346   2.660   2.064
 4160SOL    HW212509   4.244   2.624   2.186
 4161SOL     OW12510   5.005   2.207   2.806
 4161SOL    HW112511   4.919   2.157   2.793
 4161SOL    HW212512   5.067   2.153   2.862
 4162SOL     OW12513   4.531   2.467   3.327
 4162SOL    HW112514   4.484   2.464   3.416
 4162SOL    HW212515   4.480   2.412   3.261
 4163SOL     OW12516   5.118   2.331   3.536
 4163SOL    HW112517   5.098   2.374   3.624
 4163SOL    HW212518   5.196   2.269   3.545
 4164SOL     OW12519   4.697   2.752   3.434
 4164SOL    HW112520   4.743   2.668   3.405
 4164SOL    HW212521   4.641   2.786   3.359
 4165SOL     OW12522   4.715   2.272   3.104
 4165SOL    HW112523   4.638   2.306   3.158
 4165SOL    HW212524   4.681   2.221   3.025
 4166SOL     OW12525   4.765   2.563   2.291
 4166SOL    HW112526   4.791   2.559   2.387
 4166SOL    HW212527   4.680   2.512   2.277
 4167SOL     OW12528   3.800   2.673   2.651
 4167SOL    HW112529   3.899   2.661   2.660
 4167SOL    HW212530   3.776   2.768   2.672
 4168SOL     OW12531   3.854   3.683   3.433
 4168SOL    HW112532   3.844   3.668   3.532
 4168SOL    HW212533   3.768   3.719   3.397
 4169SOL     OW12534   4.589   2.210   2.057
 4169SOL    HW112535   4.648   2.273   2.008
 4169SOL    HW212536   4.608   2.116   2.028
 4170SOL     OW12537   5.086   3.006   2.407
 4170SOL    HW112538   5.169   2.977   2.359
 4170SOL    HW212539   5.037   3.073   2.351
 4171SOL     OW12540   4.274   2.058   2.747
 4171SOL    HW112541   4.269   2.053   2.847
 4171SOL    HW212542   4.276   2.154   2.718
 4172SOL     OW12543   4.732   3.318   2.339
 4172SOL    HW112544   4.686   3.390   2.287
 4172SOL    HW212545   4.728   3.338   2.437
 4173SOL     OW12546   4.075   3.663   2.715
 4173SOL    HW112547   4.125   3.577   2.721
 4173SOL    HW212548   4.140   3.740   2.712
 4174SOL     OW12549   4.951   3.412   3.368
 4174SOL    HW112550   4.957   3.335   3.432
 4174SOL    HW212551   4.899   3.386   3.288
 4175SOL     OW12552   4.045   2.805   2.104
 4175SOL    HW112553   4.127   2.844   2.062
 4175SOL    HW212554   4.018   2.723   2.055
 4176SOL     OW12555   4.185   3.128   3.589
 4176SOL    HW112556   4.135   3.129   3.503
 4176SOL    HW212557   4.122   3.110   3.665
 4177SOL     OW12558   4.835   3.638   2.099
 4177SOL    HW112559   4.775   3.576   2.149
 4177SOL    HW212560   4.866   3.594   2.014
 4178SOL     OW12561   3.926   2.147   3.360
 4178SOL    HW112562   3.846   2.207   3.347
 4178SOL    HW212563   3.916   2.098   3.446
 4179SOL     OW12564   4.188   3.605   2.185
 4179SOL    HW112565   4.221   3.644   2.271
 4179SOL    HW212566   4.264   3.598   2.120
 4180SOL     OW12567   5.124   1.969   2.288
 4180SOL    HW112568   5.100   1.932   2.198
 4180SOL    HW212569   5.223   1.985   2.292
 4181SOL     OW12570   3.973   3.647   3.103
 4181SOL    HW112571   4.030   3.582   3.153
 4181SOL    HW212572   3.957   3.614   3.010
 4182SOL     OW12573   4.664   3.560   2.766
 4182SOL    HW112574   4.744   3.503   2.787
 4182SOL    HW212575   4.615   3.520   2.689
 4183SOL     OW12576   4.106   2.562   2.342
 4183SOL    HW112577   4.151   2.472   2.339
 4183SOL    HW212578   4.012   2.551   2.375
 4184SOL     OW12579   4.338   1.984   1.979
 4184SOL    HW112580   4.436   1.962   1.986
 4184SOL    HW212581   4.307   1.967   1.886
 4185SOL     OW12582   4.505   2.126   3.611
 4185SOL    HW112583   4.572   2.065   3.654
 4185SOL    HW212584   4.432   2.145   3.676
 4186SOL     OW12585   4.612   3.376   3.057
 4186SOL    HW112586   4.589   3.351   2.963
 4186SOL    HW212587   4.673   3.307   3.096
 4187SOL     OW12588   5.075   2.452   3.295
 4187SOL    HW112589   5.103   2.409   3.380
 4187SOL    HW212590   5.100   2.548   3.296
 4188SOL     OW12591   4.527   3.264   2.786
 4188SOL    HW112592   4.617   3.278   2.744
 4188SOL    HW212593   4.456   3.266   2.715
 4189SOL     OW12594   4.646   2.365   2.761
 4189SOL    HW112595   4.621   2.356   2.665
 4189SOL    HW212596   4.694   2.283   2.792
 4190SOL     OW12597   4.263   1.926   2.374
 4190SOL    HW112598   4.182   1.927   2.432
 4190SOL    HW212599   4.266   2.009   2.319
 4191SOL     OW12600   5.158   3.050   1.903
 4191SOL    HW112601   5.190   2.974   1.960
 4191SOL    HW212602   5.066   3.077   1.933
 4192SOL     OW12603   4.021   1.897   2.033
 4192SOL    HW112604   4.070   1.981   2.012
 4192SOL    HW212605   4.083   1.832   2.078
 4193SOL     OW12606   4.659   2.098   2.342
 4193SOL    HW112607   4.611   2.139   2.264
 4193SOL    HW212608   4.758   2.096   2.323
 4194SOL     OW12609   4.800   2.545   3.326
 4194SOL    HW112610   4.720   2.484   3.329
 4194SOL    HW212611   4.881   2.492   3.302
 4195SOL     OW12612   4.951   3.432   2.655
 4195SOL    HW112613   4.972   3.506   2.590
 4195SOL    HW212614   5.019   3.432   2.728
 4196SOL     OW12615   4.183   3.014   2.603
 4196SOL    HW112616   4.112   2.987   2.668
 4196SOL    HW212617   4.157   2.986   2.510
 4197SOL     OW12618   4.995   3.659   2.453
 4197SOL    HW112619   5.039   3.723   2.389
 4197SOL    HW212620   4.945   3.711   2.523
 4198SOL     OW12621   4.756   2.411   1.878
 4198SOL    HW112622   4.715   2.493   1.839
 4198SOL    HW212623   4.820   2.437   1.951
 4199SOL     OW12624   3.802   2.418   3.248
 4199SOL    HW112625   3.894   2.417   3.207
 4199SOL    HW212626   3.796   2.492   3.315
 4200SOL     OW12627   4.285   2.084   3.009
 4200SOL    HW112628   4.323   2.000   3.046
 4200SOL    HW212629   4.197   2.103   3.053
 4201SOL     OW12630   4.590   2.316   2.504
 4201SOL    HW112631   4.558   2.388   2.442
 4201SOL    HW212632   4.614   2.235   2.451
 4202SOL     OW12633   4.741   1.901   2.615
 4202SOL    HW112634   4.669   1.906   2.546
 4202SOL    HW212635   4.717   1.832   2.684
 4203SOL     OW12636   5.153   3.035   2.729
 4203SOL    HW112637   5.098   2.951   2.722
 4203SOL    HW212638   5.179   3.064   2.637
 4204SOL     OW12639   4.212   3.247   2.036
 4204SOL    HW112640   4.125   3.232   2.083
 4204SOL    HW212641   4.195   3.273   1.941
 4205SOL     OW12642   5.114   2.437   1.940
 4205SOL    HW112643   5.060   2.416   2.021
 4205SOL    HW212644   5.205   2.396   1.949
 4206SOL     OW12645   4.251   2.118   2.190
 4206SOL    HW112646   4.278   2.059   2.115
 4206SOL    HW212647   4.251   2.213   2.159
 4207SOL     OW12648   4.788   3.209   3.202
 4207SOL    HW112649   4.708   3.186   3.257
 4207SOL    HW212650   4.871   3.183   3.251
 4208SOL     OW12651   5.316   3.491   3.487
 4208SOL    HW112652   5.343   3.525   3.397
 4208SOL    HW212653   5.395   3.453   3.533
 4209SOL     OW12654   4.835   3.057   2.962
 4209SOL    HW112655   4.795   3.101   3.043
 4209SOL    HW212656   4.794   3.094   2.879
 4210SOL     OW12657   4.639   1.951   3.264
 4210SOL    HW112658   4.664   1.931   3.169
 4210SOL    HW212659   4.711   2.007   3.306
 4211SOL     OW12660   4.704   2.978   3.581
 4211SOL    HW112661   4.605   2.984   3.591
 4211SOL    HW212662   4.727   2.898   3.525
 4212SOL     OW12663   4.429   2.912   2.230
 4212SOL    HW112664   4.415   2.919   2.329
 4212SOL    HW212665   4.513   2.861   2.212
 4213SOL     OW12666   4.134   2.675   3.113
 4213SOL    HW112667   4.220   2.687   3.163
 4213SOL    HW212668   4.092   2.588   3.140
 4214SOL     OW12669   4.998   2.248   3.124
 4214SOL    HW112670   5.019   2.322   3.188
 4214SOL    HW212671   4.909   2.265   3.081
 4215SOL     OW12672   3.788   3.426   3.193
 4215SOL    HW112673   3.742   3.508   3.159
 4215SOL    HW212674   3.886   3.445   3.202
 4216SOL     OW12675   4.091   2.962   2.363
 4216SOL    HW112676   4.084   3.045   2.307
 4216SOL    HW212677   4.095   2.882   2.303
 4217SOL     OW12678   4.290   2.399   2.727
 4217SOL    HW112679   4.302   2.465   2.653
 4217SOL    HW212680   4.336   2.433   2.810
 4218SOL     OW12681   4.976   3.210   2.250
 4218SOL    HW112682   5.026   3.287   2.290
 4218SOL    HW212683   4.881   3.212   2.282
 4219SOL     OW12684   4.996   3.307   3.004
 4219SOL    HW112685   5.043   3.320   3.091
 4219SOL    HW212686   4.930   3.233   3.013
 4220SOL     OW12687   4.078   3.372   3.191
 4220SOL    HW112688   4.057   3.328   3.104
 4220SOL    HW212689   4.175   3.398   3.194
 4221SOL     OW12690   4.126   2.613   3.460
 4221SOL    HW112691   4.194   2.668   3.413
 4221SOL    HW212692   4.166   2.525   3.487
 4222SOL     OW12693   4.737   1.967   3.632
 4222SOL    HW112694   4.743   2.052   3.580
 4222SOL    HW212695   4.769   1.891   3.575
 4223SOL     OW12696   4.228   1.912   3.602
 4223SOL    HW112697   4.186   1.855   3.532
 4223SOL    HW212698   4.162   1.981   3.634
 4224SOL     OW12699   4.297   2.732   2.891
 4224SOL    HW112700   4.341   2.821   2.882
 4224SOL    HW212701   4.234   2.732   2.968
 4225SOL     OW12702   5.084   2.724   2.907
 4225SOL    HW112703   5.009   2.724   2.841
 4225SOL    HW212704   5.121   2.632   2.916
 4226SOL     OW12705   4.933   2.387   2.137
 4226SOL    HW112706   4.946   2.303   2.191
 4226SOL    HW212707   4.904   2.461   2.197
 4227SOL     OW12708   4.031   2.075   3.093
 4227SOL    HW112709   4.008   2.112   3.183
 4227SOL    HW212710   4.001   1.980   3.087
 4228SOL     OW12711   3.761   3.172   3.144
 4228SOL    HW112712   3.814   3.123   3.212
 4228SOL    HW212713   3.783   3.270   3.149
 4229SOL     OW12714   4.456   2.496   2.926
 4229SOL    HW112715   4.515   2.470   2.850
 4229SOL    HW212716   4.428   2.592   2.915
 4230SOL     OW12717   4.031   1.925   2.480
 4230SOL    HW112718   4.020   2.019   2.513
 4230SOL    HW212719   4.026   1.862   2.557
 4231SOL     OW12720   5.346   2.229   2.236
 4231SOL    HW112721   5.348   2.153   2.300
 4231SOL    HW212722   5.298   2.306   2.276
 4232SOL     OW12723   4.747   2.628   2.828
 4232SOL    HW112724   4.762   2.649   2.924
 4232SOL    HW212725   4.717   2.533   2.819
 4233SOL     OW12726   4.704   3.435   3.562
 4233SOL    HW112727   4.684   3.479   3.474
 4233SOL    HW212728   4.743   3.344   3.546
 4234SOL     OW12729   4.074   2.760   3.666
 4234SOL    HW112730   4.150   2.804   3.714
 4234SOL    HW212731   4.109   2.713   3.584
 4235SOL     OW12732   5.027   2.700   1.904
 4235SOL    HW112733   5.061   2.607   1.919
 4235SOL    HW212734   5.045   2.727   1.809
 4236SOL     OW12735   4.792   3.195   2.711
 4236SOL    HW112736   4.799   3.111   2.656
 4236SOL    HW212737   4.854   3.264   2.675
 4237SOL     OW12738   4.043   2.672   2.811
 4237SOL    HW112739   4.136   2.708   2.816
 4237SOL    HW212740   4.037   2.587   2.863
 4238SOL     OW12741   4.063   2.371   2.868
 4238SOL    HW112742   4.011   2.288   2.851
 4238SOL    HW212743   4.140   2.376   2.804
 4239SOL     OW12744   4.862   2.242   3.540
 4239SOL    HW112745   4.817   2.305   3.604
 4239SOL    HW212746   4.955   2.273   3.523
 4240SOL     OW12747   4.884   2.069   3.339
 4240SOL    HW112748   4.884   2.133   3.416
 4240SOL    HW212749   4.912   2.117   3.256
 4241SOL     OW12750   3.732   3.188   2.062
 4241SOL    HW112751   3.639   3.209   2.031
 4241SOL    HW212752   3.742   3.089   2.075
 4242SOL     OW12753   3.812   3.663   2.789
 4242SOL    HW112754   3.770   3.577   2.762
 4242SOL    HW212755   3.906   3.666   2.755
 4243SOL     OW12756   4.228   3.430   2.772
 4243SOL    HW112757   4.294   3.504   2.781
 4243SOL    HW212758   4.272   3.351   2.730
 4244SOL     OW12759   4.726   2.658   3.100
 4244SOL    HW112760   4.767   2.626   3.186
 4244SOL    HW212761   4.630   2.631   3.097
 4245SOL     OW12762   3.764   2.406   2.976
 4245SOL    HW112763   3.849   2.373   2.935
 4245SOL    HW212764   3.777   2.421   3.074
 4246SOL     OW12765   3.913   2.382   3.584
 4246SOL    HW112766   3.972   2.342   3.514
 4246SOL    HW212767   3.855   2.453   3.543
 4247SOL     OW12768   5.093   2.812   3.522
 4247SOL    HW112769   5.132   2.901   3.542
 4247SOL    HW212770   5.103   2.792   3.425
 4248SOL     OW12771   4.539   2.434   2.187
 4248SOL    HW112772   4.546   2.345   2.141
 4248SOL    HW212773   4.445   2.468   2.179
 4249SOL     OW12774   3.976   3.426   3.606
 4249SOL    HW112775   3.946   3.483   3.682
 4249SOL    HW212776   3.969   3.329   3.632
 4250SOL     OW12777   4.395   2.326   3.131
 4250SOL    HW112778   4.361   2.237   3.101
 4250SOL    HW212779   4.421   2.380   3.051
 4251SOL     OW12780   4.654   3.540   3.327
 4251SOL    HW112781   4.630   3.522   3.232
 4251SOL    HW212782   4.684   3.634   3.337
 4252SOL     OW12783   4.197   2.362   2.053
 4252SOL    HW112784   4.258   2.442   2.057
 4252SOL    HW212785   4.102   2.393   2.060
 4253SOL     OW12786   3.883   2.999   3.328
 4253SOL    HW112787   3.905   2.938   3.404
 4253SOL    HW212788   3.893   2.950   3.242
 4254SOL     OW12789   5.071   2.921   3.096
 4254SOL    HW112790   5.095   2.858   3.022
 4254SOL    HW212791   4.981   2.961   3.078
 4255SOL     OW12792   5.026   2.717   2.171
 4255SOL    HW112793   4.940   2.686   2.213
 4255SOL    HW212794   5.022   2.703   2.072
 4256SOL     OW12795   4.976   3.593   2.990
 4256SOL    HW112796   5.060   3.598   2.936
 4256SOL    HW212797   4.953   3.497   3.008
 4257SOL     OW12798   3.807   3.120   2.884
 4257SOL    HW112799   3.802   3.119   2.984
 4257SOL    HW212800   3.724   3.079   2.846
 4258SOL     OW12801   4.412   3.524   3.578
 4258SOL    HW112802   4.356   3.605   3.587
 4258SOL    HW212803   4.464   3.528   3.492
 4259SOL     OW12804   5.450   1.997   2.385
 4259SOL    HW112805   5.523   1.980   2.318
 4259SOL    HW212806   5.419   1.910   2.423
 4260SOL     OW12807   5.112   3.435   2.339
 4260SOL    HW112808   5.179   3.447   2.265
 4260SOL    HW212809   5.072   3.524   2.362
 4261SOL     OW12810   3.854   3.656   3.713
 4261SOL    HW112811   3.813   3.582   3.766
 4261SOL    HW212812   3.918   3.707   3.771
 4262SOL     OW12813   5.004   2.789   2.534
 4262SOL    HW112814   5.064   2.708   2.536
 4262SOL    HW212815   5.044   2.858   2.474
 4263SOL     OW12816   4.554   3.135   3.284
 4263SOL    HW112817   4.549   3.168   3.379
 4263SOL    HW212818   4.468   3.154   3.238
 4264SOL     OW12819   4.396   3.478   2.016
 4264SOL    HW112820   4.405   3.488   1.917
 4264SOL    HW212821   4.356   3.389   2.037
 4265SOL     OW12822   3.987   2.188   2.582
 4265SOL    HW112823   3.908   2.239   2.548
 4265SOL    HW212824   3.978   2.173   2.680
 4266SOL     OW12825   4.918   3.474   1.893
 4266SOL    HW112826   4.924   3.381   1.930
 4266SOL    HW212827   4.859   3.474   1.813
 4267SOL     OW12828   4.546   2.864   3.234
 4267SOL    HW112829   4.586   2.863   3.142
 4267SOL    HW212830   4.556   2.956   3.274
 4268SOL     OW12831   4.640   2.772   2.153
 4268SOL    HW112832   4.703   2.810   2.085
 4268SOL    HW212833   4.680   2.689   2.192
 4269SOL     OW12834   4.096   3.150   3.352
 4269SOL    HW112835   4.083   3.243   3.318
 4269SOL    HW212836   4.012   3.098   3.339
 4270SOL     OW12837   4.763   2.960   2.558
 4270SOL    HW112838   4.693   2.913   2.612
 4270SOL    HW212839   4.822   2.892   2.515
 4271SOL     OW12840   4.738   2.098   2.833
 4271SOL    HW112841   4.730   2.062   2.740
 4271SOL    HW212842   4.736   2.022   2.898
 4272SOL     OW12843   4.314   3.349   2.353
 4272SOL    HW112844   4.356   3.291   2.283
 4272SOL    HW212845   4.270   3.428   2.309
 4273SOL     OW12846   3.979   3.210   2.152
 4273SOL    HW112847   3.883   3.211   2.125
 4273SOL    HW212848   3.991   3.263   2.236
 4274SOL     OW12849   3.829   2.875   3.588
 4274SOL    HW112850   3.752   2.842   3.642
 4274SOL    HW212851   3.914   2.845   3.630
 4275SOL     OW12852   4.396   2.065   3.351
 4275SOL    HW112853   4.486   2.049   3.311
 4275SOL    HW212854   4.404   2.070   3.450
 4276SOL     OW12855   3.799   2.207   1.895
 4276SOL    HW112856   3.707   2.179   1.866
 4276SOL    HW212857   3.830   2.284   1.839
 4277SOL     OW12858   5.164   2.718   3.260
 4277SOL    HW112859   5.107   2.770   3.197
 4277SOL    HW212860   5.260   2.730   3.236
 4278SOL     OW12861   3.796   2.028   2.180
 4278SOL    HW112862   3.779   2.111   2.126
 4278SOL    HW212863   3.886   1.991   2.158
 4279SOL     OW12864   4.907   3.197   1.981
 4279SOL    HW112865   4.808   3.186   1.983
 4279SOL    HW212866   4.941   3.212   2.074
 4280SOL     OW12867   4.337   2.704   3.293
 4280SOL    HW112868   4.393   2.785   3.276
 4280SOL    HW212869   4.396   2.624   3.296
 4281SOL     OW12870   5.217   3.629   2.821
 4281SOL    HW112871   5.250   3.693   2.752
 4281SOL    HW212872   5.283   3.623   2.896
 4282SOL     OW12873   4.440   2.427   3.570
 4282SOL    HW112874   4.459   2.492   3.644
 4282SOL    HW212875   4.500   2.347   3.579
 4283SOL     OW12876   5.174   3.082   3.495
 4283SOL    HW112877   5.165   3.072   3.594
 4283SOL    HW212878   5.270   3.075   3.469
 4284SOL     OW12879   4.114   3.603   3.422
 4284SOL    HW112880   4.023   3.644   3.420
 4284SOL    HW212881   4.107   3.509   3.454
 4285SOL     OW12882   4.949   2.187   2.311
 4285SOL    HW112883   5.014   2.113   2.300
 4285SOL    HW212884   4.969   2.237   2.395
 4286SOL     OW12885   4.318   2.607   2.514
 4286SOL    HW112886   4.368   2.692   2.495
 4286SOL    HW212887   4.230   2.609   2.466
 4287SOL     OW12888   4.583   3.236   1.878
 4287SOL    HW112889   4.537   3.251   1.966
 4287SOL    HW212890   4.627   3.321   1.848
 4288SOL     OW12891   4.385   3.652   2.815
 4288SOL    HW112892   4.339   3.740   2.802
 4288SOL    HW212893   4.484   3.664   2.808
 4289SOL     OW12894   4.583   2.818   2.723
 4289SOL    HW112895   4.637   2.749   2.771
 4289SOL    HW212896   4.551   2.887   2.789
 4290SOL     OW12897   4.807   2.846   1.949
 4290SOL    HW112898   4.784   2.899   1.867
 4290SOL    HW212899   4.888   2.790   1.930
 4291SOL     OW12900   3.945   3.176   3.706
 4291SOL    HW112901   3.880   3.103   3.685
 4291SOL    HW212902   3.949   3.190   3.804
 4292SOL     OW12903   3.803   3.102   2.515
 4292SOL    HW112904   3.802   3.055   2.603
 4292SOL    HW212905   3.885   3.074   2.464
 4293SOL     OW12906   4.396   3.253   3.486
 4293SOL    HW112907   4.318   3.203   3.524
 4293SOL    HW212908   4.393   3.348   3.517
 4294SOL     OW12909   4.152   2.286   2.382
 4294SOL    HW112910   4.182   2.214   2.320
 4294SOL    HW212911   4.113   2.246   2.465
 4295SOL     OW12912   4.041   2.409   3.142
 4295SOL    HW112913   4.079   2.350   3.214
 4295SOL    HW212914   4.081   2.383   3.054
 4296SOL     OW12915   4.536   3.448   2.549
 4296SOL    HW112916   4.568   3.458   2.455
 4296SOL    HW212917   4.457   3.386   2.551
 4297SOL     OW12918   5.148   2.076   2.974
 4297SOL    HW112919   5.200   2.011   3.029
 4297SOL    HW212920   5.099   2.139   3.035
 4298SOL     OW12921   4.725   1.896   3.016
 4298SOL    HW112922   4.662   1.824   2.985
 4298SOL    HW212923   4.818   1.860   3.016
 4299SOL     OW12924   4.494   3.192   2.163
 4299SOL    HW112925   4.448   3.105   2.180
 4299SOL    HW212926   4.585   3.189   2.204
 4300SOL     OW12927   4.342   3.429   3.146
 4300SOL    HW112928   4.337   3.511   3.203
 4300SOL    HW212929   4.431   3.426   3.101
 4301SOL     OW12930   5.076   1.914   2.030
 4301SOL    HW112931   5.111   1.873   1.946
 4301SOL    HW212932   4.986   1.876   2.050
 4302SOL     OW12933   5.024   2.315   2.553
 4302SOL    HW112934   4.965   2.395   2.557
 4302SOL    HW212935   5.039   2.280   2.646
 4303SOL     OW12936   5.317   2.083   2.744
 4303SOL    HW112937   5.233   2.082   2.798
 4303SOL    HW212938   5.319   2.166   2.688
 4304SOL     OW12939   3.763   2.939   2.162
 4304SOL    HW112940   3.862   2.928   2.153
 4304SOL    HW212941   3.723   2.853   2.194
 4305SOL     OW12942   4.599   3.508   2.199
 4305SOL    HW112943   4.522   3.473   2.145
 4305SOL    HW212944   4.567   3.579   2.261
 4306SOL     OW12945   3.954   2.490   3.837
 4306SOL    HW112946   3.861   2.488   3.874
 4306SOL    HW212947   3.955   2.451   3.745
 4307SOL     OW12948   3.949   2.137   4.720
 4307SOL    HW112949   3.984   2.120   4.812
 4307SOL    HW212950   3.861   2.092   4.708
 4308SOL     OW12951   3.743   2.230   4.371
 4308SOL    HW112952   3.661   2.273   4.410
 4308SOL    HW212953   3.715   2.157   4.308
 4309SOL     OW12954   4.293   3.137   4.889
 4309SOL    HW112955   4.200   3.130   4.852
 4309SOL    HW212956   4.304   3.226   4.933
 4310SOL     OW12957   5.279   3.373   4.427
 4310SOL    HW112958   5.222   3.357   4.508
 4310SOL    HW212959   5.220   3.383   4.347
 4311SOL     OW12960   4.859   2.565   4.441
 4311SOL    HW112961   4.916   2.643   4.416
 4311SOL    HW212962   4.799   2.591   4.517
 4312SOL     OW12963   4.492   3.006   4.747
 4312SOL    HW112964   4.414   3.023   4.807
 4312SOL    HW212965   4.526   3.093   4.711
 4313SOL     OW12966   4.409   2.874   4.389
 4313SOL    HW112967   4.478   2.858   4.459
 4313SOL    HW212968   4.336   2.931   4.427
 4314SOL     OW12969   4.059   3.297   4.785
 4314SOL    HW112970   3.981   3.266   4.732
 4314SOL    HW212971   4.117   3.355   4.728
 4315SOL     OW12972   5.184   3.367   5.063
 4315SOL    HW112973   5.208   3.461   5.089
 4315SOL    HW212974   5.168   3.313   5.145
 4316SOL     OW12975   4.162   2.254   5.223
 4316SOL    HW112976   4.244   2.198   5.232
 4316SOL    HW212977   4.081   2.196   5.227
 4317SOL     OW12978   3.955   3.575   4.207
 4317SOL    HW112979   3.989   3.652   4.261
 4317SOL    HW212980   3.999   3.575   4.117
 4318SOL     OW12981   3.954   3.296   4.262
 4318SOL    HW112982   3.928   3.392   4.262
 4318SOL    HW212983   3.883   3.242   4.307
 4319SOL     OW12984   3.964   2.953   4.610
 4319SOL    HW112985   3.978   2.869   4.662
 4319SOL    HW212986   3.909   3.017   4.665
 4320SOL     OW12987   4.344   3.648   5.163
 4320SOL    HW112988   4.252   3.631   5.198
 4320SOL    HW212989   4.372   3.740   5.189
 4321SOL     OW12990   4.330   2.826   3.847
 4321SOL    HW112991   4.337   2.910   3.793
 4321SOL    HW212992   4.376   2.839   3.935
 4322SOL     OW12993   3.846   2.505   4.287
 4322SOL    HW112994   3.801   2.417   4.304
 4322SOL    HW212995   3.845   2.559   4.371
 4323SOL     OW12996   3.751   3.458   3.841
 4323SOL    HW112997   3.732   3.362   3.862
 4323SOL    HW212998   3.718   3.516   3.916
 4324SOL     OW12999   5.413   2.784   4.336
 4324SOL    HW113000   5.508   2.755   4.344
 4324SOL    HW213001   5.405   2.849   4.261
 4325SOL     OW13002   4.337   3.227   4.450
 4325SOL    HW113003   4.288   3.140   4.459
 4325SOL    HW213004   4.314   3.270   4.363
 4326SOL     OW13005   5.017   3.090   5.147
 4326SOL    HW113006   5.054   3.017   5.089
 4326SOL    HW213007   5.069   3.095   5.232
 4327SOL     OW13008   4.533   1.866   4.226
 4327SOL    HW113009   4.573   1.957   4.217
 4327SOL    HW213010   4.433   1.874   4.232
 4328SOL     OW13011   3.921   2.838   4.988
 4328SOL    HW113012   4.010   2.793   4.974
 4328SOL    HW213013   3.848   2.773   4.969
 4329SOL     OW13014   5.190   3.279   4.677
 4329SOL    HW113015   5.131   3.285   4.757
 4329SOL    HW213016   5.175   3.191   4.631
 4330SOL     OW13017   5.391   3.576   4.296
 4330SOL    HW113018   5.350   3.553   4.208
 4330SOL    HW213019   5.373   3.502   4.361
 4331SOL     OW13020   4.322   2.591   3.994
 4331SOL    HW113021   4.346   2.660   3.926
 4331SOL    HW213022   4.244   2.624   4.048
 4332SOL     OW13023   5.005   2.207   4.668
 4332SOL    HW113024   4.919   2.157   4.655
 4332SOL    HW213025   5.067   2.153   4.724
 4333SOL     OW13026   4.531   2.467   5.189
 4333SOL    HW113027   4.484   2.464   5.278
 4333SOL    HW213028   4.480   2.412   5.123
 4334SOL     OW13029   4.697   2.752   5.296
 4334SOL    HW113030   4.743   2.668   5.267
 4334SOL    HW213031   4.641   2.786   5.221
 4335SOL     OW13032   4.715   2.272   4.966
 4335SOL    HW113033   4.638   2.306   5.020
 4335SOL    HW213034   4.681   2.221   4.887
 4336SOL     OW13035   4.765   2.563   4.153
 4336SOL    HW113036   4.791   2.559   4.249
 4336SOL    HW213037   4.680   2.512   4.139
 4337SOL     OW13038   3.800   2.673   4.513
 4337SOL    HW113039   3.899   2.661   4.522
 4337SOL    HW213040   3.776   2.768   4.534
 4338SOL     OW13041   3.854   3.683   5.295
 4338SOL    HW113042   3.844   3.668   5.394
 4338SOL    HW213043   3.768   3.719   5.259
 4339SOL     OW13044   4.589   2.210   3.919
 4339SOL    HW113045   4.648   2.273   3.870
 4339SOL    HW213046   4.608   2.116   3.890
 4340SOL     OW13047   5.086   3.006   4.269
 4340SOL    HW113048   5.169   2.977   4.221
 4340SOL    HW213049   5.037   3.073   4.213
 4341SOL     OW13050   4.274   2.058   4.609
 4341SOL    HW113051   4.269   2.053   4.709
 4341SOL    HW213052   4.276   2.154   4.580
 4342SOL     OW13053   4.732   3.318   4.201
 4342SOL    HW113054   4.686   3.390   4.149
 4342SOL    HW213055   4.728   3.338   4.299
 4343SOL     OW13056   4.075   3.663   4.577
 4343SOL    HW113057   4.125   3.577   4.583
 4343SOL    HW213058   4.140   3.740   4.574
 4344SOL     OW13059   4.045   2.805   3.966
 4344SOL    HW113060   4.127   2.844   3.924
 4344SOL    HW213061   4.018   2.723   3.917
 4345SOL     OW13062   4.835   3.638   3.961
 4345SOL    HW113063   4.775   3.576   4.011
 4345SOL    HW213064   4.866   3.594   3.876
 4346SOL     OW13065   3.926   2.147   5.222
 4346SOL    HW113066   3.846   2.207   5.209
 4346SOL    HW213067   3.916   2.098   5.308
 4347SOL     OW13068   4.188   3.605   4.047
 4347SOL    HW113069   4.221   3.644   4.133
 4347SOL    HW213070   4.264   3.598   3.982
 4348SOL     OW13071   5.124   1.969   4.150
 4348SOL    HW113072   5.100   1.932   4.060
 4348SOL    HW213073   5.223   1.985   4.154
 4349SOL     OW13074   3.973   3.647   4.965
 4349SOL    HW113075   4.030   3.582   5.015
 4349SOL    HW213076   3.957   3.614   4.872
 4350SOL     OW13077   4.664   3.560   4.628
 4350SOL    HW113078   4.744   3.503   4.649
 4350SOL    HW213079   4.615   3.520   4.551
 4351SOL     OW13080   4.106   2.562   4.204
 4351SOL    HW113081   4.151   2.472   4.201
 4351SOL    HW213082   4.012   2.551   4.237
 4352SOL     OW13083   4.338   1.984   3.841
 4352SOL    HW113084   4.436   1.962   3.848
 4352SOL    HW213085   4.307   1.967   3.748
 4353SOL     OW13086   4.612   3.376   4.919
 4353SOL    HW113087   4.589   3.351   4.825
 4353SOL    HW213088   4.673   3.307   4.958
 4354SOL     OW13089   5.075   2.452   5.157
 4354SOL    HW113090   5.103   2.409   5.242
 4354SOL    HW213091   5.100   2.548   5.158
 4355SOL     OW13092   4.527   3.264   4.648
 4355SOL    HW113093   4.617   3.278   4.606
 4355SOL    HW213094   4.456   3.266   4.577
 4356SOL     OW13095   4.646   2.365   4.623
 4356SOL    HW113096   4.621   2.356   4.527
 4356SOL    HW213097   4.694   2.283   4.654
 4357SOL     OW13098   4.263   1.926   4.236
 4357SOL    HW113099   4.182   1.927   4.294
 4357SOL    HW213100   4.266   2.009   4.181
 4358SOL     OW13101   5.158   3.050   3.765
 4358SOL    HW113102   5.190   2.974   3.822
 4358SOL    HW213103   5.066   3.077   3.795
 4359SOL     OW13104   4.021   1.897   3.895
 4359SOL    HW113105   4.070   1.981   3.874
 4359SOL    HW213106   4.083   1.832   3.940
 4360SOL     OW13107   4.659   2.098   4.204
 4360SOL    HW113108   4.611   2.139   4.126
 4360SOL    HW213109   4.758   2.096   4.185
 4361SOL     OW13110   4.951   3.432   4.517
 4361SOL    HW113111   4.972   3.506   4.452
 4361SOL    HW213112   5.019   3.432   4.590
 4362SOL     OW13113   4.183   3.014   4.465
 4362SOL    HW113114   4.112   2.987   4.530
 4362SOL    HW213115   4.157   2.986   4.372
 4363SOL     OW13116   4.995   3.659   4.315
 4363SOL    HW113117   5.039   3.723   4.251
 4363SOL    HW213118   4.945   3.711   4.385
 4364SOL     OW13119   4.756   2.411   3.740
 4364SOL    HW113120   4.715   2.493   3.701
 4364SOL    HW213121   4.820   2.437   3.813
 4365SOL     OW13122   3.802   2.418   5.110
 4365SOL    HW113123   3.894   2.417   5.069
 4365SOL    HW213124   3.796   2.492   5.177
 4366SOL     OW13125   4.285   2.084   4.871
 4366SOL    HW113126   4.323   2.000   4.908
 4366SOL    HW213127   4.197   2.103   4.915
 4367SOL     OW13128   4.590   2.316   4.366
 4367SOL    HW113129   4.558   2.388   4.304
 4367SOL    HW213130   4.614   2.235   4.313
 4368SOL     OW13131   4.741   1.901   4.477
 4368SOL    HW113132   4.669   1.906   4.408
 4368SOL    HW213133   4.717   1.832   4.546
 4369SOL     OW13134   5.153   3.035   4.591
 4369SOL    HW113135   5.098   2.951   4.584
 4369SOL    HW213136   5.179   3.064   4.499
 4370SOL     OW13137   4.212   3.247   3.898
 4370SOL    HW113138   4.125   3.232   3.945
 4370SOL    HW213139   4.195   3.273   3.803
 4371SOL     OW13140   5.114   2.437   3.802
 4371SOL    HW113141   5.060   2.416   3.883
 4371SOL    HW213142   5.205   2.396   3.811
 4372SOL     OW13143   4.251   2.118   4.052
 4372SOL    HW113144   4.278   2.059   3.977
 4372SOL    HW213145   4.251   2.213   4.021
 4373SOL     OW13146   4.788   3.209   5.064
 4373SOL    HW113147   4.708   3.186   5.119
 4373SOL    HW213148   4.871   3.183   5.113
 4374SOL     OW13149   4.835   3.057   4.824
 4374SOL    HW113150   4.795   3.101   4.905
 4374SOL    HW213151   4.794   3.094   4.741
 4375SOL     OW13152   4.639   1.951   5.126
 4375SOL    HW113153   4.664   1.931   5.031
 4375SOL    HW213154   4.711   2.007   5.168
 4376SOL     OW13155   4.429   2.912   4.092
 4376SOL    HW113156   4.415   2.919   4.191
 4376SOL    HW213157   4.513   2.861   4.074
 4377SOL     OW13158   4.134   2.675   4.975
 4377SOL    HW113159   4.220   2.687   5.025
 4377SOL    HW213160   4.092   2.588   5.002
 4378SOL     OW13161   4.998   2.248   4.986
 4378SOL    HW113162   5.019   2.322   5.050
 4378SOL    HW213163   4.909   2.265   4.943
 4379SOL     OW13164   3.788   3.426   5.055
 4379SOL    HW113165   3.742   3.508   5.021
 4379SOL    HW213166   3.886   3.445   5.064
 4380SOL     OW13167   4.091   2.962   4.225
 4380SOL    HW113168   4.084   3.045   4.169
 4380SOL    HW213169   4.095   2.882   4.165
 4381SOL     OW13170   4.290   2.399   4.589
 4381SOL    HW113171   4.302   2.465   4.515
 4381SOL    HW213172   4.336   2.433   4.672
 4382SOL     OW13173   4.976   3.210   4.112
 4382SOL    HW113174   5.026   3.287   4.152
 4382SOL    HW213175   4.881   3.212   4.144
 4383SOL     OW13176   4.996   3.307   4.866
 4383SOL    HW113177   5.043   3.320   4.953
 4383SOL    HW213178   4.930   3.233   4.875
 4384SOL     OW13179   4.078   3.372   5.053
 4384SOL    HW113180   4.057   3.328   4.966
 4384SOL    HW213181   4.175   3.398   5.056
 4385SOL     OW13182   4.126   2.613   5.322
 4385SOL    HW113183   4.194   2.668   5.275
 4385SOL    HW213184   4.166   2.525   5.349
 4386SOL     OW13185   5.311   2.641   5.394
 4386SOL    HW113186   5.219   2.679   5.389
 4386SOL    HW213187   5.371   2.688   5.329
 4387SOL     OW13188   4.297   2.732   4.753
 4387SOL    HW113189   4.341   2.821   4.744
 4387SOL    HW213190   4.234   2.732   4.830
 4388SOL     OW13191   5.084   2.724   4.769
 4388SOL    HW113192   5.009   2.724   4.703
 4388SOL    HW213193   5.121   2.632   4.778
 4389SOL     OW13194   4.933   2.387   3.999
 4389SOL    HW113195   4.946   2.303   4.053
 4389SOL    HW213196   4.904   2.461   4.059
 4390SOL     OW13197   4.031   2.075   4.955
 4390SOL    HW113198   4.008   2.112   5.045
 4390SOL    HW213199   4.001   1.980   4.949
 4391SOL     OW13200   3.761   3.172   5.006
 4391SOL    HW113201   3.814   3.123   5.074
 4391SOL    HW213202   3.783   3.270   5.011
 4392SOL     OW13203   4.456   2.496   4.788
 4392SOL    HW113204   4.515   2.470   4.712
 4392SOL    HW213205   4.428   2.592   4.777
 4393SOL     OW13206   4.031   1.925   4.342
 4393SOL    HW113207   4.020   2.019   4.375
 4393SOL    HW213208   4.026   1.862   4.419
 4394SOL     OW13209   5.346   2.229   4.098
 4394SOL    HW113210   5.348   2.153   4.162
 4394SOL    HW213211   5.298   2.306   4.138
 4395SOL     OW13212   4.747   2.628   4.690
 4395SOL    HW113213   4.762   2.649   4.786
 4395SOL    HW213214   4.717   2.533   4.681
 4396SOL     OW13215   4.704   3.435   5.424
 4396SOL    HW113216   4.684   3.479   5.336
 4396SOL    HW213217   4.743   3.344   5.408
 4397SOL     OW13218   5.027   2.700   3.766
 4397SOL    HW113219   5.061   2.607   3.781
 4397SOL    HW213220   5.045   2.727   3.671
 4398SOL     OW13221   4.792   3.195   4.573
 4398SOL    HW113222   4.799   3.111   4.518
 4398SOL    HW213223   4.854   3.264   4.537
 4399SOL     OW13224   4.043   2.672   4.673
 4399SOL    HW113225   4.136   2.708   4.678
 4399SOL    HW213226   4.037   2.587   4.725
 4400SOL     OW13227   4.063   2.371   4.730
 4400SOL    HW113228   4.011   2.288   4.713
 4400SOL    HW213229   4.140   2.376   4.666
 4401SOL     OW13230   4.862   2.242   5.402
 4401SOL    HW113231   4.817   2.305   5.466
 4401SOL    HW213232   4.955   2.273   5.385
 4402SOL     OW13233   4.884   2.069   5.201
 4402SOL    HW113234   4.884   2.133   5.278
 4402SOL    HW213235   4.912   2.117   5.118
 4403SOL     OW13236   3.732   3.188   3.924
 4403SOL    HW113237   3.639   3.209   3.893
 4403SOL    HW213238   3.742   3.089   3.937
 4404SOL     OW13239   3.812   3.663   4.651
 4404SOL    HW113240   3.770   3.577   4.624
 4404SOL    HW213241   3.906   3.666   4.617
 4405SOL     OW13242   4.228   3.430   4.634
 4405SOL    HW113243   4.294   3.504   4.643
 4405SOL    HW213244   4.272   3.351   4.592
 4406SOL     OW13245   4.726   2.658   4.962
 4406SOL    HW113246   4.767   2.626   5.048
 4406SOL    HW213247   4.630   2.631   4.959
 4407SOL     OW13248   3.764   2.406   4.838
 4407SOL    HW113249   3.849   2.373   4.797
 4407SOL    HW213250   3.777   2.421   4.936
 4408SOL     OW13251   4.539   2.434   4.049
 4408SOL    HW113252   4.546   2.345   4.003
 4408SOL    HW213253   4.445   2.468   4.041
 4409SOL     OW13254   3.976   3.426   5.468
 4409SOL    HW113255   3.946   3.483   5.544
 4409SOL    HW213256   3.969   3.329   5.494
 4410SOL     OW13257   4.395   2.326   4.993
 4410SOL    HW113258   4.361   2.237   4.963
 4410SOL    HW213259   4.421   2.380   4.913
 4411SOL     OW13260   4.654   3.540   5.189
 4411SOL    HW113261   4.630   3.522   5.094
 4411SOL    HW213262   4.684   3.634   5.199
 4412SOL     OW13263   4.197   2.362   3.915
 4412SOL    HW113264   4.258   2.442   3.919
 4412SOL    HW213265   4.102   2.393   3.922
 4413SOL     OW13266   3.883   2.999   5.190
 4413SOL    HW113267   3.905   2.938   5.266
 4413SOL    HW213268   3.893   2.950   5.104
 4414SOL     OW13269   5.071   2.921   4.958
 4414SOL    HW113270   5.095   2.858   4.884
 4414SOL    HW213271   4.981   2.961   4.940
 4415SOL     OW13272   5.026   2.717   4.033
 4415SOL    HW113273   4.940   2.686   4.075
 4415SOL    HW213274   5.022   2.703   3.934
 4416SOL     OW13275   4.976   3.593   4.852
 4416SOL    HW113276   5.060   3.598   4.798
 4416SOL    HW213277   4.953   3.497   4.870
 4417SOL     OW13278   3.807   3.120   4.746
 4417SOL    HW113279   3.802   3.119   4.846
 4417SOL    HW213280   3.724   3.079   4.708
 4418SOL     OW13281   5.450   1.997   4.247
 4418SOL    HW113282   5.523   1.980   4.180
 4418SOL    HW213283   5.419   1.910   4.285
 4419SOL     OW13284   5.112   3.435   4.201
 4419SOL    HW113285   5.179   3.447   4.127
 4419SOL    HW213286   5.072   3.524   4.224
 4420SOL     OW13287   5.004   2.789   4.396
 4420SOL    HW113288   5.064   2.708   4.398
 4420SOL    HW213289   5.044   2.858   4.336
 4421SOL     OW13290   4.396   3.478   3.878
 4421SOL    HW113291   4.405   3.488   3.779
 4421SOL    HW213292   4.356   3.389   3.899
 4422SOL     OW13293   3.987   2.188   4.444
 4422SOL    HW113294   3.908   2.239   4.410
 4422SOL    HW213295   3.978   2.173   4.542
 4423SOL     OW13296   4.918   3.474   3.755
 4423SOL    HW113297   4.924   3.381   3.792
 4423SOL    HW213298   4.859   3.474   3.675
 4424SOL     OW13299   4.546   2.864   5.096
 4424SOL    HW113300   4.586   2.863   5.004
 4424SOL    HW213301   4.556   2.956   5.136
 4425SOL     OW13302   4.640   2.772   4.015
 4425SOL    HW113303   4.703   2.810   3.947
 4425SOL    HW213304   4.680   2.689   4.054
 4426SOL     OW13305   4.096   3.150   5.214
 4426SOL    HW113306   4.083   3.243   5.180
 4426SOL    HW213307   4.012   3.098   5.201
 4427SOL     OW13308   4.763   2.960   4.420
 4427SOL    HW113309   4.693   2.913   4.474
 4427SOL    HW213310   4.822   2.892   4.377
 4428SOL     OW13311   4.738   2.098   4.695
 4428SOL    HW113312   4.730   2.062   4.602
 4428SOL    HW213313   4.736   2.022   4.760
 4429SOL     OW13314   4.314   3.349   4.215
 4429SOL    HW113315   4.356   3.291   4.145
 4429SOL    HW213316   4.270   3.428   4.171
 4430SOL     OW13317   3.979   3.210   4.014
 4430SOL    HW113318   3.883   3.211   3.987
 4430SOL    HW213319   3.991   3.263   4.098
 4431SOL     OW13320   4.396   2.065   5.213
 4431SOL    HW113321   4.486   2.049   5.173
 4431SOL    HW213322   4.404   2.070   5.312
 4432SOL     OW13323   3.799   2.207   3.757
 4432SOL    HW113324   3.707   2.179   3.728
 4432SOL    HW213325   3.830   2.284   3.701
 4433SOL     OW13326   5.164   2.718   5.122
 4433SOL    HW113327   5.107   2.770   5.059
 4433SOL    HW213328   5.260   2.730   5.098
 4434SOL     OW13329   3.796   2.028   4.042
 4434SOL    HW113330   3.779   2.111   3.988
 4434SOL    HW213331   3.886   1.991   4.020
 4435SOL     OW13332   4.907   3.197   3.843
 4435SOL    HW113333   4.808   3.186   3.845
 4435SOL    HW213334   4.941   3.212   3.936
 4436SOL     OW13335   4.337   2.704   5.155
 4436SOL    HW113336   4.393   2.785   5.138
 4436SOL    HW213337   4.396   2.624   5.158
 4437SOL     OW13338   5.217   3.629   4.683
 4437SOL    HW113339   5.250   3.693   4.614
 4437SOL    HW213340   5.283   3.623   4.758
 4438SOL     OW13341   4.114   3.603   5.284
 4438SOL    HW113342   4.023   3.644   5.282
 4438SOL    HW213343   4.107   3.509   5.316
 4439SOL     OW13344   4.949   2.187   4.173
 4439SOL    HW113345   5.014   2.113   4.162
 4439SOL    HW213346   4.969   2.237   4.257
 4440SOL     OW13347   4.318   2.607   4.376
 4440SOL    HW113348   4.368   2.692   4.357
 4440SOL    HW213349   4.230   2.609   4.328
 4441SOL     OW13350   4.583   3.236   3.740
 4441SOL    HW113351   4.537   3.251   3.828
 4441SOL    HW213352   4.627   3.321   3.710
 4442SOL     OW13353   4.385   3.652   4.677
 4442SOL    HW113354   4.339   3.740   4.664
 4442SOL    HW213355   4.484   3.664   4.670
 4443SOL     OW13356   4.583   2.818   4.585
 4443SOL    HW113357   4.637   2.749   4.633
 4443SOL    HW213358   4.551   2.887   4.651
 4444SOL     OW13359   4.807   2.846   3.811
 4444SOL    HW113360   4.784   2.899   3.729
 4444SOL    HW213361   4.888   2.790   3.792
 4445SOL     OW13362   3.803   3.102   4.377
 4445SOL    HW113363   3.802   3.055   4.465
 4445SOL    HW213364   3.885   3.074   4.326
 4446SOL     OW13365   4.152   2.286   4.244
 4446SOL    HW113366   4.182   2.214   4.182
 4446SOL    HW213367   4.113   2.246   4.327
 4447SOL     OW13368   4.041   2.409   5.004
 4447SOL    HW113369   4.079   2.350   5.076
 4447SOL    HW213370   4.081   2.383   4.916
 4448SOL     OW13371   4.536   3.448   4.411
 4448SOL    HW113372   4.568   3.458   4.317
 4448SOL    HW213373   4.457   3.386   4.413
 4449SOL     OW13374   5.148   2.076   4.836
 4449SOL    HW113375   5.200   2.011   4.891
 4449SOL    HW213376   5.099   2.139   4.897
 4450SOL     OW13377   4.725   1.896   4.878
 4450SOL    HW113378   4.662   1.824   4.847
 4450SOL    HW213379   4.818   1.860   4.878
 4451SOL     OW13380   4.494   3.192   4.025
 4451SOL    HW113381   4.448   3.105   4.042
 4451SOL    HW213382   4.585   3.189   4.066
 4452SOL     OW13383   4.342   3.429   5.008
 4452SOL    HW113384   4.337   3.511   5.065
 4452SOL    HW213385   4.431   3.426   4.963
 4453SOL     OW13386   5.076   1.914   3.892
 4453SOL    HW113387   5.111   1.873   3.808
 4453SOL    HW213388   4.986   1.876   3.912
 4454SOL     OW13389   5.024   2.315   4.415
 4454SOL    HW113390   4.965   2.395   4.419
 4454SOL    HW213391   5.039   2.280   4.508
 4455SOL     OW13392   5.317   2.083   4.606
 4455SOL    HW113393   5.233   2.082   4.660
 4455SOL    HW213394   5.319   2.166   4.550
 4456SOL     OW13395   3.763   2.939   4.024
 4456SOL    HW113396   3.862   2.928   4.015
 4456SOL    HW213397   3.723   2.853   4.056
 4457SOL     OW13398   4.599   3.508   4.061
 4457SOL    HW113399   4.522   3.473   4.007
 4457SOL    HW213400   4.567   3.579   4.123
 4458SOL     OW13401   3.954   4.352   0.113
 4458SOL    HW113402   3.861   4.350   0.150
 4458SOL    HW213403   3.955   4.313   0.021
 4459SOL     OW13404   3.949   3.999   0.996
 4459SOL    HW113405   3.984   3.982   1.088
 4459SOL    HW213406   3.861   3.954   0.984
 4460SOL     OW13407   3.743   4.092   0.647
 4460SOL    HW113408   3.661   4.135   0.686
 4460SOL    HW213409   3.715   4.019   0.584
 4461SOL     OW13410   4.293   4.999   1.165
 4461SOL    HW113411   4.200   4.992   1.128
 4461SOL    HW213412   4.304   5.088   1.209
 4462SOL     OW13413   5.279   5.235   0.703
 4462SOL    HW113414   5.222   5.219   0.784
 4462SOL    HW213415   5.220   5.245   0.623
 4463SOL     OW13416   4.859   4.427   0.717
 4463SOL    HW113417   4.916   4.505   0.692
 4463SOL    HW213418   4.799   4.453   0.793
 4464SOL     OW13419   4.492   4.868   1.023
 4464SOL    HW113420   4.414   4.885   1.083
 4464SOL    HW213421   4.526   4.955   0.987
 4465SOL     OW13422   4.574   4.522   1.823
 4465SOL    HW113423   4.570   4.598   1.888
 4465SOL    HW213424   4.596   4.558   1.732
 4466SOL     OW13425   4.409   4.736   0.665
 4466SOL    HW113426   4.478   4.720   0.735
 4466SOL    HW213427   4.336   4.793   0.703
 4467SOL     OW13428   4.410   4.885   1.803
 4467SOL    HW113429   4.470   4.964   1.817
 4467SOL    HW213430   4.324   4.916   1.762
 4468SOL     OW13431   4.059   5.159   1.061
 4468SOL    HW113432   3.981   5.128   1.008
 4468SOL    HW213433   4.117   5.217   1.004
 4469SOL     OW13434   5.184   5.229   1.339
 4469SOL    HW113435   5.208   5.323   1.365
 4469SOL    HW213436   5.168   5.175   1.421
 4470SOL     OW13437   4.162   4.116   1.499
 4470SOL    HW113438   4.244   4.060   1.508
 4470SOL    HW213439   4.081   4.058   1.503
 4471SOL     OW13440   4.851   5.065   1.690
 4471SOL    HW113441   4.898   5.065   1.778
 4471SOL    HW213442   4.803   4.978   1.679
 4472SOL     OW13443   3.954   5.158   0.538
 4472SOL    HW113444   3.928   5.254   0.538
 4472SOL    HW213445   3.883   5.104   0.583
 4473SOL     OW13446   3.964   4.815   0.886
 4473SOL    HW113447   3.978   4.731   0.938
 4473SOL    HW213448   3.909   4.879   0.941
 4474SOL     OW13449   4.330   4.688   0.123
 4474SOL    HW113450   4.337   4.772   0.069
 4474SOL    HW213451   4.376   4.701   0.211
 4475SOL     OW13452   3.846   4.367   0.563
 4475SOL    HW113453   3.801   4.279   0.580
 4475SOL    HW213454   3.845   4.421   0.647
 4476SOL     OW13455   3.751   5.320   0.117
 4476SOL    HW113456   3.732   5.224   0.138
 4476SOL    HW213457   3.718   5.378   0.192
 4477SOL     OW13458   5.413   4.646   0.612
 4477SOL    HW113459   5.508   4.617   0.620
 4477SOL    HW213460   5.405   4.711   0.537
 4478SOL     OW13461   3.837   4.461   1.597
 4478SOL    HW113462   3.925   4.448   1.642
 4478SOL    HW213463   3.824   4.558   1.575
 4479SOL     OW13464   4.337   5.089   0.726
 4479SOL    HW113465   4.288   5.002   0.735
 4479SOL    HW213466   4.314   5.132   0.639
 4480SOL     OW13467   5.017   4.952   1.423
 4480SOL    HW113468   5.054   4.879   1.365
 4480SOL    HW213469   5.069   4.957   1.508
 4481SOL     OW13470   4.533   3.728   0.502
 4481SOL    HW113471   4.573   3.819   0.493
 4481SOL    HW213472   4.433   3.736   0.508
 4482SOL     OW13473   3.921   4.700   1.264
 4482SOL    HW113474   4.010   4.655   1.250
 4482SOL    HW213475   3.848   4.635   1.245
 4483SOL     OW13476   4.041   3.975   1.801
 4483SOL    HW113477   4.112   4.046   1.807
 4483SOL    HW213478   3.953   4.014   1.829
 4484SOL     OW13479   5.190   5.141   0.953
 4484SOL    HW113480   5.131   5.147   1.033
 4484SOL    HW213481   5.175   5.053   0.907
 4485SOL     OW13482   4.322   4.453   0.270
 4485SOL    HW113483   4.346   4.522   0.202
 4485SOL    HW213484   4.244   4.486   0.324
 4486SOL     OW13485   5.005   4.069   0.944
 4486SOL    HW113486   4.919   4.019   0.931
 4486SOL    HW213487   5.067   4.015   1.000
 4487SOL     OW13488   4.531   4.329   1.465
 4487SOL    HW113489   4.484   4.326   1.554
 4487SOL    HW213490   4.480   4.274   1.399
 4488SOL     OW13491   5.118   4.193   1.674
 4488SOL    HW113492   5.098   4.236   1.762
 4488SOL    HW213493   5.196   4.131   1.683
 4489SOL     OW13494   4.697   4.614   1.572
 4489SOL    HW113495   4.743   4.530   1.543
 4489SOL    HW213496   4.641   4.648   1.497
 4490SOL     OW13497   4.715   4.134   1.242
 4490SOL    HW113498   4.638   4.168   1.296
 4490SOL    HW213499   4.681   4.083   1.163
 4491SOL     OW13500   4.765   4.425   0.429
 4491SOL    HW113501   4.791   4.421   0.525
 4491SOL    HW213502   4.680   4.374   0.415
 4492SOL     OW13503   3.800   4.535   0.789
 4492SOL    HW113504   3.899   4.523   0.798
 4492SOL    HW213505   3.776   4.630   0.810
 4493SOL     OW13506   4.589   4.072   0.195
 4493SOL    HW113507   4.648   4.135   0.146
 4493SOL    HW213508   4.608   3.978   0.166
 4494SOL     OW13509   5.086   4.868   0.545
 4494SOL    HW113510   5.169   4.839   0.497
 4494SOL    HW213511   5.037   4.935   0.489
 4495SOL     OW13512   4.274   3.920   0.885
 4495SOL    HW113513   4.269   3.915   0.985
 4495SOL    HW213514   4.276   4.016   0.856
 4496SOL     OW13515   4.732   5.180   0.477
 4496SOL    HW113516   4.686   5.252   0.425
 4496SOL    HW213517   4.728   5.200   0.575
 4497SOL     OW13518   4.951   5.274   1.506
 4497SOL    HW113519   4.957   5.197   1.570
 4497SOL    HW213520   4.899   5.248   1.426
 4498SOL     OW13521   4.045   4.667   0.242
 4498SOL    HW113522   4.127   4.706   0.200
 4498SOL    HW213523   4.018   4.585   0.193
 4499SOL     OW13524   4.185   4.990   1.727
 4499SOL    HW113525   4.135   4.991   1.641
 4499SOL    HW213526   4.122   4.972   1.803
 4500SOL     OW13527   4.835   5.500   0.237
 4500SOL    HW113528   4.775   5.438   0.287
 4500SOL    HW213529   4.866   5.456   0.152
 4501SOL     OW13530   3.926   4.009   1.498
 4501SOL    HW113531   3.846   4.069   1.485
 4501SOL    HW213532   3.916   3.960   1.584
 4502SOL     OW13533   5.124   3.831   0.426
 4502SOL    HW113534   5.100   3.794   0.336
 4502SOL    HW213535   5.223   3.847   0.430
 4503SOL     OW13536   4.106   4.424   0.480
 4503SOL    HW113537   4.151   4.334   0.477
 4503SOL    HW213538   4.012   4.413   0.513
 4504SOL     OW13539   4.338   3.846   0.117
 4504SOL    HW113540   4.436   3.824   0.124
 4504SOL    HW213541   4.307   3.829   0.024
 4505SOL     OW13542   4.505   3.988   1.749
 4505SOL    HW113543   4.572   3.927   1.792
 4505SOL    HW213544   4.432   4.007   1.814
 4506SOL     OW13545   5.075   4.314   1.433
 4506SOL    HW113546   5.103   4.271   1.518
 4506SOL    HW213547   5.100   4.410   1.434
 4507SOL     OW13548   4.527   5.126   0.924
 4507SOL    HW113549   4.617   5.140   0.882
 4507SOL    HW213550   4.456   5.128   0.853
 4508SOL     OW13551   4.646   4.227   0.899
 4508SOL    HW113552   4.621   4.218   0.803
 4508SOL    HW213553   4.694   4.145   0.930
 4509SOL     OW13554   4.263   3.788   0.512
 4509SOL    HW113555   4.182   3.789   0.570
 4509SOL    HW213556   4.266   3.871   0.457
 4510SOL     OW13557   5.158   4.912   0.041
 4510SOL    HW113558   5.190   4.836   0.098
 4510SOL    HW213559   5.066   4.939   0.071
 4511SOL     OW13560   4.021   3.759   0.171
 4511SOL    HW113561   4.070   3.843   0.150
 4511SOL    HW213562   4.083   3.694   0.216
 4512SOL     OW13563   4.659   3.960   0.480
 4512SOL    HW113564   4.611   4.001   0.402
 4512SOL    HW213565   4.758   3.958   0.461
 4513SOL     OW13566   4.800   4.407   1.464
 4513SOL    HW113567   4.720   4.346   1.467
 4513SOL    HW213568   4.881   4.354   1.440
 4514SOL     OW13569   4.951   5.294   0.793
 4514SOL    HW113570   4.972   5.368   0.728
 4514SOL    HW213571   5.019   5.294   0.866
 4515SOL     OW13572   4.183   4.876   0.741
 4515SOL    HW113573   4.112   4.849   0.806
 4515SOL    HW213574   4.157   4.848   0.648
 4516SOL     OW13575   4.756   4.273   0.016
 4516SOL    HW113576   4.715   4.355  -0.023
 4516SOL    HW213577   4.820   4.299   0.089
 4517SOL     OW13578   3.802   4.280   1.386
 4517SOL    HW113579   3.894   4.279   1.345
 4517SOL    HW213580   3.796   4.354   1.453
 4518SOL     OW13581   4.285   3.946   1.147
 4518SOL    HW113582   4.323   3.862   1.184
 4518SOL    HW213583   4.197   3.965   1.191
 4519SOL     OW13584   4.590   4.178   0.642
 4519SOL    HW113585   4.558   4.250   0.580
 4519SOL    HW213586   4.614   4.097   0.589
 4520SOL     OW13587   4.741   3.763   0.753
 4520SOL    HW113588   4.669   3.768   0.684
 4520SOL    HW213589   4.717   3.694   0.822
 4521SOL     OW13590   5.153   4.897   0.867
 4521SOL    HW113591   5.098   4.813   0.860
 4521SOL    HW213592   5.179   4.926   0.775
 4522SOL     OW13593   4.212   5.109   0.174
 4522SOL    HW113594   4.125   5.094   0.221
 4522SOL    HW213595   4.195   5.135   0.079
 4523SOL     OW13596   5.114   4.299   0.078
 4523SOL    HW113597   5.060   4.278   0.159
 4523SOL    HW213598   5.205   4.258   0.087
 4524SOL     OW13599   4.251   3.980   0.328
 4524SOL    HW113600   4.278   3.921   0.253
 4524SOL    HW213601   4.251   4.075   0.297
 4525SOL     OW13602   4.788   5.071   1.340
 4525SOL    HW113603   4.708   5.048   1.395
 4525SOL    HW213604   4.871   5.045   1.389
 4526SOL     OW13605   4.835   4.919   1.100
 4526SOL    HW113606   4.795   4.963   1.181
 4526SOL    HW213607   4.794   4.956   1.017
 4527SOL     OW13608   4.639   3.813   1.402
 4527SOL    HW113609   4.664   3.793   1.307
 4527SOL    HW213610   4.711   3.869   1.444
 4528SOL     OW13611   4.704   4.840   1.719
 4528SOL    HW113612   4.605   4.846   1.729
 4528SOL    HW213613   4.727   4.760   1.663
 4529SOL     OW13614   4.429   4.774   0.368
 4529SOL    HW113615   4.415   4.781   0.467
 4529SOL    HW213616   4.513   4.723   0.350
 4530SOL     OW13617   4.134   4.537   1.251
 4530SOL    HW113618   4.220   4.549   1.301
 4530SOL    HW213619   4.092   4.450   1.278
 4531SOL     OW13620   4.998   4.110   1.262
 4531SOL    HW113621   5.019   4.184   1.326
 4531SOL    HW213622   4.909   4.127   1.219
 4532SOL     OW13623   4.091   4.824   0.501
 4532SOL    HW113624   4.084   4.907   0.445
 4532SOL    HW213625   4.095   4.744   0.441
 4533SOL     OW13626   4.290   4.261   0.865
 4533SOL    HW113627   4.302   4.327   0.791
 4533SOL    HW213628   4.336   4.295   0.948
 4534SOL     OW13629   4.976   5.072   0.388
 4534SOL    HW113630   5.026   5.149   0.428
 4534SOL    HW213631   4.881   5.074   0.420
 4535SOL     OW13632   4.996   5.169   1.142
 4535SOL    HW113633   5.043   5.182   1.229
 4535SOL    HW213634   4.930   5.095   1.151
 4536SOL     OW13635   4.078   5.234   1.329
 4536SOL    HW113636   4.057   5.190   1.242
 4536SOL    HW213637   4.175   5.260   1.332
 4537SOL     OW13638   4.126   4.475   1.598
 4537SOL    HW113639   4.194   4.530   1.551
 4537SOL    HW213640   4.166   4.387   1.625
 4538SOL     OW13641   4.737   3.829   1.770
 4538SOL    HW113642   4.743   3.914   1.718
 4538SOL    HW213643   4.769   3.753   1.713
 4539SOL     OW13644   4.228   3.774   1.740
 4539SOL    HW113645   4.186   3.717   1.670
 4539SOL    HW213646   4.162   3.843   1.772
 4540SOL     OW13647   4.297   4.594   1.029
 4540SOL    HW113648   4.341   4.683   1.020
 4540SOL    HW213649   4.234   4.594   1.106
 4541SOL     OW13650   5.084   4.586   1.045
 4541SOL    HW113651   5.009   4.586   0.979
 4541SOL    HW213652   5.121   4.494   1.054
 4542SOL     OW13653   4.933   4.249   0.275
 4542SOL    HW113654   4.946   4.165   0.329
 4542SOL    HW213655   4.904   4.323   0.335
 4543SOL     OW13656   4.031   3.937   1.231
 4543SOL    HW113657   4.008   3.974   1.321
 4543SOL    HW213658   4.001   3.842   1.225
 4544SOL     OW13659   3.761   5.034   1.282
 4544SOL    HW113660   3.814   4.985   1.350
 4544SOL    HW213661   3.783   5.132   1.287
 4545SOL     OW13662   4.456   4.358   1.064
 4545SOL    HW113663   4.515   4.332   0.988
 4545SOL    HW213664   4.428   4.454   1.053
 4546SOL     OW13665   4.031   3.787   0.618
 4546SOL    HW113666   4.020   3.881   0.651
 4546SOL    HW213667   4.026   3.724   0.695
 4547SOL     OW13668   5.346   4.091   0.374
 4547SOL    HW113669   5.348   4.015   0.438
 4547SOL    HW213670   5.298   4.168   0.414
 4548SOL     OW13671   4.747   4.490   0.966
 4548SOL    HW113672   4.762   4.511   1.062
 4548SOL    HW213673   4.717   4.395   0.957
 4549SOL     OW13674   4.074   4.622   1.804
 4549SOL    HW113675   4.150   4.666   1.852
 4549SOL    HW213676   4.109   4.575   1.722
 4550SOL     OW13677   5.027   4.562   0.042
 4550SOL    HW113678   5.061   4.469   0.057
 4550SOL    HW213679   5.045   4.589  -0.053
 4551SOL     OW13680   4.792   5.057   0.849
 4551SOL    HW113681   4.799   4.973   0.794
 4551SOL    HW213682   4.854   5.126   0.813
 4552SOL     OW13683   4.043   4.534   0.949
 4552SOL    HW113684   4.136   4.570   0.954
 4552SOL    HW213685   4.037   4.449   1.001
 4553SOL     OW13686   4.063   4.233   1.006
 4553SOL    HW113687   4.011   4.150   0.989
 4553SOL    HW213688   4.140   4.238   0.942
 4554SOL     OW13689   4.862   4.104   1.678
 4554SOL    HW113690   4.817   4.167   1.742
 4554SOL    HW213691   4.955   4.135   1.661
 4555SOL     OW13692   4.884   3.931   1.477
 4555SOL    HW113693   4.884   3.995   1.554
 4555SOL    HW213694   4.912   3.979   1.394
 4556SOL     OW13695   3.732   5.050   0.200
 4556SOL    HW113696   3.639   5.071   0.169
 4556SOL    HW213697   3.742   4.951   0.213
 4557SOL     OW13698   4.726   4.520   1.238
 4557SOL    HW113699   4.767   4.488   1.324
 4557SOL    HW213700   4.630   4.493   1.235
 4558SOL     OW13701   3.764   4.268   1.114
 4558SOL    HW113702   3.849   4.235   1.073
 4558SOL    HW213703   3.777   4.283   1.212
 4559SOL     OW13704   3.913   4.244   1.722
 4559SOL    HW113705   3.972   4.204   1.652
 4559SOL    HW213706   3.855   4.315   1.681
 4560SOL     OW13707   5.093   4.674   1.660
 4560SOL    HW113708   5.132   4.763   1.680
 4560SOL    HW213709   5.103   4.654   1.563
 4561SOL     OW13710   4.539   4.296   0.325
 4561SOL    HW113711   4.546   4.207   0.279
 4561SOL    HW213712   4.445   4.330   0.317
 4562SOL     OW13713   3.976   5.288   1.744
 4562SOL    HW113714   3.946   5.345   1.820
 4562SOL    HW213715   3.969   5.191   1.770
 4563SOL     OW13716   4.395   4.188   1.269
 4563SOL    HW113717   4.361   4.099   1.239
 4563SOL    HW213718   4.421   4.242   1.189
 4564SOL     OW13719   4.197   4.224   0.191
 4564SOL    HW113720   4.258   4.304   0.195
 4564SOL    HW213721   4.102   4.255   0.198
 4565SOL     OW13722   3.883   4.861   1.466
 4565SOL    HW113723   3.905   4.800   1.542
 4565SOL    HW213724   3.893   4.812   1.380
 4566SOL     OW13725   5.071   4.783   1.234
 4566SOL    HW113726   5.095   4.720   1.160
 4566SOL    HW213727   4.981   4.823   1.216
 4567SOL     OW13728   5.026   4.579   0.309
 4567SOL    HW113729   4.940   4.548   0.351
 4567SOL    HW213730   5.022   4.565   0.210
 4568SOL     OW13731   3.807   4.982   1.022
 4568SOL    HW113732   3.802   4.981   1.122
 4568SOL    HW213733   3.724   4.941   0.984
 4569SOL     OW13734   4.412   5.386   1.716
 4569SOL    HW113735   4.356   5.467   1.725
 4569SOL    HW213736   4.464   5.390   1.630
 4570SOL     OW13737   4.627   3.810   0.133
 4570SOL    HW113738   4.678   3.811   0.047
 4570SOL    HW213739   4.683   3.768   0.204
 4571SOL     OW13740   5.450   3.859   0.523
 4571SOL    HW113741   5.523   3.842   0.456
 4571SOL    HW213742   5.419   3.772   0.561
 4572SOL     OW13743   5.004   4.651   0.672
 4572SOL    HW113744   5.064   4.570   0.674
 4572SOL    HW213745   5.044   4.720   0.612
 4573SOL     OW13746   4.554   4.997   1.422
 4573SOL    HW113747   4.549   5.030   1.517
 4573SOL    HW213748   4.468   5.016   1.376
 4574SOL     OW13749   3.987   4.050   0.720
 4574SOL    HW113750   3.908   4.101   0.686
 4574SOL    HW213751   3.978   4.035   0.818
 4575SOL     OW13752   4.918   5.336   0.031
 4575SOL    HW113753   4.924   5.243   0.068
 4575SOL    HW213754   4.859   5.336  -0.049
 4576SOL     OW13755   4.546   4.726   1.372
 4576SOL    HW113756   4.586   4.725   1.280
 4576SOL    HW213757   4.556   4.818   1.412
 4577SOL     OW13758   4.640   4.634   0.291
 4577SOL    HW113759   4.703   4.672   0.223
 4577SOL    HW213760   4.680   4.551   0.330
 4578SOL     OW13761   4.096   5.012   1.490
 4578SOL    HW113762   4.083   5.105   1.456
 4578SOL    HW213763   4.012   4.960   1.477
 4579SOL     OW13764   4.763   4.822   0.696
 4579SOL    HW113765   4.693   4.775   0.750
 4579SOL    HW213766   4.822   4.754   0.653
 4580SOL     OW13767   4.738   3.960   0.971
 4580SOL    HW113768   4.730   3.924   0.878
 4580SOL    HW213769   4.736   3.884   1.036
 4581SOL     OW13770   3.979   5.072   0.290
 4581SOL    HW113771   3.883   5.073   0.263
 4581SOL    HW213772   3.991   5.125   0.374
 4582SOL     OW13773   3.829   4.737   1.726
 4582SOL    HW113774   3.752   4.704   1.780
 4582SOL    HW213775   3.914   4.707   1.768
 4583SOL     OW13776   4.396   3.927   1.489
 4583SOL    HW113777   4.486   3.911   1.449
 4583SOL    HW213778   4.404   3.932   1.588
 4584SOL     OW13779   5.164   4.580   1.398
 4584SOL    HW113780   5.107   4.632   1.335
 4584SOL    HW213781   5.260   4.592   1.374
 4585SOL     OW13782   3.796   3.890   0.318
 4585SOL    HW113783   3.779   3.973   0.264
 4585SOL    HW213784   3.886   3.853   0.296
 4586SOL     OW13785   4.907   5.059   0.119
 4586SOL    HW113786   4.808   5.048   0.121
 4586SOL    HW213787   4.941   5.074   0.212
 4587SOL     OW13788   4.337   4.566   1.431
 4587SOL    HW113789   4.393   4.647   1.414
 4587SOL    HW213790   4.396   4.486   1.434
 4588SOL     OW13791   4.440   4.289   1.708
 4588SOL    HW113792   4.459   4.354   1.782
 4588SOL    HW213793   4.500   4.209   1.717
 4589SOL     OW13794   5.174   4.944   1.633
 4589SOL    HW113795   5.165   4.934   1.732
 4589SOL    HW213796   5.270   4.937   1.607
 4590SOL     OW13797   4.949   4.049   0.449
 4590SOL    HW113798   5.014   3.975   0.438
 4590SOL    HW213799   4.969   4.099   0.533
 4591SOL     OW13800   4.318   4.469   0.652
 4591SOL    HW113801   4.368   4.554   0.633
 4591SOL    HW213802   4.230   4.471   0.604
 4592SOL     OW13803   4.583   5.098   0.016
 4592SOL    HW113804   4.537   5.113   0.104
 4592SOL    HW213805   4.627   5.183  -0.014
 4593SOL     OW13806   5.132   5.575   1.720
 4593SOL    HW113807   5.036   5.564   1.693
 4593SOL    HW213808   5.188   5.508   1.672
 4594SOL     OW13809   4.583   4.680   0.861
 4594SOL    HW113810   4.637   4.611   0.909
 4594SOL    HW213811   4.551   4.749   0.927
 4595SOL     OW13812   4.807   4.708   0.087
 4595SOL    HW113813   4.784   4.761   0.005
 4595SOL    HW213814   4.888   4.652   0.068
 4596SOL     OW13815   3.945   5.038   1.844
 4596SOL    HW113816   3.880   4.965   1.823
 4596SOL    HW213817   3.949   5.052   1.942
 4597SOL     OW13818   3.803   4.964   0.653
 4597SOL    HW113819   3.802   4.917   0.741
 4597SOL    HW213820   3.885   4.936   0.602
 4598SOL     OW13821   4.396   5.115   1.624
 4598SOL    HW113822   4.318   5.065   1.662
 4598SOL    HW213823   4.393   5.210   1.655
 4599SOL     OW13824   4.152   4.148   0.520
 4599SOL    HW113825   4.182   4.076   0.458
 4599SOL    HW213826   4.113   4.108   0.603
 4600SOL     OW13827   4.041   4.271   1.280
 4600SOL    HW113828   4.079   4.212   1.352
 4600SOL    HW213829   4.081   4.245   1.192
 4601SOL     OW13830   5.148   3.938   1.112
 4601SOL    HW113831   5.200   3.873   1.167
 4601SOL    HW213832   5.099   4.001   1.173
 4602SOL     OW13833   4.725   3.758   1.154
 4602SOL    HW113834   4.662   3.686   1.123
 4602SOL    HW213835   4.818   3.722   1.154
 4603SOL     OW13836   4.494   5.054   0.301
 4603SOL    HW113837   4.448   4.967   0.318
 4603SOL    HW213838   4.585   5.051   0.342
 4604SOL     OW13839   4.342   5.291   1.284
 4604SOL    HW113840   4.337   5.373   1.341
 4604SOL    HW213841   4.431   5.288   1.239
 4605SOL     OW13842   5.076   3.776   0.168
 4605SOL    HW113843   5.111   3.735   0.084
 4605SOL    HW213844   4.986   3.738   0.188
 4606SOL     OW13845   5.024   4.177   0.691
 4606SOL    HW113846   4.965   4.257   0.695
 4606SOL    HW213847   5.039   4.142   0.784
 4607SOL     OW13848   5.317   3.945   0.882
 4607SOL    HW113849   5.233   3.944   0.936
 4607SOL    HW213850   5.319   4.028   0.826
 4608SOL     OW13851   3.763   4.801   0.300
 4608SOL    HW113852   3.862   4.790   0.291
 4608SOL    HW213853   3.723   4.715   0.332
 4609SOL     OW13854   3.954   4.352   1.975
 4609SOL    HW113855   3.861   4.350   2.012
 4609SOL    HW213856   3.955   4.313   1.883
 4610SOL     OW13857   3.949   3.999   2.858
 4610SOL    HW113858   3.984   3.982   2.950
 4610SOL    HW213859   3.861   3.954   2.846
 4611SOL     OW13860   3.743   4.092   2.509
 4611SOL    HW113861   3.661   4.135   2.548
 4611SOL    HW213862   3.715   4.019   2.446
 4612SOL     OW13863   4.293   4.999   3.027
 4612SOL    HW113864   4.200   4.992   2.990
 4612SOL    HW213865   4.304   5.088   3.071
 4613SOL     OW13866   5.279   5.235   2.565
 4613SOL    HW113867   5.222   5.219   2.646
 4613SOL    HW213868   5.220   5.245   2.485
 4614SOL     OW13869   4.859   4.427   2.579
 4614SOL    HW113870   4.916   4.505   2.554
 4614SOL    HW213871   4.799   4.453   2.655
 4615SOL     OW13872   4.492   4.868   2.885
 4615SOL    HW113873   4.414   4.885   2.945
 4615SOL    HW213874   4.526   4.955   2.849
 4616SOL     OW13875   4.574   4.522   3.685
 4616SOL    HW113876   4.570   4.598   3.750
 4616SOL    HW213877   4.596   4.558   3.594
 4617SOL     OW13878   4.409   4.736   2.527
 4617SOL    HW113879   4.478   4.720   2.597
 4617SOL    HW213880   4.336   4.793   2.565
 4618SOL     OW13881   4.410   4.885   3.665
 4618SOL    HW113882   4.470   4.964   3.679
 4618SOL    HW213883   4.324   4.916   3.624
 4619SOL     OW13884   4.059   5.159   2.923
 4619SOL    HW113885   3.981   5.128   2.870
 4619SOL    HW213886   4.117   5.217   2.866
 4620SOL     OW13887   5.184   5.229   3.201
 4620SOL    HW113888   5.208   5.323   3.227
 4620SOL    HW213889   5.168   5.175   3.283
 4621SOL     OW13890   4.162   4.116   3.361
 4621SOL    HW113891   4.244   4.060   3.370
 4621SOL    HW213892   4.081   4.058   3.365
 4622SOL     OW13893   4.851   5.065   3.552
 4622SOL    HW113894   4.898   5.065   3.640
 4622SOL    HW213895   4.803   4.978   3.541
 4623SOL     OW13896   3.954   5.158   2.400
 4623SOL    HW113897   3.928   5.254   2.400
 4623SOL    HW213898   3.883   5.104   2.445
 4624SOL     OW13899   3.964   4.815   2.748
 4624SOL    HW113900   3.978   4.731   2.800
 4624SOL    HW213901   3.909   4.879   2.803
 4625SOL     OW13902   4.330   4.688   1.985
 4625SOL    HW113903   4.337   4.772   1.931
 4625SOL    HW213904   4.376   4.701   2.073
 4626SOL     OW13905   3.846   4.367   2.425
 4626SOL    HW113906   3.801   4.279   2.442
 4626SOL    HW213907   3.845   4.421   2.509
 4627SOL     OW13908   3.751   5.320   1.979
 4627SOL    HW113909   3.732   5.224   2.000
 4627SOL    HW213910   3.718   5.378   2.054
 4628SOL     OW13911   5.413   4.646   2.474
 4628SOL    HW113912   5.508   4.617   2.482
 4628SOL    HW213913   5.405   4.711   2.399
 4629SOL     OW13914   3.837   4.461   3.459
 4629SOL    HW113915   3.925   4.448   3.504
 4629SOL    HW213916   3.824   4.558   3.437
 4630SOL     OW13917   4.337   5.089   2.588
 4630SOL    HW113918   4.288   5.002   2.597
 4630SOL    HW213919   4.314   5.132   2.501
 4631SOL     OW13920   5.017   4.952   3.285
 4631SOL    HW113921   5.054   4.879   3.227
 4631SOL    HW213922   5.069   4.957   3.370
 4632SOL     OW13923   4.533   3.728   2.364
 4632SOL    HW113924   4.573   3.819   2.355
 4632SOL    HW213925   4.433   3.736   2.370
 4633SOL     OW13926   3.921   4.700   3.126
 4633SOL    HW113927   4.010   4.655   3.112
 4633SOL    HW213928   3.848   4.635   3.107
 4634SOL     OW13929   4.041   3.975   3.663
 4634SOL    HW113930   4.112   4.046   3.669
 4634SOL    HW213931   3.953   4.014   3.691
 4635SOL     OW13932   5.190   5.141   2.815
 4635SOL    HW113933   5.131   5.147   2.895
 4635SOL    HW213934   5.175   5.053   2.769
 4636SOL     OW13935   4.322   4.453   2.132
 4636SOL    HW113936   4.346   4.522   2.064
 4636SOL    HW213937   4.244   4.486   2.186
 4637SOL     OW13938   5.005   4.069   2.806
 4637SOL    HW113939   4.919   4.019   2.793
 4637SOL    HW213940   5.067   4.015   2.862
 4638SOL     OW13941   4.531   4.329   3.327
 4638SOL    HW113942   4.484   4.326   3.416
 4638SOL    HW213943   4.480   4.274   3.261
 4639SOL     OW13944   5.118   4.193   3.536
 4639SOL    HW113945   5.098   4.236   3.624
 4639SOL    HW213946   5.196   4.131   3.545
 4640SOL     OW13947   4.697   4.614   3.434
 4640SOL    HW113948   4.743   4.530   3.405
 4640SOL    HW213949   4.641   4.648   3.359
 4641SOL     OW13950   4.715   4.134   3.104
 4641SOL    HW113951   4.638   4.168   3.158
 4641SOL    HW213952   4.681   4.083   3.025
 4642SOL     OW13953   4.765   4.425   2.291
 4642SOL    HW113954   4.791   4.421   2.387
 4642SOL    HW213955   4.680   4.374   2.277
 4643SOL     OW13956   3.800   4.535   2.651
 4643SOL    HW113957   3.899   4.523   2.660
 4643SOL    HW213958   3.776   4.630   2.672
 4644SOL     OW13959   4.589   4.072   2.057
 4644SOL    HW113960   4.648   4.135   2.008
 4644SOL    HW213961   4.608   3.978   2.028
 4645SOL     OW13962   5.086   4.868   2.407
 4645SOL    HW113963   5.169   4.839   2.359
 4645SOL    HW213964   5.037   4.935   2.351
 4646SOL     OW13965   4.274   3.920   2.747
 4646SOL    HW113966   4.269   3.915   2.847
 4646SOL    HW213967   4.276   4.016   2.718
 4647SOL     OW13968   4.732   5.180   2.339
 4647SOL    HW113969   4.686   5.252   2.287
 4647SOL    HW213970   4.728   5.200   2.437
 4648SOL     OW13971   4.951   5.274   3.368
 4648SOL    HW113972   4.957   5.197   3.432
 4648SOL    HW213973   4.899   5.248   3.288
 4649SOL     OW13974   4.045   4.667   2.104
 4649SOL    HW113975   4.127   4.706   2.062
 4649SOL    HW213976   4.018   4.585   2.055
 4650SOL     OW13977   4.185   4.990   3.589
 4650SOL    HW113978   4.135   4.991   3.503
 4650SOL    HW213979   4.122   4.972   3.665
 4651SOL     OW13980   4.835   5.500   2.099
 4651SOL    HW113981   4.775   5.438   2.149
 4651SOL    HW213982   4.866   5.456   2.014
 4652SOL     OW13983   3.926   4.009   3.360
 4652SOL    HW113984   3.846   4.069   3.347
 4652SOL    HW213985   3.916   3.960   3.446
 4653SOL     OW13986   5.124   3.831   2.288
 4653SOL    HW113987   5.100   3.794   2.198
 4653SOL    HW213988   5.223   3.847   2.292
 4654SOL     OW13989   4.106   4.424   2.342
 4654SOL    HW113990   4.151   4.334   2.339
 4654SOL    HW213991   4.012   4.413   2.375
 4655SOL     OW13992   4.338   3.846   1.979
 4655SOL    HW113993   4.436   3.824   1.986
 4655SOL    HW213994   4.307   3.829   1.886
 4656SOL     OW13995   4.505   3.988   3.611
 4656SOL    HW113996   4.572   3.927   3.654
 4656SOL    HW213997   4.432   4.007   3.676
 4657SOL     OW13998   5.075   4.314   3.295
 4657SOL    HW113999   5.103   4.271   3.380
 4657SOL    HW214000   5.100   4.410   3.296
 4658SOL     OW14001   4.527   5.126   2.786
 4658SOL    HW114002   4.617   5.140   2.744
 4658SOL    HW214003   4.456   5.128   2.715
 4659SOL     OW14004   4.646   4.227   2.761
 4659SOL    HW114005   4.621   4.218   2.665
 4659SOL    HW214006   4.694   4.145   2.792
 4660SOL     OW14007   4.263   3.788   2.374
 4660SOL    HW114008   4.182   3.789   2.432
 4660SOL    HW214009   4.266   3.871   2.319
 4661SOL     OW14010   5.158   4.912   1.903
 4661SOL    HW114011   5.190   4.836   1.960
 4661SOL    HW214012   5.066   4.939   1.933
 4662SOL     OW14013   4.021   3.759   2.033
 4662SOL    HW114014   4.070   3.843   2.012
 4662SOL    HW214015   4.083   3.694   2.078
 4663SOL     OW14016   4.659   3.960   2.342
 4663SOL    HW114017   4.611   4.001   2.264
 4663SOL    HW214018   4.758   3.958   2.323
 4664SOL     OW14019   4.800   4.407   3.326
 4664SOL    HW114020   4.720   4.346   3.329
 4664SOL    HW214021   4.881   4.354   3.302
 4665SOL     OW14022   4.951   5.294   2.655
 4665SOL    HW114023   4.972   5.368   2.590
 4665SOL    HW214024   5.019   5.294   2.728
 4666SOL     OW14025   4.183   4.876   2.603
 4666SOL    HW114026   4.112   4.849   2.668
 4666SOL    HW214027   4.157   4.848   2.510
 4667SOL     OW14028   4.756   4.273   1.878
 4667SOL    HW114029   4.715   4.355   1.839
 4667SOL    HW214030   4.820   4.299   1.951
 4668SOL     OW14031   3.802   4.280   3.248
 4668SOL    HW114032   3.894   4.279   3.207
 4668SOL    HW214033   3.796   4.354   3.315
 4669SOL     OW14034   4.285   3.946   3.009
 4669SOL    HW114035   4.323   3.862   3.046
 4669SOL    HW214036   4.197   3.965   3.053
 4670SOL     OW14037   4.590   4.178   2.504
 4670SOL    HW114038   4.558   4.250   2.442
 4670SOL    HW214039   4.614   4.097   2.451
 4671SOL     OW14040   4.741   3.763   2.615
 4671SOL    HW114041   4.669   3.768   2.546
 4671SOL    HW214042   4.717   3.694   2.684
 4672SOL     OW14043   5.153   4.897   2.729
 4672SOL    HW114044   5.098   4.813   2.722
 4672SOL    HW214045   5.179   4.926   2.637
 4673SOL     OW14046   4.212   5.109   2.036
 4673SOL    HW114047   4.125   5.094   2.083
 4673SOL    HW214048   4.195   5.135   1.941
 4674SOL     OW14049   5.114   4.299   1.940
 4674SOL    HW114050   5.060   4.278   2.021
 4674SOL    HW214051   5.205   4.258   1.949
 4675SOL     OW14052   4.251   3.980   2.190
 4675SOL    HW114053   4.278   3.921   2.115
 4675SOL    HW214054   4.251   4.075   2.159
 4676SOL     OW14055   4.788   5.071   3.202
 4676SOL    HW114056   4.708   5.048   3.257
 4676SOL    HW214057   4.871   5.045   3.251
 4677SOL     OW14058   4.835   4.919   2.962
 4677SOL    HW114059   4.795   4.963   3.043
 4677SOL    HW214060   4.794   4.956   2.879
 4678SOL     OW14061   4.639   3.813   3.264
 4678SOL    HW114062   4.664   3.793   3.169
 4678SOL    HW214063   4.711   3.869   3.306
 4679SOL     OW14064   4.704   4.840   3.581
 4679SOL    HW114065   4.605   4.846   3.591
 4679SOL    HW214066   4.727   4.760   3.525
 4680SOL     OW14067   4.429   4.774   2.230
 4680SOL    HW114068   4.415   4.781   2.329
 4680SOL    HW214069   4.513   4.723   2.212
 4681SOL     OW14070   4.134   4.537   3.113
 4681SOL    HW114071   4.220   4.549   3.163
 4681SOL    HW214072   4.092   4.450   3.140
 4682SOL     OW14073   4.998   4.110   3.124
 4682SOL    HW114074   5.019   4.184   3.188
 4682SOL    HW214075   4.909   4.127   3.081
 4683SOL     OW14076   4.091   4.824   2.363
 4683SOL    HW114077   4.084   4.907   2.307
 4683SOL    HW214078   4.095   4.744   2.303
 4684SOL     OW14079   4.290   4.261   2.727
 4684SOL    HW114080   4.302   4.327   2.653
 4684SOL    HW214081   4.336   4.295   2.810
 4685SOL     OW14082   4.976   5.072   2.250
 4685SOL    HW114083   5.026   5.149   2.290
 4685SOL    HW214084   4.881   5.074   2.282
 4686SOL     OW14085   4.996   5.169   3.004
 4686SOL    HW114086   5.043   5.182   3.091
 4686SOL    HW214087   4.930   5.095   3.013
 4687SOL     OW14088   4.078   5.234   3.191
 4687SOL    HW114089   4.057   5.190   3.104
 4687SOL    HW214090   4.175   5.260   3.194
 4688SOL     OW14091   4.126   4.475   3.460
 4688SOL    HW114092   4.194   4.530   3.413
 4688SOL    HW214093   4.166   4.387   3.487
 4689SOL     OW14094   4.737   3.829   3.632
 4689SOL    HW114095   4.743   3.914   3.580
 4689SOL    HW214096   4.769   3.753   3.575
 4690SOL     OW14097   4.228   3.774   3.602
 4690SOL    HW114098   4.186   3.717   3.532
 4690SOL    HW214099   4.162   3.843   3.634
 4691SOL     OW14100   4.297   4.594   2.891
 4691SOL    HW114101   4.341   4.683   2.882
 4691SOL    HW214102   4.234   4.594   2.968
 4692SOL     OW14103   5.084   4.586   2.907
 4692SOL    HW114104   5.009   4.586   2.841
 4692SOL    HW214105   5.121   4.494   2.916
 4693SOL     OW14106   4.933   4.249   2.137
 4693SOL    HW114107   4.946   4.165   2.191
 4693SOL    HW214108   4.904   4.323   2.197
 4694SOL     OW14109   4.031   3.937   3.093
 4694SOL    HW114110   4.008   3.974   3.183
 4694SOL    HW214111   4.001   3.842   3.087
 4695SOL     OW14112   3.761   5.034   3.144
 4695SOL    HW114113   3.814   4.985   3.212
 4695SOL    HW214114   3.783   5.132   3.149
 4696SOL     OW14115   4.456   4.358   2.926
 4696SOL    HW114116   4.515   4.332   2.850
 4696SOL    HW214117   4.428   4.454   2.915
 4697SOL     OW14118   4.031   3.787   2.480
 4697SOL    HW114119   4.020   3.881   2.513
 4697SOL    HW214120   4.026   3.724   2.557
 4698SOL     OW14121   5.346   4.091   2.236
 4698SOL    HW114122   5.348   4.015   2.300
 4698SOL    HW214123   5.298   4.168   2.276
 4699SOL     OW14124   4.747   4.490   2.828
 4699SOL    HW114125   4.762   4.511   2.924
 4699SOL    HW214126   4.717   4.395   2.819
 4700SOL     OW14127   4.074   4.622   3.666
 4700SOL    HW114128   4.150   4.666   3.714
 4700SOL    HW214129   4.109   4.575   3.584
 4701SOL     OW14130   5.027   4.562   1.904
 4701SOL    HW114131   5.061   4.469   1.919
 4701SOL    HW214132   5.045   4.589   1.809
 4702SOL     OW14133   4.792   5.057   2.711
 4702SOL    HW114134   4.799   4.973   2.656
 4702SOL    HW214135   4.854   5.126   2.675
 4703SOL     OW14136   4.043   4.534   2.811
 4703SOL    HW114137   4.136   4.570   2.816
 4703SOL    HW214138   4.037   4.449   2.863
 4704SOL     OW14139   4.063   4.233   2.868
 4704SOL    HW114140   4.011   4.150   2.851
 4704SOL    HW214141   4.140   4.238   2.804
 4705SOL     OW14142   4.862   4.104   3.540
 4705SOL    HW114143   4.817   4.167   3.604
 4705SOL    HW214144   4.955   4.135   3.523
 4706SOL     OW14145   4.884   3.931   3.339
 4706SOL    HW114146   4.884   3.995   3.416
 4706SOL    HW214147   4.912   3.979   3.256
 4707SOL     OW14148   3.732   5.050   2.062
 4707SOL    HW114149   3.639   5.071   2.031
 4707SOL    HW214150   3.742   4.951   2.075
 4708SOL     OW14151   4.726   4.520   3.100
 4708SOL    HW114152   4.767   4.488   3.186
 4708SOL    HW214153   4.630   4.493   3.097
 4709SOL     OW14154   3.764   4.268   2.976
 4709SOL    HW114155   3.849   4.235   2.935
 4709SOL    HW214156   3.777   4.283   3.074
 4710SOL     OW14157   3.913   4.244   3.584
 4710SOL    HW114158   3.972   4.204   3.514
 4710SOL    HW214159   3.855   4.315   3.543
 4711SOL     OW14160   5.093   4.674   3.522
 4711SOL    HW114161   5.132   4.763   3.542
 4711SOL    HW214162   5.103   4.654   3.425
 4712SOL     OW14163   4.539   4.296   2.187
 4712SOL    HW114164   4.546   4.207   2.141
 4712SOL    HW214165   4.445   4.330   2.179
 4713SOL     OW14166   3.976   5.288   3.606
 4713SOL    HW114167   3.946   5.345   3.682
 4713SOL    HW214168   3.969   5.191   3.632
 4714SOL     OW14169   4.395   4.188   3.131
 4714SOL    HW114170   4.361   4.099   3.101
 4714SOL    HW214171   4.421   4.242   3.051
 4715SOL     OW14172   4.197   4.224   2.053
 4715SOL    HW114173   4.258   4.304   2.057
 4715SOL    HW214174   4.102   4.255   2.060
 4716SOL     OW14175   3.883   4.861   3.328
 4716SOL    HW114176   3.905   4.800   3.404
 4716SOL    HW214177   3.893   4.812   3.242
 4717SOL     OW14178   5.071   4.783   3.096
 4717SOL    HW114179   5.095   4.720   3.022
 4717SOL    HW214180   4.981   4.823   3.078
 4718SOL     OW14181   5.026   4.579   2.171
 4718SOL    HW114182   4.940   4.548   2.213
 4718SOL    HW214183   5.022   4.565   2.072
 4719SOL     OW14184   3.807   4.982   2.884
 4719SOL    HW114185   3.802   4.981   2.984
 4719SOL    HW214186   3.724   4.941   2.846
 4720SOL     OW14187   4.412   5.386   3.578
 4720SOL    HW114188   4.356   5.467   3.587
 4720SOL    HW214189   4.464   5.390   3.492
 4721SOL     OW14190   5.450   3.859   2.385
 4721SOL    HW114191   5.523   3.842   2.318
 4721SOL    HW214192   5.419   3.772   2.423
 4722SOL     OW14193   5.004   4.651   2.534
 4722SOL    HW114194   5.064   4.570   2.536
 4722SOL    HW214195   5.044   4.720   2.474
 4723SOL     OW14196   4.554   4.997   3.284
 4723SOL    HW114197   4.549   5.030   3.379
 4723SOL    HW214198   4.468   5.016   3.238
 4724SOL     OW14199   3.987   4.050   2.582
 4724SOL    HW114200   3.908   4.101   2.548
 4724SOL    HW214201   3.978   4.035   2.680
 4725SOL     OW14202   4.546   4.726   3.234
 4725SOL    HW114203   4.586   4.725   3.142
 4725SOL    HW214204   4.556   4.818   3.274
 4726SOL     OW14205   4.640   4.634   2.153
 4726SOL    HW114206   4.703   4.672   2.085
 4726SOL    HW214207   4.680   4.551   2.192
 4727SOL     OW14208   4.096   5.012   3.352
 4727SOL    HW114209   4.083   5.105   3.318
 4727SOL    HW214210   4.012   4.960   3.339
 4728SOL     OW14211   4.763   4.822   2.558
 4728SOL    HW114212   4.693   4.775   2.612
 4728SOL    HW214213   4.822   4.754   2.515
 4729SOL     OW14214   4.738   3.960   2.833
 4729SOL    HW114215   4.730   3.924   2.740
 4729SOL    HW214216   4.736   3.884   2.898
 4730SOL     OW14217   3.979   5.072   2.152
 4730SOL    HW114218   3.883   5.073   2.125
 4730SOL    HW214219   3.991   5.125   2.236
 4731SOL     OW14220   3.829   4.737   3.588
 4731SOL    HW114221   3.752   4.704   3.642
 4731SOL    HW214222   3.914   4.707   3.630
 4732SOL     OW14223   4.396   3.927   3.351
 4732SOL    HW114224   4.486   3.911   3.311
 4732SOL    HW214225   4.404   3.932   3.450
 4733SOL     OW14226   3.799   4.069   1.895
 4733SOL    HW114227   3.707   4.041   1.866
 4733SOL    HW214228   3.830   4.146   1.839
 4734SOL     OW14229   5.164   4.580   3.260
 4734SOL    HW114230   5.107   4.632   3.197
 4734SOL    HW214231   5.260   4.592   3.236
 4735SOL     OW14232   3.796   3.890   2.180
 4735SOL    HW114233   3.779   3.973   2.126
 4735SOL    HW214234   3.886   3.853   2.158
 4736SOL     OW14235   4.907   5.059   1.981
 4736SOL    HW114236   4.808   5.048   1.983
 4736SOL    HW214237   4.941   5.074   2.074
 4737SOL     OW14238   4.337   4.566   3.293
 4737SOL    HW114239   4.393   4.647   3.276
 4737SOL    HW214240   4.396   4.486   3.296
 4738SOL     OW14241   4.440   4.289   3.570
 4738SOL    HW114242   4.459   4.354   3.644
 4738SOL    HW214243   4.500   4.209   3.579
 4739SOL     OW14244   5.174   4.944   3.495
 4739SOL    HW114245   5.165   4.934   3.594
 4739SOL    HW214246   5.270   4.937   3.469
 4740SOL     OW14247   4.949   4.049   2.311
 4740SOL    HW114248   5.014   3.975   2.300
 4740SOL    HW214249   4.969   4.099   2.395
 4741SOL     OW14250   4.318   4.469   2.514
 4741SOL    HW114251   4.368   4.554   2.495
 4741SOL    HW214252   4.230   4.471   2.466
 4742SOL     OW14253   4.583   5.098   1.878
 4742SOL    HW114254   4.537   5.113   1.966
 4742SOL    HW214255   4.627   5.183   1.848
 4743SOL     OW14256   5.132   5.575   3.582
 4743SOL    HW114257   5.036   5.564   3.555
 4743SOL    HW214258   5.188   5.508   3.534
 4744SOL     OW14259   4.583   4.680   2.723
 4744SOL    HW114260   4.637   4.611   2.771
 4744SOL    HW214261   4.551   4.749   2.789
 4745SOL     OW14262   4.807   4.708   1.949
 4745SOL    HW114263   4.784   4.761   1.867
 4745SOL    HW214264   4.888   4.652   1.930
 4746SOL     OW14265   3.945   5.038   3.706
 4746SOL    HW114266   3.880   4.965   3.685
 4746SOL    HW214267   3.949   5.052   3.804
 4747SOL     OW14268   3.803   4.964   2.515
 4747SOL    HW114269   3.802   4.917   2.603
 4747SOL    HW214270   3.885   4.936   2.464
 4748SOL     OW14271   4.396   5.115   3.486
 4748SOL    HW114272   4.318   5.065   3.524
 4748SOL    HW214273   4.393   5.210   3.517
 4749SOL     OW14274   4.152   4.148   2.382
 4749SOL    HW114275   4.182   4.076   2.320
 4749SOL    HW214276   4.113   4.108   2.465
 4750SOL     OW14277   4.041   4.271   3.142
 4750SOL    HW114278   4.079   4.212   3.214
 4750SOL    HW214279   4.081   4.245   3.054
 4751SOL     OW14280   5.148   3.938   2.974
 4751SOL    HW114281   5.200   3.873   3.029
 4751SOL    HW214282   5.099   4.001   3.035
 4752SOL     OW14283   4.725   3.758   3.016
 4752SOL    HW114284   4.662   3.686   2.985
 4752SOL    HW214285   4.818   3.722   3.016
 4753SOL     OW14286   4.494   5.054   2.163
 4753SOL    HW114287   4.448   4.967   2.180
 4753SOL    HW214288   4.585   5.051   2.204
 4754SOL     OW14289   4.342   5.291   3.146
 4754SOL    HW114290   4.337   5.373   3.203
 4754SOL    HW214291   4.431   5.288   3.101
 4755SOL     OW14292   5.076   3.776   2.030
 4755SOL    HW114293   5.111   3.735   1.946
 4755SOL    HW214294   4.986   3.738   2.050
 4756SOL     OW14295   5.024   4.177   2.553
 4756SOL    HW114296   4.965   4.257   2.557
 4756SOL    HW214297   5.039   4.142   2.646
 4757SOL     OW14298   5.317   3.945   2.744
 4757SOL    HW114299   5.233   3.944   2.798
 4757SOL    HW214300   5.319   4.028   2.688
 4758SOL     OW14301   3.763   4.801   2.162
 4758SOL    HW114302   3.862   4.790   2.153
 4758SOL    HW214303   3.723   4.715   2.194
 4759SOL     OW14304   3.954   4.352   3.837
 4759SOL    HW114305   3.861   4.350   3.874
 4759SOL    HW214306   3.955   4.313   3.745
 4760SOL     OW14307   3.949   3.999   4.720
 4760SOL    HW114308   3.984   3.982   4.812
 4760SOL    HW214309   3.861   3.954   4.708
 4761SOL     OW14310   3.743   4.092   4.371
 4761SOL    HW114311   3.661   4.135   4.410
 4761SOL    HW214312   3.715   4.019   4.308
 4762SOL     OW14313   4.293   4.999   4.889
 4762SOL    HW114314   4.200   4.992   4.852
 4762SOL    HW214315   4.304   5.088   4.933
 4763SOL     OW14316   5.279   5.235   4.427
 4763SOL    HW114317   5.222   5.219   4.508
 4763SOL    HW214318   5.220   5.245   4.347
 4764SOL     OW14319   4.859   4.427   4.441
 4764SOL    HW114320   4.916   4.505   4.416
 4764SOL    HW214321   4.799   4.453   4.517
 4765SOL     OW14322   4.492   4.868   4.747
 4765SOL    HW114323   4.414   4.885   4.807
 4765SOL    HW214324   4.526   4.955   4.711
 4766SOL     OW14325   4.409   4.736   4.389
 4766SOL    HW114326   4.478   4.720   4.459
 4766SOL    HW214327   4.336   4.793   4.427
 4767SOL     OW14328   4.059   5.159   4.785
 4767SOL    HW114329   3.981   5.128   4.732
 4767SOL    HW214330   4.117   5.217   4.728
 4768SOL     OW14331   5.184   5.229   5.063
 4768SOL    HW114332   5.208   5.323   5.089
 4768SOL    HW214333   5.168   5.175   5.145
 4769SOL     OW14334   4.162   4.116   5.223
 4769SOL    HW114335   4.244   4.060   5.232
 4769SOL    HW214336   4.081   4.058   5.227
 4770SOL     OW14337   3.954   5.158   4.262
 4770SOL    HW114338   3.928   5.254   4.262
 4770SOL    HW214339   3.883   5.104   4.307
 4771SOL     OW14340   3.964   4.815   4.610
 4771SOL    HW114341   3.978   4.731   4.662
 4771SOL    HW214342   3.909   4.879   4.665
 4772SOL     OW14343   4.330   4.688   3.847
 4772SOL    HW114344   4.337   4.772   3.793
 4772SOL    HW214345   4.376   4.701   3.935
 4773SOL     OW14346   3.846   4.367   4.287
 4773SOL    HW114347   3.801   4.279   4.304
 4773SOL    HW214348   3.845   4.421   4.371
 4774SOL     OW14349   3.751   5.320   3.841
 4774SOL    HW114350   3.732   5.224   3.862
 4774SOL    HW214351   3.718   5.378   3.916
 4775SOL     OW14352   5.413   4.646   4.336
 4775SOL    HW114353   5.508   4.617   4.344
 4775SOL    HW214354   5.405   4.711   4.261
 4776SOL     OW14355   4.337   5.089   4.450
 4776SOL    HW114356   4.288   5.002   4.459
 4776SOL    HW214357   4.314   5.132   4.363
 4777SOL     OW14358   5.017   4.952   5.147
 4777SOL    HW114359   5.054   4.879   5.089
 4777SOL    HW214360   5.069   4.957   5.232
 4778SOL     OW14361   4.533   3.728   4.226
 4778SOL    HW114362   4.573   3.819   4.217
 4778SOL    HW214363   4.433   3.736   4.232
 4779SOL     OW14364   3.921   4.700   4.988
 4779SOL    HW114365   4.010   4.655   4.974
 4779SOL    HW214366   3.848   4.635   4.969
 4780SOL     OW14367   5.190   5.141   4.677
 4780SOL    HW114368   5.131   5.147   4.757
 4780SOL    HW214369   5.175   5.053   4.631
 4781SOL     OW14370   4.322   4.453   3.994
 4781SOL    HW114371   4.346   4.522   3.926
 4781SOL    HW214372   4.244   4.486   4.048
 4782SOL     OW14373   5.005   4.069   4.668
 4782SOL    HW114374   4.919   4.019   4.655
 4782SOL    HW214375   5.067   4.015   4.724
 4783SOL     OW14376   4.531   4.329   5.189
 4783SOL    HW114377   4.484   4.326   5.278
 4783SOL    HW214378   4.480   4.274   5.123
 4784SOL     OW14379   4.697   4.614   5.296
 4784SOL    HW114380   4.743   4.530   5.267
 4784SOL    HW214381   4.641   4.648   5.221
 4785SOL     OW14382   4.715   4.134   4.966
 4785SOL    HW114383   4.638   4.168   5.020
 4785SOL    HW214384   4.681   4.083   4.887
 4786SOL     OW14385   4.765   4.425   4.153
 4786SOL    HW114386   4.791   4.421   4.249
 4786SOL    HW214387   4.680   4.374   4.139
 4787SOL     OW14388   3.800   4.535   4.513
 4787SOL    HW114389   3.899   4.523   4.522
 4787SOL    HW214390   3.776   4.630   4.534
 4788SOL     OW14391   4.589   4.072   3.919
 4788SOL    HW114392   4.648   4.135   3.870
 4788SOL    HW214393   4.608   3.978   3.890
 4789SOL     OW14394   5.086   4.868   4.269
 4789SOL    HW114395   5.169   4.839   4.221
 4789SOL    HW214396   5.037   4.935   4.213
 4790SOL     OW14397   4.274   3.920   4.609
 4790SOL    HW114398   4.269   3.915   4.709
 4790SOL    HW214399   4.276   4.016   4.580
 4791SOL     OW14400   4.732   5.180   4.201
 4791SOL    HW114401   4.686   5.252   4.149
 4791SOL    HW214402   4.728   5.200   4.299
 4792SOL     OW14403   4.045   4.667   3.966
 4792SOL    HW114404   4.127   4.706   3.924
 4792SOL    HW214405   4.018   4.585   3.917
 4793SOL     OW14406   4.835   5.500   3.961
 4793SOL    HW114407   4.775   5.438   4.011
 4793SOL    HW214408   4.866   5.456   3.876
 4794SOL     OW14409   3.926   4.009   5.222
 4794SOL    HW114410   3.846   4.069   5.209
 4794SOL    HW214411   3.916   3.960   5.308
 4795SOL     OW14412   5.124   3.831   4.150
 4795SOL    HW114413   5.100   3.794   4.060
 4795SOL    HW214414   5.223   3.847   4.154
 4796SOL     OW14415   4.106   4.424   4.204
 4796SOL    HW114416   4.151   4.334   4.201
 4796SOL    HW214417   4.012   4.413   4.237
 4797SOL     OW14418   4.338   3.846   3.841
 4797SOL    HW114419   4.436   3.824   3.848
 4797SOL    HW214420   4.307   3.829   3.748
 4798SOL     OW14421   5.075   4.314   5.157
 4798SOL    HW114422   5.103   4.271   5.242
 4798SOL    HW214423   5.100   4.410   5.158
 4799SOL     OW14424   4.527   5.126   4.648
 4799SOL    HW114425   4.617   5.140   4.606
 4799SOL    HW214426   4.456   5.128   4.577
 4800SOL     OW14427   4.646   4.227   4.623
 4800SOL    HW114428   4.621   4.218   4.527
 4800SOL    HW214429   4.694   4.145   4.654
 4801SOL     OW14430   4.263   3.788   4.236
 4801SOL    HW114431   4.182   3.789   4.294
 4801SOL    HW214432   4.266   3.871   4.181
 4802SOL     OW14433   5.158   4.912   3.765
 4802SOL    HW114434   5.190   4.836   3.822
 4802SOL    HW214435   5.066   4.939   3.795
 4803SOL     OW14436   4.021   3.759   3.895
 4803SOL    HW114437   4.070   3.843   3.874
 4803SOL    HW214438   4.083   3.694   3.940
 4804SOL     OW14439   4.659   3.960   4.204
 4804SOL    HW114440   4.611   4.001   4.126
 4804SOL    HW214441   4.758   3.958   4.185
 4805SOL     OW14442   4.951   5.294   4.517
 4805SOL    HW114443   4.972   5.368   4.452
 4805SOL    HW214444   5.019   5.294   4.590
 4806SOL     OW14445   4.183   4.876   4.465
 4806SOL    HW114446   4.112   4.849   4.530
 4806SOL    HW214447   4.157   4.848   4.372
 4807SOL     OW14448   4.756   4.273   3.740
 4807SOL    HW114449   4.715   4.355   3.701
 4807SOL    HW214450   4.820   4.299   3.813
 4808SOL     OW14451   3.802   4.280   5.110
 4808SOL    HW114452   3.894   4.279   5.069
 4808SOL    HW214453   3.796   4.354   5.177
 4809SOL     OW14454   4.285   3.946   4.871
 4809SOL    HW114455   4.323   3.862   4.908
 4809SOL    HW214456   4.197   3.965   4.915
 4810SOL     OW14457   4.590   4.178   4.366
 4810SOL    HW114458   4.558   4.250   4.304
 4810SOL    HW214459   4.614   4.097   4.313
 4811SOL     OW14460   4.741   3.763   4.477
 4811SOL    HW114461   4.669   3.768   4.408
 4811SOL    HW214462   4.717   3.694   4.546
 4812SOL     OW14463   5.153   4.897   4.591
 4812SOL    HW114464   5.098   4.813   4.584
 4812SOL    HW214465   5.179   4.926   4.499
 4813SOL     OW14466   4.212   5.109   3.898
 4813SOL    HW114467   4.125   5.094   3.945
 4813SOL    HW214468   4.195   5.135   3.803
 4814SOL     OW14469   5.114   4.299   3.802
 4814SOL    HW114470   5.060   4.278   3.883
 4814SOL    HW214471   5.205   4.258   3.811
 4815SOL     OW14472   4.251   3.980   4.052
 4815SOL    HW114473   4.278   3.921   3.977
 4815SOL    HW214474   4.251   4.075   4.021
 4816SOL     OW14475   4.788   5.071   5.064
 4816SOL    HW114476   4.708   5.048   5.119
 4816SOL    HW214477   4.871   5.045   5.113
 4817SOL     OW14478   4.835   4.919   4.824
 4817SOL    HW114479   4.795   4.963   4.905
 4817SOL    HW214480   4.794   4.956   4.741
 4818SOL     OW14481   4.639   3.813   5.126
 4818SOL    HW114482   4.664   3.793   5.031
 4818SOL    HW214483   4.711   3.869   5.168
 4819SOL     OW14484   4.429   4.774   4.092
 4819SOL    HW114485   4.415   4.781   4.191
 4819SOL    HW214486   4.513   4.723   4.074
 4820SOL     OW14487   4.134   4.537   4.975
 4820SOL    HW114488   4.220   4.549   5.025
 4820SOL    HW214489   4.092   4.450   5.002
 4821SOL     OW14490   4.998   4.110   4.986
 4821SOL    HW114491   5.019   4.184   5.050
 4821SOL    HW214492   4.909   4.127   4.943
 4822SOL     OW14493   4.091   4.824   4.225
 4822SOL    HW114494   4.084   4.907   4.169
 4822SOL    HW214495   4.095   4.744   4.165
 4823SOL     OW14496   4.290   4.261   4.589
 4823SOL    HW114497   4.302   4.327   4.515
 4823SOL    HW214498   4.336   4.295   4.672
 4824SOL     OW14499   4.976   5.072   4.112
 4824SOL    HW114500   5.026   5.149   4.152
 4824SOL    HW214501   4.881   5.074   4.144
 4825SOL     OW14502   4.996   5.169   4.866
 4825SOL    HW114503   5.043   5.182   4.953
 4825SOL    HW214504   4.930   5.095   4.875
 4826SOL     OW14505   4.078   5.234   5.053
 4826SOL    HW114506   4.057   5.190   4.966
 4826SOL    HW214507   4.175   5.260   5.056
 4827SOL     OW14508   4.126   4.475   5.322
 4827SOL    HW114509   4.194   4.530   5.275
 4827SOL    HW214510   4.166   4.387   5.349
 4828SOL     OW14511   5.311   4.503   5.394
 4828SOL    HW114512   5.219   4.541   5.389
 4828SOL    HW214513   5.371   4.550   5.329
 4829SOL     OW14514   4.297   4.594   4.753
 4829SOL    HW114515   4.341   4.683   4.744
 4829SOL    HW214516   4.234   4.594   4.830
 4830SOL     OW14517   5.084   4.586   4.769
 4830SOL    HW114518   5.009   4.586   4.703
 4830SOL    HW214519   5.121   4.494   4.778
 4831SOL     OW14520   4.933   4.249   3.999
 4831SOL    HW114521   4.946   4.165   4.053
 4831SOL    HW214522   4.904   4.323   4.059
 4832SOL     OW14523   4.031   3.937   4.955
 4832SOL    HW114524   4.008   3.974   5.045
 4832SOL    HW214525   4.001   3.842   4.949
 4833SOL     OW14526   3.761   5.034   5.006
 4833SOL    HW114527   3.814   4.985   5.074
 4833SOL    HW214528   3.783   5.132   5.011
 4834SOL     OW14529   4.456   4.358   4.788
 4834SOL    HW114530   4.515   4.332   4.712
 4834SOL    HW214531   4.428   4.454   4.777
 4835SOL     OW14532   4.031   3.787   4.342
 4835SOL    HW114533   4.020   3.881   4.375
 4835SOL    HW214534   4.026   3.724   4.419
 4836SOL     OW14535   5.346   4.091   4.098
 4836SOL    HW114536   5.348   4.015   4.162
 4836SOL    HW214537   5.298   4.168   4.138
 4837SOL     OW14538   4.747   4.490   4.690
 4837SOL    HW114539   4.762   4.511   4.786
 4837SOL    HW214540   4.717   4.395   4.681
 4838SOL     OW14541   5.027   4.562   3.766
 4838SOL    HW114542   5.061   4.469   3.781
 4838SOL    HW214543   5.045   4.589   3.671
 4839SOL     OW14544   4.792   5.057   4.573
 4839SOL    HW114545   4.799   4.973   4.518
 4839SOL    HW214546   4.854   5.126   4.537
 4840SOL     OW14547   4.043   4.534   4.673
 4840SOL    HW114548   4.136   4.570   4.678
 4840SOL    HW214549   4.037   4.449   4.725
 4841SOL     OW14550   4.063   4.233   4.730
 4841SOL    HW114551   4.011   4.150   4.713
 4841SOL    HW214552   4.140   4.238   4.666
 4842SOL     OW14553   4.862   4.104   5.402
 4842SOL    HW114554   4.817   4.167   5.466
 4842SOL    HW214555   4.955   4.135   5.385
 4843SOL     OW14556   4.884   3.931   5.201
 4843SOL    HW114557   4.884   3.995   5.278
 4843SOL    HW214558   4.912   3.979   5.118
 4844SOL     OW14559   3.732   5.050   3.924
 4844SOL    HW114560   3.639   5.071   3.893
 4844SOL    HW214561   3.742   4.951   3.937
 4845SOL     OW14562   4.726   4.520   4.962
 4845SOL    HW114563   4.767   4.488   5.048
 4845SOL    HW214564   4.630   4.493   4.959
 4846SOL     OW14565   3.764   4.268   4.838
 4846SOL    HW114566   3.849   4.235   4.797
 4846SOL    HW214567   3.777   4.283   4.936
 4847SOL     OW14568   4.539   4.296   4.049
 4847SOL    HW114569   4.546   4.207   4.003
 4847SOL    HW214570   4.445   4.330   4.041
 4848SOL     OW14571   4.395   4.188   4.993
 4848SOL    HW114572   4.361   4.099   4.963
 4848SOL    HW214573   4.421   4.242   4.913
 4849SOL     OW14574   4.197   4.224   3.915
 4849SOL    HW114575   4.258   4.304   3.919
 4849SOL    HW214576   4.102   4.255   3.922
 4850SOL     OW14577   3.883   4.861   5.190
 4850SOL    HW114578   3.905   4.800   5.266
 4850SOL    HW214579   3.893   4.812   5.104
 4851SOL     OW14580   5.071   4.783   4.958
 4851SOL    HW114581   5.095   4.720   4.884
 4851SOL    HW214582   4.981   4.823   4.940
 4852SOL     OW14583   5.026   4.579   4.033
 4852SOL    HW114584   4.940   4.548   4.075
 4852SOL    HW214585   5.022   4.565   3.934
 4853SOL     OW14586   3.807   4.982   4.746
 4853SOL    HW114587   3.802   4.981   4.846
 4853SOL    HW214588   3.724   4.941   4.708
 4854SOL     OW14589   5.450   3.859   4.247
 4854SOL    HW114590   5.523   3.842   4.180
 4854SOL    HW214591   5.419   3.772   4.285
 4855SOL     OW14592   5.004   4.651   4.396
 4855SOL    HW114593   5.064   4.570   4.398
 4855SOL    HW214594   5.044   4.720   4.336
 4856SOL     OW14595   3.987   4.050   4.444
 4856SOL    HW114596   3.908   4.101   4.410
 4856SOL    HW214597   3.978   4.035   4.542
 4857SOL     OW14598   4.546   4.726   5.096
 4857SOL    HW114599   4.586   4.725   5.004
 4857SOL    HW214600   4.556   4.818   5.136
 4858SOL     OW14601   4.640   4.634   4.015
 4858SOL    HW114602   4.703   4.672   3.947
 4858SOL    HW214603   4.680   4.551   4.054
 4859SOL     OW14604   4.096   5.012   5.214
 4859SOL    HW114605   4.083   5.105   5.180
 4859SOL    HW214606   4.012   4.960   5.201
 4860SOL     OW14607   4.763   4.822   4.420
 4860SOL    HW114608   4.693   4.775   4.474
 4860SOL    HW214609   4.822   4.754   4.377
 4861SOL     OW14610   4.738   3.960   4.695
 4861SOL    HW114611   4.730   3.924   4.602
 4861SOL    HW214612   4.736   3.884   4.760
 4862SOL     OW14613   3.979   5.072   4.014
 4862SOL    HW114614   3.883   5.073   3.987
 4862SOL    HW214615   3.991   5.125   4.098
 4863SOL     OW14616   4.396   3.927   5.213
 4863SOL    HW114617   4.486   3.911   5.173
 4863SOL    HW214618   4.404   3.932   5.312
 4864SOL     OW14619   3.799   4.069   3.757
 4864SOL    HW114620   3.707   4.041   3.728
 4864SOL    HW214621   3.830   4.146   3.701
 4865SOL     OW14622   5.164   4.580   5.122
 4865SOL    HW114623   5.107   4.632   5.059
 4865SOL    HW214624   5.260   4.592   5.098
 4866SOL     OW14625   3.796   3.890   4.042
 4866SOL    HW114626   3.779   3.973   3.988
 4866SOL    HW214627   3.886   3.853   4.020
 4867SOL     OW14628   4.907   5.059   3.843
 4867SOL    HW114629   4.808   5.048   3.845
 4867SOL    HW214630   4.941   5.074   3.936
 4868SOL     OW14631   4.337   4.566   5.155
 4868SOL    HW114632   4.393   4.647   5.138
 4868SOL    HW214633   4.396   4.486   5.158
 4869SOL     OW14634   4.949   4.049   4.173
 4869SOL    HW114635   5.014   3.975   4.162
 4869SOL    HW214636   4.969   4.099   4.257
 4870SOL     OW14637   4.318   4.469   4.376
 4870SOL    HW114638   4.368   4.554   4.357
 4870SOL    HW214639   4.230   4.471   4.328
 4871SOL     OW14640   4.583   5.098   3.740
 4871SOL    HW114641   4.537   5.113   3.828
 4871SOL    HW214642   4.627   5.183   3.710
 4872SOL     OW14643   5.132   5.575   5.444
 4872SOL    HW114644   5.036   5.564   5.417
 4872SOL    HW214645   5.188   5.508   5.396
 4873SOL     OW14646   4.583   4.680   4.585
 4873SOL    HW114647   4.637   4.611   4.633
 4873SOL    HW214648   4.551   4.749   4.651
 4874SOL     OW14649   4.807   4.708   3.811
 4874SOL    HW114650   4.784   4.761   3.729
 4874SOL    HW214651   4.888   4.652   3.792
 4875SOL     OW14652   3.803   4.964   4.377
 4875SOL    HW114653   3.802   4.917   4.465
 4875SOL    HW214654   3.885   4.936   4.326
 4876SOL     OW14655   4.396   5.115   5.348
 4876SOL    HW114656   4.318   5.065   5.386
 4876SOL    HW214657   4.393   5.210   5.379
 4877SOL     OW14658   4.152   4.148   4.244
 4877SOL    HW114659   4.182   4.076   4.182
 4877SOL    HW214660   4.113   4.108   4.327
 4878SOL     OW14661   4.041   4.271   5.004
 4878SOL    HW114662   4.079   4.212   5.076
 4878SOL    HW214663   4.081   4.245   4.916
 4879SOL     OW14664   5.148   3.938   4.836
 4879SOL    HW114665   5.200   3.873   4.891
 4879SOL    HW214666   5.099   4.001   4.897
 4880SOL     OW14667   4.725   3.758   4.878
 4880SOL    HW114668   4.662   3.686   4.847
 4880SOL    HW214669   4.818   3.722   4.878
 4881SOL     OW14670   4.494   5.054   4.025
 4881SOL    HW114671   4.448   4.967   4.042
 4881SOL    HW214672   4.585   5.051   4.066
 4882SOL     OW14673   4.342   5.291   5.008
 4882SOL    HW114674   4.337   5.373   5.065
 4882SOL    HW214675   4.431   5.288   4.963
 4883SOL     OW14676   5.076   3.776   3.892
 4883SOL    HW114677   5.111   3.735   3.808
 4883SOL    HW214678   4.986   3.738   3.912
 4884SOL     OW14679   5.024   4.177   4.415
 4884SOL    HW114680   4.965   4.257   4.419
 4884SOL    HW214681   5.039   4.142   4.508
 4885SOL     OW14682   5.317   3.945   4.606
 4885SOL    HW114683   5.233   3.944   4.660
 4885SOL    HW214684   5.319   4.028   4.550
 4886SOL     OW14685   3.763   4.801   4.024
 4886SOL    HW114686   3.862   4.790   4.015
 4886SOL    HW214687   3.723   4.715   4.056
   5.32001   5.32001   5.32001
