; mobley_3047364_GMX_OPLS.top created by acpype (v: 2023.10.27) on Wed May 20 23:45:41 2026

; Include forcefield parameters
#include "ffoplsaa.itp"

; Include mobley_3047364_GMX.itp topology
#include "mobley_3047364_GMX.itp"

; Ligand position restraints
#ifdef POSRES_LIG
#include "posre_mobley_3047364.itp"
#endif

[ system ]
 mobley_3047364

[ molecules ]
; Compound        nmols
 mobley_3047364   1     
