CUP08009_AM1BCC_v1_0
    32
   0.8260000  -2.1460000  -1.9290000   2.0360000  -1.9200000  -0.0450000
   2.6690000  -3.3720000  -1.6210000  -1.3900000  -1.2620000  -4.7620000
   1.8380000  -3.0790000   2.8140000   3.1860000  -1.0400000   3.3630000
   5.1080000  -4.5080000  -1.0160000  -0.1290000  -1.7920000  -4.0980000
   2.8030000  -2.0300000   2.2620000   0.9850000  -1.5440000  -0.7580000
   1.6450000  -3.0670000  -2.4070000   2.9100000  -2.8340000  -0.4330000
  -0.2910000  -1.7500000  -2.6560000   2.1880000  -1.2800000   1.1750000
   3.7830000  -4.6140000  -2.2430000  -2.2630000  -1.8610000  -4.4810000
  -1.5860000  -0.2260000  -4.4650000  -1.2900000  -1.2920000  -5.8510000
   0.9030000  -2.6210000   3.1540000   1.5830000  -3.8250000   2.0530000
   2.2850000  -3.6100000   3.6610000   2.3080000  -0.5100000   3.7490000
   3.8840000  -0.2860000   2.9800000   3.6700000  -1.5540000   4.1990000
   5.9020000  -5.2080000  -1.2890000   4.7420000  -4.7790000  -0.0220000
   5.5350000  -3.5010000  -0.9900000   0.7250000  -1.1770000  -4.4100000
   0.0410000  -2.8190000  -4.4420000   3.7260000  -2.5200000   1.9280000
  -0.5790000  -0.8550000  -2.2730000   1.3040000  -0.8320000   1.3910000
