%VERSION  VERSION_STAMP = V0001.000  DATE = 05/20/26  23:45:49                  
%FLAG TITLE                                                                     
%FORMAT(20a4)                                                                   
CUP08009_AM1BCC_v1_0                                                            
%FLAG POINTERS                                                                  
%FORMAT(10I8)                                                                   
      32       8      17      15      36      19      45      24       0       0
     151       1      15      19      24       9      16       9       8       0
       0       0       0       0       0       0       0       0      32       0
       0
%FLAG ATOM_NAME                                                                 
%FORMAT(20a4)                                                                   
C1  C2  C3  C4  C5  C6  C7  C8  C9  N1  N2  N3  N4  N5  S1  H1  H2  H3  H4  H5  
H6  H7  H8  H9  H10 H11 H12 H13 H14 H15 H16 H17 
%FLAG CHARGE                                                                    
%FORMAT(5E16.8)                                                                 
  1.69084722E+01  1.68902499E+01  1.45104175E+01 -2.04271983E+00 -2.07916443E+00
 -2.07916443E+00 -1.23911640E+00  3.87770544E+00  3.87223875E+00 -1.55436219E+01
 -1.45413954E+01 -1.51973982E+01 -1.54142436E+01 -1.50315753E+01 -3.54241512E+00
  8.20604836E-01  8.20604836E-01  8.20604836E-01  7.99357634E-01  7.99357634E-01
  7.99357634E-01  7.99357634E-01  7.99357634E-01  7.99357634E-01  1.37336008E+00
  1.37336008E+00  1.37336008E+00  1.01498211E+00  1.01498211E+00  1.50698421E+00
  8.01416754E+00  7.77727764E+00
%FLAG ATOMIC_NUMBER                                                             
%FORMAT(10I8)                                                                   
       6       6       6       6       6       6       6       6       6       7
       7       7       7       7      16       1       1       1       1       1
       1       1       1       1       1       1       1       1       1       1
       1       1
%FLAG MASS                                                                      
%FORMAT(5E16.8)                                                                 
  1.20100000E+01  1.20100000E+01  1.20100000E+01  1.20100000E+01  1.20100000E+01
  1.20100000E+01  1.20100000E+01  1.20100000E+01  1.20100000E+01  1.40100000E+01
  1.40100000E+01  1.40100000E+01  1.40100000E+01  1.40100000E+01  3.20600000E+01
  1.00800000E+00  1.00800000E+00  1.00800000E+00  1.00800000E+00  1.00800000E+00
  1.00800000E+00  1.00800000E+00  1.00800000E+00  1.00800000E+00  1.00800000E+00
  1.00800000E+00  1.00800000E+00  1.00800000E+00  1.00800000E+00  1.00800000E+00
  1.00800000E+00  1.00800000E+00
%FLAG ATOM_TYPE_INDEX                                                           
%FORMAT(10I8)                                                                   
       1       1       1       2       2       2       2       2       2       3
       3       3       4       4       5       6       6       6       6       6
       6       6       6       6       7       7       7       7       7       7
       8       8
%FLAG NUMBER_EXCLUDED_ATOMS                                                     
%FORMAT(10I8)                                                                   
      13      12      10       8      11      10       6       9      11       6
       4       3       6       8       3       4       3       2       3       2
       1       3       2       1       2       1       1       2       1       1
       1       1
%FLAG NONBONDED_PARM_INDEX                                                      
%FORMAT(10I8)                                                                   
       1       2       4       7      11      16      22      29       2       3
       5       8      12      17      23      30       4       5       6       9
      13      18      24      31       7       8       9      10      14      19
      25      32      11      12      13      14      15      20      26      33
      16      17      18      19      20      21      27      34      22      23
      24      25      26      27      28      35      29      30      31      32
      33      34      35      36
%FLAG RESIDUE_LABEL                                                             
%FORMAT(20a4)                                                                   
MOL 
%FLAG RESIDUE_POINTER                                                           
%FORMAT(10I8)                                                                   
       1
%FLAG BOND_FORCE_CONSTANT                                                       
%FORMAT(5E16.8)                                                                 
  3.86490000E+02  3.19920000E+02  2.13480000E+02  2.28890000E+02  3.45250000E+02
  1.84740000E+02  3.44220000E+02  2.58820000E+02  4.72490000E+02
%FLAG BOND_EQUIL_VALUE                                                          
%FORMAT(5E16.8)                                                                 
  1.33920000E+00  1.39440000E+00  1.78470000E+00  1.53540000E+00  1.09620000E+00
  1.84070000E+00  1.09690000E+00  1.45900000E+00  1.01370000E+00
%FLAG ANGLE_FORCE_CONSTANT                                                      
%FORMAT(5E16.8)                                                                 
  8.31500000E+01  7.59000000E+01  5.74600000E+01  9.27200000E+01  6.57100000E+01
  4.32800000E+01  5.98700000E+01  4.32700000E+01  5.50000000E+01  7.27600000E+01
  7.42500000E+01  6.79300000E+01  4.80400000E+01  4.20600000E+01  3.58000000E+01
  3.56400000E+01
%FLAG ANGLE_EQUIL_VALUE                                                         
%FORMAT(5E16.8)                                                                 
  2.04622489E+00  2.15949681E+00  2.00241711E+00  1.78948685E+00  1.92911325E+00
  1.91270715E+00  1.96576518E+00  1.91427794E+00  2.01254002E+00  2.22180509E+00
  2.04500316E+00  2.06839058E+00  1.91392888E+00  1.89769731E+00  1.88024401E+00
  1.89455572E+00
%FLAG DIHEDRAL_FORCE_CONSTANT                                                   
%FORMAT(5E16.8)                                                                 
  4.80000000E+00  0.00000000E+00  4.20000000E-01  3.33333333E-01  1.30000000E-01
  4.00000000E-01  1.05000000E+00  1.55555556E-01  1.10000000E+00
%FLAG DIHEDRAL_PERIODICITY                                                      
%FORMAT(5E16.8)                                                                 
  2.00000000E+00  2.00000000E+00  3.00000000E+00  3.00000000E+00  3.00000000E+00
  2.00000000E+00  2.00000000E+00  3.00000000E+00  2.00000000E+00
%FLAG DIHEDRAL_PHASE                                                            
%FORMAT(5E16.8)                                                                 
  3.14159400E+00  0.00000000E+00  0.00000000E+00  0.00000000E+00  0.00000000E+00
  3.14159400E+00  3.14159400E+00  0.00000000E+00  3.14159400E+00
%FLAG SCEE_SCALE_FACTOR                                                         
%FORMAT(5E16.8)                                                                 
  1.20000000E+00  1.20000000E+00  1.20000000E+00  1.20000000E+00  1.20000000E+00
  1.20000000E+00  1.20000000E+00  1.20000000E+00  0.00000000E+00
%FLAG SCNB_SCALE_FACTOR                                                         
%FORMAT(5E16.8)                                                                 
  2.00000000E+00  2.00000000E+00  2.00000000E+00  2.00000000E+00  2.00000000E+00
  2.00000000E+00  2.00000000E+00  2.00000000E+00  0.00000000E+00
%FLAG SOLTY                                                                     
%FORMAT(5E16.8)                                                                 
  0.00000000E+00  0.00000000E+00  0.00000000E+00  0.00000000E+00  0.00000000E+00
  0.00000000E+00  0.00000000E+00  0.00000000E+00
%FLAG LENNARD_JONES_ACOEF                                                       
%FORMAT(5E16.8)                                                                 
  6.96551276E+05  8.43969952E+05  1.02073671E+06  7.69642101E+05  9.31115275E+05
  8.49322032E+05  8.15700858E+05  9.89136215E+05  9.01905150E+05  9.54886922E+05
  1.73376823E+06  2.09089895E+06  1.90820499E+06  2.03458349E+06  4.26366419E+06
  8.12662403E+04  1.00235148E+05  9.11435380E+04  9.44129241E+04  2.11783234E+05
  7.94617769E+03  5.63013422E+04  6.97998263E+04  6.34160397E+04  6.52595638E+04
  1.48672098E+05  5.22955465E+03  3.39005767E+03  1.71458823E+03  2.23577481E+03
  2.01475241E+03  1.94284817E+03  5.15374979E+03  9.47421632E+01  5.24570081E+01
  1.34728399E-01
%FLAG LENNARD_JONES_BCOEF                                                       
%FORMAT(5E16.8)                                                                 
  5.24668528E+02  5.90251928E+02  6.63431737E+02  5.44830041E+02  6.12468585E+02
  5.65406768E+02  6.34916791E+02  7.14570130E+02  6.59538202E+02  7.68192761E+02
  1.07629402E+03  1.20800124E+03  1.11546536E+03  1.30381522E+03  2.19459223E+03
  1.21392023E+02  1.37787728E+02  1.27000718E+02  1.46316625E+02  2.54804909E+02
  2.57122925E+01  1.01040256E+02  1.14981426E+02  1.05935811E+02  1.21646616E+02
  2.13489607E+02  2.08590256E+01  1.67944276E+01  1.46824710E+01  1.71355763E+01
  1.57231024E+01  1.74775900E+01  3.30984635E+01  2.33785449E+00  1.73959275E+00
  7.34107347E-02
%FLAG BONDS_INC_HYDROGEN                                                        
%FORMAT(10I8)                                                                   
       9      45       5       9      48       5       9      51       5      12
      54       5      12      57       5      12      60       5      15      63
       5      15      66       5      15      69       5      18      72       7
      18      75       7      18      78       7      21      81       7      21
      84       7      24      87       7      36      90       9      39      93
       9
%FLAG BONDS_WITHOUT_HYDROGEN                                                    
%FORMAT(10I8)                                                                   
       0      27       1       0      30       1       0      36       2       3
      27       1       3      33       1       3      39       2       6      30
       1       6      33       1       6      42       3       9      21       4
      12      24       4      15      24       4      18      42       6      21
      36       8      24      39       8
%FLAG ANGLES_INC_HYDROGEN                                                       
%FORMAT(10I8)                                                                   
       0      36      90       3       3      39      93       3       9      21
      81       6       9      21      84       6      12      24      87       6
      15      24      87       6      21       9      45       8      21       9
      48       8      21       9      51       8      21      36      90       9
      24      12      54       8      24      12      57       8      24      12
      60       8      24      15      63       8      24      15      66       8
      24      15      69       8      24      39      93       9      36      21
      81      13      36      21      84      13      39      24      87      13
      42      18      72      14      42      18      75      14      42      18
      78      14      45       9      48      15      45       9      51      15
      48       9      51      15      54      12      57      15      54      12
      60      15      57      12      60      15      63      15      66      15
      63      15      69      15      66      15      69      15      72      18
      75      16      72      18      78      16      75      18      78      16
      81      21      84      16
%FLAG ANGLES_WITHOUT_HYDROGEN                                                   
%FORMAT(10I8)                                                                   
       0      27       3       1       0      30       6       1       0      36
      21       2       3      33       6       1       3      39      24       2
       6      42      18       4       9      21      36       5      12      24
      15       7      12      24      39       5      15      24      39       5
      27       0      30      10      27       0      36      11      27       3
      33      10      27       3      39      11      30       0      36      11
      30       6      33      10      30       6      42      12      33       3
      39      11      33       6      42      12
%FLAG DIHEDRALS_INC_HYDROGEN                                                    
%FORMAT(10I8)                                                                   
       0      36      21      81       3       0      36      21      84       3
       3      39      24      87       3       6      42      18      72       4
       6      42      18      75       4       6      42      18      78       4
       9      21      36      90       2      12      24      15      63       5
      12      24      15      66       5      12      24      15      69       5
      12      24      39      93       2      15      24      12      54       5
      15      24      12      57       5      15      24      12      60       5
      15      24      39      93       2      27       0      36      90       7
      27       3      39      93       7      30       0      36      90       7
      33       3      39      93       7      36      21       9      45       8
      36      21       9      48       8      36      21       9      51       8
      39      24      12      54       8      39      24      12      57       8
      39      24      12      60       8      39      24      15      63       8
      39      24      15      66       8      39      24      15      69       8
      45       9      21      81       8      45       9      21      84       8
      48       9      21      81       8      48       9      21      84       8
      51       9      21      81       8      51       9      21      84       8
      54      12      24      87       8      57      12      24      87       8
      60      12      24      87       8      63      15      24      87       8
      66      15      24      87       8      69      15      24      87       8
      81      21      36      90       2      84      21      36      90       2
      87      24      39      93       2      21       0     -36     -90       9
      24       3     -39     -93       9
%FLAG DIHEDRALS_WITHOUT_HYDROGEN                                                
%FORMAT(10I8)                                                                   
       0      27       3      33       1       0      27       3      39       1
       0      30      -6      33       1       0      30       6      42       1
       0      36      21       9       2      30       0      27       3       1
      36       0      27       3       1       3      33      -6      30       1
       3      33       6      42       1       3      39      24      12       2
       3      39      24      15       2      27       0      30       6       1
      36       0      30       6       1       6      33      -3      27       1
       6      33       3      39       1      18      42       6      30       6
      18      42       6      33       6      27       0      36      21       7
      30       0      36      21       7      24      39       3      27       7
      24      39       3      33       7      36       0     -30     -27       9
      27      33      -3     -39       9      30      33      -6     -42       9
%FLAG EXCLUDED_ATOMS_LIST                                                       
%FORMAT(10I8)                                                                   
       2       3       4       8      10      11      12      13      14      15
      28      29      31       3       5       6       9      10      11      12
      13      14      15      30      32       7      10      11      12      13
      14      15      25      26      27       8      13      16      17      18
      28      29      31       6       9      14      19      20      21      22
      23      24      30      32       9      14      19      20      21      22
      23      24      30      32      11      12      15      25      26      27
      10      11      13      16      17      18      28      29      31      10
      12      14      19      20      21      22      23      24      30      32
      11      12      13      14      31      32      12      13      15      31
      14      15      32      16      17      18      28      29      31      19
      20      21      22      23      24      30      32      25      26      27
      17      18      28      29      18      28      29      28      29      20
      21      30      21      30      30      23      24      30      24      30
      30      26      27      27       0      29      31      31      32       0
       0
%FLAG HBOND_ACOEF                                                               
%FORMAT(5E16.8)                                                                 

%FLAG HBOND_BCOEF                                                               
%FORMAT(5E16.8)                                                                 

%FLAG HBCUT                                                                     
%FORMAT(5E16.8)                                                                 

%FLAG AMBER_ATOM_TYPE                                                           
%FORMAT(20a4)                                                                   
ca  ca  ca  c3  c3  c3  c3  c3  c3  nb  nb  nb  nu  nu  ss  hc  hc  hc  hc  hc  
hc  hc  hc  hc  h1  h1  h1  h1  h1  h1  hn  hn  
%FLAG TREE_CHAIN_CLASSIFICATION                                                 
%FORMAT(20a4)                                                                   
BLA BLA BLA BLA BLA BLA BLA BLA BLA BLA BLA BLA BLA BLA BLA BLA BLA BLA BLA BLA 
BLA BLA BLA BLA BLA BLA BLA BLA BLA BLA BLA BLA 
%FLAG JOIN_ARRAY                                                                
%FORMAT(10I8)                                                                   
       0       0       0       0       0       0       0       0       0       0
       0       0       0       0       0       0       0       0       0       0
       0       0       0       0       0       0       0       0       0       0
       0       0
%FLAG IROTAT                                                                    
%FORMAT(10I8)                                                                   
       0       0       0       0       0       0       0       0       0       0
       0       0       0       0       0       0       0       0       0       0
       0       0       0       0       0       0       0       0       0       0
       0       0
%FLAG RADIUS_SET                                                                
%FORMAT(1a80)                                                                   
modified Bondi radii (mbondi)                                                   
%FLAG RADII                                                                     
%FORMAT(5E16.8)                                                                 
  1.70000000E+00  1.70000000E+00  1.70000000E+00  1.70000000E+00  1.70000000E+00
  1.70000000E+00  1.70000000E+00  1.70000000E+00  1.70000000E+00  1.55000000E+00
  1.55000000E+00  1.55000000E+00  1.55000000E+00  1.55000000E+00  1.80000000E+00
  1.30000000E+00  1.30000000E+00  1.30000000E+00  1.30000000E+00  1.30000000E+00
  1.30000000E+00  1.30000000E+00  1.30000000E+00  1.30000000E+00  1.30000000E+00
  1.30000000E+00  1.30000000E+00  1.30000000E+00  1.30000000E+00  1.30000000E+00
  1.30000000E+00  1.30000000E+00
%FLAG SCREEN                                                                    
%FORMAT(5E16.8)                                                                 
  7.20000000E-01  7.20000000E-01  7.20000000E-01  7.20000000E-01  7.20000000E-01
  7.20000000E-01  7.20000000E-01  7.20000000E-01  7.20000000E-01  7.90000000E-01
  7.90000000E-01  7.90000000E-01  7.90000000E-01  7.90000000E-01  9.60000000E-01
  8.50000000E-01  8.50000000E-01  8.50000000E-01  8.50000000E-01  8.50000000E-01
  8.50000000E-01  8.50000000E-01  8.50000000E-01  8.50000000E-01  8.50000000E-01
  8.50000000E-01  8.50000000E-01  8.50000000E-01  8.50000000E-01  8.50000000E-01
  8.50000000E-01  8.50000000E-01
%FLAG IPOL                                                                      
%FORMAT(1I8)                                                                    
       0
