mobley_9073553_GMX.gro created by acpype (v: 2023.10.27) on Wed May 20 23:53:35 2026
    9
    1MOL     C1    1   2.133   2.239   2.133
    1MOL     C2    2   2.322   2.223   2.330
    1MOL     S1    3   2.156   2.290   2.305
    1MOL     H1    4   2.227   2.249   2.078
    1MOL     H2    5   2.057   2.302   2.086
    1MOL     H3    6   2.100   2.135   2.129
    1MOL     H4    7   2.397   2.300   2.306
    1MOL     H5    8   2.338   2.137   2.265
    1MOL     H6    9   2.335   2.192   2.434
   4.45879   4.45879   4.45879
