mobley_9073553_GMX.gro created by acpype (v: 2023.10.27) on Wed May 20 23:53:35 2026
 8712
    1MOL     C1    1   2.133   2.239   2.133
    1MOL     C2    2   2.322   2.223   2.330
    1MOL     S1    3   2.156   2.290   2.305
    1MOL     H1    4   2.227   2.249   2.078
    1MOL     H2    5   2.057   2.302   2.086
    1MOL     H3    6   2.100   2.135   2.129
    1MOL     H4    7   2.397   2.300   2.306
    1MOL     H5    8   2.338   2.137   2.265
    1MOL     H6    9   2.335   2.192   2.434
    2SOL     OW   10   0.230   0.628   0.113
    2SOL    HW1   11   0.137   0.626   0.150
    2SOL    HW2   12   0.231   0.589   0.021
    3SOL     OW   13   0.225   0.275   0.996
    3SOL    HW1   14   0.260   0.258   1.088
    3SOL    HW2   15   0.137   0.230   0.984
    4SOL     OW   16   0.019   0.368   0.647
    4SOL    HW1   17  -0.063   0.411   0.686
    4SOL    HW2   18  -0.009   0.295   0.584
    5SOL     OW   19   0.569   1.275   1.165
    5SOL    HW1   20   0.476   1.268   1.128
    5SOL    HW2   21   0.580   1.364   1.209
    6SOL     OW   22   1.555   1.511   0.703
    6SOL    HW1   23   1.498   1.495   0.784
    6SOL    HW2   24   1.496   1.521   0.623
    7SOL     OW   25   1.135   0.703   0.717
    7SOL    HW1   26   1.192   0.781   0.692
    7SOL    HW2   27   1.075   0.729   0.793
    8SOL     OW   28   1.755   0.607   0.231
    8SOL    HW1   29   1.743   0.594   0.132
    8SOL    HW2   30   1.725   0.526   0.280
    9SOL     OW   31   0.768   1.144   1.023
    9SOL    HW1   32   0.690   1.161   1.083
    9SOL    HW2   33   0.802   1.231   0.987
   10SOL     OW   34   0.850   0.798   1.823
   10SOL    HW1   35   0.846   0.874   1.888
   10SOL    HW2   36   0.872   0.834   1.732
   11SOL     OW   37   0.685   1.012   0.665
   11SOL    HW1   38   0.754   0.996   0.735
   11SOL    HW2   39   0.612   1.069   0.703
   12SOL     OW   40   0.686   1.161   1.803
   12SOL    HW1   41   0.746   1.240   1.817
   12SOL    HW2   42   0.600   1.192   1.762
   13SOL     OW   43   0.335   1.435   1.061
   13SOL    HW1   44   0.257   1.404   1.008
   13SOL    HW2   45   0.393   1.493   1.004
   14SOL     OW   46   1.460   1.505   1.339
   14SOL    HW1   47   1.484   1.599   1.365
   14SOL    HW2   48   1.444   1.451   1.421
   15SOL     OW   49   0.438   0.392   1.499
   15SOL    HW1   50   0.520   0.336   1.508
   15SOL    HW2   51   0.357   0.334   1.503
   16SOL     OW   52   1.603   0.447   0.737
   16SOL    HW1   53   1.529   0.493   0.687
   16SOL    HW2   54   1.654   0.515   0.790
   17SOL     OW   55   0.231   1.713   0.483
   17SOL    HW1   56   0.265   1.790   0.537
   17SOL    HW2   57   0.275   1.713   0.393
   18SOL     OW   58   1.127   1.341   1.690
   18SOL    HW1   59   1.174   1.341   1.778
   18SOL    HW2   60   1.079   1.254   1.679
   19SOL     OW   61   0.230   1.434   0.538
   19SOL    HW1   62   0.204   1.530   0.538
   19SOL    HW2   63   0.159   1.380   0.583
   20SOL     OW   64   0.240   1.091   0.886
   20SOL    HW1   65   0.254   1.007   0.938
   20SOL    HW2   66   0.185   1.155   0.941
   21SOL     OW   67   0.620   1.786   1.439
   21SOL    HW1   68   0.528   1.769   1.474
   21SOL    HW2   69   0.648   1.878   1.465
   22SOL     OW   70   0.606   0.964   0.123
   22SOL    HW1   71   0.613   1.048   0.069
   22SOL    HW2   72   0.652   0.977   0.211
   23SOL     OW   73   1.594   0.114   1.480
   23SOL    HW1   74   1.576   0.181   1.408
   23SOL    HW2   75   1.591   0.160   1.569
   24SOL     OW   76   0.122   0.643   0.563
   24SOL    HW1   77   0.077   0.555   0.580
   24SOL    HW2   78   0.121   0.697   0.647
   25SOL     OW   79   1.842   1.767   0.359
   25SOL    HW1   80   1.896   1.738   0.439
   25SOL    HW2   81   1.872   1.857   0.330
   26SOL     OW   82   0.027   1.596   0.117
   26SOL    HW1   83   0.008   1.500   0.138
   26SOL    HW2   84  -0.006   1.654   0.192
   27SOL     OW   85   1.689   0.922   0.612
   27SOL    HW1   86   1.784   0.893   0.620
   27SOL    HW2   87   1.681   0.987   0.537
   28SOL     OW   88   1.641   1.108   0.432
   28SOL    HW1   89   1.727   1.110   0.380
   28SOL    HW2   90   1.655   1.155   0.520
   29SOL     OW   91   0.113   0.737   1.597
   29SOL    HW1   92   0.201   0.724   1.642
   29SOL    HW2   93   0.100   0.834   1.575
   30SOL     OW   94   0.613   1.365   0.726
   30SOL    HW1   95   0.564   1.278   0.735
   30SOL    HW2   96   0.590   1.408   0.639
   31SOL     OW   97   1.293   1.228   1.423
   31SOL    HW1   98   1.330   1.155   1.365
   31SOL    HW2   99   1.345   1.233   1.508
   32SOL     OW  100   0.809   0.004   0.502
   32SOL    HW1  101   0.849   0.095   0.493
   32SOL    HW2  102   0.709   0.012   0.508
   33SOL     OW  103   0.197   0.976   1.264
   33SOL    HW1  104   0.286   0.931   1.250
   33SOL    HW2  105   0.124   0.911   1.245
   34SOL     OW  106   1.525   0.999   0.190
   34SOL    HW1  107   1.462   0.923   0.203
   34SOL    HW2  108   1.573   1.017   0.276
   35SOL     OW  109   1.187   1.792   1.616
   35SOL    HW1  110   1.211   1.852   1.540
   35SOL    HW2  111   1.194   1.697   1.586
   36SOL     OW  112   0.317   0.251   1.801
   36SOL    HW1  113   0.388   0.322   1.807
   36SOL    HW2  114   0.229   0.290   1.829
   37SOL     OW  115   1.466   1.417   0.953
   37SOL    HW1  116   1.407   1.423   1.033
   37SOL    HW2  117   1.451   1.329   0.907
   38SOL     OW  118   1.667   1.714   0.572
   38SOL    HW1  119   1.626   1.691   0.484
   38SOL    HW2  120   1.649   1.640   0.637
   39SOL     OW  121   0.598   0.729   0.270
   39SOL    HW1  122   0.622   0.798   0.202
   39SOL    HW2  123   0.520   0.762   0.324
   40SOL     OW  124   1.281   0.345   0.944
   40SOL    HW1  125   1.195   0.295   0.931
   40SOL    HW2  126   1.343   0.291   1.000
   41SOL     OW  127   1.576   1.662   0.307
   41SOL    HW1  128   1.665   1.708   0.310
   41SOL    HW2  129   1.555   1.638   0.212
   42SOL     OW  130   0.807   0.605   1.465
   42SOL    HW1  131   0.760   0.602   1.554
   42SOL    HW2  132   0.756   0.550   1.399
   43SOL     OW  133   1.394   0.469   1.674
   43SOL    HW1  134   1.374   0.512   1.762
   43SOL    HW2  135   1.472   0.407   1.683
   44SOL     OW  136   0.973   0.890   1.572
   44SOL    HW1  137   1.019   0.806   1.543
   44SOL    HW2  138   0.917   0.924   1.497
   45SOL     OW  139   0.991   0.410   1.242
   45SOL    HW1  140   0.914   0.444   1.296
   45SOL    HW2  141   0.957   0.359   1.163
   46SOL     OW  142   1.041   0.701   0.429
   46SOL    HW1  143   1.067   0.697   0.525
   46SOL    HW2  144   0.956   0.650   0.415
   47SOL     OW  145   0.076   0.811   0.789
   47SOL    HW1  146   0.175   0.799   0.798
   47SOL    HW2  147   0.052   0.906   0.810
   48SOL     OW  148   0.130   1.821   1.571
   48SOL    HW1  149   0.120   1.806   1.670
   48SOL    HW2  150   0.044   1.857   1.535
   49SOL     OW  151   0.865   0.348   0.195
   49SOL    HW1  152   0.924   0.411   0.146
   49SOL    HW2  153   0.884   0.254   0.166
   50SOL     OW  154   1.719   0.585   1.831
   50SOL    HW1  155   1.693   0.674   1.795
   50SOL    HW2  156   1.717   0.517   1.758
   51SOL     OW  157   1.362   1.144   0.545
   51SOL    HW1  158   1.445   1.115   0.497
   51SOL    HW2  159   1.313   1.211   0.489
   52SOL     OW  160   0.550   0.196   0.885
   52SOL    HW1  161   0.545   0.191   0.985
   52SOL    HW2  162   0.552   0.292   0.856
   53SOL     OW  163   1.008   1.456   0.477
   53SOL    HW1  164   0.962   1.528   0.425
   53SOL    HW2  165   1.004   1.476   0.575
   54SOL     OW  166   0.351   1.801   0.853
   54SOL    HW1  167   0.401   1.715   0.859
   54SOL    HW2  168   0.416   1.878   0.850
   55SOL     OW  169   1.795   1.066   0.873
   55SOL    HW1  170   1.733   1.051   0.797
   55SOL    HW2  171   1.743   1.077   0.958
   56SOL     OW  172   1.227   1.550   1.506
   56SOL    HW1  173   1.233   1.473   1.570
   56SOL    HW2  174   1.175   1.524   1.426
   57SOL     OW  175   0.321   0.943   0.242
   57SOL    HW1  176   0.403   0.982   0.200
   57SOL    HW2  177   0.294   0.861   0.193
   58SOL     OW  178   1.458   0.735   0.728
   58SOL    HW1  179   1.453   0.670   0.803
   58SOL    HW2  180   1.538   0.794   0.741
   59SOL     OW  181   0.461   1.266   1.727
   59SOL    HW1  182   0.411   1.267   1.641
   59SOL    HW2  183   0.398   1.248   1.803
   60SOL     OW  184   1.111   1.776   0.237
   60SOL    HW1  185   1.051   1.714   0.287
   60SOL    HW2  186   1.142   1.732   0.152
   61SOL     OW  187   0.202   0.285   1.498
   61SOL    HW1  188   0.122   0.345   1.485
   61SOL    HW2  189   0.192   0.236   1.584
   62SOL     OW  190   1.632   1.377   0.081
   62SOL    HW1  191   1.600   1.471   0.071
   62SOL    HW2  192   1.556   1.314   0.069
   63SOL     OW  193   0.464   1.743   0.323
   63SOL    HW1  194   0.497   1.782   0.409
   63SOL    HW2  195   0.540   1.736   0.258
   64SOL     OW  196   1.400   0.107   0.426
   64SOL    HW1  197   1.376   0.070   0.336
   64SOL    HW2  198   1.499   0.123   0.430
   65SOL     OW  199   0.249   1.785   1.241
   65SOL    HW1  200   0.306   1.720   1.291
   65SOL    HW2  201   0.233   1.752   1.148
   66SOL     OW  202   0.940   1.698   0.904
   66SOL    HW1  203   1.020   1.641   0.925
   66SOL    HW2  204   0.891   1.658   0.827
   67SOL     OW  205   0.382   0.700   0.480
   67SOL    HW1  206   0.427   0.610   0.477
   67SOL    HW2  207   0.288   0.689   0.513
   68SOL     OW  208   1.547   0.222   1.729
   68SOL    HW1  209   1.542   0.259   1.821
   68SOL    HW2  210   1.475   0.153   1.717
   69SOL     OW  211   0.614   0.122   0.117
   69SOL    HW1  212   0.712   0.100   0.124
   69SOL    HW2  213   0.583   0.105   0.024
   70SOL     OW  214   0.781   0.264   1.749
   70SOL    HW1  215   0.848   0.203   1.792
   70SOL    HW2  216   0.708   0.283   1.814
   71SOL     OW  217   0.888   1.514   1.195
   71SOL    HW1  218   0.865   1.489   1.101
   71SOL    HW2  219   0.949   1.445   1.234
   72SOL     OW  220   1.351   0.590   1.433
   72SOL    HW1  221   1.379   0.547   1.518
   72SOL    HW2  222   1.376   0.686   1.434
   73SOL     OW  223   0.803   1.402   0.924
   73SOL    HW1  224   0.893   1.416   0.882
   73SOL    HW2  225   0.732   1.404   0.853
   74SOL     OW  226   0.922   0.503   0.899
   74SOL    HW1  227   0.897   0.494   0.803
   74SOL    HW2  228   0.970   0.421   0.930
   75SOL     OW  229   0.539   0.064   0.512
   75SOL    HW1  230   0.458   0.065   0.570
   75SOL    HW2  231   0.542   0.147   0.457
   76SOL     OW  232   1.434   1.188   0.041
   76SOL    HW1  233   1.466   1.112   0.098
   76SOL    HW2  234   1.342   1.215   0.071
   77SOL     OW  235   0.297   0.035   0.171
   77SOL    HW1  236   0.346   0.119   0.150
   77SOL    HW2  237   0.359  -0.030   0.216
   78SOL     OW  238   0.935   0.236   0.480
   78SOL    HW1  239   0.887   0.277   0.402
   78SOL    HW2  240   1.034   0.234   0.461
   79SOL     OW  241   1.076   0.683   1.464
   79SOL    HW1  242   0.996   0.622   1.467
   79SOL    HW2  243   1.157   0.630   1.440
   80SOL     OW  244   1.227   1.570   0.793
   80SOL    HW1  245   1.248   1.644   0.728
   80SOL    HW2  246   1.295   1.570   0.866
   81SOL     OW  247   0.459   1.152   0.741
   81SOL    HW1  248   0.388   1.125   0.806
   81SOL    HW2  249   0.433   1.124   0.648
   82SOL     OW  250   1.271   1.797   0.591
   82SOL    HW1  251   1.315   1.861   0.527
   82SOL    HW2  252   1.221   1.849   0.661
   83SOL     OW  253   1.032   0.549   0.016
   83SOL    HW1  254   0.991   0.631  -0.023
   83SOL    HW2  255   1.096   0.575   0.089
   84SOL     OW  256   0.078   0.556   1.386
   84SOL    HW1  257   0.170   0.555   1.345
   84SOL    HW2  258   0.072   0.630   1.453
   85SOL     OW  259   0.561   0.222   1.147
   85SOL    HW1  260   0.599   0.138   1.184
   85SOL    HW2  261   0.473   0.241   1.191
   86SOL     OW  262   0.866   0.454   0.642
   86SOL    HW1  263   0.834   0.526   0.580
   86SOL    HW2  264   0.890   0.373   0.589
   87SOL     OW  265   1.017   0.039   0.753
   87SOL    HW1  266   0.945   0.044   0.684
   87SOL    HW2  267   0.993  -0.030   0.822
   88SOL     OW  268   1.429   1.173   0.867
   88SOL    HW1  269   1.374   1.089   0.860
   88SOL    HW2  270   1.455   1.202   0.775
   89SOL     OW  271   1.466   0.590   0.992
   89SOL    HW1  272   1.436   0.495   0.999
   89SOL    HW2  273   1.539   0.606   1.058
   90SOL     OW  274   1.857   0.833   0.377
   90SOL    HW1  275   1.899   0.769   0.441
   90SOL    HW2  276   1.819   0.782   0.299
   91SOL     OW  277   0.488   1.385   0.174
   91SOL    HW1  278   0.401   1.370   0.221
   91SOL    HW2  279   0.471   1.411   0.079
   92SOL     OW  280   1.664   1.280   0.657
   92SOL    HW1  281   1.763   1.288   0.671
   92SOL    HW2  282   1.619   1.364   0.688
   93SOL     OW  283   1.390   0.575   0.078
   93SOL    HW1  284   1.336   0.554   0.159
   93SOL    HW2  285   1.481   0.534   0.087
   94SOL     OW  286   0.527   0.256   0.328
   94SOL    HW1  287   0.554   0.197   0.253
   94SOL    HW2  288   0.527   0.351   0.297
   95SOL     OW  289   1.754   1.223   1.588
   95SOL    HW1  290   1.845   1.184   1.575
   95SOL    HW2  291   1.762   1.319   1.612
   96SOL     OW  292   1.064   1.347   1.340
   96SOL    HW1  293   0.984   1.324   1.395
   96SOL    HW2  294   1.147   1.321   1.389
   97SOL     OW  295   1.592   1.629   1.625
   97SOL    HW1  296   1.619   1.663   1.535
   97SOL    HW2  297   1.671   1.591   1.671
   98SOL     OW  298   1.111   1.195   1.100
   98SOL    HW1  299   1.071   1.239   1.181
   98SOL    HW2  300   1.070   1.232   1.017
   99SOL     OW  301   1.638   1.099   1.079
   99SOL    HW1  302   1.643   1.180   1.138
   99SOL    HW2  303   1.552   1.101   1.028
  100SOL     OW  304   0.915   0.089   1.402
  100SOL    HW1  305   0.940   0.069   1.307
  100SOL    HW2  306   0.987   0.145   1.444
  101SOL     OW  307   0.980   1.116   1.719
  101SOL    HW1  308   0.881   1.122   1.729
  101SOL    HW2  309   1.003   1.036   1.663
  102SOL     OW  310   0.705   1.050   0.368
  102SOL    HW1  311   0.691   1.057   0.467
  102SOL    HW2  312   0.789   0.999   0.350
  103SOL     OW  313   0.410   0.813   1.251
  103SOL    HW1  314   0.496   0.825   1.301
  103SOL    HW2  315   0.368   0.726   1.278
  104SOL     OW  316   1.274   0.386   1.262
  104SOL    HW1  317   1.295   0.460   1.326
  104SOL    HW2  318   1.185   0.403   1.219
  105SOL     OW  319   0.064   1.564   1.331
  105SOL    HW1  320   0.018   1.646   1.297
  105SOL    HW2  321   0.162   1.583   1.340
  106SOL     OW  322   0.367   1.100   0.501
  106SOL    HW1  323   0.360   1.183   0.445
  106SOL    HW2  324   0.371   1.020   0.441
  107SOL     OW  325   0.566   0.537   0.865
  107SOL    HW1  326   0.578   0.603   0.791
  107SOL    HW2  327   0.612   0.571   0.948
  108SOL     OW  328   1.252   1.348   0.388
  108SOL    HW1  329   1.302   1.425   0.428
  108SOL    HW2  330   1.157   1.350   0.420
  109SOL     OW  331   1.272   1.445   1.142
  109SOL    HW1  332   1.319   1.458   1.229
  109SOL    HW2  333   1.206   1.371   1.151
  110SOL     OW  334   1.582   0.639   0.472
  110SOL    HW1  335   1.551   0.700   0.545
  110SOL    HW2  336   1.632   0.691   0.403
  111SOL     OW  337   0.354   1.510   1.329
  111SOL    HW1  338   0.333   1.466   1.242
  111SOL    HW2  339   0.451   1.536   1.332
  112SOL     OW  340   0.402   0.751   1.598
  112SOL    HW1  341   0.470   0.806   1.551
  112SOL    HW2  342   0.442   0.663   1.625
  113SOL     OW  343   1.587   0.779   1.670
  113SOL    HW1  344   1.495   0.817   1.665
  113SOL    HW2  345   1.647   0.826   1.605
  114SOL     OW  346   1.013   0.105   1.770
  114SOL    HW1  347   1.019   0.190   1.718
  114SOL    HW2  348   1.045   0.029   1.713
  115SOL     OW  349   0.504   0.050   1.740
  115SOL    HW1  350   0.462  -0.007   1.670
  115SOL    HW2  351   0.438   0.119   1.772
  116SOL     OW  352   0.573   0.870   1.029
  116SOL    HW1  353   0.617   0.959   1.020
  116SOL    HW2  354   0.510   0.870   1.106
  117SOL     OW  355   1.360   0.862   1.045
  117SOL    HW1  356   1.285   0.862   0.979
  117SOL    HW2  357   1.397   0.770   1.054
  118SOL     OW  358   1.209   0.525   0.275
  118SOL    HW1  359   1.222   0.441   0.329
  118SOL    HW2  360   1.180   0.599   0.335
  119SOL     OW  361   0.307   0.213   1.231
  119SOL    HW1  362   0.284   0.250   1.321
  119SOL    HW2  363   0.277   0.118   1.225
  120SOL     OW  364   0.037   1.310   1.282
  120SOL    HW1  365   0.090   1.261   1.350
  120SOL    HW2  366   0.059   1.408   1.287
  121SOL     OW  367   0.732   0.634   1.064
  121SOL    HW1  368   0.791   0.608   0.988
  121SOL    HW2  369   0.704   0.730   1.053
  122SOL     OW  370   1.728   0.935   1.854
  122SOL    HW1  371   1.682   0.928   1.765
  122SOL    HW2  372   1.666   0.979   1.920
  123SOL     OW  373   0.307   0.063   0.618
  123SOL    HW1  374   0.296   0.157   0.651
  123SOL    HW2  375   0.302   0.000   0.695
  124SOL     OW  376   1.622   0.367   0.374
  124SOL    HW1  377   1.624   0.291   0.438
  124SOL    HW2  378   1.574   0.444   0.414
  125SOL     OW  379   1.023   0.766   0.966
  125SOL    HW1  380   1.038   0.787   1.062
  125SOL    HW2  381   0.993   0.671   0.957
  126SOL     OW  382   0.980   1.573   1.700
  126SOL    HW1  383   0.960   1.617   1.612
  126SOL    HW2  384   1.019   1.482   1.684
  127SOL     OW  385   1.859   1.518   1.605
  127SOL    HW1  386   1.873   1.545   1.510
  127SOL    HW2  387   1.942   1.540   1.658
  128SOL     OW  388   0.350   0.898   1.804
  128SOL    HW1  389   0.426   0.942   1.852
  128SOL    HW2  390   0.385   0.851   1.722
  129SOL     OW  391   1.540   0.274   0.125
  129SOL    HW1  392   1.479   0.199   0.148
  129SOL    HW2  393   1.562   0.326   0.208
  130SOL     OW  394   1.303   0.838   0.042
  130SOL    HW1  395   1.337   0.745   0.057
  130SOL    HW2  396   1.321   0.865  -0.053
  131SOL     OW  397   1.068   1.333   0.849
  131SOL    HW1  398   1.075   1.249   0.794
  131SOL    HW2  399   1.130   1.402   0.813
  132SOL     OW  400   0.319   0.810   0.949
  132SOL    HW1  401   0.412   0.846   0.954
  132SOL    HW2  402   0.313   0.725   1.001
  133SOL     OW  403   0.339   0.509   1.006
  133SOL    HW1  404   0.287   0.426   0.989
  133SOL    HW2  405   0.416   0.514   0.942
  134SOL     OW  406   1.138   0.380   1.678
  134SOL    HW1  407   1.093   0.443   1.742
  134SOL    HW2  408   1.231   0.411   1.661
  135SOL     OW  409   1.160   0.207   1.477
  135SOL    HW1  410   1.160   0.271   1.554
  135SOL    HW2  411   1.188   0.255   1.394
  136SOL     OW  412   0.008   1.326   0.200
  136SOL    HW1  413  -0.085   1.347   0.169
  136SOL    HW2  414   0.018   1.227   0.213
  137SOL     OW  415   0.088   1.801   0.927
  137SOL    HW1  416   0.046   1.715   0.900
  137SOL    HW2  417   0.182   1.804   0.893
  138SOL     OW  418   0.504   1.568   0.910
  138SOL    HW1  419   0.570   1.642   0.919
  138SOL    HW2  420   0.548   1.489   0.868
  139SOL     OW  421   1.002   0.796   1.238
  139SOL    HW1  422   1.043   0.764   1.324
  139SOL    HW2  423   0.906   0.769   1.235
  140SOL     OW  424   0.040   0.544   1.114
  140SOL    HW1  425   0.125   0.511   1.073
  140SOL    HW2  426   0.053   0.559   1.212
  141SOL     OW  427   0.189   0.520   1.722
  141SOL    HW1  428   0.248   0.480   1.652
  141SOL    HW2  429   0.131   0.591   1.681
  142SOL     OW  430   1.369   0.950   1.660
  142SOL    HW1  431   1.408   1.039   1.680
  142SOL    HW2  432   1.379   0.930   1.563
  143SOL     OW  433   0.815   0.572   0.325
  143SOL    HW1  434   0.822   0.483   0.279
  143SOL    HW2  435   0.721   0.606   0.317
  144SOL     OW  436   1.657   0.604   1.206
  144SOL    HW1  437   1.619   0.535   1.268
  144SOL    HW2  438   1.739   0.568   1.162
  145SOL     OW  439   0.252   1.564   1.744
  145SOL    HW1  440   0.222   1.621   1.820
  145SOL    HW2  441   0.245   1.467   1.770
  146SOL     OW  442   0.671   0.464   1.269
  146SOL    HW1  443   0.637   0.375   1.239
  146SOL    HW2  444   0.697   0.518   1.189
  147SOL     OW  445   0.930   1.678   1.465
  147SOL    HW1  446   0.906   1.660   1.370
  147SOL    HW2  447   0.960   1.772   1.475
  148SOL     OW  448   0.473   0.500   0.191
  148SOL    HW1  449   0.534   0.580   0.195
  148SOL    HW2  450   0.378   0.531   0.198
  149SOL     OW  451   0.159   1.137   1.466
  149SOL    HW1  452   0.181   1.076   1.542
  149SOL    HW2  453   0.169   1.088   1.380
  150SOL     OW  454   1.347   1.059   1.234
  150SOL    HW1  455   1.371   0.996   1.160
  150SOL    HW2  456   1.257   1.099   1.216
  151SOL     OW  457   1.302   0.855   0.309
  151SOL    HW1  458   1.216   0.824   0.351
  151SOL    HW2  459   1.298   0.841   0.210
  152SOL     OW  460   1.759   1.747   1.154
  152SOL    HW1  461   1.820   1.777   1.081
  152SOL    HW2  462   1.721   1.658   1.132
  153SOL     OW  463   1.252   1.731   1.128
  153SOL    HW1  464   1.336   1.736   1.074
  153SOL    HW2  465   1.229   1.635   1.146
  154SOL     OW  466   0.083   1.258   1.022
  154SOL    HW1  467   0.078   1.257   1.122
  154SOL    HW2  468   0.000   1.217   0.984
  155SOL     OW  469   0.688   1.662   1.716
  155SOL    HW1  470   0.632   1.743   1.725
  155SOL    HW2  471   0.740   1.666   1.630
  156SOL     OW  472   0.903   0.086   0.133
  156SOL    HW1  473   0.954   0.087   0.047
  156SOL    HW2  474   0.959   0.044   0.204
  157SOL     OW  475   1.726   0.135   0.523
  157SOL    HW1  476   1.799   0.118   0.456
  157SOL    HW2  477   1.695   0.048   0.561
  158SOL     OW  478   1.388   1.573   0.477
  158SOL    HW1  479   1.455   1.585   0.403
  158SOL    HW2  480   1.348   1.662   0.500
  159SOL     OW  481   0.130   1.794   1.851
  159SOL    HW1  482   0.089   1.720   1.904
  159SOL    HW2  483   0.194   1.845   1.909
  160SOL     OW  484   1.280   0.927   0.672
  160SOL    HW1  485   1.340   0.846   0.674
  160SOL    HW2  486   1.320   0.996   0.612
  161SOL     OW  487   0.830   1.273   1.422
  161SOL    HW1  488   0.825   1.306   1.517
  161SOL    HW2  489   0.744   1.292   1.376
  162SOL     OW  490   0.672   1.616   0.154
  162SOL    HW1  491   0.681   1.626   0.055
  162SOL    HW2  492   0.632   1.527   0.175
  163SOL     OW  493   1.650   1.720   1.394
  163SOL    HW1  494   1.703   1.730   1.310
  163SOL    HW2  495   1.623   1.810   1.428
  164SOL     OW  496   1.841   0.175   0.963
  164SOL    HW1  497   1.880   0.090   0.927
  164SOL    HW2  498   1.743   0.177   0.944
  165SOL     OW  499   0.263   0.326   0.720
  165SOL    HW1  500   0.184   0.377   0.686
  165SOL    HW2  501   0.254   0.311   0.818
  166SOL     OW  502   1.194   1.612   0.031
  166SOL    HW1  503   1.200   1.519   0.068
  166SOL    HW2  504   1.135   1.612  -0.049
  167SOL     OW  505   0.822   1.002   1.372
  167SOL    HW1  506   0.862   1.001   1.280
  167SOL    HW2  507   0.832   1.094   1.412
  168SOL     OW  508   0.916   0.910   0.291
  168SOL    HW1  509   0.979   0.948   0.223
  168SOL    HW2  510   0.956   0.827   0.330
  169SOL     OW  511   1.504   1.607   0.044
  169SOL    HW1  512   1.412   1.644   0.051
  169SOL    HW2  513   1.542   1.627  -0.046
  170SOL     OW  514   0.372   1.288   1.490
  170SOL    HW1  515   0.359   1.381   1.456
  170SOL    HW2  516   0.288   1.236   1.477
  171SOL     OW  517   1.614   1.292   1.289
  171SOL    HW1  518   1.674   1.295   1.369
  171SOL    HW2  519   1.539   1.356   1.302
  172SOL     OW  520   1.039   1.098   0.696
  172SOL    HW1  521   0.969   1.051   0.750
  172SOL    HW2  522   1.098   1.030   0.653
  173SOL     OW  523   1.014   0.236   0.971
  173SOL    HW1  524   1.006   0.200   0.878
  173SOL    HW2  525   1.012   0.160   1.036
  174SOL     OW  526   0.590   1.487   0.491
  174SOL    HW1  527   0.632   1.429   0.421
  174SOL    HW2  528   0.546   1.566   0.447
  175SOL     OW  529   1.709   0.385   1.381
  175SOL    HW1  530   1.782   0.454   1.385
  175SOL    HW2  531   1.737   0.310   1.322
  176SOL     OW  532   0.255   1.348   0.290
  176SOL    HW1  533   0.159   1.349   0.263
  176SOL    HW2  534   0.267   1.401   0.374
  177SOL     OW  535   0.105   1.013   1.726
  177SOL    HW1  536   0.028   0.980   1.780
  177SOL    HW2  537   0.190   0.983   1.768
  178SOL     OW  538   0.672   0.203   1.489
  178SOL    HW1  539   0.762   0.187   1.449
  178SOL    HW2  540   0.680   0.208   1.588
  179SOL     OW  541   0.075   0.345   0.033
  179SOL    HW1  542  -0.017   0.317   0.004
  179SOL    HW2  543   0.106   0.422  -0.023
  180SOL     OW  544   1.440   0.856   1.398
  180SOL    HW1  545   1.383   0.908   1.335
  180SOL    HW2  546   1.536   0.868   1.374
  181SOL     OW  547   0.072   0.166   0.318
  181SOL    HW1  548   0.055   0.249   0.264
  181SOL    HW2  549   0.162   0.129   0.296
  182SOL     OW  550   1.183   1.335   0.119
  182SOL    HW1  551   1.084   1.324   0.121
  182SOL    HW2  552   1.217   1.350   0.212
  183SOL     OW  553   0.613   0.842   1.431
  183SOL    HW1  554   0.669   0.923   1.414
  183SOL    HW2  555   0.672   0.762   1.434
  184SOL     OW  556   1.493   1.767   0.959
  184SOL    HW1  557   1.526   1.831   0.890
  184SOL    HW2  558   1.559   1.761   1.034
  185SOL     OW  559   0.716   0.565   1.708
  185SOL    HW1  560   0.735   0.630   1.782
  185SOL    HW2  561   0.776   0.485   1.717
  186SOL     OW  562   1.450   1.220   1.633
  186SOL    HW1  563   1.441   1.210   1.732
  186SOL    HW2  564   1.546   1.213   1.607
  187SOL     OW  565   0.390   1.741   1.560
  187SOL    HW1  566   0.299   1.782   1.558
  187SOL    HW2  567   0.383   1.647   1.592
  188SOL     OW  568   1.674   0.883   1.254
  188SOL    HW1  569   1.647   0.794   1.217
  188SOL    HW2  570   1.675   0.951   1.181
  189SOL     OW  571   1.225   0.325   0.449
  189SOL    HW1  572   1.290   0.251   0.438
  189SOL    HW2  573   1.245   0.375   0.533
  190SOL     OW  574   0.594   0.745   0.652
  190SOL    HW1  575   0.644   0.830   0.633
  190SOL    HW2  576   0.506   0.747   0.604
  191SOL     OW  577   1.777   0.342   1.642
  191SOL    HW1  578   1.760   0.373   1.548
  191SOL    HW2  579   1.693   0.305   1.680
  192SOL     OW  580   1.730   0.934   1.517
  192SOL    HW1  581   1.768   1.025   1.532
  192SOL    HW2  582   1.722   0.917   1.418
  193SOL     OW  583   0.859   1.374   0.016
  193SOL    HW1  584   0.813   1.389   0.104
  193SOL    HW2  585   0.903   1.459  -0.014
  194SOL     OW  586   0.661   1.790   0.953
  194SOL    HW1  587   0.615   1.878   0.940
  194SOL    HW2  588   0.760   1.802   0.946
  195SOL     OW  589   0.859   0.956   0.861
  195SOL    HW1  590   0.913   0.887   0.909
  195SOL    HW2  591   0.827   1.025   0.927
  196SOL     OW  592   1.083   0.984   0.087
  196SOL    HW1  593   1.060   1.037   0.005
  196SOL    HW2  594   1.164   0.928   0.068
  197SOL     OW  595   1.861   1.569   0.851
  197SOL    HW1  596   1.790   1.557   0.781
  197SOL    HW2  597   1.862   1.490   0.911
  198SOL     OW  598   0.221   1.314   1.844
  198SOL    HW1  599   0.156   1.241   1.823
  198SOL    HW2  600   0.225   1.328   1.942
  199SOL     OW  601   0.079   1.240   0.653
  199SOL    HW1  602   0.078   1.193   0.741
  199SOL    HW2  603   0.161   1.212   0.602
  200SOL     OW  604   0.672   1.391   1.624
  200SOL    HW1  605   0.594   1.341   1.662
  200SOL    HW2  606   0.669   1.486   1.655
  201SOL     OW  607   1.824   0.192   1.227
  201SOL    HW1  608   1.820   0.102   1.271
  201SOL    HW2  609   1.827   0.181   1.128
  202SOL     OW  610   0.428   0.424   0.520
  202SOL    HW1  611   0.458   0.352   0.458
  202SOL    HW2  612   0.389   0.384   0.603
  203SOL     OW  613   1.705   1.487   1.104
  203SOL    HW1  614   1.612   1.462   1.077
  203SOL    HW2  615   1.731   1.437   1.186
  204SOL     OW  616   0.317   0.547   1.280
  204SOL    HW1  617   0.355   0.488   1.352
  204SOL    HW2  618   0.357   0.521   1.192
  205SOL     OW  619   0.812   1.586   0.687
  205SOL    HW1  620   0.844   1.596   0.593
  205SOL    HW2  621   0.733   1.524   0.689
  206SOL     OW  622   1.424   0.214   1.112
  206SOL    HW1  623   1.476   0.149   1.167
  206SOL    HW2  624   1.375   0.277   1.173
  207SOL     OW  625   1.001   0.034   1.154
  207SOL    HW1  626   0.938  -0.038   1.123
  207SOL    HW2  627   1.094  -0.002   1.154
  208SOL     OW  628   0.770   1.330   0.301
  208SOL    HW1  629   0.724   1.243   0.318
  208SOL    HW2  630   0.861   1.327   0.342
  209SOL     OW  631   0.618   1.567   1.284
  209SOL    HW1  632   0.613   1.649   1.341
  209SOL    HW2  633   0.707   1.564   1.239
  210SOL     OW  634   1.352   0.052   0.168
  210SOL    HW1  635   1.387   0.011   0.084
  210SOL    HW2  636   1.262   0.014   0.188
  211SOL     OW  637   1.300   0.453   0.691
  211SOL    HW1  638   1.241   0.533   0.695
  211SOL    HW2  639   1.315   0.418   0.784
  212SOL     OW  640   1.593   0.221   0.882
  212SOL    HW1  641   1.509   0.220   0.936
  212SOL    HW2  642   1.595   0.304   0.826
  213SOL     OW  643   0.039   1.077   0.300
  213SOL    HW1  644   0.138   1.066   0.291
  213SOL    HW2  645  -0.001   0.991   0.332
  214SOL     OW  646   0.875   1.646   0.337
  214SOL    HW1  647   0.798   1.611   0.283
  214SOL    HW2  648   0.843   1.717   0.399
  215SOL     OW  649   0.230   0.628   1.975
  215SOL    HW1  650   0.137   0.626   2.012
  215SOL    HW2  651   0.231   0.589   1.883
  216SOL     OW  652   0.225   0.275   2.858
  216SOL    HW1  653   0.260   0.258   2.950
  216SOL    HW2  654   0.137   0.230   2.846
  217SOL     OW  655   0.019   0.368   2.509
  217SOL    HW1  656  -0.063   0.411   2.548
  217SOL    HW2  657  -0.009   0.295   2.446
  218SOL     OW  658   0.569   1.275   3.027
  218SOL    HW1  659   0.476   1.268   2.990
  218SOL    HW2  660   0.580   1.364   3.071
  219SOL     OW  661   1.555   1.511   2.565
  219SOL    HW1  662   1.498   1.495   2.646
  219SOL    HW2  663   1.496   1.521   2.485
  220SOL     OW  664   1.135   0.703   2.579
  220SOL    HW1  665   1.192   0.781   2.554
  220SOL    HW2  666   1.075   0.729   2.655
  221SOL     OW  667   1.755   0.607   2.093
  221SOL    HW1  668   1.743   0.594   1.994
  221SOL    HW2  669   1.725   0.526   2.142
  222SOL     OW  670   0.768   1.144   2.885
  222SOL    HW1  671   0.690   1.161   2.945
  222SOL    HW2  672   0.802   1.231   2.849
  223SOL     OW  673   0.850   0.798   3.685
  223SOL    HW1  674   0.846   0.874   3.750
  223SOL    HW2  675   0.872   0.834   3.594
  224SOL     OW  676   0.685   1.012   2.527
  224SOL    HW1  677   0.754   0.996   2.597
  224SOL    HW2  678   0.612   1.069   2.565
  225SOL     OW  679   0.686   1.161   3.665
  225SOL    HW1  680   0.746   1.240   3.679
  225SOL    HW2  681   0.600   1.192   3.624
  226SOL     OW  682   0.335   1.435   2.923
  226SOL    HW1  683   0.257   1.404   2.870
  226SOL    HW2  684   0.393   1.493   2.866
  227SOL     OW  685   1.460   1.505   3.201
  227SOL    HW1  686   1.484   1.599   3.227
  227SOL    HW2  687   1.444   1.451   3.283
  228SOL     OW  688   0.438   0.392   3.361
  228SOL    HW1  689   0.520   0.336   3.370
  228SOL    HW2  690   0.357   0.334   3.365
  229SOL     OW  691   1.603   0.447   2.599
  229SOL    HW1  692   1.529   0.493   2.549
  229SOL    HW2  693   1.654   0.515   2.652
  230SOL     OW  694   0.231   1.713   2.345
  230SOL    HW1  695   0.265   1.790   2.399
  230SOL    HW2  696   0.275   1.713   2.255
  231SOL     OW  697   1.127   1.341   3.552
  231SOL    HW1  698   1.174   1.341   3.640
  231SOL    HW2  699   1.079   1.254   3.541
  232SOL     OW  700   0.230   1.434   2.400
  232SOL    HW1  701   0.204   1.530   2.400
  232SOL    HW2  702   0.159   1.380   2.445
  233SOL     OW  703   0.240   1.091   2.748
  233SOL    HW1  704   0.254   1.007   2.800
  233SOL    HW2  705   0.185   1.155   2.803
  234SOL     OW  706   0.620   1.786   3.301
  234SOL    HW1  707   0.528   1.769   3.336
  234SOL    HW2  708   0.648   1.878   3.327
  235SOL     OW  709   0.606   0.964   1.985
  235SOL    HW1  710   0.613   1.048   1.931
  235SOL    HW2  711   0.652   0.977   2.073
  236SOL     OW  712   1.594   0.114   3.342
  236SOL    HW1  713   1.576   0.181   3.270
  236SOL    HW2  714   1.591   0.160   3.431
  237SOL     OW  715   0.122   0.643   2.425
  237SOL    HW1  716   0.077   0.555   2.442
  237SOL    HW2  717   0.121   0.697   2.509
  238SOL     OW  718   1.842   1.767   2.221
  238SOL    HW1  719   1.896   1.738   2.301
  238SOL    HW2  720   1.872   1.857   2.192
  239SOL     OW  721   0.027   1.596   1.979
  239SOL    HW1  722   0.008   1.500   2.000
  239SOL    HW2  723  -0.006   1.654   2.054
  240SOL     OW  724   1.689   0.922   2.474
  240SOL    HW1  725   1.784   0.893   2.482
  240SOL    HW2  726   1.681   0.987   2.399
  241SOL     OW  727   1.641   1.108   2.294
  241SOL    HW1  728   1.727   1.110   2.242
  241SOL    HW2  729   1.655   1.155   2.382
  242SOL     OW  730   0.113   0.737   3.459
  242SOL    HW1  731   0.201   0.724   3.504
  242SOL    HW2  732   0.100   0.834   3.437
  243SOL     OW  733   0.613   1.365   2.588
  243SOL    HW1  734   0.564   1.278   2.597
  243SOL    HW2  735   0.590   1.408   2.501
  244SOL     OW  736   1.293   1.228   3.285
  244SOL    HW1  737   1.330   1.155   3.227
  244SOL    HW2  738   1.345   1.233   3.370
  245SOL     OW  739   0.809   0.004   2.364
  245SOL    HW1  740   0.849   0.095   2.355
  245SOL    HW2  741   0.709   0.012   2.370
  246SOL     OW  742   0.197   0.976   3.126
  246SOL    HW1  743   0.286   0.931   3.112
  246SOL    HW2  744   0.124   0.911   3.107
  247SOL     OW  745   1.525   0.999   2.052
  247SOL    HW1  746   1.462   0.923   2.065
  247SOL    HW2  747   1.573   1.017   2.138
  248SOL     OW  748   1.187   1.792   3.478
  248SOL    HW1  749   1.211   1.852   3.402
  248SOL    HW2  750   1.194   1.697   3.448
  249SOL     OW  751   0.317   0.251   3.663
  249SOL    HW1  752   0.388   0.322   3.669
  249SOL    HW2  753   0.229   0.290   3.691
  250SOL     OW  754   1.466   1.417   2.815
  250SOL    HW1  755   1.407   1.423   2.895
  250SOL    HW2  756   1.451   1.329   2.769
  251SOL     OW  757   1.667   1.714   2.434
  251SOL    HW1  758   1.626   1.691   2.346
  251SOL    HW2  759   1.649   1.640   2.499
  252SOL     OW  760   0.598   0.729   2.132
  252SOL    HW1  761   0.622   0.798   2.064
  252SOL    HW2  762   0.520   0.762   2.186
  253SOL     OW  763   1.281   0.345   2.806
  253SOL    HW1  764   1.195   0.295   2.793
  253SOL    HW2  765   1.343   0.291   2.862
  254SOL     OW  766   1.576   1.662   2.169
  254SOL    HW1  767   1.665   1.708   2.172
  254SOL    HW2  768   1.555   1.638   2.074
  255SOL     OW  769   0.807   0.605   3.327
  255SOL    HW1  770   0.760   0.602   3.416
  255SOL    HW2  771   0.756   0.550   3.261
  256SOL     OW  772   1.394   0.469   3.536
  256SOL    HW1  773   1.374   0.512   3.624
  256SOL    HW2  774   1.472   0.407   3.545
  257SOL     OW  775   0.973   0.890   3.434
  257SOL    HW1  776   1.019   0.806   3.405
  257SOL    HW2  777   0.917   0.924   3.359
  258SOL     OW  778   0.991   0.410   3.104
  258SOL    HW1  779   0.914   0.444   3.158
  258SOL    HW2  780   0.957   0.359   3.025
  259SOL     OW  781   1.041   0.701   2.291
  259SOL    HW1  782   1.067   0.697   2.387
  259SOL    HW2  783   0.956   0.650   2.277
  260SOL     OW  784   0.076   0.811   2.651
  260SOL    HW1  785   0.175   0.799   2.660
  260SOL    HW2  786   0.052   0.906   2.672
  261SOL     OW  787   0.130   1.821   3.433
  261SOL    HW1  788   0.120   1.806   3.532
  261SOL    HW2  789   0.044   1.857   3.397
  262SOL     OW  790   0.865   0.348   2.057
  262SOL    HW1  791   0.924   0.411   2.008
  262SOL    HW2  792   0.884   0.254   2.028
  263SOL     OW  793   1.719   0.585   3.693
  263SOL    HW1  794   1.693   0.674   3.657
  263SOL    HW2  795   1.717   0.517   3.620
  264SOL     OW  796   1.362   1.144   2.407
  264SOL    HW1  797   1.445   1.115   2.359
  264SOL    HW2  798   1.313   1.211   2.351
  265SOL     OW  799   0.550   0.196   2.747
  265SOL    HW1  800   0.545   0.191   2.847
  265SOL    HW2  801   0.552   0.292   2.718
  266SOL     OW  802   1.008   1.456   2.339
  266SOL    HW1  803   0.962   1.528   2.287
  266SOL    HW2  804   1.004   1.476   2.437
  267SOL     OW  805   0.351   1.801   2.715
  267SOL    HW1  806   0.401   1.715   2.721
  267SOL    HW2  807   0.416   1.878   2.712
  268SOL     OW  808   1.795   1.066   2.735
  268SOL    HW1  809   1.733   1.051   2.659
  268SOL    HW2  810   1.743   1.077   2.820
  269SOL     OW  811   1.227   1.550   3.368
  269SOL    HW1  812   1.233   1.473   3.432
  269SOL    HW2  813   1.175   1.524   3.288
  270SOL     OW  814   0.321   0.943   2.104
  270SOL    HW1  815   0.403   0.982   2.062
  270SOL    HW2  816   0.294   0.861   2.055
  271SOL     OW  817   1.458   0.735   2.590
  271SOL    HW1  818   1.453   0.670   2.665
  271SOL    HW2  819   1.538   0.794   2.603
  272SOL     OW  820   0.461   1.266   3.589
  272SOL    HW1  821   0.411   1.267   3.503
  272SOL    HW2  822   0.398   1.248   3.665
  273SOL     OW  823   1.111   1.776   2.099
  273SOL    HW1  824   1.051   1.714   2.149
  273SOL    HW2  825   1.142   1.732   2.014
  274SOL     OW  826   0.202   0.285   3.360
  274SOL    HW1  827   0.122   0.345   3.347
  274SOL    HW2  828   0.192   0.236   3.446
  275SOL     OW  829   1.632   1.377   1.943
  275SOL    HW1  830   1.600   1.471   1.933
  275SOL    HW2  831   1.556   1.314   1.931
  276SOL     OW  832   0.464   1.743   2.185
  276SOL    HW1  833   0.497   1.782   2.271
  276SOL    HW2  834   0.540   1.736   2.120
  277SOL     OW  835   1.400   0.107   2.288
  277SOL    HW1  836   1.376   0.070   2.198
  277SOL    HW2  837   1.499   0.123   2.292
  278SOL     OW  838   0.249   1.785   3.103
  278SOL    HW1  839   0.306   1.720   3.153
  278SOL    HW2  840   0.233   1.752   3.010
  279SOL     OW  841   0.940   1.698   2.766
  279SOL    HW1  842   1.020   1.641   2.787
  279SOL    HW2  843   0.891   1.658   2.689
  280SOL     OW  844   0.382   0.700   2.342
  280SOL    HW1  845   0.427   0.610   2.339
  280SOL    HW2  846   0.288   0.689   2.375
  281SOL     OW  847   1.547   0.222   3.591
  281SOL    HW1  848   1.542   0.259   3.683
  281SOL    HW2  849   1.475   0.153   3.579
  282SOL     OW  850   0.614   0.122   1.979
  282SOL    HW1  851   0.712   0.100   1.986
  282SOL    HW2  852   0.583   0.105   1.886
  283SOL     OW  853   0.781   0.264   3.611
  283SOL    HW1  854   0.848   0.203   3.654
  283SOL    HW2  855   0.708   0.283   3.676
  284SOL     OW  856   0.888   1.514   3.057
  284SOL    HW1  857   0.865   1.489   2.963
  284SOL    HW2  858   0.949   1.445   3.096
  285SOL     OW  859   1.351   0.590   3.295
  285SOL    HW1  860   1.379   0.547   3.380
  285SOL    HW2  861   1.376   0.686   3.296
  286SOL     OW  862   0.803   1.402   2.786
  286SOL    HW1  863   0.893   1.416   2.744
  286SOL    HW2  864   0.732   1.404   2.715
  287SOL     OW  865   0.922   0.503   2.761
  287SOL    HW1  866   0.897   0.494   2.665
  287SOL    HW2  867   0.970   0.421   2.792
  288SOL     OW  868   0.539   0.064   2.374
  288SOL    HW1  869   0.458   0.065   2.432
  288SOL    HW2  870   0.542   0.147   2.319
  289SOL     OW  871   1.434   1.188   1.903
  289SOL    HW1  872   1.466   1.112   1.960
  289SOL    HW2  873   1.342   1.215   1.933
  290SOL     OW  874   0.297   0.035   2.033
  290SOL    HW1  875   0.346   0.119   2.012
  290SOL    HW2  876   0.359  -0.030   2.078
  291SOL     OW  877   0.935   0.236   2.342
  291SOL    HW1  878   0.887   0.277   2.264
  291SOL    HW2  879   1.034   0.234   2.323
  292SOL     OW  880   1.076   0.683   3.326
  292SOL    HW1  881   0.996   0.622   3.329
  292SOL    HW2  882   1.157   0.630   3.302
  293SOL     OW  883   1.227   1.570   2.655
  293SOL    HW1  884   1.248   1.644   2.590
  293SOL    HW2  885   1.295   1.570   2.728
  294SOL     OW  886   0.459   1.152   2.603
  294SOL    HW1  887   0.388   1.125   2.668
  294SOL    HW2  888   0.433   1.124   2.510
  295SOL     OW  889   1.271   1.797   2.453
  295SOL    HW1  890   1.315   1.861   2.389
  295SOL    HW2  891   1.221   1.849   2.523
  296SOL     OW  892   1.032   0.549   1.878
  296SOL    HW1  893   0.991   0.631   1.839
  296SOL    HW2  894   1.096   0.575   1.951
  297SOL     OW  895   0.078   0.556   3.248
  297SOL    HW1  896   0.170   0.555   3.207
  297SOL    HW2  897   0.072   0.630   3.315
  298SOL     OW  898   0.561   0.222   3.009
  298SOL    HW1  899   0.599   0.138   3.046
  298SOL    HW2  900   0.473   0.241   3.053
  299SOL     OW  901   0.866   0.454   2.504
  299SOL    HW1  902   0.834   0.526   2.442
  299SOL    HW2  903   0.890   0.373   2.451
  300SOL     OW  904   1.017   0.039   2.615
  300SOL    HW1  905   0.945   0.044   2.546
  300SOL    HW2  906   0.993  -0.030   2.684
  301SOL     OW  907   1.429   1.173   2.729
  301SOL    HW1  908   1.374   1.089   2.722
  301SOL    HW2  909   1.455   1.202   2.637
  302SOL     OW  910   1.466   0.590   2.854
  302SOL    HW1  911   1.436   0.495   2.861
  302SOL    HW2  912   1.539   0.606   2.920
  303SOL     OW  913   1.857   0.833   2.239
  303SOL    HW1  914   1.899   0.769   2.303
  303SOL    HW2  915   1.819   0.782   2.161
  304SOL     OW  916   0.488   1.385   2.036
  304SOL    HW1  917   0.401   1.370   2.083
  304SOL    HW2  918   0.471   1.411   1.941
  305SOL     OW  919   1.664   1.280   2.519
  305SOL    HW1  920   1.763   1.288   2.533
  305SOL    HW2  921   1.619   1.364   2.550
  306SOL     OW  922   1.390   0.575   1.940
  306SOL    HW1  923   1.336   0.554   2.021
  306SOL    HW2  924   1.481   0.534   1.949
  307SOL     OW  925   0.527   0.256   2.190
  307SOL    HW1  926   0.554   0.197   2.115
  307SOL    HW2  927   0.527   0.351   2.159
  308SOL     OW  928   1.754   1.223   3.450
  308SOL    HW1  929   1.845   1.184   3.437
  308SOL    HW2  930   1.762   1.319   3.474
  309SOL     OW  931   1.064   1.347   3.202
  309SOL    HW1  932   0.984   1.324   3.257
  309SOL    HW2  933   1.147   1.321   3.251
  310SOL     OW  934   1.592   1.629   3.487
  310SOL    HW1  935   1.619   1.663   3.397
  310SOL    HW2  936   1.671   1.591   3.533
  311SOL     OW  937   1.111   1.195   2.962
  311SOL    HW1  938   1.071   1.239   3.043
  311SOL    HW2  939   1.070   1.232   2.879
  312SOL     OW  940   1.638   1.099   2.941
  312SOL    HW1  941   1.643   1.180   3.000
  312SOL    HW2  942   1.552   1.101   2.890
  313SOL     OW  943   0.915   0.089   3.264
  313SOL    HW1  944   0.940   0.069   3.169
  313SOL    HW2  945   0.987   0.145   3.306
  314SOL     OW  946   0.980   1.116   3.581
  314SOL    HW1  947   0.881   1.122   3.591
  314SOL    HW2  948   1.003   1.036   3.525
  315SOL     OW  949   0.705   1.050   2.230
  315SOL    HW1  950   0.691   1.057   2.329
  315SOL    HW2  951   0.789   0.999   2.212
  316SOL     OW  952   0.410   0.813   3.113
  316SOL    HW1  953   0.496   0.825   3.163
  316SOL    HW2  954   0.368   0.726   3.140
  317SOL     OW  955   1.274   0.386   3.124
  317SOL    HW1  956   1.295   0.460   3.188
  317SOL    HW2  957   1.185   0.403   3.081
  318SOL     OW  958   0.064   1.564   3.193
  318SOL    HW1  959   0.018   1.646   3.159
  318SOL    HW2  960   0.162   1.583   3.202
  319SOL     OW  961   0.367   1.100   2.363
  319SOL    HW1  962   0.360   1.183   2.307
  319SOL    HW2  963   0.371   1.020   2.303
  320SOL     OW  964   0.566   0.537   2.727
  320SOL    HW1  965   0.578   0.603   2.653
  320SOL    HW2  966   0.612   0.571   2.810
  321SOL     OW  967   1.252   1.348   2.250
  321SOL    HW1  968   1.302   1.425   2.290
  321SOL    HW2  969   1.157   1.350   2.282
  322SOL     OW  970   1.272   1.445   3.004
  322SOL    HW1  971   1.319   1.458   3.091
  322SOL    HW2  972   1.206   1.371   3.013
  323SOL     OW  973   1.582   0.639   2.334
  323SOL    HW1  974   1.551   0.700   2.407
  323SOL    HW2  975   1.632   0.691   2.265
  324SOL     OW  976   0.354   1.510   3.191
  324SOL    HW1  977   0.333   1.466   3.104
  324SOL    HW2  978   0.451   1.536   3.194
  325SOL     OW  979   0.402   0.751   3.460
  325SOL    HW1  980   0.470   0.806   3.413
  325SOL    HW2  981   0.442   0.663   3.487
  326SOL     OW  982   1.587   0.779   3.532
  326SOL    HW1  983   1.495   0.817   3.527
  326SOL    HW2  984   1.647   0.826   3.467
  327SOL     OW  985   1.013   0.105   3.632
  327SOL    HW1  986   1.019   0.190   3.580
  327SOL    HW2  987   1.045   0.029   3.575
  328SOL     OW  988   0.504   0.050   3.602
  328SOL    HW1  989   0.462  -0.007   3.532
  328SOL    HW2  990   0.438   0.119   3.634
  329SOL     OW  991   0.573   0.870   2.891
  329SOL    HW1  992   0.617   0.959   2.882
  329SOL    HW2  993   0.510   0.870   2.968
  330SOL     OW  994   1.360   0.862   2.907
  330SOL    HW1  995   1.285   0.862   2.841
  330SOL    HW2  996   1.397   0.770   2.916
  331SOL     OW  997   1.209   0.525   2.137
  331SOL    HW1  998   1.222   0.441   2.191
  331SOL    HW2  999   1.180   0.599   2.197
  332SOL     OW 1000   0.307   0.213   3.093
  332SOL    HW1 1001   0.284   0.250   3.183
  332SOL    HW2 1002   0.277   0.118   3.087
  333SOL     OW 1003   0.037   1.310   3.144
  333SOL    HW1 1004   0.090   1.261   3.212
  333SOL    HW2 1005   0.059   1.408   3.149
  334SOL     OW 1006   0.732   0.634   2.926
  334SOL    HW1 1007   0.791   0.608   2.850
  334SOL    HW2 1008   0.704   0.730   2.915
  335SOL     OW 1009   1.728   0.935   3.716
  335SOL    HW1 1010   1.682   0.928   3.627
  335SOL    HW2 1011   1.666   0.979   3.782
  336SOL     OW 1012   0.307   0.063   2.480
  336SOL    HW1 1013   0.296   0.157   2.513
  336SOL    HW2 1014   0.302   0.000   2.557
  337SOL     OW 1015   1.622   0.367   2.236
  337SOL    HW1 1016   1.624   0.291   2.300
  337SOL    HW2 1017   1.574   0.444   2.276
  338SOL     OW 1018   1.023   0.766   2.828
  338SOL    HW1 1019   1.038   0.787   2.924
  338SOL    HW2 1020   0.993   0.671   2.819
  339SOL     OW 1021   0.980   1.573   3.562
  339SOL    HW1 1022   0.960   1.617   3.474
  339SOL    HW2 1023   1.019   1.482   3.546
  340SOL     OW 1024   1.859   1.518   3.467
  340SOL    HW1 1025   1.873   1.545   3.372
  340SOL    HW2 1026   1.942   1.540   3.520
  341SOL     OW 1027   0.350   0.898   3.666
  341SOL    HW1 1028   0.426   0.942   3.714
  341SOL    HW2 1029   0.385   0.851   3.584
  342SOL     OW 1030   1.540   0.274   1.987
  342SOL    HW1 1031   1.479   0.199   2.010
  342SOL    HW2 1032   1.562   0.326   2.070
  343SOL     OW 1033   1.303   0.838   1.904
  343SOL    HW1 1034   1.337   0.745   1.919
  343SOL    HW2 1035   1.321   0.865   1.809
  344SOL     OW 1036   1.068   1.333   2.711
  344SOL    HW1 1037   1.075   1.249   2.656
  344SOL    HW2 1038   1.130   1.402   2.675
  345SOL     OW 1039   0.319   0.810   2.811
  345SOL    HW1 1040   0.412   0.846   2.816
  345SOL    HW2 1041   0.313   0.725   2.863
  346SOL     OW 1042   0.339   0.509   2.868
  346SOL    HW1 1043   0.287   0.426   2.851
  346SOL    HW2 1044   0.416   0.514   2.804
  347SOL     OW 1045   1.138   0.380   3.540
  347SOL    HW1 1046   1.093   0.443   3.604
  347SOL    HW2 1047   1.231   0.411   3.523
  348SOL     OW 1048   1.160   0.207   3.339
  348SOL    HW1 1049   1.160   0.271   3.416
  348SOL    HW2 1050   1.188   0.255   3.256
  349SOL     OW 1051   0.008   1.326   2.062
  349SOL    HW1 1052  -0.085   1.347   2.031
  349SOL    HW2 1053   0.018   1.227   2.075
  350SOL     OW 1054   0.088   1.801   2.789
  350SOL    HW1 1055   0.046   1.715   2.762
  350SOL    HW2 1056   0.182   1.804   2.755
  351SOL     OW 1057   0.504   1.568   2.772
  351SOL    HW1 1058   0.570   1.642   2.781
  351SOL    HW2 1059   0.548   1.489   2.730
  352SOL     OW 1060   1.002   0.796   3.100
  352SOL    HW1 1061   1.043   0.764   3.186
  352SOL    HW2 1062   0.906   0.769   3.097
  353SOL     OW 1063   0.040   0.544   2.976
  353SOL    HW1 1064   0.125   0.511   2.935
  353SOL    HW2 1065   0.053   0.559   3.074
  354SOL     OW 1066   0.189   0.520   3.584
  354SOL    HW1 1067   0.248   0.480   3.514
  354SOL    HW2 1068   0.131   0.591   3.543
  355SOL     OW 1069   1.369   0.950   3.522
  355SOL    HW1 1070   1.408   1.039   3.542
  355SOL    HW2 1071   1.379   0.930   3.425
  356SOL     OW 1072   0.815   0.572   2.187
  356SOL    HW1 1073   0.822   0.483   2.141
  356SOL    HW2 1074   0.721   0.606   2.179
  357SOL     OW 1075   1.657   0.604   3.068
  357SOL    HW1 1076   1.619   0.535   3.130
  357SOL    HW2 1077   1.739   0.568   3.024
  358SOL     OW 1078   0.252   1.564   3.606
  358SOL    HW1 1079   0.222   1.621   3.682
  358SOL    HW2 1080   0.245   1.467   3.632
  359SOL     OW 1081   0.671   0.464   3.131
  359SOL    HW1 1082   0.637   0.375   3.101
  359SOL    HW2 1083   0.697   0.518   3.051
  360SOL     OW 1084   0.930   1.678   3.327
  360SOL    HW1 1085   0.906   1.660   3.232
  360SOL    HW2 1086   0.960   1.772   3.337
  361SOL     OW 1087   0.473   0.500   2.053
  361SOL    HW1 1088   0.534   0.580   2.057
  361SOL    HW2 1089   0.378   0.531   2.060
  362SOL     OW 1090   0.159   1.137   3.328
  362SOL    HW1 1091   0.181   1.076   3.404
  362SOL    HW2 1092   0.169   1.088   3.242
  363SOL     OW 1093   1.347   1.059   3.096
  363SOL    HW1 1094   1.371   0.996   3.022
  363SOL    HW2 1095   1.257   1.099   3.078
  364SOL     OW 1096   1.302   0.855   2.171
  364SOL    HW1 1097   1.216   0.824   2.213
  364SOL    HW2 1098   1.298   0.841   2.072
  365SOL     OW 1099   1.759   1.747   3.016
  365SOL    HW1 1100   1.820   1.777   2.943
  365SOL    HW2 1101   1.721   1.658   2.994
  366SOL     OW 1102   1.252   1.731   2.990
  366SOL    HW1 1103   1.336   1.736   2.936
  366SOL    HW2 1104   1.229   1.635   3.008
  367SOL     OW 1105   0.083   1.258   2.884
  367SOL    HW1 1106   0.078   1.257   2.984
  367SOL    HW2 1107   0.000   1.217   2.846
  368SOL     OW 1108   0.688   1.662   3.578
  368SOL    HW1 1109   0.632   1.743   3.587
  368SOL    HW2 1110   0.740   1.666   3.492
  369SOL     OW 1111   1.726   0.135   2.385
  369SOL    HW1 1112   1.799   0.118   2.318
  369SOL    HW2 1113   1.695   0.048   2.423
  370SOL     OW 1114   1.388   1.573   2.339
  370SOL    HW1 1115   1.455   1.585   2.265
  370SOL    HW2 1116   1.348   1.662   2.362
  371SOL     OW 1117   0.130   1.794   3.713
  371SOL    HW1 1118   0.089   1.720   3.766
  371SOL    HW2 1119   0.194   1.845   3.771
  372SOL     OW 1120   1.280   0.927   2.534
  372SOL    HW1 1121   1.340   0.846   2.536
  372SOL    HW2 1122   1.320   0.996   2.474
  373SOL     OW 1123   0.830   1.273   3.284
  373SOL    HW1 1124   0.825   1.306   3.379
  373SOL    HW2 1125   0.744   1.292   3.238
  374SOL     OW 1126   0.672   1.616   2.016
  374SOL    HW1 1127   0.681   1.626   1.917
  374SOL    HW2 1128   0.632   1.527   2.037
  375SOL     OW 1129   1.650   1.720   3.256
  375SOL    HW1 1130   1.703   1.730   3.172
  375SOL    HW2 1131   1.623   1.810   3.290
  376SOL     OW 1132   1.841   0.175   2.825
  376SOL    HW1 1133   1.880   0.090   2.789
  376SOL    HW2 1134   1.743   0.177   2.806
  377SOL     OW 1135   0.263   0.326   2.582
  377SOL    HW1 1136   0.184   0.377   2.548
  377SOL    HW2 1137   0.254   0.311   2.680
  378SOL     OW 1138   1.194   1.612   1.893
  378SOL    HW1 1139   1.200   1.519   1.930
  378SOL    HW2 1140   1.135   1.612   1.813
  379SOL     OW 1141   0.822   1.002   3.234
  379SOL    HW1 1142   0.862   1.001   3.142
  379SOL    HW2 1143   0.832   1.094   3.274
  380SOL     OW 1144   0.916   0.910   2.153
  380SOL    HW1 1145   0.979   0.948   2.085
  380SOL    HW2 1146   0.956   0.827   2.192
  381SOL     OW 1147   1.504   1.607   1.906
  381SOL    HW1 1148   1.412   1.644   1.913
  381SOL    HW2 1149   1.542   1.627   1.816
  382SOL     OW 1150   0.372   1.288   3.352
  382SOL    HW1 1151   0.359   1.381   3.318
  382SOL    HW2 1152   0.288   1.236   3.339
  383SOL     OW 1153   1.614   1.292   3.151
  383SOL    HW1 1154   1.674   1.295   3.231
  383SOL    HW2 1155   1.539   1.356   3.164
  384SOL     OW 1156   1.039   1.098   2.558
  384SOL    HW1 1157   0.969   1.051   2.612
  384SOL    HW2 1158   1.098   1.030   2.515
  385SOL     OW 1159   1.014   0.236   2.833
  385SOL    HW1 1160   1.006   0.200   2.740
  385SOL    HW2 1161   1.012   0.160   2.898
  386SOL     OW 1162   0.590   1.487   2.353
  386SOL    HW1 1163   0.632   1.429   2.283
  386SOL    HW2 1164   0.546   1.566   2.309
  387SOL     OW 1165   1.709   0.385   3.243
  387SOL    HW1 1166   1.782   0.454   3.247
  387SOL    HW2 1167   1.737   0.310   3.184
  388SOL     OW 1168   0.255   1.348   2.152
  388SOL    HW1 1169   0.159   1.349   2.125
  388SOL    HW2 1170   0.267   1.401   2.236
  389SOL     OW 1171   0.105   1.013   3.588
  389SOL    HW1 1172   0.028   0.980   3.642
  389SOL    HW2 1173   0.190   0.983   3.630
  390SOL     OW 1174   0.672   0.203   3.351
  390SOL    HW1 1175   0.762   0.187   3.311
  390SOL    HW2 1176   0.680   0.208   3.450
  391SOL     OW 1177   0.075   0.345   1.895
  391SOL    HW1 1178  -0.017   0.317   1.866
  391SOL    HW2 1179   0.106   0.422   1.839
  392SOL     OW 1180   1.440   0.856   3.260
  392SOL    HW1 1181   1.383   0.908   3.197
  392SOL    HW2 1182   1.536   0.868   3.236
  393SOL     OW 1183   0.072   0.166   2.180
  393SOL    HW1 1184   0.055   0.249   2.126
  393SOL    HW2 1185   0.162   0.129   2.158
  394SOL     OW 1186   1.183   1.335   1.981
  394SOL    HW1 1187   1.084   1.324   1.983
  394SOL    HW2 1188   1.217   1.350   2.074
  395SOL     OW 1189   0.613   0.842   3.293
  395SOL    HW1 1190   0.669   0.923   3.276
  395SOL    HW2 1191   0.672   0.762   3.296
  396SOL     OW 1192   1.493   1.767   2.821
  396SOL    HW1 1193   1.526   1.831   2.752
  396SOL    HW2 1194   1.559   1.761   2.896
  397SOL     OW 1195   0.716   0.565   3.570
  397SOL    HW1 1196   0.735   0.630   3.644
  397SOL    HW2 1197   0.776   0.485   3.579
  398SOL     OW 1198   1.450   1.220   3.495
  398SOL    HW1 1199   1.441   1.210   3.594
  398SOL    HW2 1200   1.546   1.213   3.469
  399SOL     OW 1201   0.390   1.741   3.422
  399SOL    HW1 1202   0.299   1.782   3.420
  399SOL    HW2 1203   0.383   1.647   3.454
  400SOL     OW 1204   1.674   0.883   3.116
  400SOL    HW1 1205   1.647   0.794   3.079
  400SOL    HW2 1206   1.675   0.951   3.043
  401SOL     OW 1207   1.225   0.325   2.311
  401SOL    HW1 1208   1.290   0.251   2.300
  401SOL    HW2 1209   1.245   0.375   2.395
  402SOL     OW 1210   0.594   0.745   2.514
  402SOL    HW1 1211   0.644   0.830   2.495
  402SOL    HW2 1212   0.506   0.747   2.466
  403SOL     OW 1213   1.777   0.342   3.504
  403SOL    HW1 1214   1.760   0.373   3.410
  403SOL    HW2 1215   1.693   0.305   3.542
  404SOL     OW 1216   1.730   0.934   3.379
  404SOL    HW1 1217   1.768   1.025   3.394
  404SOL    HW2 1218   1.722   0.917   3.280
  405SOL     OW 1219   0.859   1.374   1.878
  405SOL    HW1 1220   0.813   1.389   1.966
  405SOL    HW2 1221   0.903   1.459   1.848
  406SOL     OW 1222   0.661   1.790   2.815
  406SOL    HW1 1223   0.615   1.878   2.802
  406SOL    HW2 1224   0.760   1.802   2.808
  407SOL     OW 1225   0.859   0.956   2.723
  407SOL    HW1 1226   0.913   0.887   2.771
  407SOL    HW2 1227   0.827   1.025   2.789
  408SOL     OW 1228   1.083   0.984   1.949
  408SOL    HW1 1229   1.060   1.037   1.867
  408SOL    HW2 1230   1.164   0.928   1.930
  409SOL     OW 1231   1.861   1.569   2.713
  409SOL    HW1 1232   1.790   1.557   2.643
  409SOL    HW2 1233   1.862   1.490   2.773
  410SOL     OW 1234   0.221   1.314   3.706
  410SOL    HW1 1235   0.156   1.241   3.685
  410SOL    HW2 1236   0.225   1.328   3.804
  411SOL     OW 1237   0.079   1.240   2.515
  411SOL    HW1 1238   0.078   1.193   2.603
  411SOL    HW2 1239   0.161   1.212   2.464
  412SOL     OW 1240   0.672   1.391   3.486
  412SOL    HW1 1241   0.594   1.341   3.524
  412SOL    HW2 1242   0.669   1.486   3.517
  413SOL     OW 1243   1.824   0.192   3.089
  413SOL    HW1 1244   1.820   0.102   3.133
  413SOL    HW2 1245   1.827   0.181   2.990
  414SOL     OW 1246   0.428   0.424   2.382
  414SOL    HW1 1247   0.458   0.352   2.320
  414SOL    HW2 1248   0.389   0.384   2.465
  415SOL     OW 1249   1.705   1.487   2.966
  415SOL    HW1 1250   1.612   1.462   2.939
  415SOL    HW2 1251   1.731   1.437   3.048
  416SOL     OW 1252   0.317   0.547   3.142
  416SOL    HW1 1253   0.355   0.488   3.214
  416SOL    HW2 1254   0.357   0.521   3.054
  417SOL     OW 1255   0.812   1.586   2.549
  417SOL    HW1 1256   0.844   1.596   2.455
  417SOL    HW2 1257   0.733   1.524   2.551
  418SOL     OW 1258   1.424   0.214   2.974
  418SOL    HW1 1259   1.476   0.149   3.029
  418SOL    HW2 1260   1.375   0.277   3.035
  419SOL     OW 1261   1.001   0.034   3.016
  419SOL    HW1 1262   0.938  -0.038   2.985
  419SOL    HW2 1263   1.094  -0.002   3.016
  420SOL     OW 1264   0.770   1.330   2.163
  420SOL    HW1 1265   0.724   1.243   2.180
  420SOL    HW2 1266   0.861   1.327   2.204
  421SOL     OW 1267   0.618   1.567   3.146
  421SOL    HW1 1268   0.613   1.649   3.203
  421SOL    HW2 1269   0.707   1.564   3.101
  422SOL     OW 1270   1.352   0.052   2.030
  422SOL    HW1 1271   1.387   0.011   1.946
  422SOL    HW2 1272   1.262   0.014   2.050
  423SOL     OW 1273   1.300   0.453   2.553
  423SOL    HW1 1274   1.241   0.533   2.557
  423SOL    HW2 1275   1.315   0.418   2.646
  424SOL     OW 1276   1.593   0.221   2.744
  424SOL    HW1 1277   1.509   0.220   2.798
  424SOL    HW2 1278   1.595   0.304   2.688
  425SOL     OW 1279   0.039   1.077   2.162
  425SOL    HW1 1280   0.138   1.066   2.153
  425SOL    HW2 1281  -0.001   0.991   2.194
  426SOL     OW 1282   0.875   1.646   2.199
  426SOL    HW1 1283   0.798   1.611   2.145
  426SOL    HW2 1284   0.843   1.717   2.261
  427SOL     OW 1285   0.230   0.628   3.837
  427SOL    HW1 1286   0.137   0.626   3.874
  427SOL    HW2 1287   0.231   0.589   3.745
  428SOL     OW 1288   1.755   0.607   3.955
  428SOL    HW1 1289   1.743   0.594   3.856
  428SOL    HW2 1290   1.725   0.526   4.004
  429SOL     OW 1291   1.603   0.447   4.461
  429SOL    HW1 1292   1.529   0.493   4.411
  429SOL    HW2 1293   1.654   0.515   4.514
  430SOL     OW 1294   0.231   1.713   4.207
  430SOL    HW1 1295   0.265   1.790   4.261
  430SOL    HW2 1296   0.275   1.713   4.117
  431SOL     OW 1297   0.230   1.434   4.262
  431SOL    HW1 1298   0.204   1.530   4.262
  431SOL    HW2 1299   0.159   1.380   4.307
  432SOL     OW 1300   0.606   0.964   3.847
  432SOL    HW1 1301   0.613   1.048   3.793
  432SOL    HW2 1302   0.652   0.977   3.935
  433SOL     OW 1303   0.122   0.643   4.287
  433SOL    HW1 1304   0.077   0.555   4.304
  433SOL    HW2 1305   0.121   0.697   4.371
  434SOL     OW 1306   1.842   1.767   4.083
  434SOL    HW1 1307   1.896   1.738   4.163
  434SOL    HW2 1308   1.872   1.857   4.054
  435SOL     OW 1309   0.027   1.596   3.841
  435SOL    HW1 1310   0.008   1.500   3.862
  435SOL    HW2 1311  -0.006   1.654   3.916
  436SOL     OW 1312   1.689   0.922   4.336
  436SOL    HW1 1313   1.784   0.893   4.344
  436SOL    HW2 1314   1.681   0.987   4.261
  437SOL     OW 1315   1.641   1.108   4.156
  437SOL    HW1 1316   1.727   1.110   4.104
  437SOL    HW2 1317   1.655   1.155   4.244
  438SOL     OW 1318   0.613   1.365   4.450
  438SOL    HW1 1319   0.564   1.278   4.459
  438SOL    HW2 1320   0.590   1.408   4.363
  439SOL     OW 1321   0.809   0.004   4.226
  439SOL    HW1 1322   0.849   0.095   4.217
  439SOL    HW2 1323   0.709   0.012   4.232
  440SOL     OW 1324   1.525   0.999   3.914
  440SOL    HW1 1325   1.462   0.923   3.927
  440SOL    HW2 1326   1.573   1.017   4.000
  441SOL     OW 1327   1.466   1.417   4.677
  441SOL    HW1 1328   1.407   1.423   4.757
  441SOL    HW2 1329   1.451   1.329   4.631
  442SOL     OW 1330   0.598   0.729   3.994
  442SOL    HW1 1331   0.622   0.798   3.926
  442SOL    HW2 1332   0.520   0.762   4.048
  443SOL     OW 1333   1.281   0.345   4.668
  443SOL    HW1 1334   1.195   0.295   4.655
  443SOL    HW2 1335   1.343   0.291   4.724
  444SOL     OW 1336   1.576   1.662   4.031
  444SOL    HW1 1337   1.665   1.708   4.034
  444SOL    HW2 1338   1.555   1.638   3.936
  445SOL     OW 1339   1.041   0.701   4.153
  445SOL    HW1 1340   1.067   0.697   4.249
  445SOL    HW2 1341   0.956   0.650   4.139
  446SOL     OW 1342   0.076   0.811   4.513
  446SOL    HW1 1343   0.175   0.799   4.522
  446SOL    HW2 1344   0.052   0.906   4.534
  447SOL     OW 1345   0.865   0.348   3.919
  447SOL    HW1 1346   0.924   0.411   3.870
  447SOL    HW2 1347   0.884   0.254   3.890
  448SOL     OW 1348   1.362   1.144   4.269
  448SOL    HW1 1349   1.445   1.115   4.221
  448SOL    HW2 1350   1.313   1.211   4.213
  449SOL     OW 1351   1.008   1.456   4.201
  449SOL    HW1 1352   0.962   1.528   4.149
  449SOL    HW2 1353   1.004   1.476   4.299
  450SOL     OW 1354   0.351   1.801   4.577
  450SOL    HW1 1355   0.401   1.715   4.583
  450SOL    HW2 1356   0.416   1.878   4.574
  451SOL     OW 1357   1.795   1.066   4.597
  451SOL    HW1 1358   1.733   1.051   4.521
  451SOL    HW2 1359   1.743   1.077   4.682
  452SOL     OW 1360   0.321   0.943   3.966
  452SOL    HW1 1361   0.403   0.982   3.924
  452SOL    HW2 1362   0.294   0.861   3.917
  453SOL     OW 1363   1.111   1.776   3.961
  453SOL    HW1 1364   1.051   1.714   4.011
  453SOL    HW2 1365   1.142   1.732   3.876
  454SOL     OW 1366   1.632   1.377   3.805
  454SOL    HW1 1367   1.600   1.471   3.795
  454SOL    HW2 1368   1.556   1.314   3.793
  455SOL     OW 1369   0.464   1.743   4.047
  455SOL    HW1 1370   0.497   1.782   4.133
  455SOL    HW2 1371   0.540   1.736   3.982
  456SOL     OW 1372   1.400   0.107   4.150
  456SOL    HW1 1373   1.376   0.070   4.060
  456SOL    HW2 1374   1.499   0.123   4.154
  457SOL     OW 1375   0.382   0.700   4.204
  457SOL    HW1 1376   0.427   0.610   4.201
  457SOL    HW2 1377   0.288   0.689   4.237
  458SOL     OW 1378   0.614   0.122   3.841
  458SOL    HW1 1379   0.712   0.100   3.848
  458SOL    HW2 1380   0.583   0.105   3.748
  459SOL     OW 1381   0.539   0.064   4.236
  459SOL    HW1 1382   0.458   0.065   4.294
  459SOL    HW2 1383   0.542   0.147   4.181
  460SOL     OW 1384   1.434   1.188   3.765
  460SOL    HW1 1385   1.466   1.112   3.822
  460SOL    HW2 1386   1.342   1.215   3.795
  461SOL     OW 1387   0.297   0.035   3.895
  461SOL    HW1 1388   0.346   0.119   3.874
  461SOL    HW2 1389   0.359  -0.030   3.940
  462SOL     OW 1390   0.935   0.236   4.204
  462SOL    HW1 1391   0.887   0.277   4.126
  462SOL    HW2 1392   1.034   0.234   4.185
  463SOL     OW 1393   0.459   1.152   4.465
  463SOL    HW1 1394   0.388   1.125   4.530
  463SOL    HW2 1395   0.433   1.124   4.372
  464SOL     OW 1396   1.271   1.797   4.315
  464SOL    HW1 1397   1.315   1.861   4.251
  464SOL    HW2 1398   1.221   1.849   4.385
  465SOL     OW 1399   1.032   0.549   3.740
  465SOL    HW1 1400   0.991   0.631   3.701
  465SOL    HW2 1401   1.096   0.575   3.813
  466SOL     OW 1402   0.866   0.454   4.366
  466SOL    HW1 1403   0.834   0.526   4.304
  466SOL    HW2 1404   0.890   0.373   4.313
  467SOL     OW 1405   1.466   0.590   4.716
  467SOL    HW1 1406   1.436   0.495   4.723
  467SOL    HW2 1407   1.539   0.606   4.782
  468SOL     OW 1408   1.857   0.833   4.101
  468SOL    HW1 1409   1.899   0.769   4.165
  468SOL    HW2 1410   1.819   0.782   4.023
  469SOL     OW 1411   0.488   1.385   3.898
  469SOL    HW1 1412   0.401   1.370   3.945
  469SOL    HW2 1413   0.471   1.411   3.803
  470SOL     OW 1414   1.390   0.575   3.802
  470SOL    HW1 1415   1.336   0.554   3.883
  470SOL    HW2 1416   1.481   0.534   3.811
  471SOL     OW 1417   0.527   0.256   4.052
  471SOL    HW1 1418   0.554   0.197   3.977
  471SOL    HW2 1419   0.527   0.351   4.021
  472SOL     OW 1420   0.705   1.050   4.092
  472SOL    HW1 1421   0.691   1.057   4.191
  472SOL    HW2 1422   0.789   0.999   4.074
  473SOL     OW 1423   0.367   1.100   4.225
  473SOL    HW1 1424   0.360   1.183   4.169
  473SOL    HW2 1425   0.371   1.020   4.165
  474SOL     OW 1426   1.252   1.348   4.112
  474SOL    HW1 1427   1.302   1.425   4.152
  474SOL    HW2 1428   1.157   1.350   4.144
  475SOL     OW 1429   1.582   0.639   4.196
  475SOL    HW1 1430   1.551   0.700   4.269
  475SOL    HW2 1431   1.632   0.691   4.127
  476SOL     OW 1432   1.209   0.525   3.999
  476SOL    HW1 1433   1.222   0.441   4.053
  476SOL    HW2 1434   1.180   0.599   4.059
  477SOL     OW 1435   0.307   0.063   4.342
  477SOL    HW1 1436   0.296   0.157   4.375
  477SOL    HW2 1437   0.302   0.000   4.419
  478SOL     OW 1438   1.622   0.367   4.098
  478SOL    HW1 1439   1.624   0.291   4.162
  478SOL    HW2 1440   1.574   0.444   4.138
  479SOL     OW 1441   1.540   0.274   3.849
  479SOL    HW1 1442   1.479   0.199   3.872
  479SOL    HW2 1443   1.562   0.326   3.932
  480SOL     OW 1444   1.303   0.838   3.766
  480SOL    HW1 1445   1.337   0.745   3.781
  480SOL    HW2 1446   1.321   0.865   3.671
  481SOL     OW 1447   0.008   1.326   3.924
  481SOL    HW1 1448  -0.085   1.347   3.893
  481SOL    HW2 1449   0.018   1.227   3.937
  482SOL     OW 1450   0.815   0.572   4.049
  482SOL    HW1 1451   0.822   0.483   4.003
  482SOL    HW2 1452   0.721   0.606   4.041
  483SOL     OW 1453   0.473   0.500   3.915
  483SOL    HW1 1454   0.534   0.580   3.919
  483SOL    HW2 1455   0.378   0.531   3.922
  484SOL     OW 1456   1.302   0.855   4.033
  484SOL    HW1 1457   1.216   0.824   4.075
  484SOL    HW2 1458   1.298   0.841   3.934
  485SOL     OW 1459   1.726   0.135   4.247
  485SOL    HW1 1460   1.799   0.118   4.180
  485SOL    HW2 1461   1.695   0.048   4.285
  486SOL     OW 1462   1.388   1.573   4.201
  486SOL    HW1 1463   1.455   1.585   4.127
  486SOL    HW2 1464   1.348   1.662   4.224
  487SOL     OW 1465   0.672   1.616   3.878
  487SOL    HW1 1466   0.681   1.626   3.779
  487SOL    HW2 1467   0.632   1.527   3.899
  488SOL     OW 1468   1.841   0.175   4.687
  488SOL    HW1 1469   1.880   0.090   4.651
  488SOL    HW2 1470   1.743   0.177   4.668
  489SOL     OW 1471   1.194   1.612   3.755
  489SOL    HW1 1472   1.200   1.519   3.792
  489SOL    HW2 1473   1.135   1.612   3.675
  490SOL     OW 1474   0.916   0.910   4.015
  490SOL    HW1 1475   0.979   0.948   3.947
  490SOL    HW2 1476   0.956   0.827   4.054
  491SOL     OW 1477   1.504   1.607   3.768
  491SOL    HW1 1478   1.412   1.644   3.775
  491SOL    HW2 1479   1.542   1.627   3.678
  492SOL     OW 1480   0.590   1.487   4.215
  492SOL    HW1 1481   0.632   1.429   4.145
  492SOL    HW2 1482   0.546   1.566   4.171
  493SOL     OW 1483   0.255   1.348   4.014
  493SOL    HW1 1484   0.159   1.349   3.987
  493SOL    HW2 1485   0.267   1.401   4.098
  494SOL     OW 1486   0.075   0.345   3.757
  494SOL    HW1 1487  -0.017   0.317   3.728
  494SOL    HW2 1488   0.106   0.422   3.701
  495SOL     OW 1489   0.072   0.166   4.042
  495SOL    HW1 1490   0.055   0.249   3.988
  495SOL    HW2 1491   0.162   0.129   4.020
  496SOL     OW 1492   1.183   1.335   3.843
  496SOL    HW1 1493   1.084   1.324   3.845
  496SOL    HW2 1494   1.217   1.350   3.936
  497SOL     OW 1495   1.225   0.325   4.173
  497SOL    HW1 1496   1.290   0.251   4.162
  497SOL    HW2 1497   1.245   0.375   4.257
  498SOL     OW 1498   0.594   0.745   4.376
  498SOL    HW1 1499   0.644   0.830   4.357
  498SOL    HW2 1500   0.506   0.747   4.328
  499SOL     OW 1501   0.859   1.374   3.740
  499SOL    HW1 1502   0.813   1.389   3.828
  499SOL    HW2 1503   0.903   1.459   3.710
  500SOL     OW 1504   1.083   0.984   3.811
  500SOL    HW1 1505   1.060   1.037   3.729
  500SOL    HW2 1506   1.164   0.928   3.792
  501SOL     OW 1507   0.079   1.240   4.377
  501SOL    HW1 1508   0.078   1.193   4.465
  501SOL    HW2 1509   0.161   1.212   4.326
  502SOL     OW 1510   0.428   0.424   4.244
  502SOL    HW1 1511   0.458   0.352   4.182
  502SOL    HW2 1512   0.389   0.384   4.327
  503SOL     OW 1513   0.812   1.586   4.411
  503SOL    HW1 1514   0.844   1.596   4.317
  503SOL    HW2 1515   0.733   1.524   4.413
  504SOL     OW 1516   0.770   1.330   4.025
  504SOL    HW1 1517   0.724   1.243   4.042
  504SOL    HW2 1518   0.861   1.327   4.066
  505SOL     OW 1519   1.352   0.052   3.892
  505SOL    HW1 1520   1.387   0.011   3.808
  505SOL    HW2 1521   1.262   0.014   3.912
  506SOL     OW 1522   1.300   0.453   4.415
  506SOL    HW1 1523   1.241   0.533   4.419
  506SOL    HW2 1524   1.315   0.418   4.508
  507SOL     OW 1525   0.039   1.077   4.024
  507SOL    HW1 1526   0.138   1.066   4.015
  507SOL    HW2 1527  -0.001   0.991   4.056
  508SOL     OW 1528   0.875   1.646   4.061
  508SOL    HW1 1529   0.798   1.611   4.007
  508SOL    HW2 1530   0.843   1.717   4.123
  509SOL     OW 1531   0.230   2.490   0.113
  509SOL    HW1 1532   0.137   2.488   0.150
  509SOL    HW2 1533   0.231   2.451   0.021
  510SOL     OW 1534   0.225   2.137   0.996
  510SOL    HW1 1535   0.260   2.120   1.088
  510SOL    HW2 1536   0.137   2.092   0.984
  511SOL     OW 1537   0.019   2.230   0.647
  511SOL    HW1 1538  -0.063   2.273   0.686
  511SOL    HW2 1539  -0.009   2.157   0.584
  512SOL     OW 1540   0.569   3.137   1.165
  512SOL    HW1 1541   0.476   3.130   1.128
  512SOL    HW2 1542   0.580   3.226   1.209
  513SOL     OW 1543   1.555   3.373   0.703
  513SOL    HW1 1544   1.498   3.357   0.784
  513SOL    HW2 1545   1.496   3.383   0.623
  514SOL     OW 1546   1.135   2.565   0.717
  514SOL    HW1 1547   1.192   2.643   0.692
  514SOL    HW2 1548   1.075   2.591   0.793
  515SOL     OW 1549   1.755   2.469   0.231
  515SOL    HW1 1550   1.743   2.456   0.132
  515SOL    HW2 1551   1.725   2.388   0.280
  516SOL     OW 1552   0.768   3.006   1.023
  516SOL    HW1 1553   0.690   3.023   1.083
  516SOL    HW2 1554   0.802   3.093   0.987
  517SOL     OW 1555   0.850   2.660   1.823
  517SOL    HW1 1556   0.846   2.736   1.888
  517SOL    HW2 1557   0.872   2.696   1.732
  518SOL     OW 1558   0.685   2.874   0.665
  518SOL    HW1 1559   0.754   2.858   0.735
  518SOL    HW2 1560   0.612   2.931   0.703
  519SOL     OW 1561   0.686   3.023   1.803
  519SOL    HW1 1562   0.746   3.102   1.817
  519SOL    HW2 1563   0.600   3.054   1.762
  520SOL     OW 1564   0.335   3.297   1.061
  520SOL    HW1 1565   0.257   3.266   1.008
  520SOL    HW2 1566   0.393   3.355   1.004
  521SOL     OW 1567   1.460   3.367   1.339
  521SOL    HW1 1568   1.484   3.461   1.365
  521SOL    HW2 1569   1.444   3.313   1.421
  522SOL     OW 1570   0.438   2.254   1.499
  522SOL    HW1 1571   0.520   2.198   1.508
  522SOL    HW2 1572   0.357   2.196   1.503
  523SOL     OW 1573   1.603   2.309   0.737
  523SOL    HW1 1574   1.529   2.355   0.687
  523SOL    HW2 1575   1.654   2.377   0.790
  524SOL     OW 1576   0.231   3.575   0.483
  524SOL    HW1 1577   0.265   3.652   0.537
  524SOL    HW2 1578   0.275   3.575   0.393
  525SOL     OW 1579   1.127   3.203   1.690
  525SOL    HW1 1580   1.174   3.203   1.778
  525SOL    HW2 1581   1.079   3.116   1.679
  526SOL     OW 1582   0.230   3.296   0.538
  526SOL    HW1 1583   0.204   3.392   0.538
  526SOL    HW2 1584   0.159   3.242   0.583
  527SOL     OW 1585   0.240   2.953   0.886
  527SOL    HW1 1586   0.254   2.869   0.938
  527SOL    HW2 1587   0.185   3.017   0.941
  528SOL     OW 1588   0.620   3.648   1.439
  528SOL    HW1 1589   0.528   3.631   1.474
  528SOL    HW2 1590   0.648   3.740   1.465
  529SOL     OW 1591   0.606   2.826   0.123
  529SOL    HW1 1592   0.613   2.910   0.069
  529SOL    HW2 1593   0.652   2.839   0.211
  530SOL     OW 1594   1.594   1.976   1.480
  530SOL    HW1 1595   1.576   2.043   1.408
  530SOL    HW2 1596   1.591   2.022   1.569
  531SOL     OW 1597   0.122   2.505   0.563
  531SOL    HW1 1598   0.077   2.417   0.580
  531SOL    HW2 1599   0.121   2.559   0.647
  532SOL     OW 1600   1.842   3.629   0.359
  532SOL    HW1 1601   1.896   3.600   0.439
  532SOL    HW2 1602   1.872   3.719   0.330
  533SOL     OW 1603   0.027   3.458   0.117
  533SOL    HW1 1604   0.008   3.362   0.138
  533SOL    HW2 1605  -0.006   3.516   0.192
  534SOL     OW 1606   1.689   2.784   0.612
  534SOL    HW1 1607   1.784   2.755   0.620
  534SOL    HW2 1608   1.681   2.849   0.537
  535SOL     OW 1609   1.641   2.970   0.432
  535SOL    HW1 1610   1.727   2.972   0.380
  535SOL    HW2 1611   1.655   3.017   0.520
  536SOL     OW 1612   0.113   2.599   1.597
  536SOL    HW1 1613   0.201   2.586   1.642
  536SOL    HW2 1614   0.100   2.696   1.575
  537SOL     OW 1615   0.613   3.227   0.726
  537SOL    HW1 1616   0.564   3.140   0.735
  537SOL    HW2 1617   0.590   3.270   0.639
  538SOL     OW 1618   1.293   3.090   1.423
  538SOL    HW1 1619   1.330   3.017   1.365
  538SOL    HW2 1620   1.345   3.095   1.508
  539SOL     OW 1621   0.809   1.866   0.502
  539SOL    HW1 1622   0.849   1.957   0.493
  539SOL    HW2 1623   0.709   1.874   0.508
  540SOL     OW 1624   0.197   2.838   1.264
  540SOL    HW1 1625   0.286   2.793   1.250
  540SOL    HW2 1626   0.124   2.773   1.245
  541SOL     OW 1627   1.525   2.861   0.190
  541SOL    HW1 1628   1.462   2.785   0.203
  541SOL    HW2 1629   1.573   2.879   0.276
  542SOL     OW 1630   1.187   3.654   1.616
  542SOL    HW1 1631   1.211   3.714   1.540
  542SOL    HW2 1632   1.194   3.559   1.586
  543SOL     OW 1633   0.317   2.113   1.801
  543SOL    HW1 1634   0.388   2.184   1.807
  543SOL    HW2 1635   0.229   2.152   1.829
  544SOL     OW 1636   1.466   3.279   0.953
  544SOL    HW1 1637   1.407   3.285   1.033
  544SOL    HW2 1638   1.451   3.191   0.907
  545SOL     OW 1639   1.667   3.576   0.572
  545SOL    HW1 1640   1.626   3.553   0.484
  545SOL    HW2 1641   1.649   3.502   0.637
  546SOL     OW 1642   0.598   2.591   0.270
  546SOL    HW1 1643   0.622   2.660   0.202
  546SOL    HW2 1644   0.520   2.624   0.324
  547SOL     OW 1645   1.281   2.207   0.944
  547SOL    HW1 1646   1.195   2.157   0.931
  547SOL    HW2 1647   1.343   2.153   1.000
  548SOL     OW 1648   1.576   3.524   0.307
  548SOL    HW1 1649   1.665   3.570   0.310
  548SOL    HW2 1650   1.555   3.500   0.212
  549SOL     OW 1651   0.807   2.467   1.465
  549SOL    HW1 1652   0.760   2.464   1.554
  549SOL    HW2 1653   0.756   2.412   1.399
  550SOL     OW 1654   1.394   2.331   1.674
  550SOL    HW1 1655   1.374   2.374   1.762
  550SOL    HW2 1656   1.472   2.269   1.683
  551SOL     OW 1657   0.973   2.752   1.572
  551SOL    HW1 1658   1.019   2.668   1.543
  551SOL    HW2 1659   0.917   2.786   1.497
  552SOL     OW 1660   0.991   2.272   1.242
  552SOL    HW1 1661   0.914   2.306   1.296
  552SOL    HW2 1662   0.957   2.221   1.163
  553SOL     OW 1663   1.041   2.563   0.429
  553SOL    HW1 1664   1.067   2.559   0.525
  553SOL    HW2 1665   0.956   2.512   0.415
  554SOL     OW 1666   0.076   2.673   0.789
  554SOL    HW1 1667   0.175   2.661   0.798
  554SOL    HW2 1668   0.052   2.768   0.810
  555SOL     OW 1669   0.130   3.683   1.571
  555SOL    HW1 1670   0.120   3.668   1.670
  555SOL    HW2 1671   0.044   3.719   1.535
  556SOL     OW 1672   0.865   2.210   0.195
  556SOL    HW1 1673   0.924   2.273   0.146
  556SOL    HW2 1674   0.884   2.116   0.166
  557SOL     OW 1675   1.719   2.447   1.831
  557SOL    HW1 1676   1.693   2.536   1.795
  557SOL    HW2 1677   1.717   2.379   1.758
  558SOL     OW 1678   1.362   3.006   0.545
  558SOL    HW1 1679   1.445   2.977   0.497
  558SOL    HW2 1680   1.313   3.073   0.489
  559SOL     OW 1681   0.550   2.058   0.885
  559SOL    HW1 1682   0.545   2.053   0.985
  559SOL    HW2 1683   0.552   2.154   0.856
  560SOL     OW 1684   1.008   3.318   0.477
  560SOL    HW1 1685   0.962   3.390   0.425
  560SOL    HW2 1686   1.004   3.338   0.575
  561SOL     OW 1687   0.351   3.663   0.853
  561SOL    HW1 1688   0.401   3.577   0.859
  561SOL    HW2 1689   0.416   3.740   0.850
  562SOL     OW 1690   1.795   2.928   0.873
  562SOL    HW1 1691   1.733   2.913   0.797
  562SOL    HW2 1692   1.743   2.939   0.958
  563SOL     OW 1693   1.227   3.412   1.506
  563SOL    HW1 1694   1.233   3.335   1.570
  563SOL    HW2 1695   1.175   3.386   1.426
  564SOL     OW 1696   0.321   2.805   0.242
  564SOL    HW1 1697   0.403   2.844   0.200
  564SOL    HW2 1698   0.294   2.723   0.193
  565SOL     OW 1699   1.458   2.597   0.728
  565SOL    HW1 1700   1.453   2.532   0.803
  565SOL    HW2 1701   1.538   2.656   0.741
  566SOL     OW 1702   0.461   3.128   1.727
  566SOL    HW1 1703   0.411   3.129   1.641
  566SOL    HW2 1704   0.398   3.110   1.803
  567SOL     OW 1705   1.111   3.638   0.237
  567SOL    HW1 1706   1.051   3.576   0.287
  567SOL    HW2 1707   1.142   3.594   0.152
  568SOL     OW 1708   0.202   2.147   1.498
  568SOL    HW1 1709   0.122   2.207   1.485
  568SOL    HW2 1710   0.192   2.098   1.584
  569SOL     OW 1711   1.632   3.239   0.081
  569SOL    HW1 1712   1.600   3.333   0.071
  569SOL    HW2 1713   1.556   3.176   0.069
  570SOL     OW 1714   0.464   3.605   0.323
  570SOL    HW1 1715   0.497   3.644   0.409
  570SOL    HW2 1716   0.540   3.598   0.258
  571SOL     OW 1717   1.400   1.969   0.426
  571SOL    HW1 1718   1.376   1.932   0.336
  571SOL    HW2 1719   1.499   1.985   0.430
  572SOL     OW 1720   0.249   3.647   1.241
  572SOL    HW1 1721   0.306   3.582   1.291
  572SOL    HW2 1722   0.233   3.614   1.148
  573SOL     OW 1723   0.940   3.560   0.904
  573SOL    HW1 1724   1.020   3.503   0.925
  573SOL    HW2 1725   0.891   3.520   0.827
  574SOL     OW 1726   0.382   2.562   0.480
  574SOL    HW1 1727   0.427   2.472   0.477
  574SOL    HW2 1728   0.288   2.551   0.513
  575SOL     OW 1729   1.547   2.084   1.729
  575SOL    HW1 1730   1.542   2.121   1.821
  575SOL    HW2 1731   1.475   2.015   1.717
  576SOL     OW 1732   0.614   1.984   0.117
  576SOL    HW1 1733   0.712   1.962   0.124
  576SOL    HW2 1734   0.583   1.967   0.024
  577SOL     OW 1735   0.781   2.126   1.749
  577SOL    HW1 1736   0.848   2.065   1.792
  577SOL    HW2 1737   0.708   2.145   1.814
  578SOL     OW 1738   0.888   3.376   1.195
  578SOL    HW1 1739   0.865   3.351   1.101
  578SOL    HW2 1740   0.949   3.307   1.234
  579SOL     OW 1741   1.351   2.452   1.433
  579SOL    HW1 1742   1.379   2.409   1.518
  579SOL    HW2 1743   1.376   2.548   1.434
  580SOL     OW 1744   0.803   3.264   0.924
  580SOL    HW1 1745   0.893   3.278   0.882
  580SOL    HW2 1746   0.732   3.266   0.853
  581SOL     OW 1747   0.922   2.365   0.899
  581SOL    HW1 1748   0.897   2.356   0.803
  581SOL    HW2 1749   0.970   2.283   0.930
  582SOL     OW 1750   0.539   1.926   0.512
  582SOL    HW1 1751   0.458   1.927   0.570
  582SOL    HW2 1752   0.542   2.009   0.457
  583SOL     OW 1753   1.434   3.050   0.041
  583SOL    HW1 1754   1.466   2.974   0.098
  583SOL    HW2 1755   1.342   3.077   0.071
  584SOL     OW 1756   0.935   2.098   0.480
  584SOL    HW1 1757   0.887   2.139   0.402
  584SOL    HW2 1758   1.034   2.096   0.461
  585SOL     OW 1759   1.076   2.545   1.464
  585SOL    HW1 1760   0.996   2.484   1.467
  585SOL    HW2 1761   1.157   2.492   1.440
  586SOL     OW 1762   1.227   3.432   0.793
  586SOL    HW1 1763   1.248   3.506   0.728
  586SOL    HW2 1764   1.295   3.432   0.866
  587SOL     OW 1765   0.459   3.014   0.741
  587SOL    HW1 1766   0.388   2.987   0.806
  587SOL    HW2 1767   0.433   2.986   0.648
  588SOL     OW 1768   1.271   3.659   0.591
  588SOL    HW1 1769   1.315   3.723   0.527
  588SOL    HW2 1770   1.221   3.711   0.661
  589SOL     OW 1771   1.032   2.411   0.016
  589SOL    HW1 1772   0.991   2.493  -0.023
  589SOL    HW2 1773   1.096   2.437   0.089
  590SOL     OW 1774   0.078   2.418   1.386
  590SOL    HW1 1775   0.170   2.417   1.345
  590SOL    HW2 1776   0.072   2.492   1.453
  591SOL     OW 1777   0.561   2.084   1.147
  591SOL    HW1 1778   0.599   2.000   1.184
  591SOL    HW2 1779   0.473   2.103   1.191
  592SOL     OW 1780   0.866   2.316   0.642
  592SOL    HW1 1781   0.834   2.388   0.580
  592SOL    HW2 1782   0.890   2.235   0.589
  593SOL     OW 1783   1.017   1.901   0.753
  593SOL    HW1 1784   0.945   1.906   0.684
  593SOL    HW2 1785   0.993   1.832   0.822
  594SOL     OW 1786   1.429   3.035   0.867
  594SOL    HW1 1787   1.374   2.951   0.860
  594SOL    HW2 1788   1.455   3.064   0.775
  595SOL     OW 1789   1.466   2.452   0.992
  595SOL    HW1 1790   1.436   2.357   0.999
  595SOL    HW2 1791   1.539   2.468   1.058
  596SOL     OW 1792   1.857   2.695   0.377
  596SOL    HW1 1793   1.899   2.631   0.441
  596SOL    HW2 1794   1.819   2.644   0.299
  597SOL     OW 1795   0.488   3.247   0.174
  597SOL    HW1 1796   0.401   3.232   0.221
  597SOL    HW2 1797   0.471   3.273   0.079
  598SOL     OW 1798   1.664   3.142   0.657
  598SOL    HW1 1799   1.763   3.150   0.671
  598SOL    HW2 1800   1.619   3.226   0.688
  599SOL     OW 1801   1.390   2.437   0.078
  599SOL    HW1 1802   1.336   2.416   0.159
  599SOL    HW2 1803   1.481   2.396   0.087
  600SOL     OW 1804   0.527   2.118   0.328
  600SOL    HW1 1805   0.554   2.059   0.253
  600SOL    HW2 1806   0.527   2.213   0.297
  601SOL     OW 1807   1.754   3.085   1.588
  601SOL    HW1 1808   1.845   3.046   1.575
  601SOL    HW2 1809   1.762   3.181   1.612
  602SOL     OW 1810   1.064   3.209   1.340
  602SOL    HW1 1811   0.984   3.186   1.395
  602SOL    HW2 1812   1.147   3.183   1.389
  603SOL     OW 1813   1.592   3.491   1.625
  603SOL    HW1 1814   1.619   3.525   1.535
  603SOL    HW2 1815   1.671   3.453   1.671
  604SOL     OW 1816   1.111   3.057   1.100
  604SOL    HW1 1817   1.071   3.101   1.181
  604SOL    HW2 1818   1.070   3.094   1.017
  605SOL     OW 1819   1.638   2.961   1.079
  605SOL    HW1 1820   1.643   3.042   1.138
  605SOL    HW2 1821   1.552   2.963   1.028
  606SOL     OW 1822   0.915   1.951   1.402
  606SOL    HW1 1823   0.940   1.931   1.307
  606SOL    HW2 1824   0.987   2.007   1.444
  607SOL     OW 1825   0.980   2.978   1.719
  607SOL    HW1 1826   0.881   2.984   1.729
  607SOL    HW2 1827   1.003   2.898   1.663
  608SOL     OW 1828   0.705   2.912   0.368
  608SOL    HW1 1829   0.691   2.919   0.467
  608SOL    HW2 1830   0.789   2.861   0.350
  609SOL     OW 1831   0.410   2.675   1.251
  609SOL    HW1 1832   0.496   2.687   1.301
  609SOL    HW2 1833   0.368   2.588   1.278
  610SOL     OW 1834   1.274   2.248   1.262
  610SOL    HW1 1835   1.295   2.322   1.326
  610SOL    HW2 1836   1.185   2.265   1.219
  611SOL     OW 1837   0.064   3.426   1.331
  611SOL    HW1 1838   0.018   3.508   1.297
  611SOL    HW2 1839   0.162   3.445   1.340
  612SOL     OW 1840   0.367   2.962   0.501
  612SOL    HW1 1841   0.360   3.045   0.445
  612SOL    HW2 1842   0.371   2.882   0.441
  613SOL     OW 1843   0.566   2.399   0.865
  613SOL    HW1 1844   0.578   2.465   0.791
  613SOL    HW2 1845   0.612   2.433   0.948
  614SOL     OW 1846   1.252   3.210   0.388
  614SOL    HW1 1847   1.302   3.287   0.428
  614SOL    HW2 1848   1.157   3.212   0.420
  615SOL     OW 1849   1.272   3.307   1.142
  615SOL    HW1 1850   1.319   3.320   1.229
  615SOL    HW2 1851   1.206   3.233   1.151
  616SOL     OW 1852   1.582   2.501   0.472
  616SOL    HW1 1853   1.551   2.562   0.545
  616SOL    HW2 1854   1.632   2.553   0.403
  617SOL     OW 1855   0.354   3.372   1.329
  617SOL    HW1 1856   0.333   3.328   1.242
  617SOL    HW2 1857   0.451   3.398   1.332
  618SOL     OW 1858   0.402   2.613   1.598
  618SOL    HW1 1859   0.470   2.668   1.551
  618SOL    HW2 1860   0.442   2.525   1.625
  619SOL     OW 1861   1.587   2.641   1.670
  619SOL    HW1 1862   1.495   2.679   1.665
  619SOL    HW2 1863   1.647   2.688   1.605
  620SOL     OW 1864   1.013   1.967   1.770
  620SOL    HW1 1865   1.019   2.052   1.718
  620SOL    HW2 1866   1.045   1.891   1.713
  621SOL     OW 1867   0.504   1.912   1.740
  621SOL    HW1 1868   0.462   1.855   1.670
  621SOL    HW2 1869   0.438   1.981   1.772
  622SOL     OW 1870   0.573   2.732   1.029
  622SOL    HW1 1871   0.617   2.821   1.020
  622SOL    HW2 1872   0.510   2.732   1.106
  623SOL     OW 1873   1.360   2.724   1.045
  623SOL    HW1 1874   1.285   2.724   0.979
  623SOL    HW2 1875   1.397   2.632   1.054
  624SOL     OW 1876   1.209   2.387   0.275
  624SOL    HW1 1877   1.222   2.303   0.329
  624SOL    HW2 1878   1.180   2.461   0.335
  625SOL     OW 1879   0.307   2.075   1.231
  625SOL    HW1 1880   0.284   2.112   1.321
  625SOL    HW2 1881   0.277   1.980   1.225
  626SOL     OW 1882   0.037   3.172   1.282
  626SOL    HW1 1883   0.090   3.123   1.350
  626SOL    HW2 1884   0.059   3.270   1.287
  627SOL     OW 1885   0.732   2.496   1.064
  627SOL    HW1 1886   0.791   2.470   0.988
  627SOL    HW2 1887   0.704   2.592   1.053
  628SOL     OW 1888   1.728   2.797   1.854
  628SOL    HW1 1889   1.682   2.790   1.765
  628SOL    HW2 1890   1.666   2.841   1.920
  629SOL     OW 1891   0.307   1.925   0.618
  629SOL    HW1 1892   0.296   2.019   0.651
  629SOL    HW2 1893   0.302   1.862   0.695
  630SOL     OW 1894   1.622   2.229   0.374
  630SOL    HW1 1895   1.624   2.153   0.438
  630SOL    HW2 1896   1.574   2.306   0.414
  631SOL     OW 1897   1.023   2.628   0.966
  631SOL    HW1 1898   1.038   2.649   1.062
  631SOL    HW2 1899   0.993   2.533   0.957
  632SOL     OW 1900   0.980   3.435   1.700
  632SOL    HW1 1901   0.960   3.479   1.612
  632SOL    HW2 1902   1.019   3.344   1.684
  633SOL     OW 1903   1.859   3.380   1.605
  633SOL    HW1 1904   1.873   3.407   1.510
  633SOL    HW2 1905   1.942   3.402   1.658
  634SOL     OW 1906   0.350   2.760   1.804
  634SOL    HW1 1907   0.426   2.804   1.852
  634SOL    HW2 1908   0.385   2.713   1.722
  635SOL     OW 1909   1.540   2.136   0.125
  635SOL    HW1 1910   1.479   2.061   0.148
  635SOL    HW2 1911   1.562   2.188   0.208
  636SOL     OW 1912   1.303   2.700   0.042
  636SOL    HW1 1913   1.337   2.607   0.057
  636SOL    HW2 1914   1.321   2.727  -0.053
  637SOL     OW 1915   1.068   3.195   0.849
  637SOL    HW1 1916   1.075   3.111   0.794
  637SOL    HW2 1917   1.130   3.264   0.813
  638SOL     OW 1918   0.319   2.672   0.949
  638SOL    HW1 1919   0.412   2.708   0.954
  638SOL    HW2 1920   0.313   2.587   1.001
  639SOL     OW 1921   0.339   2.371   1.006
  639SOL    HW1 1922   0.287   2.288   0.989
  639SOL    HW2 1923   0.416   2.376   0.942
  640SOL     OW 1924   1.138   2.242   1.678
  640SOL    HW1 1925   1.093   2.305   1.742
  640SOL    HW2 1926   1.231   2.273   1.661
  641SOL     OW 1927   1.160   2.069   1.477
  641SOL    HW1 1928   1.160   2.133   1.554
  641SOL    HW2 1929   1.188   2.117   1.394
  642SOL     OW 1930   0.008   3.188   0.200
  642SOL    HW1 1931  -0.085   3.209   0.169
  642SOL    HW2 1932   0.018   3.089   0.213
  643SOL     OW 1933   0.088   3.663   0.927
  643SOL    HW1 1934   0.046   3.577   0.900
  643SOL    HW2 1935   0.182   3.666   0.893
  644SOL     OW 1936   0.504   3.430   0.910
  644SOL    HW1 1937   0.570   3.504   0.919
  644SOL    HW2 1938   0.548   3.351   0.868
  645SOL     OW 1939   1.002   2.658   1.238
  645SOL    HW1 1940   1.043   2.626   1.324
  645SOL    HW2 1941   0.906   2.631   1.235
  646SOL     OW 1942   0.040   2.406   1.114
  646SOL    HW1 1943   0.125   2.373   1.073
  646SOL    HW2 1944   0.053   2.421   1.212
  647SOL     OW 1945   0.189   2.382   1.722
  647SOL    HW1 1946   0.248   2.342   1.652
  647SOL    HW2 1947   0.131   2.453   1.681
  648SOL     OW 1948   1.369   2.812   1.660
  648SOL    HW1 1949   1.408   2.901   1.680
  648SOL    HW2 1950   1.379   2.792   1.563
  649SOL     OW 1951   0.815   2.434   0.325
  649SOL    HW1 1952   0.822   2.345   0.279
  649SOL    HW2 1953   0.721   2.468   0.317
  650SOL     OW 1954   1.657   2.466   1.206
  650SOL    HW1 1955   1.619   2.397   1.268
  650SOL    HW2 1956   1.739   2.430   1.162
  651SOL     OW 1957   0.252   3.426   1.744
  651SOL    HW1 1958   0.222   3.483   1.820
  651SOL    HW2 1959   0.245   3.329   1.770
  652SOL     OW 1960   0.671   2.326   1.269
  652SOL    HW1 1961   0.637   2.237   1.239
  652SOL    HW2 1962   0.697   2.380   1.189
  653SOL     OW 1963   0.930   3.540   1.465
  653SOL    HW1 1964   0.906   3.522   1.370
  653SOL    HW2 1965   0.960   3.634   1.475
  654SOL     OW 1966   0.473   2.362   0.191
  654SOL    HW1 1967   0.534   2.442   0.195
  654SOL    HW2 1968   0.378   2.393   0.198
  655SOL     OW 1969   0.159   2.999   1.466
  655SOL    HW1 1970   0.181   2.938   1.542
  655SOL    HW2 1971   0.169   2.950   1.380
  656SOL     OW 1972   1.347   2.921   1.234
  656SOL    HW1 1973   1.371   2.858   1.160
  656SOL    HW2 1974   1.257   2.961   1.216
  657SOL     OW 1975   1.302   2.717   0.309
  657SOL    HW1 1976   1.216   2.686   0.351
  657SOL    HW2 1977   1.298   2.703   0.210
  658SOL     OW 1978   1.759   3.609   1.154
  658SOL    HW1 1979   1.820   3.639   1.081
  658SOL    HW2 1980   1.721   3.520   1.132
  659SOL     OW 1981   1.252   3.593   1.128
  659SOL    HW1 1982   1.336   3.598   1.074
  659SOL    HW2 1983   1.229   3.497   1.146
  660SOL     OW 1984   0.083   3.120   1.022
  660SOL    HW1 1985   0.078   3.119   1.122
  660SOL    HW2 1986   0.000   3.079   0.984
  661SOL     OW 1987   0.688   3.524   1.716
  661SOL    HW1 1988   0.632   3.605   1.725
  661SOL    HW2 1989   0.740   3.528   1.630
  662SOL     OW 1990   0.903   1.948   0.133
  662SOL    HW1 1991   0.954   1.949   0.047
  662SOL    HW2 1992   0.959   1.906   0.204
  663SOL     OW 1993   1.726   1.997   0.523
  663SOL    HW1 1994   1.799   1.980   0.456
  663SOL    HW2 1995   1.695   1.910   0.561
  664SOL     OW 1996   1.388   3.435   0.477
  664SOL    HW1 1997   1.455   3.447   0.403
  664SOL    HW2 1998   1.348   3.524   0.500
  665SOL     OW 1999   0.130   3.656   1.851
  665SOL    HW1 2000   0.089   3.582   1.904
  665SOL    HW2 2001   0.194   3.707   1.909
  666SOL     OW 2002   1.280   2.789   0.672
  666SOL    HW1 2003   1.340   2.708   0.674
  666SOL    HW2 2004   1.320   2.858   0.612
  667SOL     OW 2005   0.830   3.135   1.422
  667SOL    HW1 2006   0.825   3.168   1.517
  667SOL    HW2 2007   0.744   3.154   1.376
  668SOL     OW 2008   0.672   3.478   0.154
  668SOL    HW1 2009   0.681   3.488   0.055
  668SOL    HW2 2010   0.632   3.389   0.175
  669SOL     OW 2011   1.650   3.582   1.394
  669SOL    HW1 2012   1.703   3.592   1.310
  669SOL    HW2 2013   1.623   3.672   1.428
  670SOL     OW 2014   1.841   2.037   0.963
  670SOL    HW1 2015   1.880   1.952   0.927
  670SOL    HW2 2016   1.743   2.039   0.944
  671SOL     OW 2017   0.263   2.188   0.720
  671SOL    HW1 2018   0.184   2.239   0.686
  671SOL    HW2 2019   0.254   2.173   0.818
  672SOL     OW 2020   1.194   3.474   0.031
  672SOL    HW1 2021   1.200   3.381   0.068
  672SOL    HW2 2022   1.135   3.474  -0.049
  673SOL     OW 2023   0.822   2.864   1.372
  673SOL    HW1 2024   0.862   2.863   1.280
  673SOL    HW2 2025   0.832   2.956   1.412
  674SOL     OW 2026   0.916   2.772   0.291
  674SOL    HW1 2027   0.979   2.810   0.223
  674SOL    HW2 2028   0.956   2.689   0.330
  675SOL     OW 2029   1.504   3.469   0.044
  675SOL    HW1 2030   1.412   3.506   0.051
  675SOL    HW2 2031   1.542   3.489  -0.046
  676SOL     OW 2032   0.372   3.150   1.490
  676SOL    HW1 2033   0.359   3.243   1.456
  676SOL    HW2 2034   0.288   3.098   1.477
  677SOL     OW 2035   1.614   3.154   1.289
  677SOL    HW1 2036   1.674   3.157   1.369
  677SOL    HW2 2037   1.539   3.218   1.302
  678SOL     OW 2038   1.039   2.960   0.696
  678SOL    HW1 2039   0.969   2.913   0.750
  678SOL    HW2 2040   1.098   2.892   0.653
  679SOL     OW 2041   1.014   2.098   0.971
  679SOL    HW1 2042   1.006   2.062   0.878
  679SOL    HW2 2043   1.012   2.022   1.036
  680SOL     OW 2044   0.590   3.349   0.491
  680SOL    HW1 2045   0.632   3.291   0.421
  680SOL    HW2 2046   0.546   3.428   0.447
  681SOL     OW 2047   1.709   2.247   1.381
  681SOL    HW1 2048   1.782   2.316   1.385
  681SOL    HW2 2049   1.737   2.172   1.322
  682SOL     OW 2050   0.255   3.210   0.290
  682SOL    HW1 2051   0.159   3.211   0.263
  682SOL    HW2 2052   0.267   3.263   0.374
  683SOL     OW 2053   0.105   2.875   1.726
  683SOL    HW1 2054   0.028   2.842   1.780
  683SOL    HW2 2055   0.190   2.845   1.768
  684SOL     OW 2056   0.672   2.065   1.489
  684SOL    HW1 2057   0.762   2.049   1.449
  684SOL    HW2 2058   0.680   2.070   1.588
  685SOL     OW 2059   0.075   2.207   0.033
  685SOL    HW1 2060  -0.017   2.179   0.004
  685SOL    HW2 2061   0.106   2.284  -0.023
  686SOL     OW 2062   1.440   2.718   1.398
  686SOL    HW1 2063   1.383   2.770   1.335
  686SOL    HW2 2064   1.536   2.730   1.374
  687SOL     OW 2065   0.072   2.028   0.318
  687SOL    HW1 2066   0.055   2.111   0.264
  687SOL    HW2 2067   0.162   1.991   0.296
  688SOL     OW 2068   1.183   3.197   0.119
  688SOL    HW1 2069   1.084   3.186   0.121
  688SOL    HW2 2070   1.217   3.212   0.212
  689SOL     OW 2071   0.613   2.704   1.431
  689SOL    HW1 2072   0.669   2.785   1.414
  689SOL    HW2 2073   0.672   2.624   1.434
  690SOL     OW 2074   1.493   3.629   0.959
  690SOL    HW1 2075   1.526   3.693   0.890
  690SOL    HW2 2076   1.559   3.623   1.034
  691SOL     OW 2077   0.716   2.427   1.708
  691SOL    HW1 2078   0.735   2.492   1.782
  691SOL    HW2 2079   0.776   2.347   1.717
  692SOL     OW 2080   1.450   3.082   1.633
  692SOL    HW1 2081   1.441   3.072   1.732
  692SOL    HW2 2082   1.546   3.075   1.607
  693SOL     OW 2083   0.390   3.603   1.560
  693SOL    HW1 2084   0.299   3.644   1.558
  693SOL    HW2 2085   0.383   3.509   1.592
  694SOL     OW 2086   1.674   2.745   1.254
  694SOL    HW1 2087   1.647   2.656   1.217
  694SOL    HW2 2088   1.675   2.813   1.181
  695SOL     OW 2089   1.225   2.187   0.449
  695SOL    HW1 2090   1.290   2.113   0.438
  695SOL    HW2 2091   1.245   2.237   0.533
  696SOL     OW 2092   0.594   2.607   0.652
  696SOL    HW1 2093   0.644   2.692   0.633
  696SOL    HW2 2094   0.506   2.609   0.604
  697SOL     OW 2095   1.777   2.204   1.642
  697SOL    HW1 2096   1.760   2.235   1.548
  697SOL    HW2 2097   1.693   2.167   1.680
  698SOL     OW 2098   1.730   2.796   1.517
  698SOL    HW1 2099   1.768   2.887   1.532
  698SOL    HW2 2100   1.722   2.779   1.418
  699SOL     OW 2101   0.859   3.236   0.016
  699SOL    HW1 2102   0.813   3.251   0.104
  699SOL    HW2 2103   0.903   3.321  -0.014
  700SOL     OW 2104   0.661   3.652   0.953
  700SOL    HW1 2105   0.615   3.740   0.940
  700SOL    HW2 2106   0.760   3.664   0.946
  701SOL     OW 2107   0.859   2.818   0.861
  701SOL    HW1 2108   0.913   2.749   0.909
  701SOL    HW2 2109   0.827   2.887   0.927
  702SOL     OW 2110   1.083   2.846   0.087
  702SOL    HW1 2111   1.060   2.899   0.005
  702SOL    HW2 2112   1.164   2.790   0.068
  703SOL     OW 2113   1.861   3.431   0.851
  703SOL    HW1 2114   1.790   3.419   0.781
  703SOL    HW2 2115   1.862   3.352   0.911
  704SOL     OW 2116   0.221   3.176   1.844
  704SOL    HW1 2117   0.156   3.103   1.823
  704SOL    HW2 2118   0.225   3.190   1.942
  705SOL     OW 2119   0.079   3.102   0.653
  705SOL    HW1 2120   0.078   3.055   0.741
  705SOL    HW2 2121   0.161   3.074   0.602
  706SOL     OW 2122   0.672   3.253   1.624
  706SOL    HW1 2123   0.594   3.203   1.662
  706SOL    HW2 2124   0.669   3.348   1.655
  707SOL     OW 2125   1.824   2.054   1.227
  707SOL    HW1 2126   1.820   1.964   1.271
  707SOL    HW2 2127   1.827   2.043   1.128
  708SOL     OW 2128   0.428   2.286   0.520
  708SOL    HW1 2129   0.458   2.214   0.458
  708SOL    HW2 2130   0.389   2.246   0.603
  709SOL     OW 2131   1.705   3.349   1.104
  709SOL    HW1 2132   1.612   3.324   1.077
  709SOL    HW2 2133   1.731   3.299   1.186
  710SOL     OW 2134   0.317   2.409   1.280
  710SOL    HW1 2135   0.355   2.350   1.352
  710SOL    HW2 2136   0.357   2.383   1.192
  711SOL     OW 2137   0.812   3.448   0.687
  711SOL    HW1 2138   0.844   3.458   0.593
  711SOL    HW2 2139   0.733   3.386   0.689
  712SOL     OW 2140   1.424   2.076   1.112
  712SOL    HW1 2141   1.476   2.011   1.167
  712SOL    HW2 2142   1.375   2.139   1.173
  713SOL     OW 2143   1.001   1.896   1.154
  713SOL    HW1 2144   0.938   1.824   1.123
  713SOL    HW2 2145   1.094   1.860   1.154
  714SOL     OW 2146   0.770   3.192   0.301
  714SOL    HW1 2147   0.724   3.105   0.318
  714SOL    HW2 2148   0.861   3.189   0.342
  715SOL     OW 2149   0.618   3.429   1.284
  715SOL    HW1 2150   0.613   3.511   1.341
  715SOL    HW2 2151   0.707   3.426   1.239
  716SOL     OW 2152   1.352   1.914   0.168
  716SOL    HW1 2153   1.387   1.873   0.084
  716SOL    HW2 2154   1.262   1.876   0.188
  717SOL     OW 2155   1.300   2.315   0.691
  717SOL    HW1 2156   1.241   2.395   0.695
  717SOL    HW2 2157   1.315   2.280   0.784
  718SOL     OW 2158   1.593   2.083   0.882
  718SOL    HW1 2159   1.509   2.082   0.936
  718SOL    HW2 2160   1.595   2.166   0.826
  719SOL     OW 2161   0.039   2.939   0.300
  719SOL    HW1 2162   0.138   2.928   0.291
  719SOL    HW2 2163  -0.001   2.853   0.332
  720SOL     OW 2164   0.875   3.508   0.337
  720SOL    HW1 2165   0.798   3.473   0.283
  720SOL    HW2 2166   0.843   3.579   0.399
  721SOL     OW 2167   0.230   2.490   1.975
  721SOL    HW1 2168   0.137   2.488   2.012
  721SOL    HW2 2169   0.231   2.451   1.883
  722SOL     OW 2170   0.225   2.137   2.858
  722SOL    HW1 2171   0.260   2.120   2.950
  722SOL    HW2 2172   0.137   2.092   2.846
  723SOL     OW 2173   0.019   2.230   2.509
  723SOL    HW1 2174  -0.063   2.273   2.548
  723SOL    HW2 2175  -0.009   2.157   2.446
  724SOL     OW 2176   0.569   3.137   3.027
  724SOL    HW1 2177   0.476   3.130   2.990
  724SOL    HW2 2178   0.580   3.226   3.071
  725SOL     OW 2179   1.555   3.373   2.565
  725SOL    HW1 2180   1.498   3.357   2.646
  725SOL    HW2 2181   1.496   3.383   2.485
  726SOL     OW 2182   1.135   2.565   2.579
  726SOL    HW1 2183   1.192   2.643   2.554
  726SOL    HW2 2184   1.075   2.591   2.655
  727SOL     OW 2185   1.755   2.469   2.093
  727SOL    HW1 2186   1.743   2.456   1.994
  727SOL    HW2 2187   1.725   2.388   2.142
  728SOL     OW 2188   0.768   3.006   2.885
  728SOL    HW1 2189   0.690   3.023   2.945
  728SOL    HW2 2190   0.802   3.093   2.849
  729SOL     OW 2191   0.850   2.660   3.685
  729SOL    HW1 2192   0.846   2.736   3.750
  729SOL    HW2 2193   0.872   2.696   3.594
  730SOL     OW 2194   0.685   2.874   2.527
  730SOL    HW1 2195   0.754   2.858   2.597
  730SOL    HW2 2196   0.612   2.931   2.565
  731SOL     OW 2197   0.686   3.023   3.665
  731SOL    HW1 2198   0.746   3.102   3.679
  731SOL    HW2 2199   0.600   3.054   3.624
  732SOL     OW 2200   0.335   3.297   2.923
  732SOL    HW1 2201   0.257   3.266   2.870
  732SOL    HW2 2202   0.393   3.355   2.866
  733SOL     OW 2203   1.460   3.367   3.201
  733SOL    HW1 2204   1.484   3.461   3.227
  733SOL    HW2 2205   1.444   3.313   3.283
  734SOL     OW 2206   0.438   2.254   3.361
  734SOL    HW1 2207   0.520   2.198   3.370
  734SOL    HW2 2208   0.357   2.196   3.365
  735SOL     OW 2209   1.603   2.309   2.599
  735SOL    HW1 2210   1.529   2.355   2.549
  735SOL    HW2 2211   1.654   2.377   2.652
  736SOL     OW 2212   0.231   3.575   2.345
  736SOL    HW1 2213   0.265   3.652   2.399
  736SOL    HW2 2214   0.275   3.575   2.255
  737SOL     OW 2215   1.127   3.203   3.552
  737SOL    HW1 2216   1.174   3.203   3.640
  737SOL    HW2 2217   1.079   3.116   3.541
  738SOL     OW 2218   0.230   3.296   2.400
  738SOL    HW1 2219   0.204   3.392   2.400
  738SOL    HW2 2220   0.159   3.242   2.445
  739SOL     OW 2221   0.240   2.953   2.748
  739SOL    HW1 2222   0.254   2.869   2.800
  739SOL    HW2 2223   0.185   3.017   2.803
  740SOL     OW 2224   0.620   3.648   3.301
  740SOL    HW1 2225   0.528   3.631   3.336
  740SOL    HW2 2226   0.648   3.740   3.327
  741SOL     OW 2227   0.606   2.826   1.985
  741SOL    HW1 2228   0.613   2.910   1.931
  741SOL    HW2 2229   0.652   2.839   2.073
  742SOL     OW 2230   1.594   1.976   3.342
  742SOL    HW1 2231   1.576   2.043   3.270
  742SOL    HW2 2232   1.591   2.022   3.431
  743SOL     OW 2233   0.122   2.505   2.425
  743SOL    HW1 2234   0.077   2.417   2.442
  743SOL    HW2 2235   0.121   2.559   2.509
  744SOL     OW 2236   1.842   3.629   2.221
  744SOL    HW1 2237   1.896   3.600   2.301
  744SOL    HW2 2238   1.872   3.719   2.192
  745SOL     OW 2239   0.027   3.458   1.979
  745SOL    HW1 2240   0.008   3.362   2.000
  745SOL    HW2 2241  -0.006   3.516   2.054
  746SOL     OW 2242   1.689   2.784   2.474
  746SOL    HW1 2243   1.784   2.755   2.482
  746SOL    HW2 2244   1.681   2.849   2.399
  747SOL     OW 2245   1.641   2.970   2.294
  747SOL    HW1 2246   1.727   2.972   2.242
  747SOL    HW2 2247   1.655   3.017   2.382
  748SOL     OW 2248   0.113   2.599   3.459
  748SOL    HW1 2249   0.201   2.586   3.504
  748SOL    HW2 2250   0.100   2.696   3.437
  749SOL     OW 2251   0.613   3.227   2.588
  749SOL    HW1 2252   0.564   3.140   2.597
  749SOL    HW2 2253   0.590   3.270   2.501
  750SOL     OW 2254   1.293   3.090   3.285
  750SOL    HW1 2255   1.330   3.017   3.227
  750SOL    HW2 2256   1.345   3.095   3.370
  751SOL     OW 2257   0.809   1.866   2.364
  751SOL    HW1 2258   0.849   1.957   2.355
  751SOL    HW2 2259   0.709   1.874   2.370
  752SOL     OW 2260   0.197   2.838   3.126
  752SOL    HW1 2261   0.286   2.793   3.112
  752SOL    HW2 2262   0.124   2.773   3.107
  753SOL     OW 2263   1.525   2.861   2.052
  753SOL    HW1 2264   1.462   2.785   2.065
  753SOL    HW2 2265   1.573   2.879   2.138
  754SOL     OW 2266   1.187   3.654   3.478
  754SOL    HW1 2267   1.211   3.714   3.402
  754SOL    HW2 2268   1.194   3.559   3.448
  755SOL     OW 2269   0.317   2.113   3.663
  755SOL    HW1 2270   0.388   2.184   3.669
  755SOL    HW2 2271   0.229   2.152   3.691
  756SOL     OW 2272   1.466   3.279   2.815
  756SOL    HW1 2273   1.407   3.285   2.895
  756SOL    HW2 2274   1.451   3.191   2.769
  757SOL     OW 2275   1.667   3.576   2.434
  757SOL    HW1 2276   1.626   3.553   2.346
  757SOL    HW2 2277   1.649   3.502   2.499
  758SOL     OW 2278   0.598   2.591   2.132
  758SOL    HW1 2279   0.622   2.660   2.064
  758SOL    HW2 2280   0.520   2.624   2.186
  759SOL     OW 2281   1.281   2.207   2.806
  759SOL    HW1 2282   1.195   2.157   2.793
  759SOL    HW2 2283   1.343   2.153   2.862
  760SOL     OW 2284   1.576   3.524   2.169
  760SOL    HW1 2285   1.665   3.570   2.172
  760SOL    HW2 2286   1.555   3.500   2.074
  761SOL     OW 2287   0.807   2.467   3.327
  761SOL    HW1 2288   0.760   2.464   3.416
  761SOL    HW2 2289   0.756   2.412   3.261
  762SOL     OW 2290   1.394   2.331   3.536
  762SOL    HW1 2291   1.374   2.374   3.624
  762SOL    HW2 2292   1.472   2.269   3.545
  763SOL     OW 2293   0.973   2.752   3.434
  763SOL    HW1 2294   1.019   2.668   3.405
  763SOL    HW2 2295   0.917   2.786   3.359
  764SOL     OW 2296   0.991   2.272   3.104
  764SOL    HW1 2297   0.914   2.306   3.158
  764SOL    HW2 2298   0.957   2.221   3.025
  765SOL     OW 2299   1.041   2.563   2.291
  765SOL    HW1 2300   1.067   2.559   2.387
  765SOL    HW2 2301   0.956   2.512   2.277
  766SOL     OW 2302   0.076   2.673   2.651
  766SOL    HW1 2303   0.175   2.661   2.660
  766SOL    HW2 2304   0.052   2.768   2.672
  767SOL     OW 2305   0.130   3.683   3.433
  767SOL    HW1 2306   0.120   3.668   3.532
  767SOL    HW2 2307   0.044   3.719   3.397
  768SOL     OW 2308   0.865   2.210   2.057
  768SOL    HW1 2309   0.924   2.273   2.008
  768SOL    HW2 2310   0.884   2.116   2.028
  769SOL     OW 2311   1.719   2.447   3.693
  769SOL    HW1 2312   1.693   2.536   3.657
  769SOL    HW2 2313   1.717   2.379   3.620
  770SOL     OW 2314   1.362   3.006   2.407
  770SOL    HW1 2315   1.445   2.977   2.359
  770SOL    HW2 2316   1.313   3.073   2.351
  771SOL     OW 2317   0.550   2.058   2.747
  771SOL    HW1 2318   0.545   2.053   2.847
  771SOL    HW2 2319   0.552   2.154   2.718
  772SOL     OW 2320   1.008   3.318   2.339
  772SOL    HW1 2321   0.962   3.390   2.287
  772SOL    HW2 2322   1.004   3.338   2.437
  773SOL     OW 2323   0.351   3.663   2.715
  773SOL    HW1 2324   0.401   3.577   2.721
  773SOL    HW2 2325   0.416   3.740   2.712
  774SOL     OW 2326   1.795   2.928   2.735
  774SOL    HW1 2327   1.733   2.913   2.659
  774SOL    HW2 2328   1.743   2.939   2.820
  775SOL     OW 2329   1.227   3.412   3.368
  775SOL    HW1 2330   1.233   3.335   3.432
  775SOL    HW2 2331   1.175   3.386   3.288
  776SOL     OW 2332   0.321   2.805   2.104
  776SOL    HW1 2333   0.403   2.844   2.062
  776SOL    HW2 2334   0.294   2.723   2.055
  777SOL     OW 2335   1.458   2.597   2.590
  777SOL    HW1 2336   1.453   2.532   2.665
  777SOL    HW2 2337   1.538   2.656   2.603
  778SOL     OW 2338   0.461   3.128   3.589
  778SOL    HW1 2339   0.411   3.129   3.503
  778SOL    HW2 2340   0.398   3.110   3.665
  779SOL     OW 2341   1.111   3.638   2.099
  779SOL    HW1 2342   1.051   3.576   2.149
  779SOL    HW2 2343   1.142   3.594   2.014
  780SOL     OW 2344   0.202   2.147   3.360
  780SOL    HW1 2345   0.122   2.207   3.347
  780SOL    HW2 2346   0.192   2.098   3.446
  781SOL     OW 2347   1.632   3.239   1.943
  781SOL    HW1 2348   1.600   3.333   1.933
  781SOL    HW2 2349   1.556   3.176   1.931
  782SOL     OW 2350   0.464   3.605   2.185
  782SOL    HW1 2351   0.497   3.644   2.271
  782SOL    HW2 2352   0.540   3.598   2.120
  783SOL     OW 2353   1.400   1.969   2.288
  783SOL    HW1 2354   1.376   1.932   2.198
  783SOL    HW2 2355   1.499   1.985   2.292
  784SOL     OW 2356   0.249   3.647   3.103
  784SOL    HW1 2357   0.306   3.582   3.153
  784SOL    HW2 2358   0.233   3.614   3.010
  785SOL     OW 2359   0.940   3.560   2.766
  785SOL    HW1 2360   1.020   3.503   2.787
  785SOL    HW2 2361   0.891   3.520   2.689
  786SOL     OW 2362   0.382   2.562   2.342
  786SOL    HW1 2363   0.427   2.472   2.339
  786SOL    HW2 2364   0.288   2.551   2.375
  787SOL     OW 2365   1.547   2.084   3.591
  787SOL    HW1 2366   1.542   2.121   3.683
  787SOL    HW2 2367   1.475   2.015   3.579
  788SOL     OW 2368   0.614   1.984   1.979
  788SOL    HW1 2369   0.712   1.962   1.986
  788SOL    HW2 2370   0.583   1.967   1.886
  789SOL     OW 2371   0.781   2.126   3.611
  789SOL    HW1 2372   0.848   2.065   3.654
  789SOL    HW2 2373   0.708   2.145   3.676
  790SOL     OW 2374   0.888   3.376   3.057
  790SOL    HW1 2375   0.865   3.351   2.963
  790SOL    HW2 2376   0.949   3.307   3.096
  791SOL     OW 2377   1.351   2.452   3.295
  791SOL    HW1 2378   1.379   2.409   3.380
  791SOL    HW2 2379   1.376   2.548   3.296
  792SOL     OW 2380   0.803   3.264   2.786
  792SOL    HW1 2381   0.893   3.278   2.744
  792SOL    HW2 2382   0.732   3.266   2.715
  793SOL     OW 2383   0.922   2.365   2.761
  793SOL    HW1 2384   0.897   2.356   2.665
  793SOL    HW2 2385   0.970   2.283   2.792
  794SOL     OW 2386   0.539   1.926   2.374
  794SOL    HW1 2387   0.458   1.927   2.432
  794SOL    HW2 2388   0.542   2.009   2.319
  795SOL     OW 2389   1.434   3.050   1.903
  795SOL    HW1 2390   1.466   2.974   1.960
  795SOL    HW2 2391   1.342   3.077   1.933
  796SOL     OW 2392   0.297   1.897   2.033
  796SOL    HW1 2393   0.346   1.981   2.012
  796SOL    HW2 2394   0.359   1.832   2.078
  797SOL     OW 2395   0.935   2.098   2.342
  797SOL    HW1 2396   0.887   2.139   2.264
  797SOL    HW2 2397   1.034   2.096   2.323
  798SOL     OW 2398   1.076   2.545   3.326
  798SOL    HW1 2399   0.996   2.484   3.329
  798SOL    HW2 2400   1.157   2.492   3.302
  799SOL     OW 2401   1.227   3.432   2.655
  799SOL    HW1 2402   1.248   3.506   2.590
  799SOL    HW2 2403   1.295   3.432   2.728
  800SOL     OW 2404   0.459   3.014   2.603
  800SOL    HW1 2405   0.388   2.987   2.668
  800SOL    HW2 2406   0.433   2.986   2.510
  801SOL     OW 2407   1.271   3.659   2.453
  801SOL    HW1 2408   1.315   3.723   2.389
  801SOL    HW2 2409   1.221   3.711   2.523
  802SOL     OW 2410   1.032   2.411   1.878
  802SOL    HW1 2411   0.991   2.493   1.839
  802SOL    HW2 2412   1.096   2.437   1.951
  803SOL     OW 2413   0.078   2.418   3.248
  803SOL    HW1 2414   0.170   2.417   3.207
  803SOL    HW2 2415   0.072   2.492   3.315
  804SOL     OW 2416   0.561   2.084   3.009
  804SOL    HW1 2417   0.599   2.000   3.046
  804SOL    HW2 2418   0.473   2.103   3.053
  805SOL     OW 2419   0.866   2.316   2.504
  805SOL    HW1 2420   0.834   2.388   2.442
  805SOL    HW2 2421   0.890   2.235   2.451
  806SOL     OW 2422   1.017   1.901   2.615
  806SOL    HW1 2423   0.945   1.906   2.546
  806SOL    HW2 2424   0.993   1.832   2.684
  807SOL     OW 2425   1.429   3.035   2.729
  807SOL    HW1 2426   1.374   2.951   2.722
  807SOL    HW2 2427   1.455   3.064   2.637
  808SOL     OW 2428   1.466   2.452   2.854
  808SOL    HW1 2429   1.436   2.357   2.861
  808SOL    HW2 2430   1.539   2.468   2.920
  809SOL     OW 2431   1.857   2.695   2.239
  809SOL    HW1 2432   1.899   2.631   2.303
  809SOL    HW2 2433   1.819   2.644   2.161
  810SOL     OW 2434   0.488   3.247   2.036
  810SOL    HW1 2435   0.401   3.232   2.083
  810SOL    HW2 2436   0.471   3.273   1.941
  811SOL     OW 2437   1.664   3.142   2.519
  811SOL    HW1 2438   1.763   3.150   2.533
  811SOL    HW2 2439   1.619   3.226   2.550
  812SOL     OW 2440   1.390   2.437   1.940
  812SOL    HW1 2441   1.336   2.416   2.021
  812SOL    HW2 2442   1.481   2.396   1.949
  813SOL     OW 2443   0.527   2.118   2.190
  813SOL    HW1 2444   0.554   2.059   2.115
  813SOL    HW2 2445   0.527   2.213   2.159
  814SOL     OW 2446   1.754   3.085   3.450
  814SOL    HW1 2447   1.845   3.046   3.437
  814SOL    HW2 2448   1.762   3.181   3.474
  815SOL     OW 2449   1.064   3.209   3.202
  815SOL    HW1 2450   0.984   3.186   3.257
  815SOL    HW2 2451   1.147   3.183   3.251
  816SOL     OW 2452   1.592   3.491   3.487
  816SOL    HW1 2453   1.619   3.525   3.397
  816SOL    HW2 2454   1.671   3.453   3.533
  817SOL     OW 2455   1.111   3.057   2.962
  817SOL    HW1 2456   1.071   3.101   3.043
  817SOL    HW2 2457   1.070   3.094   2.879
  818SOL     OW 2458   1.638   2.961   2.941
  818SOL    HW1 2459   1.643   3.042   3.000
  818SOL    HW2 2460   1.552   2.963   2.890
  819SOL     OW 2461   0.915   1.951   3.264
  819SOL    HW1 2462   0.940   1.931   3.169
  819SOL    HW2 2463   0.987   2.007   3.306
  820SOL     OW 2464   0.980   2.978   3.581
  820SOL    HW1 2465   0.881   2.984   3.591
  820SOL    HW2 2466   1.003   2.898   3.525
  821SOL     OW 2467   0.705   2.912   2.230
  821SOL    HW1 2468   0.691   2.919   2.329
  821SOL    HW2 2469   0.789   2.861   2.212
  822SOL     OW 2470   0.410   2.675   3.113
  822SOL    HW1 2471   0.496   2.687   3.163
  822SOL    HW2 2472   0.368   2.588   3.140
  823SOL     OW 2473   1.274   2.248   3.124
  823SOL    HW1 2474   1.295   2.322   3.188
  823SOL    HW2 2475   1.185   2.265   3.081
  824SOL     OW 2476   0.064   3.426   3.193
  824SOL    HW1 2477   0.018   3.508   3.159
  824SOL    HW2 2478   0.162   3.445   3.202
  825SOL     OW 2479   0.367   2.962   2.363
  825SOL    HW1 2480   0.360   3.045   2.307
  825SOL    HW2 2481   0.371   2.882   2.303
  826SOL     OW 2482   0.566   2.399   2.727
  826SOL    HW1 2483   0.578   2.465   2.653
  826SOL    HW2 2484   0.612   2.433   2.810
  827SOL     OW 2485   1.252   3.210   2.250
  827SOL    HW1 2486   1.302   3.287   2.290
  827SOL    HW2 2487   1.157   3.212   2.282
  828SOL     OW 2488   1.272   3.307   3.004
  828SOL    HW1 2489   1.319   3.320   3.091
  828SOL    HW2 2490   1.206   3.233   3.013
  829SOL     OW 2491   1.582   2.501   2.334
  829SOL    HW1 2492   1.551   2.562   2.407
  829SOL    HW2 2493   1.632   2.553   2.265
  830SOL     OW 2494   0.354   3.372   3.191
  830SOL    HW1 2495   0.333   3.328   3.104
  830SOL    HW2 2496   0.451   3.398   3.194
  831SOL     OW 2497   0.402   2.613   3.460
  831SOL    HW1 2498   0.470   2.668   3.413
  831SOL    HW2 2499   0.442   2.525   3.487
  832SOL     OW 2500   1.587   2.641   3.532
  832SOL    HW1 2501   1.495   2.679   3.527
  832SOL    HW2 2502   1.647   2.688   3.467
  833SOL     OW 2503   1.013   1.967   3.632
  833SOL    HW1 2504   1.019   2.052   3.580
  833SOL    HW2 2505   1.045   1.891   3.575
  834SOL     OW 2506   0.504   1.912   3.602
  834SOL    HW1 2507   0.462   1.855   3.532
  834SOL    HW2 2508   0.438   1.981   3.634
  835SOL     OW 2509   0.573   2.732   2.891
  835SOL    HW1 2510   0.617   2.821   2.882
  835SOL    HW2 2511   0.510   2.732   2.968
  836SOL     OW 2512   1.360   2.724   2.907
  836SOL    HW1 2513   1.285   2.724   2.841
  836SOL    HW2 2514   1.397   2.632   2.916
  837SOL     OW 2515   1.209   2.387   2.137
  837SOL    HW1 2516   1.222   2.303   2.191
  837SOL    HW2 2517   1.180   2.461   2.197
  838SOL     OW 2518   0.307   2.075   3.093
  838SOL    HW1 2519   0.284   2.112   3.183
  838SOL    HW2 2520   0.277   1.980   3.087
  839SOL     OW 2521   0.037   3.172   3.144
  839SOL    HW1 2522   0.090   3.123   3.212
  839SOL    HW2 2523   0.059   3.270   3.149
  840SOL     OW 2524   0.732   2.496   2.926
  840SOL    HW1 2525   0.791   2.470   2.850
  840SOL    HW2 2526   0.704   2.592   2.915
  841SOL     OW 2527   1.728   2.797   3.716
  841SOL    HW1 2528   1.682   2.790   3.627
  841SOL    HW2 2529   1.666   2.841   3.782
  842SOL     OW 2530   0.307   1.925   2.480
  842SOL    HW1 2531   0.296   2.019   2.513
  842SOL    HW2 2532   0.302   1.862   2.557
  843SOL     OW 2533   1.622   2.229   2.236
  843SOL    HW1 2534   1.624   2.153   2.300
  843SOL    HW2 2535   1.574   2.306   2.276
  844SOL     OW 2536   1.023   2.628   2.828
  844SOL    HW1 2537   1.038   2.649   2.924
  844SOL    HW2 2538   0.993   2.533   2.819
  845SOL     OW 2539   0.980   3.435   3.562
  845SOL    HW1 2540   0.960   3.479   3.474
  845SOL    HW2 2541   1.019   3.344   3.546
  846SOL     OW 2542   1.859   3.380   3.467
  846SOL    HW1 2543   1.873   3.407   3.372
  846SOL    HW2 2544   1.942   3.402   3.520
  847SOL     OW 2545   0.350   2.760   3.666
  847SOL    HW1 2546   0.426   2.804   3.714
  847SOL    HW2 2547   0.385   2.713   3.584
  848SOL     OW 2548   1.540   2.136   1.987
  848SOL    HW1 2549   1.479   2.061   2.010
  848SOL    HW2 2550   1.562   2.188   2.070
  849SOL     OW 2551   1.303   2.700   1.904
  849SOL    HW1 2552   1.337   2.607   1.919
  849SOL    HW2 2553   1.321   2.727   1.809
  850SOL     OW 2554   1.068   3.195   2.711
  850SOL    HW1 2555   1.075   3.111   2.656
  850SOL    HW2 2556   1.130   3.264   2.675
  851SOL     OW 2557   0.319   2.672   2.811
  851SOL    HW1 2558   0.412   2.708   2.816
  851SOL    HW2 2559   0.313   2.587   2.863
  852SOL     OW 2560   0.339   2.371   2.868
  852SOL    HW1 2561   0.287   2.288   2.851
  852SOL    HW2 2562   0.416   2.376   2.804
  853SOL     OW 2563   1.138   2.242   3.540
  853SOL    HW1 2564   1.093   2.305   3.604
  853SOL    HW2 2565   1.231   2.273   3.523
  854SOL     OW 2566   1.160   2.069   3.339
  854SOL    HW1 2567   1.160   2.133   3.416
  854SOL    HW2 2568   1.188   2.117   3.256
  855SOL     OW 2569   0.008   3.188   2.062
  855SOL    HW1 2570  -0.085   3.209   2.031
  855SOL    HW2 2571   0.018   3.089   2.075
  856SOL     OW 2572   0.088   3.663   2.789
  856SOL    HW1 2573   0.046   3.577   2.762
  856SOL    HW2 2574   0.182   3.666   2.755
  857SOL     OW 2575   0.504   3.430   2.772
  857SOL    HW1 2576   0.570   3.504   2.781
  857SOL    HW2 2577   0.548   3.351   2.730
  858SOL     OW 2578   1.002   2.658   3.100
  858SOL    HW1 2579   1.043   2.626   3.186
  858SOL    HW2 2580   0.906   2.631   3.097
  859SOL     OW 2581   0.040   2.406   2.976
  859SOL    HW1 2582   0.125   2.373   2.935
  859SOL    HW2 2583   0.053   2.421   3.074
  860SOL     OW 2584   0.189   2.382   3.584
  860SOL    HW1 2585   0.248   2.342   3.514
  860SOL    HW2 2586   0.131   2.453   3.543
  861SOL     OW 2587   1.369   2.812   3.522
  861SOL    HW1 2588   1.408   2.901   3.542
  861SOL    HW2 2589   1.379   2.792   3.425
  862SOL     OW 2590   0.815   2.434   2.187
  862SOL    HW1 2591   0.822   2.345   2.141
  862SOL    HW2 2592   0.721   2.468   2.179
  863SOL     OW 2593   1.657   2.466   3.068
  863SOL    HW1 2594   1.619   2.397   3.130
  863SOL    HW2 2595   1.739   2.430   3.024
  864SOL     OW 2596   0.252   3.426   3.606
  864SOL    HW1 2597   0.222   3.483   3.682
  864SOL    HW2 2598   0.245   3.329   3.632
  865SOL     OW 2599   0.671   2.326   3.131
  865SOL    HW1 2600   0.637   2.237   3.101
  865SOL    HW2 2601   0.697   2.380   3.051
  866SOL     OW 2602   0.930   3.540   3.327
  866SOL    HW1 2603   0.906   3.522   3.232
  866SOL    HW2 2604   0.960   3.634   3.337
  867SOL     OW 2605   0.473   2.362   2.053
  867SOL    HW1 2606   0.534   2.442   2.057
  867SOL    HW2 2607   0.378   2.393   2.060
  868SOL     OW 2608   0.159   2.999   3.328
  868SOL    HW1 2609   0.181   2.938   3.404
  868SOL    HW2 2610   0.169   2.950   3.242
  869SOL     OW 2611   1.347   2.921   3.096
  869SOL    HW1 2612   1.371   2.858   3.022
  869SOL    HW2 2613   1.257   2.961   3.078
  870SOL     OW 2614   1.302   2.717   2.171
  870SOL    HW1 2615   1.216   2.686   2.213
  870SOL    HW2 2616   1.298   2.703   2.072
  871SOL     OW 2617   1.759   3.609   3.016
  871SOL    HW1 2618   1.820   3.639   2.943
  871SOL    HW2 2619   1.721   3.520   2.994
  872SOL     OW 2620   1.252   3.593   2.990
  872SOL    HW1 2621   1.336   3.598   2.936
  872SOL    HW2 2622   1.229   3.497   3.008
  873SOL     OW 2623   0.083   3.120   2.884
  873SOL    HW1 2624   0.078   3.119   2.984
  873SOL    HW2 2625   0.000   3.079   2.846
  874SOL     OW 2626   0.688   3.524   3.578
  874SOL    HW1 2627   0.632   3.605   3.587
  874SOL    HW2 2628   0.740   3.528   3.492
  875SOL     OW 2629   1.726   1.997   2.385
  875SOL    HW1 2630   1.799   1.980   2.318
  875SOL    HW2 2631   1.695   1.910   2.423
  876SOL     OW 2632   1.388   3.435   2.339
  876SOL    HW1 2633   1.455   3.447   2.265
  876SOL    HW2 2634   1.348   3.524   2.362
  877SOL     OW 2635   0.130   3.656   3.713
  877SOL    HW1 2636   0.089   3.582   3.766
  877SOL    HW2 2637   0.194   3.707   3.771
  878SOL     OW 2638   1.280   2.789   2.534
  878SOL    HW1 2639   1.340   2.708   2.536
  878SOL    HW2 2640   1.320   2.858   2.474
  879SOL     OW 2641   0.830   3.135   3.284
  879SOL    HW1 2642   0.825   3.168   3.379
  879SOL    HW2 2643   0.744   3.154   3.238
  880SOL     OW 2644   0.672   3.478   2.016
  880SOL    HW1 2645   0.681   3.488   1.917
  880SOL    HW2 2646   0.632   3.389   2.037
  881SOL     OW 2647   1.650   3.582   3.256
  881SOL    HW1 2648   1.703   3.592   3.172
  881SOL    HW2 2649   1.623   3.672   3.290
  882SOL     OW 2650   1.841   2.037   2.825
  882SOL    HW1 2651   1.880   1.952   2.789
  882SOL    HW2 2652   1.743   2.039   2.806
  883SOL     OW 2653   0.263   2.188   2.582
  883SOL    HW1 2654   0.184   2.239   2.548
  883SOL    HW2 2655   0.254   2.173   2.680
  884SOL     OW 2656   1.194   3.474   1.893
  884SOL    HW1 2657   1.200   3.381   1.930
  884SOL    HW2 2658   1.135   3.474   1.813
  885SOL     OW 2659   0.822   2.864   3.234
  885SOL    HW1 2660   0.862   2.863   3.142
  885SOL    HW2 2661   0.832   2.956   3.274
  886SOL     OW 2662   0.916   2.772   2.153
  886SOL    HW1 2663   0.979   2.810   2.085
  886SOL    HW2 2664   0.956   2.689   2.192
  887SOL     OW 2665   1.504   3.469   1.906
  887SOL    HW1 2666   1.412   3.506   1.913
  887SOL    HW2 2667   1.542   3.489   1.816
  888SOL     OW 2668   0.372   3.150   3.352
  888SOL    HW1 2669   0.359   3.243   3.318
  888SOL    HW2 2670   0.288   3.098   3.339
  889SOL     OW 2671   1.614   3.154   3.151
  889SOL    HW1 2672   1.674   3.157   3.231
  889SOL    HW2 2673   1.539   3.218   3.164
  890SOL     OW 2674   1.039   2.960   2.558
  890SOL    HW1 2675   0.969   2.913   2.612
  890SOL    HW2 2676   1.098   2.892   2.515
  891SOL     OW 2677   1.014   2.098   2.833
  891SOL    HW1 2678   1.006   2.062   2.740
  891SOL    HW2 2679   1.012   2.022   2.898
  892SOL     OW 2680   0.590   3.349   2.353
  892SOL    HW1 2681   0.632   3.291   2.283
  892SOL    HW2 2682   0.546   3.428   2.309
  893SOL     OW 2683   1.709   2.247   3.243
  893SOL    HW1 2684   1.782   2.316   3.247
  893SOL    HW2 2685   1.737   2.172   3.184
  894SOL     OW 2686   0.255   3.210   2.152
  894SOL    HW1 2687   0.159   3.211   2.125
  894SOL    HW2 2688   0.267   3.263   2.236
  895SOL     OW 2689   0.105   2.875   3.588
  895SOL    HW1 2690   0.028   2.842   3.642
  895SOL    HW2 2691   0.190   2.845   3.630
  896SOL     OW 2692   0.672   2.065   3.351
  896SOL    HW1 2693   0.762   2.049   3.311
  896SOL    HW2 2694   0.680   2.070   3.450
  897SOL     OW 2695   0.075   2.207   1.895
  897SOL    HW1 2696  -0.017   2.179   1.866
  897SOL    HW2 2697   0.106   2.284   1.839
  898SOL     OW 2698   1.440   2.718   3.260
  898SOL    HW1 2699   1.383   2.770   3.197
  898SOL    HW2 2700   1.536   2.730   3.236
  899SOL     OW 2701   0.072   2.028   2.180
  899SOL    HW1 2702   0.055   2.111   2.126
  899SOL    HW2 2703   0.162   1.991   2.158
  900SOL     OW 2704   1.183   3.197   1.981
  900SOL    HW1 2705   1.084   3.186   1.983
  900SOL    HW2 2706   1.217   3.212   2.074
  901SOL     OW 2707   0.613   2.704   3.293
  901SOL    HW1 2708   0.669   2.785   3.276
  901SOL    HW2 2709   0.672   2.624   3.296
  902SOL     OW 2710   1.493   3.629   2.821
  902SOL    HW1 2711   1.526   3.693   2.752
  902SOL    HW2 2712   1.559   3.623   2.896
  903SOL     OW 2713   0.716   2.427   3.570
  903SOL    HW1 2714   0.735   2.492   3.644
  903SOL    HW2 2715   0.776   2.347   3.579
  904SOL     OW 2716   1.450   3.082   3.495
  904SOL    HW1 2717   1.441   3.072   3.594
  904SOL    HW2 2718   1.546   3.075   3.469
  905SOL     OW 2719   0.390   3.603   3.422
  905SOL    HW1 2720   0.299   3.644   3.420
  905SOL    HW2 2721   0.383   3.509   3.454
  906SOL     OW 2722   1.674   2.745   3.116
  906SOL    HW1 2723   1.647   2.656   3.079
  906SOL    HW2 2724   1.675   2.813   3.043
  907SOL     OW 2725   1.225   2.187   2.311
  907SOL    HW1 2726   1.290   2.113   2.300
  907SOL    HW2 2727   1.245   2.237   2.395
  908SOL     OW 2728   0.594   2.607   2.514
  908SOL    HW1 2729   0.644   2.692   2.495
  908SOL    HW2 2730   0.506   2.609   2.466
  909SOL     OW 2731   1.777   2.204   3.504
  909SOL    HW1 2732   1.760   2.235   3.410
  909SOL    HW2 2733   1.693   2.167   3.542
  910SOL     OW 2734   1.730   2.796   3.379
  910SOL    HW1 2735   1.768   2.887   3.394
  910SOL    HW2 2736   1.722   2.779   3.280
  911SOL     OW 2737   0.859   3.236   1.878
  911SOL    HW1 2738   0.813   3.251   1.966
  911SOL    HW2 2739   0.903   3.321   1.848
  912SOL     OW 2740   0.661   3.652   2.815
  912SOL    HW1 2741   0.615   3.740   2.802
  912SOL    HW2 2742   0.760   3.664   2.808
  913SOL     OW 2743   0.859   2.818   2.723
  913SOL    HW1 2744   0.913   2.749   2.771
  913SOL    HW2 2745   0.827   2.887   2.789
  914SOL     OW 2746   1.083   2.846   1.949
  914SOL    HW1 2747   1.060   2.899   1.867
  914SOL    HW2 2748   1.164   2.790   1.930
  915SOL     OW 2749   1.861   3.431   2.713
  915SOL    HW1 2750   1.790   3.419   2.643
  915SOL    HW2 2751   1.862   3.352   2.773
  916SOL     OW 2752   0.221   3.176   3.706
  916SOL    HW1 2753   0.156   3.103   3.685
  916SOL    HW2 2754   0.225   3.190   3.804
  917SOL     OW 2755   0.079   3.102   2.515
  917SOL    HW1 2756   0.078   3.055   2.603
  917SOL    HW2 2757   0.161   3.074   2.464
  918SOL     OW 2758   0.672   3.253   3.486
  918SOL    HW1 2759   0.594   3.203   3.524
  918SOL    HW2 2760   0.669   3.348   3.517
  919SOL     OW 2761   1.824   2.054   3.089
  919SOL    HW1 2762   1.820   1.964   3.133
  919SOL    HW2 2763   1.827   2.043   2.990
  920SOL     OW 2764   0.428   2.286   2.382
  920SOL    HW1 2765   0.458   2.214   2.320
  920SOL    HW2 2766   0.389   2.246   2.465
  921SOL     OW 2767   1.705   3.349   2.966
  921SOL    HW1 2768   1.612   3.324   2.939
  921SOL    HW2 2769   1.731   3.299   3.048
  922SOL     OW 2770   0.317   2.409   3.142
  922SOL    HW1 2771   0.355   2.350   3.214
  922SOL    HW2 2772   0.357   2.383   3.054
  923SOL     OW 2773   0.812   3.448   2.549
  923SOL    HW1 2774   0.844   3.458   2.455
  923SOL    HW2 2775   0.733   3.386   2.551
  924SOL     OW 2776   1.424   2.076   2.974
  924SOL    HW1 2777   1.476   2.011   3.029
  924SOL    HW2 2778   1.375   2.139   3.035
  925SOL     OW 2779   1.001   1.896   3.016
  925SOL    HW1 2780   0.938   1.824   2.985
  925SOL    HW2 2781   1.094   1.860   3.016
  926SOL     OW 2782   0.770   3.192   2.163
  926SOL    HW1 2783   0.724   3.105   2.180
  926SOL    HW2 2784   0.861   3.189   2.204
  927SOL     OW 2785   0.618   3.429   3.146
  927SOL    HW1 2786   0.613   3.511   3.203
  927SOL    HW2 2787   0.707   3.426   3.101
  928SOL     OW 2788   1.352   1.914   2.030
  928SOL    HW1 2789   1.387   1.873   1.946
  928SOL    HW2 2790   1.262   1.876   2.050
  929SOL     OW 2791   1.300   2.315   2.553
  929SOL    HW1 2792   1.241   2.395   2.557
  929SOL    HW2 2793   1.315   2.280   2.646
  930SOL     OW 2794   1.593   2.083   2.744
  930SOL    HW1 2795   1.509   2.082   2.798
  930SOL    HW2 2796   1.595   2.166   2.688
  931SOL     OW 2797   0.039   2.939   2.162
  931SOL    HW1 2798   0.138   2.928   2.153
  931SOL    HW2 2799  -0.001   2.853   2.194
  932SOL     OW 2800   0.875   3.508   2.199
  932SOL    HW1 2801   0.798   3.473   2.145
  932SOL    HW2 2802   0.843   3.579   2.261
  933SOL     OW 2803   0.230   2.490   3.837
  933SOL    HW1 2804   0.137   2.488   3.874
  933SOL    HW2 2805   0.231   2.451   3.745
  934SOL     OW 2806   1.755   2.469   3.955
  934SOL    HW1 2807   1.743   2.456   3.856
  934SOL    HW2 2808   1.725   2.388   4.004
  935SOL     OW 2809   1.603   2.309   4.461
  935SOL    HW1 2810   1.529   2.355   4.411
  935SOL    HW2 2811   1.654   2.377   4.514
  936SOL     OW 2812   0.231   3.575   4.207
  936SOL    HW1 2813   0.265   3.652   4.261
  936SOL    HW2 2814   0.275   3.575   4.117
  937SOL     OW 2815   0.230   3.296   4.262
  937SOL    HW1 2816   0.204   3.392   4.262
  937SOL    HW2 2817   0.159   3.242   4.307
  938SOL     OW 2818   0.606   2.826   3.847
  938SOL    HW1 2819   0.613   2.910   3.793
  938SOL    HW2 2820   0.652   2.839   3.935
  939SOL     OW 2821   0.122   2.505   4.287
  939SOL    HW1 2822   0.077   2.417   4.304
  939SOL    HW2 2823   0.121   2.559   4.371
  940SOL     OW 2824   1.842   3.629   4.083
  940SOL    HW1 2825   1.896   3.600   4.163
  940SOL    HW2 2826   1.872   3.719   4.054
  941SOL     OW 2827   0.027   3.458   3.841
  941SOL    HW1 2828   0.008   3.362   3.862
  941SOL    HW2 2829  -0.006   3.516   3.916
  942SOL     OW 2830   1.689   2.784   4.336
  942SOL    HW1 2831   1.784   2.755   4.344
  942SOL    HW2 2832   1.681   2.849   4.261
  943SOL     OW 2833   1.641   2.970   4.156
  943SOL    HW1 2834   1.727   2.972   4.104
  943SOL    HW2 2835   1.655   3.017   4.244
  944SOL     OW 2836   0.613   3.227   4.450
  944SOL    HW1 2837   0.564   3.140   4.459
  944SOL    HW2 2838   0.590   3.270   4.363
  945SOL     OW 2839   0.809   1.866   4.226
  945SOL    HW1 2840   0.849   1.957   4.217
  945SOL    HW2 2841   0.709   1.874   4.232
  946SOL     OW 2842   1.525   2.861   3.914
  946SOL    HW1 2843   1.462   2.785   3.927
  946SOL    HW2 2844   1.573   2.879   4.000
  947SOL     OW 2845   1.466   3.279   4.677
  947SOL    HW1 2846   1.407   3.285   4.757
  947SOL    HW2 2847   1.451   3.191   4.631
  948SOL     OW 2848   0.598   2.591   3.994
  948SOL    HW1 2849   0.622   2.660   3.926
  948SOL    HW2 2850   0.520   2.624   4.048
  949SOL     OW 2851   1.281   2.207   4.668
  949SOL    HW1 2852   1.195   2.157   4.655
  949SOL    HW2 2853   1.343   2.153   4.724
  950SOL     OW 2854   1.576   3.524   4.031
  950SOL    HW1 2855   1.665   3.570   4.034
  950SOL    HW2 2856   1.555   3.500   3.936
  951SOL     OW 2857   1.041   2.563   4.153
  951SOL    HW1 2858   1.067   2.559   4.249
  951SOL    HW2 2859   0.956   2.512   4.139
  952SOL     OW 2860   0.076   2.673   4.513
  952SOL    HW1 2861   0.175   2.661   4.522
  952SOL    HW2 2862   0.052   2.768   4.534
  953SOL     OW 2863   0.865   2.210   3.919
  953SOL    HW1 2864   0.924   2.273   3.870
  953SOL    HW2 2865   0.884   2.116   3.890
  954SOL     OW 2866   1.362   3.006   4.269
  954SOL    HW1 2867   1.445   2.977   4.221
  954SOL    HW2 2868   1.313   3.073   4.213
  955SOL     OW 2869   1.008   3.318   4.201
  955SOL    HW1 2870   0.962   3.390   4.149
  955SOL    HW2 2871   1.004   3.338   4.299
  956SOL     OW 2872   0.351   3.663   4.577
  956SOL    HW1 2873   0.401   3.577   4.583
  956SOL    HW2 2874   0.416   3.740   4.574
  957SOL     OW 2875   1.795   2.928   4.597
  957SOL    HW1 2876   1.733   2.913   4.521
  957SOL    HW2 2877   1.743   2.939   4.682
  958SOL     OW 2878   0.321   2.805   3.966
  958SOL    HW1 2879   0.403   2.844   3.924
  958SOL    HW2 2880   0.294   2.723   3.917
  959SOL     OW 2881   1.111   3.638   3.961
  959SOL    HW1 2882   1.051   3.576   4.011
  959SOL    HW2 2883   1.142   3.594   3.876
  960SOL     OW 2884   1.632   3.239   3.805
  960SOL    HW1 2885   1.600   3.333   3.795
  960SOL    HW2 2886   1.556   3.176   3.793
  961SOL     OW 2887   0.464   3.605   4.047
  961SOL    HW1 2888   0.497   3.644   4.133
  961SOL    HW2 2889   0.540   3.598   3.982
  962SOL     OW 2890   1.400   1.969   4.150
  962SOL    HW1 2891   1.376   1.932   4.060
  962SOL    HW2 2892   1.499   1.985   4.154
  963SOL     OW 2893   0.382   2.562   4.204
  963SOL    HW1 2894   0.427   2.472   4.201
  963SOL    HW2 2895   0.288   2.551   4.237
  964SOL     OW 2896   0.614   1.984   3.841
  964SOL    HW1 2897   0.712   1.962   3.848
  964SOL    HW2 2898   0.583   1.967   3.748
  965SOL     OW 2899   0.539   1.926   4.236
  965SOL    HW1 2900   0.458   1.927   4.294
  965SOL    HW2 2901   0.542   2.009   4.181
  966SOL     OW 2902   1.434   3.050   3.765
  966SOL    HW1 2903   1.466   2.974   3.822
  966SOL    HW2 2904   1.342   3.077   3.795
  967SOL     OW 2905   0.297   1.897   3.895
  967SOL    HW1 2906   0.346   1.981   3.874
  967SOL    HW2 2907   0.359   1.832   3.940
  968SOL     OW 2908   0.935   2.098   4.204
  968SOL    HW1 2909   0.887   2.139   4.126
  968SOL    HW2 2910   1.034   2.096   4.185
  969SOL     OW 2911   0.459   3.014   4.465
  969SOL    HW1 2912   0.388   2.987   4.530
  969SOL    HW2 2913   0.433   2.986   4.372
  970SOL     OW 2914   1.271   3.659   4.315
  970SOL    HW1 2915   1.315   3.723   4.251
  970SOL    HW2 2916   1.221   3.711   4.385
  971SOL     OW 2917   1.032   2.411   3.740
  971SOL    HW1 2918   0.991   2.493   3.701
  971SOL    HW2 2919   1.096   2.437   3.813
  972SOL     OW 2920   0.866   2.316   4.366
  972SOL    HW1 2921   0.834   2.388   4.304
  972SOL    HW2 2922   0.890   2.235   4.313
  973SOL     OW 2923   1.466   2.452   4.716
  973SOL    HW1 2924   1.436   2.357   4.723
  973SOL    HW2 2925   1.539   2.468   4.782
  974SOL     OW 2926   1.857   2.695   4.101
  974SOL    HW1 2927   1.899   2.631   4.165
  974SOL    HW2 2928   1.819   2.644   4.023
  975SOL     OW 2929   0.488   3.247   3.898
  975SOL    HW1 2930   0.401   3.232   3.945
  975SOL    HW2 2931   0.471   3.273   3.803
  976SOL     OW 2932   1.390   2.437   3.802
  976SOL    HW1 2933   1.336   2.416   3.883
  976SOL    HW2 2934   1.481   2.396   3.811
  977SOL     OW 2935   0.527   2.118   4.052
  977SOL    HW1 2936   0.554   2.059   3.977
  977SOL    HW2 2937   0.527   2.213   4.021
  978SOL     OW 2938   0.705   2.912   4.092
  978SOL    HW1 2939   0.691   2.919   4.191
  978SOL    HW2 2940   0.789   2.861   4.074
  979SOL     OW 2941   0.367   2.962   4.225
  979SOL    HW1 2942   0.360   3.045   4.169
  979SOL    HW2 2943   0.371   2.882   4.165
  980SOL     OW 2944   1.252   3.210   4.112
  980SOL    HW1 2945   1.302   3.287   4.152
  980SOL    HW2 2946   1.157   3.212   4.144
  981SOL     OW 2947   1.582   2.501   4.196
  981SOL    HW1 2948   1.551   2.562   4.269
  981SOL    HW2 2949   1.632   2.553   4.127
  982SOL     OW 2950   1.209   2.387   3.999
  982SOL    HW1 2951   1.222   2.303   4.053
  982SOL    HW2 2952   1.180   2.461   4.059
  983SOL     OW 2953   0.307   1.925   4.342
  983SOL    HW1 2954   0.296   2.019   4.375
  983SOL    HW2 2955   0.302   1.862   4.419
  984SOL     OW 2956   1.622   2.229   4.098
  984SOL    HW1 2957   1.624   2.153   4.162
  984SOL    HW2 2958   1.574   2.306   4.138
  985SOL     OW 2959   1.540   2.136   3.849
  985SOL    HW1 2960   1.479   2.061   3.872
  985SOL    HW2 2961   1.562   2.188   3.932
  986SOL     OW 2962   1.303   2.700   3.766
  986SOL    HW1 2963   1.337   2.607   3.781
  986SOL    HW2 2964   1.321   2.727   3.671
  987SOL     OW 2965   0.008   3.188   3.924
  987SOL    HW1 2966  -0.085   3.209   3.893
  987SOL    HW2 2967   0.018   3.089   3.937
  988SOL     OW 2968   0.815   2.434   4.049
  988SOL    HW1 2969   0.822   2.345   4.003
  988SOL    HW2 2970   0.721   2.468   4.041
  989SOL     OW 2971   0.473   2.362   3.915
  989SOL    HW1 2972   0.534   2.442   3.919
  989SOL    HW2 2973   0.378   2.393   3.922
  990SOL     OW 2974   1.302   2.717   4.033
  990SOL    HW1 2975   1.216   2.686   4.075
  990SOL    HW2 2976   1.298   2.703   3.934
  991SOL     OW 2977   1.726   1.997   4.247
  991SOL    HW1 2978   1.799   1.980   4.180
  991SOL    HW2 2979   1.695   1.910   4.285
  992SOL     OW 2980   1.388   3.435   4.201
  992SOL    HW1 2981   1.455   3.447   4.127
  992SOL    HW2 2982   1.348   3.524   4.224
  993SOL     OW 2983   0.672   3.478   3.878
  993SOL    HW1 2984   0.681   3.488   3.779
  993SOL    HW2 2985   0.632   3.389   3.899
  994SOL     OW 2986   1.841   2.037   4.687
  994SOL    HW1 2987   1.880   1.952   4.651
  994SOL    HW2 2988   1.743   2.039   4.668
  995SOL     OW 2989   1.194   3.474   3.755
  995SOL    HW1 2990   1.200   3.381   3.792
  995SOL    HW2 2991   1.135   3.474   3.675
  996SOL     OW 2992   0.916   2.772   4.015
  996SOL    HW1 2993   0.979   2.810   3.947
  996SOL    HW2 2994   0.956   2.689   4.054
  997SOL     OW 2995   1.504   3.469   3.768
  997SOL    HW1 2996   1.412   3.506   3.775
  997SOL    HW2 2997   1.542   3.489   3.678
  998SOL     OW 2998   0.590   3.349   4.215
  998SOL    HW1 2999   0.632   3.291   4.145
  998SOL    HW2 3000   0.546   3.428   4.171
  999SOL     OW 3001   0.255   3.210   4.014
  999SOL    HW1 3002   0.159   3.211   3.987
  999SOL    HW2 3003   0.267   3.263   4.098
 1000SOL     OW 3004   0.075   2.207   3.757
 1000SOL    HW1 3005  -0.017   2.179   3.728
 1000SOL    HW2 3006   0.106   2.284   3.701
 1001SOL     OW 3007   0.072   2.028   4.042
 1001SOL    HW1 3008   0.055   2.111   3.988
 1001SOL    HW2 3009   0.162   1.991   4.020
 1002SOL     OW 3010   1.183   3.197   3.843
 1002SOL    HW1 3011   1.084   3.186   3.845
 1002SOL    HW2 3012   1.217   3.212   3.936
 1003SOL     OW 3013   1.225   2.187   4.173
 1003SOL    HW1 3014   1.290   2.113   4.162
 1003SOL    HW2 3015   1.245   2.237   4.257
 1004SOL     OW 3016   0.594   2.607   4.376
 1004SOL    HW1 3017   0.644   2.692   4.357
 1004SOL    HW2 3018   0.506   2.609   4.328
 1005SOL     OW 3019   0.859   3.236   3.740
 1005SOL    HW1 3020   0.813   3.251   3.828
 1005SOL    HW2 3021   0.903   3.321   3.710
 1006SOL     OW 3022   1.083   2.846   3.811
 1006SOL    HW1 3023   1.060   2.899   3.729
 1006SOL    HW2 3024   1.164   2.790   3.792
 1007SOL     OW 3025   0.079   3.102   4.377
 1007SOL    HW1 3026   0.078   3.055   4.465
 1007SOL    HW2 3027   0.161   3.074   4.326
 1008SOL     OW 3028   0.428   2.286   4.244
 1008SOL    HW1 3029   0.458   2.214   4.182
 1008SOL    HW2 3030   0.389   2.246   4.327
 1009SOL     OW 3031   0.812   3.448   4.411
 1009SOL    HW1 3032   0.844   3.458   4.317
 1009SOL    HW2 3033   0.733   3.386   4.413
 1010SOL     OW 3034   0.770   3.192   4.025
 1010SOL    HW1 3035   0.724   3.105   4.042
 1010SOL    HW2 3036   0.861   3.189   4.066
 1011SOL     OW 3037   1.352   1.914   3.892
 1011SOL    HW1 3038   1.387   1.873   3.808
 1011SOL    HW2 3039   1.262   1.876   3.912
 1012SOL     OW 3040   1.300   2.315   4.415
 1012SOL    HW1 3041   1.241   2.395   4.419
 1012SOL    HW2 3042   1.315   2.280   4.508
 1013SOL     OW 3043   0.039   2.939   4.024
 1013SOL    HW1 3044   0.138   2.928   4.015
 1013SOL    HW2 3045  -0.001   2.853   4.056
 1014SOL     OW 3046   0.875   3.508   4.061
 1014SOL    HW1 3047   0.798   3.473   4.007
 1014SOL    HW2 3048   0.843   3.579   4.123
 1015SOL     OW 3049   0.225   3.999   0.996
 1015SOL    HW1 3050   0.260   3.982   1.088
 1015SOL    HW2 3051   0.137   3.954   0.984
 1016SOL     OW 3052   0.019   4.092   0.647
 1016SOL    HW1 3053  -0.063   4.135   0.686
 1016SOL    HW2 3054  -0.009   4.019   0.584
 1017SOL     OW 3055   1.755   4.331   0.231
 1017SOL    HW1 3056   1.743   4.318   0.132
 1017SOL    HW2 3057   1.725   4.250   0.280
 1018SOL     OW 3058   0.438   4.116   1.499
 1018SOL    HW1 3059   0.520   4.060   1.508
 1018SOL    HW2 3060   0.357   4.058   1.503
 1019SOL     OW 3061   1.603   4.171   0.737
 1019SOL    HW1 3062   1.529   4.217   0.687
 1019SOL    HW2 3063   1.654   4.239   0.790
 1020SOL     OW 3064   1.594   3.838   1.480
 1020SOL    HW1 3065   1.576   3.905   1.408
 1020SOL    HW2 3066   1.591   3.884   1.569
 1021SOL     OW 3067   0.122   4.367   0.563
 1021SOL    HW1 3068   0.077   4.279   0.580
 1021SOL    HW2 3069   0.121   4.421   0.647
 1022SOL     OW 3070   0.113   4.461   1.597
 1022SOL    HW1 3071   0.201   4.448   1.642
 1022SOL    HW2 3072   0.100   4.558   1.575
 1023SOL     OW 3073   0.809   3.728   0.502
 1023SOL    HW1 3074   0.849   3.819   0.493
 1023SOL    HW2 3075   0.709   3.736   0.508
 1024SOL     OW 3076   0.317   3.975   1.801
 1024SOL    HW1 3077   0.388   4.046   1.807
 1024SOL    HW2 3078   0.229   4.014   1.829
 1025SOL     OW 3079   1.281   4.069   0.944
 1025SOL    HW1 3080   1.195   4.019   0.931
 1025SOL    HW2 3081   1.343   4.015   1.000
 1026SOL     OW 3082   0.807   4.329   1.465
 1026SOL    HW1 3083   0.760   4.326   1.554
 1026SOL    HW2 3084   0.756   4.274   1.399
 1027SOL     OW 3085   1.394   4.193   1.674
 1027SOL    HW1 3086   1.374   4.236   1.762
 1027SOL    HW2 3087   1.472   4.131   1.683
 1028SOL     OW 3088   0.991   4.134   1.242
 1028SOL    HW1 3089   0.914   4.168   1.296
 1028SOL    HW2 3090   0.957   4.083   1.163
 1029SOL     OW 3091   1.041   4.425   0.429
 1029SOL    HW1 3092   1.067   4.421   0.525
 1029SOL    HW2 3093   0.956   4.374   0.415
 1030SOL     OW 3094   0.076   4.535   0.789
 1030SOL    HW1 3095   0.175   4.523   0.798
 1030SOL    HW2 3096   0.052   4.630   0.810
 1031SOL     OW 3097   0.865   4.072   0.195
 1031SOL    HW1 3098   0.924   4.135   0.146
 1031SOL    HW2 3099   0.884   3.978   0.166
 1032SOL     OW 3100   1.719   4.309   1.831
 1032SOL    HW1 3101   1.693   4.398   1.795
 1032SOL    HW2 3102   1.717   4.241   1.758
 1033SOL     OW 3103   0.550   3.920   0.885
 1033SOL    HW1 3104   0.545   3.915   0.985
 1033SOL    HW2 3105   0.552   4.016   0.856
 1034SOL     OW 3106   1.458   4.459   0.728
 1034SOL    HW1 3107   1.453   4.394   0.803
 1034SOL    HW2 3108   1.538   4.518   0.741
 1035SOL     OW 3109   0.202   4.009   1.498
 1035SOL    HW1 3110   0.122   4.069   1.485
 1035SOL    HW2 3111   0.192   3.960   1.584
 1036SOL     OW 3112   1.400   3.831   0.426
 1036SOL    HW1 3113   1.376   3.794   0.336
 1036SOL    HW2 3114   1.499   3.847   0.430
 1037SOL     OW 3115   1.547   3.946   1.729
 1037SOL    HW1 3116   1.542   3.983   1.821
 1037SOL    HW2 3117   1.475   3.877   1.717
 1038SOL     OW 3118   0.614   3.846   0.117
 1038SOL    HW1 3119   0.712   3.824   0.124
 1038SOL    HW2 3120   0.583   3.829   0.024
 1039SOL     OW 3121   0.781   3.988   1.749
 1039SOL    HW1 3122   0.848   3.927   1.792
 1039SOL    HW2 3123   0.708   4.007   1.814
 1040SOL     OW 3124   1.351   4.314   1.433
 1040SOL    HW1 3125   1.379   4.271   1.518
 1040SOL    HW2 3126   1.376   4.410   1.434
 1041SOL     OW 3127   0.922   4.227   0.899
 1041SOL    HW1 3128   0.897   4.218   0.803
 1041SOL    HW2 3129   0.970   4.145   0.930
 1042SOL     OW 3130   0.539   3.788   0.512
 1042SOL    HW1 3131   0.458   3.789   0.570
 1042SOL    HW2 3132   0.542   3.871   0.457
 1043SOL     OW 3133   0.935   3.960   0.480
 1043SOL    HW1 3134   0.887   4.001   0.402
 1043SOL    HW2 3135   1.034   3.958   0.461
 1044SOL     OW 3136   1.076   4.407   1.464
 1044SOL    HW1 3137   0.996   4.346   1.467
 1044SOL    HW2 3138   1.157   4.354   1.440
 1045SOL     OW 3139   1.032   4.273   0.016
 1045SOL    HW1 3140   0.991   4.355  -0.023
 1045SOL    HW2 3141   1.096   4.299   0.089
 1046SOL     OW 3142   0.078   4.280   1.386
 1046SOL    HW1 3143   0.170   4.279   1.345
 1046SOL    HW2 3144   0.072   4.354   1.453
 1047SOL     OW 3145   0.561   3.946   1.147
 1047SOL    HW1 3146   0.599   3.862   1.184
 1047SOL    HW2 3147   0.473   3.965   1.191
 1048SOL     OW 3148   0.866   4.178   0.642
 1048SOL    HW1 3149   0.834   4.250   0.580
 1048SOL    HW2 3150   0.890   4.097   0.589
 1049SOL     OW 3151   1.017   3.763   0.753
 1049SOL    HW1 3152   0.945   3.768   0.684
 1049SOL    HW2 3153   0.993   3.694   0.822
 1050SOL     OW 3154   1.466   4.314   0.992
 1050SOL    HW1 3155   1.436   4.219   0.999
 1050SOL    HW2 3156   1.539   4.330   1.058
 1051SOL     OW 3157   1.390   4.299   0.078
 1051SOL    HW1 3158   1.336   4.278   0.159
 1051SOL    HW2 3159   1.481   4.258   0.087
 1052SOL     OW 3160   0.527   3.980   0.328
 1052SOL    HW1 3161   0.554   3.921   0.253
 1052SOL    HW2 3162   0.527   4.075   0.297
 1053SOL     OW 3163   0.915   3.813   1.402
 1053SOL    HW1 3164   0.940   3.793   1.307
 1053SOL    HW2 3165   0.987   3.869   1.444
 1054SOL     OW 3166   1.274   4.110   1.262
 1054SOL    HW1 3167   1.295   4.184   1.326
 1054SOL    HW2 3168   1.185   4.127   1.219
 1055SOL     OW 3169   0.566   4.261   0.865
 1055SOL    HW1 3170   0.578   4.327   0.791
 1055SOL    HW2 3171   0.612   4.295   0.948
 1056SOL     OW 3172   1.582   4.363   0.472
 1056SOL    HW1 3173   1.551   4.424   0.545
 1056SOL    HW2 3174   1.632   4.415   0.403
 1057SOL     OW 3175   1.013   3.829   1.770
 1057SOL    HW1 3176   1.019   3.914   1.718
 1057SOL    HW2 3177   1.045   3.753   1.713
 1058SOL     OW 3178   0.504   3.774   1.740
 1058SOL    HW1 3179   0.462   3.717   1.670
 1058SOL    HW2 3180   0.438   3.843   1.772
 1059SOL     OW 3181   1.209   4.249   0.275
 1059SOL    HW1 3182   1.222   4.165   0.329
 1059SOL    HW2 3183   1.180   4.323   0.335
 1060SOL     OW 3184   0.307   3.937   1.231
 1060SOL    HW1 3185   0.284   3.974   1.321
 1060SOL    HW2 3186   0.277   3.842   1.225
 1061SOL     OW 3187   0.732   4.358   1.064
 1061SOL    HW1 3188   0.791   4.332   0.988
 1061SOL    HW2 3189   0.704   4.454   1.053
 1062SOL     OW 3190   0.307   3.787   0.618
 1062SOL    HW1 3191   0.296   3.881   0.651
 1062SOL    HW2 3192   0.302   3.724   0.695
 1063SOL     OW 3193   1.622   4.091   0.374
 1063SOL    HW1 3194   1.624   4.015   0.438
 1063SOL    HW2 3195   1.574   4.168   0.414
 1064SOL     OW 3196   1.540   3.998   0.125
 1064SOL    HW1 3197   1.479   3.923   0.148
 1064SOL    HW2 3198   1.562   4.050   0.208
 1065SOL     OW 3199   0.319   4.534   0.949
 1065SOL    HW1 3200   0.412   4.570   0.954
 1065SOL    HW2 3201   0.313   4.449   1.001
 1066SOL     OW 3202   0.339   4.233   1.006
 1066SOL    HW1 3203   0.287   4.150   0.989
 1066SOL    HW2 3204   0.416   4.238   0.942
 1067SOL     OW 3205   1.138   4.104   1.678
 1067SOL    HW1 3206   1.093   4.167   1.742
 1067SOL    HW2 3207   1.231   4.135   1.661
 1068SOL     OW 3208   1.160   3.931   1.477
 1068SOL    HW1 3209   1.160   3.995   1.554
 1068SOL    HW2 3210   1.188   3.979   1.394
 1069SOL     OW 3211   0.040   4.268   1.114
 1069SOL    HW1 3212   0.125   4.235   1.073
 1069SOL    HW2 3213   0.053   4.283   1.212
 1070SOL     OW 3214   0.189   4.244   1.722
 1070SOL    HW1 3215   0.248   4.204   1.652
 1070SOL    HW2 3216   0.131   4.315   1.681
 1071SOL     OW 3217   0.815   4.296   0.325
 1071SOL    HW1 3218   0.822   4.207   0.279
 1071SOL    HW2 3219   0.721   4.330   0.317
 1072SOL     OW 3220   1.657   4.328   1.206
 1072SOL    HW1 3221   1.619   4.259   1.268
 1072SOL    HW2 3222   1.739   4.292   1.162
 1073SOL     OW 3223   0.671   4.188   1.269
 1073SOL    HW1 3224   0.637   4.099   1.239
 1073SOL    HW2 3225   0.697   4.242   1.189
 1074SOL     OW 3226   0.473   4.224   0.191
 1074SOL    HW1 3227   0.534   4.304   0.195
 1074SOL    HW2 3228   0.378   4.255   0.198
 1075SOL     OW 3229   0.903   3.810   0.133
 1075SOL    HW1 3230   0.954   3.811   0.047
 1075SOL    HW2 3231   0.959   3.768   0.204
 1076SOL     OW 3232   1.726   3.859   0.523
 1076SOL    HW1 3233   1.799   3.842   0.456
 1076SOL    HW2 3234   1.695   3.772   0.561
 1077SOL     OW 3235   1.280   4.651   0.672
 1077SOL    HW1 3236   1.340   4.570   0.674
 1077SOL    HW2 3237   1.320   4.720   0.612
 1078SOL     OW 3238   1.841   3.899   0.963
 1078SOL    HW1 3239   1.880   3.814   0.927
 1078SOL    HW2 3240   1.743   3.901   0.944
 1079SOL     OW 3241   0.263   4.050   0.720
 1079SOL    HW1 3242   0.184   4.101   0.686
 1079SOL    HW2 3243   0.254   4.035   0.818
 1080SOL     OW 3244   1.014   3.960   0.971
 1080SOL    HW1 3245   1.006   3.924   0.878
 1080SOL    HW2 3246   1.012   3.884   1.036
 1081SOL     OW 3247   1.709   4.109   1.381
 1081SOL    HW1 3248   1.782   4.178   1.385
 1081SOL    HW2 3249   1.737   4.034   1.322
 1082SOL     OW 3250   0.672   3.927   1.489
 1082SOL    HW1 3251   0.762   3.911   1.449
 1082SOL    HW2 3252   0.680   3.932   1.588
 1083SOL     OW 3253   0.075   4.069   0.033
 1083SOL    HW1 3254  -0.017   4.041   0.004
 1083SOL    HW2 3255   0.106   4.146  -0.023
 1084SOL     OW 3256   0.072   3.890   0.318
 1084SOL    HW1 3257   0.055   3.973   0.264
 1084SOL    HW2 3258   0.162   3.853   0.296
 1085SOL     OW 3259   0.716   4.289   1.708
 1085SOL    HW1 3260   0.735   4.354   1.782
 1085SOL    HW2 3261   0.776   4.209   1.717
 1086SOL     OW 3262   1.225   4.049   0.449
 1086SOL    HW1 3263   1.290   3.975   0.438
 1086SOL    HW2 3264   1.245   4.099   0.533
 1087SOL     OW 3265   1.777   4.066   1.642
 1087SOL    HW1 3266   1.760   4.097   1.548
 1087SOL    HW2 3267   1.693   4.029   1.680
 1088SOL     OW 3268   1.083   4.708   0.087
 1088SOL    HW1 3269   1.060   4.761   0.005
 1088SOL    HW2 3270   1.164   4.652   0.068
 1089SOL     OW 3271   1.824   3.916   1.227
 1089SOL    HW1 3272   1.820   3.826   1.271
 1089SOL    HW2 3273   1.827   3.905   1.128
 1090SOL     OW 3274   0.428   4.148   0.520
 1090SOL    HW1 3275   0.458   4.076   0.458
 1090SOL    HW2 3276   0.389   4.108   0.603
 1091SOL     OW 3277   0.317   4.271   1.280
 1091SOL    HW1 3278   0.355   4.212   1.352
 1091SOL    HW2 3279   0.357   4.245   1.192
 1092SOL     OW 3280   1.424   3.938   1.112
 1092SOL    HW1 3281   1.476   3.873   1.167
 1092SOL    HW2 3282   1.375   4.001   1.173
 1093SOL     OW 3283   1.001   3.758   1.154
 1093SOL    HW1 3284   0.938   3.686   1.123
 1093SOL    HW2 3285   1.094   3.722   1.154
 1094SOL     OW 3286   1.352   3.776   0.168
 1094SOL    HW1 3287   1.387   3.735   0.084
 1094SOL    HW2 3288   1.262   3.738   0.188
 1095SOL     OW 3289   1.300   4.177   0.691
 1095SOL    HW1 3290   1.241   4.257   0.695
 1095SOL    HW2 3291   1.315   4.142   0.784
 1096SOL     OW 3292   1.593   3.945   0.882
 1096SOL    HW1 3293   1.509   3.944   0.936
 1096SOL    HW2 3294   1.595   4.028   0.826
 1097SOL     OW 3295   0.225   3.999   2.858
 1097SOL    HW1 3296   0.260   3.982   2.950
 1097SOL    HW2 3297   0.137   3.954   2.846
 1098SOL     OW 3298   0.019   4.092   2.509
 1098SOL    HW1 3299  -0.063   4.135   2.548
 1098SOL    HW2 3300  -0.009   4.019   2.446
 1099SOL     OW 3301   1.755   4.331   2.093
 1099SOL    HW1 3302   1.743   4.318   1.994
 1099SOL    HW2 3303   1.725   4.250   2.142
 1100SOL     OW 3304   0.438   4.116   3.361
 1100SOL    HW1 3305   0.520   4.060   3.370
 1100SOL    HW2 3306   0.357   4.058   3.365
 1101SOL     OW 3307   1.603   4.171   2.599
 1101SOL    HW1 3308   1.529   4.217   2.549
 1101SOL    HW2 3309   1.654   4.239   2.652
 1102SOL     OW 3310   1.594   3.838   3.342
 1102SOL    HW1 3311   1.576   3.905   3.270
 1102SOL    HW2 3312   1.591   3.884   3.431
 1103SOL     OW 3313   0.122   4.367   2.425
 1103SOL    HW1 3314   0.077   4.279   2.442
 1103SOL    HW2 3315   0.121   4.421   2.509
 1104SOL     OW 3316   0.113   4.461   3.459
 1104SOL    HW1 3317   0.201   4.448   3.504
 1104SOL    HW2 3318   0.100   4.558   3.437
 1105SOL     OW 3319   0.809   3.728   2.364
 1105SOL    HW1 3320   0.849   3.819   2.355
 1105SOL    HW2 3321   0.709   3.736   2.370
 1106SOL     OW 3322   0.317   3.975   3.663
 1106SOL    HW1 3323   0.388   4.046   3.669
 1106SOL    HW2 3324   0.229   4.014   3.691
 1107SOL     OW 3325   1.281   4.069   2.806
 1107SOL    HW1 3326   1.195   4.019   2.793
 1107SOL    HW2 3327   1.343   4.015   2.862
 1108SOL     OW 3328   0.807   4.329   3.327
 1108SOL    HW1 3329   0.760   4.326   3.416
 1108SOL    HW2 3330   0.756   4.274   3.261
 1109SOL     OW 3331   1.394   4.193   3.536
 1109SOL    HW1 3332   1.374   4.236   3.624
 1109SOL    HW2 3333   1.472   4.131   3.545
 1110SOL     OW 3334   0.991   4.134   3.104
 1110SOL    HW1 3335   0.914   4.168   3.158
 1110SOL    HW2 3336   0.957   4.083   3.025
 1111SOL     OW 3337   1.041   4.425   2.291
 1111SOL    HW1 3338   1.067   4.421   2.387
 1111SOL    HW2 3339   0.956   4.374   2.277
 1112SOL     OW 3340   0.076   4.535   2.651
 1112SOL    HW1 3341   0.175   4.523   2.660
 1112SOL    HW2 3342   0.052   4.630   2.672
 1113SOL     OW 3343   0.865   4.072   2.057
 1113SOL    HW1 3344   0.924   4.135   2.008
 1113SOL    HW2 3345   0.884   3.978   2.028
 1114SOL     OW 3346   1.719   4.309   3.693
 1114SOL    HW1 3347   1.693   4.398   3.657
 1114SOL    HW2 3348   1.717   4.241   3.620
 1115SOL     OW 3349   0.550   3.920   2.747
 1115SOL    HW1 3350   0.545   3.915   2.847
 1115SOL    HW2 3351   0.552   4.016   2.718
 1116SOL     OW 3352   1.458   4.459   2.590
 1116SOL    HW1 3353   1.453   4.394   2.665
 1116SOL    HW2 3354   1.538   4.518   2.603
 1117SOL     OW 3355   0.202   4.009   3.360
 1117SOL    HW1 3356   0.122   4.069   3.347
 1117SOL    HW2 3357   0.192   3.960   3.446
 1118SOL     OW 3358   1.400   3.831   2.288
 1118SOL    HW1 3359   1.376   3.794   2.198
 1118SOL    HW2 3360   1.499   3.847   2.292
 1119SOL     OW 3361   1.547   3.946   3.591
 1119SOL    HW1 3362   1.542   3.983   3.683
 1119SOL    HW2 3363   1.475   3.877   3.579
 1120SOL     OW 3364   0.614   3.846   1.979
 1120SOL    HW1 3365   0.712   3.824   1.986
 1120SOL    HW2 3366   0.583   3.829   1.886
 1121SOL     OW 3367   0.781   3.988   3.611
 1121SOL    HW1 3368   0.848   3.927   3.654
 1121SOL    HW2 3369   0.708   4.007   3.676
 1122SOL     OW 3370   1.351   4.314   3.295
 1122SOL    HW1 3371   1.379   4.271   3.380
 1122SOL    HW2 3372   1.376   4.410   3.296
 1123SOL     OW 3373   0.922   4.227   2.761
 1123SOL    HW1 3374   0.897   4.218   2.665
 1123SOL    HW2 3375   0.970   4.145   2.792
 1124SOL     OW 3376   0.539   3.788   2.374
 1124SOL    HW1 3377   0.458   3.789   2.432
 1124SOL    HW2 3378   0.542   3.871   2.319
 1125SOL     OW 3379   0.297   3.759   2.033
 1125SOL    HW1 3380   0.346   3.843   2.012
 1125SOL    HW2 3381   0.359   3.694   2.078
 1126SOL     OW 3382   0.935   3.960   2.342
 1126SOL    HW1 3383   0.887   4.001   2.264
 1126SOL    HW2 3384   1.034   3.958   2.323
 1127SOL     OW 3385   1.076   4.407   3.326
 1127SOL    HW1 3386   0.996   4.346   3.329
 1127SOL    HW2 3387   1.157   4.354   3.302
 1128SOL     OW 3388   1.032   4.273   1.878
 1128SOL    HW1 3389   0.991   4.355   1.839
 1128SOL    HW2 3390   1.096   4.299   1.951
 1129SOL     OW 3391   0.078   4.280   3.248
 1129SOL    HW1 3392   0.170   4.279   3.207
 1129SOL    HW2 3393   0.072   4.354   3.315
 1130SOL     OW 3394   0.561   3.946   3.009
 1130SOL    HW1 3395   0.599   3.862   3.046
 1130SOL    HW2 3396   0.473   3.965   3.053
 1131SOL     OW 3397   0.866   4.178   2.504
 1131SOL    HW1 3398   0.834   4.250   2.442
 1131SOL    HW2 3399   0.890   4.097   2.451
 1132SOL     OW 3400   1.017   3.763   2.615
 1132SOL    HW1 3401   0.945   3.768   2.546
 1132SOL    HW2 3402   0.993   3.694   2.684
 1133SOL     OW 3403   1.466   4.314   2.854
 1133SOL    HW1 3404   1.436   4.219   2.861
 1133SOL    HW2 3405   1.539   4.330   2.920
 1134SOL     OW 3406   1.390   4.299   1.940
 1134SOL    HW1 3407   1.336   4.278   2.021
 1134SOL    HW2 3408   1.481   4.258   1.949
 1135SOL     OW 3409   0.527   3.980   2.190
 1135SOL    HW1 3410   0.554   3.921   2.115
 1135SOL    HW2 3411   0.527   4.075   2.159
 1136SOL     OW 3412   0.915   3.813   3.264
 1136SOL    HW1 3413   0.940   3.793   3.169
 1136SOL    HW2 3414   0.987   3.869   3.306
 1137SOL     OW 3415   1.274   4.110   3.124
 1137SOL    HW1 3416   1.295   4.184   3.188
 1137SOL    HW2 3417   1.185   4.127   3.081
 1138SOL     OW 3418   0.566   4.261   2.727
 1138SOL    HW1 3419   0.578   4.327   2.653
 1138SOL    HW2 3420   0.612   4.295   2.810
 1139SOL     OW 3421   1.582   4.363   2.334
 1139SOL    HW1 3422   1.551   4.424   2.407
 1139SOL    HW2 3423   1.632   4.415   2.265
 1140SOL     OW 3424   1.013   3.829   3.632
 1140SOL    HW1 3425   1.019   3.914   3.580
 1140SOL    HW2 3426   1.045   3.753   3.575
 1141SOL     OW 3427   0.504   3.774   3.602
 1141SOL    HW1 3428   0.462   3.717   3.532
 1141SOL    HW2 3429   0.438   3.843   3.634
 1142SOL     OW 3430   1.209   4.249   2.137
 1142SOL    HW1 3431   1.222   4.165   2.191
 1142SOL    HW2 3432   1.180   4.323   2.197
 1143SOL     OW 3433   0.307   3.937   3.093
 1143SOL    HW1 3434   0.284   3.974   3.183
 1143SOL    HW2 3435   0.277   3.842   3.087
 1144SOL     OW 3436   0.732   4.358   2.926
 1144SOL    HW1 3437   0.791   4.332   2.850
 1144SOL    HW2 3438   0.704   4.454   2.915
 1145SOL     OW 3439   0.307   3.787   2.480
 1145SOL    HW1 3440   0.296   3.881   2.513
 1145SOL    HW2 3441   0.302   3.724   2.557
 1146SOL     OW 3442   1.622   4.091   2.236
 1146SOL    HW1 3443   1.624   4.015   2.300
 1146SOL    HW2 3444   1.574   4.168   2.276
 1147SOL     OW 3445   1.540   3.998   1.987
 1147SOL    HW1 3446   1.479   3.923   2.010
 1147SOL    HW2 3447   1.562   4.050   2.070
 1148SOL     OW 3448   0.319   4.534   2.811
 1148SOL    HW1 3449   0.412   4.570   2.816
 1148SOL    HW2 3450   0.313   4.449   2.863
 1149SOL     OW 3451   0.339   4.233   2.868
 1149SOL    HW1 3452   0.287   4.150   2.851
 1149SOL    HW2 3453   0.416   4.238   2.804
 1150SOL     OW 3454   1.138   4.104   3.540
 1150SOL    HW1 3455   1.093   4.167   3.604
 1150SOL    HW2 3456   1.231   4.135   3.523
 1151SOL     OW 3457   1.160   3.931   3.339
 1151SOL    HW1 3458   1.160   3.995   3.416
 1151SOL    HW2 3459   1.188   3.979   3.256
 1152SOL     OW 3460   0.040   4.268   2.976
 1152SOL    HW1 3461   0.125   4.235   2.935
 1152SOL    HW2 3462   0.053   4.283   3.074
 1153SOL     OW 3463   0.189   4.244   3.584
 1153SOL    HW1 3464   0.248   4.204   3.514
 1153SOL    HW2 3465   0.131   4.315   3.543
 1154SOL     OW 3466   0.815   4.296   2.187
 1154SOL    HW1 3467   0.822   4.207   2.141
 1154SOL    HW2 3468   0.721   4.330   2.179
 1155SOL     OW 3469   1.657   4.328   3.068
 1155SOL    HW1 3470   1.619   4.259   3.130
 1155SOL    HW2 3471   1.739   4.292   3.024
 1156SOL     OW 3472   0.671   4.188   3.131
 1156SOL    HW1 3473   0.637   4.099   3.101
 1156SOL    HW2 3474   0.697   4.242   3.051
 1157SOL     OW 3475   0.473   4.224   2.053
 1157SOL    HW1 3476   0.534   4.304   2.057
 1157SOL    HW2 3477   0.378   4.255   2.060
 1158SOL     OW 3478   1.726   3.859   2.385
 1158SOL    HW1 3479   1.799   3.842   2.318
 1158SOL    HW2 3480   1.695   3.772   2.423
 1159SOL     OW 3481   1.280   4.651   2.534
 1159SOL    HW1 3482   1.340   4.570   2.536
 1159SOL    HW2 3483   1.320   4.720   2.474
 1160SOL     OW 3484   1.841   3.899   2.825
 1160SOL    HW1 3485   1.880   3.814   2.789
 1160SOL    HW2 3486   1.743   3.901   2.806
 1161SOL     OW 3487   0.263   4.050   2.582
 1161SOL    HW1 3488   0.184   4.101   2.548
 1161SOL    HW2 3489   0.254   4.035   2.680
 1162SOL     OW 3490   1.014   3.960   2.833
 1162SOL    HW1 3491   1.006   3.924   2.740
 1162SOL    HW2 3492   1.012   3.884   2.898
 1163SOL     OW 3493   1.709   4.109   3.243
 1163SOL    HW1 3494   1.782   4.178   3.247
 1163SOL    HW2 3495   1.737   4.034   3.184
 1164SOL     OW 3496   0.672   3.927   3.351
 1164SOL    HW1 3497   0.762   3.911   3.311
 1164SOL    HW2 3498   0.680   3.932   3.450
 1165SOL     OW 3499   0.075   4.069   1.895
 1165SOL    HW1 3500  -0.017   4.041   1.866
 1165SOL    HW2 3501   0.106   4.146   1.839
 1166SOL     OW 3502   0.072   3.890   2.180
 1166SOL    HW1 3503   0.055   3.973   2.126
 1166SOL    HW2 3504   0.162   3.853   2.158
 1167SOL     OW 3505   0.716   4.289   3.570
 1167SOL    HW1 3506   0.735   4.354   3.644
 1167SOL    HW2 3507   0.776   4.209   3.579
 1168SOL     OW 3508   1.225   4.049   2.311
 1168SOL    HW1 3509   1.290   3.975   2.300
 1168SOL    HW2 3510   1.245   4.099   2.395
 1169SOL     OW 3511   1.777   4.066   3.504
 1169SOL    HW1 3512   1.760   4.097   3.410
 1169SOL    HW2 3513   1.693   4.029   3.542
 1170SOL     OW 3514   1.083   4.708   1.949
 1170SOL    HW1 3515   1.060   4.761   1.867
 1170SOL    HW2 3516   1.164   4.652   1.930
 1171SOL     OW 3517   1.824   3.916   3.089
 1171SOL    HW1 3518   1.820   3.826   3.133
 1171SOL    HW2 3519   1.827   3.905   2.990
 1172SOL     OW 3520   0.428   4.148   2.382
 1172SOL    HW1 3521   0.458   4.076   2.320
 1172SOL    HW2 3522   0.389   4.108   2.465
 1173SOL     OW 3523   0.317   4.271   3.142
 1173SOL    HW1 3524   0.355   4.212   3.214
 1173SOL    HW2 3525   0.357   4.245   3.054
 1174SOL     OW 3526   1.424   3.938   2.974
 1174SOL    HW1 3527   1.476   3.873   3.029
 1174SOL    HW2 3528   1.375   4.001   3.035
 1175SOL     OW 3529   1.001   3.758   3.016
 1175SOL    HW1 3530   0.938   3.686   2.985
 1175SOL    HW2 3531   1.094   3.722   3.016
 1176SOL     OW 3532   1.352   3.776   2.030
 1176SOL    HW1 3533   1.387   3.735   1.946
 1176SOL    HW2 3534   1.262   3.738   2.050
 1177SOL     OW 3535   1.300   4.177   2.553
 1177SOL    HW1 3536   1.241   4.257   2.557
 1177SOL    HW2 3537   1.315   4.142   2.646
 1178SOL     OW 3538   1.593   3.945   2.744
 1178SOL    HW1 3539   1.509   3.944   2.798
 1178SOL    HW2 3540   1.595   4.028   2.688
 1179SOL     OW 3541   1.135   4.427   4.441
 1179SOL    HW1 3542   1.192   4.505   4.416
 1179SOL    HW2 3543   1.075   4.453   4.517
 1180SOL     OW 3544   1.755   4.331   3.955
 1180SOL    HW1 3545   1.743   4.318   3.856
 1180SOL    HW2 3546   1.725   4.250   4.004
 1181SOL     OW 3547   1.603   4.171   4.461
 1181SOL    HW1 3548   1.529   4.217   4.411
 1181SOL    HW2 3549   1.654   4.239   4.514
 1182SOL     OW 3550   0.122   4.367   4.287
 1182SOL    HW1 3551   0.077   4.279   4.304
 1182SOL    HW2 3552   0.121   4.421   4.371
 1183SOL     OW 3553   0.809   3.728   4.226
 1183SOL    HW1 3554   0.849   3.819   4.217
 1183SOL    HW2 3555   0.709   3.736   4.232
 1184SOL     OW 3556   1.281   4.069   4.668
 1184SOL    HW1 3557   1.195   4.019   4.655
 1184SOL    HW2 3558   1.343   4.015   4.724
 1185SOL     OW 3559   1.041   4.425   4.153
 1185SOL    HW1 3560   1.067   4.421   4.249
 1185SOL    HW2 3561   0.956   4.374   4.139
 1186SOL     OW 3562   0.076   4.535   4.513
 1186SOL    HW1 3563   0.175   4.523   4.522
 1186SOL    HW2 3564   0.052   4.630   4.534
 1187SOL     OW 3565   0.865   4.072   3.919
 1187SOL    HW1 3566   0.924   4.135   3.870
 1187SOL    HW2 3567   0.884   3.978   3.890
 1188SOL     OW 3568   1.400   3.831   4.150
 1188SOL    HW1 3569   1.376   3.794   4.060
 1188SOL    HW2 3570   1.499   3.847   4.154
 1189SOL     OW 3571   0.614   3.846   3.841
 1189SOL    HW1 3572   0.712   3.824   3.848
 1189SOL    HW2 3573   0.583   3.829   3.748
 1190SOL     OW 3574   0.539   3.788   4.236
 1190SOL    HW1 3575   0.458   3.789   4.294
 1190SOL    HW2 3576   0.542   3.871   4.181
 1191SOL     OW 3577   0.297   3.759   3.895
 1191SOL    HW1 3578   0.346   3.843   3.874
 1191SOL    HW2 3579   0.359   3.694   3.940
 1192SOL     OW 3580   0.935   3.960   4.204
 1192SOL    HW1 3581   0.887   4.001   4.126
 1192SOL    HW2 3582   1.034   3.958   4.185
 1193SOL     OW 3583   1.032   4.273   3.740
 1193SOL    HW1 3584   0.991   4.355   3.701
 1193SOL    HW2 3585   1.096   4.299   3.813
 1194SOL     OW 3586   0.866   4.178   4.366
 1194SOL    HW1 3587   0.834   4.250   4.304
 1194SOL    HW2 3588   0.890   4.097   4.313
 1195SOL     OW 3589   1.466   4.314   4.716
 1195SOL    HW1 3590   1.436   4.219   4.723
 1195SOL    HW2 3591   1.539   4.330   4.782
 1196SOL     OW 3592   1.390   4.299   3.802
 1196SOL    HW1 3593   1.336   4.278   3.883
 1196SOL    HW2 3594   1.481   4.258   3.811
 1197SOL     OW 3595   0.527   3.980   4.052
 1197SOL    HW1 3596   0.554   3.921   3.977
 1197SOL    HW2 3597   0.527   4.075   4.021
 1198SOL     OW 3598   1.582   4.363   4.196
 1198SOL    HW1 3599   1.551   4.424   4.269
 1198SOL    HW2 3600   1.632   4.415   4.127
 1199SOL     OW 3601   1.209   4.249   3.999
 1199SOL    HW1 3602   1.222   4.165   4.053
 1199SOL    HW2 3603   1.180   4.323   4.059
 1200SOL     OW 3604   0.307   3.787   4.342
 1200SOL    HW1 3605   0.296   3.881   4.375
 1200SOL    HW2 3606   0.302   3.724   4.419
 1201SOL     OW 3607   1.622   4.091   4.098
 1201SOL    HW1 3608   1.624   4.015   4.162
 1201SOL    HW2 3609   1.574   4.168   4.138
 1202SOL     OW 3610   1.540   3.998   3.849
 1202SOL    HW1 3611   1.479   3.923   3.872
 1202SOL    HW2 3612   1.562   4.050   3.932
 1203SOL     OW 3613   0.815   4.296   4.049
 1203SOL    HW1 3614   0.822   4.207   4.003
 1203SOL    HW2 3615   0.721   4.330   4.041
 1204SOL     OW 3616   0.473   4.224   3.915
 1204SOL    HW1 3617   0.534   4.304   3.919
 1204SOL    HW2 3618   0.378   4.255   3.922
 1205SOL     OW 3619   1.726   3.859   4.247
 1205SOL    HW1 3620   1.799   3.842   4.180
 1205SOL    HW2 3621   1.695   3.772   4.285
 1206SOL     OW 3622   1.280   4.651   4.396
 1206SOL    HW1 3623   1.340   4.570   4.398
 1206SOL    HW2 3624   1.320   4.720   4.336
 1207SOL     OW 3625   1.841   3.899   4.687
 1207SOL    HW1 3626   1.880   3.814   4.651
 1207SOL    HW2 3627   1.743   3.901   4.668
 1208SOL     OW 3628   0.075   4.069   3.757
 1208SOL    HW1 3629  -0.017   4.041   3.728
 1208SOL    HW2 3630   0.106   4.146   3.701
 1209SOL     OW 3631   0.072   3.890   4.042
 1209SOL    HW1 3632   0.055   3.973   3.988
 1209SOL    HW2 3633   0.162   3.853   4.020
 1210SOL     OW 3634   1.225   4.049   4.173
 1210SOL    HW1 3635   1.290   3.975   4.162
 1210SOL    HW2 3636   1.245   4.099   4.257
 1211SOL     OW 3637   1.083   4.708   3.811
 1211SOL    HW1 3638   1.060   4.761   3.729
 1211SOL    HW2 3639   1.164   4.652   3.792
 1212SOL     OW 3640   0.428   4.148   4.244
 1212SOL    HW1 3641   0.458   4.076   4.182
 1212SOL    HW2 3642   0.389   4.108   4.327
 1213SOL     OW 3643   1.352   3.776   3.892
 1213SOL    HW1 3644   1.387   3.735   3.808
 1213SOL    HW2 3645   1.262   3.738   3.912
 1214SOL     OW 3646   1.300   4.177   4.415
 1214SOL    HW1 3647   1.241   4.257   4.419
 1214SOL    HW2 3648   1.315   4.142   4.508
 1215SOL     OW 3649   2.092   0.628   0.113
 1215SOL    HW1 3650   1.999   0.626   0.150
 1215SOL    HW2 3651   2.093   0.589   0.021
 1216SOL     OW 3652   2.087   0.275   0.996
 1216SOL    HW1 3653   2.122   0.258   1.088
 1216SOL    HW2 3654   1.999   0.230   0.984
 1217SOL     OW 3655   1.881   0.368   0.647
 1217SOL    HW1 3656   1.799   0.411   0.686
 1217SOL    HW2 3657   1.853   0.295   0.584
 1218SOL     OW 3658   2.431   1.275   1.165
 1218SOL    HW1 3659   2.338   1.268   1.128
 1218SOL    HW2 3660   2.442   1.364   1.209
 1219SOL     OW 3661   3.417   1.511   0.703
 1219SOL    HW1 3662   3.360   1.495   0.784
 1219SOL    HW2 3663   3.358   1.521   0.623
 1220SOL     OW 3664   2.997   0.703   0.717
 1220SOL    HW1 3665   3.054   0.781   0.692
 1220SOL    HW2 3666   2.937   0.729   0.793
 1221SOL     OW 3667   3.617   0.607   0.231
 1221SOL    HW1 3668   3.605   0.594   0.132
 1221SOL    HW2 3669   3.587   0.526   0.280
 1222SOL     OW 3670   2.630   1.144   1.023
 1222SOL    HW1 3671   2.552   1.161   1.083
 1222SOL    HW2 3672   2.664   1.231   0.987
 1223SOL     OW 3673   2.712   0.798   1.823
 1223SOL    HW1 3674   2.708   0.874   1.888
 1223SOL    HW2 3675   2.734   0.834   1.732
 1224SOL     OW 3676   2.547   1.012   0.665
 1224SOL    HW1 3677   2.616   0.996   0.735
 1224SOL    HW2 3678   2.474   1.069   0.703
 1225SOL     OW 3679   2.548   1.161   1.803
 1225SOL    HW1 3680   2.608   1.240   1.817
 1225SOL    HW2 3681   2.462   1.192   1.762
 1226SOL     OW 3682   2.197   1.435   1.061
 1226SOL    HW1 3683   2.119   1.404   1.008
 1226SOL    HW2 3684   2.255   1.493   1.004
 1227SOL     OW 3685   3.322   1.505   1.339
 1227SOL    HW1 3686   3.346   1.599   1.365
 1227SOL    HW2 3687   3.306   1.451   1.421
 1228SOL     OW 3688   2.300   0.392   1.499
 1228SOL    HW1 3689   2.382   0.336   1.508
 1228SOL    HW2 3690   2.219   0.334   1.503
 1229SOL     OW 3691   3.465   0.447   0.737
 1229SOL    HW1 3692   3.391   0.493   0.687
 1229SOL    HW2 3693   3.516   0.515   0.790
 1230SOL     OW 3694   2.093   1.713   0.483
 1230SOL    HW1 3695   2.127   1.790   0.537
 1230SOL    HW2 3696   2.137   1.713   0.393
 1231SOL     OW 3697   2.989   1.341   1.690
 1231SOL    HW1 3698   3.036   1.341   1.778
 1231SOL    HW2 3699   2.941   1.254   1.679
 1232SOL     OW 3700   2.092   1.434   0.538
 1232SOL    HW1 3701   2.066   1.530   0.538
 1232SOL    HW2 3702   2.021   1.380   0.583
 1233SOL     OW 3703   2.102   1.091   0.886
 1233SOL    HW1 3704   2.116   1.007   0.938
 1233SOL    HW2 3705   2.047   1.155   0.941
 1234SOL     OW 3706   2.482   1.786   1.439
 1234SOL    HW1 3707   2.390   1.769   1.474
 1234SOL    HW2 3708   2.510   1.878   1.465
 1235SOL     OW 3709   2.468   0.964   0.123
 1235SOL    HW1 3710   2.475   1.048   0.069
 1235SOL    HW2 3711   2.514   0.977   0.211
 1236SOL     OW 3712   3.456   0.114   1.480
 1236SOL    HW1 3713   3.438   0.181   1.408
 1236SOL    HW2 3714   3.453   0.160   1.569
 1237SOL     OW 3715   1.984   0.643   0.563
 1237SOL    HW1 3716   1.939   0.555   0.580
 1237SOL    HW2 3717   1.983   0.697   0.647
 1238SOL     OW 3718   3.704   1.767   0.359
 1238SOL    HW1 3719   3.758   1.738   0.439
 1238SOL    HW2 3720   3.734   1.857   0.330
 1239SOL     OW 3721   1.889   1.596   0.117
 1239SOL    HW1 3722   1.870   1.500   0.138
 1239SOL    HW2 3723   1.856   1.654   0.192
 1240SOL     OW 3724   3.551   0.922   0.612
 1240SOL    HW1 3725   3.646   0.893   0.620
 1240SOL    HW2 3726   3.543   0.987   0.537
 1241SOL     OW 3727   3.503   1.108   0.432
 1241SOL    HW1 3728   3.589   1.110   0.380
 1241SOL    HW2 3729   3.517   1.155   0.520
 1242SOL     OW 3730   1.975   0.737   1.597
 1242SOL    HW1 3731   2.063   0.724   1.642
 1242SOL    HW2 3732   1.962   0.834   1.575
 1243SOL     OW 3733   2.475   1.365   0.726
 1243SOL    HW1 3734   2.426   1.278   0.735
 1243SOL    HW2 3735   2.452   1.408   0.639
 1244SOL     OW 3736   3.155   1.228   1.423
 1244SOL    HW1 3737   3.192   1.155   1.365
 1244SOL    HW2 3738   3.207   1.233   1.508
 1245SOL     OW 3739   2.671   0.004   0.502
 1245SOL    HW1 3740   2.711   0.095   0.493
 1245SOL    HW2 3741   2.571   0.012   0.508
 1246SOL     OW 3742   2.059   0.976   1.264
 1246SOL    HW1 3743   2.148   0.931   1.250
 1246SOL    HW2 3744   1.986   0.911   1.245
 1247SOL     OW 3745   3.387   0.999   0.190
 1247SOL    HW1 3746   3.324   0.923   0.203
 1247SOL    HW2 3747   3.435   1.017   0.276
 1248SOL     OW 3748   3.049   1.792   1.616
 1248SOL    HW1 3749   3.073   1.852   1.540
 1248SOL    HW2 3750   3.056   1.697   1.586
 1249SOL     OW 3751   2.179   0.251   1.801
 1249SOL    HW1 3752   2.250   0.322   1.807
 1249SOL    HW2 3753   2.091   0.290   1.829
 1250SOL     OW 3754   3.328   1.417   0.953
 1250SOL    HW1 3755   3.269   1.423   1.033
 1250SOL    HW2 3756   3.313   1.329   0.907
 1251SOL     OW 3757   3.529   1.714   0.572
 1251SOL    HW1 3758   3.488   1.691   0.484
 1251SOL    HW2 3759   3.511   1.640   0.637
 1252SOL     OW 3760   2.460   0.729   0.270
 1252SOL    HW1 3761   2.484   0.798   0.202
 1252SOL    HW2 3762   2.382   0.762   0.324
 1253SOL     OW 3763   3.143   0.345   0.944
 1253SOL    HW1 3764   3.057   0.295   0.931
 1253SOL    HW2 3765   3.205   0.291   1.000
 1254SOL     OW 3766   3.438   1.662   0.307
 1254SOL    HW1 3767   3.527   1.708   0.310
 1254SOL    HW2 3768   3.417   1.638   0.212
 1255SOL     OW 3769   2.669   0.605   1.465
 1255SOL    HW1 3770   2.622   0.602   1.554
 1255SOL    HW2 3771   2.618   0.550   1.399
 1256SOL     OW 3772   3.256   0.469   1.674
 1256SOL    HW1 3773   3.236   0.512   1.762
 1256SOL    HW2 3774   3.334   0.407   1.683
 1257SOL     OW 3775   2.835   0.890   1.572
 1257SOL    HW1 3776   2.881   0.806   1.543
 1257SOL    HW2 3777   2.779   0.924   1.497
 1258SOL     OW 3778   2.853   0.410   1.242
 1258SOL    HW1 3779   2.776   0.444   1.296
 1258SOL    HW2 3780   2.819   0.359   1.163
 1259SOL     OW 3781   2.903   0.701   0.429
 1259SOL    HW1 3782   2.929   0.697   0.525
 1259SOL    HW2 3783   2.818   0.650   0.415
 1260SOL     OW 3784   1.938   0.811   0.789
 1260SOL    HW1 3785   2.037   0.799   0.798
 1260SOL    HW2 3786   1.914   0.906   0.810
 1261SOL     OW 3787   1.992   1.821   1.571
 1261SOL    HW1 3788   1.982   1.806   1.670
 1261SOL    HW2 3789   1.906   1.857   1.535
 1262SOL     OW 3790   2.727   0.348   0.195
 1262SOL    HW1 3791   2.786   0.411   0.146
 1262SOL    HW2 3792   2.746   0.254   0.166
 1263SOL     OW 3793   3.581   0.585   1.831
 1263SOL    HW1 3794   3.555   0.674   1.795
 1263SOL    HW2 3795   3.579   0.517   1.758
 1264SOL     OW 3796   3.224   1.144   0.545
 1264SOL    HW1 3797   3.307   1.115   0.497
 1264SOL    HW2 3798   3.175   1.211   0.489
 1265SOL     OW 3799   2.412   0.196   0.885
 1265SOL    HW1 3800   2.407   0.191   0.985
 1265SOL    HW2 3801   2.414   0.292   0.856
 1266SOL     OW 3802   2.870   1.456   0.477
 1266SOL    HW1 3803   2.824   1.528   0.425
 1266SOL    HW2 3804   2.866   1.476   0.575
 1267SOL     OW 3805   2.213   1.801   0.853
 1267SOL    HW1 3806   2.263   1.715   0.859
 1267SOL    HW2 3807   2.278   1.878   0.850
 1268SOL     OW 3808   3.657   1.066   0.873
 1268SOL    HW1 3809   3.595   1.051   0.797
 1268SOL    HW2 3810   3.605   1.077   0.958
 1269SOL     OW 3811   3.089   1.550   1.506
 1269SOL    HW1 3812   3.095   1.473   1.570
 1269SOL    HW2 3813   3.037   1.524   1.426
 1270SOL     OW 3814   2.183   0.943   0.242
 1270SOL    HW1 3815   2.265   0.982   0.200
 1270SOL    HW2 3816   2.156   0.861   0.193
 1271SOL     OW 3817   3.320   0.735   0.728
 1271SOL    HW1 3818   3.315   0.670   0.803
 1271SOL    HW2 3819   3.400   0.794   0.741
 1272SOL     OW 3820   2.323   1.266   1.727
 1272SOL    HW1 3821   2.273   1.267   1.641
 1272SOL    HW2 3822   2.260   1.248   1.803
 1273SOL     OW 3823   2.973   1.776   0.237
 1273SOL    HW1 3824   2.913   1.714   0.287
 1273SOL    HW2 3825   3.004   1.732   0.152
 1274SOL     OW 3826   2.064   0.285   1.498
 1274SOL    HW1 3827   1.984   0.345   1.485
 1274SOL    HW2 3828   2.054   0.236   1.584
 1275SOL     OW 3829   3.494   1.377   0.081
 1275SOL    HW1 3830   3.462   1.471   0.071
 1275SOL    HW2 3831   3.418   1.314   0.069
 1276SOL     OW 3832   2.326   1.743   0.323
 1276SOL    HW1 3833   2.359   1.782   0.409
 1276SOL    HW2 3834   2.402   1.736   0.258
 1277SOL     OW 3835   3.262   0.107   0.426
 1277SOL    HW1 3836   3.238   0.070   0.336
 1277SOL    HW2 3837   3.361   0.123   0.430
 1278SOL     OW 3838   2.111   1.785   1.241
 1278SOL    HW1 3839   2.168   1.720   1.291
 1278SOL    HW2 3840   2.095   1.752   1.148
 1279SOL     OW 3841   2.802   1.698   0.904
 1279SOL    HW1 3842   2.882   1.641   0.925
 1279SOL    HW2 3843   2.753   1.658   0.827
 1280SOL     OW 3844   2.244   0.700   0.480
 1280SOL    HW1 3845   2.289   0.610   0.477
 1280SOL    HW2 3846   2.150   0.689   0.513
 1281SOL     OW 3847   3.409   0.222   1.729
 1281SOL    HW1 3848   3.404   0.259   1.821
 1281SOL    HW2 3849   3.337   0.153   1.717
 1282SOL     OW 3850   2.476   0.122   0.117
 1282SOL    HW1 3851   2.574   0.100   0.124
 1282SOL    HW2 3852   2.445   0.105   0.024
 1283SOL     OW 3853   2.643   0.264   1.749
 1283SOL    HW1 3854   2.710   0.203   1.792
 1283SOL    HW2 3855   2.570   0.283   1.814
 1284SOL     OW 3856   2.750   1.514   1.195
 1284SOL    HW1 3857   2.727   1.489   1.101
 1284SOL    HW2 3858   2.811   1.445   1.234
 1285SOL     OW 3859   3.213   0.590   1.433
 1285SOL    HW1 3860   3.241   0.547   1.518
 1285SOL    HW2 3861   3.238   0.686   1.434
 1286SOL     OW 3862   2.665   1.402   0.924
 1286SOL    HW1 3863   2.755   1.416   0.882
 1286SOL    HW2 3864   2.594   1.404   0.853
 1287SOL     OW 3865   2.784   0.503   0.899
 1287SOL    HW1 3866   2.759   0.494   0.803
 1287SOL    HW2 3867   2.832   0.421   0.930
 1288SOL     OW 3868   2.401   0.064   0.512
 1288SOL    HW1 3869   2.320   0.065   0.570
 1288SOL    HW2 3870   2.404   0.147   0.457
 1289SOL     OW 3871   3.296   1.188   0.041
 1289SOL    HW1 3872   3.328   1.112   0.098
 1289SOL    HW2 3873   3.204   1.215   0.071
 1290SOL     OW 3874   2.159   0.035   0.171
 1290SOL    HW1 3875   2.208   0.119   0.150
 1290SOL    HW2 3876   2.221  -0.030   0.216
 1291SOL     OW 3877   2.797   0.236   0.480
 1291SOL    HW1 3878   2.749   0.277   0.402
 1291SOL    HW2 3879   2.896   0.234   0.461
 1292SOL     OW 3880   2.938   0.683   1.464
 1292SOL    HW1 3881   2.858   0.622   1.467
 1292SOL    HW2 3882   3.019   0.630   1.440
 1293SOL     OW 3883   3.089   1.570   0.793
 1293SOL    HW1 3884   3.110   1.644   0.728
 1293SOL    HW2 3885   3.157   1.570   0.866
 1294SOL     OW 3886   2.321   1.152   0.741
 1294SOL    HW1 3887   2.250   1.125   0.806
 1294SOL    HW2 3888   2.295   1.124   0.648
 1295SOL     OW 3889   3.133   1.797   0.591
 1295SOL    HW1 3890   3.177   1.861   0.527
 1295SOL    HW2 3891   3.083   1.849   0.661
 1296SOL     OW 3892   2.894   0.549   0.016
 1296SOL    HW1 3893   2.853   0.631  -0.023
 1296SOL    HW2 3894   2.958   0.575   0.089
 1297SOL     OW 3895   1.940   0.556   1.386
 1297SOL    HW1 3896   2.032   0.555   1.345
 1297SOL    HW2 3897   1.934   0.630   1.453
 1298SOL     OW 3898   2.423   0.222   1.147
 1298SOL    HW1 3899   2.461   0.138   1.184
 1298SOL    HW2 3900   2.335   0.241   1.191
 1299SOL     OW 3901   2.728   0.454   0.642
 1299SOL    HW1 3902   2.696   0.526   0.580
 1299SOL    HW2 3903   2.752   0.373   0.589
 1300SOL     OW 3904   2.879   0.039   0.753
 1300SOL    HW1 3905   2.807   0.044   0.684
 1300SOL    HW2 3906   2.855  -0.030   0.822
 1301SOL     OW 3907   3.291   1.173   0.867
 1301SOL    HW1 3908   3.236   1.089   0.860
 1301SOL    HW2 3909   3.317   1.202   0.775
 1302SOL     OW 3910   3.328   0.590   0.992
 1302SOL    HW1 3911   3.298   0.495   0.999
 1302SOL    HW2 3912   3.401   0.606   1.058
 1303SOL     OW 3913   3.719   0.833   0.377
 1303SOL    HW1 3914   3.761   0.769   0.441
 1303SOL    HW2 3915   3.681   0.782   0.299
 1304SOL     OW 3916   2.350   1.385   0.174
 1304SOL    HW1 3917   2.263   1.370   0.221
 1304SOL    HW2 3918   2.333   1.411   0.079
 1305SOL     OW 3919   3.526   1.280   0.657
 1305SOL    HW1 3920   3.625   1.288   0.671
 1305SOL    HW2 3921   3.481   1.364   0.688
 1306SOL     OW 3922   3.252   0.575   0.078
 1306SOL    HW1 3923   3.198   0.554   0.159
 1306SOL    HW2 3924   3.343   0.534   0.087
 1307SOL     OW 3925   2.389   0.256   0.328
 1307SOL    HW1 3926   2.416   0.197   0.253
 1307SOL    HW2 3927   2.389   0.351   0.297
 1308SOL     OW 3928   3.616   1.223   1.588
 1308SOL    HW1 3929   3.707   1.184   1.575
 1308SOL    HW2 3930   3.624   1.319   1.612
 1309SOL     OW 3931   2.926   1.347   1.340
 1309SOL    HW1 3932   2.846   1.324   1.395
 1309SOL    HW2 3933   3.009   1.321   1.389
 1310SOL     OW 3934   3.454   1.629   1.625
 1310SOL    HW1 3935   3.481   1.663   1.535
 1310SOL    HW2 3936   3.533   1.591   1.671
 1311SOL     OW 3937   2.973   1.195   1.100
 1311SOL    HW1 3938   2.933   1.239   1.181
 1311SOL    HW2 3939   2.932   1.232   1.017
 1312SOL     OW 3940   3.500   1.099   1.079
 1312SOL    HW1 3941   3.505   1.180   1.138
 1312SOL    HW2 3942   3.414   1.101   1.028
 1313SOL     OW 3943   2.777   0.089   1.402
 1313SOL    HW1 3944   2.802   0.069   1.307
 1313SOL    HW2 3945   2.849   0.145   1.444
 1314SOL     OW 3946   2.842   1.116   1.719
 1314SOL    HW1 3947   2.743   1.122   1.729
 1314SOL    HW2 3948   2.865   1.036   1.663
 1315SOL     OW 3949   2.567   1.050   0.368
 1315SOL    HW1 3950   2.553   1.057   0.467
 1315SOL    HW2 3951   2.651   0.999   0.350
 1316SOL     OW 3952   2.272   0.813   1.251
 1316SOL    HW1 3953   2.358   0.825   1.301
 1316SOL    HW2 3954   2.230   0.726   1.278
 1317SOL     OW 3955   3.136   0.386   1.262
 1317SOL    HW1 3956   3.157   0.460   1.326
 1317SOL    HW2 3957   3.047   0.403   1.219
 1318SOL     OW 3958   1.926   1.564   1.331
 1318SOL    HW1 3959   1.880   1.646   1.297
 1318SOL    HW2 3960   2.024   1.583   1.340
 1319SOL     OW 3961   2.229   1.100   0.501
 1319SOL    HW1 3962   2.222   1.183   0.445
 1319SOL    HW2 3963   2.233   1.020   0.441
 1320SOL     OW 3964   2.428   0.537   0.865
 1320SOL    HW1 3965   2.440   0.603   0.791
 1320SOL    HW2 3966   2.474   0.571   0.948
 1321SOL     OW 3967   3.114   1.348   0.388
 1321SOL    HW1 3968   3.164   1.425   0.428
 1321SOL    HW2 3969   3.019   1.350   0.420
 1322SOL     OW 3970   3.134   1.445   1.142
 1322SOL    HW1 3971   3.181   1.458   1.229
 1322SOL    HW2 3972   3.068   1.371   1.151
 1323SOL     OW 3973   3.444   0.639   0.472
 1323SOL    HW1 3974   3.413   0.700   0.545
 1323SOL    HW2 3975   3.494   0.691   0.403
 1324SOL     OW 3976   2.216   1.510   1.329
 1324SOL    HW1 3977   2.195   1.466   1.242
 1324SOL    HW2 3978   2.313   1.536   1.332
 1325SOL     OW 3979   2.264   0.751   1.598
 1325SOL    HW1 3980   2.332   0.806   1.551
 1325SOL    HW2 3981   2.304   0.663   1.625
 1326SOL     OW 3982   3.449   0.779   1.670
 1326SOL    HW1 3983   3.357   0.817   1.665
 1326SOL    HW2 3984   3.509   0.826   1.605
 1327SOL     OW 3985   2.875   0.105   1.770
 1327SOL    HW1 3986   2.881   0.190   1.718
 1327SOL    HW2 3987   2.907   0.029   1.713
 1328SOL     OW 3988   2.366   0.050   1.740
 1328SOL    HW1 3989   2.324  -0.007   1.670
 1328SOL    HW2 3990   2.300   0.119   1.772
 1329SOL     OW 3991   2.435   0.870   1.029
 1329SOL    HW1 3992   2.479   0.959   1.020
 1329SOL    HW2 3993   2.372   0.870   1.106
 1330SOL     OW 3994   3.222   0.862   1.045
 1330SOL    HW1 3995   3.147   0.862   0.979
 1330SOL    HW2 3996   3.259   0.770   1.054
 1331SOL     OW 3997   3.071   0.525   0.275
 1331SOL    HW1 3998   3.084   0.441   0.329
 1331SOL    HW2 3999   3.042   0.599   0.335
 1332SOL     OW 4000   2.169   0.213   1.231
 1332SOL    HW1 4001   2.146   0.250   1.321
 1332SOL    HW2 4002   2.139   0.118   1.225
 1333SOL     OW 4003   1.899   1.310   1.282
 1333SOL    HW1 4004   1.952   1.261   1.350
 1333SOL    HW2 4005   1.921   1.408   1.287
 1334SOL     OW 4006   2.594   0.634   1.064
 1334SOL    HW1 4007   2.653   0.608   0.988
 1334SOL    HW2 4008   2.566   0.730   1.053
 1335SOL     OW 4009   3.590   0.935   1.854
 1335SOL    HW1 4010   3.544   0.928   1.765
 1335SOL    HW2 4011   3.528   0.979   1.920
 1336SOL     OW 4012   2.169   0.063   0.618
 1336SOL    HW1 4013   2.158   0.157   0.651
 1336SOL    HW2 4014   2.164   0.000   0.695
 1337SOL     OW 4015   3.484   0.367   0.374
 1337SOL    HW1 4016   3.486   0.291   0.438
 1337SOL    HW2 4017   3.436   0.444   0.414
 1338SOL     OW 4018   2.885   0.766   0.966
 1338SOL    HW1 4019   2.900   0.787   1.062
 1338SOL    HW2 4020   2.855   0.671   0.957
 1339SOL     OW 4021   2.842   1.573   1.700
 1339SOL    HW1 4022   2.822   1.617   1.612
 1339SOL    HW2 4023   2.881   1.482   1.684
 1340SOL     OW 4024   3.721   1.518   1.605
 1340SOL    HW1 4025   3.735   1.545   1.510
 1340SOL    HW2 4026   3.804   1.540   1.658
 1341SOL     OW 4027   2.212   0.898   1.804
 1341SOL    HW1 4028   2.288   0.942   1.852
 1341SOL    HW2 4029   2.247   0.851   1.722
 1342SOL     OW 4030   3.402   0.274   0.125
 1342SOL    HW1 4031   3.341   0.199   0.148
 1342SOL    HW2 4032   3.424   0.326   0.208
 1343SOL     OW 4033   3.165   0.838   0.042
 1343SOL    HW1 4034   3.199   0.745   0.057
 1343SOL    HW2 4035   3.183   0.865  -0.053
 1344SOL     OW 4036   2.930   1.333   0.849
 1344SOL    HW1 4037   2.937   1.249   0.794
 1344SOL    HW2 4038   2.992   1.402   0.813
 1345SOL     OW 4039   2.181   0.810   0.949
 1345SOL    HW1 4040   2.274   0.846   0.954
 1345SOL    HW2 4041   2.175   0.725   1.001
 1346SOL     OW 4042   2.201   0.509   1.006
 1346SOL    HW1 4043   2.149   0.426   0.989
 1346SOL    HW2 4044   2.278   0.514   0.942
 1347SOL     OW 4045   3.000   0.380   1.678
 1347SOL    HW1 4046   2.955   0.443   1.742
 1347SOL    HW2 4047   3.093   0.411   1.661
 1348SOL     OW 4048   3.022   0.207   1.477
 1348SOL    HW1 4049   3.022   0.271   1.554
 1348SOL    HW2 4050   3.050   0.255   1.394
 1349SOL     OW 4051   1.870   1.326   0.200
 1349SOL    HW1 4052   1.777   1.347   0.169
 1349SOL    HW2 4053   1.880   1.227   0.213
 1350SOL     OW 4054   1.950   1.801   0.927
 1350SOL    HW1 4055   1.908   1.715   0.900
 1350SOL    HW2 4056   2.044   1.804   0.893
 1351SOL     OW 4057   2.366   1.568   0.910
 1351SOL    HW1 4058   2.432   1.642   0.919
 1351SOL    HW2 4059   2.410   1.489   0.868
 1352SOL     OW 4060   2.864   0.796   1.238
 1352SOL    HW1 4061   2.905   0.764   1.324
 1352SOL    HW2 4062   2.768   0.769   1.235
 1353SOL     OW 4063   1.902   0.544   1.114
 1353SOL    HW1 4064   1.987   0.511   1.073
 1353SOL    HW2 4065   1.915   0.559   1.212
 1354SOL     OW 4066   2.051   0.520   1.722
 1354SOL    HW1 4067   2.110   0.480   1.652
 1354SOL    HW2 4068   1.993   0.591   1.681
 1355SOL     OW 4069   3.231   0.950   1.660
 1355SOL    HW1 4070   3.270   1.039   1.680
 1355SOL    HW2 4071   3.241   0.930   1.563
 1356SOL     OW 4072   2.677   0.572   0.325
 1356SOL    HW1 4073   2.684   0.483   0.279
 1356SOL    HW2 4074   2.583   0.606   0.317
 1357SOL     OW 4075   3.519   0.604   1.206
 1357SOL    HW1 4076   3.481   0.535   1.268
 1357SOL    HW2 4077   3.601   0.568   1.162
 1358SOL     OW 4078   2.114   1.564   1.744
 1358SOL    HW1 4079   2.084   1.621   1.820
 1358SOL    HW2 4080   2.107   1.467   1.770
 1359SOL     OW 4081   2.533   0.464   1.269
 1359SOL    HW1 4082   2.499   0.375   1.239
 1359SOL    HW2 4083   2.559   0.518   1.189
 1360SOL     OW 4084   2.792   1.678   1.465
 1360SOL    HW1 4085   2.768   1.660   1.370
 1360SOL    HW2 4086   2.822   1.772   1.475
 1361SOL     OW 4087   2.335   0.500   0.191
 1361SOL    HW1 4088   2.396   0.580   0.195
 1361SOL    HW2 4089   2.240   0.531   0.198
 1362SOL     OW 4090   2.021   1.137   1.466
 1362SOL    HW1 4091   2.043   1.076   1.542
 1362SOL    HW2 4092   2.031   1.088   1.380
 1363SOL     OW 4093   3.209   1.059   1.234
 1363SOL    HW1 4094   3.233   0.996   1.160
 1363SOL    HW2 4095   3.119   1.099   1.216
 1364SOL     OW 4096   3.164   0.855   0.309
 1364SOL    HW1 4097   3.078   0.824   0.351
 1364SOL    HW2 4098   3.160   0.841   0.210
 1365SOL     OW 4099   3.621   1.747   1.154
 1365SOL    HW1 4100   3.682   1.777   1.081
 1365SOL    HW2 4101   3.583   1.658   1.132
 1366SOL     OW 4102   3.114   1.731   1.128
 1366SOL    HW1 4103   3.198   1.736   1.074
 1366SOL    HW2 4104   3.091   1.635   1.146
 1367SOL     OW 4105   1.945   1.258   1.022
 1367SOL    HW1 4106   1.940   1.257   1.122
 1367SOL    HW2 4107   1.862   1.217   0.984
 1368SOL     OW 4108   2.550   1.662   1.716
 1368SOL    HW1 4109   2.494   1.743   1.725
 1368SOL    HW2 4110   2.602   1.666   1.630
 1369SOL     OW 4111   2.765   0.086   0.133
 1369SOL    HW1 4112   2.816   0.087   0.047
 1369SOL    HW2 4113   2.821   0.044   0.204
 1370SOL     OW 4114   3.588   0.135   0.523
 1370SOL    HW1 4115   3.661   0.118   0.456
 1370SOL    HW2 4116   3.557   0.048   0.561
 1371SOL     OW 4117   3.250   1.573   0.477
 1371SOL    HW1 4118   3.317   1.585   0.403
 1371SOL    HW2 4119   3.210   1.662   0.500
 1372SOL     OW 4120   1.992   1.794   1.851
 1372SOL    HW1 4121   1.951   1.720   1.904
 1372SOL    HW2 4122   2.056   1.845   1.909
 1373SOL     OW 4123   3.142   0.927   0.672
 1373SOL    HW1 4124   3.202   0.846   0.674
 1373SOL    HW2 4125   3.182   0.996   0.612
 1374SOL     OW 4126   2.692   1.273   1.422
 1374SOL    HW1 4127   2.687   1.306   1.517
 1374SOL    HW2 4128   2.606   1.292   1.376
 1375SOL     OW 4129   2.534   1.616   0.154
 1375SOL    HW1 4130   2.543   1.626   0.055
 1375SOL    HW2 4131   2.494   1.527   0.175
 1376SOL     OW 4132   3.512   1.720   1.394
 1376SOL    HW1 4133   3.565   1.730   1.310
 1376SOL    HW2 4134   3.485   1.810   1.428
 1377SOL     OW 4135   3.703   0.175   0.963
 1377SOL    HW1 4136   3.742   0.090   0.927
 1377SOL    HW2 4137   3.605   0.177   0.944
 1378SOL     OW 4138   2.125   0.326   0.720
 1378SOL    HW1 4139   2.046   0.377   0.686
 1378SOL    HW2 4140   2.116   0.311   0.818
 1379SOL     OW 4141   3.056   1.612   0.031
 1379SOL    HW1 4142   3.062   1.519   0.068
 1379SOL    HW2 4143   2.997   1.612  -0.049
 1380SOL     OW 4144   2.684   1.002   1.372
 1380SOL    HW1 4145   2.724   1.001   1.280
 1380SOL    HW2 4146   2.694   1.094   1.412
 1381SOL     OW 4147   2.778   0.910   0.291
 1381SOL    HW1 4148   2.841   0.948   0.223
 1381SOL    HW2 4149   2.818   0.827   0.330
 1382SOL     OW 4150   3.366   1.607   0.044
 1382SOL    HW1 4151   3.274   1.644   0.051
 1382SOL    HW2 4152   3.404   1.627  -0.046
 1383SOL     OW 4153   2.234   1.288   1.490
 1383SOL    HW1 4154   2.221   1.381   1.456
 1383SOL    HW2 4155   2.150   1.236   1.477
 1384SOL     OW 4156   3.476   1.292   1.289
 1384SOL    HW1 4157   3.536   1.295   1.369
 1384SOL    HW2 4158   3.401   1.356   1.302
 1385SOL     OW 4159   2.901   1.098   0.696
 1385SOL    HW1 4160   2.831   1.051   0.750
 1385SOL    HW2 4161   2.960   1.030   0.653
 1386SOL     OW 4162   2.876   0.236   0.971
 1386SOL    HW1 4163   2.868   0.200   0.878
 1386SOL    HW2 4164   2.874   0.160   1.036
 1387SOL     OW 4165   2.452   1.487   0.491
 1387SOL    HW1 4166   2.494   1.429   0.421
 1387SOL    HW2 4167   2.408   1.566   0.447
 1388SOL     OW 4168   3.571   0.385   1.381
 1388SOL    HW1 4169   3.644   0.454   1.385
 1388SOL    HW2 4170   3.599   0.310   1.322
 1389SOL     OW 4171   2.117   1.348   0.290
 1389SOL    HW1 4172   2.021   1.349   0.263
 1389SOL    HW2 4173   2.129   1.401   0.374
 1390SOL     OW 4174   1.967   1.013   1.726
 1390SOL    HW1 4175   1.890   0.980   1.780
 1390SOL    HW2 4176   2.052   0.983   1.768
 1391SOL     OW 4177   2.534   0.203   1.489
 1391SOL    HW1 4178   2.624   0.187   1.449
 1391SOL    HW2 4179   2.542   0.208   1.588
 1392SOL     OW 4180   1.937   0.345   0.033
 1392SOL    HW1 4181   1.845   0.317   0.004
 1392SOL    HW2 4182   1.968   0.422  -0.023
 1393SOL     OW 4183   3.302   0.856   1.398
 1393SOL    HW1 4184   3.245   0.908   1.335
 1393SOL    HW2 4185   3.398   0.868   1.374
 1394SOL     OW 4186   3.045   1.335   0.119
 1394SOL    HW1 4187   2.946   1.324   0.121
 1394SOL    HW2 4188   3.079   1.350   0.212
 1395SOL     OW 4189   2.475   0.842   1.431
 1395SOL    HW1 4190   2.531   0.923   1.414
 1395SOL    HW2 4191   2.534   0.762   1.434
 1396SOL     OW 4192   3.355   1.767   0.959
 1396SOL    HW1 4193   3.388   1.831   0.890
 1396SOL    HW2 4194   3.421   1.761   1.034
 1397SOL     OW 4195   2.578   0.565   1.708
 1397SOL    HW1 4196   2.597   0.630   1.782
 1397SOL    HW2 4197   2.638   0.485   1.717
 1398SOL     OW 4198   3.312   1.220   1.633
 1398SOL    HW1 4199   3.303   1.210   1.732
 1398SOL    HW2 4200   3.408   1.213   1.607
 1399SOL     OW 4201   2.252   1.741   1.560
 1399SOL    HW1 4202   2.161   1.782   1.558
 1399SOL    HW2 4203   2.245   1.647   1.592
 1400SOL     OW 4204   3.536   0.883   1.254
 1400SOL    HW1 4205   3.509   0.794   1.217
 1400SOL    HW2 4206   3.537   0.951   1.181
 1401SOL     OW 4207   3.087   0.325   0.449
 1401SOL    HW1 4208   3.152   0.251   0.438
 1401SOL    HW2 4209   3.107   0.375   0.533
 1402SOL     OW 4210   2.456   0.745   0.652
 1402SOL    HW1 4211   2.506   0.830   0.633
 1402SOL    HW2 4212   2.368   0.747   0.604
 1403SOL     OW 4213   3.639   0.342   1.642
 1403SOL    HW1 4214   3.622   0.373   1.548
 1403SOL    HW2 4215   3.555   0.305   1.680
 1404SOL     OW 4216   3.592   0.934   1.517
 1404SOL    HW1 4217   3.630   1.025   1.532
 1404SOL    HW2 4218   3.584   0.917   1.418
 1405SOL     OW 4219   2.721   1.374   0.016
 1405SOL    HW1 4220   2.675   1.389   0.104
 1405SOL    HW2 4221   2.765   1.459  -0.014
 1406SOL     OW 4222   2.523   1.790   0.953
 1406SOL    HW1 4223   2.477   1.878   0.940
 1406SOL    HW2 4224   2.622   1.802   0.946
 1407SOL     OW 4225   2.721   0.956   0.861
 1407SOL    HW1 4226   2.775   0.887   0.909
 1407SOL    HW2 4227   2.689   1.025   0.927
 1408SOL     OW 4228   2.945   0.984   0.087
 1408SOL    HW1 4229   2.922   1.037   0.005
 1408SOL    HW2 4230   3.026   0.928   0.068
 1409SOL     OW 4231   3.723   1.569   0.851
 1409SOL    HW1 4232   3.652   1.557   0.781
 1409SOL    HW2 4233   3.724   1.490   0.911
 1410SOL     OW 4234   2.083   1.314   1.844
 1410SOL    HW1 4235   2.018   1.241   1.823
 1410SOL    HW2 4236   2.087   1.328   1.942
 1411SOL     OW 4237   1.941   1.240   0.653
 1411SOL    HW1 4238   1.940   1.193   0.741
 1411SOL    HW2 4239   2.023   1.212   0.602
 1412SOL     OW 4240   2.534   1.391   1.624
 1412SOL    HW1 4241   2.456   1.341   1.662
 1412SOL    HW2 4242   2.531   1.486   1.655
 1413SOL     OW 4243   3.686   0.192   1.227
 1413SOL    HW1 4244   3.682   0.102   1.271
 1413SOL    HW2 4245   3.689   0.181   1.128
 1414SOL     OW 4246   2.290   0.424   0.520
 1414SOL    HW1 4247   2.320   0.352   0.458
 1414SOL    HW2 4248   2.251   0.384   0.603
 1415SOL     OW 4249   3.567   1.487   1.104
 1415SOL    HW1 4250   3.474   1.462   1.077
 1415SOL    HW2 4251   3.593   1.437   1.186
 1416SOL     OW 4252   2.179   0.547   1.280
 1416SOL    HW1 4253   2.217   0.488   1.352
 1416SOL    HW2 4254   2.219   0.521   1.192
 1417SOL     OW 4255   2.674   1.586   0.687
 1417SOL    HW1 4256   2.706   1.596   0.593
 1417SOL    HW2 4257   2.595   1.524   0.689
 1418SOL     OW 4258   3.286   0.214   1.112
 1418SOL    HW1 4259   3.338   0.149   1.167
 1418SOL    HW2 4260   3.237   0.277   1.173
 1419SOL     OW 4261   2.863   0.034   1.154
 1419SOL    HW1 4262   2.800  -0.038   1.123
 1419SOL    HW2 4263   2.956  -0.002   1.154
 1420SOL     OW 4264   2.632   1.330   0.301
 1420SOL    HW1 4265   2.586   1.243   0.318
 1420SOL    HW2 4266   2.723   1.327   0.342
 1421SOL     OW 4267   2.480   1.567   1.284
 1421SOL    HW1 4268   2.475   1.649   1.341
 1421SOL    HW2 4269   2.569   1.564   1.239
 1422SOL     OW 4270   3.214   0.052   0.168
 1422SOL    HW1 4271   3.249   0.011   0.084
 1422SOL    HW2 4272   3.124   0.014   0.188
 1423SOL     OW 4273   3.162   0.453   0.691
 1423SOL    HW1 4274   3.103   0.533   0.695
 1423SOL    HW2 4275   3.177   0.418   0.784
 1424SOL     OW 4276   3.455   0.221   0.882
 1424SOL    HW1 4277   3.371   0.220   0.936
 1424SOL    HW2 4278   3.457   0.304   0.826
 1425SOL     OW 4279   1.901   1.077   0.300
 1425SOL    HW1 4280   2.000   1.066   0.291
 1425SOL    HW2 4281   1.861   0.991   0.332
 1426SOL     OW 4282   2.737   1.646   0.337
 1426SOL    HW1 4283   2.660   1.611   0.283
 1426SOL    HW2 4284   2.705   1.717   0.399
 1427SOL     OW 4285   2.092   0.628   1.975
 1427SOL    HW1 4286   1.999   0.626   2.012
 1427SOL    HW2 4287   2.093   0.589   1.883
 1428SOL     OW 4288   2.087   0.275   2.858
 1428SOL    HW1 4289   2.122   0.258   2.950
 1428SOL    HW2 4290   1.999   0.230   2.846
 1429SOL     OW 4291   1.881   0.368   2.509
 1429SOL    HW1 4292   1.799   0.411   2.548
 1429SOL    HW2 4293   1.853   0.295   2.446
 1430SOL     OW 4294   2.431   1.275   3.027
 1430SOL    HW1 4295   2.338   1.268   2.990
 1430SOL    HW2 4296   2.442   1.364   3.071
 1431SOL     OW 4297   3.417   1.511   2.565
 1431SOL    HW1 4298   3.360   1.495   2.646
 1431SOL    HW2 4299   3.358   1.521   2.485
 1432SOL     OW 4300   2.997   0.703   2.579
 1432SOL    HW1 4301   3.054   0.781   2.554
 1432SOL    HW2 4302   2.937   0.729   2.655
 1433SOL     OW 4303   3.617   0.607   2.093
 1433SOL    HW1 4304   3.605   0.594   1.994
 1433SOL    HW2 4305   3.587   0.526   2.142
 1434SOL     OW 4306   2.630   1.144   2.885
 1434SOL    HW1 4307   2.552   1.161   2.945
 1434SOL    HW2 4308   2.664   1.231   2.849
 1435SOL     OW 4309   2.712   0.798   3.685
 1435SOL    HW1 4310   2.708   0.874   3.750
 1435SOL    HW2 4311   2.734   0.834   3.594
 1436SOL     OW 4312   2.547   1.012   2.527
 1436SOL    HW1 4313   2.616   0.996   2.597
 1436SOL    HW2 4314   2.474   1.069   2.565
 1437SOL     OW 4315   2.548   1.161   3.665
 1437SOL    HW1 4316   2.608   1.240   3.679
 1437SOL    HW2 4317   2.462   1.192   3.624
 1438SOL     OW 4318   2.197   1.435   2.923
 1438SOL    HW1 4319   2.119   1.404   2.870
 1438SOL    HW2 4320   2.255   1.493   2.866
 1439SOL     OW 4321   3.322   1.505   3.201
 1439SOL    HW1 4322   3.346   1.599   3.227
 1439SOL    HW2 4323   3.306   1.451   3.283
 1440SOL     OW 4324   2.300   0.392   3.361
 1440SOL    HW1 4325   2.382   0.336   3.370
 1440SOL    HW2 4326   2.219   0.334   3.365
 1441SOL     OW 4327   3.465   0.447   2.599
 1441SOL    HW1 4328   3.391   0.493   2.549
 1441SOL    HW2 4329   3.516   0.515   2.652
 1442SOL     OW 4330   2.093   1.713   2.345
 1442SOL    HW1 4331   2.127   1.790   2.399
 1442SOL    HW2 4332   2.137   1.713   2.255
 1443SOL     OW 4333   2.989   1.341   3.552
 1443SOL    HW1 4334   3.036   1.341   3.640
 1443SOL    HW2 4335   2.941   1.254   3.541
 1444SOL     OW 4336   2.092   1.434   2.400
 1444SOL    HW1 4337   2.066   1.530   2.400
 1444SOL    HW2 4338   2.021   1.380   2.445
 1445SOL     OW 4339   2.102   1.091   2.748
 1445SOL    HW1 4340   2.116   1.007   2.800
 1445SOL    HW2 4341   2.047   1.155   2.803
 1446SOL     OW 4342   2.482   1.786   3.301
 1446SOL    HW1 4343   2.390   1.769   3.336
 1446SOL    HW2 4344   2.510   1.878   3.327
 1447SOL     OW 4345   2.468   0.964   1.985
 1447SOL    HW1 4346   2.475   1.048   1.931
 1447SOL    HW2 4347   2.514   0.977   2.073
 1448SOL     OW 4348   3.456   0.114   3.342
 1448SOL    HW1 4349   3.438   0.181   3.270
 1448SOL    HW2 4350   3.453   0.160   3.431
 1449SOL     OW 4351   1.984   0.643   2.425
 1449SOL    HW1 4352   1.939   0.555   2.442
 1449SOL    HW2 4353   1.983   0.697   2.509
 1450SOL     OW 4354   3.704   1.767   2.221
 1450SOL    HW1 4355   3.758   1.738   2.301
 1450SOL    HW2 4356   3.734   1.857   2.192
 1451SOL     OW 4357   1.889   1.596   1.979
 1451SOL    HW1 4358   1.870   1.500   2.000
 1451SOL    HW2 4359   1.856   1.654   2.054
 1452SOL     OW 4360   3.551   0.922   2.474
 1452SOL    HW1 4361   3.646   0.893   2.482
 1452SOL    HW2 4362   3.543   0.987   2.399
 1453SOL     OW 4363   3.503   1.108   2.294
 1453SOL    HW1 4364   3.589   1.110   2.242
 1453SOL    HW2 4365   3.517   1.155   2.382
 1454SOL     OW 4366   1.975   0.737   3.459
 1454SOL    HW1 4367   2.063   0.724   3.504
 1454SOL    HW2 4368   1.962   0.834   3.437
 1455SOL     OW 4369   2.475   1.365   2.588
 1455SOL    HW1 4370   2.426   1.278   2.597
 1455SOL    HW2 4371   2.452   1.408   2.501
 1456SOL     OW 4372   3.155   1.228   3.285
 1456SOL    HW1 4373   3.192   1.155   3.227
 1456SOL    HW2 4374   3.207   1.233   3.370
 1457SOL     OW 4375   2.671   0.004   2.364
 1457SOL    HW1 4376   2.711   0.095   2.355
 1457SOL    HW2 4377   2.571   0.012   2.370
 1458SOL     OW 4378   2.059   0.976   3.126
 1458SOL    HW1 4379   2.148   0.931   3.112
 1458SOL    HW2 4380   1.986   0.911   3.107
 1459SOL     OW 4381   3.387   0.999   2.052
 1459SOL    HW1 4382   3.324   0.923   2.065
 1459SOL    HW2 4383   3.435   1.017   2.138
 1460SOL     OW 4384   3.049   1.792   3.478
 1460SOL    HW1 4385   3.073   1.852   3.402
 1460SOL    HW2 4386   3.056   1.697   3.448
 1461SOL     OW 4387   2.179   0.251   3.663
 1461SOL    HW1 4388   2.250   0.322   3.669
 1461SOL    HW2 4389   2.091   0.290   3.691
 1462SOL     OW 4390   3.328   1.417   2.815
 1462SOL    HW1 4391   3.269   1.423   2.895
 1462SOL    HW2 4392   3.313   1.329   2.769
 1463SOL     OW 4393   3.529   1.714   2.434
 1463SOL    HW1 4394   3.488   1.691   2.346
 1463SOL    HW2 4395   3.511   1.640   2.499
 1464SOL     OW 4396   2.460   0.729   2.132
 1464SOL    HW1 4397   2.484   0.798   2.064
 1464SOL    HW2 4398   2.382   0.762   2.186
 1465SOL     OW 4399   3.143   0.345   2.806
 1465SOL    HW1 4400   3.057   0.295   2.793
 1465SOL    HW2 4401   3.205   0.291   2.862
 1466SOL     OW 4402   3.438   1.662   2.169
 1466SOL    HW1 4403   3.527   1.708   2.172
 1466SOL    HW2 4404   3.417   1.638   2.074
 1467SOL     OW 4405   2.669   0.605   3.327
 1467SOL    HW1 4406   2.622   0.602   3.416
 1467SOL    HW2 4407   2.618   0.550   3.261
 1468SOL     OW 4408   3.256   0.469   3.536
 1468SOL    HW1 4409   3.236   0.512   3.624
 1468SOL    HW2 4410   3.334   0.407   3.545
 1469SOL     OW 4411   2.835   0.890   3.434
 1469SOL    HW1 4412   2.881   0.806   3.405
 1469SOL    HW2 4413   2.779   0.924   3.359
 1470SOL     OW 4414   2.853   0.410   3.104
 1470SOL    HW1 4415   2.776   0.444   3.158
 1470SOL    HW2 4416   2.819   0.359   3.025
 1471SOL     OW 4417   2.903   0.701   2.291
 1471SOL    HW1 4418   2.929   0.697   2.387
 1471SOL    HW2 4419   2.818   0.650   2.277
 1472SOL     OW 4420   1.938   0.811   2.651
 1472SOL    HW1 4421   2.037   0.799   2.660
 1472SOL    HW2 4422   1.914   0.906   2.672
 1473SOL     OW 4423   1.992   1.821   3.433
 1473SOL    HW1 4424   1.982   1.806   3.532
 1473SOL    HW2 4425   1.906   1.857   3.397
 1474SOL     OW 4426   2.727   0.348   2.057
 1474SOL    HW1 4427   2.786   0.411   2.008
 1474SOL    HW2 4428   2.746   0.254   2.028
 1475SOL     OW 4429   3.581   0.585   3.693
 1475SOL    HW1 4430   3.555   0.674   3.657
 1475SOL    HW2 4431   3.579   0.517   3.620
 1476SOL     OW 4432   3.224   1.144   2.407
 1476SOL    HW1 4433   3.307   1.115   2.359
 1476SOL    HW2 4434   3.175   1.211   2.351
 1477SOL     OW 4435   2.412   0.196   2.747
 1477SOL    HW1 4436   2.407   0.191   2.847
 1477SOL    HW2 4437   2.414   0.292   2.718
 1478SOL     OW 4438   2.870   1.456   2.339
 1478SOL    HW1 4439   2.824   1.528   2.287
 1478SOL    HW2 4440   2.866   1.476   2.437
 1479SOL     OW 4441   2.213   1.801   2.715
 1479SOL    HW1 4442   2.263   1.715   2.721
 1479SOL    HW2 4443   2.278   1.878   2.712
 1480SOL     OW 4444   3.657   1.066   2.735
 1480SOL    HW1 4445   3.595   1.051   2.659
 1480SOL    HW2 4446   3.605   1.077   2.820
 1481SOL     OW 4447   3.089   1.550   3.368
 1481SOL    HW1 4448   3.095   1.473   3.432
 1481SOL    HW2 4449   3.037   1.524   3.288
 1482SOL     OW 4450   2.183   0.943   2.104
 1482SOL    HW1 4451   2.265   0.982   2.062
 1482SOL    HW2 4452   2.156   0.861   2.055
 1483SOL     OW 4453   3.320   0.735   2.590
 1483SOL    HW1 4454   3.315   0.670   2.665
 1483SOL    HW2 4455   3.400   0.794   2.603
 1484SOL     OW 4456   2.323   1.266   3.589
 1484SOL    HW1 4457   2.273   1.267   3.503
 1484SOL    HW2 4458   2.260   1.248   3.665
 1485SOL     OW 4459   2.973   1.776   2.099
 1485SOL    HW1 4460   2.913   1.714   2.149
 1485SOL    HW2 4461   3.004   1.732   2.014
 1486SOL     OW 4462   2.064   0.285   3.360
 1486SOL    HW1 4463   1.984   0.345   3.347
 1486SOL    HW2 4464   2.054   0.236   3.446
 1487SOL     OW 4465   3.494   1.377   1.943
 1487SOL    HW1 4466   3.462   1.471   1.933
 1487SOL    HW2 4467   3.418   1.314   1.931
 1488SOL     OW 4468   2.326   1.743   2.185
 1488SOL    HW1 4469   2.359   1.782   2.271
 1488SOL    HW2 4470   2.402   1.736   2.120
 1489SOL     OW 4471   3.262   0.107   2.288
 1489SOL    HW1 4472   3.238   0.070   2.198
 1489SOL    HW2 4473   3.361   0.123   2.292
 1490SOL     OW 4474   2.111   1.785   3.103
 1490SOL    HW1 4475   2.168   1.720   3.153
 1490SOL    HW2 4476   2.095   1.752   3.010
 1491SOL     OW 4477   2.802   1.698   2.766
 1491SOL    HW1 4478   2.882   1.641   2.787
 1491SOL    HW2 4479   2.753   1.658   2.689
 1492SOL     OW 4480   2.244   0.700   2.342
 1492SOL    HW1 4481   2.289   0.610   2.339
 1492SOL    HW2 4482   2.150   0.689   2.375
 1493SOL     OW 4483   3.409   0.222   3.591
 1493SOL    HW1 4484   3.404   0.259   3.683
 1493SOL    HW2 4485   3.337   0.153   3.579
 1494SOL     OW 4486   2.476   0.122   1.979
 1494SOL    HW1 4487   2.574   0.100   1.986
 1494SOL    HW2 4488   2.445   0.105   1.886
 1495SOL     OW 4489   2.643   0.264   3.611
 1495SOL    HW1 4490   2.710   0.203   3.654
 1495SOL    HW2 4491   2.570   0.283   3.676
 1496SOL     OW 4492   2.750   1.514   3.057
 1496SOL    HW1 4493   2.727   1.489   2.963
 1496SOL    HW2 4494   2.811   1.445   3.096
 1497SOL     OW 4495   3.213   0.590   3.295
 1497SOL    HW1 4496   3.241   0.547   3.380
 1497SOL    HW2 4497   3.238   0.686   3.296
 1498SOL     OW 4498   2.665   1.402   2.786
 1498SOL    HW1 4499   2.755   1.416   2.744
 1498SOL    HW2 4500   2.594   1.404   2.715
 1499SOL     OW 4501   2.784   0.503   2.761
 1499SOL    HW1 4502   2.759   0.494   2.665
 1499SOL    HW2 4503   2.832   0.421   2.792
 1500SOL     OW 4504   2.401   0.064   2.374
 1500SOL    HW1 4505   2.320   0.065   2.432
 1500SOL    HW2 4506   2.404   0.147   2.319
 1501SOL     OW 4507   3.296   1.188   1.903
 1501SOL    HW1 4508   3.328   1.112   1.960
 1501SOL    HW2 4509   3.204   1.215   1.933
 1502SOL     OW 4510   2.159   0.035   2.033
 1502SOL    HW1 4511   2.208   0.119   2.012
 1502SOL    HW2 4512   2.221  -0.030   2.078
 1503SOL     OW 4513   2.797   0.236   2.342
 1503SOL    HW1 4514   2.749   0.277   2.264
 1503SOL    HW2 4515   2.896   0.234   2.323
 1504SOL     OW 4516   2.938   0.683   3.326
 1504SOL    HW1 4517   2.858   0.622   3.329
 1504SOL    HW2 4518   3.019   0.630   3.302
 1505SOL     OW 4519   3.089   1.570   2.655
 1505SOL    HW1 4520   3.110   1.644   2.590
 1505SOL    HW2 4521   3.157   1.570   2.728
 1506SOL     OW 4522   2.321   1.152   2.603
 1506SOL    HW1 4523   2.250   1.125   2.668
 1506SOL    HW2 4524   2.295   1.124   2.510
 1507SOL     OW 4525   3.133   1.797   2.453
 1507SOL    HW1 4526   3.177   1.861   2.389
 1507SOL    HW2 4527   3.083   1.849   2.523
 1508SOL     OW 4528   2.894   0.549   1.878
 1508SOL    HW1 4529   2.853   0.631   1.839
 1508SOL    HW2 4530   2.958   0.575   1.951
 1509SOL     OW 4531   1.940   0.556   3.248
 1509SOL    HW1 4532   2.032   0.555   3.207
 1509SOL    HW2 4533   1.934   0.630   3.315
 1510SOL     OW 4534   2.423   0.222   3.009
 1510SOL    HW1 4535   2.461   0.138   3.046
 1510SOL    HW2 4536   2.335   0.241   3.053
 1511SOL     OW 4537   2.728   0.454   2.504
 1511SOL    HW1 4538   2.696   0.526   2.442
 1511SOL    HW2 4539   2.752   0.373   2.451
 1512SOL     OW 4540   2.879   0.039   2.615
 1512SOL    HW1 4541   2.807   0.044   2.546
 1512SOL    HW2 4542   2.855  -0.030   2.684
 1513SOL     OW 4543   3.291   1.173   2.729
 1513SOL    HW1 4544   3.236   1.089   2.722
 1513SOL    HW2 4545   3.317   1.202   2.637
 1514SOL     OW 4546   3.328   0.590   2.854
 1514SOL    HW1 4547   3.298   0.495   2.861
 1514SOL    HW2 4548   3.401   0.606   2.920
 1515SOL     OW 4549   3.719   0.833   2.239
 1515SOL    HW1 4550   3.761   0.769   2.303
 1515SOL    HW2 4551   3.681   0.782   2.161
 1516SOL     OW 4552   2.350   1.385   2.036
 1516SOL    HW1 4553   2.263   1.370   2.083
 1516SOL    HW2 4554   2.333   1.411   1.941
 1517SOL     OW 4555   3.526   1.280   2.519
 1517SOL    HW1 4556   3.625   1.288   2.533
 1517SOL    HW2 4557   3.481   1.364   2.550
 1518SOL     OW 4558   3.252   0.575   1.940
 1518SOL    HW1 4559   3.198   0.554   2.021
 1518SOL    HW2 4560   3.343   0.534   1.949
 1519SOL     OW 4561   2.389   0.256   2.190
 1519SOL    HW1 4562   2.416   0.197   2.115
 1519SOL    HW2 4563   2.389   0.351   2.159
 1520SOL     OW 4564   3.616   1.223   3.450
 1520SOL    HW1 4565   3.707   1.184   3.437
 1520SOL    HW2 4566   3.624   1.319   3.474
 1521SOL     OW 4567   2.926   1.347   3.202
 1521SOL    HW1 4568   2.846   1.324   3.257
 1521SOL    HW2 4569   3.009   1.321   3.251
 1522SOL     OW 4570   3.454   1.629   3.487
 1522SOL    HW1 4571   3.481   1.663   3.397
 1522SOL    HW2 4572   3.533   1.591   3.533
 1523SOL     OW 4573   2.973   1.195   2.962
 1523SOL    HW1 4574   2.933   1.239   3.043
 1523SOL    HW2 4575   2.932   1.232   2.879
 1524SOL     OW 4576   3.500   1.099   2.941
 1524SOL    HW1 4577   3.505   1.180   3.000
 1524SOL    HW2 4578   3.414   1.101   2.890
 1525SOL     OW 4579   2.777   0.089   3.264
 1525SOL    HW1 4580   2.802   0.069   3.169
 1525SOL    HW2 4581   2.849   0.145   3.306
 1526SOL     OW 4582   2.842   1.116   3.581
 1526SOL    HW1 4583   2.743   1.122   3.591
 1526SOL    HW2 4584   2.865   1.036   3.525
 1527SOL     OW 4585   2.567   1.050   2.230
 1527SOL    HW1 4586   2.553   1.057   2.329
 1527SOL    HW2 4587   2.651   0.999   2.212
 1528SOL     OW 4588   2.272   0.813   3.113
 1528SOL    HW1 4589   2.358   0.825   3.163
 1528SOL    HW2 4590   2.230   0.726   3.140
 1529SOL     OW 4591   3.136   0.386   3.124
 1529SOL    HW1 4592   3.157   0.460   3.188
 1529SOL    HW2 4593   3.047   0.403   3.081
 1530SOL     OW 4594   1.926   1.564   3.193
 1530SOL    HW1 4595   1.880   1.646   3.159
 1530SOL    HW2 4596   2.024   1.583   3.202
 1531SOL     OW 4597   2.229   1.100   2.363
 1531SOL    HW1 4598   2.222   1.183   2.307
 1531SOL    HW2 4599   2.233   1.020   2.303
 1532SOL     OW 4600   2.428   0.537   2.727
 1532SOL    HW1 4601   2.440   0.603   2.653
 1532SOL    HW2 4602   2.474   0.571   2.810
 1533SOL     OW 4603   3.114   1.348   2.250
 1533SOL    HW1 4604   3.164   1.425   2.290
 1533SOL    HW2 4605   3.019   1.350   2.282
 1534SOL     OW 4606   3.134   1.445   3.004
 1534SOL    HW1 4607   3.181   1.458   3.091
 1534SOL    HW2 4608   3.068   1.371   3.013
 1535SOL     OW 4609   3.444   0.639   2.334
 1535SOL    HW1 4610   3.413   0.700   2.407
 1535SOL    HW2 4611   3.494   0.691   2.265
 1536SOL     OW 4612   2.216   1.510   3.191
 1536SOL    HW1 4613   2.195   1.466   3.104
 1536SOL    HW2 4614   2.313   1.536   3.194
 1537SOL     OW 4615   2.264   0.751   3.460
 1537SOL    HW1 4616   2.332   0.806   3.413
 1537SOL    HW2 4617   2.304   0.663   3.487
 1538SOL     OW 4618   3.449   0.779   3.532
 1538SOL    HW1 4619   3.357   0.817   3.527
 1538SOL    HW2 4620   3.509   0.826   3.467
 1539SOL     OW 4621   2.875   0.105   3.632
 1539SOL    HW1 4622   2.881   0.190   3.580
 1539SOL    HW2 4623   2.907   0.029   3.575
 1540SOL     OW 4624   2.366   0.050   3.602
 1540SOL    HW1 4625   2.324  -0.007   3.532
 1540SOL    HW2 4626   2.300   0.119   3.634
 1541SOL     OW 4627   2.435   0.870   2.891
 1541SOL    HW1 4628   2.479   0.959   2.882
 1541SOL    HW2 4629   2.372   0.870   2.968
 1542SOL     OW 4630   3.222   0.862   2.907
 1542SOL    HW1 4631   3.147   0.862   2.841
 1542SOL    HW2 4632   3.259   0.770   2.916
 1543SOL     OW 4633   3.071   0.525   2.137
 1543SOL    HW1 4634   3.084   0.441   2.191
 1543SOL    HW2 4635   3.042   0.599   2.197
 1544SOL     OW 4636   2.169   0.213   3.093
 1544SOL    HW1 4637   2.146   0.250   3.183
 1544SOL    HW2 4638   2.139   0.118   3.087
 1545SOL     OW 4639   1.899   1.310   3.144
 1545SOL    HW1 4640   1.952   1.261   3.212
 1545SOL    HW2 4641   1.921   1.408   3.149
 1546SOL     OW 4642   2.594   0.634   2.926
 1546SOL    HW1 4643   2.653   0.608   2.850
 1546SOL    HW2 4644   2.566   0.730   2.915
 1547SOL     OW 4645   3.590   0.935   3.716
 1547SOL    HW1 4646   3.544   0.928   3.627
 1547SOL    HW2 4647   3.528   0.979   3.782
 1548SOL     OW 4648   2.169   0.063   2.480
 1548SOL    HW1 4649   2.158   0.157   2.513
 1548SOL    HW2 4650   2.164   0.000   2.557
 1549SOL     OW 4651   3.484   0.367   2.236
 1549SOL    HW1 4652   3.486   0.291   2.300
 1549SOL    HW2 4653   3.436   0.444   2.276
 1550SOL     OW 4654   2.885   0.766   2.828
 1550SOL    HW1 4655   2.900   0.787   2.924
 1550SOL    HW2 4656   2.855   0.671   2.819
 1551SOL     OW 4657   2.842   1.573   3.562
 1551SOL    HW1 4658   2.822   1.617   3.474
 1551SOL    HW2 4659   2.881   1.482   3.546
 1552SOL     OW 4660   3.721   1.518   3.467
 1552SOL    HW1 4661   3.735   1.545   3.372
 1552SOL    HW2 4662   3.804   1.540   3.520
 1553SOL     OW 4663   2.212   0.898   3.666
 1553SOL    HW1 4664   2.288   0.942   3.714
 1553SOL    HW2 4665   2.247   0.851   3.584
 1554SOL     OW 4666   3.402   0.274   1.987
 1554SOL    HW1 4667   3.341   0.199   2.010
 1554SOL    HW2 4668   3.424   0.326   2.070
 1555SOL     OW 4669   3.165   0.838   1.904
 1555SOL    HW1 4670   3.199   0.745   1.919
 1555SOL    HW2 4671   3.183   0.865   1.809
 1556SOL     OW 4672   2.930   1.333   2.711
 1556SOL    HW1 4673   2.937   1.249   2.656
 1556SOL    HW2 4674   2.992   1.402   2.675
 1557SOL     OW 4675   2.181   0.810   2.811
 1557SOL    HW1 4676   2.274   0.846   2.816
 1557SOL    HW2 4677   2.175   0.725   2.863
 1558SOL     OW 4678   2.201   0.509   2.868
 1558SOL    HW1 4679   2.149   0.426   2.851
 1558SOL    HW2 4680   2.278   0.514   2.804
 1559SOL     OW 4681   3.000   0.380   3.540
 1559SOL    HW1 4682   2.955   0.443   3.604
 1559SOL    HW2 4683   3.093   0.411   3.523
 1560SOL     OW 4684   3.022   0.207   3.339
 1560SOL    HW1 4685   3.022   0.271   3.416
 1560SOL    HW2 4686   3.050   0.255   3.256
 1561SOL     OW 4687   1.870   1.326   2.062
 1561SOL    HW1 4688   1.777   1.347   2.031
 1561SOL    HW2 4689   1.880   1.227   2.075
 1562SOL     OW 4690   1.950   1.801   2.789
 1562SOL    HW1 4691   1.908   1.715   2.762
 1562SOL    HW2 4692   2.044   1.804   2.755
 1563SOL     OW 4693   2.366   1.568   2.772
 1563SOL    HW1 4694   2.432   1.642   2.781
 1563SOL    HW2 4695   2.410   1.489   2.730
 1564SOL     OW 4696   2.864   0.796   3.100
 1564SOL    HW1 4697   2.905   0.764   3.186
 1564SOL    HW2 4698   2.768   0.769   3.097
 1565SOL     OW 4699   1.902   0.544   2.976
 1565SOL    HW1 4700   1.987   0.511   2.935
 1565SOL    HW2 4701   1.915   0.559   3.074
 1566SOL     OW 4702   2.051   0.520   3.584
 1566SOL    HW1 4703   2.110   0.480   3.514
 1566SOL    HW2 4704   1.993   0.591   3.543
 1567SOL     OW 4705   3.231   0.950   3.522
 1567SOL    HW1 4706   3.270   1.039   3.542
 1567SOL    HW2 4707   3.241   0.930   3.425
 1568SOL     OW 4708   2.677   0.572   2.187
 1568SOL    HW1 4709   2.684   0.483   2.141
 1568SOL    HW2 4710   2.583   0.606   2.179
 1569SOL     OW 4711   3.519   0.604   3.068
 1569SOL    HW1 4712   3.481   0.535   3.130
 1569SOL    HW2 4713   3.601   0.568   3.024
 1570SOL     OW 4714   2.114   1.564   3.606
 1570SOL    HW1 4715   2.084   1.621   3.682
 1570SOL    HW2 4716   2.107   1.467   3.632
 1571SOL     OW 4717   2.533   0.464   3.131
 1571SOL    HW1 4718   2.499   0.375   3.101
 1571SOL    HW2 4719   2.559   0.518   3.051
 1572SOL     OW 4720   2.792   1.678   3.327
 1572SOL    HW1 4721   2.768   1.660   3.232
 1572SOL    HW2 4722   2.822   1.772   3.337
 1573SOL     OW 4723   2.335   0.500   2.053
 1573SOL    HW1 4724   2.396   0.580   2.057
 1573SOL    HW2 4725   2.240   0.531   2.060
 1574SOL     OW 4726   2.021   1.137   3.328
 1574SOL    HW1 4727   2.043   1.076   3.404
 1574SOL    HW2 4728   2.031   1.088   3.242
 1575SOL     OW 4729   3.209   1.059   3.096
 1575SOL    HW1 4730   3.233   0.996   3.022
 1575SOL    HW2 4731   3.119   1.099   3.078
 1576SOL     OW 4732   3.164   0.855   2.171
 1576SOL    HW1 4733   3.078   0.824   2.213
 1576SOL    HW2 4734   3.160   0.841   2.072
 1577SOL     OW 4735   3.621   1.747   3.016
 1577SOL    HW1 4736   3.682   1.777   2.943
 1577SOL    HW2 4737   3.583   1.658   2.994
 1578SOL     OW 4738   3.114   1.731   2.990
 1578SOL    HW1 4739   3.198   1.736   2.936
 1578SOL    HW2 4740   3.091   1.635   3.008
 1579SOL     OW 4741   1.945   1.258   2.884
 1579SOL    HW1 4742   1.940   1.257   2.984
 1579SOL    HW2 4743   1.862   1.217   2.846
 1580SOL     OW 4744   2.550   1.662   3.578
 1580SOL    HW1 4745   2.494   1.743   3.587
 1580SOL    HW2 4746   2.602   1.666   3.492
 1581SOL     OW 4747   3.588   0.135   2.385
 1581SOL    HW1 4748   3.661   0.118   2.318
 1581SOL    HW2 4749   3.557   0.048   2.423
 1582SOL     OW 4750   3.250   1.573   2.339
 1582SOL    HW1 4751   3.317   1.585   2.265
 1582SOL    HW2 4752   3.210   1.662   2.362
 1583SOL     OW 4753   1.992   1.794   3.713
 1583SOL    HW1 4754   1.951   1.720   3.766
 1583SOL    HW2 4755   2.056   1.845   3.771
 1584SOL     OW 4756   3.142   0.927   2.534
 1584SOL    HW1 4757   3.202   0.846   2.536
 1584SOL    HW2 4758   3.182   0.996   2.474
 1585SOL     OW 4759   2.692   1.273   3.284
 1585SOL    HW1 4760   2.687   1.306   3.379
 1585SOL    HW2 4761   2.606   1.292   3.238
 1586SOL     OW 4762   2.534   1.616   2.016
 1586SOL    HW1 4763   2.543   1.626   1.917
 1586SOL    HW2 4764   2.494   1.527   2.037
 1587SOL     OW 4765   3.512   1.720   3.256
 1587SOL    HW1 4766   3.565   1.730   3.172
 1587SOL    HW2 4767   3.485   1.810   3.290
 1588SOL     OW 4768   3.703   0.175   2.825
 1588SOL    HW1 4769   3.742   0.090   2.789
 1588SOL    HW2 4770   3.605   0.177   2.806
 1589SOL     OW 4771   2.125   0.326   2.582
 1589SOL    HW1 4772   2.046   0.377   2.548
 1589SOL    HW2 4773   2.116   0.311   2.680
 1590SOL     OW 4774   3.056   1.612   1.893
 1590SOL    HW1 4775   3.062   1.519   1.930
 1590SOL    HW2 4776   2.997   1.612   1.813
 1591SOL     OW 4777   2.684   1.002   3.234
 1591SOL    HW1 4778   2.724   1.001   3.142
 1591SOL    HW2 4779   2.694   1.094   3.274
 1592SOL     OW 4780   2.778   0.910   2.153
 1592SOL    HW1 4781   2.841   0.948   2.085
 1592SOL    HW2 4782   2.818   0.827   2.192
 1593SOL     OW 4783   3.366   1.607   1.906
 1593SOL    HW1 4784   3.274   1.644   1.913
 1593SOL    HW2 4785   3.404   1.627   1.816
 1594SOL     OW 4786   2.234   1.288   3.352
 1594SOL    HW1 4787   2.221   1.381   3.318
 1594SOL    HW2 4788   2.150   1.236   3.339
 1595SOL     OW 4789   3.476   1.292   3.151
 1595SOL    HW1 4790   3.536   1.295   3.231
 1595SOL    HW2 4791   3.401   1.356   3.164
 1596SOL     OW 4792   2.901   1.098   2.558
 1596SOL    HW1 4793   2.831   1.051   2.612
 1596SOL    HW2 4794   2.960   1.030   2.515
 1597SOL     OW 4795   2.876   0.236   2.833
 1597SOL    HW1 4796   2.868   0.200   2.740
 1597SOL    HW2 4797   2.874   0.160   2.898
 1598SOL     OW 4798   2.452   1.487   2.353
 1598SOL    HW1 4799   2.494   1.429   2.283
 1598SOL    HW2 4800   2.408   1.566   2.309
 1599SOL     OW 4801   3.571   0.385   3.243
 1599SOL    HW1 4802   3.644   0.454   3.247
 1599SOL    HW2 4803   3.599   0.310   3.184
 1600SOL     OW 4804   2.117   1.348   2.152
 1600SOL    HW1 4805   2.021   1.349   2.125
 1600SOL    HW2 4806   2.129   1.401   2.236
 1601SOL     OW 4807   1.967   1.013   3.588
 1601SOL    HW1 4808   1.890   0.980   3.642
 1601SOL    HW2 4809   2.052   0.983   3.630
 1602SOL     OW 4810   2.534   0.203   3.351
 1602SOL    HW1 4811   2.624   0.187   3.311
 1602SOL    HW2 4812   2.542   0.208   3.450
 1603SOL     OW 4813   1.937   0.345   1.895
 1603SOL    HW1 4814   1.845   0.317   1.866
 1603SOL    HW2 4815   1.968   0.422   1.839
 1604SOL     OW 4816   3.302   0.856   3.260
 1604SOL    HW1 4817   3.245   0.908   3.197
 1604SOL    HW2 4818   3.398   0.868   3.236
 1605SOL     OW 4819   1.934   0.166   2.180
 1605SOL    HW1 4820   1.917   0.249   2.126
 1605SOL    HW2 4821   2.024   0.129   2.158
 1606SOL     OW 4822   3.045   1.335   1.981
 1606SOL    HW1 4823   2.946   1.324   1.983
 1606SOL    HW2 4824   3.079   1.350   2.074
 1607SOL     OW 4825   2.475   0.842   3.293
 1607SOL    HW1 4826   2.531   0.923   3.276
 1607SOL    HW2 4827   2.534   0.762   3.296
 1608SOL     OW 4828   3.355   1.767   2.821
 1608SOL    HW1 4829   3.388   1.831   2.752
 1608SOL    HW2 4830   3.421   1.761   2.896
 1609SOL     OW 4831   2.578   0.565   3.570
 1609SOL    HW1 4832   2.597   0.630   3.644
 1609SOL    HW2 4833   2.638   0.485   3.579
 1610SOL     OW 4834   3.312   1.220   3.495
 1610SOL    HW1 4835   3.303   1.210   3.594
 1610SOL    HW2 4836   3.408   1.213   3.469
 1611SOL     OW 4837   2.252   1.741   3.422
 1611SOL    HW1 4838   2.161   1.782   3.420
 1611SOL    HW2 4839   2.245   1.647   3.454
 1612SOL     OW 4840   3.536   0.883   3.116
 1612SOL    HW1 4841   3.509   0.794   3.079
 1612SOL    HW2 4842   3.537   0.951   3.043
 1613SOL     OW 4843   3.087   0.325   2.311
 1613SOL    HW1 4844   3.152   0.251   2.300
 1613SOL    HW2 4845   3.107   0.375   2.395
 1614SOL     OW 4846   2.456   0.745   2.514
 1614SOL    HW1 4847   2.506   0.830   2.495
 1614SOL    HW2 4848   2.368   0.747   2.466
 1615SOL     OW 4849   3.639   0.342   3.504
 1615SOL    HW1 4850   3.622   0.373   3.410
 1615SOL    HW2 4851   3.555   0.305   3.542
 1616SOL     OW 4852   3.592   0.934   3.379
 1616SOL    HW1 4853   3.630   1.025   3.394
 1616SOL    HW2 4854   3.584   0.917   3.280
 1617SOL     OW 4855   2.721   1.374   1.878
 1617SOL    HW1 4856   2.675   1.389   1.966
 1617SOL    HW2 4857   2.765   1.459   1.848
 1618SOL     OW 4858   2.523   1.790   2.815
 1618SOL    HW1 4859   2.477   1.878   2.802
 1618SOL    HW2 4860   2.622   1.802   2.808
 1619SOL     OW 4861   2.721   0.956   2.723
 1619SOL    HW1 4862   2.775   0.887   2.771
 1619SOL    HW2 4863   2.689   1.025   2.789
 1620SOL     OW 4864   2.945   0.984   1.949
 1620SOL    HW1 4865   2.922   1.037   1.867
 1620SOL    HW2 4866   3.026   0.928   1.930
 1621SOL     OW 4867   3.723   1.569   2.713
 1621SOL    HW1 4868   3.652   1.557   2.643
 1621SOL    HW2 4869   3.724   1.490   2.773
 1622SOL     OW 4870   2.083   1.314   3.706
 1622SOL    HW1 4871   2.018   1.241   3.685
 1622SOL    HW2 4872   2.087   1.328   3.804
 1623SOL     OW 4873   1.941   1.240   2.515
 1623SOL    HW1 4874   1.940   1.193   2.603
 1623SOL    HW2 4875   2.023   1.212   2.464
 1624SOL     OW 4876   2.534   1.391   3.486
 1624SOL    HW1 4877   2.456   1.341   3.524
 1624SOL    HW2 4878   2.531   1.486   3.517
 1625SOL     OW 4879   3.686   0.192   3.089
 1625SOL    HW1 4880   3.682   0.102   3.133
 1625SOL    HW2 4881   3.689   0.181   2.990
 1626SOL     OW 4882   2.290   0.424   2.382
 1626SOL    HW1 4883   2.320   0.352   2.320
 1626SOL    HW2 4884   2.251   0.384   2.465
 1627SOL     OW 4885   3.567   1.487   2.966
 1627SOL    HW1 4886   3.474   1.462   2.939
 1627SOL    HW2 4887   3.593   1.437   3.048
 1628SOL     OW 4888   2.179   0.547   3.142
 1628SOL    HW1 4889   2.217   0.488   3.214
 1628SOL    HW2 4890   2.219   0.521   3.054
 1629SOL     OW 4891   2.674   1.586   2.549
 1629SOL    HW1 4892   2.706   1.596   2.455
 1629SOL    HW2 4893   2.595   1.524   2.551
 1630SOL     OW 4894   3.286   0.214   2.974
 1630SOL    HW1 4895   3.338   0.149   3.029
 1630SOL    HW2 4896   3.237   0.277   3.035
 1631SOL     OW 4897   2.863   0.034   3.016
 1631SOL    HW1 4898   2.800  -0.038   2.985
 1631SOL    HW2 4899   2.956  -0.002   3.016
 1632SOL     OW 4900   2.632   1.330   2.163
 1632SOL    HW1 4901   2.586   1.243   2.180
 1632SOL    HW2 4902   2.723   1.327   2.204
 1633SOL     OW 4903   2.480   1.567   3.146
 1633SOL    HW1 4904   2.475   1.649   3.203
 1633SOL    HW2 4905   2.569   1.564   3.101
 1634SOL     OW 4906   3.214   0.052   2.030
 1634SOL    HW1 4907   3.249   0.011   1.946
 1634SOL    HW2 4908   3.124   0.014   2.050
 1635SOL     OW 4909   3.162   0.453   2.553
 1635SOL    HW1 4910   3.103   0.533   2.557
 1635SOL    HW2 4911   3.177   0.418   2.646
 1636SOL     OW 4912   3.455   0.221   2.744
 1636SOL    HW1 4913   3.371   0.220   2.798
 1636SOL    HW2 4914   3.457   0.304   2.688
 1637SOL     OW 4915   1.901   1.077   2.162
 1637SOL    HW1 4916   2.000   1.066   2.153
 1637SOL    HW2 4917   1.861   0.991   2.194
 1638SOL     OW 4918   2.737   1.646   2.199
 1638SOL    HW1 4919   2.660   1.611   2.145
 1638SOL    HW2 4920   2.705   1.717   2.261
 1639SOL     OW 4921   2.092   0.628   3.837
 1639SOL    HW1 4922   1.999   0.626   3.874
 1639SOL    HW2 4923   2.093   0.589   3.745
 1640SOL     OW 4924   2.087   0.275   4.720
 1640SOL    HW1 4925   2.122   0.258   4.812
 1640SOL    HW2 4926   1.999   0.230   4.708
 1641SOL     OW 4927   3.617   0.607   3.955
 1641SOL    HW1 4928   3.605   0.594   3.856
 1641SOL    HW2 4929   3.587   0.526   4.004
 1642SOL     OW 4930   3.465   0.447   4.461
 1642SOL    HW1 4931   3.391   0.493   4.411
 1642SOL    HW2 4932   3.516   0.515   4.514
 1643SOL     OW 4933   2.093   1.713   4.207
 1643SOL    HW1 4934   2.127   1.790   4.261
 1643SOL    HW2 4935   2.137   1.713   4.117
 1644SOL     OW 4936   2.092   1.434   4.262
 1644SOL    HW1 4937   2.066   1.530   4.262
 1644SOL    HW2 4938   2.021   1.380   4.307
 1645SOL     OW 4939   2.468   0.964   3.847
 1645SOL    HW1 4940   2.475   1.048   3.793
 1645SOL    HW2 4941   2.514   0.977   3.935
 1646SOL     OW 4942   1.984   0.643   4.287
 1646SOL    HW1 4943   1.939   0.555   4.304
 1646SOL    HW2 4944   1.983   0.697   4.371
 1647SOL     OW 4945   3.704   1.767   4.083
 1647SOL    HW1 4946   3.758   1.738   4.163
 1647SOL    HW2 4947   3.734   1.857   4.054
 1648SOL     OW 4948   1.889   1.596   3.841
 1648SOL    HW1 4949   1.870   1.500   3.862
 1648SOL    HW2 4950   1.856   1.654   3.916
 1649SOL     OW 4951   3.551   0.922   4.336
 1649SOL    HW1 4952   3.646   0.893   4.344
 1649SOL    HW2 4953   3.543   0.987   4.261
 1650SOL     OW 4954   3.503   1.108   4.156
 1650SOL    HW1 4955   3.589   1.110   4.104
 1650SOL    HW2 4956   3.517   1.155   4.244
 1651SOL     OW 4957   2.475   1.365   4.450
 1651SOL    HW1 4958   2.426   1.278   4.459
 1651SOL    HW2 4959   2.452   1.408   4.363
 1652SOL     OW 4960   2.671   0.004   4.226
 1652SOL    HW1 4961   2.711   0.095   4.217
 1652SOL    HW2 4962   2.571   0.012   4.232
 1653SOL     OW 4963   3.387   0.999   3.914
 1653SOL    HW1 4964   3.324   0.923   3.927
 1653SOL    HW2 4965   3.435   1.017   4.000
 1654SOL     OW 4966   3.328   1.417   4.677
 1654SOL    HW1 4967   3.269   1.423   4.757
 1654SOL    HW2 4968   3.313   1.329   4.631
 1655SOL     OW 4969   2.460   0.729   3.994
 1655SOL    HW1 4970   2.484   0.798   3.926
 1655SOL    HW2 4971   2.382   0.762   4.048
 1656SOL     OW 4972   3.143   0.345   4.668
 1656SOL    HW1 4973   3.057   0.295   4.655
 1656SOL    HW2 4974   3.205   0.291   4.724
 1657SOL     OW 4975   3.438   1.662   4.031
 1657SOL    HW1 4976   3.527   1.708   4.034
 1657SOL    HW2 4977   3.417   1.638   3.936
 1658SOL     OW 4978   2.903   0.701   4.153
 1658SOL    HW1 4979   2.929   0.697   4.249
 1658SOL    HW2 4980   2.818   0.650   4.139
 1659SOL     OW 4981   1.938   0.811   4.513
 1659SOL    HW1 4982   2.037   0.799   4.522
 1659SOL    HW2 4983   1.914   0.906   4.534
 1660SOL     OW 4984   2.727   0.348   3.919
 1660SOL    HW1 4985   2.786   0.411   3.870
 1660SOL    HW2 4986   2.746   0.254   3.890
 1661SOL     OW 4987   3.224   1.144   4.269
 1661SOL    HW1 4988   3.307   1.115   4.221
 1661SOL    HW2 4989   3.175   1.211   4.213
 1662SOL     OW 4990   2.870   1.456   4.201
 1662SOL    HW1 4991   2.824   1.528   4.149
 1662SOL    HW2 4992   2.866   1.476   4.299
 1663SOL     OW 4993   2.213   1.801   4.577
 1663SOL    HW1 4994   2.263   1.715   4.583
 1663SOL    HW2 4995   2.278   1.878   4.574
 1664SOL     OW 4996   3.657   1.066   4.597
 1664SOL    HW1 4997   3.595   1.051   4.521
 1664SOL    HW2 4998   3.605   1.077   4.682
 1665SOL     OW 4999   2.183   0.943   3.966
 1665SOL    HW1 5000   2.265   0.982   3.924
 1665SOL    HW2 5001   2.156   0.861   3.917
 1666SOL     OW 5002   2.973   1.776   3.961
 1666SOL    HW1 5003   2.913   1.714   4.011
 1666SOL    HW2 5004   3.004   1.732   3.876
 1667SOL     OW 5005   3.494   1.377   3.805
 1667SOL    HW1 5006   3.462   1.471   3.795
 1667SOL    HW2 5007   3.418   1.314   3.793
 1668SOL     OW 5008   2.326   1.743   4.047
 1668SOL    HW1 5009   2.359   1.782   4.133
 1668SOL    HW2 5010   2.402   1.736   3.982
 1669SOL     OW 5011   3.262   0.107   4.150
 1669SOL    HW1 5012   3.238   0.070   4.060
 1669SOL    HW2 5013   3.361   0.123   4.154
 1670SOL     OW 5014   2.244   0.700   4.204
 1670SOL    HW1 5015   2.289   0.610   4.201
 1670SOL    HW2 5016   2.150   0.689   4.237
 1671SOL     OW 5017   2.476   0.122   3.841
 1671SOL    HW1 5018   2.574   0.100   3.848
 1671SOL    HW2 5019   2.445   0.105   3.748
 1672SOL     OW 5020   2.401   0.064   4.236
 1672SOL    HW1 5021   2.320   0.065   4.294
 1672SOL    HW2 5022   2.404   0.147   4.181
 1673SOL     OW 5023   3.296   1.188   3.765
 1673SOL    HW1 5024   3.328   1.112   3.822
 1673SOL    HW2 5025   3.204   1.215   3.795
 1674SOL     OW 5026   2.159   0.035   3.895
 1674SOL    HW1 5027   2.208   0.119   3.874
 1674SOL    HW2 5028   2.221  -0.030   3.940
 1675SOL     OW 5029   2.797   0.236   4.204
 1675SOL    HW1 5030   2.749   0.277   4.126
 1675SOL    HW2 5031   2.896   0.234   4.185
 1676SOL     OW 5032   2.321   1.152   4.465
 1676SOL    HW1 5033   2.250   1.125   4.530
 1676SOL    HW2 5034   2.295   1.124   4.372
 1677SOL     OW 5035   3.133   1.797   4.315
 1677SOL    HW1 5036   3.177   1.861   4.251
 1677SOL    HW2 5037   3.083   1.849   4.385
 1678SOL     OW 5038   2.894   0.549   3.740
 1678SOL    HW1 5039   2.853   0.631   3.701
 1678SOL    HW2 5040   2.958   0.575   3.813
 1679SOL     OW 5041   2.728   0.454   4.366
 1679SOL    HW1 5042   2.696   0.526   4.304
 1679SOL    HW2 5043   2.752   0.373   4.313
 1680SOL     OW 5044   3.328   0.590   4.716
 1680SOL    HW1 5045   3.298   0.495   4.723
 1680SOL    HW2 5046   3.401   0.606   4.782
 1681SOL     OW 5047   3.719   0.833   4.101
 1681SOL    HW1 5048   3.761   0.769   4.165
 1681SOL    HW2 5049   3.681   0.782   4.023
 1682SOL     OW 5050   2.350   1.385   3.898
 1682SOL    HW1 5051   2.263   1.370   3.945
 1682SOL    HW2 5052   2.333   1.411   3.803
 1683SOL     OW 5053   3.252   0.575   3.802
 1683SOL    HW1 5054   3.198   0.554   3.883
 1683SOL    HW2 5055   3.343   0.534   3.811
 1684SOL     OW 5056   2.389   0.256   4.052
 1684SOL    HW1 5057   2.416   0.197   3.977
 1684SOL    HW2 5058   2.389   0.351   4.021
 1685SOL     OW 5059   2.567   1.050   4.092
 1685SOL    HW1 5060   2.553   1.057   4.191
 1685SOL    HW2 5061   2.651   0.999   4.074
 1686SOL     OW 5062   2.229   1.100   4.225
 1686SOL    HW1 5063   2.222   1.183   4.169
 1686SOL    HW2 5064   2.233   1.020   4.165
 1687SOL     OW 5065   3.114   1.348   4.112
 1687SOL    HW1 5066   3.164   1.425   4.152
 1687SOL    HW2 5067   3.019   1.350   4.144
 1688SOL     OW 5068   3.444   0.639   4.196
 1688SOL    HW1 5069   3.413   0.700   4.269
 1688SOL    HW2 5070   3.494   0.691   4.127
 1689SOL     OW 5071   3.071   0.525   3.999
 1689SOL    HW1 5072   3.084   0.441   4.053
 1689SOL    HW2 5073   3.042   0.599   4.059
 1690SOL     OW 5074   2.169   0.063   4.342
 1690SOL    HW1 5075   2.158   0.157   4.375
 1690SOL    HW2 5076   2.164   0.000   4.419
 1691SOL     OW 5077   3.484   0.367   4.098
 1691SOL    HW1 5078   3.486   0.291   4.162
 1691SOL    HW2 5079   3.436   0.444   4.138
 1692SOL     OW 5080   3.402   0.274   3.849
 1692SOL    HW1 5081   3.341   0.199   3.872
 1692SOL    HW2 5082   3.424   0.326   3.932
 1693SOL     OW 5083   3.165   0.838   3.766
 1693SOL    HW1 5084   3.199   0.745   3.781
 1693SOL    HW2 5085   3.183   0.865   3.671
 1694SOL     OW 5086   1.870   1.326   3.924
 1694SOL    HW1 5087   1.777   1.347   3.893
 1694SOL    HW2 5088   1.880   1.227   3.937
 1695SOL     OW 5089   2.677   0.572   4.049
 1695SOL    HW1 5090   2.684   0.483   4.003
 1695SOL    HW2 5091   2.583   0.606   4.041
 1696SOL     OW 5092   2.335   0.500   3.915
 1696SOL    HW1 5093   2.396   0.580   3.919
 1696SOL    HW2 5094   2.240   0.531   3.922
 1697SOL     OW 5095   3.164   0.855   4.033
 1697SOL    HW1 5096   3.078   0.824   4.075
 1697SOL    HW2 5097   3.160   0.841   3.934
 1698SOL     OW 5098   3.588   0.135   4.247
 1698SOL    HW1 5099   3.661   0.118   4.180
 1698SOL    HW2 5100   3.557   0.048   4.285
 1699SOL     OW 5101   3.250   1.573   4.201
 1699SOL    HW1 5102   3.317   1.585   4.127
 1699SOL    HW2 5103   3.210   1.662   4.224
 1700SOL     OW 5104   2.534   1.616   3.878
 1700SOL    HW1 5105   2.543   1.626   3.779
 1700SOL    HW2 5106   2.494   1.527   3.899
 1701SOL     OW 5107   3.703   0.175   4.687
 1701SOL    HW1 5108   3.742   0.090   4.651
 1701SOL    HW2 5109   3.605   0.177   4.668
 1702SOL     OW 5110   3.056   1.612   3.755
 1702SOL    HW1 5111   3.062   1.519   3.792
 1702SOL    HW2 5112   2.997   1.612   3.675
 1703SOL     OW 5113   2.778   0.910   4.015
 1703SOL    HW1 5114   2.841   0.948   3.947
 1703SOL    HW2 5115   2.818   0.827   4.054
 1704SOL     OW 5116   3.366   1.607   3.768
 1704SOL    HW1 5117   3.274   1.644   3.775
 1704SOL    HW2 5118   3.404   1.627   3.678
 1705SOL     OW 5119   2.452   1.487   4.215
 1705SOL    HW1 5120   2.494   1.429   4.145
 1705SOL    HW2 5121   2.408   1.566   4.171
 1706SOL     OW 5122   2.117   1.348   4.014
 1706SOL    HW1 5123   2.021   1.349   3.987
 1706SOL    HW2 5124   2.129   1.401   4.098
 1707SOL     OW 5125   1.937   0.345   3.757
 1707SOL    HW1 5126   1.845   0.317   3.728
 1707SOL    HW2 5127   1.968   0.422   3.701
 1708SOL     OW 5128   1.934   0.166   4.042
 1708SOL    HW1 5129   1.917   0.249   3.988
 1708SOL    HW2 5130   2.024   0.129   4.020
 1709SOL     OW 5131   3.045   1.335   3.843
 1709SOL    HW1 5132   2.946   1.324   3.845
 1709SOL    HW2 5133   3.079   1.350   3.936
 1710SOL     OW 5134   3.087   0.325   4.173
 1710SOL    HW1 5135   3.152   0.251   4.162
 1710SOL    HW2 5136   3.107   0.375   4.257
 1711SOL     OW 5137   2.456   0.745   4.376
 1711SOL    HW1 5138   2.506   0.830   4.357
 1711SOL    HW2 5139   2.368   0.747   4.328
 1712SOL     OW 5140   2.721   1.374   3.740
 1712SOL    HW1 5141   2.675   1.389   3.828
 1712SOL    HW2 5142   2.765   1.459   3.710
 1713SOL     OW 5143   2.945   0.984   3.811
 1713SOL    HW1 5144   2.922   1.037   3.729
 1713SOL    HW2 5145   3.026   0.928   3.792
 1714SOL     OW 5146   1.941   1.240   4.377
 1714SOL    HW1 5147   1.940   1.193   4.465
 1714SOL    HW2 5148   2.023   1.212   4.326
 1715SOL     OW 5149   2.290   0.424   4.244
 1715SOL    HW1 5150   2.320   0.352   4.182
 1715SOL    HW2 5151   2.251   0.384   4.327
 1716SOL     OW 5152   2.674   1.586   4.411
 1716SOL    HW1 5153   2.706   1.596   4.317
 1716SOL    HW2 5154   2.595   1.524   4.413
 1717SOL     OW 5155   2.632   1.330   4.025
 1717SOL    HW1 5156   2.586   1.243   4.042
 1717SOL    HW2 5157   2.723   1.327   4.066
 1718SOL     OW 5158   3.214   0.052   3.892
 1718SOL    HW1 5159   3.249   0.011   3.808
 1718SOL    HW2 5160   3.124   0.014   3.912
 1719SOL     OW 5161   3.162   0.453   4.415
 1719SOL    HW1 5162   3.103   0.533   4.419
 1719SOL    HW2 5163   3.177   0.418   4.508
 1720SOL     OW 5164   1.901   1.077   4.024
 1720SOL    HW1 5165   2.000   1.066   4.015
 1720SOL    HW2 5166   1.861   0.991   4.056
 1721SOL     OW 5167   2.737   1.646   4.061
 1721SOL    HW1 5168   2.660   1.611   4.007
 1721SOL    HW2 5169   2.705   1.717   4.123
 1722SOL     OW 5170   2.092   2.490   0.113
 1722SOL    HW1 5171   1.999   2.488   0.150
 1722SOL    HW2 5172   2.093   2.451   0.021
 1723SOL     OW 5173   2.087   2.137   0.996
 1723SOL    HW1 5174   2.122   2.120   1.088
 1723SOL    HW2 5175   1.999   2.092   0.984
 1724SOL     OW 5176   1.881   2.230   0.647
 1724SOL    HW1 5177   1.799   2.273   0.686
 1724SOL    HW2 5178   1.853   2.157   0.584
 1725SOL     OW 5179   2.431   3.137   1.165
 1725SOL    HW1 5180   2.338   3.130   1.128
 1725SOL    HW2 5181   2.442   3.226   1.209
 1726SOL     OW 5182   3.417   3.373   0.703
 1726SOL    HW1 5183   3.360   3.357   0.784
 1726SOL    HW2 5184   3.358   3.383   0.623
 1727SOL     OW 5185   2.997   2.565   0.717
 1727SOL    HW1 5186   3.054   2.643   0.692
 1727SOL    HW2 5187   2.937   2.591   0.793
 1728SOL     OW 5188   3.617   2.469   0.231
 1728SOL    HW1 5189   3.605   2.456   0.132
 1728SOL    HW2 5190   3.587   2.388   0.280
 1729SOL     OW 5191   2.630   3.006   1.023
 1729SOL    HW1 5192   2.552   3.023   1.083
 1729SOL    HW2 5193   2.664   3.093   0.987
 1730SOL     OW 5194   2.712   2.660   1.823
 1730SOL    HW1 5195   2.708   2.736   1.888
 1730SOL    HW2 5196   2.734   2.696   1.732
 1731SOL     OW 5197   2.547   2.874   0.665
 1731SOL    HW1 5198   2.616   2.858   0.735
 1731SOL    HW2 5199   2.474   2.931   0.703
 1732SOL     OW 5200   2.548   3.023   1.803
 1732SOL    HW1 5201   2.608   3.102   1.817
 1732SOL    HW2 5202   2.462   3.054   1.762
 1733SOL     OW 5203   2.197   3.297   1.061
 1733SOL    HW1 5204   2.119   3.266   1.008
 1733SOL    HW2 5205   2.255   3.355   1.004
 1734SOL     OW 5206   3.322   3.367   1.339
 1734SOL    HW1 5207   3.346   3.461   1.365
 1734SOL    HW2 5208   3.306   3.313   1.421
 1735SOL     OW 5209   2.300   2.254   1.499
 1735SOL    HW1 5210   2.382   2.198   1.508
 1735SOL    HW2 5211   2.219   2.196   1.503
 1736SOL     OW 5212   3.465   2.309   0.737
 1736SOL    HW1 5213   3.391   2.355   0.687
 1736SOL    HW2 5214   3.516   2.377   0.790
 1737SOL     OW 5215   2.093   3.575   0.483
 1737SOL    HW1 5216   2.127   3.652   0.537
 1737SOL    HW2 5217   2.137   3.575   0.393
 1738SOL     OW 5218   2.989   3.203   1.690
 1738SOL    HW1 5219   3.036   3.203   1.778
 1738SOL    HW2 5220   2.941   3.116   1.679
 1739SOL     OW 5221   2.092   3.296   0.538
 1739SOL    HW1 5222   2.066   3.392   0.538
 1739SOL    HW2 5223   2.021   3.242   0.583
 1740SOL     OW 5224   2.102   2.953   0.886
 1740SOL    HW1 5225   2.116   2.869   0.938
 1740SOL    HW2 5226   2.047   3.017   0.941
 1741SOL     OW 5227   2.482   3.648   1.439
 1741SOL    HW1 5228   2.390   3.631   1.474
 1741SOL    HW2 5229   2.510   3.740   1.465
 1742SOL     OW 5230   2.468   2.826   0.123
 1742SOL    HW1 5231   2.475   2.910   0.069
 1742SOL    HW2 5232   2.514   2.839   0.211
 1743SOL     OW 5233   3.456   1.976   1.480
 1743SOL    HW1 5234   3.438   2.043   1.408
 1743SOL    HW2 5235   3.453   2.022   1.569
 1744SOL     OW 5236   1.984   2.505   0.563
 1744SOL    HW1 5237   1.939   2.417   0.580
 1744SOL    HW2 5238   1.983   2.559   0.647
 1745SOL     OW 5239   3.704   3.629   0.359
 1745SOL    HW1 5240   3.758   3.600   0.439
 1745SOL    HW2 5241   3.734   3.719   0.330
 1746SOL     OW 5242   1.889   3.458   0.117
 1746SOL    HW1 5243   1.870   3.362   0.138
 1746SOL    HW2 5244   1.856   3.516   0.192
 1747SOL     OW 5245   3.551   2.784   0.612
 1747SOL    HW1 5246   3.646   2.755   0.620
 1747SOL    HW2 5247   3.543   2.849   0.537
 1748SOL     OW 5248   3.503   2.970   0.432
 1748SOL    HW1 5249   3.589   2.972   0.380
 1748SOL    HW2 5250   3.517   3.017   0.520
 1749SOL     OW 5251   1.975   2.599   1.597
 1749SOL    HW1 5252   2.063   2.586   1.642
 1749SOL    HW2 5253   1.962   2.696   1.575
 1750SOL     OW 5254   2.475   3.227   0.726
 1750SOL    HW1 5255   2.426   3.140   0.735
 1750SOL    HW2 5256   2.452   3.270   0.639
 1751SOL     OW 5257   3.155   3.090   1.423
 1751SOL    HW1 5258   3.192   3.017   1.365
 1751SOL    HW2 5259   3.207   3.095   1.508
 1752SOL     OW 5260   2.671   1.866   0.502
 1752SOL    HW1 5261   2.711   1.957   0.493
 1752SOL    HW2 5262   2.571   1.874   0.508
 1753SOL     OW 5263   2.059   2.838   1.264
 1753SOL    HW1 5264   2.148   2.793   1.250
 1753SOL    HW2 5265   1.986   2.773   1.245
 1754SOL     OW 5266   3.387   2.861   0.190
 1754SOL    HW1 5267   3.324   2.785   0.203
 1754SOL    HW2 5268   3.435   2.879   0.276
 1755SOL     OW 5269   3.049   3.654   1.616
 1755SOL    HW1 5270   3.073   3.714   1.540
 1755SOL    HW2 5271   3.056   3.559   1.586
 1756SOL     OW 5272   2.179   2.113   1.801
 1756SOL    HW1 5273   2.250   2.184   1.807
 1756SOL    HW2 5274   2.091   2.152   1.829
 1757SOL     OW 5275   3.328   3.279   0.953
 1757SOL    HW1 5276   3.269   3.285   1.033
 1757SOL    HW2 5277   3.313   3.191   0.907
 1758SOL     OW 5278   3.529   3.576   0.572
 1758SOL    HW1 5279   3.488   3.553   0.484
 1758SOL    HW2 5280   3.511   3.502   0.637
 1759SOL     OW 5281   2.460   2.591   0.270
 1759SOL    HW1 5282   2.484   2.660   0.202
 1759SOL    HW2 5283   2.382   2.624   0.324
 1760SOL     OW 5284   3.143   2.207   0.944
 1760SOL    HW1 5285   3.057   2.157   0.931
 1760SOL    HW2 5286   3.205   2.153   1.000
 1761SOL     OW 5287   3.438   3.524   0.307
 1761SOL    HW1 5288   3.527   3.570   0.310
 1761SOL    HW2 5289   3.417   3.500   0.212
 1762SOL     OW 5290   2.669   2.467   1.465
 1762SOL    HW1 5291   2.622   2.464   1.554
 1762SOL    HW2 5292   2.618   2.412   1.399
 1763SOL     OW 5293   3.256   2.331   1.674
 1763SOL    HW1 5294   3.236   2.374   1.762
 1763SOL    HW2 5295   3.334   2.269   1.683
 1764SOL     OW 5296   2.835   2.752   1.572
 1764SOL    HW1 5297   2.881   2.668   1.543
 1764SOL    HW2 5298   2.779   2.786   1.497
 1765SOL     OW 5299   2.853   2.272   1.242
 1765SOL    HW1 5300   2.776   2.306   1.296
 1765SOL    HW2 5301   2.819   2.221   1.163
 1766SOL     OW 5302   2.903   2.563   0.429
 1766SOL    HW1 5303   2.929   2.559   0.525
 1766SOL    HW2 5304   2.818   2.512   0.415
 1767SOL     OW 5305   1.938   2.673   0.789
 1767SOL    HW1 5306   2.037   2.661   0.798
 1767SOL    HW2 5307   1.914   2.768   0.810
 1768SOL     OW 5308   1.992   3.683   1.571
 1768SOL    HW1 5309   1.982   3.668   1.670
 1768SOL    HW2 5310   1.906   3.719   1.535
 1769SOL     OW 5311   2.727   2.210   0.195
 1769SOL    HW1 5312   2.786   2.273   0.146
 1769SOL    HW2 5313   2.746   2.116   0.166
 1770SOL     OW 5314   3.581   2.447   1.831
 1770SOL    HW1 5315   3.555   2.536   1.795
 1770SOL    HW2 5316   3.579   2.379   1.758
 1771SOL     OW 5317   3.224   3.006   0.545
 1771SOL    HW1 5318   3.307   2.977   0.497
 1771SOL    HW2 5319   3.175   3.073   0.489
 1772SOL     OW 5320   2.412   2.058   0.885
 1772SOL    HW1 5321   2.407   2.053   0.985
 1772SOL    HW2 5322   2.414   2.154   0.856
 1773SOL     OW 5323   2.870   3.318   0.477
 1773SOL    HW1 5324   2.824   3.390   0.425
 1773SOL    HW2 5325   2.866   3.338   0.575
 1774SOL     OW 5326   2.213   3.663   0.853
 1774SOL    HW1 5327   2.263   3.577   0.859
 1774SOL    HW2 5328   2.278   3.740   0.850
 1775SOL     OW 5329   3.657   2.928   0.873
 1775SOL    HW1 5330   3.595   2.913   0.797
 1775SOL    HW2 5331   3.605   2.939   0.958
 1776SOL     OW 5332   3.089   3.412   1.506
 1776SOL    HW1 5333   3.095   3.335   1.570
 1776SOL    HW2 5334   3.037   3.386   1.426
 1777SOL     OW 5335   2.183   2.805   0.242
 1777SOL    HW1 5336   2.265   2.844   0.200
 1777SOL    HW2 5337   2.156   2.723   0.193
 1778SOL     OW 5338   3.320   2.597   0.728
 1778SOL    HW1 5339   3.315   2.532   0.803
 1778SOL    HW2 5340   3.400   2.656   0.741
 1779SOL     OW 5341   2.323   3.128   1.727
 1779SOL    HW1 5342   2.273   3.129   1.641
 1779SOL    HW2 5343   2.260   3.110   1.803
 1780SOL     OW 5344   2.973   3.638   0.237
 1780SOL    HW1 5345   2.913   3.576   0.287
 1780SOL    HW2 5346   3.004   3.594   0.152
 1781SOL     OW 5347   2.064   2.147   1.498
 1781SOL    HW1 5348   1.984   2.207   1.485
 1781SOL    HW2 5349   2.054   2.098   1.584
 1782SOL     OW 5350   3.494   3.239   0.081
 1782SOL    HW1 5351   3.462   3.333   0.071
 1782SOL    HW2 5352   3.418   3.176   0.069
 1783SOL     OW 5353   2.326   3.605   0.323
 1783SOL    HW1 5354   2.359   3.644   0.409
 1783SOL    HW2 5355   2.402   3.598   0.258
 1784SOL     OW 5356   3.262   1.969   0.426
 1784SOL    HW1 5357   3.238   1.932   0.336
 1784SOL    HW2 5358   3.361   1.985   0.430
 1785SOL     OW 5359   2.111   3.647   1.241
 1785SOL    HW1 5360   2.168   3.582   1.291
 1785SOL    HW2 5361   2.095   3.614   1.148
 1786SOL     OW 5362   2.802   3.560   0.904
 1786SOL    HW1 5363   2.882   3.503   0.925
 1786SOL    HW2 5364   2.753   3.520   0.827
 1787SOL     OW 5365   2.244   2.562   0.480
 1787SOL    HW1 5366   2.289   2.472   0.477
 1787SOL    HW2 5367   2.150   2.551   0.513
 1788SOL     OW 5368   3.409   2.084   1.729
 1788SOL    HW1 5369   3.404   2.121   1.821
 1788SOL    HW2 5370   3.337   2.015   1.717
 1789SOL     OW 5371   2.476   1.984   0.117
 1789SOL    HW1 5372   2.574   1.962   0.124
 1789SOL    HW2 5373   2.445   1.967   0.024
 1790SOL     OW 5374   2.643   2.126   1.749
 1790SOL    HW1 5375   2.710   2.065   1.792
 1790SOL    HW2 5376   2.570   2.145   1.814
 1791SOL     OW 5377   2.750   3.376   1.195
 1791SOL    HW1 5378   2.727   3.351   1.101
 1791SOL    HW2 5379   2.811   3.307   1.234
 1792SOL     OW 5380   3.213   2.452   1.433
 1792SOL    HW1 5381   3.241   2.409   1.518
 1792SOL    HW2 5382   3.238   2.548   1.434
 1793SOL     OW 5383   2.665   3.264   0.924
 1793SOL    HW1 5384   2.755   3.278   0.882
 1793SOL    HW2 5385   2.594   3.266   0.853
 1794SOL     OW 5386   2.784   2.365   0.899
 1794SOL    HW1 5387   2.759   2.356   0.803
 1794SOL    HW2 5388   2.832   2.283   0.930
 1795SOL     OW 5389   2.401   1.926   0.512
 1795SOL    HW1 5390   2.320   1.927   0.570
 1795SOL    HW2 5391   2.404   2.009   0.457
 1796SOL     OW 5392   3.296   3.050   0.041
 1796SOL    HW1 5393   3.328   2.974   0.098
 1796SOL    HW2 5394   3.204   3.077   0.071
 1797SOL     OW 5395   2.797   2.098   0.480
 1797SOL    HW1 5396   2.749   2.139   0.402
 1797SOL    HW2 5397   2.896   2.096   0.461
 1798SOL     OW 5398   2.938   2.545   1.464
 1798SOL    HW1 5399   2.858   2.484   1.467
 1798SOL    HW2 5400   3.019   2.492   1.440
 1799SOL     OW 5401   3.089   3.432   0.793
 1799SOL    HW1 5402   3.110   3.506   0.728
 1799SOL    HW2 5403   3.157   3.432   0.866
 1800SOL     OW 5404   2.321   3.014   0.741
 1800SOL    HW1 5405   2.250   2.987   0.806
 1800SOL    HW2 5406   2.295   2.986   0.648
 1801SOL     OW 5407   3.133   3.659   0.591
 1801SOL    HW1 5408   3.177   3.723   0.527
 1801SOL    HW2 5409   3.083   3.711   0.661
 1802SOL     OW 5410   2.894   2.411   0.016
 1802SOL    HW1 5411   2.853   2.493  -0.023
 1802SOL    HW2 5412   2.958   2.437   0.089
 1803SOL     OW 5413   1.940   2.418   1.386
 1803SOL    HW1 5414   2.032   2.417   1.345
 1803SOL    HW2 5415   1.934   2.492   1.453
 1804SOL     OW 5416   2.423   2.084   1.147
 1804SOL    HW1 5417   2.461   2.000   1.184
 1804SOL    HW2 5418   2.335   2.103   1.191
 1805SOL     OW 5419   2.728   2.316   0.642
 1805SOL    HW1 5420   2.696   2.388   0.580
 1805SOL    HW2 5421   2.752   2.235   0.589
 1806SOL     OW 5422   2.879   1.901   0.753
 1806SOL    HW1 5423   2.807   1.906   0.684
 1806SOL    HW2 5424   2.855   1.832   0.822
 1807SOL     OW 5425   3.291   3.035   0.867
 1807SOL    HW1 5426   3.236   2.951   0.860
 1807SOL    HW2 5427   3.317   3.064   0.775
 1808SOL     OW 5428   3.328   2.452   0.992
 1808SOL    HW1 5429   3.298   2.357   0.999
 1808SOL    HW2 5430   3.401   2.468   1.058
 1809SOL     OW 5431   3.719   2.695   0.377
 1809SOL    HW1 5432   3.761   2.631   0.441
 1809SOL    HW2 5433   3.681   2.644   0.299
 1810SOL     OW 5434   2.350   3.247   0.174
 1810SOL    HW1 5435   2.263   3.232   0.221
 1810SOL    HW2 5436   2.333   3.273   0.079
 1811SOL     OW 5437   3.526   3.142   0.657
 1811SOL    HW1 5438   3.625   3.150   0.671
 1811SOL    HW2 5439   3.481   3.226   0.688
 1812SOL     OW 5440   3.252   2.437   0.078
 1812SOL    HW1 5441   3.198   2.416   0.159
 1812SOL    HW2 5442   3.343   2.396   0.087
 1813SOL     OW 5443   2.389   2.118   0.328
 1813SOL    HW1 5444   2.416   2.059   0.253
 1813SOL    HW2 5445   2.389   2.213   0.297
 1814SOL     OW 5446   3.616   3.085   1.588
 1814SOL    HW1 5447   3.707   3.046   1.575
 1814SOL    HW2 5448   3.624   3.181   1.612
 1815SOL     OW 5449   2.926   3.209   1.340
 1815SOL    HW1 5450   2.846   3.186   1.395
 1815SOL    HW2 5451   3.009   3.183   1.389
 1816SOL     OW 5452   3.454   3.491   1.625
 1816SOL    HW1 5453   3.481   3.525   1.535
 1816SOL    HW2 5454   3.533   3.453   1.671
 1817SOL     OW 5455   2.973   3.057   1.100
 1817SOL    HW1 5456   2.933   3.101   1.181
 1817SOL    HW2 5457   2.932   3.094   1.017
 1818SOL     OW 5458   3.500   2.961   1.079
 1818SOL    HW1 5459   3.505   3.042   1.138
 1818SOL    HW2 5460   3.414   2.963   1.028
 1819SOL     OW 5461   2.777   1.951   1.402
 1819SOL    HW1 5462   2.802   1.931   1.307
 1819SOL    HW2 5463   2.849   2.007   1.444
 1820SOL     OW 5464   2.842   2.978   1.719
 1820SOL    HW1 5465   2.743   2.984   1.729
 1820SOL    HW2 5466   2.865   2.898   1.663
 1821SOL     OW 5467   2.567   2.912   0.368
 1821SOL    HW1 5468   2.553   2.919   0.467
 1821SOL    HW2 5469   2.651   2.861   0.350
 1822SOL     OW 5470   2.272   2.675   1.251
 1822SOL    HW1 5471   2.358   2.687   1.301
 1822SOL    HW2 5472   2.230   2.588   1.278
 1823SOL     OW 5473   3.136   2.248   1.262
 1823SOL    HW1 5474   3.157   2.322   1.326
 1823SOL    HW2 5475   3.047   2.265   1.219
 1824SOL     OW 5476   1.926   3.426   1.331
 1824SOL    HW1 5477   1.880   3.508   1.297
 1824SOL    HW2 5478   2.024   3.445   1.340
 1825SOL     OW 5479   2.229   2.962   0.501
 1825SOL    HW1 5480   2.222   3.045   0.445
 1825SOL    HW2 5481   2.233   2.882   0.441
 1826SOL     OW 5482   2.428   2.399   0.865
 1826SOL    HW1 5483   2.440   2.465   0.791
 1826SOL    HW2 5484   2.474   2.433   0.948
 1827SOL     OW 5485   3.114   3.210   0.388
 1827SOL    HW1 5486   3.164   3.287   0.428
 1827SOL    HW2 5487   3.019   3.212   0.420
 1828SOL     OW 5488   3.134   3.307   1.142
 1828SOL    HW1 5489   3.181   3.320   1.229
 1828SOL    HW2 5490   3.068   3.233   1.151
 1829SOL     OW 5491   3.444   2.501   0.472
 1829SOL    HW1 5492   3.413   2.562   0.545
 1829SOL    HW2 5493   3.494   2.553   0.403
 1830SOL     OW 5494   2.216   3.372   1.329
 1830SOL    HW1 5495   2.195   3.328   1.242
 1830SOL    HW2 5496   2.313   3.398   1.332
 1831SOL     OW 5497   2.264   2.613   1.598
 1831SOL    HW1 5498   2.332   2.668   1.551
 1831SOL    HW2 5499   2.304   2.525   1.625
 1832SOL     OW 5500   3.449   2.641   1.670
 1832SOL    HW1 5501   3.357   2.679   1.665
 1832SOL    HW2 5502   3.509   2.688   1.605
 1833SOL     OW 5503   2.875   1.967   1.770
 1833SOL    HW1 5504   2.881   2.052   1.718
 1833SOL    HW2 5505   2.907   1.891   1.713
 1834SOL     OW 5506   2.366   1.912   1.740
 1834SOL    HW1 5507   2.324   1.855   1.670
 1834SOL    HW2 5508   2.300   1.981   1.772
 1835SOL     OW 5509   2.435   2.732   1.029
 1835SOL    HW1 5510   2.479   2.821   1.020
 1835SOL    HW2 5511   2.372   2.732   1.106
 1836SOL     OW 5512   3.222   2.724   1.045
 1836SOL    HW1 5513   3.147   2.724   0.979
 1836SOL    HW2 5514   3.259   2.632   1.054
 1837SOL     OW 5515   3.071   2.387   0.275
 1837SOL    HW1 5516   3.084   2.303   0.329
 1837SOL    HW2 5517   3.042   2.461   0.335
 1838SOL     OW 5518   2.169   2.075   1.231
 1838SOL    HW1 5519   2.146   2.112   1.321
 1838SOL    HW2 5520   2.139   1.980   1.225
 1839SOL     OW 5521   1.899   3.172   1.282
 1839SOL    HW1 5522   1.952   3.123   1.350
 1839SOL    HW2 5523   1.921   3.270   1.287
 1840SOL     OW 5524   2.594   2.496   1.064
 1840SOL    HW1 5525   2.653   2.470   0.988
 1840SOL    HW2 5526   2.566   2.592   1.053
 1841SOL     OW 5527   3.590   2.797   1.854
 1841SOL    HW1 5528   3.544   2.790   1.765
 1841SOL    HW2 5529   3.528   2.841   1.920
 1842SOL     OW 5530   2.169   1.925   0.618
 1842SOL    HW1 5531   2.158   2.019   0.651
 1842SOL    HW2 5532   2.164   1.862   0.695
 1843SOL     OW 5533   3.484   2.229   0.374
 1843SOL    HW1 5534   3.486   2.153   0.438
 1843SOL    HW2 5535   3.436   2.306   0.414
 1844SOL     OW 5536   2.885   2.628   0.966
 1844SOL    HW1 5537   2.900   2.649   1.062
 1844SOL    HW2 5538   2.855   2.533   0.957
 1845SOL     OW 5539   2.842   3.435   1.700
 1845SOL    HW1 5540   2.822   3.479   1.612
 1845SOL    HW2 5541   2.881   3.344   1.684
 1846SOL     OW 5542   3.721   3.380   1.605
 1846SOL    HW1 5543   3.735   3.407   1.510
 1846SOL    HW2 5544   3.804   3.402   1.658
 1847SOL     OW 5545   2.212   2.760   1.804
 1847SOL    HW1 5546   2.288   2.804   1.852
 1847SOL    HW2 5547   2.247   2.713   1.722
 1848SOL     OW 5548   3.402   2.136   0.125
 1848SOL    HW1 5549   3.341   2.061   0.148
 1848SOL    HW2 5550   3.424   2.188   0.208
 1849SOL     OW 5551   3.165   2.700   0.042
 1849SOL    HW1 5552   3.199   2.607   0.057
 1849SOL    HW2 5553   3.183   2.727  -0.053
 1850SOL     OW 5554   2.930   3.195   0.849
 1850SOL    HW1 5555   2.937   3.111   0.794
 1850SOL    HW2 5556   2.992   3.264   0.813
 1851SOL     OW 5557   2.181   2.672   0.949
 1851SOL    HW1 5558   2.274   2.708   0.954
 1851SOL    HW2 5559   2.175   2.587   1.001
 1852SOL     OW 5560   2.201   2.371   1.006
 1852SOL    HW1 5561   2.149   2.288   0.989
 1852SOL    HW2 5562   2.278   2.376   0.942
 1853SOL     OW 5563   3.000   2.242   1.678
 1853SOL    HW1 5564   2.955   2.305   1.742
 1853SOL    HW2 5565   3.093   2.273   1.661
 1854SOL     OW 5566   3.022   2.069   1.477
 1854SOL    HW1 5567   3.022   2.133   1.554
 1854SOL    HW2 5568   3.050   2.117   1.394
 1855SOL     OW 5569   1.870   3.188   0.200
 1855SOL    HW1 5570   1.777   3.209   0.169
 1855SOL    HW2 5571   1.880   3.089   0.213
 1856SOL     OW 5572   1.950   3.663   0.927
 1856SOL    HW1 5573   1.908   3.577   0.900
 1856SOL    HW2 5574   2.044   3.666   0.893
 1857SOL     OW 5575   2.366   3.430   0.910
 1857SOL    HW1 5576   2.432   3.504   0.919
 1857SOL    HW2 5577   2.410   3.351   0.868
 1858SOL     OW 5578   2.864   2.658   1.238
 1858SOL    HW1 5579   2.905   2.626   1.324
 1858SOL    HW2 5580   2.768   2.631   1.235
 1859SOL     OW 5581   1.902   2.406   1.114
 1859SOL    HW1 5582   1.987   2.373   1.073
 1859SOL    HW2 5583   1.915   2.421   1.212
 1860SOL     OW 5584   2.051   2.382   1.722
 1860SOL    HW1 5585   2.110   2.342   1.652
 1860SOL    HW2 5586   1.993   2.453   1.681
 1861SOL     OW 5587   3.231   2.812   1.660
 1861SOL    HW1 5588   3.270   2.901   1.680
 1861SOL    HW2 5589   3.241   2.792   1.563
 1862SOL     OW 5590   2.677   2.434   0.325
 1862SOL    HW1 5591   2.684   2.345   0.279
 1862SOL    HW2 5592   2.583   2.468   0.317
 1863SOL     OW 5593   3.519   2.466   1.206
 1863SOL    HW1 5594   3.481   2.397   1.268
 1863SOL    HW2 5595   3.601   2.430   1.162
 1864SOL     OW 5596   2.114   3.426   1.744
 1864SOL    HW1 5597   2.084   3.483   1.820
 1864SOL    HW2 5598   2.107   3.329   1.770
 1865SOL     OW 5599   2.533   2.326   1.269
 1865SOL    HW1 5600   2.499   2.237   1.239
 1865SOL    HW2 5601   2.559   2.380   1.189
 1866SOL     OW 5602   2.792   3.540   1.465
 1866SOL    HW1 5603   2.768   3.522   1.370
 1866SOL    HW2 5604   2.822   3.634   1.475
 1867SOL     OW 5605   2.335   2.362   0.191
 1867SOL    HW1 5606   2.396   2.442   0.195
 1867SOL    HW2 5607   2.240   2.393   0.198
 1868SOL     OW 5608   2.021   2.999   1.466
 1868SOL    HW1 5609   2.043   2.938   1.542
 1868SOL    HW2 5610   2.031   2.950   1.380
 1869SOL     OW 5611   3.209   2.921   1.234
 1869SOL    HW1 5612   3.233   2.858   1.160
 1869SOL    HW2 5613   3.119   2.961   1.216
 1870SOL     OW 5614   3.164   2.717   0.309
 1870SOL    HW1 5615   3.078   2.686   0.351
 1870SOL    HW2 5616   3.160   2.703   0.210
 1871SOL     OW 5617   3.621   3.609   1.154
 1871SOL    HW1 5618   3.682   3.639   1.081
 1871SOL    HW2 5619   3.583   3.520   1.132
 1872SOL     OW 5620   3.114   3.593   1.128
 1872SOL    HW1 5621   3.198   3.598   1.074
 1872SOL    HW2 5622   3.091   3.497   1.146
 1873SOL     OW 5623   1.945   3.120   1.022
 1873SOL    HW1 5624   1.940   3.119   1.122
 1873SOL    HW2 5625   1.862   3.079   0.984
 1874SOL     OW 5626   2.550   3.524   1.716
 1874SOL    HW1 5627   2.494   3.605   1.725
 1874SOL    HW2 5628   2.602   3.528   1.630
 1875SOL     OW 5629   2.765   1.948   0.133
 1875SOL    HW1 5630   2.816   1.949   0.047
 1875SOL    HW2 5631   2.821   1.906   0.204
 1876SOL     OW 5632   3.588   1.997   0.523
 1876SOL    HW1 5633   3.661   1.980   0.456
 1876SOL    HW2 5634   3.557   1.910   0.561
 1877SOL     OW 5635   3.250   3.435   0.477
 1877SOL    HW1 5636   3.317   3.447   0.403
 1877SOL    HW2 5637   3.210   3.524   0.500
 1878SOL     OW 5638   1.992   3.656   1.851
 1878SOL    HW1 5639   1.951   3.582   1.904
 1878SOL    HW2 5640   2.056   3.707   1.909
 1879SOL     OW 5641   3.142   2.789   0.672
 1879SOL    HW1 5642   3.202   2.708   0.674
 1879SOL    HW2 5643   3.182   2.858   0.612
 1880SOL     OW 5644   2.692   3.135   1.422
 1880SOL    HW1 5645   2.687   3.168   1.517
 1880SOL    HW2 5646   2.606   3.154   1.376
 1881SOL     OW 5647   2.534   3.478   0.154
 1881SOL    HW1 5648   2.543   3.488   0.055
 1881SOL    HW2 5649   2.494   3.389   0.175
 1882SOL     OW 5650   3.512   3.582   1.394
 1882SOL    HW1 5651   3.565   3.592   1.310
 1882SOL    HW2 5652   3.485   3.672   1.428
 1883SOL     OW 5653   3.703   2.037   0.963
 1883SOL    HW1 5654   3.742   1.952   0.927
 1883SOL    HW2 5655   3.605   2.039   0.944
 1884SOL     OW 5656   2.125   2.188   0.720
 1884SOL    HW1 5657   2.046   2.239   0.686
 1884SOL    HW2 5658   2.116   2.173   0.818
 1885SOL     OW 5659   3.056   3.474   0.031
 1885SOL    HW1 5660   3.062   3.381   0.068
 1885SOL    HW2 5661   2.997   3.474  -0.049
 1886SOL     OW 5662   2.684   2.864   1.372
 1886SOL    HW1 5663   2.724   2.863   1.280
 1886SOL    HW2 5664   2.694   2.956   1.412
 1887SOL     OW 5665   2.778   2.772   0.291
 1887SOL    HW1 5666   2.841   2.810   0.223
 1887SOL    HW2 5667   2.818   2.689   0.330
 1888SOL     OW 5668   3.366   3.469   0.044
 1888SOL    HW1 5669   3.274   3.506   0.051
 1888SOL    HW2 5670   3.404   3.489  -0.046
 1889SOL     OW 5671   2.234   3.150   1.490
 1889SOL    HW1 5672   2.221   3.243   1.456
 1889SOL    HW2 5673   2.150   3.098   1.477
 1890SOL     OW 5674   3.476   3.154   1.289
 1890SOL    HW1 5675   3.536   3.157   1.369
 1890SOL    HW2 5676   3.401   3.218   1.302
 1891SOL     OW 5677   2.901   2.960   0.696
 1891SOL    HW1 5678   2.831   2.913   0.750
 1891SOL    HW2 5679   2.960   2.892   0.653
 1892SOL     OW 5680   2.876   2.098   0.971
 1892SOL    HW1 5681   2.868   2.062   0.878
 1892SOL    HW2 5682   2.874   2.022   1.036
 1893SOL     OW 5683   2.452   3.349   0.491
 1893SOL    HW1 5684   2.494   3.291   0.421
 1893SOL    HW2 5685   2.408   3.428   0.447
 1894SOL     OW 5686   3.571   2.247   1.381
 1894SOL    HW1 5687   3.644   2.316   1.385
 1894SOL    HW2 5688   3.599   2.172   1.322
 1895SOL     OW 5689   2.117   3.210   0.290
 1895SOL    HW1 5690   2.021   3.211   0.263
 1895SOL    HW2 5691   2.129   3.263   0.374
 1896SOL     OW 5692   1.967   2.875   1.726
 1896SOL    HW1 5693   1.890   2.842   1.780
 1896SOL    HW2 5694   2.052   2.845   1.768
 1897SOL     OW 5695   2.534   2.065   1.489
 1897SOL    HW1 5696   2.624   2.049   1.449
 1897SOL    HW2 5697   2.542   2.070   1.588
 1898SOL     OW 5698   1.937   2.207   0.033
 1898SOL    HW1 5699   1.845   2.179   0.004
 1898SOL    HW2 5700   1.968   2.284  -0.023
 1899SOL     OW 5701   3.302   2.718   1.398
 1899SOL    HW1 5702   3.245   2.770   1.335
 1899SOL    HW2 5703   3.398   2.730   1.374
 1900SOL     OW 5704   3.045   3.197   0.119
 1900SOL    HW1 5705   2.946   3.186   0.121
 1900SOL    HW2 5706   3.079   3.212   0.212
 1901SOL     OW 5707   2.475   2.704   1.431
 1901SOL    HW1 5708   2.531   2.785   1.414
 1901SOL    HW2 5709   2.534   2.624   1.434
 1902SOL     OW 5710   3.355   3.629   0.959
 1902SOL    HW1 5711   3.388   3.693   0.890
 1902SOL    HW2 5712   3.421   3.623   1.034
 1903SOL     OW 5713   2.578   2.427   1.708
 1903SOL    HW1 5714   2.597   2.492   1.782
 1903SOL    HW2 5715   2.638   2.347   1.717
 1904SOL     OW 5716   3.312   3.082   1.633
 1904SOL    HW1 5717   3.303   3.072   1.732
 1904SOL    HW2 5718   3.408   3.075   1.607
 1905SOL     OW 5719   2.252   3.603   1.560
 1905SOL    HW1 5720   2.161   3.644   1.558
 1905SOL    HW2 5721   2.245   3.509   1.592
 1906SOL     OW 5722   3.536   2.745   1.254
 1906SOL    HW1 5723   3.509   2.656   1.217
 1906SOL    HW2 5724   3.537   2.813   1.181
 1907SOL     OW 5725   3.087   2.187   0.449
 1907SOL    HW1 5726   3.152   2.113   0.438
 1907SOL    HW2 5727   3.107   2.237   0.533
 1908SOL     OW 5728   2.456   2.607   0.652
 1908SOL    HW1 5729   2.506   2.692   0.633
 1908SOL    HW2 5730   2.368   2.609   0.604
 1909SOL     OW 5731   3.639   2.204   1.642
 1909SOL    HW1 5732   3.622   2.235   1.548
 1909SOL    HW2 5733   3.555   2.167   1.680
 1910SOL     OW 5734   3.592   2.796   1.517
 1910SOL    HW1 5735   3.630   2.887   1.532
 1910SOL    HW2 5736   3.584   2.779   1.418
 1911SOL     OW 5737   2.721   3.236   0.016
 1911SOL    HW1 5738   2.675   3.251   0.104
 1911SOL    HW2 5739   2.765   3.321  -0.014
 1912SOL     OW 5740   2.523   3.652   0.953
 1912SOL    HW1 5741   2.477   3.740   0.940
 1912SOL    HW2 5742   2.622   3.664   0.946
 1913SOL     OW 5743   2.721   2.818   0.861
 1913SOL    HW1 5744   2.775   2.749   0.909
 1913SOL    HW2 5745   2.689   2.887   0.927
 1914SOL     OW 5746   2.945   2.846   0.087
 1914SOL    HW1 5747   2.922   2.899   0.005
 1914SOL    HW2 5748   3.026   2.790   0.068
 1915SOL     OW 5749   3.723   3.431   0.851
 1915SOL    HW1 5750   3.652   3.419   0.781
 1915SOL    HW2 5751   3.724   3.352   0.911
 1916SOL     OW 5752   2.083   3.176   1.844
 1916SOL    HW1 5753   2.018   3.103   1.823
 1916SOL    HW2 5754   2.087   3.190   1.942
 1917SOL     OW 5755   1.941   3.102   0.653
 1917SOL    HW1 5756   1.940   3.055   0.741
 1917SOL    HW2 5757   2.023   3.074   0.602
 1918SOL     OW 5758   2.534   3.253   1.624
 1918SOL    HW1 5759   2.456   3.203   1.662
 1918SOL    HW2 5760   2.531   3.348   1.655
 1919SOL     OW 5761   3.686   2.054   1.227
 1919SOL    HW1 5762   3.682   1.964   1.271
 1919SOL    HW2 5763   3.689   2.043   1.128
 1920SOL     OW 5764   2.290   2.286   0.520
 1920SOL    HW1 5765   2.320   2.214   0.458
 1920SOL    HW2 5766   2.251   2.246   0.603
 1921SOL     OW 5767   3.567   3.349   1.104
 1921SOL    HW1 5768   3.474   3.324   1.077
 1921SOL    HW2 5769   3.593   3.299   1.186
 1922SOL     OW 5770   2.179   2.409   1.280
 1922SOL    HW1 5771   2.217   2.350   1.352
 1922SOL    HW2 5772   2.219   2.383   1.192
 1923SOL     OW 5773   2.674   3.448   0.687
 1923SOL    HW1 5774   2.706   3.458   0.593
 1923SOL    HW2 5775   2.595   3.386   0.689
 1924SOL     OW 5776   3.286   2.076   1.112
 1924SOL    HW1 5777   3.338   2.011   1.167
 1924SOL    HW2 5778   3.237   2.139   1.173
 1925SOL     OW 5779   2.863   1.896   1.154
 1925SOL    HW1 5780   2.800   1.824   1.123
 1925SOL    HW2 5781   2.956   1.860   1.154
 1926SOL     OW 5782   2.632   3.192   0.301
 1926SOL    HW1 5783   2.586   3.105   0.318
 1926SOL    HW2 5784   2.723   3.189   0.342
 1927SOL     OW 5785   2.480   3.429   1.284
 1927SOL    HW1 5786   2.475   3.511   1.341
 1927SOL    HW2 5787   2.569   3.426   1.239
 1928SOL     OW 5788   3.214   1.914   0.168
 1928SOL    HW1 5789   3.249   1.873   0.084
 1928SOL    HW2 5790   3.124   1.876   0.188
 1929SOL     OW 5791   3.162   2.315   0.691
 1929SOL    HW1 5792   3.103   2.395   0.695
 1929SOL    HW2 5793   3.177   2.280   0.784
 1930SOL     OW 5794   3.455   2.083   0.882
 1930SOL    HW1 5795   3.371   2.082   0.936
 1930SOL    HW2 5796   3.457   2.166   0.826
 1931SOL     OW 5797   1.901   2.939   0.300
 1931SOL    HW1 5798   2.000   2.928   0.291
 1931SOL    HW2 5799   1.861   2.853   0.332
 1932SOL     OW 5800   2.737   3.508   0.337
 1932SOL    HW1 5801   2.660   3.473   0.283
 1932SOL    HW2 5802   2.705   3.579   0.399
 1933SOL     OW 5803   2.092   2.490   1.975
 1933SOL    HW1 5804   1.999   2.488   2.012
 1933SOL    HW2 5805   2.093   2.451   1.883
 1934SOL     OW 5806   2.087   2.137   2.858
 1934SOL    HW1 5807   2.122   2.120   2.950
 1934SOL    HW2 5808   1.999   2.092   2.846
 1935SOL     OW 5809   1.881   2.230   2.509
 1935SOL    HW1 5810   1.799   2.273   2.548
 1935SOL    HW2 5811   1.853   2.157   2.446
 1936SOL     OW 5812   2.431   3.137   3.027
 1936SOL    HW1 5813   2.338   3.130   2.990
 1936SOL    HW2 5814   2.442   3.226   3.071
 1937SOL     OW 5815   3.417   3.373   2.565
 1937SOL    HW1 5816   3.360   3.357   2.646
 1937SOL    HW2 5817   3.358   3.383   2.485
 1938SOL     OW 5818   2.997   2.565   2.579
 1938SOL    HW1 5819   3.054   2.643   2.554
 1938SOL    HW2 5820   2.937   2.591   2.655
 1939SOL     OW 5821   3.617   2.469   2.093
 1939SOL    HW1 5822   3.605   2.456   1.994
 1939SOL    HW2 5823   3.587   2.388   2.142
 1940SOL     OW 5824   2.630   3.006   2.885
 1940SOL    HW1 5825   2.552   3.023   2.945
 1940SOL    HW2 5826   2.664   3.093   2.849
 1941SOL     OW 5827   2.712   2.660   3.685
 1941SOL    HW1 5828   2.708   2.736   3.750
 1941SOL    HW2 5829   2.734   2.696   3.594
 1942SOL     OW 5830   2.547   2.874   2.527
 1942SOL    HW1 5831   2.616   2.858   2.597
 1942SOL    HW2 5832   2.474   2.931   2.565
 1943SOL     OW 5833   2.548   3.023   3.665
 1943SOL    HW1 5834   2.608   3.102   3.679
 1943SOL    HW2 5835   2.462   3.054   3.624
 1944SOL     OW 5836   2.197   3.297   2.923
 1944SOL    HW1 5837   2.119   3.266   2.870
 1944SOL    HW2 5838   2.255   3.355   2.866
 1945SOL     OW 5839   3.322   3.367   3.201
 1945SOL    HW1 5840   3.346   3.461   3.227
 1945SOL    HW2 5841   3.306   3.313   3.283
 1946SOL     OW 5842   2.300   2.254   3.361
 1946SOL    HW1 5843   2.382   2.198   3.370
 1946SOL    HW2 5844   2.219   2.196   3.365
 1947SOL     OW 5845   3.465   2.309   2.599
 1947SOL    HW1 5846   3.391   2.355   2.549
 1947SOL    HW2 5847   3.516   2.377   2.652
 1948SOL     OW 5848   2.093   3.575   2.345
 1948SOL    HW1 5849   2.127   3.652   2.399
 1948SOL    HW2 5850   2.137   3.575   2.255
 1949SOL     OW 5851   2.989   3.203   3.552
 1949SOL    HW1 5852   3.036   3.203   3.640
 1949SOL    HW2 5853   2.941   3.116   3.541
 1950SOL     OW 5854   2.092   3.296   2.400
 1950SOL    HW1 5855   2.066   3.392   2.400
 1950SOL    HW2 5856   2.021   3.242   2.445
 1951SOL     OW 5857   2.102   2.953   2.748
 1951SOL    HW1 5858   2.116   2.869   2.800
 1951SOL    HW2 5859   2.047   3.017   2.803
 1952SOL     OW 5860   2.482   3.648   3.301
 1952SOL    HW1 5861   2.390   3.631   3.336
 1952SOL    HW2 5862   2.510   3.740   3.327
 1953SOL     OW 5863   2.468   2.826   1.985
 1953SOL    HW1 5864   2.475   2.910   1.931
 1953SOL    HW2 5865   2.514   2.839   2.073
 1954SOL     OW 5866   3.456   1.976   3.342
 1954SOL    HW1 5867   3.438   2.043   3.270
 1954SOL    HW2 5868   3.453   2.022   3.431
 1955SOL     OW 5869   1.984   2.505   2.425
 1955SOL    HW1 5870   1.939   2.417   2.442
 1955SOL    HW2 5871   1.983   2.559   2.509
 1956SOL     OW 5872   3.704   3.629   2.221
 1956SOL    HW1 5873   3.758   3.600   2.301
 1956SOL    HW2 5874   3.734   3.719   2.192
 1957SOL     OW 5875   1.889   3.458   1.979
 1957SOL    HW1 5876   1.870   3.362   2.000
 1957SOL    HW2 5877   1.856   3.516   2.054
 1958SOL     OW 5878   3.551   2.784   2.474
 1958SOL    HW1 5879   3.646   2.755   2.482
 1958SOL    HW2 5880   3.543   2.849   2.399
 1959SOL     OW 5881   3.503   2.970   2.294
 1959SOL    HW1 5882   3.589   2.972   2.242
 1959SOL    HW2 5883   3.517   3.017   2.382
 1960SOL     OW 5884   1.975   2.599   3.459
 1960SOL    HW1 5885   2.063   2.586   3.504
 1960SOL    HW2 5886   1.962   2.696   3.437
 1961SOL     OW 5887   2.475   3.227   2.588
 1961SOL    HW1 5888   2.426   3.140   2.597
 1961SOL    HW2 5889   2.452   3.270   2.501
 1962SOL     OW 5890   3.155   3.090   3.285
 1962SOL    HW1 5891   3.192   3.017   3.227
 1962SOL    HW2 5892   3.207   3.095   3.370
 1963SOL     OW 5893   2.671   1.866   2.364
 1963SOL    HW1 5894   2.711   1.957   2.355
 1963SOL    HW2 5895   2.571   1.874   2.370
 1964SOL     OW 5896   2.059   2.838   3.126
 1964SOL    HW1 5897   2.148   2.793   3.112
 1964SOL    HW2 5898   1.986   2.773   3.107
 1965SOL     OW 5899   3.387   2.861   2.052
 1965SOL    HW1 5900   3.324   2.785   2.065
 1965SOL    HW2 5901   3.435   2.879   2.138
 1966SOL     OW 5902   3.049   3.654   3.478
 1966SOL    HW1 5903   3.073   3.714   3.402
 1966SOL    HW2 5904   3.056   3.559   3.448
 1967SOL     OW 5905   2.179   2.113   3.663
 1967SOL    HW1 5906   2.250   2.184   3.669
 1967SOL    HW2 5907   2.091   2.152   3.691
 1968SOL     OW 5908   3.328   3.279   2.815
 1968SOL    HW1 5909   3.269   3.285   2.895
 1968SOL    HW2 5910   3.313   3.191   2.769
 1969SOL     OW 5911   3.529   3.576   2.434
 1969SOL    HW1 5912   3.488   3.553   2.346
 1969SOL    HW2 5913   3.511   3.502   2.499
 1970SOL     OW 5914   2.460   2.591   2.132
 1970SOL    HW1 5915   2.484   2.660   2.064
 1970SOL    HW2 5916   2.382   2.624   2.186
 1971SOL     OW 5917   3.143   2.207   2.806
 1971SOL    HW1 5918   3.057   2.157   2.793
 1971SOL    HW2 5919   3.205   2.153   2.862
 1972SOL     OW 5920   3.438   3.524   2.169
 1972SOL    HW1 5921   3.527   3.570   2.172
 1972SOL    HW2 5922   3.417   3.500   2.074
 1973SOL     OW 5923   2.669   2.467   3.327
 1973SOL    HW1 5924   2.622   2.464   3.416
 1973SOL    HW2 5925   2.618   2.412   3.261
 1974SOL     OW 5926   3.256   2.331   3.536
 1974SOL    HW1 5927   3.236   2.374   3.624
 1974SOL    HW2 5928   3.334   2.269   3.545
 1975SOL     OW 5929   2.835   2.752   3.434
 1975SOL    HW1 5930   2.881   2.668   3.405
 1975SOL    HW2 5931   2.779   2.786   3.359
 1976SOL     OW 5932   2.853   2.272   3.104
 1976SOL    HW1 5933   2.776   2.306   3.158
 1976SOL    HW2 5934   2.819   2.221   3.025
 1977SOL     OW 5935   2.903   2.563   2.291
 1977SOL    HW1 5936   2.929   2.559   2.387
 1977SOL    HW2 5937   2.818   2.512   2.277
 1978SOL     OW 5938   1.938   2.673   2.651
 1978SOL    HW1 5939   2.037   2.661   2.660
 1978SOL    HW2 5940   1.914   2.768   2.672
 1979SOL     OW 5941   1.992   3.683   3.433
 1979SOL    HW1 5942   1.982   3.668   3.532
 1979SOL    HW2 5943   1.906   3.719   3.397
 1980SOL     OW 5944   2.727   2.210   2.057
 1980SOL    HW1 5945   2.786   2.273   2.008
 1980SOL    HW2 5946   2.746   2.116   2.028
 1981SOL     OW 5947   3.581   2.447   3.693
 1981SOL    HW1 5948   3.555   2.536   3.657
 1981SOL    HW2 5949   3.579   2.379   3.620
 1982SOL     OW 5950   3.224   3.006   2.407
 1982SOL    HW1 5951   3.307   2.977   2.359
 1982SOL    HW2 5952   3.175   3.073   2.351
 1983SOL     OW 5953   2.412   2.058   2.747
 1983SOL    HW1 5954   2.407   2.053   2.847
 1983SOL    HW2 5955   2.414   2.154   2.718
 1984SOL     OW 5956   2.870   3.318   2.339
 1984SOL    HW1 5957   2.824   3.390   2.287
 1984SOL    HW2 5958   2.866   3.338   2.437
 1985SOL     OW 5959   2.213   3.663   2.715
 1985SOL    HW1 5960   2.263   3.577   2.721
 1985SOL    HW2 5961   2.278   3.740   2.712
 1986SOL     OW 5962   3.657   2.928   2.735
 1986SOL    HW1 5963   3.595   2.913   2.659
 1986SOL    HW2 5964   3.605   2.939   2.820
 1987SOL     OW 5965   3.089   3.412   3.368
 1987SOL    HW1 5966   3.095   3.335   3.432
 1987SOL    HW2 5967   3.037   3.386   3.288
 1988SOL     OW 5968   2.183   2.805   2.104
 1988SOL    HW1 5969   2.265   2.844   2.062
 1988SOL    HW2 5970   2.156   2.723   2.055
 1989SOL     OW 5971   3.320   2.597   2.590
 1989SOL    HW1 5972   3.315   2.532   2.665
 1989SOL    HW2 5973   3.400   2.656   2.603
 1990SOL     OW 5974   2.323   3.128   3.589
 1990SOL    HW1 5975   2.273   3.129   3.503
 1990SOL    HW2 5976   2.260   3.110   3.665
 1991SOL     OW 5977   2.973   3.638   2.099
 1991SOL    HW1 5978   2.913   3.576   2.149
 1991SOL    HW2 5979   3.004   3.594   2.014
 1992SOL     OW 5980   2.064   2.147   3.360
 1992SOL    HW1 5981   1.984   2.207   3.347
 1992SOL    HW2 5982   2.054   2.098   3.446
 1993SOL     OW 5983   3.494   3.239   1.943
 1993SOL    HW1 5984   3.462   3.333   1.933
 1993SOL    HW2 5985   3.418   3.176   1.931
 1994SOL     OW 5986   2.326   3.605   2.185
 1994SOL    HW1 5987   2.359   3.644   2.271
 1994SOL    HW2 5988   2.402   3.598   2.120
 1995SOL     OW 5989   3.262   1.969   2.288
 1995SOL    HW1 5990   3.238   1.932   2.198
 1995SOL    HW2 5991   3.361   1.985   2.292
 1996SOL     OW 5992   2.111   3.647   3.103
 1996SOL    HW1 5993   2.168   3.582   3.153
 1996SOL    HW2 5994   2.095   3.614   3.010
 1997SOL     OW 5995   2.802   3.560   2.766
 1997SOL    HW1 5996   2.882   3.503   2.787
 1997SOL    HW2 5997   2.753   3.520   2.689
 1998SOL     OW 5998   2.244   2.562   2.342
 1998SOL    HW1 5999   2.289   2.472   2.339
 1998SOL    HW2 6000   2.150   2.551   2.375
 1999SOL     OW 6001   3.409   2.084   3.591
 1999SOL    HW1 6002   3.404   2.121   3.683
 1999SOL    HW2 6003   3.337   2.015   3.579
 2000SOL     OW 6004   2.476   1.984   1.979
 2000SOL    HW1 6005   2.574   1.962   1.986
 2000SOL    HW2 6006   2.445   1.967   1.886
 2001SOL     OW 6007   2.643   2.126   3.611
 2001SOL    HW1 6008   2.710   2.065   3.654
 2001SOL    HW2 6009   2.570   2.145   3.676
 2002SOL     OW 6010   2.750   3.376   3.057
 2002SOL    HW1 6011   2.727   3.351   2.963
 2002SOL    HW2 6012   2.811   3.307   3.096
 2003SOL     OW 6013   3.213   2.452   3.295
 2003SOL    HW1 6014   3.241   2.409   3.380
 2003SOL    HW2 6015   3.238   2.548   3.296
 2004SOL     OW 6016   2.665   3.264   2.786
 2004SOL    HW1 6017   2.755   3.278   2.744
 2004SOL    HW2 6018   2.594   3.266   2.715
 2005SOL     OW 6019   2.784   2.365   2.761
 2005SOL    HW1 6020   2.759   2.356   2.665
 2005SOL    HW2 6021   2.832   2.283   2.792
 2006SOL     OW 6022   2.401   1.926   2.374
 2006SOL    HW1 6023   2.320   1.927   2.432
 2006SOL    HW2 6024   2.404   2.009   2.319
 2007SOL     OW 6025   3.296   3.050   1.903
 2007SOL    HW1 6026   3.328   2.974   1.960
 2007SOL    HW2 6027   3.204   3.077   1.933
 2008SOL     OW 6028   2.159   1.897   2.033
 2008SOL    HW1 6029   2.208   1.981   2.012
 2008SOL    HW2 6030   2.221   1.832   2.078
 2009SOL     OW 6031   2.797   2.098   2.342
 2009SOL    HW1 6032   2.749   2.139   2.264
 2009SOL    HW2 6033   2.896   2.096   2.323
 2010SOL     OW 6034   2.938   2.545   3.326
 2010SOL    HW1 6035   2.858   2.484   3.329
 2010SOL    HW2 6036   3.019   2.492   3.302
 2011SOL     OW 6037   3.089   3.432   2.655
 2011SOL    HW1 6038   3.110   3.506   2.590
 2011SOL    HW2 6039   3.157   3.432   2.728
 2012SOL     OW 6040   2.321   3.014   2.603
 2012SOL    HW1 6041   2.250   2.987   2.668
 2012SOL    HW2 6042   2.295   2.986   2.510
 2013SOL     OW 6043   3.133   3.659   2.453
 2013SOL    HW1 6044   3.177   3.723   2.389
 2013SOL    HW2 6045   3.083   3.711   2.523
 2014SOL     OW 6046   2.894   2.411   1.878
 2014SOL    HW1 6047   2.853   2.493   1.839
 2014SOL    HW2 6048   2.958   2.437   1.951
 2015SOL     OW 6049   1.940   2.418   3.248
 2015SOL    HW1 6050   2.032   2.417   3.207
 2015SOL    HW2 6051   1.934   2.492   3.315
 2016SOL     OW 6052   2.423   2.084   3.009
 2016SOL    HW1 6053   2.461   2.000   3.046
 2016SOL    HW2 6054   2.335   2.103   3.053
 2017SOL     OW 6055   2.728   2.316   2.504
 2017SOL    HW1 6056   2.696   2.388   2.442
 2017SOL    HW2 6057   2.752   2.235   2.451
 2018SOL     OW 6058   2.879   1.901   2.615
 2018SOL    HW1 6059   2.807   1.906   2.546
 2018SOL    HW2 6060   2.855   1.832   2.684
 2019SOL     OW 6061   3.291   3.035   2.729
 2019SOL    HW1 6062   3.236   2.951   2.722
 2019SOL    HW2 6063   3.317   3.064   2.637
 2020SOL     OW 6064   3.328   2.452   2.854
 2020SOL    HW1 6065   3.298   2.357   2.861
 2020SOL    HW2 6066   3.401   2.468   2.920
 2021SOL     OW 6067   3.719   2.695   2.239
 2021SOL    HW1 6068   3.761   2.631   2.303
 2021SOL    HW2 6069   3.681   2.644   2.161
 2022SOL     OW 6070   2.350   3.247   2.036
 2022SOL    HW1 6071   2.263   3.232   2.083
 2022SOL    HW2 6072   2.333   3.273   1.941
 2023SOL     OW 6073   3.526   3.142   2.519
 2023SOL    HW1 6074   3.625   3.150   2.533
 2023SOL    HW2 6075   3.481   3.226   2.550
 2024SOL     OW 6076   3.252   2.437   1.940
 2024SOL    HW1 6077   3.198   2.416   2.021
 2024SOL    HW2 6078   3.343   2.396   1.949
 2025SOL     OW 6079   3.616   3.085   3.450
 2025SOL    HW1 6080   3.707   3.046   3.437
 2025SOL    HW2 6081   3.624   3.181   3.474
 2026SOL     OW 6082   2.926   3.209   3.202
 2026SOL    HW1 6083   2.846   3.186   3.257
 2026SOL    HW2 6084   3.009   3.183   3.251
 2027SOL     OW 6085   3.454   3.491   3.487
 2027SOL    HW1 6086   3.481   3.525   3.397
 2027SOL    HW2 6087   3.533   3.453   3.533
 2028SOL     OW 6088   2.973   3.057   2.962
 2028SOL    HW1 6089   2.933   3.101   3.043
 2028SOL    HW2 6090   2.932   3.094   2.879
 2029SOL     OW 6091   3.500   2.961   2.941
 2029SOL    HW1 6092   3.505   3.042   3.000
 2029SOL    HW2 6093   3.414   2.963   2.890
 2030SOL     OW 6094   2.777   1.951   3.264
 2030SOL    HW1 6095   2.802   1.931   3.169
 2030SOL    HW2 6096   2.849   2.007   3.306
 2031SOL     OW 6097   2.842   2.978   3.581
 2031SOL    HW1 6098   2.743   2.984   3.591
 2031SOL    HW2 6099   2.865   2.898   3.525
 2032SOL     OW 6100   2.567   2.912   2.230
 2032SOL    HW1 6101   2.553   2.919   2.329
 2032SOL    HW2 6102   2.651   2.861   2.212
 2033SOL     OW 6103   2.272   2.675   3.113
 2033SOL    HW1 6104   2.358   2.687   3.163
 2033SOL    HW2 6105   2.230   2.588   3.140
 2034SOL     OW 6106   3.136   2.248   3.124
 2034SOL    HW1 6107   3.157   2.322   3.188
 2034SOL    HW2 6108   3.047   2.265   3.081
 2035SOL     OW 6109   1.926   3.426   3.193
 2035SOL    HW1 6110   1.880   3.508   3.159
 2035SOL    HW2 6111   2.024   3.445   3.202
 2036SOL     OW 6112   2.229   2.962   2.363
 2036SOL    HW1 6113   2.222   3.045   2.307
 2036SOL    HW2 6114   2.233   2.882   2.303
 2037SOL     OW 6115   2.428   2.399   2.727
 2037SOL    HW1 6116   2.440   2.465   2.653
 2037SOL    HW2 6117   2.474   2.433   2.810
 2038SOL     OW 6118   3.114   3.210   2.250
 2038SOL    HW1 6119   3.164   3.287   2.290
 2038SOL    HW2 6120   3.019   3.212   2.282
 2039SOL     OW 6121   3.134   3.307   3.004
 2039SOL    HW1 6122   3.181   3.320   3.091
 2039SOL    HW2 6123   3.068   3.233   3.013
 2040SOL     OW 6124   3.444   2.501   2.334
 2040SOL    HW1 6125   3.413   2.562   2.407
 2040SOL    HW2 6126   3.494   2.553   2.265
 2041SOL     OW 6127   2.216   3.372   3.191
 2041SOL    HW1 6128   2.195   3.328   3.104
 2041SOL    HW2 6129   2.313   3.398   3.194
 2042SOL     OW 6130   2.264   2.613   3.460
 2042SOL    HW1 6131   2.332   2.668   3.413
 2042SOL    HW2 6132   2.304   2.525   3.487
 2043SOL     OW 6133   3.449   2.641   3.532
 2043SOL    HW1 6134   3.357   2.679   3.527
 2043SOL    HW2 6135   3.509   2.688   3.467
 2044SOL     OW 6136   2.875   1.967   3.632
 2044SOL    HW1 6137   2.881   2.052   3.580
 2044SOL    HW2 6138   2.907   1.891   3.575
 2045SOL     OW 6139   2.366   1.912   3.602
 2045SOL    HW1 6140   2.324   1.855   3.532
 2045SOL    HW2 6141   2.300   1.981   3.634
 2046SOL     OW 6142   2.435   2.732   2.891
 2046SOL    HW1 6143   2.479   2.821   2.882
 2046SOL    HW2 6144   2.372   2.732   2.968
 2047SOL     OW 6145   3.222   2.724   2.907
 2047SOL    HW1 6146   3.147   2.724   2.841
 2047SOL    HW2 6147   3.259   2.632   2.916
 2048SOL     OW 6148   3.071   2.387   2.137
 2048SOL    HW1 6149   3.084   2.303   2.191
 2048SOL    HW2 6150   3.042   2.461   2.197
 2049SOL     OW 6151   2.169   2.075   3.093
 2049SOL    HW1 6152   2.146   2.112   3.183
 2049SOL    HW2 6153   2.139   1.980   3.087
 2050SOL     OW 6154   1.899   3.172   3.144
 2050SOL    HW1 6155   1.952   3.123   3.212
 2050SOL    HW2 6156   1.921   3.270   3.149
 2051SOL     OW 6157   2.594   2.496   2.926
 2051SOL    HW1 6158   2.653   2.470   2.850
 2051SOL    HW2 6159   2.566   2.592   2.915
 2052SOL     OW 6160   3.590   2.797   3.716
 2052SOL    HW1 6161   3.544   2.790   3.627
 2052SOL    HW2 6162   3.528   2.841   3.782
 2053SOL     OW 6163   2.169   1.925   2.480
 2053SOL    HW1 6164   2.158   2.019   2.513
 2053SOL    HW2 6165   2.164   1.862   2.557
 2054SOL     OW 6166   3.484   2.229   2.236
 2054SOL    HW1 6167   3.486   2.153   2.300
 2054SOL    HW2 6168   3.436   2.306   2.276
 2055SOL     OW 6169   2.885   2.628   2.828
 2055SOL    HW1 6170   2.900   2.649   2.924
 2055SOL    HW2 6171   2.855   2.533   2.819
 2056SOL     OW 6172   2.842   3.435   3.562
 2056SOL    HW1 6173   2.822   3.479   3.474
 2056SOL    HW2 6174   2.881   3.344   3.546
 2057SOL     OW 6175   3.721   3.380   3.467
 2057SOL    HW1 6176   3.735   3.407   3.372
 2057SOL    HW2 6177   3.804   3.402   3.520
 2058SOL     OW 6178   2.212   2.760   3.666
 2058SOL    HW1 6179   2.288   2.804   3.714
 2058SOL    HW2 6180   2.247   2.713   3.584
 2059SOL     OW 6181   3.402   2.136   1.987
 2059SOL    HW1 6182   3.341   2.061   2.010
 2059SOL    HW2 6183   3.424   2.188   2.070
 2060SOL     OW 6184   3.165   2.700   1.904
 2060SOL    HW1 6185   3.199   2.607   1.919
 2060SOL    HW2 6186   3.183   2.727   1.809
 2061SOL     OW 6187   2.930   3.195   2.711
 2061SOL    HW1 6188   2.937   3.111   2.656
 2061SOL    HW2 6189   2.992   3.264   2.675
 2062SOL     OW 6190   2.181   2.672   2.811
 2062SOL    HW1 6191   2.274   2.708   2.816
 2062SOL    HW2 6192   2.175   2.587   2.863
 2063SOL     OW 6193   2.201   2.371   2.868
 2063SOL    HW1 6194   2.149   2.288   2.851
 2063SOL    HW2 6195   2.278   2.376   2.804
 2064SOL     OW 6196   3.000   2.242   3.540
 2064SOL    HW1 6197   2.955   2.305   3.604
 2064SOL    HW2 6198   3.093   2.273   3.523
 2065SOL     OW 6199   3.022   2.069   3.339
 2065SOL    HW1 6200   3.022   2.133   3.416
 2065SOL    HW2 6201   3.050   2.117   3.256
 2066SOL     OW 6202   1.870   3.188   2.062
 2066SOL    HW1 6203   1.777   3.209   2.031
 2066SOL    HW2 6204   1.880   3.089   2.075
 2067SOL     OW 6205   1.950   3.663   2.789
 2067SOL    HW1 6206   1.908   3.577   2.762
 2067SOL    HW2 6207   2.044   3.666   2.755
 2068SOL     OW 6208   2.366   3.430   2.772
 2068SOL    HW1 6209   2.432   3.504   2.781
 2068SOL    HW2 6210   2.410   3.351   2.730
 2069SOL     OW 6211   2.864   2.658   3.100
 2069SOL    HW1 6212   2.905   2.626   3.186
 2069SOL    HW2 6213   2.768   2.631   3.097
 2070SOL     OW 6214   1.902   2.406   2.976
 2070SOL    HW1 6215   1.987   2.373   2.935
 2070SOL    HW2 6216   1.915   2.421   3.074
 2071SOL     OW 6217   2.051   2.382   3.584
 2071SOL    HW1 6218   2.110   2.342   3.514
 2071SOL    HW2 6219   1.993   2.453   3.543
 2072SOL     OW 6220   3.231   2.812   3.522
 2072SOL    HW1 6221   3.270   2.901   3.542
 2072SOL    HW2 6222   3.241   2.792   3.425
 2073SOL     OW 6223   2.677   2.434   2.187
 2073SOL    HW1 6224   2.684   2.345   2.141
 2073SOL    HW2 6225   2.583   2.468   2.179
 2074SOL     OW 6226   3.519   2.466   3.068
 2074SOL    HW1 6227   3.481   2.397   3.130
 2074SOL    HW2 6228   3.601   2.430   3.024
 2075SOL     OW 6229   2.114   3.426   3.606
 2075SOL    HW1 6230   2.084   3.483   3.682
 2075SOL    HW2 6231   2.107   3.329   3.632
 2076SOL     OW 6232   2.533   2.326   3.131
 2076SOL    HW1 6233   2.499   2.237   3.101
 2076SOL    HW2 6234   2.559   2.380   3.051
 2077SOL     OW 6235   2.792   3.540   3.327
 2077SOL    HW1 6236   2.768   3.522   3.232
 2077SOL    HW2 6237   2.822   3.634   3.337
 2078SOL     OW 6238   2.335   2.362   2.053
 2078SOL    HW1 6239   2.396   2.442   2.057
 2078SOL    HW2 6240   2.240   2.393   2.060
 2079SOL     OW 6241   2.021   2.999   3.328
 2079SOL    HW1 6242   2.043   2.938   3.404
 2079SOL    HW2 6243   2.031   2.950   3.242
 2080SOL     OW 6244   3.209   2.921   3.096
 2080SOL    HW1 6245   3.233   2.858   3.022
 2080SOL    HW2 6246   3.119   2.961   3.078
 2081SOL     OW 6247   3.164   2.717   2.171
 2081SOL    HW1 6248   3.078   2.686   2.213
 2081SOL    HW2 6249   3.160   2.703   2.072
 2082SOL     OW 6250   3.621   3.609   3.016
 2082SOL    HW1 6251   3.682   3.639   2.943
 2082SOL    HW2 6252   3.583   3.520   2.994
 2083SOL     OW 6253   3.114   3.593   2.990
 2083SOL    HW1 6254   3.198   3.598   2.936
 2083SOL    HW2 6255   3.091   3.497   3.008
 2084SOL     OW 6256   1.945   3.120   2.884
 2084SOL    HW1 6257   1.940   3.119   2.984
 2084SOL    HW2 6258   1.862   3.079   2.846
 2085SOL     OW 6259   2.550   3.524   3.578
 2085SOL    HW1 6260   2.494   3.605   3.587
 2085SOL    HW2 6261   2.602   3.528   3.492
 2086SOL     OW 6262   3.588   1.997   2.385
 2086SOL    HW1 6263   3.661   1.980   2.318
 2086SOL    HW2 6264   3.557   1.910   2.423
 2087SOL     OW 6265   3.250   3.435   2.339
 2087SOL    HW1 6266   3.317   3.447   2.265
 2087SOL    HW2 6267   3.210   3.524   2.362
 2088SOL     OW 6268   1.992   3.656   3.713
 2088SOL    HW1 6269   1.951   3.582   3.766
 2088SOL    HW2 6270   2.056   3.707   3.771
 2089SOL     OW 6271   3.142   2.789   2.534
 2089SOL    HW1 6272   3.202   2.708   2.536
 2089SOL    HW2 6273   3.182   2.858   2.474
 2090SOL     OW 6274   2.692   3.135   3.284
 2090SOL    HW1 6275   2.687   3.168   3.379
 2090SOL    HW2 6276   2.606   3.154   3.238
 2091SOL     OW 6277   2.534   3.478   2.016
 2091SOL    HW1 6278   2.543   3.488   1.917
 2091SOL    HW2 6279   2.494   3.389   2.037
 2092SOL     OW 6280   3.512   3.582   3.256
 2092SOL    HW1 6281   3.565   3.592   3.172
 2092SOL    HW2 6282   3.485   3.672   3.290
 2093SOL     OW 6283   3.703   2.037   2.825
 2093SOL    HW1 6284   3.742   1.952   2.789
 2093SOL    HW2 6285   3.605   2.039   2.806
 2094SOL     OW 6286   2.125   2.188   2.582
 2094SOL    HW1 6287   2.046   2.239   2.548
 2094SOL    HW2 6288   2.116   2.173   2.680
 2095SOL     OW 6289   3.056   3.474   1.893
 2095SOL    HW1 6290   3.062   3.381   1.930
 2095SOL    HW2 6291   2.997   3.474   1.813
 2096SOL     OW 6292   2.684   2.864   3.234
 2096SOL    HW1 6293   2.724   2.863   3.142
 2096SOL    HW2 6294   2.694   2.956   3.274
 2097SOL     OW 6295   2.778   2.772   2.153
 2097SOL    HW1 6296   2.841   2.810   2.085
 2097SOL    HW2 6297   2.818   2.689   2.192
 2098SOL     OW 6298   3.366   3.469   1.906
 2098SOL    HW1 6299   3.274   3.506   1.913
 2098SOL    HW2 6300   3.404   3.489   1.816
 2099SOL     OW 6301   2.234   3.150   3.352
 2099SOL    HW1 6302   2.221   3.243   3.318
 2099SOL    HW2 6303   2.150   3.098   3.339
 2100SOL     OW 6304   3.476   3.154   3.151
 2100SOL    HW1 6305   3.536   3.157   3.231
 2100SOL    HW2 6306   3.401   3.218   3.164
 2101SOL     OW 6307   2.901   2.960   2.558
 2101SOL    HW1 6308   2.831   2.913   2.612
 2101SOL    HW2 6309   2.960   2.892   2.515
 2102SOL     OW 6310   2.876   2.098   2.833
 2102SOL    HW1 6311   2.868   2.062   2.740
 2102SOL    HW2 6312   2.874   2.022   2.898
 2103SOL     OW 6313   2.452   3.349   2.353
 2103SOL    HW1 6314   2.494   3.291   2.283
 2103SOL    HW2 6315   2.408   3.428   2.309
 2104SOL     OW 6316   3.571   2.247   3.243
 2104SOL    HW1 6317   3.644   2.316   3.247
 2104SOL    HW2 6318   3.599   2.172   3.184
 2105SOL     OW 6319   2.117   3.210   2.152
 2105SOL    HW1 6320   2.021   3.211   2.125
 2105SOL    HW2 6321   2.129   3.263   2.236
 2106SOL     OW 6322   1.967   2.875   3.588
 2106SOL    HW1 6323   1.890   2.842   3.642
 2106SOL    HW2 6324   2.052   2.845   3.630
 2107SOL     OW 6325   2.534   2.065   3.351
 2107SOL    HW1 6326   2.624   2.049   3.311
 2107SOL    HW2 6327   2.542   2.070   3.450
 2108SOL     OW 6328   1.937   2.207   1.895
 2108SOL    HW1 6329   1.845   2.179   1.866
 2108SOL    HW2 6330   1.968   2.284   1.839
 2109SOL     OW 6331   3.302   2.718   3.260
 2109SOL    HW1 6332   3.245   2.770   3.197
 2109SOL    HW2 6333   3.398   2.730   3.236
 2110SOL     OW 6334   1.934   2.028   2.180
 2110SOL    HW1 6335   1.917   2.111   2.126
 2110SOL    HW2 6336   2.024   1.991   2.158
 2111SOL     OW 6337   3.045   3.197   1.981
 2111SOL    HW1 6338   2.946   3.186   1.983
 2111SOL    HW2 6339   3.079   3.212   2.074
 2112SOL     OW 6340   2.475   2.704   3.293
 2112SOL    HW1 6341   2.531   2.785   3.276
 2112SOL    HW2 6342   2.534   2.624   3.296
 2113SOL     OW 6343   3.355   3.629   2.821
 2113SOL    HW1 6344   3.388   3.693   2.752
 2113SOL    HW2 6345   3.421   3.623   2.896
 2114SOL     OW 6346   2.578   2.427   3.570
 2114SOL    HW1 6347   2.597   2.492   3.644
 2114SOL    HW2 6348   2.638   2.347   3.579
 2115SOL     OW 6349   3.312   3.082   3.495
 2115SOL    HW1 6350   3.303   3.072   3.594
 2115SOL    HW2 6351   3.408   3.075   3.469
 2116SOL     OW 6352   2.252   3.603   3.422
 2116SOL    HW1 6353   2.161   3.644   3.420
 2116SOL    HW2 6354   2.245   3.509   3.454
 2117SOL     OW 6355   3.536   2.745   3.116
 2117SOL    HW1 6356   3.509   2.656   3.079
 2117SOL    HW2 6357   3.537   2.813   3.043
 2118SOL     OW 6358   3.087   2.187   2.311
 2118SOL    HW1 6359   3.152   2.113   2.300
 2118SOL    HW2 6360   3.107   2.237   2.395
 2119SOL     OW 6361   2.456   2.607   2.514
 2119SOL    HW1 6362   2.506   2.692   2.495
 2119SOL    HW2 6363   2.368   2.609   2.466
 2120SOL     OW 6364   3.639   2.204   3.504
 2120SOL    HW1 6365   3.622   2.235   3.410
 2120SOL    HW2 6366   3.555   2.167   3.542
 2121SOL     OW 6367   3.592   2.796   3.379
 2121SOL    HW1 6368   3.630   2.887   3.394
 2121SOL    HW2 6369   3.584   2.779   3.280
 2122SOL     OW 6370   2.721   3.236   1.878
 2122SOL    HW1 6371   2.675   3.251   1.966
 2122SOL    HW2 6372   2.765   3.321   1.848
 2123SOL     OW 6373   2.523   3.652   2.815
 2123SOL    HW1 6374   2.477   3.740   2.802
 2123SOL    HW2 6375   2.622   3.664   2.808
 2124SOL     OW 6376   2.721   2.818   2.723
 2124SOL    HW1 6377   2.775   2.749   2.771
 2124SOL    HW2 6378   2.689   2.887   2.789
 2125SOL     OW 6379   2.945   2.846   1.949
 2125SOL    HW1 6380   2.922   2.899   1.867
 2125SOL    HW2 6381   3.026   2.790   1.930
 2126SOL     OW 6382   3.723   3.431   2.713
 2126SOL    HW1 6383   3.652   3.419   2.643
 2126SOL    HW2 6384   3.724   3.352   2.773
 2127SOL     OW 6385   2.083   3.176   3.706
 2127SOL    HW1 6386   2.018   3.103   3.685
 2127SOL    HW2 6387   2.087   3.190   3.804
 2128SOL     OW 6388   1.941   3.102   2.515
 2128SOL    HW1 6389   1.940   3.055   2.603
 2128SOL    HW2 6390   2.023   3.074   2.464
 2129SOL     OW 6391   2.534   3.253   3.486
 2129SOL    HW1 6392   2.456   3.203   3.524
 2129SOL    HW2 6393   2.531   3.348   3.517
 2130SOL     OW 6394   3.686   2.054   3.089
 2130SOL    HW1 6395   3.682   1.964   3.133
 2130SOL    HW2 6396   3.689   2.043   2.990
 2131SOL     OW 6397   3.567   3.349   2.966
 2131SOL    HW1 6398   3.474   3.324   2.939
 2131SOL    HW2 6399   3.593   3.299   3.048
 2132SOL     OW 6400   2.179   2.409   3.142
 2132SOL    HW1 6401   2.217   2.350   3.214
 2132SOL    HW2 6402   2.219   2.383   3.054
 2133SOL     OW 6403   2.674   3.448   2.549
 2133SOL    HW1 6404   2.706   3.458   2.455
 2133SOL    HW2 6405   2.595   3.386   2.551
 2134SOL     OW 6406   3.286   2.076   2.974
 2134SOL    HW1 6407   3.338   2.011   3.029
 2134SOL    HW2 6408   3.237   2.139   3.035
 2135SOL     OW 6409   2.863   1.896   3.016
 2135SOL    HW1 6410   2.800   1.824   2.985
 2135SOL    HW2 6411   2.956   1.860   3.016
 2136SOL     OW 6412   2.632   3.192   2.163
 2136SOL    HW1 6413   2.586   3.105   2.180
 2136SOL    HW2 6414   2.723   3.189   2.204
 2137SOL     OW 6415   2.480   3.429   3.146
 2137SOL    HW1 6416   2.475   3.511   3.203
 2137SOL    HW2 6417   2.569   3.426   3.101
 2138SOL     OW 6418   3.214   1.914   2.030
 2138SOL    HW1 6419   3.249   1.873   1.946
 2138SOL    HW2 6420   3.124   1.876   2.050
 2139SOL     OW 6421   3.162   2.315   2.553
 2139SOL    HW1 6422   3.103   2.395   2.557
 2139SOL    HW2 6423   3.177   2.280   2.646
 2140SOL     OW 6424   3.455   2.083   2.744
 2140SOL    HW1 6425   3.371   2.082   2.798
 2140SOL    HW2 6426   3.457   2.166   2.688
 2141SOL     OW 6427   1.901   2.939   2.162
 2141SOL    HW1 6428   2.000   2.928   2.153
 2141SOL    HW2 6429   1.861   2.853   2.194
 2142SOL     OW 6430   2.737   3.508   2.199
 2142SOL    HW1 6431   2.660   3.473   2.145
 2142SOL    HW2 6432   2.705   3.579   2.261
 2143SOL     OW 6433   2.092   2.490   3.837
 2143SOL    HW1 6434   1.999   2.488   3.874
 2143SOL    HW2 6435   2.093   2.451   3.745
 2144SOL     OW 6436   2.087   2.137   4.720
 2144SOL    HW1 6437   2.122   2.120   4.812
 2144SOL    HW2 6438   1.999   2.092   4.708
 2145SOL     OW 6439   3.617   2.469   3.955
 2145SOL    HW1 6440   3.605   2.456   3.856
 2145SOL    HW2 6441   3.587   2.388   4.004
 2146SOL     OW 6442   3.465   2.309   4.461
 2146SOL    HW1 6443   3.391   2.355   4.411
 2146SOL    HW2 6444   3.516   2.377   4.514
 2147SOL     OW 6445   2.093   3.575   4.207
 2147SOL    HW1 6446   2.127   3.652   4.261
 2147SOL    HW2 6447   2.137   3.575   4.117
 2148SOL     OW 6448   2.092   3.296   4.262
 2148SOL    HW1 6449   2.066   3.392   4.262
 2148SOL    HW2 6450   2.021   3.242   4.307
 2149SOL     OW 6451   2.468   2.826   3.847
 2149SOL    HW1 6452   2.475   2.910   3.793
 2149SOL    HW2 6453   2.514   2.839   3.935
 2150SOL     OW 6454   1.984   2.505   4.287
 2150SOL    HW1 6455   1.939   2.417   4.304
 2150SOL    HW2 6456   1.983   2.559   4.371
 2151SOL     OW 6457   3.704   3.629   4.083
 2151SOL    HW1 6458   3.758   3.600   4.163
 2151SOL    HW2 6459   3.734   3.719   4.054
 2152SOL     OW 6460   1.889   3.458   3.841
 2152SOL    HW1 6461   1.870   3.362   3.862
 2152SOL    HW2 6462   1.856   3.516   3.916
 2153SOL     OW 6463   3.551   2.784   4.336
 2153SOL    HW1 6464   3.646   2.755   4.344
 2153SOL    HW2 6465   3.543   2.849   4.261
 2154SOL     OW 6466   3.503   2.970   4.156
 2154SOL    HW1 6467   3.589   2.972   4.104
 2154SOL    HW2 6468   3.517   3.017   4.244
 2155SOL     OW 6469   2.475   3.227   4.450
 2155SOL    HW1 6470   2.426   3.140   4.459
 2155SOL    HW2 6471   2.452   3.270   4.363
 2156SOL     OW 6472   2.671   1.866   4.226
 2156SOL    HW1 6473   2.711   1.957   4.217
 2156SOL    HW2 6474   2.571   1.874   4.232
 2157SOL     OW 6475   3.387   2.861   3.914
 2157SOL    HW1 6476   3.324   2.785   3.927
 2157SOL    HW2 6477   3.435   2.879   4.000
 2158SOL     OW 6478   3.328   3.279   4.677
 2158SOL    HW1 6479   3.269   3.285   4.757
 2158SOL    HW2 6480   3.313   3.191   4.631
 2159SOL     OW 6481   2.460   2.591   3.994
 2159SOL    HW1 6482   2.484   2.660   3.926
 2159SOL    HW2 6483   2.382   2.624   4.048
 2160SOL     OW 6484   3.143   2.207   4.668
 2160SOL    HW1 6485   3.057   2.157   4.655
 2160SOL    HW2 6486   3.205   2.153   4.724
 2161SOL     OW 6487   3.438   3.524   4.031
 2161SOL    HW1 6488   3.527   3.570   4.034
 2161SOL    HW2 6489   3.417   3.500   3.936
 2162SOL     OW 6490   2.903   2.563   4.153
 2162SOL    HW1 6491   2.929   2.559   4.249
 2162SOL    HW2 6492   2.818   2.512   4.139
 2163SOL     OW 6493   1.938   2.673   4.513
 2163SOL    HW1 6494   2.037   2.661   4.522
 2163SOL    HW2 6495   1.914   2.768   4.534
 2164SOL     OW 6496   2.727   2.210   3.919
 2164SOL    HW1 6497   2.786   2.273   3.870
 2164SOL    HW2 6498   2.746   2.116   3.890
 2165SOL     OW 6499   3.224   3.006   4.269
 2165SOL    HW1 6500   3.307   2.977   4.221
 2165SOL    HW2 6501   3.175   3.073   4.213
 2166SOL     OW 6502   2.870   3.318   4.201
 2166SOL    HW1 6503   2.824   3.390   4.149
 2166SOL    HW2 6504   2.866   3.338   4.299
 2167SOL     OW 6505   2.213   3.663   4.577
 2167SOL    HW1 6506   2.263   3.577   4.583
 2167SOL    HW2 6507   2.278   3.740   4.574
 2168SOL     OW 6508   3.657   2.928   4.597
 2168SOL    HW1 6509   3.595   2.913   4.521
 2168SOL    HW2 6510   3.605   2.939   4.682
 2169SOL     OW 6511   2.183   2.805   3.966
 2169SOL    HW1 6512   2.265   2.844   3.924
 2169SOL    HW2 6513   2.156   2.723   3.917
 2170SOL     OW 6514   2.973   3.638   3.961
 2170SOL    HW1 6515   2.913   3.576   4.011
 2170SOL    HW2 6516   3.004   3.594   3.876
 2171SOL     OW 6517   3.494   3.239   3.805
 2171SOL    HW1 6518   3.462   3.333   3.795
 2171SOL    HW2 6519   3.418   3.176   3.793
 2172SOL     OW 6520   2.326   3.605   4.047
 2172SOL    HW1 6521   2.359   3.644   4.133
 2172SOL    HW2 6522   2.402   3.598   3.982
 2173SOL     OW 6523   3.262   1.969   4.150
 2173SOL    HW1 6524   3.238   1.932   4.060
 2173SOL    HW2 6525   3.361   1.985   4.154
 2174SOL     OW 6526   2.244   2.562   4.204
 2174SOL    HW1 6527   2.289   2.472   4.201
 2174SOL    HW2 6528   2.150   2.551   4.237
 2175SOL     OW 6529   2.476   1.984   3.841
 2175SOL    HW1 6530   2.574   1.962   3.848
 2175SOL    HW2 6531   2.445   1.967   3.748
 2176SOL     OW 6532   2.401   1.926   4.236
 2176SOL    HW1 6533   2.320   1.927   4.294
 2176SOL    HW2 6534   2.404   2.009   4.181
 2177SOL     OW 6535   3.296   3.050   3.765
 2177SOL    HW1 6536   3.328   2.974   3.822
 2177SOL    HW2 6537   3.204   3.077   3.795
 2178SOL     OW 6538   2.159   1.897   3.895
 2178SOL    HW1 6539   2.208   1.981   3.874
 2178SOL    HW2 6540   2.221   1.832   3.940
 2179SOL     OW 6541   2.797   2.098   4.204
 2179SOL    HW1 6542   2.749   2.139   4.126
 2179SOL    HW2 6543   2.896   2.096   4.185
 2180SOL     OW 6544   2.321   3.014   4.465
 2180SOL    HW1 6545   2.250   2.987   4.530
 2180SOL    HW2 6546   2.295   2.986   4.372
 2181SOL     OW 6547   3.133   3.659   4.315
 2181SOL    HW1 6548   3.177   3.723   4.251
 2181SOL    HW2 6549   3.083   3.711   4.385
 2182SOL     OW 6550   2.894   2.411   3.740
 2182SOL    HW1 6551   2.853   2.493   3.701
 2182SOL    HW2 6552   2.958   2.437   3.813
 2183SOL     OW 6553   2.728   2.316   4.366
 2183SOL    HW1 6554   2.696   2.388   4.304
 2183SOL    HW2 6555   2.752   2.235   4.313
 2184SOL     OW 6556   3.328   2.452   4.716
 2184SOL    HW1 6557   3.298   2.357   4.723
 2184SOL    HW2 6558   3.401   2.468   4.782
 2185SOL     OW 6559   3.719   2.695   4.101
 2185SOL    HW1 6560   3.761   2.631   4.165
 2185SOL    HW2 6561   3.681   2.644   4.023
 2186SOL     OW 6562   2.350   3.247   3.898
 2186SOL    HW1 6563   2.263   3.232   3.945
 2186SOL    HW2 6564   2.333   3.273   3.803
 2187SOL     OW 6565   3.252   2.437   3.802
 2187SOL    HW1 6566   3.198   2.416   3.883
 2187SOL    HW2 6567   3.343   2.396   3.811
 2188SOL     OW 6568   2.389   2.118   4.052
 2188SOL    HW1 6569   2.416   2.059   3.977
 2188SOL    HW2 6570   2.389   2.213   4.021
 2189SOL     OW 6571   2.567   2.912   4.092
 2189SOL    HW1 6572   2.553   2.919   4.191
 2189SOL    HW2 6573   2.651   2.861   4.074
 2190SOL     OW 6574   2.229   2.962   4.225
 2190SOL    HW1 6575   2.222   3.045   4.169
 2190SOL    HW2 6576   2.233   2.882   4.165
 2191SOL     OW 6577   3.114   3.210   4.112
 2191SOL    HW1 6578   3.164   3.287   4.152
 2191SOL    HW2 6579   3.019   3.212   4.144
 2192SOL     OW 6580   3.444   2.501   4.196
 2192SOL    HW1 6581   3.413   2.562   4.269
 2192SOL    HW2 6582   3.494   2.553   4.127
 2193SOL     OW 6583   3.071   2.387   3.999
 2193SOL    HW1 6584   3.084   2.303   4.053
 2193SOL    HW2 6585   3.042   2.461   4.059
 2194SOL     OW 6586   2.169   1.925   4.342
 2194SOL    HW1 6587   2.158   2.019   4.375
 2194SOL    HW2 6588   2.164   1.862   4.419
 2195SOL     OW 6589   3.484   2.229   4.098
 2195SOL    HW1 6590   3.486   2.153   4.162
 2195SOL    HW2 6591   3.436   2.306   4.138
 2196SOL     OW 6592   3.402   2.136   3.849
 2196SOL    HW1 6593   3.341   2.061   3.872
 2196SOL    HW2 6594   3.424   2.188   3.932
 2197SOL     OW 6595   3.165   2.700   3.766
 2197SOL    HW1 6596   3.199   2.607   3.781
 2197SOL    HW2 6597   3.183   2.727   3.671
 2198SOL     OW 6598   1.870   3.188   3.924
 2198SOL    HW1 6599   1.777   3.209   3.893
 2198SOL    HW2 6600   1.880   3.089   3.937
 2199SOL     OW 6601   2.677   2.434   4.049
 2199SOL    HW1 6602   2.684   2.345   4.003
 2199SOL    HW2 6603   2.583   2.468   4.041
 2200SOL     OW 6604   2.335   2.362   3.915
 2200SOL    HW1 6605   2.396   2.442   3.919
 2200SOL    HW2 6606   2.240   2.393   3.922
 2201SOL     OW 6607   3.164   2.717   4.033
 2201SOL    HW1 6608   3.078   2.686   4.075
 2201SOL    HW2 6609   3.160   2.703   3.934
 2202SOL     OW 6610   3.588   1.997   4.247
 2202SOL    HW1 6611   3.661   1.980   4.180
 2202SOL    HW2 6612   3.557   1.910   4.285
 2203SOL     OW 6613   3.250   3.435   4.201
 2203SOL    HW1 6614   3.317   3.447   4.127
 2203SOL    HW2 6615   3.210   3.524   4.224
 2204SOL     OW 6616   2.534   3.478   3.878
 2204SOL    HW1 6617   2.543   3.488   3.779
 2204SOL    HW2 6618   2.494   3.389   3.899
 2205SOL     OW 6619   3.703   2.037   4.687
 2205SOL    HW1 6620   3.742   1.952   4.651
 2205SOL    HW2 6621   3.605   2.039   4.668
 2206SOL     OW 6622   3.056   3.474   3.755
 2206SOL    HW1 6623   3.062   3.381   3.792
 2206SOL    HW2 6624   2.997   3.474   3.675
 2207SOL     OW 6625   2.778   2.772   4.015
 2207SOL    HW1 6626   2.841   2.810   3.947
 2207SOL    HW2 6627   2.818   2.689   4.054
 2208SOL     OW 6628   3.366   3.469   3.768
 2208SOL    HW1 6629   3.274   3.506   3.775
 2208SOL    HW2 6630   3.404   3.489   3.678
 2209SOL     OW 6631   2.452   3.349   4.215
 2209SOL    HW1 6632   2.494   3.291   4.145
 2209SOL    HW2 6633   2.408   3.428   4.171
 2210SOL     OW 6634   2.117   3.210   4.014
 2210SOL    HW1 6635   2.021   3.211   3.987
 2210SOL    HW2 6636   2.129   3.263   4.098
 2211SOL     OW 6637   1.937   2.207   3.757
 2211SOL    HW1 6638   1.845   2.179   3.728
 2211SOL    HW2 6639   1.968   2.284   3.701
 2212SOL     OW 6640   1.934   2.028   4.042
 2212SOL    HW1 6641   1.917   2.111   3.988
 2212SOL    HW2 6642   2.024   1.991   4.020
 2213SOL     OW 6643   3.045   3.197   3.843
 2213SOL    HW1 6644   2.946   3.186   3.845
 2213SOL    HW2 6645   3.079   3.212   3.936
 2214SOL     OW 6646   3.087   2.187   4.173
 2214SOL    HW1 6647   3.152   2.113   4.162
 2214SOL    HW2 6648   3.107   2.237   4.257
 2215SOL     OW 6649   2.456   2.607   4.376
 2215SOL    HW1 6650   2.506   2.692   4.357
 2215SOL    HW2 6651   2.368   2.609   4.328
 2216SOL     OW 6652   2.721   3.236   3.740
 2216SOL    HW1 6653   2.675   3.251   3.828
 2216SOL    HW2 6654   2.765   3.321   3.710
 2217SOL     OW 6655   2.945   2.846   3.811
 2217SOL    HW1 6656   2.922   2.899   3.729
 2217SOL    HW2 6657   3.026   2.790   3.792
 2218SOL     OW 6658   1.941   3.102   4.377
 2218SOL    HW1 6659   1.940   3.055   4.465
 2218SOL    HW2 6660   2.023   3.074   4.326
 2219SOL     OW 6661   2.290   2.286   4.244
 2219SOL    HW1 6662   2.320   2.214   4.182
 2219SOL    HW2 6663   2.251   2.246   4.327
 2220SOL     OW 6664   2.674   3.448   4.411
 2220SOL    HW1 6665   2.706   3.458   4.317
 2220SOL    HW2 6666   2.595   3.386   4.413
 2221SOL     OW 6667   2.632   3.192   4.025
 2221SOL    HW1 6668   2.586   3.105   4.042
 2221SOL    HW2 6669   2.723   3.189   4.066
 2222SOL     OW 6670   3.214   1.914   3.892
 2222SOL    HW1 6671   3.249   1.873   3.808
 2222SOL    HW2 6672   3.124   1.876   3.912
 2223SOL     OW 6673   3.162   2.315   4.415
 2223SOL    HW1 6674   3.103   2.395   4.419
 2223SOL    HW2 6675   3.177   2.280   4.508
 2224SOL     OW 6676   1.901   2.939   4.024
 2224SOL    HW1 6677   2.000   2.928   4.015
 2224SOL    HW2 6678   1.861   2.853   4.056
 2225SOL     OW 6679   2.737   3.508   4.061
 2225SOL    HW1 6680   2.660   3.473   4.007
 2225SOL    HW2 6681   2.705   3.579   4.123
 2226SOL     OW 6682   2.087   3.999   0.996
 2226SOL    HW1 6683   2.122   3.982   1.088
 2226SOL    HW2 6684   1.999   3.954   0.984
 2227SOL     OW 6685   1.881   4.092   0.647
 2227SOL    HW1 6686   1.799   4.135   0.686
 2227SOL    HW2 6687   1.853   4.019   0.584
 2228SOL     OW 6688   3.617   4.331   0.231
 2228SOL    HW1 6689   3.605   4.318   0.132
 2228SOL    HW2 6690   3.587   4.250   0.280
 2229SOL     OW 6691   2.300   4.116   1.499
 2229SOL    HW1 6692   2.382   4.060   1.508
 2229SOL    HW2 6693   2.219   4.058   1.503
 2230SOL     OW 6694   3.465   4.171   0.737
 2230SOL    HW1 6695   3.391   4.217   0.687
 2230SOL    HW2 6696   3.516   4.239   0.790
 2231SOL     OW 6697   3.456   3.838   1.480
 2231SOL    HW1 6698   3.438   3.905   1.408
 2231SOL    HW2 6699   3.453   3.884   1.569
 2232SOL     OW 6700   1.984   4.367   0.563
 2232SOL    HW1 6701   1.939   4.279   0.580
 2232SOL    HW2 6702   1.983   4.421   0.647
 2233SOL     OW 6703   1.975   4.461   1.597
 2233SOL    HW1 6704   2.063   4.448   1.642
 2233SOL    HW2 6705   1.962   4.558   1.575
 2234SOL     OW 6706   2.671   3.728   0.502
 2234SOL    HW1 6707   2.711   3.819   0.493
 2234SOL    HW2 6708   2.571   3.736   0.508
 2235SOL     OW 6709   2.179   3.975   1.801
 2235SOL    HW1 6710   2.250   4.046   1.807
 2235SOL    HW2 6711   2.091   4.014   1.829
 2236SOL     OW 6712   3.143   4.069   0.944
 2236SOL    HW1 6713   3.057   4.019   0.931
 2236SOL    HW2 6714   3.205   4.015   1.000
 2237SOL     OW 6715   2.669   4.329   1.465
 2237SOL    HW1 6716   2.622   4.326   1.554
 2237SOL    HW2 6717   2.618   4.274   1.399
 2238SOL     OW 6718   3.256   4.193   1.674
 2238SOL    HW1 6719   3.236   4.236   1.762
 2238SOL    HW2 6720   3.334   4.131   1.683
 2239SOL     OW 6721   2.853   4.134   1.242
 2239SOL    HW1 6722   2.776   4.168   1.296
 2239SOL    HW2 6723   2.819   4.083   1.163
 2240SOL     OW 6724   2.903   4.425   0.429
 2240SOL    HW1 6725   2.929   4.421   0.525
 2240SOL    HW2 6726   2.818   4.374   0.415
 2241SOL     OW 6727   2.727   4.072   0.195
 2241SOL    HW1 6728   2.786   4.135   0.146
 2241SOL    HW2 6729   2.746   3.978   0.166
 2242SOL     OW 6730   3.581   4.309   1.831
 2242SOL    HW1 6731   3.555   4.398   1.795
 2242SOL    HW2 6732   3.579   4.241   1.758
 2243SOL     OW 6733   2.412   3.920   0.885
 2243SOL    HW1 6734   2.407   3.915   0.985
 2243SOL    HW2 6735   2.414   4.016   0.856
 2244SOL     OW 6736   3.320   4.459   0.728
 2244SOL    HW1 6737   3.315   4.394   0.803
 2244SOL    HW2 6738   3.400   4.518   0.741
 2245SOL     OW 6739   2.064   4.009   1.498
 2245SOL    HW1 6740   1.984   4.069   1.485
 2245SOL    HW2 6741   2.054   3.960   1.584
 2246SOL     OW 6742   3.262   3.831   0.426
 2246SOL    HW1 6743   3.238   3.794   0.336
 2246SOL    HW2 6744   3.361   3.847   0.430
 2247SOL     OW 6745   3.409   3.946   1.729
 2247SOL    HW1 6746   3.404   3.983   1.821
 2247SOL    HW2 6747   3.337   3.877   1.717
 2248SOL     OW 6748   2.476   3.846   0.117
 2248SOL    HW1 6749   2.574   3.824   0.124
 2248SOL    HW2 6750   2.445   3.829   0.024
 2249SOL     OW 6751   2.643   3.988   1.749
 2249SOL    HW1 6752   2.710   3.927   1.792
 2249SOL    HW2 6753   2.570   4.007   1.814
 2250SOL     OW 6754   3.213   4.314   1.433
 2250SOL    HW1 6755   3.241   4.271   1.518
 2250SOL    HW2 6756   3.238   4.410   1.434
 2251SOL     OW 6757   2.784   4.227   0.899
 2251SOL    HW1 6758   2.759   4.218   0.803
 2251SOL    HW2 6759   2.832   4.145   0.930
 2252SOL     OW 6760   2.401   3.788   0.512
 2252SOL    HW1 6761   2.320   3.789   0.570
 2252SOL    HW2 6762   2.404   3.871   0.457
 2253SOL     OW 6763   2.797   3.960   0.480
 2253SOL    HW1 6764   2.749   4.001   0.402
 2253SOL    HW2 6765   2.896   3.958   0.461
 2254SOL     OW 6766   2.938   4.407   1.464
 2254SOL    HW1 6767   2.858   4.346   1.467
 2254SOL    HW2 6768   3.019   4.354   1.440
 2255SOL     OW 6769   2.894   4.273   0.016
 2255SOL    HW1 6770   2.853   4.355  -0.023
 2255SOL    HW2 6771   2.958   4.299   0.089
 2256SOL     OW 6772   1.940   4.280   1.386
 2256SOL    HW1 6773   2.032   4.279   1.345
 2256SOL    HW2 6774   1.934   4.354   1.453
 2257SOL     OW 6775   2.423   3.946   1.147
 2257SOL    HW1 6776   2.461   3.862   1.184
 2257SOL    HW2 6777   2.335   3.965   1.191
 2258SOL     OW 6778   2.728   4.178   0.642
 2258SOL    HW1 6779   2.696   4.250   0.580
 2258SOL    HW2 6780   2.752   4.097   0.589
 2259SOL     OW 6781   2.879   3.763   0.753
 2259SOL    HW1 6782   2.807   3.768   0.684
 2259SOL    HW2 6783   2.855   3.694   0.822
 2260SOL     OW 6784   3.328   4.314   0.992
 2260SOL    HW1 6785   3.298   4.219   0.999
 2260SOL    HW2 6786   3.401   4.330   1.058
 2261SOL     OW 6787   3.252   4.299   0.078
 2261SOL    HW1 6788   3.198   4.278   0.159
 2261SOL    HW2 6789   3.343   4.258   0.087
 2262SOL     OW 6790   2.389   3.980   0.328
 2262SOL    HW1 6791   2.416   3.921   0.253
 2262SOL    HW2 6792   2.389   4.075   0.297
 2263SOL     OW 6793   2.777   3.813   1.402
 2263SOL    HW1 6794   2.802   3.793   1.307
 2263SOL    HW2 6795   2.849   3.869   1.444
 2264SOL     OW 6796   3.136   4.110   1.262
 2264SOL    HW1 6797   3.157   4.184   1.326
 2264SOL    HW2 6798   3.047   4.127   1.219
 2265SOL     OW 6799   2.428   4.261   0.865
 2265SOL    HW1 6800   2.440   4.327   0.791
 2265SOL    HW2 6801   2.474   4.295   0.948
 2266SOL     OW 6802   3.444   4.363   0.472
 2266SOL    HW1 6803   3.413   4.424   0.545
 2266SOL    HW2 6804   3.494   4.415   0.403
 2267SOL     OW 6805   2.875   3.829   1.770
 2267SOL    HW1 6806   2.881   3.914   1.718
 2267SOL    HW2 6807   2.907   3.753   1.713
 2268SOL     OW 6808   2.366   3.774   1.740
 2268SOL    HW1 6809   2.324   3.717   1.670
 2268SOL    HW2 6810   2.300   3.843   1.772
 2269SOL     OW 6811   3.071   4.249   0.275
 2269SOL    HW1 6812   3.084   4.165   0.329
 2269SOL    HW2 6813   3.042   4.323   0.335
 2270SOL     OW 6814   2.169   3.937   1.231
 2270SOL    HW1 6815   2.146   3.974   1.321
 2270SOL    HW2 6816   2.139   3.842   1.225
 2271SOL     OW 6817   2.594   4.358   1.064
 2271SOL    HW1 6818   2.653   4.332   0.988
 2271SOL    HW2 6819   2.566   4.454   1.053
 2272SOL     OW 6820   2.169   3.787   0.618
 2272SOL    HW1 6821   2.158   3.881   0.651
 2272SOL    HW2 6822   2.164   3.724   0.695
 2273SOL     OW 6823   3.484   4.091   0.374
 2273SOL    HW1 6824   3.486   4.015   0.438
 2273SOL    HW2 6825   3.436   4.168   0.414
 2274SOL     OW 6826   3.402   3.998   0.125
 2274SOL    HW1 6827   3.341   3.923   0.148
 2274SOL    HW2 6828   3.424   4.050   0.208
 2275SOL     OW 6829   2.181   4.534   0.949
 2275SOL    HW1 6830   2.274   4.570   0.954
 2275SOL    HW2 6831   2.175   4.449   1.001
 2276SOL     OW 6832   2.201   4.233   1.006
 2276SOL    HW1 6833   2.149   4.150   0.989
 2276SOL    HW2 6834   2.278   4.238   0.942
 2277SOL     OW 6835   3.000   4.104   1.678
 2277SOL    HW1 6836   2.955   4.167   1.742
 2277SOL    HW2 6837   3.093   4.135   1.661
 2278SOL     OW 6838   3.022   3.931   1.477
 2278SOL    HW1 6839   3.022   3.995   1.554
 2278SOL    HW2 6840   3.050   3.979   1.394
 2279SOL     OW 6841   1.902   4.268   1.114
 2279SOL    HW1 6842   1.987   4.235   1.073
 2279SOL    HW2 6843   1.915   4.283   1.212
 2280SOL     OW 6844   2.051   4.244   1.722
 2280SOL    HW1 6845   2.110   4.204   1.652
 2280SOL    HW2 6846   1.993   4.315   1.681
 2281SOL     OW 6847   2.677   4.296   0.325
 2281SOL    HW1 6848   2.684   4.207   0.279
 2281SOL    HW2 6849   2.583   4.330   0.317
 2282SOL     OW 6850   3.519   4.328   1.206
 2282SOL    HW1 6851   3.481   4.259   1.268
 2282SOL    HW2 6852   3.601   4.292   1.162
 2283SOL     OW 6853   2.533   4.188   1.269
 2283SOL    HW1 6854   2.499   4.099   1.239
 2283SOL    HW2 6855   2.559   4.242   1.189
 2284SOL     OW 6856   2.335   4.224   0.191
 2284SOL    HW1 6857   2.396   4.304   0.195
 2284SOL    HW2 6858   2.240   4.255   0.198
 2285SOL     OW 6859   2.765   3.810   0.133
 2285SOL    HW1 6860   2.816   3.811   0.047
 2285SOL    HW2 6861   2.821   3.768   0.204
 2286SOL     OW 6862   3.588   3.859   0.523
 2286SOL    HW1 6863   3.661   3.842   0.456
 2286SOL    HW2 6864   3.557   3.772   0.561
 2287SOL     OW 6865   3.142   4.651   0.672
 2287SOL    HW1 6866   3.202   4.570   0.674
 2287SOL    HW2 6867   3.182   4.720   0.612
 2288SOL     OW 6868   3.703   3.899   0.963
 2288SOL    HW1 6869   3.742   3.814   0.927
 2288SOL    HW2 6870   3.605   3.901   0.944
 2289SOL     OW 6871   2.125   4.050   0.720
 2289SOL    HW1 6872   2.046   4.101   0.686
 2289SOL    HW2 6873   2.116   4.035   0.818
 2290SOL     OW 6874   2.876   3.960   0.971
 2290SOL    HW1 6875   2.868   3.924   0.878
 2290SOL    HW2 6876   2.874   3.884   1.036
 2291SOL     OW 6877   3.571   4.109   1.381
 2291SOL    HW1 6878   3.644   4.178   1.385
 2291SOL    HW2 6879   3.599   4.034   1.322
 2292SOL     OW 6880   2.534   3.927   1.489
 2292SOL    HW1 6881   2.624   3.911   1.449
 2292SOL    HW2 6882   2.542   3.932   1.588
 2293SOL     OW 6883   1.937   4.069   0.033
 2293SOL    HW1 6884   1.845   4.041   0.004
 2293SOL    HW2 6885   1.968   4.146  -0.023
 2294SOL     OW 6886   2.578   4.289   1.708
 2294SOL    HW1 6887   2.597   4.354   1.782
 2294SOL    HW2 6888   2.638   4.209   1.717
 2295SOL     OW 6889   3.087   4.049   0.449
 2295SOL    HW1 6890   3.152   3.975   0.438
 2295SOL    HW2 6891   3.107   4.099   0.533
 2296SOL     OW 6892   3.639   4.066   1.642
 2296SOL    HW1 6893   3.622   4.097   1.548
 2296SOL    HW2 6894   3.555   4.029   1.680
 2297SOL     OW 6895   2.945   4.708   0.087
 2297SOL    HW1 6896   2.922   4.761   0.005
 2297SOL    HW2 6897   3.026   4.652   0.068
 2298SOL     OW 6898   3.686   3.916   1.227
 2298SOL    HW1 6899   3.682   3.826   1.271
 2298SOL    HW2 6900   3.689   3.905   1.128
 2299SOL     OW 6901   2.290   4.148   0.520
 2299SOL    HW1 6902   2.320   4.076   0.458
 2299SOL    HW2 6903   2.251   4.108   0.603
 2300SOL     OW 6904   2.179   4.271   1.280
 2300SOL    HW1 6905   2.217   4.212   1.352
 2300SOL    HW2 6906   2.219   4.245   1.192
 2301SOL     OW 6907   3.286   3.938   1.112
 2301SOL    HW1 6908   3.338   3.873   1.167
 2301SOL    HW2 6909   3.237   4.001   1.173
 2302SOL     OW 6910   2.863   3.758   1.154
 2302SOL    HW1 6911   2.800   3.686   1.123
 2302SOL    HW2 6912   2.956   3.722   1.154
 2303SOL     OW 6913   3.214   3.776   0.168
 2303SOL    HW1 6914   3.249   3.735   0.084
 2303SOL    HW2 6915   3.124   3.738   0.188
 2304SOL     OW 6916   3.162   4.177   0.691
 2304SOL    HW1 6917   3.103   4.257   0.695
 2304SOL    HW2 6918   3.177   4.142   0.784
 2305SOL     OW 6919   3.455   3.945   0.882
 2305SOL    HW1 6920   3.371   3.944   0.936
 2305SOL    HW2 6921   3.457   4.028   0.826
 2306SOL     OW 6922   2.087   3.999   2.858
 2306SOL    HW1 6923   2.122   3.982   2.950
 2306SOL    HW2 6924   1.999   3.954   2.846
 2307SOL     OW 6925   1.881   4.092   2.509
 2307SOL    HW1 6926   1.799   4.135   2.548
 2307SOL    HW2 6927   1.853   4.019   2.446
 2308SOL     OW 6928   3.617   4.331   2.093
 2308SOL    HW1 6929   3.605   4.318   1.994
 2308SOL    HW2 6930   3.587   4.250   2.142
 2309SOL     OW 6931   2.300   4.116   3.361
 2309SOL    HW1 6932   2.382   4.060   3.370
 2309SOL    HW2 6933   2.219   4.058   3.365
 2310SOL     OW 6934   3.465   4.171   2.599
 2310SOL    HW1 6935   3.391   4.217   2.549
 2310SOL    HW2 6936   3.516   4.239   2.652
 2311SOL     OW 6937   3.456   3.838   3.342
 2311SOL    HW1 6938   3.438   3.905   3.270
 2311SOL    HW2 6939   3.453   3.884   3.431
 2312SOL     OW 6940   1.984   4.367   2.425
 2312SOL    HW1 6941   1.939   4.279   2.442
 2312SOL    HW2 6942   1.983   4.421   2.509
 2313SOL     OW 6943   1.975   4.461   3.459
 2313SOL    HW1 6944   2.063   4.448   3.504
 2313SOL    HW2 6945   1.962   4.558   3.437
 2314SOL     OW 6946   2.671   3.728   2.364
 2314SOL    HW1 6947   2.711   3.819   2.355
 2314SOL    HW2 6948   2.571   3.736   2.370
 2315SOL     OW 6949   2.179   3.975   3.663
 2315SOL    HW1 6950   2.250   4.046   3.669
 2315SOL    HW2 6951   2.091   4.014   3.691
 2316SOL     OW 6952   3.143   4.069   2.806
 2316SOL    HW1 6953   3.057   4.019   2.793
 2316SOL    HW2 6954   3.205   4.015   2.862
 2317SOL     OW 6955   2.669   4.329   3.327
 2317SOL    HW1 6956   2.622   4.326   3.416
 2317SOL    HW2 6957   2.618   4.274   3.261
 2318SOL     OW 6958   3.256   4.193   3.536
 2318SOL    HW1 6959   3.236   4.236   3.624
 2318SOL    HW2 6960   3.334   4.131   3.545
 2319SOL     OW 6961   2.853   4.134   3.104
 2319SOL    HW1 6962   2.776   4.168   3.158
 2319SOL    HW2 6963   2.819   4.083   3.025
 2320SOL     OW 6964   2.903   4.425   2.291
 2320SOL    HW1 6965   2.929   4.421   2.387
 2320SOL    HW2 6966   2.818   4.374   2.277
 2321SOL     OW 6967   2.727   4.072   2.057
 2321SOL    HW1 6968   2.786   4.135   2.008
 2321SOL    HW2 6969   2.746   3.978   2.028
 2322SOL     OW 6970   3.581   4.309   3.693
 2322SOL    HW1 6971   3.555   4.398   3.657
 2322SOL    HW2 6972   3.579   4.241   3.620
 2323SOL     OW 6973   2.412   3.920   2.747
 2323SOL    HW1 6974   2.407   3.915   2.847
 2323SOL    HW2 6975   2.414   4.016   2.718
 2324SOL     OW 6976   3.320   4.459   2.590
 2324SOL    HW1 6977   3.315   4.394   2.665
 2324SOL    HW2 6978   3.400   4.518   2.603
 2325SOL     OW 6979   2.064   4.009   3.360
 2325SOL    HW1 6980   1.984   4.069   3.347
 2325SOL    HW2 6981   2.054   3.960   3.446
 2326SOL     OW 6982   3.262   3.831   2.288
 2326SOL    HW1 6983   3.238   3.794   2.198
 2326SOL    HW2 6984   3.361   3.847   2.292
 2327SOL     OW 6985   3.409   3.946   3.591
 2327SOL    HW1 6986   3.404   3.983   3.683
 2327SOL    HW2 6987   3.337   3.877   3.579
 2328SOL     OW 6988   2.476   3.846   1.979
 2328SOL    HW1 6989   2.574   3.824   1.986
 2328SOL    HW2 6990   2.445   3.829   1.886
 2329SOL     OW 6991   2.643   3.988   3.611
 2329SOL    HW1 6992   2.710   3.927   3.654
 2329SOL    HW2 6993   2.570   4.007   3.676
 2330SOL     OW 6994   3.213   4.314   3.295
 2330SOL    HW1 6995   3.241   4.271   3.380
 2330SOL    HW2 6996   3.238   4.410   3.296
 2331SOL     OW 6997   2.784   4.227   2.761
 2331SOL    HW1 6998   2.759   4.218   2.665
 2331SOL    HW2 6999   2.832   4.145   2.792
 2332SOL     OW 7000   2.401   3.788   2.374
 2332SOL    HW1 7001   2.320   3.789   2.432
 2332SOL    HW2 7002   2.404   3.871   2.319
 2333SOL     OW 7003   2.159   3.759   2.033
 2333SOL    HW1 7004   2.208   3.843   2.012
 2333SOL    HW2 7005   2.221   3.694   2.078
 2334SOL     OW 7006   2.797   3.960   2.342
 2334SOL    HW1 7007   2.749   4.001   2.264
 2334SOL    HW2 7008   2.896   3.958   2.323
 2335SOL     OW 7009   2.938   4.407   3.326
 2335SOL    HW1 7010   2.858   4.346   3.329
 2335SOL    HW2 7011   3.019   4.354   3.302
 2336SOL     OW 7012   2.894   4.273   1.878
 2336SOL    HW1 7013   2.853   4.355   1.839
 2336SOL    HW2 7014   2.958   4.299   1.951
 2337SOL     OW 7015   1.940   4.280   3.248
 2337SOL    HW1 7016   2.032   4.279   3.207
 2337SOL    HW2 7017   1.934   4.354   3.315
 2338SOL     OW 7018   2.423   3.946   3.009
 2338SOL    HW1 7019   2.461   3.862   3.046
 2338SOL    HW2 7020   2.335   3.965   3.053
 2339SOL     OW 7021   2.728   4.178   2.504
 2339SOL    HW1 7022   2.696   4.250   2.442
 2339SOL    HW2 7023   2.752   4.097   2.451
 2340SOL     OW 7024   2.879   3.763   2.615
 2340SOL    HW1 7025   2.807   3.768   2.546
 2340SOL    HW2 7026   2.855   3.694   2.684
 2341SOL     OW 7027   3.328   4.314   2.854
 2341SOL    HW1 7028   3.298   4.219   2.861
 2341SOL    HW2 7029   3.401   4.330   2.920
 2342SOL     OW 7030   3.252   4.299   1.940
 2342SOL    HW1 7031   3.198   4.278   2.021
 2342SOL    HW2 7032   3.343   4.258   1.949
 2343SOL     OW 7033   2.389   3.980   2.190
 2343SOL    HW1 7034   2.416   3.921   2.115
 2343SOL    HW2 7035   2.389   4.075   2.159
 2344SOL     OW 7036   2.777   3.813   3.264
 2344SOL    HW1 7037   2.802   3.793   3.169
 2344SOL    HW2 7038   2.849   3.869   3.306
 2345SOL     OW 7039   3.136   4.110   3.124
 2345SOL    HW1 7040   3.157   4.184   3.188
 2345SOL    HW2 7041   3.047   4.127   3.081
 2346SOL     OW 7042   2.428   4.261   2.727
 2346SOL    HW1 7043   2.440   4.327   2.653
 2346SOL    HW2 7044   2.474   4.295   2.810
 2347SOL     OW 7045   3.444   4.363   2.334
 2347SOL    HW1 7046   3.413   4.424   2.407
 2347SOL    HW2 7047   3.494   4.415   2.265
 2348SOL     OW 7048   2.875   3.829   3.632
 2348SOL    HW1 7049   2.881   3.914   3.580
 2348SOL    HW2 7050   2.907   3.753   3.575
 2349SOL     OW 7051   2.366   3.774   3.602
 2349SOL    HW1 7052   2.324   3.717   3.532
 2349SOL    HW2 7053   2.300   3.843   3.634
 2350SOL     OW 7054   3.071   4.249   2.137
 2350SOL    HW1 7055   3.084   4.165   2.191
 2350SOL    HW2 7056   3.042   4.323   2.197
 2351SOL     OW 7057   2.169   3.937   3.093
 2351SOL    HW1 7058   2.146   3.974   3.183
 2351SOL    HW2 7059   2.139   3.842   3.087
 2352SOL     OW 7060   2.594   4.358   2.926
 2352SOL    HW1 7061   2.653   4.332   2.850
 2352SOL    HW2 7062   2.566   4.454   2.915
 2353SOL     OW 7063   2.169   3.787   2.480
 2353SOL    HW1 7064   2.158   3.881   2.513
 2353SOL    HW2 7065   2.164   3.724   2.557
 2354SOL     OW 7066   3.484   4.091   2.236
 2354SOL    HW1 7067   3.486   4.015   2.300
 2354SOL    HW2 7068   3.436   4.168   2.276
 2355SOL     OW 7069   3.402   3.998   1.987
 2355SOL    HW1 7070   3.341   3.923   2.010
 2355SOL    HW2 7071   3.424   4.050   2.070
 2356SOL     OW 7072   2.181   4.534   2.811
 2356SOL    HW1 7073   2.274   4.570   2.816
 2356SOL    HW2 7074   2.175   4.449   2.863
 2357SOL     OW 7075   2.201   4.233   2.868
 2357SOL    HW1 7076   2.149   4.150   2.851
 2357SOL    HW2 7077   2.278   4.238   2.804
 2358SOL     OW 7078   3.000   4.104   3.540
 2358SOL    HW1 7079   2.955   4.167   3.604
 2358SOL    HW2 7080   3.093   4.135   3.523
 2359SOL     OW 7081   3.022   3.931   3.339
 2359SOL    HW1 7082   3.022   3.995   3.416
 2359SOL    HW2 7083   3.050   3.979   3.256
 2360SOL     OW 7084   1.902   4.268   2.976
 2360SOL    HW1 7085   1.987   4.235   2.935
 2360SOL    HW2 7086   1.915   4.283   3.074
 2361SOL     OW 7087   2.051   4.244   3.584
 2361SOL    HW1 7088   2.110   4.204   3.514
 2361SOL    HW2 7089   1.993   4.315   3.543
 2362SOL     OW 7090   2.677   4.296   2.187
 2362SOL    HW1 7091   2.684   4.207   2.141
 2362SOL    HW2 7092   2.583   4.330   2.179
 2363SOL     OW 7093   3.519   4.328   3.068
 2363SOL    HW1 7094   3.481   4.259   3.130
 2363SOL    HW2 7095   3.601   4.292   3.024
 2364SOL     OW 7096   2.533   4.188   3.131
 2364SOL    HW1 7097   2.499   4.099   3.101
 2364SOL    HW2 7098   2.559   4.242   3.051
 2365SOL     OW 7099   2.335   4.224   2.053
 2365SOL    HW1 7100   2.396   4.304   2.057
 2365SOL    HW2 7101   2.240   4.255   2.060
 2366SOL     OW 7102   3.588   3.859   2.385
 2366SOL    HW1 7103   3.661   3.842   2.318
 2366SOL    HW2 7104   3.557   3.772   2.423
 2367SOL     OW 7105   3.142   4.651   2.534
 2367SOL    HW1 7106   3.202   4.570   2.536
 2367SOL    HW2 7107   3.182   4.720   2.474
 2368SOL     OW 7108   3.703   3.899   2.825
 2368SOL    HW1 7109   3.742   3.814   2.789
 2368SOL    HW2 7110   3.605   3.901   2.806
 2369SOL     OW 7111   2.125   4.050   2.582
 2369SOL    HW1 7112   2.046   4.101   2.548
 2369SOL    HW2 7113   2.116   4.035   2.680
 2370SOL     OW 7114   2.876   3.960   2.833
 2370SOL    HW1 7115   2.868   3.924   2.740
 2370SOL    HW2 7116   2.874   3.884   2.898
 2371SOL     OW 7117   3.571   4.109   3.243
 2371SOL    HW1 7118   3.644   4.178   3.247
 2371SOL    HW2 7119   3.599   4.034   3.184
 2372SOL     OW 7120   2.534   3.927   3.351
 2372SOL    HW1 7121   2.624   3.911   3.311
 2372SOL    HW2 7122   2.542   3.932   3.450
 2373SOL     OW 7123   1.937   4.069   1.895
 2373SOL    HW1 7124   1.845   4.041   1.866
 2373SOL    HW2 7125   1.968   4.146   1.839
 2374SOL     OW 7126   1.934   3.890   2.180
 2374SOL    HW1 7127   1.917   3.973   2.126
 2374SOL    HW2 7128   2.024   3.853   2.158
 2375SOL     OW 7129   2.578   4.289   3.570
 2375SOL    HW1 7130   2.597   4.354   3.644
 2375SOL    HW2 7131   2.638   4.209   3.579
 2376SOL     OW 7132   3.087   4.049   2.311
 2376SOL    HW1 7133   3.152   3.975   2.300
 2376SOL    HW2 7134   3.107   4.099   2.395
 2377SOL     OW 7135   3.639   4.066   3.504
 2377SOL    HW1 7136   3.622   4.097   3.410
 2377SOL    HW2 7137   3.555   4.029   3.542
 2378SOL     OW 7138   2.945   4.708   1.949
 2378SOL    HW1 7139   2.922   4.761   1.867
 2378SOL    HW2 7140   3.026   4.652   1.930
 2379SOL     OW 7141   3.686   3.916   3.089
 2379SOL    HW1 7142   3.682   3.826   3.133
 2379SOL    HW2 7143   3.689   3.905   2.990
 2380SOL     OW 7144   2.290   4.148   2.382
 2380SOL    HW1 7145   2.320   4.076   2.320
 2380SOL    HW2 7146   2.251   4.108   2.465
 2381SOL     OW 7147   2.179   4.271   3.142
 2381SOL    HW1 7148   2.217   4.212   3.214
 2381SOL    HW2 7149   2.219   4.245   3.054
 2382SOL     OW 7150   3.286   3.938   2.974
 2382SOL    HW1 7151   3.338   3.873   3.029
 2382SOL    HW2 7152   3.237   4.001   3.035
 2383SOL     OW 7153   2.863   3.758   3.016
 2383SOL    HW1 7154   2.800   3.686   2.985
 2383SOL    HW2 7155   2.956   3.722   3.016
 2384SOL     OW 7156   3.214   3.776   2.030
 2384SOL    HW1 7157   3.249   3.735   1.946
 2384SOL    HW2 7158   3.124   3.738   2.050
 2385SOL     OW 7159   3.162   4.177   2.553
 2385SOL    HW1 7160   3.103   4.257   2.557
 2385SOL    HW2 7161   3.177   4.142   2.646
 2386SOL     OW 7162   3.455   3.945   2.744
 2386SOL    HW1 7163   3.371   3.944   2.798
 2386SOL    HW2 7164   3.457   4.028   2.688
 2387SOL     OW 7165   2.087   3.999   4.720
 2387SOL    HW1 7166   2.122   3.982   4.812
 2387SOL    HW2 7167   1.999   3.954   4.708
 2388SOL     OW 7168   2.997   4.427   4.441
 2388SOL    HW1 7169   3.054   4.505   4.416
 2388SOL    HW2 7170   2.937   4.453   4.517
 2389SOL     OW 7171   3.617   4.331   3.955
 2389SOL    HW1 7172   3.605   4.318   3.856
 2389SOL    HW2 7173   3.587   4.250   4.004
 2390SOL     OW 7174   3.465   4.171   4.461
 2390SOL    HW1 7175   3.391   4.217   4.411
 2390SOL    HW2 7176   3.516   4.239   4.514
 2391SOL     OW 7177   1.984   4.367   4.287
 2391SOL    HW1 7178   1.939   4.279   4.304
 2391SOL    HW2 7179   1.983   4.421   4.371
 2392SOL     OW 7180   2.671   3.728   4.226
 2392SOL    HW1 7181   2.711   3.819   4.217
 2392SOL    HW2 7182   2.571   3.736   4.232
 2393SOL     OW 7183   3.143   4.069   4.668
 2393SOL    HW1 7184   3.057   4.019   4.655
 2393SOL    HW2 7185   3.205   4.015   4.724
 2394SOL     OW 7186   2.903   4.425   4.153
 2394SOL    HW1 7187   2.929   4.421   4.249
 2394SOL    HW2 7188   2.818   4.374   4.139
 2395SOL     OW 7189   2.727   4.072   3.919
 2395SOL    HW1 7190   2.786   4.135   3.870
 2395SOL    HW2 7191   2.746   3.978   3.890
 2396SOL     OW 7192   3.262   3.831   4.150
 2396SOL    HW1 7193   3.238   3.794   4.060
 2396SOL    HW2 7194   3.361   3.847   4.154
 2397SOL     OW 7195   2.476   3.846   3.841
 2397SOL    HW1 7196   2.574   3.824   3.848
 2397SOL    HW2 7197   2.445   3.829   3.748
 2398SOL     OW 7198   2.401   3.788   4.236
 2398SOL    HW1 7199   2.320   3.789   4.294
 2398SOL    HW2 7200   2.404   3.871   4.181
 2399SOL     OW 7201   2.159   3.759   3.895
 2399SOL    HW1 7202   2.208   3.843   3.874
 2399SOL    HW2 7203   2.221   3.694   3.940
 2400SOL     OW 7204   2.797   3.960   4.204
 2400SOL    HW1 7205   2.749   4.001   4.126
 2400SOL    HW2 7206   2.896   3.958   4.185
 2401SOL     OW 7207   2.894   4.273   3.740
 2401SOL    HW1 7208   2.853   4.355   3.701
 2401SOL    HW2 7209   2.958   4.299   3.813
 2402SOL     OW 7210   2.728   4.178   4.366
 2402SOL    HW1 7211   2.696   4.250   4.304
 2402SOL    HW2 7212   2.752   4.097   4.313
 2403SOL     OW 7213   3.328   4.314   4.716
 2403SOL    HW1 7214   3.298   4.219   4.723
 2403SOL    HW2 7215   3.401   4.330   4.782
 2404SOL     OW 7216   3.252   4.299   3.802
 2404SOL    HW1 7217   3.198   4.278   3.883
 2404SOL    HW2 7218   3.343   4.258   3.811
 2405SOL     OW 7219   2.389   3.980   4.052
 2405SOL    HW1 7220   2.416   3.921   3.977
 2405SOL    HW2 7221   2.389   4.075   4.021
 2406SOL     OW 7222   3.444   4.363   4.196
 2406SOL    HW1 7223   3.413   4.424   4.269
 2406SOL    HW2 7224   3.494   4.415   4.127
 2407SOL     OW 7225   3.071   4.249   3.999
 2407SOL    HW1 7226   3.084   4.165   4.053
 2407SOL    HW2 7227   3.042   4.323   4.059
 2408SOL     OW 7228   2.169   3.787   4.342
 2408SOL    HW1 7229   2.158   3.881   4.375
 2408SOL    HW2 7230   2.164   3.724   4.419
 2409SOL     OW 7231   3.484   4.091   4.098
 2409SOL    HW1 7232   3.486   4.015   4.162
 2409SOL    HW2 7233   3.436   4.168   4.138
 2410SOL     OW 7234   3.402   3.998   3.849
 2410SOL    HW1 7235   3.341   3.923   3.872
 2410SOL    HW2 7236   3.424   4.050   3.932
 2411SOL     OW 7237   2.677   4.296   4.049
 2411SOL    HW1 7238   2.684   4.207   4.003
 2411SOL    HW2 7239   2.583   4.330   4.041
 2412SOL     OW 7240   2.335   4.224   3.915
 2412SOL    HW1 7241   2.396   4.304   3.919
 2412SOL    HW2 7242   2.240   4.255   3.922
 2413SOL     OW 7243   3.588   3.859   4.247
 2413SOL    HW1 7244   3.661   3.842   4.180
 2413SOL    HW2 7245   3.557   3.772   4.285
 2414SOL     OW 7246   3.142   4.651   4.396
 2414SOL    HW1 7247   3.202   4.570   4.398
 2414SOL    HW2 7248   3.182   4.720   4.336
 2415SOL     OW 7249   3.703   3.899   4.687
 2415SOL    HW1 7250   3.742   3.814   4.651
 2415SOL    HW2 7251   3.605   3.901   4.668
 2416SOL     OW 7252   1.937   4.069   3.757
 2416SOL    HW1 7253   1.845   4.041   3.728
 2416SOL    HW2 7254   1.968   4.146   3.701
 2417SOL     OW 7255   1.934   3.890   4.042
 2417SOL    HW1 7256   1.917   3.973   3.988
 2417SOL    HW2 7257   2.024   3.853   4.020
 2418SOL     OW 7258   3.087   4.049   4.173
 2418SOL    HW1 7259   3.152   3.975   4.162
 2418SOL    HW2 7260   3.107   4.099   4.257
 2419SOL     OW 7261   2.945   4.708   3.811
 2419SOL    HW1 7262   2.922   4.761   3.729
 2419SOL    HW2 7263   3.026   4.652   3.792
 2420SOL     OW 7264   2.290   4.148   4.244
 2420SOL    HW1 7265   2.320   4.076   4.182
 2420SOL    HW2 7266   2.251   4.108   4.327
 2421SOL     OW 7267   3.214   3.776   3.892
 2421SOL    HW1 7268   3.249   3.735   3.808
 2421SOL    HW2 7269   3.124   3.738   3.912
 2422SOL     OW 7270   3.162   4.177   4.415
 2422SOL    HW1 7271   3.103   4.257   4.419
 2422SOL    HW2 7272   3.177   4.142   4.508
 2423SOL     OW 7273   3.954   0.628   0.113
 2423SOL    HW1 7274   3.861   0.626   0.150
 2423SOL    HW2 7275   3.955   0.589   0.021
 2424SOL     OW 7276   3.949   0.275   0.996
 2424SOL    HW1 7277   3.984   0.258   1.088
 2424SOL    HW2 7278   3.861   0.230   0.984
 2425SOL     OW 7279   3.743   0.368   0.647
 2425SOL    HW1 7280   3.661   0.411   0.686
 2425SOL    HW2 7281   3.715   0.295   0.584
 2426SOL     OW 7282   4.293   1.275   1.165
 2426SOL    HW1 7283   4.200   1.268   1.128
 2426SOL    HW2 7284   4.304   1.364   1.209
 2427SOL     OW 7285   4.574   0.798   1.823
 2427SOL    HW1 7286   4.570   0.874   1.888
 2427SOL    HW2 7287   4.596   0.834   1.732
 2428SOL     OW 7288   4.410   1.161   1.803
 2428SOL    HW1 7289   4.470   1.240   1.817
 2428SOL    HW2 7290   4.324   1.192   1.762
 2429SOL     OW 7291   4.059   1.435   1.061
 2429SOL    HW1 7292   3.981   1.404   1.008
 2429SOL    HW2 7293   4.117   1.493   1.004
 2430SOL     OW 7294   4.162   0.392   1.499
 2430SOL    HW1 7295   4.244   0.336   1.508
 2430SOL    HW2 7296   4.081   0.334   1.503
 2431SOL     OW 7297   3.955   1.713   0.483
 2431SOL    HW1 7298   3.989   1.790   0.537
 2431SOL    HW2 7299   3.999   1.713   0.393
 2432SOL     OW 7300   3.954   1.434   0.538
 2432SOL    HW1 7301   3.928   1.530   0.538
 2432SOL    HW2 7302   3.883   1.380   0.583
 2433SOL     OW 7303   3.964   1.091   0.886
 2433SOL    HW1 7304   3.978   1.007   0.938
 2433SOL    HW2 7305   3.909   1.155   0.941
 2434SOL     OW 7306   4.344   1.786   1.439
 2434SOL    HW1 7307   4.252   1.769   1.474
 2434SOL    HW2 7308   4.372   1.878   1.465
 2435SOL     OW 7309   4.330   0.964   0.123
 2435SOL    HW1 7310   4.337   1.048   0.069
 2435SOL    HW2 7311   4.376   0.977   0.211
 2436SOL     OW 7312   3.846   0.643   0.563
 2436SOL    HW1 7313   3.801   0.555   0.580
 2436SOL    HW2 7314   3.845   0.697   0.647
 2437SOL     OW 7315   3.751   1.596   0.117
 2437SOL    HW1 7316   3.732   1.500   0.138
 2437SOL    HW2 7317   3.718   1.654   0.192
 2438SOL     OW 7318   3.837   0.737   1.597
 2438SOL    HW1 7319   3.925   0.724   1.642
 2438SOL    HW2 7320   3.824   0.834   1.575
 2439SOL     OW 7321   4.337   1.365   0.726
 2439SOL    HW1 7322   4.288   1.278   0.735
 2439SOL    HW2 7323   4.314   1.408   0.639
 2440SOL     OW 7324   3.921   0.976   1.264
 2440SOL    HW1 7325   4.010   0.931   1.250
 2440SOL    HW2 7326   3.848   0.911   1.245
 2441SOL     OW 7327   4.041   0.251   1.801
 2441SOL    HW1 7328   4.112   0.322   1.807
 2441SOL    HW2 7329   3.953   0.290   1.829
 2442SOL     OW 7330   4.322   0.729   0.270
 2442SOL    HW1 7331   4.346   0.798   0.202
 2442SOL    HW2 7332   4.244   0.762   0.324
 2443SOL     OW 7333   3.800   0.811   0.789
 2443SOL    HW1 7334   3.899   0.799   0.798
 2443SOL    HW2 7335   3.776   0.906   0.810
 2444SOL     OW 7336   3.854   1.821   1.571
 2444SOL    HW1 7337   3.844   1.806   1.670
 2444SOL    HW2 7338   3.768   1.857   1.535
 2445SOL     OW 7339   4.274   0.196   0.885
 2445SOL    HW1 7340   4.269   0.191   0.985
 2445SOL    HW2 7341   4.276   0.292   0.856
 2446SOL     OW 7342   4.075   1.801   0.853
 2446SOL    HW1 7343   4.125   1.715   0.859
 2446SOL    HW2 7344   4.140   1.878   0.850
 2447SOL     OW 7345   4.045   0.943   0.242
 2447SOL    HW1 7346   4.127   0.982   0.200
 2447SOL    HW2 7347   4.018   0.861   0.193
 2448SOL     OW 7348   4.185   1.266   1.727
 2448SOL    HW1 7349   4.135   1.267   1.641
 2448SOL    HW2 7350   4.122   1.248   1.803
 2449SOL     OW 7351   3.926   0.285   1.498
 2449SOL    HW1 7352   3.846   0.345   1.485
 2449SOL    HW2 7353   3.916   0.236   1.584
 2450SOL     OW 7354   4.188   1.743   0.323
 2450SOL    HW1 7355   4.221   1.782   0.409
 2450SOL    HW2 7356   4.264   1.736   0.258
 2451SOL     OW 7357   3.973   1.785   1.241
 2451SOL    HW1 7358   4.030   1.720   1.291
 2451SOL    HW2 7359   3.957   1.752   1.148
 2452SOL     OW 7360   4.106   0.700   0.480
 2452SOL    HW1 7361   4.151   0.610   0.477
 2452SOL    HW2 7362   4.012   0.689   0.513
 2453SOL     OW 7363   4.527   1.402   0.924
 2453SOL    HW1 7364   4.617   1.416   0.882
 2453SOL    HW2 7365   4.456   1.404   0.853
 2454SOL     OW 7366   4.263   0.064   0.512
 2454SOL    HW1 7367   4.182   0.065   0.570
 2454SOL    HW2 7368   4.266   0.147   0.457
 2455SOL     OW 7369   4.021   0.035   0.171
 2455SOL    HW1 7370   4.070   0.119   0.150
 2455SOL    HW2 7371   4.083  -0.030   0.216
 2456SOL     OW 7372   4.659   0.236   0.480
 2456SOL    HW1 7373   4.611   0.277   0.402
 2456SOL    HW2 7374   4.758   0.234   0.461
 2457SOL     OW 7375   4.183   1.152   0.741
 2457SOL    HW1 7376   4.112   1.125   0.806
 2457SOL    HW2 7377   4.157   1.124   0.648
 2458SOL     OW 7378   3.802   0.556   1.386
 2458SOL    HW1 7379   3.894   0.555   1.345
 2458SOL    HW2 7380   3.796   0.630   1.453
 2459SOL     OW 7381   4.285   0.222   1.147
 2459SOL    HW1 7382   4.323   0.138   1.184
 2459SOL    HW2 7383   4.197   0.241   1.191
 2460SOL     OW 7384   4.212   1.385   0.174
 2460SOL    HW1 7385   4.125   1.370   0.221
 2460SOL    HW2 7386   4.195   1.411   0.079
 2461SOL     OW 7387   4.251   0.256   0.328
 2461SOL    HW1 7388   4.278   0.197   0.253
 2461SOL    HW2 7389   4.251   0.351   0.297
 2462SOL     OW 7390   4.134   0.813   1.251
 2462SOL    HW1 7391   4.220   0.825   1.301
 2462SOL    HW2 7392   4.092   0.726   1.278
 2463SOL     OW 7393   3.788   1.564   1.331
 2463SOL    HW1 7394   3.742   1.646   1.297
 2463SOL    HW2 7395   3.886   1.583   1.340
 2464SOL     OW 7396   4.091   1.100   0.501
 2464SOL    HW1 7397   4.084   1.183   0.445
 2464SOL    HW2 7398   4.095   1.020   0.441
 2465SOL     OW 7399   4.290   0.537   0.865
 2465SOL    HW1 7400   4.302   0.603   0.791
 2465SOL    HW2 7401   4.336   0.571   0.948
 2466SOL     OW 7402   4.078   1.510   1.329
 2466SOL    HW1 7403   4.057   1.466   1.242
 2466SOL    HW2 7404   4.175   1.536   1.332
 2467SOL     OW 7405   4.126   0.751   1.598
 2467SOL    HW1 7406   4.194   0.806   1.551
 2467SOL    HW2 7407   4.166   0.663   1.625
 2468SOL     OW 7408   4.228   0.050   1.740
 2468SOL    HW1 7409   4.186  -0.007   1.670
 2468SOL    HW2 7410   4.162   0.119   1.772
 2469SOL     OW 7411   4.297   0.870   1.029
 2469SOL    HW1 7412   4.341   0.959   1.020
 2469SOL    HW2 7413   4.234   0.870   1.106
 2470SOL     OW 7414   4.031   0.213   1.231
 2470SOL    HW1 7415   4.008   0.250   1.321
 2470SOL    HW2 7416   4.001   0.118   1.225
 2471SOL     OW 7417   3.761   1.310   1.282
 2471SOL    HW1 7418   3.814   1.261   1.350
 2471SOL    HW2 7419   3.783   1.408   1.287
 2472SOL     OW 7420   4.031   0.063   0.618
 2472SOL    HW1 7421   4.020   0.157   0.651
 2472SOL    HW2 7422   4.026   0.000   0.695
 2473SOL     OW 7423   4.074   0.898   1.804
 2473SOL    HW1 7424   4.150   0.942   1.852
 2473SOL    HW2 7425   4.109   0.851   1.722
 2474SOL     OW 7426   4.043   0.810   0.949
 2474SOL    HW1 7427   4.136   0.846   0.954
 2474SOL    HW2 7428   4.037   0.725   1.001
 2475SOL     OW 7429   4.063   0.509   1.006
 2475SOL    HW1 7430   4.011   0.426   0.989
 2475SOL    HW2 7431   4.140   0.514   0.942
 2476SOL     OW 7432   3.732   1.326   0.200
 2476SOL    HW1 7433   3.639   1.347   0.169
 2476SOL    HW2 7434   3.742   1.227   0.213
 2477SOL     OW 7435   3.812   1.801   0.927
 2477SOL    HW1 7436   3.770   1.715   0.900
 2477SOL    HW2 7437   3.906   1.804   0.893
 2478SOL     OW 7438   4.228   1.568   0.910
 2478SOL    HW1 7439   4.294   1.642   0.919
 2478SOL    HW2 7440   4.272   1.489   0.868
 2479SOL     OW 7441   3.764   0.544   1.114
 2479SOL    HW1 7442   3.849   0.511   1.073
 2479SOL    HW2 7443   3.777   0.559   1.212
 2480SOL     OW 7444   3.913   0.520   1.722
 2480SOL    HW1 7445   3.972   0.480   1.652
 2480SOL    HW2 7446   3.855   0.591   1.681
 2481SOL     OW 7447   4.539   0.572   0.325
 2481SOL    HW1 7448   4.546   0.483   0.279
 2481SOL    HW2 7449   4.445   0.606   0.317
 2482SOL     OW 7450   3.976   1.564   1.744
 2482SOL    HW1 7451   3.946   1.621   1.820
 2482SOL    HW2 7452   3.969   1.467   1.770
 2483SOL     OW 7453   4.197   0.500   0.191
 2483SOL    HW1 7454   4.258   0.580   0.195
 2483SOL    HW2 7455   4.102   0.531   0.198
 2484SOL     OW 7456   3.883   1.137   1.466
 2484SOL    HW1 7457   3.905   1.076   1.542
 2484SOL    HW2 7458   3.893   1.088   1.380
 2485SOL     OW 7459   3.807   1.258   1.022
 2485SOL    HW1 7460   3.802   1.257   1.122
 2485SOL    HW2 7461   3.724   1.217   0.984
 2486SOL     OW 7462   4.412   1.662   1.716
 2486SOL    HW1 7463   4.356   1.743   1.725
 2486SOL    HW2 7464   4.464   1.666   1.630
 2487SOL     OW 7465   3.854   1.794   1.851
 2487SOL    HW1 7466   3.813   1.720   1.904
 2487SOL    HW2 7467   3.918   1.845   1.909
 2488SOL     OW 7468   3.987   0.326   0.720
 2488SOL    HW1 7469   3.908   0.377   0.686
 2488SOL    HW2 7470   3.978   0.311   0.818
 2489SOL     OW 7471   4.096   1.288   1.490
 2489SOL    HW1 7472   4.083   1.381   1.456
 2489SOL    HW2 7473   4.012   1.236   1.477
 2490SOL     OW 7474   4.314   1.487   0.491
 2490SOL    HW1 7475   4.356   1.429   0.421
 2490SOL    HW2 7476   4.270   1.566   0.447
 2491SOL     OW 7477   3.979   1.348   0.290
 2491SOL    HW1 7478   3.883   1.349   0.263
 2491SOL    HW2 7479   3.991   1.401   0.374
 2492SOL     OW 7480   3.829   1.013   1.726
 2492SOL    HW1 7481   3.752   0.980   1.780
 2492SOL    HW2 7482   3.914   0.983   1.768
 2493SOL     OW 7483   4.396   0.203   1.489
 2493SOL    HW1 7484   4.486   0.187   1.449
 2493SOL    HW2 7485   4.404   0.208   1.588
 2494SOL     OW 7486   3.799   0.345   0.033
 2494SOL    HW1 7487   3.707   0.317   0.004
 2494SOL    HW2 7488   3.830   0.422  -0.023
 2495SOL     OW 7489   4.337   0.842   1.431
 2495SOL    HW1 7490   4.393   0.923   1.414
 2495SOL    HW2 7491   4.396   0.762   1.434
 2496SOL     OW 7492   4.114   1.741   1.560
 2496SOL    HW1 7493   4.023   1.782   1.558
 2496SOL    HW2 7494   4.107   1.647   1.592
 2497SOL     OW 7495   4.318   0.745   0.652
 2497SOL    HW1 7496   4.368   0.830   0.633
 2497SOL    HW2 7497   4.230   0.747   0.604
 2498SOL     OW 7498   3.945   1.314   1.844
 2498SOL    HW1 7499   3.880   1.241   1.823
 2498SOL    HW2 7500   3.949   1.328   1.942
 2499SOL     OW 7501   3.803   1.240   0.653
 2499SOL    HW1 7502   3.802   1.193   0.741
 2499SOL    HW2 7503   3.885   1.212   0.602
 2500SOL     OW 7504   4.396   1.391   1.624
 2500SOL    HW1 7505   4.318   1.341   1.662
 2500SOL    HW2 7506   4.393   1.486   1.655
 2501SOL     OW 7507   4.152   0.424   0.520
 2501SOL    HW1 7508   4.182   0.352   0.458
 2501SOL    HW2 7509   4.113   0.384   0.603
 2502SOL     OW 7510   4.041   0.547   1.280
 2502SOL    HW1 7511   4.079   0.488   1.352
 2502SOL    HW2 7512   4.081   0.521   1.192
 2503SOL     OW 7513   3.763   1.077   0.300
 2503SOL    HW1 7514   3.862   1.066   0.291
 2503SOL    HW2 7515   3.723   0.991   0.332
 2504SOL     OW 7516   3.954   0.628   1.975
 2504SOL    HW1 7517   3.861   0.626   2.012
 2504SOL    HW2 7518   3.955   0.589   1.883
 2505SOL     OW 7519   3.949   0.275   2.858
 2505SOL    HW1 7520   3.984   0.258   2.950
 2505SOL    HW2 7521   3.861   0.230   2.846
 2506SOL     OW 7522   3.743   0.368   2.509
 2506SOL    HW1 7523   3.661   0.411   2.548
 2506SOL    HW2 7524   3.715   0.295   2.446
 2507SOL     OW 7525   4.293   1.275   3.027
 2507SOL    HW1 7526   4.200   1.268   2.990
 2507SOL    HW2 7527   4.304   1.364   3.071
 2508SOL     OW 7528   4.574   0.798   3.685
 2508SOL    HW1 7529   4.570   0.874   3.750
 2508SOL    HW2 7530   4.596   0.834   3.594
 2509SOL     OW 7531   4.410   1.161   3.665
 2509SOL    HW1 7532   4.470   1.240   3.679
 2509SOL    HW2 7533   4.324   1.192   3.624
 2510SOL     OW 7534   4.059   1.435   2.923
 2510SOL    HW1 7535   3.981   1.404   2.870
 2510SOL    HW2 7536   4.117   1.493   2.866
 2511SOL     OW 7537   4.162   0.392   3.361
 2511SOL    HW1 7538   4.244   0.336   3.370
 2511SOL    HW2 7539   4.081   0.334   3.365
 2512SOL     OW 7540   3.955   1.713   2.345
 2512SOL    HW1 7541   3.989   1.790   2.399
 2512SOL    HW2 7542   3.999   1.713   2.255
 2513SOL     OW 7543   3.954   1.434   2.400
 2513SOL    HW1 7544   3.928   1.530   2.400
 2513SOL    HW2 7545   3.883   1.380   2.445
 2514SOL     OW 7546   3.964   1.091   2.748
 2514SOL    HW1 7547   3.978   1.007   2.800
 2514SOL    HW2 7548   3.909   1.155   2.803
 2515SOL     OW 7549   4.344   1.786   3.301
 2515SOL    HW1 7550   4.252   1.769   3.336
 2515SOL    HW2 7551   4.372   1.878   3.327
 2516SOL     OW 7552   4.330   0.964   1.985
 2516SOL    HW1 7553   4.337   1.048   1.931
 2516SOL    HW2 7554   4.376   0.977   2.073
 2517SOL     OW 7555   3.846   0.643   2.425
 2517SOL    HW1 7556   3.801   0.555   2.442
 2517SOL    HW2 7557   3.845   0.697   2.509
 2518SOL     OW 7558   3.751   1.596   1.979
 2518SOL    HW1 7559   3.732   1.500   2.000
 2518SOL    HW2 7560   3.718   1.654   2.054
 2519SOL     OW 7561   3.837   0.737   3.459
 2519SOL    HW1 7562   3.925   0.724   3.504
 2519SOL    HW2 7563   3.824   0.834   3.437
 2520SOL     OW 7564   4.337   1.365   2.588
 2520SOL    HW1 7565   4.288   1.278   2.597
 2520SOL    HW2 7566   4.314   1.408   2.501
 2521SOL     OW 7567   3.921   0.976   3.126
 2521SOL    HW1 7568   4.010   0.931   3.112
 2521SOL    HW2 7569   3.848   0.911   3.107
 2522SOL     OW 7570   4.041   0.251   3.663
 2522SOL    HW1 7571   4.112   0.322   3.669
 2522SOL    HW2 7572   3.953   0.290   3.691
 2523SOL     OW 7573   4.322   0.729   2.132
 2523SOL    HW1 7574   4.346   0.798   2.064
 2523SOL    HW2 7575   4.244   0.762   2.186
 2524SOL     OW 7576   3.800   0.811   2.651
 2524SOL    HW1 7577   3.899   0.799   2.660
 2524SOL    HW2 7578   3.776   0.906   2.672
 2525SOL     OW 7579   3.854   1.821   3.433
 2525SOL    HW1 7580   3.844   1.806   3.532
 2525SOL    HW2 7581   3.768   1.857   3.397
 2526SOL     OW 7582   4.274   0.196   2.747
 2526SOL    HW1 7583   4.269   0.191   2.847
 2526SOL    HW2 7584   4.276   0.292   2.718
 2527SOL     OW 7585   4.075   1.801   2.715
 2527SOL    HW1 7586   4.125   1.715   2.721
 2527SOL    HW2 7587   4.140   1.878   2.712
 2528SOL     OW 7588   4.045   0.943   2.104
 2528SOL    HW1 7589   4.127   0.982   2.062
 2528SOL    HW2 7590   4.018   0.861   2.055
 2529SOL     OW 7591   4.185   1.266   3.589
 2529SOL    HW1 7592   4.135   1.267   3.503
 2529SOL    HW2 7593   4.122   1.248   3.665
 2530SOL     OW 7594   3.926   0.285   3.360
 2530SOL    HW1 7595   3.846   0.345   3.347
 2530SOL    HW2 7596   3.916   0.236   3.446
 2531SOL     OW 7597   4.188   1.743   2.185
 2531SOL    HW1 7598   4.221   1.782   2.271
 2531SOL    HW2 7599   4.264   1.736   2.120
 2532SOL     OW 7600   3.973   1.785   3.103
 2532SOL    HW1 7601   4.030   1.720   3.153
 2532SOL    HW2 7602   3.957   1.752   3.010
 2533SOL     OW 7603   4.106   0.700   2.342
 2533SOL    HW1 7604   4.151   0.610   2.339
 2533SOL    HW2 7605   4.012   0.689   2.375
 2534SOL     OW 7606   4.338   0.122   1.979
 2534SOL    HW1 7607   4.436   0.100   1.986
 2534SOL    HW2 7608   4.307   0.105   1.886
 2535SOL     OW 7609   4.527   1.402   2.786
 2535SOL    HW1 7610   4.617   1.416   2.744
 2535SOL    HW2 7611   4.456   1.404   2.715
 2536SOL     OW 7612   4.263   0.064   2.374
 2536SOL    HW1 7613   4.182   0.065   2.432
 2536SOL    HW2 7614   4.266   0.147   2.319
 2537SOL     OW 7615   4.021   0.035   2.033
 2537SOL    HW1 7616   4.070   0.119   2.012
 2537SOL    HW2 7617   4.083  -0.030   2.078
 2538SOL     OW 7618   4.659   0.236   2.342
 2538SOL    HW1 7619   4.611   0.277   2.264
 2538SOL    HW2 7620   4.758   0.234   2.323
 2539SOL     OW 7621   4.183   1.152   2.603
 2539SOL    HW1 7622   4.112   1.125   2.668
 2539SOL    HW2 7623   4.157   1.124   2.510
 2540SOL     OW 7624   3.802   0.556   3.248
 2540SOL    HW1 7625   3.894   0.555   3.207
 2540SOL    HW2 7626   3.796   0.630   3.315
 2541SOL     OW 7627   4.285   0.222   3.009
 2541SOL    HW1 7628   4.323   0.138   3.046
 2541SOL    HW2 7629   4.197   0.241   3.053
 2542SOL     OW 7630   4.212   1.385   2.036
 2542SOL    HW1 7631   4.125   1.370   2.083
 2542SOL    HW2 7632   4.195   1.411   1.941
 2543SOL     OW 7633   4.251   0.256   2.190
 2543SOL    HW1 7634   4.278   0.197   2.115
 2543SOL    HW2 7635   4.251   0.351   2.159
 2544SOL     OW 7636   4.134   0.813   3.113
 2544SOL    HW1 7637   4.220   0.825   3.163
 2544SOL    HW2 7638   4.092   0.726   3.140
 2545SOL     OW 7639   3.788   1.564   3.193
 2545SOL    HW1 7640   3.742   1.646   3.159
 2545SOL    HW2 7641   3.886   1.583   3.202
 2546SOL     OW 7642   4.091   1.100   2.363
 2546SOL    HW1 7643   4.084   1.183   2.307
 2546SOL    HW2 7644   4.095   1.020   2.303
 2547SOL     OW 7645   4.290   0.537   2.727
 2547SOL    HW1 7646   4.302   0.603   2.653
 2547SOL    HW2 7647   4.336   0.571   2.810
 2548SOL     OW 7648   4.078   1.510   3.191
 2548SOL    HW1 7649   4.057   1.466   3.104
 2548SOL    HW2 7650   4.175   1.536   3.194
 2549SOL     OW 7651   4.126   0.751   3.460
 2549SOL    HW1 7652   4.194   0.806   3.413
 2549SOL    HW2 7653   4.166   0.663   3.487
 2550SOL     OW 7654   4.228   0.050   3.602
 2550SOL    HW1 7655   4.186  -0.007   3.532
 2550SOL    HW2 7656   4.162   0.119   3.634
 2551SOL     OW 7657   4.297   0.870   2.891
 2551SOL    HW1 7658   4.341   0.959   2.882
 2551SOL    HW2 7659   4.234   0.870   2.968
 2552SOL     OW 7660   4.031   0.213   3.093
 2552SOL    HW1 7661   4.008   0.250   3.183
 2552SOL    HW2 7662   4.001   0.118   3.087
 2553SOL     OW 7663   3.761   1.310   3.144
 2553SOL    HW1 7664   3.814   1.261   3.212
 2553SOL    HW2 7665   3.783   1.408   3.149
 2554SOL     OW 7666   4.031   0.063   2.480
 2554SOL    HW1 7667   4.020   0.157   2.513
 2554SOL    HW2 7668   4.026   0.000   2.557
 2555SOL     OW 7669   4.074   0.898   3.666
 2555SOL    HW1 7670   4.150   0.942   3.714
 2555SOL    HW2 7671   4.109   0.851   3.584
 2556SOL     OW 7672   4.043   0.810   2.811
 2556SOL    HW1 7673   4.136   0.846   2.816
 2556SOL    HW2 7674   4.037   0.725   2.863
 2557SOL     OW 7675   4.063   0.509   2.868
 2557SOL    HW1 7676   4.011   0.426   2.851
 2557SOL    HW2 7677   4.140   0.514   2.804
 2558SOL     OW 7678   3.732   1.326   2.062
 2558SOL    HW1 7679   3.639   1.347   2.031
 2558SOL    HW2 7680   3.742   1.227   2.075
 2559SOL     OW 7681   3.812   1.801   2.789
 2559SOL    HW1 7682   3.770   1.715   2.762
 2559SOL    HW2 7683   3.906   1.804   2.755
 2560SOL     OW 7684   4.228   1.568   2.772
 2560SOL    HW1 7685   4.294   1.642   2.781
 2560SOL    HW2 7686   4.272   1.489   2.730
 2561SOL     OW 7687   3.764   0.544   2.976
 2561SOL    HW1 7688   3.849   0.511   2.935
 2561SOL    HW2 7689   3.777   0.559   3.074
 2562SOL     OW 7690   3.913   0.520   3.584
 2562SOL    HW1 7691   3.972   0.480   3.514
 2562SOL    HW2 7692   3.855   0.591   3.543
 2563SOL     OW 7693   4.539   0.572   2.187
 2563SOL    HW1 7694   4.546   0.483   2.141
 2563SOL    HW2 7695   4.445   0.606   2.179
 2564SOL     OW 7696   3.976   1.564   3.606
 2564SOL    HW1 7697   3.946   1.621   3.682
 2564SOL    HW2 7698   3.969   1.467   3.632
 2565SOL     OW 7699   4.197   0.500   2.053
 2565SOL    HW1 7700   4.258   0.580   2.057
 2565SOL    HW2 7701   4.102   0.531   2.060
 2566SOL     OW 7702   3.883   1.137   3.328
 2566SOL    HW1 7703   3.905   1.076   3.404
 2566SOL    HW2 7704   3.893   1.088   3.242
 2567SOL     OW 7705   3.807   1.258   2.884
 2567SOL    HW1 7706   3.802   1.257   2.984
 2567SOL    HW2 7707   3.724   1.217   2.846
 2568SOL     OW 7708   4.412   1.662   3.578
 2568SOL    HW1 7709   4.356   1.743   3.587
 2568SOL    HW2 7710   4.464   1.666   3.492
 2569SOL     OW 7711   3.854   1.794   3.713
 2569SOL    HW1 7712   3.813   1.720   3.766
 2569SOL    HW2 7713   3.918   1.845   3.771
 2570SOL     OW 7714   3.987   0.326   2.582
 2570SOL    HW1 7715   3.908   0.377   2.548
 2570SOL    HW2 7716   3.978   0.311   2.680
 2571SOL     OW 7717   4.096   1.288   3.352
 2571SOL    HW1 7718   4.083   1.381   3.318
 2571SOL    HW2 7719   4.012   1.236   3.339
 2572SOL     OW 7720   4.314   1.487   2.353
 2572SOL    HW1 7721   4.356   1.429   2.283
 2572SOL    HW2 7722   4.270   1.566   2.309
 2573SOL     OW 7723   3.979   1.348   2.152
 2573SOL    HW1 7724   3.883   1.349   2.125
 2573SOL    HW2 7725   3.991   1.401   2.236
 2574SOL     OW 7726   3.829   1.013   3.588
 2574SOL    HW1 7727   3.752   0.980   3.642
 2574SOL    HW2 7728   3.914   0.983   3.630
 2575SOL     OW 7729   4.396   0.203   3.351
 2575SOL    HW1 7730   4.486   0.187   3.311
 2575SOL    HW2 7731   4.404   0.208   3.450
 2576SOL     OW 7732   3.799   0.345   1.895
 2576SOL    HW1 7733   3.707   0.317   1.866
 2576SOL    HW2 7734   3.830   0.422   1.839
 2577SOL     OW 7735   3.796   0.166   2.180
 2577SOL    HW1 7736   3.779   0.249   2.126
 2577SOL    HW2 7737   3.886   0.129   2.158
 2578SOL     OW 7738   4.337   0.842   3.293
 2578SOL    HW1 7739   4.393   0.923   3.276
 2578SOL    HW2 7740   4.396   0.762   3.296
 2579SOL     OW 7741   4.114   1.741   3.422
 2579SOL    HW1 7742   4.023   1.782   3.420
 2579SOL    HW2 7743   4.107   1.647   3.454
 2580SOL     OW 7744   4.318   0.745   2.514
 2580SOL    HW1 7745   4.368   0.830   2.495
 2580SOL    HW2 7746   4.230   0.747   2.466
 2581SOL     OW 7747   3.945   1.314   3.706
 2581SOL    HW1 7748   3.880   1.241   3.685
 2581SOL    HW2 7749   3.949   1.328   3.804
 2582SOL     OW 7750   3.803   1.240   2.515
 2582SOL    HW1 7751   3.802   1.193   2.603
 2582SOL    HW2 7752   3.885   1.212   2.464
 2583SOL     OW 7753   4.396   1.391   3.486
 2583SOL    HW1 7754   4.318   1.341   3.524
 2583SOL    HW2 7755   4.393   1.486   3.517
 2584SOL     OW 7756   4.152   0.424   2.382
 2584SOL    HW1 7757   4.182   0.352   2.320
 2584SOL    HW2 7758   4.113   0.384   2.465
 2585SOL     OW 7759   4.041   0.547   3.142
 2585SOL    HW1 7760   4.079   0.488   3.214
 2585SOL    HW2 7761   4.081   0.521   3.054
 2586SOL     OW 7762   3.763   1.077   2.162
 2586SOL    HW1 7763   3.862   1.066   2.153
 2586SOL    HW2 7764   3.723   0.991   2.194
 2587SOL     OW 7765   3.954   0.628   3.837
 2587SOL    HW1 7766   3.861   0.626   3.874
 2587SOL    HW2 7767   3.955   0.589   3.745
 2588SOL     OW 7768   3.949   0.275   4.720
 2588SOL    HW1 7769   3.984   0.258   4.812
 2588SOL    HW2 7770   3.861   0.230   4.708
 2589SOL     OW 7771   3.955   1.713   4.207
 2589SOL    HW1 7772   3.989   1.790   4.261
 2589SOL    HW2 7773   3.999   1.713   4.117
 2590SOL     OW 7774   3.954   1.434   4.262
 2590SOL    HW1 7775   3.928   1.530   4.262
 2590SOL    HW2 7776   3.883   1.380   4.307
 2591SOL     OW 7777   4.330   0.964   3.847
 2591SOL    HW1 7778   4.337   1.048   3.793
 2591SOL    HW2 7779   4.376   0.977   3.935
 2592SOL     OW 7780   3.846   0.643   4.287
 2592SOL    HW1 7781   3.801   0.555   4.304
 2592SOL    HW2 7782   3.845   0.697   4.371
 2593SOL     OW 7783   3.751   1.596   3.841
 2593SOL    HW1 7784   3.732   1.500   3.862
 2593SOL    HW2 7785   3.718   1.654   3.916
 2594SOL     OW 7786   4.337   1.365   4.450
 2594SOL    HW1 7787   4.288   1.278   4.459
 2594SOL    HW2 7788   4.314   1.408   4.363
 2595SOL     OW 7789   4.322   0.729   3.994
 2595SOL    HW1 7790   4.346   0.798   3.926
 2595SOL    HW2 7791   4.244   0.762   4.048
 2596SOL     OW 7792   3.800   0.811   4.513
 2596SOL    HW1 7793   3.899   0.799   4.522
 2596SOL    HW2 7794   3.776   0.906   4.534
 2597SOL     OW 7795   4.075   1.801   4.577
 2597SOL    HW1 7796   4.125   1.715   4.583
 2597SOL    HW2 7797   4.140   1.878   4.574
 2598SOL     OW 7798   4.045   0.943   3.966
 2598SOL    HW1 7799   4.127   0.982   3.924
 2598SOL    HW2 7800   4.018   0.861   3.917
 2599SOL     OW 7801   4.188   1.743   4.047
 2599SOL    HW1 7802   4.221   1.782   4.133
 2599SOL    HW2 7803   4.264   1.736   3.982
 2600SOL     OW 7804   4.106   0.700   4.204
 2600SOL    HW1 7805   4.151   0.610   4.201
 2600SOL    HW2 7806   4.012   0.689   4.237
 2601SOL     OW 7807   4.338   0.122   3.841
 2601SOL    HW1 7808   4.436   0.100   3.848
 2601SOL    HW2 7809   4.307   0.105   3.748
 2602SOL     OW 7810   4.263   0.064   4.236
 2602SOL    HW1 7811   4.182   0.065   4.294
 2602SOL    HW2 7812   4.266   0.147   4.181
 2603SOL     OW 7813   4.021   0.035   3.895
 2603SOL    HW1 7814   4.070   0.119   3.874
 2603SOL    HW2 7815   4.083  -0.030   3.940
 2604SOL     OW 7816   4.659   0.236   4.204
 2604SOL    HW1 7817   4.611   0.277   4.126
 2604SOL    HW2 7818   4.758   0.234   4.185
 2605SOL     OW 7819   4.183   1.152   4.465
 2605SOL    HW1 7820   4.112   1.125   4.530
 2605SOL    HW2 7821   4.157   1.124   4.372
 2606SOL     OW 7822   4.212   1.385   3.898
 2606SOL    HW1 7823   4.125   1.370   3.945
 2606SOL    HW2 7824   4.195   1.411   3.803
 2607SOL     OW 7825   4.251   0.256   4.052
 2607SOL    HW1 7826   4.278   0.197   3.977
 2607SOL    HW2 7827   4.251   0.351   4.021
 2608SOL     OW 7828   4.091   1.100   4.225
 2608SOL    HW1 7829   4.084   1.183   4.169
 2608SOL    HW2 7830   4.095   1.020   4.165
 2609SOL     OW 7831   4.031   0.063   4.342
 2609SOL    HW1 7832   4.020   0.157   4.375
 2609SOL    HW2 7833   4.026   0.000   4.419
 2610SOL     OW 7834   3.732   1.326   3.924
 2610SOL    HW1 7835   3.639   1.347   3.893
 2610SOL    HW2 7836   3.742   1.227   3.937
 2611SOL     OW 7837   4.539   0.572   4.049
 2611SOL    HW1 7838   4.546   0.483   4.003
 2611SOL    HW2 7839   4.445   0.606   4.041
 2612SOL     OW 7840   4.197   0.500   3.915
 2612SOL    HW1 7841   4.258   0.580   3.919
 2612SOL    HW2 7842   4.102   0.531   3.922
 2613SOL     OW 7843   4.314   1.487   4.215
 2613SOL    HW1 7844   4.356   1.429   4.145
 2613SOL    HW2 7845   4.270   1.566   4.171
 2614SOL     OW 7846   3.979   1.348   4.014
 2614SOL    HW1 7847   3.883   1.349   3.987
 2614SOL    HW2 7848   3.991   1.401   4.098
 2615SOL     OW 7849   3.799   0.345   3.757
 2615SOL    HW1 7850   3.707   0.317   3.728
 2615SOL    HW2 7851   3.830   0.422   3.701
 2616SOL     OW 7852   3.796   0.166   4.042
 2616SOL    HW1 7853   3.779   0.249   3.988
 2616SOL    HW2 7854   3.886   0.129   4.020
 2617SOL     OW 7855   4.318   0.745   4.376
 2617SOL    HW1 7856   4.368   0.830   4.357
 2617SOL    HW2 7857   4.230   0.747   4.328
 2618SOL     OW 7858   3.803   1.240   4.377
 2618SOL    HW1 7859   3.802   1.193   4.465
 2618SOL    HW2 7860   3.885   1.212   4.326
 2619SOL     OW 7861   4.152   0.424   4.244
 2619SOL    HW1 7862   4.182   0.352   4.182
 2619SOL    HW2 7863   4.113   0.384   4.327
 2620SOL     OW 7864   3.763   1.077   4.024
 2620SOL    HW1 7865   3.862   1.066   4.015
 2620SOL    HW2 7866   3.723   0.991   4.056
 2621SOL     OW 7867   3.954   2.490   0.113
 2621SOL    HW1 7868   3.861   2.488   0.150
 2621SOL    HW2 7869   3.955   2.451   0.021
 2622SOL     OW 7870   3.949   2.137   0.996
 2622SOL    HW1 7871   3.984   2.120   1.088
 2622SOL    HW2 7872   3.861   2.092   0.984
 2623SOL     OW 7873   3.743   2.230   0.647
 2623SOL    HW1 7874   3.661   2.273   0.686
 2623SOL    HW2 7875   3.715   2.157   0.584
 2624SOL     OW 7876   4.293   3.137   1.165
 2624SOL    HW1 7877   4.200   3.130   1.128
 2624SOL    HW2 7878   4.304   3.226   1.209
 2625SOL     OW 7879   4.574   2.660   1.823
 2625SOL    HW1 7880   4.570   2.736   1.888
 2625SOL    HW2 7881   4.596   2.696   1.732
 2626SOL     OW 7882   4.410   3.023   1.803
 2626SOL    HW1 7883   4.470   3.102   1.817
 2626SOL    HW2 7884   4.324   3.054   1.762
 2627SOL     OW 7885   4.059   3.297   1.061
 2627SOL    HW1 7886   3.981   3.266   1.008
 2627SOL    HW2 7887   4.117   3.355   1.004
 2628SOL     OW 7888   4.162   2.254   1.499
 2628SOL    HW1 7889   4.244   2.198   1.508
 2628SOL    HW2 7890   4.081   2.196   1.503
 2629SOL     OW 7891   3.955   3.575   0.483
 2629SOL    HW1 7892   3.989   3.652   0.537
 2629SOL    HW2 7893   3.999   3.575   0.393
 2630SOL     OW 7894   3.954   3.296   0.538
 2630SOL    HW1 7895   3.928   3.392   0.538
 2630SOL    HW2 7896   3.883   3.242   0.583
 2631SOL     OW 7897   3.964   2.953   0.886
 2631SOL    HW1 7898   3.978   2.869   0.938
 2631SOL    HW2 7899   3.909   3.017   0.941
 2632SOL     OW 7900   4.344   3.648   1.439
 2632SOL    HW1 7901   4.252   3.631   1.474
 2632SOL    HW2 7902   4.372   3.740   1.465
 2633SOL     OW 7903   4.330   2.826   0.123
 2633SOL    HW1 7904   4.337   2.910   0.069
 2633SOL    HW2 7905   4.376   2.839   0.211
 2634SOL     OW 7906   3.846   2.505   0.563
 2634SOL    HW1 7907   3.801   2.417   0.580
 2634SOL    HW2 7908   3.845   2.559   0.647
 2635SOL     OW 7909   3.751   3.458   0.117
 2635SOL    HW1 7910   3.732   3.362   0.138
 2635SOL    HW2 7911   3.718   3.516   0.192
 2636SOL     OW 7912   3.837   2.599   1.597
 2636SOL    HW1 7913   3.925   2.586   1.642
 2636SOL    HW2 7914   3.824   2.696   1.575
 2637SOL     OW 7915   4.337   3.227   0.726
 2637SOL    HW1 7916   4.288   3.140   0.735
 2637SOL    HW2 7917   4.314   3.270   0.639
 2638SOL     OW 7918   4.533   1.866   0.502
 2638SOL    HW1 7919   4.573   1.957   0.493
 2638SOL    HW2 7920   4.433   1.874   0.508
 2639SOL     OW 7921   3.921   2.838   1.264
 2639SOL    HW1 7922   4.010   2.793   1.250
 2639SOL    HW2 7923   3.848   2.773   1.245
 2640SOL     OW 7924   4.041   2.113   1.801
 2640SOL    HW1 7925   4.112   2.184   1.807
 2640SOL    HW2 7926   3.953   2.152   1.829
 2641SOL     OW 7927   4.322   2.591   0.270
 2641SOL    HW1 7928   4.346   2.660   0.202
 2641SOL    HW2 7929   4.244   2.624   0.324
 2642SOL     OW 7930   3.800   2.673   0.789
 2642SOL    HW1 7931   3.899   2.661   0.798
 2642SOL    HW2 7932   3.776   2.768   0.810
 2643SOL     OW 7933   3.854   3.683   1.571
 2643SOL    HW1 7934   3.844   3.668   1.670
 2643SOL    HW2 7935   3.768   3.719   1.535
 2644SOL     OW 7936   4.274   2.058   0.885
 2644SOL    HW1 7937   4.269   2.053   0.985
 2644SOL    HW2 7938   4.276   2.154   0.856
 2645SOL     OW 7939   4.075   3.663   0.853
 2645SOL    HW1 7940   4.125   3.577   0.859
 2645SOL    HW2 7941   4.140   3.740   0.850
 2646SOL     OW 7942   4.045   2.805   0.242
 2646SOL    HW1 7943   4.127   2.844   0.200
 2646SOL    HW2 7944   4.018   2.723   0.193
 2647SOL     OW 7945   4.185   3.128   1.727
 2647SOL    HW1 7946   4.135   3.129   1.641
 2647SOL    HW2 7947   4.122   3.110   1.803
 2648SOL     OW 7948   3.926   2.147   1.498
 2648SOL    HW1 7949   3.846   2.207   1.485
 2648SOL    HW2 7950   3.916   2.098   1.584
 2649SOL     OW 7951   4.188   3.605   0.323
 2649SOL    HW1 7952   4.221   3.644   0.409
 2649SOL    HW2 7953   4.264   3.598   0.258
 2650SOL     OW 7954   3.973   3.647   1.241
 2650SOL    HW1 7955   4.030   3.582   1.291
 2650SOL    HW2 7956   3.957   3.614   1.148
 2651SOL     OW 7957   4.106   2.562   0.480
 2651SOL    HW1 7958   4.151   2.472   0.477
 2651SOL    HW2 7959   4.012   2.551   0.513
 2652SOL     OW 7960   4.338   1.984   0.117
 2652SOL    HW1 7961   4.436   1.962   0.124
 2652SOL    HW2 7962   4.307   1.967   0.024
 2653SOL     OW 7963   4.527   3.264   0.924
 2653SOL    HW1 7964   4.617   3.278   0.882
 2653SOL    HW2 7965   4.456   3.266   0.853
 2654SOL     OW 7966   4.263   1.926   0.512
 2654SOL    HW1 7967   4.182   1.927   0.570
 2654SOL    HW2 7968   4.266   2.009   0.457
 2655SOL     OW 7969   4.659   2.098   0.480
 2655SOL    HW1 7970   4.611   2.139   0.402
 2655SOL    HW2 7971   4.758   2.096   0.461
 2656SOL     OW 7972   4.183   3.014   0.741
 2656SOL    HW1 7973   4.112   2.987   0.806
 2656SOL    HW2 7974   4.157   2.986   0.648
 2657SOL     OW 7975   3.802   2.418   1.386
 2657SOL    HW1 7976   3.894   2.417   1.345
 2657SOL    HW2 7977   3.796   2.492   1.453
 2658SOL     OW 7978   4.285   2.084   1.147
 2658SOL    HW1 7979   4.323   2.000   1.184
 2658SOL    HW2 7980   4.197   2.103   1.191
 2659SOL     OW 7981   4.212   3.247   0.174
 2659SOL    HW1 7982   4.125   3.232   0.221
 2659SOL    HW2 7983   4.195   3.273   0.079
 2660SOL     OW 7984   4.251   2.118   0.328
 2660SOL    HW1 7985   4.278   2.059   0.253
 2660SOL    HW2 7986   4.251   2.213   0.297
 2661SOL     OW 7987   4.134   2.675   1.251
 2661SOL    HW1 7988   4.220   2.687   1.301
 2661SOL    HW2 7989   4.092   2.588   1.278
 2662SOL     OW 7990   3.788   3.426   1.331
 2662SOL    HW1 7991   3.742   3.508   1.297
 2662SOL    HW2 7992   3.886   3.445   1.340
 2663SOL     OW 7993   4.091   2.962   0.501
 2663SOL    HW1 7994   4.084   3.045   0.445
 2663SOL    HW2 7995   4.095   2.882   0.441
 2664SOL     OW 7996   4.290   2.399   0.865
 2664SOL    HW1 7997   4.302   2.465   0.791
 2664SOL    HW2 7998   4.336   2.433   0.948
 2665SOL     OW 7999   4.078   3.372   1.329
 2665SOL    HW1 8000   4.057   3.328   1.242
 2665SOL    HW2 8001   4.175   3.398   1.332
 2666SOL     OW 8002   4.126   2.613   1.598
 2666SOL    HW1 8003   4.194   2.668   1.551
 2666SOL    HW2 8004   4.166   2.525   1.625
 2667SOL     OW 8005   4.228   1.912   1.740
 2667SOL    HW1 8006   4.186   1.855   1.670
 2667SOL    HW2 8007   4.162   1.981   1.772
 2668SOL     OW 8008   4.297   2.732   1.029
 2668SOL    HW1 8009   4.341   2.821   1.020
 2668SOL    HW2 8010   4.234   2.732   1.106
 2669SOL     OW 8011   4.031   2.075   1.231
 2669SOL    HW1 8012   4.008   2.112   1.321
 2669SOL    HW2 8013   4.001   1.980   1.225
 2670SOL     OW 8014   3.761   3.172   1.282
 2670SOL    HW1 8015   3.814   3.123   1.350
 2670SOL    HW2 8016   3.783   3.270   1.287
 2671SOL     OW 8017   4.031   1.925   0.618
 2671SOL    HW1 8018   4.020   2.019   0.651
 2671SOL    HW2 8019   4.026   1.862   0.695
 2672SOL     OW 8020   4.074   2.760   1.804
 2672SOL    HW1 8021   4.150   2.804   1.852
 2672SOL    HW2 8022   4.109   2.713   1.722
 2673SOL     OW 8023   4.043   2.672   0.949
 2673SOL    HW1 8024   4.136   2.708   0.954
 2673SOL    HW2 8025   4.037   2.587   1.001
 2674SOL     OW 8026   4.063   2.371   1.006
 2674SOL    HW1 8027   4.011   2.288   0.989
 2674SOL    HW2 8028   4.140   2.376   0.942
 2675SOL     OW 8029   3.732   3.188   0.200
 2675SOL    HW1 8030   3.639   3.209   0.169
 2675SOL    HW2 8031   3.742   3.089   0.213
 2676SOL     OW 8032   3.812   3.663   0.927
 2676SOL    HW1 8033   3.770   3.577   0.900
 2676SOL    HW2 8034   3.906   3.666   0.893
 2677SOL     OW 8035   4.228   3.430   0.910
 2677SOL    HW1 8036   4.294   3.504   0.919
 2677SOL    HW2 8037   4.272   3.351   0.868
 2678SOL     OW 8038   3.764   2.406   1.114
 2678SOL    HW1 8039   3.849   2.373   1.073
 2678SOL    HW2 8040   3.777   2.421   1.212
 2679SOL     OW 8041   3.913   2.382   1.722
 2679SOL    HW1 8042   3.972   2.342   1.652
 2679SOL    HW2 8043   3.855   2.453   1.681
 2680SOL     OW 8044   4.539   2.434   0.325
 2680SOL    HW1 8045   4.546   2.345   0.279
 2680SOL    HW2 8046   4.445   2.468   0.317
 2681SOL     OW 8047   3.976   3.426   1.744
 2681SOL    HW1 8048   3.946   3.483   1.820
 2681SOL    HW2 8049   3.969   3.329   1.770
 2682SOL     OW 8050   4.197   2.362   0.191
 2682SOL    HW1 8051   4.258   2.442   0.195
 2682SOL    HW2 8052   4.102   2.393   0.198
 2683SOL     OW 8053   3.883   2.999   1.466
 2683SOL    HW1 8054   3.905   2.938   1.542
 2683SOL    HW2 8055   3.893   2.950   1.380
 2684SOL     OW 8056   3.807   3.120   1.022
 2684SOL    HW1 8057   3.802   3.119   1.122
 2684SOL    HW2 8058   3.724   3.079   0.984
 2685SOL     OW 8059   4.412   3.524   1.716
 2685SOL    HW1 8060   4.356   3.605   1.725
 2685SOL    HW2 8061   4.464   3.528   1.630
 2686SOL     OW 8062   4.627   1.948   0.133
 2686SOL    HW1 8063   4.678   1.949   0.047
 2686SOL    HW2 8064   4.683   1.906   0.204
 2687SOL     OW 8065   3.854   3.656   1.851
 2687SOL    HW1 8066   3.813   3.582   1.904
 2687SOL    HW2 8067   3.918   3.707   1.909
 2688SOL     OW 8068   3.987   2.188   0.720
 2688SOL    HW1 8069   3.908   2.239   0.686
 2688SOL    HW2 8070   3.978   2.173   0.818
 2689SOL     OW 8071   4.096   3.150   1.490
 2689SOL    HW1 8072   4.083   3.243   1.456
 2689SOL    HW2 8073   4.012   3.098   1.477
 2690SOL     OW 8074   4.314   3.349   0.491
 2690SOL    HW1 8075   4.356   3.291   0.421
 2690SOL    HW2 8076   4.270   3.428   0.447
 2691SOL     OW 8077   3.979   3.210   0.290
 2691SOL    HW1 8078   3.883   3.211   0.263
 2691SOL    HW2 8079   3.991   3.263   0.374
 2692SOL     OW 8080   3.829   2.875   1.726
 2692SOL    HW1 8081   3.752   2.842   1.780
 2692SOL    HW2 8082   3.914   2.845   1.768
 2693SOL     OW 8083   4.396   2.065   1.489
 2693SOL    HW1 8084   4.486   2.049   1.449
 2693SOL    HW2 8085   4.404   2.070   1.588
 2694SOL     OW 8086   3.799   2.207   0.033
 2694SOL    HW1 8087   3.707   2.179   0.004
 2694SOL    HW2 8088   3.830   2.284  -0.023
 2695SOL     OW 8089   4.337   2.704   1.431
 2695SOL    HW1 8090   4.393   2.785   1.414
 2695SOL    HW2 8091   4.396   2.624   1.434
 2696SOL     OW 8092   4.114   3.603   1.560
 2696SOL    HW1 8093   4.023   3.644   1.558
 2696SOL    HW2 8094   4.107   3.509   1.592
 2697SOL     OW 8095   4.318   2.607   0.652
 2697SOL    HW1 8096   4.368   2.692   0.633
 2697SOL    HW2 8097   4.230   2.609   0.604
 2698SOL     OW 8098   3.945   3.176   1.844
 2698SOL    HW1 8099   3.880   3.103   1.823
 2698SOL    HW2 8100   3.949   3.190   1.942
 2699SOL     OW 8101   3.803   3.102   0.653
 2699SOL    HW1 8102   3.802   3.055   0.741
 2699SOL    HW2 8103   3.885   3.074   0.602
 2700SOL     OW 8104   4.396   3.253   1.624
 2700SOL    HW1 8105   4.318   3.203   1.662
 2700SOL    HW2 8106   4.393   3.348   1.655
 2701SOL     OW 8107   4.152   2.286   0.520
 2701SOL    HW1 8108   4.182   2.214   0.458
 2701SOL    HW2 8109   4.113   2.246   0.603
 2702SOL     OW 8110   4.041   2.409   1.280
 2702SOL    HW1 8111   4.079   2.350   1.352
 2702SOL    HW2 8112   4.081   2.383   1.192
 2703SOL     OW 8113   3.763   2.939   0.300
 2703SOL    HW1 8114   3.862   2.928   0.291
 2703SOL    HW2 8115   3.723   2.853   0.332
 2704SOL     OW 8116   3.954   2.490   1.975
 2704SOL    HW1 8117   3.861   2.488   2.012
 2704SOL    HW2 8118   3.955   2.451   1.883
 2705SOL     OW 8119   3.949   2.137   2.858
 2705SOL    HW1 8120   3.984   2.120   2.950
 2705SOL    HW2 8121   3.861   2.092   2.846
 2706SOL     OW 8122   3.743   2.230   2.509
 2706SOL    HW1 8123   3.661   2.273   2.548
 2706SOL    HW2 8124   3.715   2.157   2.446
 2707SOL     OW 8125   4.293   3.137   3.027
 2707SOL    HW1 8126   4.200   3.130   2.990
 2707SOL    HW2 8127   4.304   3.226   3.071
 2708SOL     OW 8128   4.574   2.660   3.685
 2708SOL    HW1 8129   4.570   2.736   3.750
 2708SOL    HW2 8130   4.596   2.696   3.594
 2709SOL     OW 8131   4.410   3.023   3.665
 2709SOL    HW1 8132   4.470   3.102   3.679
 2709SOL    HW2 8133   4.324   3.054   3.624
 2710SOL     OW 8134   4.059   3.297   2.923
 2710SOL    HW1 8135   3.981   3.266   2.870
 2710SOL    HW2 8136   4.117   3.355   2.866
 2711SOL     OW 8137   4.162   2.254   3.361
 2711SOL    HW1 8138   4.244   2.198   3.370
 2711SOL    HW2 8139   4.081   2.196   3.365
 2712SOL     OW 8140   3.955   3.575   2.345
 2712SOL    HW1 8141   3.989   3.652   2.399
 2712SOL    HW2 8142   3.999   3.575   2.255
 2713SOL     OW 8143   3.954   3.296   2.400
 2713SOL    HW1 8144   3.928   3.392   2.400
 2713SOL    HW2 8145   3.883   3.242   2.445
 2714SOL     OW 8146   3.964   2.953   2.748
 2714SOL    HW1 8147   3.978   2.869   2.800
 2714SOL    HW2 8148   3.909   3.017   2.803
 2715SOL     OW 8149   4.344   3.648   3.301
 2715SOL    HW1 8150   4.252   3.631   3.336
 2715SOL    HW2 8151   4.372   3.740   3.327
 2716SOL     OW 8152   4.330   2.826   1.985
 2716SOL    HW1 8153   4.337   2.910   1.931
 2716SOL    HW2 8154   4.376   2.839   2.073
 2717SOL     OW 8155   3.846   2.505   2.425
 2717SOL    HW1 8156   3.801   2.417   2.442
 2717SOL    HW2 8157   3.845   2.559   2.509
 2718SOL     OW 8158   3.751   3.458   1.979
 2718SOL    HW1 8159   3.732   3.362   2.000
 2718SOL    HW2 8160   3.718   3.516   2.054
 2719SOL     OW 8161   3.837   2.599   3.459
 2719SOL    HW1 8162   3.925   2.586   3.504
 2719SOL    HW2 8163   3.824   2.696   3.437
 2720SOL     OW 8164   4.337   3.227   2.588
 2720SOL    HW1 8165   4.288   3.140   2.597
 2720SOL    HW2 8166   4.314   3.270   2.501
 2721SOL     OW 8167   4.533   1.866   2.364
 2721SOL    HW1 8168   4.573   1.957   2.355
 2721SOL    HW2 8169   4.433   1.874   2.370
 2722SOL     OW 8170   3.921   2.838   3.126
 2722SOL    HW1 8171   4.010   2.793   3.112
 2722SOL    HW2 8172   3.848   2.773   3.107
 2723SOL     OW 8173   4.041   2.113   3.663
 2723SOL    HW1 8174   4.112   2.184   3.669
 2723SOL    HW2 8175   3.953   2.152   3.691
 2724SOL     OW 8176   4.322   2.591   2.132
 2724SOL    HW1 8177   4.346   2.660   2.064
 2724SOL    HW2 8178   4.244   2.624   2.186
 2725SOL     OW 8179   3.800   2.673   2.651
 2725SOL    HW1 8180   3.899   2.661   2.660
 2725SOL    HW2 8181   3.776   2.768   2.672
 2726SOL     OW 8182   3.854   3.683   3.433
 2726SOL    HW1 8183   3.844   3.668   3.532
 2726SOL    HW2 8184   3.768   3.719   3.397
 2727SOL     OW 8185   4.274   2.058   2.747
 2727SOL    HW1 8186   4.269   2.053   2.847
 2727SOL    HW2 8187   4.276   2.154   2.718
 2728SOL     OW 8188   4.075   3.663   2.715
 2728SOL    HW1 8189   4.125   3.577   2.721
 2728SOL    HW2 8190   4.140   3.740   2.712
 2729SOL     OW 8191   4.045   2.805   2.104
 2729SOL    HW1 8192   4.127   2.844   2.062
 2729SOL    HW2 8193   4.018   2.723   2.055
 2730SOL     OW 8194   4.185   3.128   3.589
 2730SOL    HW1 8195   4.135   3.129   3.503
 2730SOL    HW2 8196   4.122   3.110   3.665
 2731SOL     OW 8197   3.926   2.147   3.360
 2731SOL    HW1 8198   3.846   2.207   3.347
 2731SOL    HW2 8199   3.916   2.098   3.446
 2732SOL     OW 8200   4.188   3.605   2.185
 2732SOL    HW1 8201   4.221   3.644   2.271
 2732SOL    HW2 8202   4.264   3.598   2.120
 2733SOL     OW 8203   3.973   3.647   3.103
 2733SOL    HW1 8204   4.030   3.582   3.153
 2733SOL    HW2 8205   3.957   3.614   3.010
 2734SOL     OW 8206   4.106   2.562   2.342
 2734SOL    HW1 8207   4.151   2.472   2.339
 2734SOL    HW2 8208   4.012   2.551   2.375
 2735SOL     OW 8209   4.338   1.984   1.979
 2735SOL    HW1 8210   4.436   1.962   1.986
 2735SOL    HW2 8211   4.307   1.967   1.886
 2736SOL     OW 8212   4.527   3.264   2.786
 2736SOL    HW1 8213   4.617   3.278   2.744
 2736SOL    HW2 8214   4.456   3.266   2.715
 2737SOL     OW 8215   4.263   1.926   2.374
 2737SOL    HW1 8216   4.182   1.927   2.432
 2737SOL    HW2 8217   4.266   2.009   2.319
 2738SOL     OW 8218   4.021   1.897   2.033
 2738SOL    HW1 8219   4.070   1.981   2.012
 2738SOL    HW2 8220   4.083   1.832   2.078
 2739SOL     OW 8221   4.659   2.098   2.342
 2739SOL    HW1 8222   4.611   2.139   2.264
 2739SOL    HW2 8223   4.758   2.096   2.323
 2740SOL     OW 8224   4.183   3.014   2.603
 2740SOL    HW1 8225   4.112   2.987   2.668
 2740SOL    HW2 8226   4.157   2.986   2.510
 2741SOL     OW 8227   3.802   2.418   3.248
 2741SOL    HW1 8228   3.894   2.417   3.207
 2741SOL    HW2 8229   3.796   2.492   3.315
 2742SOL     OW 8230   4.285   2.084   3.009
 2742SOL    HW1 8231   4.323   2.000   3.046
 2742SOL    HW2 8232   4.197   2.103   3.053
 2743SOL     OW 8233   4.212   3.247   2.036
 2743SOL    HW1 8234   4.125   3.232   2.083
 2743SOL    HW2 8235   4.195   3.273   1.941
 2744SOL     OW 8236   4.251   2.118   2.190
 2744SOL    HW1 8237   4.278   2.059   2.115
 2744SOL    HW2 8238   4.251   2.213   2.159
 2745SOL     OW 8239   4.134   2.675   3.113
 2745SOL    HW1 8240   4.220   2.687   3.163
 2745SOL    HW2 8241   4.092   2.588   3.140
 2746SOL     OW 8242   3.788   3.426   3.193
 2746SOL    HW1 8243   3.742   3.508   3.159
 2746SOL    HW2 8244   3.886   3.445   3.202
 2747SOL     OW 8245   4.091   2.962   2.363
 2747SOL    HW1 8246   4.084   3.045   2.307
 2747SOL    HW2 8247   4.095   2.882   2.303
 2748SOL     OW 8248   4.290   2.399   2.727
 2748SOL    HW1 8249   4.302   2.465   2.653
 2748SOL    HW2 8250   4.336   2.433   2.810
 2749SOL     OW 8251   4.078   3.372   3.191
 2749SOL    HW1 8252   4.057   3.328   3.104
 2749SOL    HW2 8253   4.175   3.398   3.194
 2750SOL     OW 8254   4.126   2.613   3.460
 2750SOL    HW1 8255   4.194   2.668   3.413
 2750SOL    HW2 8256   4.166   2.525   3.487
 2751SOL     OW 8257   4.228   1.912   3.602
 2751SOL    HW1 8258   4.186   1.855   3.532
 2751SOL    HW2 8259   4.162   1.981   3.634
 2752SOL     OW 8260   4.297   2.732   2.891
 2752SOL    HW1 8261   4.341   2.821   2.882
 2752SOL    HW2 8262   4.234   2.732   2.968
 2753SOL     OW 8263   4.031   2.075   3.093
 2753SOL    HW1 8264   4.008   2.112   3.183
 2753SOL    HW2 8265   4.001   1.980   3.087
 2754SOL     OW 8266   3.761   3.172   3.144
 2754SOL    HW1 8267   3.814   3.123   3.212
 2754SOL    HW2 8268   3.783   3.270   3.149
 2755SOL     OW 8269   4.031   1.925   2.480
 2755SOL    HW1 8270   4.020   2.019   2.513
 2755SOL    HW2 8271   4.026   1.862   2.557
 2756SOL     OW 8272   4.074   2.760   3.666
 2756SOL    HW1 8273   4.150   2.804   3.714
 2756SOL    HW2 8274   4.109   2.713   3.584
 2757SOL     OW 8275   4.043   2.672   2.811
 2757SOL    HW1 8276   4.136   2.708   2.816
 2757SOL    HW2 8277   4.037   2.587   2.863
 2758SOL     OW 8278   4.063   2.371   2.868
 2758SOL    HW1 8279   4.011   2.288   2.851
 2758SOL    HW2 8280   4.140   2.376   2.804
 2759SOL     OW 8281   3.732   3.188   2.062
 2759SOL    HW1 8282   3.639   3.209   2.031
 2759SOL    HW2 8283   3.742   3.089   2.075
 2760SOL     OW 8284   3.812   3.663   2.789
 2760SOL    HW1 8285   3.770   3.577   2.762
 2760SOL    HW2 8286   3.906   3.666   2.755
 2761SOL     OW 8287   4.228   3.430   2.772
 2761SOL    HW1 8288   4.294   3.504   2.781
 2761SOL    HW2 8289   4.272   3.351   2.730
 2762SOL     OW 8290   3.764   2.406   2.976
 2762SOL    HW1 8291   3.849   2.373   2.935
 2762SOL    HW2 8292   3.777   2.421   3.074
 2763SOL     OW 8293   3.913   2.382   3.584
 2763SOL    HW1 8294   3.972   2.342   3.514
 2763SOL    HW2 8295   3.855   2.453   3.543
 2764SOL     OW 8296   4.539   2.434   2.187
 2764SOL    HW1 8297   4.546   2.345   2.141
 2764SOL    HW2 8298   4.445   2.468   2.179
 2765SOL     OW 8299   3.976   3.426   3.606
 2765SOL    HW1 8300   3.946   3.483   3.682
 2765SOL    HW2 8301   3.969   3.329   3.632
 2766SOL     OW 8302   4.197   2.362   2.053
 2766SOL    HW1 8303   4.258   2.442   2.057
 2766SOL    HW2 8304   4.102   2.393   2.060
 2767SOL     OW 8305   3.883   2.999   3.328
 2767SOL    HW1 8306   3.905   2.938   3.404
 2767SOL    HW2 8307   3.893   2.950   3.242
 2768SOL     OW 8308   3.807   3.120   2.884
 2768SOL    HW1 8309   3.802   3.119   2.984
 2768SOL    HW2 8310   3.724   3.079   2.846
 2769SOL     OW 8311   4.412   3.524   3.578
 2769SOL    HW1 8312   4.356   3.605   3.587
 2769SOL    HW2 8313   4.464   3.528   3.492
 2770SOL     OW 8314   3.854   3.656   3.713
 2770SOL    HW1 8315   3.813   3.582   3.766
 2770SOL    HW2 8316   3.918   3.707   3.771
 2771SOL     OW 8317   3.987   2.188   2.582
 2771SOL    HW1 8318   3.908   2.239   2.548
 2771SOL    HW2 8319   3.978   2.173   2.680
 2772SOL     OW 8320   4.096   3.150   3.352
 2772SOL    HW1 8321   4.083   3.243   3.318
 2772SOL    HW2 8322   4.012   3.098   3.339
 2773SOL     OW 8323   4.314   3.349   2.353
 2773SOL    HW1 8324   4.356   3.291   2.283
 2773SOL    HW2 8325   4.270   3.428   2.309
 2774SOL     OW 8326   3.979   3.210   2.152
 2774SOL    HW1 8327   3.883   3.211   2.125
 2774SOL    HW2 8328   3.991   3.263   2.236
 2775SOL     OW 8329   3.829   2.875   3.588
 2775SOL    HW1 8330   3.752   2.842   3.642
 2775SOL    HW2 8331   3.914   2.845   3.630
 2776SOL     OW 8332   4.396   2.065   3.351
 2776SOL    HW1 8333   4.486   2.049   3.311
 2776SOL    HW2 8334   4.404   2.070   3.450
 2777SOL     OW 8335   3.799   2.207   1.895
 2777SOL    HW1 8336   3.707   2.179   1.866
 2777SOL    HW2 8337   3.830   2.284   1.839
 2778SOL     OW 8338   3.796   2.028   2.180
 2778SOL    HW1 8339   3.779   2.111   2.126
 2778SOL    HW2 8340   3.886   1.991   2.158
 2779SOL     OW 8341   4.337   2.704   3.293
 2779SOL    HW1 8342   4.393   2.785   3.276
 2779SOL    HW2 8343   4.396   2.624   3.296
 2780SOL     OW 8344   4.114   3.603   3.422
 2780SOL    HW1 8345   4.023   3.644   3.420
 2780SOL    HW2 8346   4.107   3.509   3.454
 2781SOL     OW 8347   4.318   2.607   2.514
 2781SOL    HW1 8348   4.368   2.692   2.495
 2781SOL    HW2 8349   4.230   2.609   2.466
 2782SOL     OW 8350   3.945   3.176   3.706
 2782SOL    HW1 8351   3.880   3.103   3.685
 2782SOL    HW2 8352   3.949   3.190   3.804
 2783SOL     OW 8353   3.803   3.102   2.515
 2783SOL    HW1 8354   3.802   3.055   2.603
 2783SOL    HW2 8355   3.885   3.074   2.464
 2784SOL     OW 8356   4.396   3.253   3.486
 2784SOL    HW1 8357   4.318   3.203   3.524
 2784SOL    HW2 8358   4.393   3.348   3.517
 2785SOL     OW 8359   4.152   2.286   2.382
 2785SOL    HW1 8360   4.182   2.214   2.320
 2785SOL    HW2 8361   4.113   2.246   2.465
 2786SOL     OW 8362   4.041   2.409   3.142
 2786SOL    HW1 8363   4.079   2.350   3.214
 2786SOL    HW2 8364   4.081   2.383   3.054
 2787SOL     OW 8365   3.763   2.939   2.162
 2787SOL    HW1 8366   3.862   2.928   2.153
 2787SOL    HW2 8367   3.723   2.853   2.194
 2788SOL     OW 8368   3.954   2.490   3.837
 2788SOL    HW1 8369   3.861   2.488   3.874
 2788SOL    HW2 8370   3.955   2.451   3.745
 2789SOL     OW 8371   3.949   2.137   4.720
 2789SOL    HW1 8372   3.984   2.120   4.812
 2789SOL    HW2 8373   3.861   2.092   4.708
 2790SOL     OW 8374   3.955   3.575   4.207
 2790SOL    HW1 8375   3.989   3.652   4.261
 2790SOL    HW2 8376   3.999   3.575   4.117
 2791SOL     OW 8377   3.954   3.296   4.262
 2791SOL    HW1 8378   3.928   3.392   4.262
 2791SOL    HW2 8379   3.883   3.242   4.307
 2792SOL     OW 8380   4.330   2.826   3.847
 2792SOL    HW1 8381   4.337   2.910   3.793
 2792SOL    HW2 8382   4.376   2.839   3.935
 2793SOL     OW 8383   3.846   2.505   4.287
 2793SOL    HW1 8384   3.801   2.417   4.304
 2793SOL    HW2 8385   3.845   2.559   4.371
 2794SOL     OW 8386   3.751   3.458   3.841
 2794SOL    HW1 8387   3.732   3.362   3.862
 2794SOL    HW2 8388   3.718   3.516   3.916
 2795SOL     OW 8389   4.337   3.227   4.450
 2795SOL    HW1 8390   4.288   3.140   4.459
 2795SOL    HW2 8391   4.314   3.270   4.363
 2796SOL     OW 8392   4.533   1.866   4.226
 2796SOL    HW1 8393   4.573   1.957   4.217
 2796SOL    HW2 8394   4.433   1.874   4.232
 2797SOL     OW 8395   4.322   2.591   3.994
 2797SOL    HW1 8396   4.346   2.660   3.926
 2797SOL    HW2 8397   4.244   2.624   4.048
 2798SOL     OW 8398   3.800   2.673   4.513
 2798SOL    HW1 8399   3.899   2.661   4.522
 2798SOL    HW2 8400   3.776   2.768   4.534
 2799SOL     OW 8401   4.075   3.663   4.577
 2799SOL    HW1 8402   4.125   3.577   4.583
 2799SOL    HW2 8403   4.140   3.740   4.574
 2800SOL     OW 8404   4.045   2.805   3.966
 2800SOL    HW1 8405   4.127   2.844   3.924
 2800SOL    HW2 8406   4.018   2.723   3.917
 2801SOL     OW 8407   4.188   3.605   4.047
 2801SOL    HW1 8408   4.221   3.644   4.133
 2801SOL    HW2 8409   4.264   3.598   3.982
 2802SOL     OW 8410   4.106   2.562   4.204
 2802SOL    HW1 8411   4.151   2.472   4.201
 2802SOL    HW2 8412   4.012   2.551   4.237
 2803SOL     OW 8413   4.338   1.984   3.841
 2803SOL    HW1 8414   4.436   1.962   3.848
 2803SOL    HW2 8415   4.307   1.967   3.748
 2804SOL     OW 8416   4.263   1.926   4.236
 2804SOL    HW1 8417   4.182   1.927   4.294
 2804SOL    HW2 8418   4.266   2.009   4.181
 2805SOL     OW 8419   4.021   1.897   3.895
 2805SOL    HW1 8420   4.070   1.981   3.874
 2805SOL    HW2 8421   4.083   1.832   3.940
 2806SOL     OW 8422   4.659   2.098   4.204
 2806SOL    HW1 8423   4.611   2.139   4.126
 2806SOL    HW2 8424   4.758   2.096   4.185
 2807SOL     OW 8425   4.183   3.014   4.465
 2807SOL    HW1 8426   4.112   2.987   4.530
 2807SOL    HW2 8427   4.157   2.986   4.372
 2808SOL     OW 8428   4.212   3.247   3.898
 2808SOL    HW1 8429   4.125   3.232   3.945
 2808SOL    HW2 8430   4.195   3.273   3.803
 2809SOL     OW 8431   4.251   2.118   4.052
 2809SOL    HW1 8432   4.278   2.059   3.977
 2809SOL    HW2 8433   4.251   2.213   4.021
 2810SOL     OW 8434   4.091   2.962   4.225
 2810SOL    HW1 8435   4.084   3.045   4.169
 2810SOL    HW2 8436   4.095   2.882   4.165
 2811SOL     OW 8437   4.031   1.925   4.342
 2811SOL    HW1 8438   4.020   2.019   4.375
 2811SOL    HW2 8439   4.026   1.862   4.419
 2812SOL     OW 8440   3.732   3.188   3.924
 2812SOL    HW1 8441   3.639   3.209   3.893
 2812SOL    HW2 8442   3.742   3.089   3.937
 2813SOL     OW 8443   4.539   2.434   4.049
 2813SOL    HW1 8444   4.546   2.345   4.003
 2813SOL    HW2 8445   4.445   2.468   4.041
 2814SOL     OW 8446   4.197   2.362   3.915
 2814SOL    HW1 8447   4.258   2.442   3.919
 2814SOL    HW2 8448   4.102   2.393   3.922
 2815SOL     OW 8449   4.314   3.349   4.215
 2815SOL    HW1 8450   4.356   3.291   4.145
 2815SOL    HW2 8451   4.270   3.428   4.171
 2816SOL     OW 8452   3.979   3.210   4.014
 2816SOL    HW1 8453   3.883   3.211   3.987
 2816SOL    HW2 8454   3.991   3.263   4.098
 2817SOL     OW 8455   3.799   2.207   3.757
 2817SOL    HW1 8456   3.707   2.179   3.728
 2817SOL    HW2 8457   3.830   2.284   3.701
 2818SOL     OW 8458   3.796   2.028   4.042
 2818SOL    HW1 8459   3.779   2.111   3.988
 2818SOL    HW2 8460   3.886   1.991   4.020
 2819SOL     OW 8461   4.318   2.607   4.376
 2819SOL    HW1 8462   4.368   2.692   4.357
 2819SOL    HW2 8463   4.230   2.609   4.328
 2820SOL     OW 8464   3.803   3.102   4.377
 2820SOL    HW1 8465   3.802   3.055   4.465
 2820SOL    HW2 8466   3.885   3.074   4.326
 2821SOL     OW 8467   4.152   2.286   4.244
 2821SOL    HW1 8468   4.182   2.214   4.182
 2821SOL    HW2 8469   4.113   2.246   4.327
 2822SOL     OW 8470   3.763   2.939   4.024
 2822SOL    HW1 8471   3.862   2.928   4.015
 2822SOL    HW2 8472   3.723   2.853   4.056
 2823SOL     OW 8473   3.949   3.999   0.996
 2823SOL    HW1 8474   3.984   3.982   1.088
 2823SOL    HW2 8475   3.861   3.954   0.984
 2824SOL     OW 8476   3.743   4.092   0.647
 2824SOL    HW1 8477   3.661   4.135   0.686
 2824SOL    HW2 8478   3.715   4.019   0.584
 2825SOL     OW 8479   4.574   4.522   1.823
 2825SOL    HW1 8480   4.570   4.598   1.888
 2825SOL    HW2 8481   4.596   4.558   1.732
 2826SOL     OW 8482   4.162   4.116   1.499
 2826SOL    HW1 8483   4.244   4.060   1.508
 2826SOL    HW2 8484   4.081   4.058   1.503
 2827SOL     OW 8485   3.846   4.367   0.563
 2827SOL    HW1 8486   3.801   4.279   0.580
 2827SOL    HW2 8487   3.845   4.421   0.647
 2828SOL     OW 8488   3.837   4.461   1.597
 2828SOL    HW1 8489   3.925   4.448   1.642
 2828SOL    HW2 8490   3.824   4.558   1.575
 2829SOL     OW 8491   4.533   3.728   0.502
 2829SOL    HW1 8492   4.573   3.819   0.493
 2829SOL    HW2 8493   4.433   3.736   0.508
 2830SOL     OW 8494   4.041   3.975   1.801
 2830SOL    HW1 8495   4.112   4.046   1.807
 2830SOL    HW2 8496   3.953   4.014   1.829
 2831SOL     OW 8497   4.322   4.453   0.270
 2831SOL    HW1 8498   4.346   4.522   0.202
 2831SOL    HW2 8499   4.244   4.486   0.324
 2832SOL     OW 8500   4.274   3.920   0.885
 2832SOL    HW1 8501   4.269   3.915   0.985
 2832SOL    HW2 8502   4.276   4.016   0.856
 2833SOL     OW 8503   3.926   4.009   1.498
 2833SOL    HW1 8504   3.846   4.069   1.485
 2833SOL    HW2 8505   3.916   3.960   1.584
 2834SOL     OW 8506   4.338   3.846   0.117
 2834SOL    HW1 8507   4.436   3.824   0.124
 2834SOL    HW2 8508   4.307   3.829   0.024
 2835SOL     OW 8509   4.263   3.788   0.512
 2835SOL    HW1 8510   4.182   3.789   0.570
 2835SOL    HW2 8511   4.266   3.871   0.457
 2836SOL     OW 8512   4.659   3.960   0.480
 2836SOL    HW1 8513   4.611   4.001   0.402
 2836SOL    HW2 8514   4.758   3.958   0.461
 2837SOL     OW 8515   3.802   4.280   1.386
 2837SOL    HW1 8516   3.894   4.279   1.345
 2837SOL    HW2 8517   3.796   4.354   1.453
 2838SOL     OW 8518   4.285   3.946   1.147
 2838SOL    HW1 8519   4.323   3.862   1.184
 2838SOL    HW2 8520   4.197   3.965   1.191
 2839SOL     OW 8521   4.251   3.980   0.328
 2839SOL    HW1 8522   4.278   3.921   0.253
 2839SOL    HW2 8523   4.251   4.075   0.297
 2840SOL     OW 8524   4.290   4.261   0.865
 2840SOL    HW1 8525   4.302   4.327   0.791
 2840SOL    HW2 8526   4.336   4.295   0.948
 2841SOL     OW 8527   4.228   3.774   1.740
 2841SOL    HW1 8528   4.186   3.717   1.670
 2841SOL    HW2 8529   4.162   3.843   1.772
 2842SOL     OW 8530   4.031   3.937   1.231
 2842SOL    HW1 8531   4.008   3.974   1.321
 2842SOL    HW2 8532   4.001   3.842   1.225
 2843SOL     OW 8533   4.031   3.787   0.618
 2843SOL    HW1 8534   4.020   3.881   0.651
 2843SOL    HW2 8535   4.026   3.724   0.695
 2844SOL     OW 8536   4.043   4.534   0.949
 2844SOL    HW1 8537   4.136   4.570   0.954
 2844SOL    HW2 8538   4.037   4.449   1.001
 2845SOL     OW 8539   4.063   4.233   1.006
 2845SOL    HW1 8540   4.011   4.150   0.989
 2845SOL    HW2 8541   4.140   4.238   0.942
 2846SOL     OW 8542   3.764   4.268   1.114
 2846SOL    HW1 8543   3.849   4.235   1.073
 2846SOL    HW2 8544   3.777   4.283   1.212
 2847SOL     OW 8545   3.913   4.244   1.722
 2847SOL    HW1 8546   3.972   4.204   1.652
 2847SOL    HW2 8547   3.855   4.315   1.681
 2848SOL     OW 8548   4.539   4.296   0.325
 2848SOL    HW1 8549   4.546   4.207   0.279
 2848SOL    HW2 8550   4.445   4.330   0.317
 2849SOL     OW 8551   4.197   4.224   0.191
 2849SOL    HW1 8552   4.258   4.304   0.195
 2849SOL    HW2 8553   4.102   4.255   0.198
 2850SOL     OW 8554   4.627   3.810   0.133
 2850SOL    HW1 8555   4.678   3.811   0.047
 2850SOL    HW2 8556   4.683   3.768   0.204
 2851SOL     OW 8557   3.987   4.050   0.720
 2851SOL    HW1 8558   3.908   4.101   0.686
 2851SOL    HW2 8559   3.978   4.035   0.818
 2852SOL     OW 8560   4.396   3.927   1.489
 2852SOL    HW1 8561   4.486   3.911   1.449
 2852SOL    HW2 8562   4.404   3.932   1.588
 2853SOL     OW 8563   3.799   4.069   0.033
 2853SOL    HW1 8564   3.707   4.041   0.004
 2853SOL    HW2 8565   3.830   4.146  -0.023
 2854SOL     OW 8566   4.152   4.148   0.520
 2854SOL    HW1 8567   4.182   4.076   0.458
 2854SOL    HW2 8568   4.113   4.108   0.603
 2855SOL     OW 8569   4.041   4.271   1.280
 2855SOL    HW1 8570   4.079   4.212   1.352
 2855SOL    HW2 8571   4.081   4.245   1.192
 2856SOL     OW 8572   3.949   3.999   2.858
 2856SOL    HW1 8573   3.984   3.982   2.950
 2856SOL    HW2 8574   3.861   3.954   2.846
 2857SOL     OW 8575   3.743   4.092   2.509
 2857SOL    HW1 8576   3.661   4.135   2.548
 2857SOL    HW2 8577   3.715   4.019   2.446
 2858SOL     OW 8578   4.574   4.522   3.685
 2858SOL    HW1 8579   4.570   4.598   3.750
 2858SOL    HW2 8580   4.596   4.558   3.594
 2859SOL     OW 8581   4.162   4.116   3.361
 2859SOL    HW1 8582   4.244   4.060   3.370
 2859SOL    HW2 8583   4.081   4.058   3.365
 2860SOL     OW 8584   3.846   4.367   2.425
 2860SOL    HW1 8585   3.801   4.279   2.442
 2860SOL    HW2 8586   3.845   4.421   2.509
 2861SOL     OW 8587   3.837   4.461   3.459
 2861SOL    HW1 8588   3.925   4.448   3.504
 2861SOL    HW2 8589   3.824   4.558   3.437
 2862SOL     OW 8590   4.533   3.728   2.364
 2862SOL    HW1 8591   4.573   3.819   2.355
 2862SOL    HW2 8592   4.433   3.736   2.370
 2863SOL     OW 8593   4.041   3.975   3.663
 2863SOL    HW1 8594   4.112   4.046   3.669
 2863SOL    HW2 8595   3.953   4.014   3.691
 2864SOL     OW 8596   4.274   3.920   2.747
 2864SOL    HW1 8597   4.269   3.915   2.847
 2864SOL    HW2 8598   4.276   4.016   2.718
 2865SOL     OW 8599   3.926   4.009   3.360
 2865SOL    HW1 8600   3.846   4.069   3.347
 2865SOL    HW2 8601   3.916   3.960   3.446
 2866SOL     OW 8602   4.338   3.846   1.979
 2866SOL    HW1 8603   4.436   3.824   1.986
 2866SOL    HW2 8604   4.307   3.829   1.886
 2867SOL     OW 8605   4.263   3.788   2.374
 2867SOL    HW1 8606   4.182   3.789   2.432
 2867SOL    HW2 8607   4.266   3.871   2.319
 2868SOL     OW 8608   4.021   3.759   2.033
 2868SOL    HW1 8609   4.070   3.843   2.012
 2868SOL    HW2 8610   4.083   3.694   2.078
 2869SOL     OW 8611   4.659   3.960   2.342
 2869SOL    HW1 8612   4.611   4.001   2.264
 2869SOL    HW2 8613   4.758   3.958   2.323
 2870SOL     OW 8614   3.802   4.280   3.248
 2870SOL    HW1 8615   3.894   4.279   3.207
 2870SOL    HW2 8616   3.796   4.354   3.315
 2871SOL     OW 8617   4.285   3.946   3.009
 2871SOL    HW1 8618   4.323   3.862   3.046
 2871SOL    HW2 8619   4.197   3.965   3.053
 2872SOL     OW 8620   4.251   3.980   2.190
 2872SOL    HW1 8621   4.278   3.921   2.115
 2872SOL    HW2 8622   4.251   4.075   2.159
 2873SOL     OW 8623   4.290   4.261   2.727
 2873SOL    HW1 8624   4.302   4.327   2.653
 2873SOL    HW2 8625   4.336   4.295   2.810
 2874SOL     OW 8626   4.228   3.774   3.602
 2874SOL    HW1 8627   4.186   3.717   3.532
 2874SOL    HW2 8628   4.162   3.843   3.634
 2875SOL     OW 8629   4.031   3.937   3.093
 2875SOL    HW1 8630   4.008   3.974   3.183
 2875SOL    HW2 8631   4.001   3.842   3.087
 2876SOL     OW 8632   4.031   3.787   2.480
 2876SOL    HW1 8633   4.020   3.881   2.513
 2876SOL    HW2 8634   4.026   3.724   2.557
 2877SOL     OW 8635   4.043   4.534   2.811
 2877SOL    HW1 8636   4.136   4.570   2.816
 2877SOL    HW2 8637   4.037   4.449   2.863
 2878SOL     OW 8638   4.063   4.233   2.868
 2878SOL    HW1 8639   4.011   4.150   2.851
 2878SOL    HW2 8640   4.140   4.238   2.804
 2879SOL     OW 8641   3.764   4.268   2.976
 2879SOL    HW1 8642   3.849   4.235   2.935
 2879SOL    HW2 8643   3.777   4.283   3.074
 2880SOL     OW 8644   3.913   4.244   3.584
 2880SOL    HW1 8645   3.972   4.204   3.514
 2880SOL    HW2 8646   3.855   4.315   3.543
 2881SOL     OW 8647   4.539   4.296   2.187
 2881SOL    HW1 8648   4.546   4.207   2.141
 2881SOL    HW2 8649   4.445   4.330   2.179
 2882SOL     OW 8650   4.197   4.224   2.053
 2882SOL    HW1 8651   4.258   4.304   2.057
 2882SOL    HW2 8652   4.102   4.255   2.060
 2883SOL     OW 8653   3.987   4.050   2.582
 2883SOL    HW1 8654   3.908   4.101   2.548
 2883SOL    HW2 8655   3.978   4.035   2.680
 2884SOL     OW 8656   4.396   3.927   3.351
 2884SOL    HW1 8657   4.486   3.911   3.311
 2884SOL    HW2 8658   4.404   3.932   3.450
 2885SOL     OW 8659   3.799   4.069   1.895
 2885SOL    HW1 8660   3.707   4.041   1.866
 2885SOL    HW2 8661   3.830   4.146   1.839
 2886SOL     OW 8662   3.796   3.890   2.180
 2886SOL    HW1 8663   3.779   3.973   2.126
 2886SOL    HW2 8664   3.886   3.853   2.158
 2887SOL     OW 8665   4.152   4.148   2.382
 2887SOL    HW1 8666   4.182   4.076   2.320
 2887SOL    HW2 8667   4.113   4.108   2.465
 2888SOL     OW 8668   4.041   4.271   3.142
 2888SOL    HW1 8669   4.079   4.212   3.214
 2888SOL    HW2 8670   4.081   4.245   3.054
 2889SOL     OW 8671   3.949   3.999   4.720
 2889SOL    HW1 8672   3.984   3.982   4.812
 2889SOL    HW2 8673   3.861   3.954   4.708
 2890SOL     OW 8674   3.846   4.367   4.287
 2890SOL    HW1 8675   3.801   4.279   4.304
 2890SOL    HW2 8676   3.845   4.421   4.371
 2891SOL     OW 8677   4.533   3.728   4.226
 2891SOL    HW1 8678   4.573   3.819   4.217
 2891SOL    HW2 8679   4.433   3.736   4.232
 2892SOL     OW 8680   4.338   3.846   3.841
 2892SOL    HW1 8681   4.436   3.824   3.848
 2892SOL    HW2 8682   4.307   3.829   3.748
 2893SOL     OW 8683   4.263   3.788   4.236
 2893SOL    HW1 8684   4.182   3.789   4.294
 2893SOL    HW2 8685   4.266   3.871   4.181
 2894SOL     OW 8686   4.021   3.759   3.895
 2894SOL    HW1 8687   4.070   3.843   3.874
 2894SOL    HW2 8688   4.083   3.694   3.940
 2895SOL     OW 8689   4.659   3.960   4.204
 2895SOL    HW1 8690   4.611   4.001   4.126
 2895SOL    HW2 8691   4.758   3.958   4.185
 2896SOL     OW 8692   4.251   3.980   4.052
 2896SOL    HW1 8693   4.278   3.921   3.977
 2896SOL    HW2 8694   4.251   4.075   4.021
 2897SOL     OW 8695   4.031   3.787   4.342
 2897SOL    HW1 8696   4.020   3.881   4.375
 2897SOL    HW2 8697   4.026   3.724   4.419
 2898SOL     OW 8698   4.539   4.296   4.049
 2898SOL    HW1 8699   4.546   4.207   4.003
 2898SOL    HW2 8700   4.445   4.330   4.041
 2899SOL     OW 8701   4.197   4.224   3.915
 2899SOL    HW1 8702   4.258   4.304   3.919
 2899SOL    HW2 8703   4.102   4.255   3.922
 2900SOL     OW 8704   3.799   4.069   3.757
 2900SOL    HW1 8705   3.707   4.041   3.728
 2900SOL    HW2 8706   3.830   4.146   3.701
 2901SOL     OW 8707   3.796   3.890   4.042
 2901SOL    HW1 8708   3.779   3.973   3.988
 2901SOL    HW2 8709   3.886   3.853   4.020
 2902SOL     OW 8710   4.152   4.148   4.244
 2902SOL    HW1 8711   4.182   4.076   4.182
 2902SOL    HW2 8712   4.113   4.108   4.327
   4.45879   4.45879   4.45879
