mobley_5282042_GMX.gro created by acpype (v: 2023.10.27) on Thu May 21 00:00:17 2026
13559
    1MOL     C1    1   2.863   2.849   2.868
    1MOL     C2    2   2.573   2.699   2.246
    1MOL     C3    3   2.988   2.793   2.848
    1MOL     C4    4   2.654   2.599   2.193
    1MOL     C5    5   2.754   2.806   2.792
    1MOL     C6    6   2.570   2.721   2.384
    1MOL     C7    7   3.004   2.694   2.751
    1MOL     C8    8   2.733   2.521   2.278
    1MOL     C9    9   2.768   2.704   2.695
    1MOL    C10   10   2.650   2.643   2.470
    1MOL    C11   11   2.896   2.648   2.674
    1MOL    C12   12   2.732   2.543   2.416
    1MOL    C13   13   2.648   2.666   2.616
    1MOL    C14   14   2.532   2.640   2.679
    1MOL    C15   15   2.931   2.542   2.570
    1MOL    C16   16   2.819   2.459   2.507
    1MOL    C17   17   2.087   2.445   2.729
    1MOL    C18   18   2.212   2.373   2.537
    1MOL    C19   19   2.406   2.601   2.609
    1MOL    C20   20   2.314   2.518   2.699
    1MOL     N1   21   2.191   2.483   2.632
    1MOL     H1   22   2.849   2.926   2.944
    1MOL     H2   23   2.511   2.759   2.180
    1MOL     H3   24   3.073   2.826   2.908
    1MOL     H4   25   2.655   2.581   2.086
    1MOL     H5   26   2.657   2.852   2.811
    1MOL     H6   27   2.506   2.799   2.423
    1MOL     H7   28   3.104   2.652   2.736
    1MOL     H8   29   2.796   2.443   2.235
    1MOL     H9   30   2.530   2.650   2.787
    1MOL    H10   31   2.982   2.593   2.487
    1MOL    H11   32   3.004   2.474   2.615
    1MOL    H12   33   2.757   2.418   2.588
    1MOL    H13   34   2.858   2.373   2.453
    1MOL    H14   35   2.071   2.526   2.800
    1MOL    H15   36   2.117   2.355   2.784
    1MOL    H16   37   1.993   2.424   2.677
    1MOL    H17   38   2.290   2.400   2.464
    1MOL    H18   39   2.120   2.351   2.483
    1MOL    H19   40   2.244   2.282   2.590
    1MOL    H20   41   2.427   2.546   2.517
    1MOL    H21   42   2.354   2.693   2.580
    1MOL    H22   43   2.286   2.576   2.788
    1MOL    H23   44   2.362   2.426   2.731
    2SOL     OW   45   0.230   0.628   0.113
    2SOL    HW1   46   0.137   0.626   0.150
    2SOL    HW2   47   0.231   0.589   0.021
    3SOL     OW   48   0.225   0.275   0.996
    3SOL    HW1   49   0.260   0.258   1.088
    3SOL    HW2   50   0.137   0.230   0.984
    4SOL     OW   51   0.019   0.368   0.647
    4SOL    HW1   52  -0.063   0.411   0.686
    4SOL    HW2   53  -0.009   0.295   0.584
    5SOL     OW   54   0.569   1.275   1.165
    5SOL    HW1   55   0.476   1.268   1.128
    5SOL    HW2   56   0.580   1.364   1.209
    6SOL     OW   57   1.555   1.511   0.703
    6SOL    HW1   58   1.498   1.495   0.784
    6SOL    HW2   59   1.496   1.521   0.623
    7SOL     OW   60   1.135   0.703   0.717
    7SOL    HW1   61   1.192   0.781   0.692
    7SOL    HW2   62   1.075   0.729   0.793
    8SOL     OW   63   1.755   0.607   0.231
    8SOL    HW1   64   1.743   0.594   0.132
    8SOL    HW2   65   1.725   0.526   0.280
    9SOL     OW   66   0.768   1.144   1.023
    9SOL    HW1   67   0.690   1.161   1.083
    9SOL    HW2   68   0.802   1.231   0.987
   10SOL     OW   69   0.850   0.798   1.823
   10SOL    HW1   70   0.846   0.874   1.888
   10SOL    HW2   71   0.872   0.834   1.732
   11SOL     OW   72   0.685   1.012   0.665
   11SOL    HW1   73   0.754   0.996   0.735
   11SOL    HW2   74   0.612   1.069   0.703
   12SOL     OW   75   0.686   1.161   1.803
   12SOL    HW1   76   0.746   1.240   1.817
   12SOL    HW2   77   0.600   1.192   1.762
   13SOL     OW   78   0.335   1.435   1.061
   13SOL    HW1   79   0.257   1.404   1.008
   13SOL    HW2   80   0.393   1.493   1.004
   14SOL     OW   81   1.460   1.505   1.339
   14SOL    HW1   82   1.484   1.599   1.365
   14SOL    HW2   83   1.444   1.451   1.421
   15SOL     OW   84   0.438   0.392   1.499
   15SOL    HW1   85   0.520   0.336   1.508
   15SOL    HW2   86   0.357   0.334   1.503
   16SOL     OW   87   1.603   0.447   0.737
   16SOL    HW1   88   1.529   0.493   0.687
   16SOL    HW2   89   1.654   0.515   0.790
   17SOL     OW   90   0.231   1.713   0.483
   17SOL    HW1   91   0.265   1.790   0.537
   17SOL    HW2   92   0.275   1.713   0.393
   18SOL     OW   93   1.127   1.341   1.690
   18SOL    HW1   94   1.174   1.341   1.778
   18SOL    HW2   95   1.079   1.254   1.679
   19SOL     OW   96   0.230   1.434   0.538
   19SOL    HW1   97   0.204   1.530   0.538
   19SOL    HW2   98   0.159   1.380   0.583
   20SOL     OW   99   0.240   1.091   0.886
   20SOL    HW1  100   0.254   1.007   0.938
   20SOL    HW2  101   0.185   1.155   0.941
   21SOL     OW  102   0.620   1.786   1.439
   21SOL    HW1  103   0.528   1.769   1.474
   21SOL    HW2  104   0.648   1.878   1.465
   22SOL     OW  105   0.606   0.964   0.123
   22SOL    HW1  106   0.613   1.048   0.069
   22SOL    HW2  107   0.652   0.977   0.211
   23SOL     OW  108   1.594   0.114   1.480
   23SOL    HW1  109   1.576   0.181   1.408
   23SOL    HW2  110   1.591   0.160   1.569
   24SOL     OW  111   0.122   0.643   0.563
   24SOL    HW1  112   0.077   0.555   0.580
   24SOL    HW2  113   0.121   0.697   0.647
   25SOL     OW  114   1.842   1.767   0.359
   25SOL    HW1  115   1.896   1.738   0.439
   25SOL    HW2  116   1.872   1.857   0.330
   26SOL     OW  117   0.027   1.596   0.117
   26SOL    HW1  118   0.008   1.500   0.138
   26SOL    HW2  119  -0.006   1.654   0.192
   27SOL     OW  120   1.689   0.922   0.612
   27SOL    HW1  121   1.784   0.893   0.620
   27SOL    HW2  122   1.681   0.987   0.537
   28SOL     OW  123   1.641   1.108   0.432
   28SOL    HW1  124   1.727   1.110   0.380
   28SOL    HW2  125   1.655   1.155   0.520
   29SOL     OW  126   0.113   0.737   1.597
   29SOL    HW1  127   0.201   0.724   1.642
   29SOL    HW2  128   0.100   0.834   1.575
   30SOL     OW  129   0.613   1.365   0.726
   30SOL    HW1  130   0.564   1.278   0.735
   30SOL    HW2  131   0.590   1.408   0.639
   31SOL     OW  132   1.293   1.228   1.423
   31SOL    HW1  133   1.330   1.155   1.365
   31SOL    HW2  134   1.345   1.233   1.508
   32SOL     OW  135   0.809   0.004   0.502
   32SOL    HW1  136   0.849   0.095   0.493
   32SOL    HW2  137   0.709   0.012   0.508
   33SOL     OW  138   0.197   0.976   1.264
   33SOL    HW1  139   0.286   0.931   1.250
   33SOL    HW2  140   0.124   0.911   1.245
   34SOL     OW  141   1.525   0.999   0.190
   34SOL    HW1  142   1.462   0.923   0.203
   34SOL    HW2  143   1.573   1.017   0.276
   35SOL     OW  144   1.187   1.792   1.616
   35SOL    HW1  145   1.211   1.852   1.540
   35SOL    HW2  146   1.194   1.697   1.586
   36SOL     OW  147   0.317   0.251   1.801
   36SOL    HW1  148   0.388   0.322   1.807
   36SOL    HW2  149   0.229   0.290   1.829
   37SOL     OW  150   1.466   1.417   0.953
   37SOL    HW1  151   1.407   1.423   1.033
   37SOL    HW2  152   1.451   1.329   0.907
   38SOL     OW  153   1.667   1.714   0.572
   38SOL    HW1  154   1.626   1.691   0.484
   38SOL    HW2  155   1.649   1.640   0.637
   39SOL     OW  156   0.598   0.729   0.270
   39SOL    HW1  157   0.622   0.798   0.202
   39SOL    HW2  158   0.520   0.762   0.324
   40SOL     OW  159   1.281   0.345   0.944
   40SOL    HW1  160   1.195   0.295   0.931
   40SOL    HW2  161   1.343   0.291   1.000
   41SOL     OW  162   1.576   1.662   0.307
   41SOL    HW1  163   1.665   1.708   0.310
   41SOL    HW2  164   1.555   1.638   0.212
   42SOL     OW  165   0.807   0.605   1.465
   42SOL    HW1  166   0.760   0.602   1.554
   42SOL    HW2  167   0.756   0.550   1.399
   43SOL     OW  168   1.394   0.469   1.674
   43SOL    HW1  169   1.374   0.512   1.762
   43SOL    HW2  170   1.472   0.407   1.683
   44SOL     OW  171   0.973   0.890   1.572
   44SOL    HW1  172   1.019   0.806   1.543
   44SOL    HW2  173   0.917   0.924   1.497
   45SOL     OW  174   0.991   0.410   1.242
   45SOL    HW1  175   0.914   0.444   1.296
   45SOL    HW2  176   0.957   0.359   1.163
   46SOL     OW  177   1.041   0.701   0.429
   46SOL    HW1  178   1.067   0.697   0.525
   46SOL    HW2  179   0.956   0.650   0.415
   47SOL     OW  180   0.076   0.811   0.789
   47SOL    HW1  181   0.175   0.799   0.798
   47SOL    HW2  182   0.052   0.906   0.810
   48SOL     OW  183   0.130   1.821   1.571
   48SOL    HW1  184   0.120   1.806   1.670
   48SOL    HW2  185   0.044   1.857   1.535
   49SOL     OW  186   0.865   0.348   0.195
   49SOL    HW1  187   0.924   0.411   0.146
   49SOL    HW2  188   0.884   0.254   0.166
   50SOL     OW  189   1.719   0.585   1.831
   50SOL    HW1  190   1.693   0.674   1.795
   50SOL    HW2  191   1.717   0.517   1.758
   51SOL     OW  192   1.362   1.144   0.545
   51SOL    HW1  193   1.445   1.115   0.497
   51SOL    HW2  194   1.313   1.211   0.489
   52SOL     OW  195   0.550   0.196   0.885
   52SOL    HW1  196   0.545   0.191   0.985
   52SOL    HW2  197   0.552   0.292   0.856
   53SOL     OW  198   1.008   1.456   0.477
   53SOL    HW1  199   0.962   1.528   0.425
   53SOL    HW2  200   1.004   1.476   0.575
   54SOL     OW  201   0.351   1.801   0.853
   54SOL    HW1  202   0.401   1.715   0.859
   54SOL    HW2  203   0.416   1.878   0.850
   55SOL     OW  204   1.795   1.066   0.873
   55SOL    HW1  205   1.733   1.051   0.797
   55SOL    HW2  206   1.743   1.077   0.958
   56SOL     OW  207   1.227   1.550   1.506
   56SOL    HW1  208   1.233   1.473   1.570
   56SOL    HW2  209   1.175   1.524   1.426
   57SOL     OW  210   0.321   0.943   0.242
   57SOL    HW1  211   0.403   0.982   0.200
   57SOL    HW2  212   0.294   0.861   0.193
   58SOL     OW  213   1.458   0.735   0.728
   58SOL    HW1  214   1.453   0.670   0.803
   58SOL    HW2  215   1.538   0.794   0.741
   59SOL     OW  216   0.461   1.266   1.727
   59SOL    HW1  217   0.411   1.267   1.641
   59SOL    HW2  218   0.398   1.248   1.803
   60SOL     OW  219   1.111   1.776   0.237
   60SOL    HW1  220   1.051   1.714   0.287
   60SOL    HW2  221   1.142   1.732   0.152
   61SOL     OW  222   0.202   0.285   1.498
   61SOL    HW1  223   0.122   0.345   1.485
   61SOL    HW2  224   0.192   0.236   1.584
   62SOL     OW  225   1.632   1.377   0.081
   62SOL    HW1  226   1.600   1.471   0.071
   62SOL    HW2  227   1.556   1.314   0.069
   63SOL     OW  228   0.464   1.743   0.323
   63SOL    HW1  229   0.497   1.782   0.409
   63SOL    HW2  230   0.540   1.736   0.258
   64SOL     OW  231   1.400   0.107   0.426
   64SOL    HW1  232   1.376   0.070   0.336
   64SOL    HW2  233   1.499   0.123   0.430
   65SOL     OW  234   0.249   1.785   1.241
   65SOL    HW1  235   0.306   1.720   1.291
   65SOL    HW2  236   0.233   1.752   1.148
   66SOL     OW  237   0.940   1.698   0.904
   66SOL    HW1  238   1.020   1.641   0.925
   66SOL    HW2  239   0.891   1.658   0.827
   67SOL     OW  240   0.382   0.700   0.480
   67SOL    HW1  241   0.427   0.610   0.477
   67SOL    HW2  242   0.288   0.689   0.513
   68SOL     OW  243   1.547   0.222   1.729
   68SOL    HW1  244   1.542   0.259   1.821
   68SOL    HW2  245   1.475   0.153   1.717
   69SOL     OW  246   0.614   0.122   0.117
   69SOL    HW1  247   0.712   0.100   0.124
   69SOL    HW2  248   0.583   0.105   0.024
   70SOL     OW  249   0.781   0.264   1.749
   70SOL    HW1  250   0.848   0.203   1.792
   70SOL    HW2  251   0.708   0.283   1.814
   71SOL     OW  252   0.888   1.514   1.195
   71SOL    HW1  253   0.865   1.489   1.101
   71SOL    HW2  254   0.949   1.445   1.234
   72SOL     OW  255   1.351   0.590   1.433
   72SOL    HW1  256   1.379   0.547   1.518
   72SOL    HW2  257   1.376   0.686   1.434
   73SOL     OW  258   0.803   1.402   0.924
   73SOL    HW1  259   0.893   1.416   0.882
   73SOL    HW2  260   0.732   1.404   0.853
   74SOL     OW  261   0.922   0.503   0.899
   74SOL    HW1  262   0.897   0.494   0.803
   74SOL    HW2  263   0.970   0.421   0.930
   75SOL     OW  264   0.539   0.064   0.512
   75SOL    HW1  265   0.458   0.065   0.570
   75SOL    HW2  266   0.542   0.147   0.457
   76SOL     OW  267   1.434   1.188   0.041
   76SOL    HW1  268   1.466   1.112   0.098
   76SOL    HW2  269   1.342   1.215   0.071
   77SOL     OW  270   0.297   0.035   0.171
   77SOL    HW1  271   0.346   0.119   0.150
   77SOL    HW2  272   0.359  -0.030   0.216
   78SOL     OW  273   0.935   0.236   0.480
   78SOL    HW1  274   0.887   0.277   0.402
   78SOL    HW2  275   1.034   0.234   0.461
   79SOL     OW  276   1.076   0.683   1.464
   79SOL    HW1  277   0.996   0.622   1.467
   79SOL    HW2  278   1.157   0.630   1.440
   80SOL     OW  279   1.227   1.570   0.793
   80SOL    HW1  280   1.248   1.644   0.728
   80SOL    HW2  281   1.295   1.570   0.866
   81SOL     OW  282   0.459   1.152   0.741
   81SOL    HW1  283   0.388   1.125   0.806
   81SOL    HW2  284   0.433   1.124   0.648
   82SOL     OW  285   1.271   1.797   0.591
   82SOL    HW1  286   1.315   1.861   0.527
   82SOL    HW2  287   1.221   1.849   0.661
   83SOL     OW  288   1.032   0.549   0.016
   83SOL    HW1  289   0.991   0.631  -0.023
   83SOL    HW2  290   1.096   0.575   0.089
   84SOL     OW  291   0.078   0.556   1.386
   84SOL    HW1  292   0.170   0.555   1.345
   84SOL    HW2  293   0.072   0.630   1.453
   85SOL     OW  294   0.561   0.222   1.147
   85SOL    HW1  295   0.599   0.138   1.184
   85SOL    HW2  296   0.473   0.241   1.191
   86SOL     OW  297   0.866   0.454   0.642
   86SOL    HW1  298   0.834   0.526   0.580
   86SOL    HW2  299   0.890   0.373   0.589
   87SOL     OW  300   1.017   0.039   0.753
   87SOL    HW1  301   0.945   0.044   0.684
   87SOL    HW2  302   0.993  -0.030   0.822
   88SOL     OW  303   1.429   1.173   0.867
   88SOL    HW1  304   1.374   1.089   0.860
   88SOL    HW2  305   1.455   1.202   0.775
   89SOL     OW  306   1.466   0.590   0.992
   89SOL    HW1  307   1.436   0.495   0.999
   89SOL    HW2  308   1.539   0.606   1.058
   90SOL     OW  309   1.857   0.833   0.377
   90SOL    HW1  310   1.899   0.769   0.441
   90SOL    HW2  311   1.819   0.782   0.299
   91SOL     OW  312   0.488   1.385   0.174
   91SOL    HW1  313   0.401   1.370   0.221
   91SOL    HW2  314   0.471   1.411   0.079
   92SOL     OW  315   1.664   1.280   0.657
   92SOL    HW1  316   1.763   1.288   0.671
   92SOL    HW2  317   1.619   1.364   0.688
   93SOL     OW  318   1.390   0.575   0.078
   93SOL    HW1  319   1.336   0.554   0.159
   93SOL    HW2  320   1.481   0.534   0.087
   94SOL     OW  321   0.527   0.256   0.328
   94SOL    HW1  322   0.554   0.197   0.253
   94SOL    HW2  323   0.527   0.351   0.297
   95SOL     OW  324   1.754   1.223   1.588
   95SOL    HW1  325   1.845   1.184   1.575
   95SOL    HW2  326   1.762   1.319   1.612
   96SOL     OW  327   1.064   1.347   1.340
   96SOL    HW1  328   0.984   1.324   1.395
   96SOL    HW2  329   1.147   1.321   1.389
   97SOL     OW  330   1.592   1.629   1.625
   97SOL    HW1  331   1.619   1.663   1.535
   97SOL    HW2  332   1.671   1.591   1.671
   98SOL     OW  333   1.111   1.195   1.100
   98SOL    HW1  334   1.071   1.239   1.181
   98SOL    HW2  335   1.070   1.232   1.017
   99SOL     OW  336   1.638   1.099   1.079
   99SOL    HW1  337   1.643   1.180   1.138
   99SOL    HW2  338   1.552   1.101   1.028
  100SOL     OW  339   0.915   0.089   1.402
  100SOL    HW1  340   0.940   0.069   1.307
  100SOL    HW2  341   0.987   0.145   1.444
  101SOL     OW  342   0.980   1.116   1.719
  101SOL    HW1  343   0.881   1.122   1.729
  101SOL    HW2  344   1.003   1.036   1.663
  102SOL     OW  345   0.705   1.050   0.368
  102SOL    HW1  346   0.691   1.057   0.467
  102SOL    HW2  347   0.789   0.999   0.350
  103SOL     OW  348   0.410   0.813   1.251
  103SOL    HW1  349   0.496   0.825   1.301
  103SOL    HW2  350   0.368   0.726   1.278
  104SOL     OW  351   1.274   0.386   1.262
  104SOL    HW1  352   1.295   0.460   1.326
  104SOL    HW2  353   1.185   0.403   1.219
  105SOL     OW  354   0.064   1.564   1.331
  105SOL    HW1  355   0.018   1.646   1.297
  105SOL    HW2  356   0.162   1.583   1.340
  106SOL     OW  357   0.367   1.100   0.501
  106SOL    HW1  358   0.360   1.183   0.445
  106SOL    HW2  359   0.371   1.020   0.441
  107SOL     OW  360   0.566   0.537   0.865
  107SOL    HW1  361   0.578   0.603   0.791
  107SOL    HW2  362   0.612   0.571   0.948
  108SOL     OW  363   1.252   1.348   0.388
  108SOL    HW1  364   1.302   1.425   0.428
  108SOL    HW2  365   1.157   1.350   0.420
  109SOL     OW  366   1.272   1.445   1.142
  109SOL    HW1  367   1.319   1.458   1.229
  109SOL    HW2  368   1.206   1.371   1.151
  110SOL     OW  369   1.582   0.639   0.472
  110SOL    HW1  370   1.551   0.700   0.545
  110SOL    HW2  371   1.632   0.691   0.403
  111SOL     OW  372   0.354   1.510   1.329
  111SOL    HW1  373   0.333   1.466   1.242
  111SOL    HW2  374   0.451   1.536   1.332
  112SOL     OW  375   0.402   0.751   1.598
  112SOL    HW1  376   0.470   0.806   1.551
  112SOL    HW2  377   0.442   0.663   1.625
  113SOL     OW  378   1.587   0.779   1.670
  113SOL    HW1  379   1.495   0.817   1.665
  113SOL    HW2  380   1.647   0.826   1.605
  114SOL     OW  381   1.013   0.105   1.770
  114SOL    HW1  382   1.019   0.190   1.718
  114SOL    HW2  383   1.045   0.029   1.713
  115SOL     OW  384   0.504   0.050   1.740
  115SOL    HW1  385   0.462  -0.007   1.670
  115SOL    HW2  386   0.438   0.119   1.772
  116SOL     OW  387   0.573   0.870   1.029
  116SOL    HW1  388   0.617   0.959   1.020
  116SOL    HW2  389   0.510   0.870   1.106
  117SOL     OW  390   1.360   0.862   1.045
  117SOL    HW1  391   1.285   0.862   0.979
  117SOL    HW2  392   1.397   0.770   1.054
  118SOL     OW  393   1.209   0.525   0.275
  118SOL    HW1  394   1.222   0.441   0.329
  118SOL    HW2  395   1.180   0.599   0.335
  119SOL     OW  396   0.307   0.213   1.231
  119SOL    HW1  397   0.284   0.250   1.321
  119SOL    HW2  398   0.277   0.118   1.225
  120SOL     OW  399   0.037   1.310   1.282
  120SOL    HW1  400   0.090   1.261   1.350
  120SOL    HW2  401   0.059   1.408   1.287
  121SOL     OW  402   0.732   0.634   1.064
  121SOL    HW1  403   0.791   0.608   0.988
  121SOL    HW2  404   0.704   0.730   1.053
  122SOL     OW  405   1.728   0.935   1.854
  122SOL    HW1  406   1.682   0.928   1.765
  122SOL    HW2  407   1.666   0.979   1.920
  123SOL     OW  408   0.307   0.063   0.618
  123SOL    HW1  409   0.296   0.157   0.651
  123SOL    HW2  410   0.302   0.000   0.695
  124SOL     OW  411   1.622   0.367   0.374
  124SOL    HW1  412   1.624   0.291   0.438
  124SOL    HW2  413   1.574   0.444   0.414
  125SOL     OW  414   1.023   0.766   0.966
  125SOL    HW1  415   1.038   0.787   1.062
  125SOL    HW2  416   0.993   0.671   0.957
  126SOL     OW  417   0.980   1.573   1.700
  126SOL    HW1  418   0.960   1.617   1.612
  126SOL    HW2  419   1.019   1.482   1.684
  127SOL     OW  420   1.859   1.518   1.605
  127SOL    HW1  421   1.873   1.545   1.510
  127SOL    HW2  422   1.942   1.540   1.658
  128SOL     OW  423   0.350   0.898   1.804
  128SOL    HW1  424   0.426   0.942   1.852
  128SOL    HW2  425   0.385   0.851   1.722
  129SOL     OW  426   1.540   0.274   0.125
  129SOL    HW1  427   1.479   0.199   0.148
  129SOL    HW2  428   1.562   0.326   0.208
  130SOL     OW  429   1.303   0.838   0.042
  130SOL    HW1  430   1.337   0.745   0.057
  130SOL    HW2  431   1.321   0.865  -0.053
  131SOL     OW  432   1.068   1.333   0.849
  131SOL    HW1  433   1.075   1.249   0.794
  131SOL    HW2  434   1.130   1.402   0.813
  132SOL     OW  435   0.319   0.810   0.949
  132SOL    HW1  436   0.412   0.846   0.954
  132SOL    HW2  437   0.313   0.725   1.001
  133SOL     OW  438   0.339   0.509   1.006
  133SOL    HW1  439   0.287   0.426   0.989
  133SOL    HW2  440   0.416   0.514   0.942
  134SOL     OW  441   1.138   0.380   1.678
  134SOL    HW1  442   1.093   0.443   1.742
  134SOL    HW2  443   1.231   0.411   1.661
  135SOL     OW  444   1.160   0.207   1.477
  135SOL    HW1  445   1.160   0.271   1.554
  135SOL    HW2  446   1.188   0.255   1.394
  136SOL     OW  447   0.008   1.326   0.200
  136SOL    HW1  448  -0.085   1.347   0.169
  136SOL    HW2  449   0.018   1.227   0.213
  137SOL     OW  450   0.088   1.801   0.927
  137SOL    HW1  451   0.046   1.715   0.900
  137SOL    HW2  452   0.182   1.804   0.893
  138SOL     OW  453   0.504   1.568   0.910
  138SOL    HW1  454   0.570   1.642   0.919
  138SOL    HW2  455   0.548   1.489   0.868
  139SOL     OW  456   1.002   0.796   1.238
  139SOL    HW1  457   1.043   0.764   1.324
  139SOL    HW2  458   0.906   0.769   1.235
  140SOL     OW  459   0.040   0.544   1.114
  140SOL    HW1  460   0.125   0.511   1.073
  140SOL    HW2  461   0.053   0.559   1.212
  141SOL     OW  462   0.189   0.520   1.722
  141SOL    HW1  463   0.248   0.480   1.652
  141SOL    HW2  464   0.131   0.591   1.681
  142SOL     OW  465   1.369   0.950   1.660
  142SOL    HW1  466   1.408   1.039   1.680
  142SOL    HW2  467   1.379   0.930   1.563
  143SOL     OW  468   0.815   0.572   0.325
  143SOL    HW1  469   0.822   0.483   0.279
  143SOL    HW2  470   0.721   0.606   0.317
  144SOL     OW  471   1.657   0.604   1.206
  144SOL    HW1  472   1.619   0.535   1.268
  144SOL    HW2  473   1.739   0.568   1.162
  145SOL     OW  474   0.252   1.564   1.744
  145SOL    HW1  475   0.222   1.621   1.820
  145SOL    HW2  476   0.245   1.467   1.770
  146SOL     OW  477   0.671   0.464   1.269
  146SOL    HW1  478   0.637   0.375   1.239
  146SOL    HW2  479   0.697   0.518   1.189
  147SOL     OW  480   0.930   1.678   1.465
  147SOL    HW1  481   0.906   1.660   1.370
  147SOL    HW2  482   0.960   1.772   1.475
  148SOL     OW  483   0.473   0.500   0.191
  148SOL    HW1  484   0.534   0.580   0.195
  148SOL    HW2  485   0.378   0.531   0.198
  149SOL     OW  486   0.159   1.137   1.466
  149SOL    HW1  487   0.181   1.076   1.542
  149SOL    HW2  488   0.169   1.088   1.380
  150SOL     OW  489   1.347   1.059   1.234
  150SOL    HW1  490   1.371   0.996   1.160
  150SOL    HW2  491   1.257   1.099   1.216
  151SOL     OW  492   1.302   0.855   0.309
  151SOL    HW1  493   1.216   0.824   0.351
  151SOL    HW2  494   1.298   0.841   0.210
  152SOL     OW  495   1.759   1.747   1.154
  152SOL    HW1  496   1.820   1.777   1.081
  152SOL    HW2  497   1.721   1.658   1.132
  153SOL     OW  498   1.252   1.731   1.128
  153SOL    HW1  499   1.336   1.736   1.074
  153SOL    HW2  500   1.229   1.635   1.146
  154SOL     OW  501   0.083   1.258   1.022
  154SOL    HW1  502   0.078   1.257   1.122
  154SOL    HW2  503   0.000   1.217   0.984
  155SOL     OW  504   0.688   1.662   1.716
  155SOL    HW1  505   0.632   1.743   1.725
  155SOL    HW2  506   0.740   1.666   1.630
  156SOL     OW  507   0.903   0.086   0.133
  156SOL    HW1  508   0.954   0.087   0.047
  156SOL    HW2  509   0.959   0.044   0.204
  157SOL     OW  510   1.726   0.135   0.523
  157SOL    HW1  511   1.799   0.118   0.456
  157SOL    HW2  512   1.695   0.048   0.561
  158SOL     OW  513   1.388   1.573   0.477
  158SOL    HW1  514   1.455   1.585   0.403
  158SOL    HW2  515   1.348   1.662   0.500
  159SOL     OW  516   0.130   1.794   1.851
  159SOL    HW1  517   0.089   1.720   1.904
  159SOL    HW2  518   0.194   1.845   1.909
  160SOL     OW  519   1.280   0.927   0.672
  160SOL    HW1  520   1.340   0.846   0.674
  160SOL    HW2  521   1.320   0.996   0.612
  161SOL     OW  522   0.830   1.273   1.422
  161SOL    HW1  523   0.825   1.306   1.517
  161SOL    HW2  524   0.744   1.292   1.376
  162SOL     OW  525   0.672   1.616   0.154
  162SOL    HW1  526   0.681   1.626   0.055
  162SOL    HW2  527   0.632   1.527   0.175
  163SOL     OW  528   1.650   1.720   1.394
  163SOL    HW1  529   1.703   1.730   1.310
  163SOL    HW2  530   1.623   1.810   1.428
  164SOL     OW  531   1.841   0.175   0.963
  164SOL    HW1  532   1.880   0.090   0.927
  164SOL    HW2  533   1.743   0.177   0.944
  165SOL     OW  534   0.263   0.326   0.720
  165SOL    HW1  535   0.184   0.377   0.686
  165SOL    HW2  536   0.254   0.311   0.818
  166SOL     OW  537   1.194   1.612   0.031
  166SOL    HW1  538   1.200   1.519   0.068
  166SOL    HW2  539   1.135   1.612  -0.049
  167SOL     OW  540   0.822   1.002   1.372
  167SOL    HW1  541   0.862   1.001   1.280
  167SOL    HW2  542   0.832   1.094   1.412
  168SOL     OW  543   0.916   0.910   0.291
  168SOL    HW1  544   0.979   0.948   0.223
  168SOL    HW2  545   0.956   0.827   0.330
  169SOL     OW  546   1.504   1.607   0.044
  169SOL    HW1  547   1.412   1.644   0.051
  169SOL    HW2  548   1.542   1.627  -0.046
  170SOL     OW  549   0.372   1.288   1.490
  170SOL    HW1  550   0.359   1.381   1.456
  170SOL    HW2  551   0.288   1.236   1.477
  171SOL     OW  552   1.614   1.292   1.289
  171SOL    HW1  553   1.674   1.295   1.369
  171SOL    HW2  554   1.539   1.356   1.302
  172SOL     OW  555   1.039   1.098   0.696
  172SOL    HW1  556   0.969   1.051   0.750
  172SOL    HW2  557   1.098   1.030   0.653
  173SOL     OW  558   1.014   0.236   0.971
  173SOL    HW1  559   1.006   0.200   0.878
  173SOL    HW2  560   1.012   0.160   1.036
  174SOL     OW  561   0.590   1.487   0.491
  174SOL    HW1  562   0.632   1.429   0.421
  174SOL    HW2  563   0.546   1.566   0.447
  175SOL     OW  564   1.709   0.385   1.381
  175SOL    HW1  565   1.782   0.454   1.385
  175SOL    HW2  566   1.737   0.310   1.322
  176SOL     OW  567   0.255   1.348   0.290
  176SOL    HW1  568   0.159   1.349   0.263
  176SOL    HW2  569   0.267   1.401   0.374
  177SOL     OW  570   0.105   1.013   1.726
  177SOL    HW1  571   0.028   0.980   1.780
  177SOL    HW2  572   0.190   0.983   1.768
  178SOL     OW  573   0.672   0.203   1.489
  178SOL    HW1  574   0.762   0.187   1.449
  178SOL    HW2  575   0.680   0.208   1.588
  179SOL     OW  576   0.075   0.345   0.033
  179SOL    HW1  577  -0.017   0.317   0.004
  179SOL    HW2  578   0.106   0.422  -0.023
  180SOL     OW  579   1.440   0.856   1.398
  180SOL    HW1  580   1.383   0.908   1.335
  180SOL    HW2  581   1.536   0.868   1.374
  181SOL     OW  582   0.072   0.166   0.318
  181SOL    HW1  583   0.055   0.249   0.264
  181SOL    HW2  584   0.162   0.129   0.296
  182SOL     OW  585   1.183   1.335   0.119
  182SOL    HW1  586   1.084   1.324   0.121
  182SOL    HW2  587   1.217   1.350   0.212
  183SOL     OW  588   0.613   0.842   1.431
  183SOL    HW1  589   0.669   0.923   1.414
  183SOL    HW2  590   0.672   0.762   1.434
  184SOL     OW  591   1.493   1.767   0.959
  184SOL    HW1  592   1.526   1.831   0.890
  184SOL    HW2  593   1.559   1.761   1.034
  185SOL     OW  594   0.716   0.565   1.708
  185SOL    HW1  595   0.735   0.630   1.782
  185SOL    HW2  596   0.776   0.485   1.717
  186SOL     OW  597   1.450   1.220   1.633
  186SOL    HW1  598   1.441   1.210   1.732
  186SOL    HW2  599   1.546   1.213   1.607
  187SOL     OW  600   0.390   1.741   1.560
  187SOL    HW1  601   0.299   1.782   1.558
  187SOL    HW2  602   0.383   1.647   1.592
  188SOL     OW  603   1.674   0.883   1.254
  188SOL    HW1  604   1.647   0.794   1.217
  188SOL    HW2  605   1.675   0.951   1.181
  189SOL     OW  606   1.225   0.325   0.449
  189SOL    HW1  607   1.290   0.251   0.438
  189SOL    HW2  608   1.245   0.375   0.533
  190SOL     OW  609   0.594   0.745   0.652
  190SOL    HW1  610   0.644   0.830   0.633
  190SOL    HW2  611   0.506   0.747   0.604
  191SOL     OW  612   1.777   0.342   1.642
  191SOL    HW1  613   1.760   0.373   1.548
  191SOL    HW2  614   1.693   0.305   1.680
  192SOL     OW  615   1.730   0.934   1.517
  192SOL    HW1  616   1.768   1.025   1.532
  192SOL    HW2  617   1.722   0.917   1.418
  193SOL     OW  618   0.859   1.374   0.016
  193SOL    HW1  619   0.813   1.389   0.104
  193SOL    HW2  620   0.903   1.459  -0.014
  194SOL     OW  621   0.661   1.790   0.953
  194SOL    HW1  622   0.615   1.878   0.940
  194SOL    HW2  623   0.760   1.802   0.946
  195SOL     OW  624   0.859   0.956   0.861
  195SOL    HW1  625   0.913   0.887   0.909
  195SOL    HW2  626   0.827   1.025   0.927
  196SOL     OW  627   1.083   0.984   0.087
  196SOL    HW1  628   1.060   1.037   0.005
  196SOL    HW2  629   1.164   0.928   0.068
  197SOL     OW  630   1.861   1.569   0.851
  197SOL    HW1  631   1.790   1.557   0.781
  197SOL    HW2  632   1.862   1.490   0.911
  198SOL     OW  633   0.221   1.314   1.844
  198SOL    HW1  634   0.156   1.241   1.823
  198SOL    HW2  635   0.225   1.328   1.942
  199SOL     OW  636   0.079   1.240   0.653
  199SOL    HW1  637   0.078   1.193   0.741
  199SOL    HW2  638   0.161   1.212   0.602
  200SOL     OW  639   0.672   1.391   1.624
  200SOL    HW1  640   0.594   1.341   1.662
  200SOL    HW2  641   0.669   1.486   1.655
  201SOL     OW  642   1.824   0.192   1.227
  201SOL    HW1  643   1.820   0.102   1.271
  201SOL    HW2  644   1.827   0.181   1.128
  202SOL     OW  645   0.428   0.424   0.520
  202SOL    HW1  646   0.458   0.352   0.458
  202SOL    HW2  647   0.389   0.384   0.603
  203SOL     OW  648   1.705   1.487   1.104
  203SOL    HW1  649   1.612   1.462   1.077
  203SOL    HW2  650   1.731   1.437   1.186
  204SOL     OW  651   0.317   0.547   1.280
  204SOL    HW1  652   0.355   0.488   1.352
  204SOL    HW2  653   0.357   0.521   1.192
  205SOL     OW  654   0.812   1.586   0.687
  205SOL    HW1  655   0.844   1.596   0.593
  205SOL    HW2  656   0.733   1.524   0.689
  206SOL     OW  657   1.424   0.214   1.112
  206SOL    HW1  658   1.476   0.149   1.167
  206SOL    HW2  659   1.375   0.277   1.173
  207SOL     OW  660   1.001   0.034   1.154
  207SOL    HW1  661   0.938  -0.038   1.123
  207SOL    HW2  662   1.094  -0.002   1.154
  208SOL     OW  663   0.770   1.330   0.301
  208SOL    HW1  664   0.724   1.243   0.318
  208SOL    HW2  665   0.861   1.327   0.342
  209SOL     OW  666   0.618   1.567   1.284
  209SOL    HW1  667   0.613   1.649   1.341
  209SOL    HW2  668   0.707   1.564   1.239
  210SOL     OW  669   1.352   0.052   0.168
  210SOL    HW1  670   1.387   0.011   0.084
  210SOL    HW2  671   1.262   0.014   0.188
  211SOL     OW  672   1.300   0.453   0.691
  211SOL    HW1  673   1.241   0.533   0.695
  211SOL    HW2  674   1.315   0.418   0.784
  212SOL     OW  675   1.593   0.221   0.882
  212SOL    HW1  676   1.509   0.220   0.936
  212SOL    HW2  677   1.595   0.304   0.826
  213SOL     OW  678   0.039   1.077   0.300
  213SOL    HW1  679   0.138   1.066   0.291
  213SOL    HW2  680  -0.001   0.991   0.332
  214SOL     OW  681   0.875   1.646   0.337
  214SOL    HW1  682   0.798   1.611   0.283
  214SOL    HW2  683   0.843   1.717   0.399
  215SOL     OW  684   0.230   0.628   1.975
  215SOL    HW1  685   0.137   0.626   2.012
  215SOL    HW2  686   0.231   0.589   1.883
  216SOL     OW  687   0.225   0.275   2.858
  216SOL    HW1  688   0.260   0.258   2.950
  216SOL    HW2  689   0.137   0.230   2.846
  217SOL     OW  690   0.019   0.368   2.509
  217SOL    HW1  691  -0.063   0.411   2.548
  217SOL    HW2  692  -0.009   0.295   2.446
  218SOL     OW  693   0.569   1.275   3.027
  218SOL    HW1  694   0.476   1.268   2.990
  218SOL    HW2  695   0.580   1.364   3.071
  219SOL     OW  696   1.555   1.511   2.565
  219SOL    HW1  697   1.498   1.495   2.646
  219SOL    HW2  698   1.496   1.521   2.485
  220SOL     OW  699   1.135   0.703   2.579
  220SOL    HW1  700   1.192   0.781   2.554
  220SOL    HW2  701   1.075   0.729   2.655
  221SOL     OW  702   1.755   0.607   2.093
  221SOL    HW1  703   1.743   0.594   1.994
  221SOL    HW2  704   1.725   0.526   2.142
  222SOL     OW  705   0.768   1.144   2.885
  222SOL    HW1  706   0.690   1.161   2.945
  222SOL    HW2  707   0.802   1.231   2.849
  223SOL     OW  708   0.850   0.798   3.685
  223SOL    HW1  709   0.846   0.874   3.750
  223SOL    HW2  710   0.872   0.834   3.594
  224SOL     OW  711   0.685   1.012   2.527
  224SOL    HW1  712   0.754   0.996   2.597
  224SOL    HW2  713   0.612   1.069   2.565
  225SOL     OW  714   0.686   1.161   3.665
  225SOL    HW1  715   0.746   1.240   3.679
  225SOL    HW2  716   0.600   1.192   3.624
  226SOL     OW  717   0.335   1.435   2.923
  226SOL    HW1  718   0.257   1.404   2.870
  226SOL    HW2  719   0.393   1.493   2.866
  227SOL     OW  720   1.460   1.505   3.201
  227SOL    HW1  721   1.484   1.599   3.227
  227SOL    HW2  722   1.444   1.451   3.283
  228SOL     OW  723   0.438   0.392   3.361
  228SOL    HW1  724   0.520   0.336   3.370
  228SOL    HW2  725   0.357   0.334   3.365
  229SOL     OW  726   1.603   0.447   2.599
  229SOL    HW1  727   1.529   0.493   2.549
  229SOL    HW2  728   1.654   0.515   2.652
  230SOL     OW  729   0.231   1.713   2.345
  230SOL    HW1  730   0.265   1.790   2.399
  230SOL    HW2  731   0.275   1.713   2.255
  231SOL     OW  732   1.127   1.341   3.552
  231SOL    HW1  733   1.174   1.341   3.640
  231SOL    HW2  734   1.079   1.254   3.541
  232SOL     OW  735   0.230   1.434   2.400
  232SOL    HW1  736   0.204   1.530   2.400
  232SOL    HW2  737   0.159   1.380   2.445
  233SOL     OW  738   0.240   1.091   2.748
  233SOL    HW1  739   0.254   1.007   2.800
  233SOL    HW2  740   0.185   1.155   2.803
  234SOL     OW  741   0.620   1.786   3.301
  234SOL    HW1  742   0.528   1.769   3.336
  234SOL    HW2  743   0.648   1.878   3.327
  235SOL     OW  744   0.606   0.964   1.985
  235SOL    HW1  745   0.613   1.048   1.931
  235SOL    HW2  746   0.652   0.977   2.073
  236SOL     OW  747   1.594   0.114   3.342
  236SOL    HW1  748   1.576   0.181   3.270
  236SOL    HW2  749   1.591   0.160   3.431
  237SOL     OW  750   0.122   0.643   2.425
  237SOL    HW1  751   0.077   0.555   2.442
  237SOL    HW2  752   0.121   0.697   2.509
  238SOL     OW  753   1.842   1.767   2.221
  238SOL    HW1  754   1.896   1.738   2.301
  238SOL    HW2  755   1.872   1.857   2.192
  239SOL     OW  756   0.027   1.596   1.979
  239SOL    HW1  757   0.008   1.500   2.000
  239SOL    HW2  758  -0.006   1.654   2.054
  240SOL     OW  759   1.689   0.922   2.474
  240SOL    HW1  760   1.784   0.893   2.482
  240SOL    HW2  761   1.681   0.987   2.399
  241SOL     OW  762   1.641   1.108   2.294
  241SOL    HW1  763   1.727   1.110   2.242
  241SOL    HW2  764   1.655   1.155   2.382
  242SOL     OW  765   0.113   0.737   3.459
  242SOL    HW1  766   0.201   0.724   3.504
  242SOL    HW2  767   0.100   0.834   3.437
  243SOL     OW  768   0.613   1.365   2.588
  243SOL    HW1  769   0.564   1.278   2.597
  243SOL    HW2  770   0.590   1.408   2.501
  244SOL     OW  771   1.293   1.228   3.285
  244SOL    HW1  772   1.330   1.155   3.227
  244SOL    HW2  773   1.345   1.233   3.370
  245SOL     OW  774   0.809   0.004   2.364
  245SOL    HW1  775   0.849   0.095   2.355
  245SOL    HW2  776   0.709   0.012   2.370
  246SOL     OW  777   0.197   0.976   3.126
  246SOL    HW1  778   0.286   0.931   3.112
  246SOL    HW2  779   0.124   0.911   3.107
  247SOL     OW  780   1.525   0.999   2.052
  247SOL    HW1  781   1.462   0.923   2.065
  247SOL    HW2  782   1.573   1.017   2.138
  248SOL     OW  783   1.187   1.792   3.478
  248SOL    HW1  784   1.211   1.852   3.402
  248SOL    HW2  785   1.194   1.697   3.448
  249SOL     OW  786   0.317   0.251   3.663
  249SOL    HW1  787   0.388   0.322   3.669
  249SOL    HW2  788   0.229   0.290   3.691
  250SOL     OW  789   1.466   1.417   2.815
  250SOL    HW1  790   1.407   1.423   2.895
  250SOL    HW2  791   1.451   1.329   2.769
  251SOL     OW  792   1.667   1.714   2.434
  251SOL    HW1  793   1.626   1.691   2.346
  251SOL    HW2  794   1.649   1.640   2.499
  252SOL     OW  795   0.598   0.729   2.132
  252SOL    HW1  796   0.622   0.798   2.064
  252SOL    HW2  797   0.520   0.762   2.186
  253SOL     OW  798   1.281   0.345   2.806
  253SOL    HW1  799   1.195   0.295   2.793
  253SOL    HW2  800   1.343   0.291   2.862
  254SOL     OW  801   1.576   1.662   2.169
  254SOL    HW1  802   1.665   1.708   2.172
  254SOL    HW2  803   1.555   1.638   2.074
  255SOL     OW  804   0.807   0.605   3.327
  255SOL    HW1  805   0.760   0.602   3.416
  255SOL    HW2  806   0.756   0.550   3.261
  256SOL     OW  807   1.394   0.469   3.536
  256SOL    HW1  808   1.374   0.512   3.624
  256SOL    HW2  809   1.472   0.407   3.545
  257SOL     OW  810   0.973   0.890   3.434
  257SOL    HW1  811   1.019   0.806   3.405
  257SOL    HW2  812   0.917   0.924   3.359
  258SOL     OW  813   0.991   0.410   3.104
  258SOL    HW1  814   0.914   0.444   3.158
  258SOL    HW2  815   0.957   0.359   3.025
  259SOL     OW  816   1.041   0.701   2.291
  259SOL    HW1  817   1.067   0.697   2.387
  259SOL    HW2  818   0.956   0.650   2.277
  260SOL     OW  819   0.076   0.811   2.651
  260SOL    HW1  820   0.175   0.799   2.660
  260SOL    HW2  821   0.052   0.906   2.672
  261SOL     OW  822   0.130   1.821   3.433
  261SOL    HW1  823   0.120   1.806   3.532
  261SOL    HW2  824   0.044   1.857   3.397
  262SOL     OW  825   0.865   0.348   2.057
  262SOL    HW1  826   0.924   0.411   2.008
  262SOL    HW2  827   0.884   0.254   2.028
  263SOL     OW  828   1.719   0.585   3.693
  263SOL    HW1  829   1.693   0.674   3.657
  263SOL    HW2  830   1.717   0.517   3.620
  264SOL     OW  831   1.362   1.144   2.407
  264SOL    HW1  832   1.445   1.115   2.359
  264SOL    HW2  833   1.313   1.211   2.351
  265SOL     OW  834   0.550   0.196   2.747
  265SOL    HW1  835   0.545   0.191   2.847
  265SOL    HW2  836   0.552   0.292   2.718
  266SOL     OW  837   1.008   1.456   2.339
  266SOL    HW1  838   0.962   1.528   2.287
  266SOL    HW2  839   1.004   1.476   2.437
  267SOL     OW  840   0.351   1.801   2.715
  267SOL    HW1  841   0.401   1.715   2.721
  267SOL    HW2  842   0.416   1.878   2.712
  268SOL     OW  843   1.795   1.066   2.735
  268SOL    HW1  844   1.733   1.051   2.659
  268SOL    HW2  845   1.743   1.077   2.820
  269SOL     OW  846   1.227   1.550   3.368
  269SOL    HW1  847   1.233   1.473   3.432
  269SOL    HW2  848   1.175   1.524   3.288
  270SOL     OW  849   0.321   0.943   2.104
  270SOL    HW1  850   0.403   0.982   2.062
  270SOL    HW2  851   0.294   0.861   2.055
  271SOL     OW  852   1.458   0.735   2.590
  271SOL    HW1  853   1.453   0.670   2.665
  271SOL    HW2  854   1.538   0.794   2.603
  272SOL     OW  855   0.461   1.266   3.589
  272SOL    HW1  856   0.411   1.267   3.503
  272SOL    HW2  857   0.398   1.248   3.665
  273SOL     OW  858   1.111   1.776   2.099
  273SOL    HW1  859   1.051   1.714   2.149
  273SOL    HW2  860   1.142   1.732   2.014
  274SOL     OW  861   0.202   0.285   3.360
  274SOL    HW1  862   0.122   0.345   3.347
  274SOL    HW2  863   0.192   0.236   3.446
  275SOL     OW  864   1.632   1.377   1.943
  275SOL    HW1  865   1.600   1.471   1.933
  275SOL    HW2  866   1.556   1.314   1.931
  276SOL     OW  867   0.464   1.743   2.185
  276SOL    HW1  868   0.497   1.782   2.271
  276SOL    HW2  869   0.540   1.736   2.120
  277SOL     OW  870   1.400   0.107   2.288
  277SOL    HW1  871   1.376   0.070   2.198
  277SOL    HW2  872   1.499   0.123   2.292
  278SOL     OW  873   0.249   1.785   3.103
  278SOL    HW1  874   0.306   1.720   3.153
  278SOL    HW2  875   0.233   1.752   3.010
  279SOL     OW  876   0.940   1.698   2.766
  279SOL    HW1  877   1.020   1.641   2.787
  279SOL    HW2  878   0.891   1.658   2.689
  280SOL     OW  879   0.382   0.700   2.342
  280SOL    HW1  880   0.427   0.610   2.339
  280SOL    HW2  881   0.288   0.689   2.375
  281SOL     OW  882   1.547   0.222   3.591
  281SOL    HW1  883   1.542   0.259   3.683
  281SOL    HW2  884   1.475   0.153   3.579
  282SOL     OW  885   0.614   0.122   1.979
  282SOL    HW1  886   0.712   0.100   1.986
  282SOL    HW2  887   0.583   0.105   1.886
  283SOL     OW  888   0.781   0.264   3.611
  283SOL    HW1  889   0.848   0.203   3.654
  283SOL    HW2  890   0.708   0.283   3.676
  284SOL     OW  891   0.888   1.514   3.057
  284SOL    HW1  892   0.865   1.489   2.963
  284SOL    HW2  893   0.949   1.445   3.096
  285SOL     OW  894   1.351   0.590   3.295
  285SOL    HW1  895   1.379   0.547   3.380
  285SOL    HW2  896   1.376   0.686   3.296
  286SOL     OW  897   0.803   1.402   2.786
  286SOL    HW1  898   0.893   1.416   2.744
  286SOL    HW2  899   0.732   1.404   2.715
  287SOL     OW  900   0.922   0.503   2.761
  287SOL    HW1  901   0.897   0.494   2.665
  287SOL    HW2  902   0.970   0.421   2.792
  288SOL     OW  903   0.539   0.064   2.374
  288SOL    HW1  904   0.458   0.065   2.432
  288SOL    HW2  905   0.542   0.147   2.319
  289SOL     OW  906   1.434   1.188   1.903
  289SOL    HW1  907   1.466   1.112   1.960
  289SOL    HW2  908   1.342   1.215   1.933
  290SOL     OW  909   0.297   0.035   2.033
  290SOL    HW1  910   0.346   0.119   2.012
  290SOL    HW2  911   0.359  -0.030   2.078
  291SOL     OW  912   0.935   0.236   2.342
  291SOL    HW1  913   0.887   0.277   2.264
  291SOL    HW2  914   1.034   0.234   2.323
  292SOL     OW  915   1.076   0.683   3.326
  292SOL    HW1  916   0.996   0.622   3.329
  292SOL    HW2  917   1.157   0.630   3.302
  293SOL     OW  918   1.227   1.570   2.655
  293SOL    HW1  919   1.248   1.644   2.590
  293SOL    HW2  920   1.295   1.570   2.728
  294SOL     OW  921   0.459   1.152   2.603
  294SOL    HW1  922   0.388   1.125   2.668
  294SOL    HW2  923   0.433   1.124   2.510
  295SOL     OW  924   1.271   1.797   2.453
  295SOL    HW1  925   1.315   1.861   2.389
  295SOL    HW2  926   1.221   1.849   2.523
  296SOL     OW  927   1.032   0.549   1.878
  296SOL    HW1  928   0.991   0.631   1.839
  296SOL    HW2  929   1.096   0.575   1.951
  297SOL     OW  930   0.078   0.556   3.248
  297SOL    HW1  931   0.170   0.555   3.207
  297SOL    HW2  932   0.072   0.630   3.315
  298SOL     OW  933   0.561   0.222   3.009
  298SOL    HW1  934   0.599   0.138   3.046
  298SOL    HW2  935   0.473   0.241   3.053
  299SOL     OW  936   0.866   0.454   2.504
  299SOL    HW1  937   0.834   0.526   2.442
  299SOL    HW2  938   0.890   0.373   2.451
  300SOL     OW  939   1.017   0.039   2.615
  300SOL    HW1  940   0.945   0.044   2.546
  300SOL    HW2  941   0.993  -0.030   2.684
  301SOL     OW  942   1.429   1.173   2.729
  301SOL    HW1  943   1.374   1.089   2.722
  301SOL    HW2  944   1.455   1.202   2.637
  302SOL     OW  945   1.466   0.590   2.854
  302SOL    HW1  946   1.436   0.495   2.861
  302SOL    HW2  947   1.539   0.606   2.920
  303SOL     OW  948   1.857   0.833   2.239
  303SOL    HW1  949   1.899   0.769   2.303
  303SOL    HW2  950   1.819   0.782   2.161
  304SOL     OW  951   0.488   1.385   2.036
  304SOL    HW1  952   0.401   1.370   2.083
  304SOL    HW2  953   0.471   1.411   1.941
  305SOL     OW  954   1.664   1.280   2.519
  305SOL    HW1  955   1.763   1.288   2.533
  305SOL    HW2  956   1.619   1.364   2.550
  306SOL     OW  957   1.390   0.575   1.940
  306SOL    HW1  958   1.336   0.554   2.021
  306SOL    HW2  959   1.481   0.534   1.949
  307SOL     OW  960   0.527   0.256   2.190
  307SOL    HW1  961   0.554   0.197   2.115
  307SOL    HW2  962   0.527   0.351   2.159
  308SOL     OW  963   1.754   1.223   3.450
  308SOL    HW1  964   1.845   1.184   3.437
  308SOL    HW2  965   1.762   1.319   3.474
  309SOL     OW  966   1.064   1.347   3.202
  309SOL    HW1  967   0.984   1.324   3.257
  309SOL    HW2  968   1.147   1.321   3.251
  310SOL     OW  969   1.592   1.629   3.487
  310SOL    HW1  970   1.619   1.663   3.397
  310SOL    HW2  971   1.671   1.591   3.533
  311SOL     OW  972   1.111   1.195   2.962
  311SOL    HW1  973   1.071   1.239   3.043
  311SOL    HW2  974   1.070   1.232   2.879
  312SOL     OW  975   1.638   1.099   2.941
  312SOL    HW1  976   1.643   1.180   3.000
  312SOL    HW2  977   1.552   1.101   2.890
  313SOL     OW  978   0.915   0.089   3.264
  313SOL    HW1  979   0.940   0.069   3.169
  313SOL    HW2  980   0.987   0.145   3.306
  314SOL     OW  981   0.980   1.116   3.581
  314SOL    HW1  982   0.881   1.122   3.591
  314SOL    HW2  983   1.003   1.036   3.525
  315SOL     OW  984   0.705   1.050   2.230
  315SOL    HW1  985   0.691   1.057   2.329
  315SOL    HW2  986   0.789   0.999   2.212
  316SOL     OW  987   0.410   0.813   3.113
  316SOL    HW1  988   0.496   0.825   3.163
  316SOL    HW2  989   0.368   0.726   3.140
  317SOL     OW  990   1.274   0.386   3.124
  317SOL    HW1  991   1.295   0.460   3.188
  317SOL    HW2  992   1.185   0.403   3.081
  318SOL     OW  993   0.064   1.564   3.193
  318SOL    HW1  994   0.018   1.646   3.159
  318SOL    HW2  995   0.162   1.583   3.202
  319SOL     OW  996   0.367   1.100   2.363
  319SOL    HW1  997   0.360   1.183   2.307
  319SOL    HW2  998   0.371   1.020   2.303
  320SOL     OW  999   0.566   0.537   2.727
  320SOL    HW1 1000   0.578   0.603   2.653
  320SOL    HW2 1001   0.612   0.571   2.810
  321SOL     OW 1002   1.252   1.348   2.250
  321SOL    HW1 1003   1.302   1.425   2.290
  321SOL    HW2 1004   1.157   1.350   2.282
  322SOL     OW 1005   1.272   1.445   3.004
  322SOL    HW1 1006   1.319   1.458   3.091
  322SOL    HW2 1007   1.206   1.371   3.013
  323SOL     OW 1008   1.582   0.639   2.334
  323SOL    HW1 1009   1.551   0.700   2.407
  323SOL    HW2 1010   1.632   0.691   2.265
  324SOL     OW 1011   0.354   1.510   3.191
  324SOL    HW1 1012   0.333   1.466   3.104
  324SOL    HW2 1013   0.451   1.536   3.194
  325SOL     OW 1014   0.402   0.751   3.460
  325SOL    HW1 1015   0.470   0.806   3.413
  325SOL    HW2 1016   0.442   0.663   3.487
  326SOL     OW 1017   1.587   0.779   3.532
  326SOL    HW1 1018   1.495   0.817   3.527
  326SOL    HW2 1019   1.647   0.826   3.467
  327SOL     OW 1020   1.013   0.105   3.632
  327SOL    HW1 1021   1.019   0.190   3.580
  327SOL    HW2 1022   1.045   0.029   3.575
  328SOL     OW 1023   0.504   0.050   3.602
  328SOL    HW1 1024   0.462  -0.007   3.532
  328SOL    HW2 1025   0.438   0.119   3.634
  329SOL     OW 1026   0.573   0.870   2.891
  329SOL    HW1 1027   0.617   0.959   2.882
  329SOL    HW2 1028   0.510   0.870   2.968
  330SOL     OW 1029   1.360   0.862   2.907
  330SOL    HW1 1030   1.285   0.862   2.841
  330SOL    HW2 1031   1.397   0.770   2.916
  331SOL     OW 1032   1.209   0.525   2.137
  331SOL    HW1 1033   1.222   0.441   2.191
  331SOL    HW2 1034   1.180   0.599   2.197
  332SOL     OW 1035   0.307   0.213   3.093
  332SOL    HW1 1036   0.284   0.250   3.183
  332SOL    HW2 1037   0.277   0.118   3.087
  333SOL     OW 1038   0.037   1.310   3.144
  333SOL    HW1 1039   0.090   1.261   3.212
  333SOL    HW2 1040   0.059   1.408   3.149
  334SOL     OW 1041   0.732   0.634   2.926
  334SOL    HW1 1042   0.791   0.608   2.850
  334SOL    HW2 1043   0.704   0.730   2.915
  335SOL     OW 1044   1.728   0.935   3.716
  335SOL    HW1 1045   1.682   0.928   3.627
  335SOL    HW2 1046   1.666   0.979   3.782
  336SOL     OW 1047   0.307   0.063   2.480
  336SOL    HW1 1048   0.296   0.157   2.513
  336SOL    HW2 1049   0.302   0.000   2.557
  337SOL     OW 1050   1.622   0.367   2.236
  337SOL    HW1 1051   1.624   0.291   2.300
  337SOL    HW2 1052   1.574   0.444   2.276
  338SOL     OW 1053   1.023   0.766   2.828
  338SOL    HW1 1054   1.038   0.787   2.924
  338SOL    HW2 1055   0.993   0.671   2.819
  339SOL     OW 1056   0.980   1.573   3.562
  339SOL    HW1 1057   0.960   1.617   3.474
  339SOL    HW2 1058   1.019   1.482   3.546
  340SOL     OW 1059   1.859   1.518   3.467
  340SOL    HW1 1060   1.873   1.545   3.372
  340SOL    HW2 1061   1.942   1.540   3.520
  341SOL     OW 1062   0.350   0.898   3.666
  341SOL    HW1 1063   0.426   0.942   3.714
  341SOL    HW2 1064   0.385   0.851   3.584
  342SOL     OW 1065   1.540   0.274   1.987
  342SOL    HW1 1066   1.479   0.199   2.010
  342SOL    HW2 1067   1.562   0.326   2.070
  343SOL     OW 1068   1.303   0.838   1.904
  343SOL    HW1 1069   1.337   0.745   1.919
  343SOL    HW2 1070   1.321   0.865   1.809
  344SOL     OW 1071   1.068   1.333   2.711
  344SOL    HW1 1072   1.075   1.249   2.656
  344SOL    HW2 1073   1.130   1.402   2.675
  345SOL     OW 1074   0.319   0.810   2.811
  345SOL    HW1 1075   0.412   0.846   2.816
  345SOL    HW2 1076   0.313   0.725   2.863
  346SOL     OW 1077   0.339   0.509   2.868
  346SOL    HW1 1078   0.287   0.426   2.851
  346SOL    HW2 1079   0.416   0.514   2.804
  347SOL     OW 1080   1.138   0.380   3.540
  347SOL    HW1 1081   1.093   0.443   3.604
  347SOL    HW2 1082   1.231   0.411   3.523
  348SOL     OW 1083   1.160   0.207   3.339
  348SOL    HW1 1084   1.160   0.271   3.416
  348SOL    HW2 1085   1.188   0.255   3.256
  349SOL     OW 1086   0.008   1.326   2.062
  349SOL    HW1 1087  -0.085   1.347   2.031
  349SOL    HW2 1088   0.018   1.227   2.075
  350SOL     OW 1089   0.088   1.801   2.789
  350SOL    HW1 1090   0.046   1.715   2.762
  350SOL    HW2 1091   0.182   1.804   2.755
  351SOL     OW 1092   0.504   1.568   2.772
  351SOL    HW1 1093   0.570   1.642   2.781
  351SOL    HW2 1094   0.548   1.489   2.730
  352SOL     OW 1095   1.002   0.796   3.100
  352SOL    HW1 1096   1.043   0.764   3.186
  352SOL    HW2 1097   0.906   0.769   3.097
  353SOL     OW 1098   0.040   0.544   2.976
  353SOL    HW1 1099   0.125   0.511   2.935
  353SOL    HW2 1100   0.053   0.559   3.074
  354SOL     OW 1101   0.189   0.520   3.584
  354SOL    HW1 1102   0.248   0.480   3.514
  354SOL    HW2 1103   0.131   0.591   3.543
  355SOL     OW 1104   1.369   0.950   3.522
  355SOL    HW1 1105   1.408   1.039   3.542
  355SOL    HW2 1106   1.379   0.930   3.425
  356SOL     OW 1107   0.815   0.572   2.187
  356SOL    HW1 1108   0.822   0.483   2.141
  356SOL    HW2 1109   0.721   0.606   2.179
  357SOL     OW 1110   1.657   0.604   3.068
  357SOL    HW1 1111   1.619   0.535   3.130
  357SOL    HW2 1112   1.739   0.568   3.024
  358SOL     OW 1113   0.252   1.564   3.606
  358SOL    HW1 1114   0.222   1.621   3.682
  358SOL    HW2 1115   0.245   1.467   3.632
  359SOL     OW 1116   0.671   0.464   3.131
  359SOL    HW1 1117   0.637   0.375   3.101
  359SOL    HW2 1118   0.697   0.518   3.051
  360SOL     OW 1119   0.930   1.678   3.327
  360SOL    HW1 1120   0.906   1.660   3.232
  360SOL    HW2 1121   0.960   1.772   3.337
  361SOL     OW 1122   0.473   0.500   2.053
  361SOL    HW1 1123   0.534   0.580   2.057
  361SOL    HW2 1124   0.378   0.531   2.060
  362SOL     OW 1125   0.159   1.137   3.328
  362SOL    HW1 1126   0.181   1.076   3.404
  362SOL    HW2 1127   0.169   1.088   3.242
  363SOL     OW 1128   1.347   1.059   3.096
  363SOL    HW1 1129   1.371   0.996   3.022
  363SOL    HW2 1130   1.257   1.099   3.078
  364SOL     OW 1131   1.302   0.855   2.171
  364SOL    HW1 1132   1.216   0.824   2.213
  364SOL    HW2 1133   1.298   0.841   2.072
  365SOL     OW 1134   1.759   1.747   3.016
  365SOL    HW1 1135   1.820   1.777   2.943
  365SOL    HW2 1136   1.721   1.658   2.994
  366SOL     OW 1137   1.252   1.731   2.990
  366SOL    HW1 1138   1.336   1.736   2.936
  366SOL    HW2 1139   1.229   1.635   3.008
  367SOL     OW 1140   0.083   1.258   2.884
  367SOL    HW1 1141   0.078   1.257   2.984
  367SOL    HW2 1142   0.000   1.217   2.846
  368SOL     OW 1143   0.688   1.662   3.578
  368SOL    HW1 1144   0.632   1.743   3.587
  368SOL    HW2 1145   0.740   1.666   3.492
  369SOL     OW 1146   1.726   0.135   2.385
  369SOL    HW1 1147   1.799   0.118   2.318
  369SOL    HW2 1148   1.695   0.048   2.423
  370SOL     OW 1149   1.388   1.573   2.339
  370SOL    HW1 1150   1.455   1.585   2.265
  370SOL    HW2 1151   1.348   1.662   2.362
  371SOL     OW 1152   0.130   1.794   3.713
  371SOL    HW1 1153   0.089   1.720   3.766
  371SOL    HW2 1154   0.194   1.845   3.771
  372SOL     OW 1155   1.280   0.927   2.534
  372SOL    HW1 1156   1.340   0.846   2.536
  372SOL    HW2 1157   1.320   0.996   2.474
  373SOL     OW 1158   0.830   1.273   3.284
  373SOL    HW1 1159   0.825   1.306   3.379
  373SOL    HW2 1160   0.744   1.292   3.238
  374SOL     OW 1161   0.672   1.616   2.016
  374SOL    HW1 1162   0.681   1.626   1.917
  374SOL    HW2 1163   0.632   1.527   2.037
  375SOL     OW 1164   1.650   1.720   3.256
  375SOL    HW1 1165   1.703   1.730   3.172
  375SOL    HW2 1166   1.623   1.810   3.290
  376SOL     OW 1167   1.841   0.175   2.825
  376SOL    HW1 1168   1.880   0.090   2.789
  376SOL    HW2 1169   1.743   0.177   2.806
  377SOL     OW 1170   0.263   0.326   2.582
  377SOL    HW1 1171   0.184   0.377   2.548
  377SOL    HW2 1172   0.254   0.311   2.680
  378SOL     OW 1173   1.194   1.612   1.893
  378SOL    HW1 1174   1.200   1.519   1.930
  378SOL    HW2 1175   1.135   1.612   1.813
  379SOL     OW 1176   0.822   1.002   3.234
  379SOL    HW1 1177   0.862   1.001   3.142
  379SOL    HW2 1178   0.832   1.094   3.274
  380SOL     OW 1179   0.916   0.910   2.153
  380SOL    HW1 1180   0.979   0.948   2.085
  380SOL    HW2 1181   0.956   0.827   2.192
  381SOL     OW 1182   1.504   1.607   1.906
  381SOL    HW1 1183   1.412   1.644   1.913
  381SOL    HW2 1184   1.542   1.627   1.816
  382SOL     OW 1185   0.372   1.288   3.352
  382SOL    HW1 1186   0.359   1.381   3.318
  382SOL    HW2 1187   0.288   1.236   3.339
  383SOL     OW 1188   1.614   1.292   3.151
  383SOL    HW1 1189   1.674   1.295   3.231
  383SOL    HW2 1190   1.539   1.356   3.164
  384SOL     OW 1191   1.039   1.098   2.558
  384SOL    HW1 1192   0.969   1.051   2.612
  384SOL    HW2 1193   1.098   1.030   2.515
  385SOL     OW 1194   1.014   0.236   2.833
  385SOL    HW1 1195   1.006   0.200   2.740
  385SOL    HW2 1196   1.012   0.160   2.898
  386SOL     OW 1197   0.590   1.487   2.353
  386SOL    HW1 1198   0.632   1.429   2.283
  386SOL    HW2 1199   0.546   1.566   2.309
  387SOL     OW 1200   1.709   0.385   3.243
  387SOL    HW1 1201   1.782   0.454   3.247
  387SOL    HW2 1202   1.737   0.310   3.184
  388SOL     OW 1203   0.255   1.348   2.152
  388SOL    HW1 1204   0.159   1.349   2.125
  388SOL    HW2 1205   0.267   1.401   2.236
  389SOL     OW 1206   0.105   1.013   3.588
  389SOL    HW1 1207   0.028   0.980   3.642
  389SOL    HW2 1208   0.190   0.983   3.630
  390SOL     OW 1209   0.672   0.203   3.351
  390SOL    HW1 1210   0.762   0.187   3.311
  390SOL    HW2 1211   0.680   0.208   3.450
  391SOL     OW 1212   0.075   0.345   1.895
  391SOL    HW1 1213  -0.017   0.317   1.866
  391SOL    HW2 1214   0.106   0.422   1.839
  392SOL     OW 1215   1.440   0.856   3.260
  392SOL    HW1 1216   1.383   0.908   3.197
  392SOL    HW2 1217   1.536   0.868   3.236
  393SOL     OW 1218   0.072   0.166   2.180
  393SOL    HW1 1219   0.055   0.249   2.126
  393SOL    HW2 1220   0.162   0.129   2.158
  394SOL     OW 1221   1.183   1.335   1.981
  394SOL    HW1 1222   1.084   1.324   1.983
  394SOL    HW2 1223   1.217   1.350   2.074
  395SOL     OW 1224   0.613   0.842   3.293
  395SOL    HW1 1225   0.669   0.923   3.276
  395SOL    HW2 1226   0.672   0.762   3.296
  396SOL     OW 1227   1.493   1.767   2.821
  396SOL    HW1 1228   1.526   1.831   2.752
  396SOL    HW2 1229   1.559   1.761   2.896
  397SOL     OW 1230   0.716   0.565   3.570
  397SOL    HW1 1231   0.735   0.630   3.644
  397SOL    HW2 1232   0.776   0.485   3.579
  398SOL     OW 1233   1.450   1.220   3.495
  398SOL    HW1 1234   1.441   1.210   3.594
  398SOL    HW2 1235   1.546   1.213   3.469
  399SOL     OW 1236   0.390   1.741   3.422
  399SOL    HW1 1237   0.299   1.782   3.420
  399SOL    HW2 1238   0.383   1.647   3.454
  400SOL     OW 1239   1.674   0.883   3.116
  400SOL    HW1 1240   1.647   0.794   3.079
  400SOL    HW2 1241   1.675   0.951   3.043
  401SOL     OW 1242   1.225   0.325   2.311
  401SOL    HW1 1243   1.290   0.251   2.300
  401SOL    HW2 1244   1.245   0.375   2.395
  402SOL     OW 1245   0.594   0.745   2.514
  402SOL    HW1 1246   0.644   0.830   2.495
  402SOL    HW2 1247   0.506   0.747   2.466
  403SOL     OW 1248   1.777   0.342   3.504
  403SOL    HW1 1249   1.760   0.373   3.410
  403SOL    HW2 1250   1.693   0.305   3.542
  404SOL     OW 1251   1.730   0.934   3.379
  404SOL    HW1 1252   1.768   1.025   3.394
  404SOL    HW2 1253   1.722   0.917   3.280
  405SOL     OW 1254   0.859   1.374   1.878
  405SOL    HW1 1255   0.813   1.389   1.966
  405SOL    HW2 1256   0.903   1.459   1.848
  406SOL     OW 1257   0.661   1.790   2.815
  406SOL    HW1 1258   0.615   1.878   2.802
  406SOL    HW2 1259   0.760   1.802   2.808
  407SOL     OW 1260   0.859   0.956   2.723
  407SOL    HW1 1261   0.913   0.887   2.771
  407SOL    HW2 1262   0.827   1.025   2.789
  408SOL     OW 1263   1.083   0.984   1.949
  408SOL    HW1 1264   1.060   1.037   1.867
  408SOL    HW2 1265   1.164   0.928   1.930
  409SOL     OW 1266   1.861   1.569   2.713
  409SOL    HW1 1267   1.790   1.557   2.643
  409SOL    HW2 1268   1.862   1.490   2.773
  410SOL     OW 1269   0.221   1.314   3.706
  410SOL    HW1 1270   0.156   1.241   3.685
  410SOL    HW2 1271   0.225   1.328   3.804
  411SOL     OW 1272   0.079   1.240   2.515
  411SOL    HW1 1273   0.078   1.193   2.603
  411SOL    HW2 1274   0.161   1.212   2.464
  412SOL     OW 1275   0.672   1.391   3.486
  412SOL    HW1 1276   0.594   1.341   3.524
  412SOL    HW2 1277   0.669   1.486   3.517
  413SOL     OW 1278   1.824   0.192   3.089
  413SOL    HW1 1279   1.820   0.102   3.133
  413SOL    HW2 1280   1.827   0.181   2.990
  414SOL     OW 1281   0.428   0.424   2.382
  414SOL    HW1 1282   0.458   0.352   2.320
  414SOL    HW2 1283   0.389   0.384   2.465
  415SOL     OW 1284   1.705   1.487   2.966
  415SOL    HW1 1285   1.612   1.462   2.939
  415SOL    HW2 1286   1.731   1.437   3.048
  416SOL     OW 1287   0.317   0.547   3.142
  416SOL    HW1 1288   0.355   0.488   3.214
  416SOL    HW2 1289   0.357   0.521   3.054
  417SOL     OW 1290   0.812   1.586   2.549
  417SOL    HW1 1291   0.844   1.596   2.455
  417SOL    HW2 1292   0.733   1.524   2.551
  418SOL     OW 1293   1.424   0.214   2.974
  418SOL    HW1 1294   1.476   0.149   3.029
  418SOL    HW2 1295   1.375   0.277   3.035
  419SOL     OW 1296   1.001   0.034   3.016
  419SOL    HW1 1297   0.938  -0.038   2.985
  419SOL    HW2 1298   1.094  -0.002   3.016
  420SOL     OW 1299   0.770   1.330   2.163
  420SOL    HW1 1300   0.724   1.243   2.180
  420SOL    HW2 1301   0.861   1.327   2.204
  421SOL     OW 1302   0.618   1.567   3.146
  421SOL    HW1 1303   0.613   1.649   3.203
  421SOL    HW2 1304   0.707   1.564   3.101
  422SOL     OW 1305   1.352   0.052   2.030
  422SOL    HW1 1306   1.387   0.011   1.946
  422SOL    HW2 1307   1.262   0.014   2.050
  423SOL     OW 1308   1.300   0.453   2.553
  423SOL    HW1 1309   1.241   0.533   2.557
  423SOL    HW2 1310   1.315   0.418   2.646
  424SOL     OW 1311   1.593   0.221   2.744
  424SOL    HW1 1312   1.509   0.220   2.798
  424SOL    HW2 1313   1.595   0.304   2.688
  425SOL     OW 1314   0.039   1.077   2.162
  425SOL    HW1 1315   0.138   1.066   2.153
  425SOL    HW2 1316  -0.001   0.991   2.194
  426SOL     OW 1317   0.875   1.646   2.199
  426SOL    HW1 1318   0.798   1.611   2.145
  426SOL    HW2 1319   0.843   1.717   2.261
  427SOL     OW 1320   0.230   0.628   3.837
  427SOL    HW1 1321   0.137   0.626   3.874
  427SOL    HW2 1322   0.231   0.589   3.745
  428SOL     OW 1323   0.225   0.275   4.720
  428SOL    HW1 1324   0.260   0.258   4.812
  428SOL    HW2 1325   0.137   0.230   4.708
  429SOL     OW 1326   0.019   0.368   4.371
  429SOL    HW1 1327  -0.063   0.411   4.410
  429SOL    HW2 1328  -0.009   0.295   4.308
  430SOL     OW 1329   0.569   1.275   4.889
  430SOL    HW1 1330   0.476   1.268   4.852
  430SOL    HW2 1331   0.580   1.364   4.933
  431SOL     OW 1332   1.555   1.511   4.427
  431SOL    HW1 1333   1.498   1.495   4.508
  431SOL    HW2 1334   1.496   1.521   4.347
  432SOL     OW 1335   1.135   0.703   4.441
  432SOL    HW1 1336   1.192   0.781   4.416
  432SOL    HW2 1337   1.075   0.729   4.517
  433SOL     OW 1338   1.755   0.607   3.955
  433SOL    HW1 1339   1.743   0.594   3.856
  433SOL    HW2 1340   1.725   0.526   4.004
  434SOL     OW 1341   0.768   1.144   4.747
  434SOL    HW1 1342   0.690   1.161   4.807
  434SOL    HW2 1343   0.802   1.231   4.711
  435SOL     OW 1344   0.685   1.012   4.389
  435SOL    HW1 1345   0.754   0.996   4.459
  435SOL    HW2 1346   0.612   1.069   4.427
  436SOL     OW 1347   0.335   1.435   4.785
  436SOL    HW1 1348   0.257   1.404   4.732
  436SOL    HW2 1349   0.393   1.493   4.728
  437SOL     OW 1350   0.438   0.392   5.223
  437SOL    HW1 1351   0.520   0.336   5.232
  437SOL    HW2 1352   0.357   0.334   5.227
  438SOL     OW 1353   1.603   0.447   4.461
  438SOL    HW1 1354   1.529   0.493   4.411
  438SOL    HW2 1355   1.654   0.515   4.514
  439SOL     OW 1356   0.231   1.713   4.207
  439SOL    HW1 1357   0.265   1.790   4.261
  439SOL    HW2 1358   0.275   1.713   4.117
  440SOL     OW 1359   0.230   1.434   4.262
  440SOL    HW1 1360   0.204   1.530   4.262
  440SOL    HW2 1361   0.159   1.380   4.307
  441SOL     OW 1362   0.240   1.091   4.610
  441SOL    HW1 1363   0.254   1.007   4.662
  441SOL    HW2 1364   0.185   1.155   4.665
  442SOL     OW 1365   0.620   1.786   5.163
  442SOL    HW1 1366   0.528   1.769   5.198
  442SOL    HW2 1367   0.648   1.878   5.189
  443SOL     OW 1368   0.606   0.964   3.847
  443SOL    HW1 1369   0.613   1.048   3.793
  443SOL    HW2 1370   0.652   0.977   3.935
  444SOL     OW 1371   0.122   0.643   4.287
  444SOL    HW1 1372   0.077   0.555   4.304
  444SOL    HW2 1373   0.121   0.697   4.371
  445SOL     OW 1374   1.842   1.767   4.083
  445SOL    HW1 1375   1.896   1.738   4.163
  445SOL    HW2 1376   1.872   1.857   4.054
  446SOL     OW 1377   0.027   1.596   3.841
  446SOL    HW1 1378   0.008   1.500   3.862
  446SOL    HW2 1379  -0.006   1.654   3.916
  447SOL     OW 1380   1.689   0.922   4.336
  447SOL    HW1 1381   1.784   0.893   4.344
  447SOL    HW2 1382   1.681   0.987   4.261
  448SOL     OW 1383   1.641   1.108   4.156
  448SOL    HW1 1384   1.727   1.110   4.104
  448SOL    HW2 1385   1.655   1.155   4.244
  449SOL     OW 1386   0.613   1.365   4.450
  449SOL    HW1 1387   0.564   1.278   4.459
  449SOL    HW2 1388   0.590   1.408   4.363
  450SOL     OW 1389   0.809   0.004   4.226
  450SOL    HW1 1390   0.849   0.095   4.217
  450SOL    HW2 1391   0.709   0.012   4.232
  451SOL     OW 1392   0.197   0.976   4.988
  451SOL    HW1 1393   0.286   0.931   4.974
  451SOL    HW2 1394   0.124   0.911   4.969
  452SOL     OW 1395   1.525   0.999   3.914
  452SOL    HW1 1396   1.462   0.923   3.927
  452SOL    HW2 1397   1.573   1.017   4.000
  453SOL     OW 1398   1.466   1.417   4.677
  453SOL    HW1 1399   1.407   1.423   4.757
  453SOL    HW2 1400   1.451   1.329   4.631
  454SOL     OW 1401   1.667   1.714   4.296
  454SOL    HW1 1402   1.626   1.691   4.208
  454SOL    HW2 1403   1.649   1.640   4.361
  455SOL     OW 1404   0.598   0.729   3.994
  455SOL    HW1 1405   0.622   0.798   3.926
  455SOL    HW2 1406   0.520   0.762   4.048
  456SOL     OW 1407   1.281   0.345   4.668
  456SOL    HW1 1408   1.195   0.295   4.655
  456SOL    HW2 1409   1.343   0.291   4.724
  457SOL     OW 1410   1.576   1.662   4.031
  457SOL    HW1 1411   1.665   1.708   4.034
  457SOL    HW2 1412   1.555   1.638   3.936
  458SOL     OW 1413   0.807   0.605   5.189
  458SOL    HW1 1414   0.760   0.602   5.278
  458SOL    HW2 1415   0.756   0.550   5.123
  459SOL     OW 1416   0.991   0.410   4.966
  459SOL    HW1 1417   0.914   0.444   5.020
  459SOL    HW2 1418   0.957   0.359   4.887
  460SOL     OW 1419   1.041   0.701   4.153
  460SOL    HW1 1420   1.067   0.697   4.249
  460SOL    HW2 1421   0.956   0.650   4.139
  461SOL     OW 1422   0.076   0.811   4.513
  461SOL    HW1 1423   0.175   0.799   4.522
  461SOL    HW2 1424   0.052   0.906   4.534
  462SOL     OW 1425   0.130   1.821   5.295
  462SOL    HW1 1426   0.120   1.806   5.394
  462SOL    HW2 1427   0.044   1.857   5.259
  463SOL     OW 1428   0.865   0.348   3.919
  463SOL    HW1 1429   0.924   0.411   3.870
  463SOL    HW2 1430   0.884   0.254   3.890
  464SOL     OW 1431   1.362   1.144   4.269
  464SOL    HW1 1432   1.445   1.115   4.221
  464SOL    HW2 1433   1.313   1.211   4.213
  465SOL     OW 1434   0.550   0.196   4.609
  465SOL    HW1 1435   0.545   0.191   4.709
  465SOL    HW2 1436   0.552   0.292   4.580
  466SOL     OW 1437   1.008   1.456   4.201
  466SOL    HW1 1438   0.962   1.528   4.149
  466SOL    HW2 1439   1.004   1.476   4.299
  467SOL     OW 1440   0.351   1.801   4.577
  467SOL    HW1 1441   0.401   1.715   4.583
  467SOL    HW2 1442   0.416   1.878   4.574
  468SOL     OW 1443   1.795   1.066   4.597
  468SOL    HW1 1444   1.733   1.051   4.521
  468SOL    HW2 1445   1.743   1.077   4.682
  469SOL     OW 1446   0.321   0.943   3.966
  469SOL    HW1 1447   0.403   0.982   3.924
  469SOL    HW2 1448   0.294   0.861   3.917
  470SOL     OW 1449   1.458   0.735   4.452
  470SOL    HW1 1450   1.453   0.670   4.527
  470SOL    HW2 1451   1.538   0.794   4.465
  471SOL     OW 1452   1.111   1.776   3.961
  471SOL    HW1 1453   1.051   1.714   4.011
  471SOL    HW2 1454   1.142   1.732   3.876
  472SOL     OW 1455   1.632   1.377   3.805
  472SOL    HW1 1456   1.600   1.471   3.795
  472SOL    HW2 1457   1.556   1.314   3.793
  473SOL     OW 1458   0.464   1.743   4.047
  473SOL    HW1 1459   0.497   1.782   4.133
  473SOL    HW2 1460   0.540   1.736   3.982
  474SOL     OW 1461   1.400   0.107   4.150
  474SOL    HW1 1462   1.376   0.070   4.060
  474SOL    HW2 1463   1.499   0.123   4.154
  475SOL     OW 1464   0.249   1.785   4.965
  475SOL    HW1 1465   0.306   1.720   5.015
  475SOL    HW2 1466   0.233   1.752   4.872
  476SOL     OW 1467   0.940   1.698   4.628
  476SOL    HW1 1468   1.020   1.641   4.649
  476SOL    HW2 1469   0.891   1.658   4.551
  477SOL     OW 1470   0.382   0.700   4.204
  477SOL    HW1 1471   0.427   0.610   4.201
  477SOL    HW2 1472   0.288   0.689   4.237
  478SOL     OW 1473   0.614   0.122   3.841
  478SOL    HW1 1474   0.712   0.100   3.848
  478SOL    HW2 1475   0.583   0.105   3.748
  479SOL     OW 1476   0.888   1.514   4.919
  479SOL    HW1 1477   0.865   1.489   4.825
  479SOL    HW2 1478   0.949   1.445   4.958
  480SOL     OW 1479   0.803   1.402   4.648
  480SOL    HW1 1480   0.893   1.416   4.606
  480SOL    HW2 1481   0.732   1.404   4.577
  481SOL     OW 1482   0.922   0.503   4.623
  481SOL    HW1 1483   0.897   0.494   4.527
  481SOL    HW2 1484   0.970   0.421   4.654
  482SOL     OW 1485   0.539   0.064   4.236
  482SOL    HW1 1486   0.458   0.065   4.294
  482SOL    HW2 1487   0.542   0.147   4.181
  483SOL     OW 1488   1.434   1.188   3.765
  483SOL    HW1 1489   1.466   1.112   3.822
  483SOL    HW2 1490   1.342   1.215   3.795
  484SOL     OW 1491   0.297   0.035   3.895
  484SOL    HW1 1492   0.346   0.119   3.874
  484SOL    HW2 1493   0.359  -0.030   3.940
  485SOL     OW 1494   0.935   0.236   4.204
  485SOL    HW1 1495   0.887   0.277   4.126
  485SOL    HW2 1496   1.034   0.234   4.185
  486SOL     OW 1497   1.227   1.570   4.517
  486SOL    HW1 1498   1.248   1.644   4.452
  486SOL    HW2 1499   1.295   1.570   4.590
  487SOL     OW 1500   0.459   1.152   4.465
  487SOL    HW1 1501   0.388   1.125   4.530
  487SOL    HW2 1502   0.433   1.124   4.372
  488SOL     OW 1503   1.271   1.797   4.315
  488SOL    HW1 1504   1.315   1.861   4.251
  488SOL    HW2 1505   1.221   1.849   4.385
  489SOL     OW 1506   1.032   0.549   3.740
  489SOL    HW1 1507   0.991   0.631   3.701
  489SOL    HW2 1508   1.096   0.575   3.813
  490SOL     OW 1509   0.561   0.222   4.871
  490SOL    HW1 1510   0.599   0.138   4.908
  490SOL    HW2 1511   0.473   0.241   4.915
  491SOL     OW 1512   0.866   0.454   4.366
  491SOL    HW1 1513   0.834   0.526   4.304
  491SOL    HW2 1514   0.890   0.373   4.313
  492SOL     OW 1515   1.017   0.039   4.477
  492SOL    HW1 1516   0.945   0.044   4.408
  492SOL    HW2 1517   0.993  -0.030   4.546
  493SOL     OW 1518   1.429   1.173   4.591
  493SOL    HW1 1519   1.374   1.089   4.584
  493SOL    HW2 1520   1.455   1.202   4.499
  494SOL     OW 1521   1.466   0.590   4.716
  494SOL    HW1 1522   1.436   0.495   4.723
  494SOL    HW2 1523   1.539   0.606   4.782
  495SOL     OW 1524   1.857   0.833   4.101
  495SOL    HW1 1525   1.899   0.769   4.165
  495SOL    HW2 1526   1.819   0.782   4.023
  496SOL     OW 1527   0.488   1.385   3.898
  496SOL    HW1 1528   0.401   1.370   3.945
  496SOL    HW2 1529   0.471   1.411   3.803
  497SOL     OW 1530   1.664   1.280   4.381
  497SOL    HW1 1531   1.763   1.288   4.395
  497SOL    HW2 1532   1.619   1.364   4.412
  498SOL     OW 1533   1.390   0.575   3.802
  498SOL    HW1 1534   1.336   0.554   3.883
  498SOL    HW2 1535   1.481   0.534   3.811
  499SOL     OW 1536   0.527   0.256   4.052
  499SOL    HW1 1537   0.554   0.197   3.977
  499SOL    HW2 1538   0.527   0.351   4.021
  500SOL     OW 1539   1.754   1.223   5.312
  500SOL    HW1 1540   1.845   1.184   5.299
  500SOL    HW2 1541   1.762   1.319   5.336
  501SOL     OW 1542   1.111   1.195   4.824
  501SOL    HW1 1543   1.071   1.239   4.905
  501SOL    HW2 1544   1.070   1.232   4.741
  502SOL     OW 1545   1.638   1.099   4.803
  502SOL    HW1 1546   1.643   1.180   4.862
  502SOL    HW2 1547   1.552   1.101   4.752
  503SOL     OW 1548   0.705   1.050   4.092
  503SOL    HW1 1549   0.691   1.057   4.191
  503SOL    HW2 1550   0.789   0.999   4.074
  504SOL     OW 1551   0.410   0.813   4.975
  504SOL    HW1 1552   0.496   0.825   5.025
  504SOL    HW2 1553   0.368   0.726   5.002
  505SOL     OW 1554   1.274   0.386   4.986
  505SOL    HW1 1555   1.295   0.460   5.050
  505SOL    HW2 1556   1.185   0.403   4.943
  506SOL     OW 1557   0.064   1.564   5.055
  506SOL    HW1 1558   0.018   1.646   5.021
  506SOL    HW2 1559   0.162   1.583   5.064
  507SOL     OW 1560   0.367   1.100   4.225
  507SOL    HW1 1561   0.360   1.183   4.169
  507SOL    HW2 1562   0.371   1.020   4.165
  508SOL     OW 1563   0.566   0.537   4.589
  508SOL    HW1 1564   0.578   0.603   4.515
  508SOL    HW2 1565   0.612   0.571   4.672
  509SOL     OW 1566   1.252   1.348   4.112
  509SOL    HW1 1567   1.302   1.425   4.152
  509SOL    HW2 1568   1.157   1.350   4.144
  510SOL     OW 1569   1.272   1.445   4.866
  510SOL    HW1 1570   1.319   1.458   4.953
  510SOL    HW2 1571   1.206   1.371   4.875
  511SOL     OW 1572   1.582   0.639   4.196
  511SOL    HW1 1573   1.551   0.700   4.269
  511SOL    HW2 1574   1.632   0.691   4.127
  512SOL     OW 1575   0.354   1.510   5.053
  512SOL    HW1 1576   0.333   1.466   4.966
  512SOL    HW2 1577   0.451   1.536   5.056
  513SOL     OW 1578   0.573   0.870   4.753
  513SOL    HW1 1579   0.617   0.959   4.744
  513SOL    HW2 1580   0.510   0.870   4.830
  514SOL     OW 1581   1.360   0.862   4.769
  514SOL    HW1 1582   1.285   0.862   4.703
  514SOL    HW2 1583   1.397   0.770   4.778
  515SOL     OW 1584   1.209   0.525   3.999
  515SOL    HW1 1585   1.222   0.441   4.053
  515SOL    HW2 1586   1.180   0.599   4.059
  516SOL     OW 1587   0.307   0.213   4.955
  516SOL    HW1 1588   0.284   0.250   5.045
  516SOL    HW2 1589   0.277   0.118   4.949
  517SOL     OW 1590   0.037   1.310   5.006
  517SOL    HW1 1591   0.090   1.261   5.074
  517SOL    HW2 1592   0.059   1.408   5.011
  518SOL     OW 1593   0.732   0.634   4.788
  518SOL    HW1 1594   0.791   0.608   4.712
  518SOL    HW2 1595   0.704   0.730   4.777
  519SOL     OW 1596   0.307   0.063   4.342
  519SOL    HW1 1597   0.296   0.157   4.375
  519SOL    HW2 1598   0.302   0.000   4.419
  520SOL     OW 1599   1.622   0.367   4.098
  520SOL    HW1 1600   1.624   0.291   4.162
  520SOL    HW2 1601   1.574   0.444   4.138
  521SOL     OW 1602   1.023   0.766   4.690
  521SOL    HW1 1603   1.038   0.787   4.786
  521SOL    HW2 1604   0.993   0.671   4.681
  522SOL     OW 1605   1.540   0.274   3.849
  522SOL    HW1 1606   1.479   0.199   3.872
  522SOL    HW2 1607   1.562   0.326   3.932
  523SOL     OW 1608   1.303   0.838   3.766
  523SOL    HW1 1609   1.337   0.745   3.781
  523SOL    HW2 1610   1.321   0.865   3.671
  524SOL     OW 1611   1.068   1.333   4.573
  524SOL    HW1 1612   1.075   1.249   4.518
  524SOL    HW2 1613   1.130   1.402   4.537
  525SOL     OW 1614   0.319   0.810   4.673
  525SOL    HW1 1615   0.412   0.846   4.678
  525SOL    HW2 1616   0.313   0.725   4.725
  526SOL     OW 1617   0.339   0.509   4.730
  526SOL    HW1 1618   0.287   0.426   4.713
  526SOL    HW2 1619   0.416   0.514   4.666
  527SOL     OW 1620   1.160   0.207   5.201
  527SOL    HW1 1621   1.160   0.271   5.278
  527SOL    HW2 1622   1.188   0.255   5.118
  528SOL     OW 1623   0.008   1.326   3.924
  528SOL    HW1 1624  -0.085   1.347   3.893
  528SOL    HW2 1625   0.018   1.227   3.937
  529SOL     OW 1626   0.088   1.801   4.651
  529SOL    HW1 1627   0.046   1.715   4.624
  529SOL    HW2 1628   0.182   1.804   4.617
  530SOL     OW 1629   0.504   1.568   4.634
  530SOL    HW1 1630   0.570   1.642   4.643
  530SOL    HW2 1631   0.548   1.489   4.592
  531SOL     OW 1632   1.002   0.796   4.962
  531SOL    HW1 1633   1.043   0.764   5.048
  531SOL    HW2 1634   0.906   0.769   4.959
  532SOL     OW 1635   0.040   0.544   4.838
  532SOL    HW1 1636   0.125   0.511   4.797
  532SOL    HW2 1637   0.053   0.559   4.936
  533SOL     OW 1638   0.815   0.572   4.049
  533SOL    HW1 1639   0.822   0.483   4.003
  533SOL    HW2 1640   0.721   0.606   4.041
  534SOL     OW 1641   1.657   0.604   4.930
  534SOL    HW1 1642   1.619   0.535   4.992
  534SOL    HW2 1643   1.739   0.568   4.886
  535SOL     OW 1644   0.671   0.464   4.993
  535SOL    HW1 1645   0.637   0.375   4.963
  535SOL    HW2 1646   0.697   0.518   4.913
  536SOL     OW 1647   0.930   1.678   5.189
  536SOL    HW1 1648   0.906   1.660   5.094
  536SOL    HW2 1649   0.960   1.772   5.199
  537SOL     OW 1650   0.473   0.500   3.915
  537SOL    HW1 1651   0.534   0.580   3.919
  537SOL    HW2 1652   0.378   0.531   3.922
  538SOL     OW 1653   0.159   1.137   5.190
  538SOL    HW1 1654   0.181   1.076   5.266
  538SOL    HW2 1655   0.169   1.088   5.104
  539SOL     OW 1656   1.347   1.059   4.958
  539SOL    HW1 1657   1.371   0.996   4.884
  539SOL    HW2 1658   1.257   1.099   4.940
  540SOL     OW 1659   1.302   0.855   4.033
  540SOL    HW1 1660   1.216   0.824   4.075
  540SOL    HW2 1661   1.298   0.841   3.934
  541SOL     OW 1662   1.759   1.747   4.878
  541SOL    HW1 1663   1.820   1.777   4.805
  541SOL    HW2 1664   1.721   1.658   4.856
  542SOL     OW 1665   1.252   1.731   4.852
  542SOL    HW1 1666   1.336   1.736   4.798
  542SOL    HW2 1667   1.229   1.635   4.870
  543SOL     OW 1668   0.083   1.258   4.746
  543SOL    HW1 1669   0.078   1.257   4.846
  543SOL    HW2 1670   0.000   1.217   4.708
  544SOL     OW 1671   1.726   0.135   4.247
  544SOL    HW1 1672   1.799   0.118   4.180
  544SOL    HW2 1673   1.695   0.048   4.285
  545SOL     OW 1674   1.388   1.573   4.201
  545SOL    HW1 1675   1.455   1.585   4.127
  545SOL    HW2 1676   1.348   1.662   4.224
  546SOL     OW 1677   1.280   0.927   4.396
  546SOL    HW1 1678   1.340   0.846   4.398
  546SOL    HW2 1679   1.320   0.996   4.336
  547SOL     OW 1680   0.672   1.616   3.878
  547SOL    HW1 1681   0.681   1.626   3.779
  547SOL    HW2 1682   0.632   1.527   3.899
  548SOL     OW 1683   1.841   0.175   4.687
  548SOL    HW1 1684   1.880   0.090   4.651
  548SOL    HW2 1685   1.743   0.177   4.668
  549SOL     OW 1686   0.263   0.326   4.444
  549SOL    HW1 1687   0.184   0.377   4.410
  549SOL    HW2 1688   0.254   0.311   4.542
  550SOL     OW 1689   1.194   1.612   3.755
  550SOL    HW1 1690   1.200   1.519   3.792
  550SOL    HW2 1691   1.135   1.612   3.675
  551SOL     OW 1692   0.822   1.002   5.096
  551SOL    HW1 1693   0.862   1.001   5.004
  551SOL    HW2 1694   0.832   1.094   5.136
  552SOL     OW 1695   0.916   0.910   4.015
  552SOL    HW1 1696   0.979   0.948   3.947
  552SOL    HW2 1697   0.956   0.827   4.054
  553SOL     OW 1698   1.504   1.607   3.768
  553SOL    HW1 1699   1.412   1.644   3.775
  553SOL    HW2 1700   1.542   1.627   3.678
  554SOL     OW 1701   0.372   1.288   5.214
  554SOL    HW1 1702   0.359   1.381   5.180
  554SOL    HW2 1703   0.288   1.236   5.201
  555SOL     OW 1704   1.614   1.292   5.013
  555SOL    HW1 1705   1.674   1.295   5.093
  555SOL    HW2 1706   1.539   1.356   5.026
  556SOL     OW 1707   1.039   1.098   4.420
  556SOL    HW1 1708   0.969   1.051   4.474
  556SOL    HW2 1709   1.098   1.030   4.377
  557SOL     OW 1710   1.014   0.236   4.695
  557SOL    HW1 1711   1.006   0.200   4.602
  557SOL    HW2 1712   1.012   0.160   4.760
  558SOL     OW 1713   0.590   1.487   4.215
  558SOL    HW1 1714   0.632   1.429   4.145
  558SOL    HW2 1715   0.546   1.566   4.171
  559SOL     OW 1716   1.709   0.385   5.105
  559SOL    HW1 1717   1.782   0.454   5.109
  559SOL    HW2 1718   1.737   0.310   5.046
  560SOL     OW 1719   0.255   1.348   4.014
  560SOL    HW1 1720   0.159   1.349   3.987
  560SOL    HW2 1721   0.267   1.401   4.098
  561SOL     OW 1722   0.075   0.345   3.757
  561SOL    HW1 1723  -0.017   0.317   3.728
  561SOL    HW2 1724   0.106   0.422   3.701
  562SOL     OW 1725   0.072   0.166   4.042
  562SOL    HW1 1726   0.055   0.249   3.988
  562SOL    HW2 1727   0.162   0.129   4.020
  563SOL     OW 1728   1.183   1.335   3.843
  563SOL    HW1 1729   1.084   1.324   3.845
  563SOL    HW2 1730   1.217   1.350   3.936
  564SOL     OW 1731   0.613   0.842   5.155
  564SOL    HW1 1732   0.669   0.923   5.138
  564SOL    HW2 1733   0.672   0.762   5.158
  565SOL     OW 1734   1.493   1.767   4.683
  565SOL    HW1 1735   1.526   1.831   4.614
  565SOL    HW2 1736   1.559   1.761   4.758
  566SOL     OW 1737   0.390   1.741   5.284
  566SOL    HW1 1738   0.299   1.782   5.282
  566SOL    HW2 1739   0.383   1.647   5.316
  567SOL     OW 1740   1.674   0.883   4.978
  567SOL    HW1 1741   1.647   0.794   4.941
  567SOL    HW2 1742   1.675   0.951   4.905
  568SOL     OW 1743   1.225   0.325   4.173
  568SOL    HW1 1744   1.290   0.251   4.162
  568SOL    HW2 1745   1.245   0.375   4.257
  569SOL     OW 1746   0.594   0.745   4.376
  569SOL    HW1 1747   0.644   0.830   4.357
  569SOL    HW2 1748   0.506   0.747   4.328
  570SOL     OW 1749   1.730   0.934   5.241
  570SOL    HW1 1750   1.768   1.025   5.256
  570SOL    HW2 1751   1.722   0.917   5.142
  571SOL     OW 1752   0.859   1.374   3.740
  571SOL    HW1 1753   0.813   1.389   3.828
  571SOL    HW2 1754   0.903   1.459   3.710
  572SOL     OW 1755   0.661   1.790   4.677
  572SOL    HW1 1756   0.615   1.878   4.664
  572SOL    HW2 1757   0.760   1.802   4.670
  573SOL     OW 1758   0.859   0.956   4.585
  573SOL    HW1 1759   0.913   0.887   4.633
  573SOL    HW2 1760   0.827   1.025   4.651
  574SOL     OW 1761   1.083   0.984   3.811
  574SOL    HW1 1762   1.060   1.037   3.729
  574SOL    HW2 1763   1.164   0.928   3.792
  575SOL     OW 1764   1.861   1.569   4.575
  575SOL    HW1 1765   1.790   1.557   4.505
  575SOL    HW2 1766   1.862   1.490   4.635
  576SOL     OW 1767   0.079   1.240   4.377
  576SOL    HW1 1768   0.078   1.193   4.465
  576SOL    HW2 1769   0.161   1.212   4.326
  577SOL     OW 1770   1.824   0.192   4.951
  577SOL    HW1 1771   1.820   0.102   4.995
  577SOL    HW2 1772   1.827   0.181   4.852
  578SOL     OW 1773   0.428   0.424   4.244
  578SOL    HW1 1774   0.458   0.352   4.182
  578SOL    HW2 1775   0.389   0.384   4.327
  579SOL     OW 1776   1.705   1.487   4.828
  579SOL    HW1 1777   1.612   1.462   4.801
  579SOL    HW2 1778   1.731   1.437   4.910
  580SOL     OW 1779   0.317   0.547   5.004
  580SOL    HW1 1780   0.355   0.488   5.076
  580SOL    HW2 1781   0.357   0.521   4.916
  581SOL     OW 1782   0.812   1.586   4.411
  581SOL    HW1 1783   0.844   1.596   4.317
  581SOL    HW2 1784   0.733   1.524   4.413
  582SOL     OW 1785   1.424   0.214   4.836
  582SOL    HW1 1786   1.476   0.149   4.891
  582SOL    HW2 1787   1.375   0.277   4.897
  583SOL     OW 1788   1.001   0.034   4.878
  583SOL    HW1 1789   0.938  -0.038   4.847
  583SOL    HW2 1790   1.094  -0.002   4.878
  584SOL     OW 1791   0.770   1.330   4.025
  584SOL    HW1 1792   0.724   1.243   4.042
  584SOL    HW2 1793   0.861   1.327   4.066
  585SOL     OW 1794   0.618   1.567   5.008
  585SOL    HW1 1795   0.613   1.649   5.065
  585SOL    HW2 1796   0.707   1.564   4.963
  586SOL     OW 1797   1.352   0.052   3.892
  586SOL    HW1 1798   1.387   0.011   3.808
  586SOL    HW2 1799   1.262   0.014   3.912
  587SOL     OW 1800   1.300   0.453   4.415
  587SOL    HW1 1801   1.241   0.533   4.419
  587SOL    HW2 1802   1.315   0.418   4.508
  588SOL     OW 1803   1.593   0.221   4.606
  588SOL    HW1 1804   1.509   0.220   4.660
  588SOL    HW2 1805   1.595   0.304   4.550
  589SOL     OW 1806   0.039   1.077   4.024
  589SOL    HW1 1807   0.138   1.066   4.015
  589SOL    HW2 1808  -0.001   0.991   4.056
  590SOL     OW 1809   0.875   1.646   4.061
  590SOL    HW1 1810   0.798   1.611   4.007
  590SOL    HW2 1811   0.843   1.717   4.123
  591SOL     OW 1812   0.230   2.490   0.113
  591SOL    HW1 1813   0.137   2.488   0.150
  591SOL    HW2 1814   0.231   2.451   0.021
  592SOL     OW 1815   0.225   2.137   0.996
  592SOL    HW1 1816   0.260   2.120   1.088
  592SOL    HW2 1817   0.137   2.092   0.984
  593SOL     OW 1818   0.019   2.230   0.647
  593SOL    HW1 1819  -0.063   2.273   0.686
  593SOL    HW2 1820  -0.009   2.157   0.584
  594SOL     OW 1821   0.569   3.137   1.165
  594SOL    HW1 1822   0.476   3.130   1.128
  594SOL    HW2 1823   0.580   3.226   1.209
  595SOL     OW 1824   1.555   3.373   0.703
  595SOL    HW1 1825   1.498   3.357   0.784
  595SOL    HW2 1826   1.496   3.383   0.623
  596SOL     OW 1827   1.135   2.565   0.717
  596SOL    HW1 1828   1.192   2.643   0.692
  596SOL    HW2 1829   1.075   2.591   0.793
  597SOL     OW 1830   1.755   2.469   0.231
  597SOL    HW1 1831   1.743   2.456   0.132
  597SOL    HW2 1832   1.725   2.388   0.280
  598SOL     OW 1833   0.768   3.006   1.023
  598SOL    HW1 1834   0.690   3.023   1.083
  598SOL    HW2 1835   0.802   3.093   0.987
  599SOL     OW 1836   0.850   2.660   1.823
  599SOL    HW1 1837   0.846   2.736   1.888
  599SOL    HW2 1838   0.872   2.696   1.732
  600SOL     OW 1839   0.685   2.874   0.665
  600SOL    HW1 1840   0.754   2.858   0.735
  600SOL    HW2 1841   0.612   2.931   0.703
  601SOL     OW 1842   0.686   3.023   1.803
  601SOL    HW1 1843   0.746   3.102   1.817
  601SOL    HW2 1844   0.600   3.054   1.762
  602SOL     OW 1845   0.335   3.297   1.061
  602SOL    HW1 1846   0.257   3.266   1.008
  602SOL    HW2 1847   0.393   3.355   1.004
  603SOL     OW 1848   1.460   3.367   1.339
  603SOL    HW1 1849   1.484   3.461   1.365
  603SOL    HW2 1850   1.444   3.313   1.421
  604SOL     OW 1851   0.438   2.254   1.499
  604SOL    HW1 1852   0.520   2.198   1.508
  604SOL    HW2 1853   0.357   2.196   1.503
  605SOL     OW 1854   1.603   2.309   0.737
  605SOL    HW1 1855   1.529   2.355   0.687
  605SOL    HW2 1856   1.654   2.377   0.790
  606SOL     OW 1857   0.231   3.575   0.483
  606SOL    HW1 1858   0.265   3.652   0.537
  606SOL    HW2 1859   0.275   3.575   0.393
  607SOL     OW 1860   1.127   3.203   1.690
  607SOL    HW1 1861   1.174   3.203   1.778
  607SOL    HW2 1862   1.079   3.116   1.679
  608SOL     OW 1863   0.230   3.296   0.538
  608SOL    HW1 1864   0.204   3.392   0.538
  608SOL    HW2 1865   0.159   3.242   0.583
  609SOL     OW 1866   0.240   2.953   0.886
  609SOL    HW1 1867   0.254   2.869   0.938
  609SOL    HW2 1868   0.185   3.017   0.941
  610SOL     OW 1869   0.620   3.648   1.439
  610SOL    HW1 1870   0.528   3.631   1.474
  610SOL    HW2 1871   0.648   3.740   1.465
  611SOL     OW 1872   0.606   2.826   0.123
  611SOL    HW1 1873   0.613   2.910   0.069
  611SOL    HW2 1874   0.652   2.839   0.211
  612SOL     OW 1875   1.594   1.976   1.480
  612SOL    HW1 1876   1.576   2.043   1.408
  612SOL    HW2 1877   1.591   2.022   1.569
  613SOL     OW 1878   0.122   2.505   0.563
  613SOL    HW1 1879   0.077   2.417   0.580
  613SOL    HW2 1880   0.121   2.559   0.647
  614SOL     OW 1881   1.842   3.629   0.359
  614SOL    HW1 1882   1.896   3.600   0.439
  614SOL    HW2 1883   1.872   3.719   0.330
  615SOL     OW 1884   0.027   3.458   0.117
  615SOL    HW1 1885   0.008   3.362   0.138
  615SOL    HW2 1886  -0.006   3.516   0.192
  616SOL     OW 1887   1.689   2.784   0.612
  616SOL    HW1 1888   1.784   2.755   0.620
  616SOL    HW2 1889   1.681   2.849   0.537
  617SOL     OW 1890   1.641   2.970   0.432
  617SOL    HW1 1891   1.727   2.972   0.380
  617SOL    HW2 1892   1.655   3.017   0.520
  618SOL     OW 1893   0.113   2.599   1.597
  618SOL    HW1 1894   0.201   2.586   1.642
  618SOL    HW2 1895   0.100   2.696   1.575
  619SOL     OW 1896   0.613   3.227   0.726
  619SOL    HW1 1897   0.564   3.140   0.735
  619SOL    HW2 1898   0.590   3.270   0.639
  620SOL     OW 1899   1.293   3.090   1.423
  620SOL    HW1 1900   1.330   3.017   1.365
  620SOL    HW2 1901   1.345   3.095   1.508
  621SOL     OW 1902   0.809   1.866   0.502
  621SOL    HW1 1903   0.849   1.957   0.493
  621SOL    HW2 1904   0.709   1.874   0.508
  622SOL     OW 1905   0.197   2.838   1.264
  622SOL    HW1 1906   0.286   2.793   1.250
  622SOL    HW2 1907   0.124   2.773   1.245
  623SOL     OW 1908   1.525   2.861   0.190
  623SOL    HW1 1909   1.462   2.785   0.203
  623SOL    HW2 1910   1.573   2.879   0.276
  624SOL     OW 1911   1.187   3.654   1.616
  624SOL    HW1 1912   1.211   3.714   1.540
  624SOL    HW2 1913   1.194   3.559   1.586
  625SOL     OW 1914   0.317   2.113   1.801
  625SOL    HW1 1915   0.388   2.184   1.807
  625SOL    HW2 1916   0.229   2.152   1.829
  626SOL     OW 1917   1.466   3.279   0.953
  626SOL    HW1 1918   1.407   3.285   1.033
  626SOL    HW2 1919   1.451   3.191   0.907
  627SOL     OW 1920   1.667   3.576   0.572
  627SOL    HW1 1921   1.626   3.553   0.484
  627SOL    HW2 1922   1.649   3.502   0.637
  628SOL     OW 1923   0.598   2.591   0.270
  628SOL    HW1 1924   0.622   2.660   0.202
  628SOL    HW2 1925   0.520   2.624   0.324
  629SOL     OW 1926   1.281   2.207   0.944
  629SOL    HW1 1927   1.195   2.157   0.931
  629SOL    HW2 1928   1.343   2.153   1.000
  630SOL     OW 1929   1.576   3.524   0.307
  630SOL    HW1 1930   1.665   3.570   0.310
  630SOL    HW2 1931   1.555   3.500   0.212
  631SOL     OW 1932   0.807   2.467   1.465
  631SOL    HW1 1933   0.760   2.464   1.554
  631SOL    HW2 1934   0.756   2.412   1.399
  632SOL     OW 1935   1.394   2.331   1.674
  632SOL    HW1 1936   1.374   2.374   1.762
  632SOL    HW2 1937   1.472   2.269   1.683
  633SOL     OW 1938   0.973   2.752   1.572
  633SOL    HW1 1939   1.019   2.668   1.543
  633SOL    HW2 1940   0.917   2.786   1.497
  634SOL     OW 1941   0.991   2.272   1.242
  634SOL    HW1 1942   0.914   2.306   1.296
  634SOL    HW2 1943   0.957   2.221   1.163
  635SOL     OW 1944   1.041   2.563   0.429
  635SOL    HW1 1945   1.067   2.559   0.525
  635SOL    HW2 1946   0.956   2.512   0.415
  636SOL     OW 1947   0.076   2.673   0.789
  636SOL    HW1 1948   0.175   2.661   0.798
  636SOL    HW2 1949   0.052   2.768   0.810
  637SOL     OW 1950   0.130   3.683   1.571
  637SOL    HW1 1951   0.120   3.668   1.670
  637SOL    HW2 1952   0.044   3.719   1.535
  638SOL     OW 1953   0.865   2.210   0.195
  638SOL    HW1 1954   0.924   2.273   0.146
  638SOL    HW2 1955   0.884   2.116   0.166
  639SOL     OW 1956   1.719   2.447   1.831
  639SOL    HW1 1957   1.693   2.536   1.795
  639SOL    HW2 1958   1.717   2.379   1.758
  640SOL     OW 1959   1.362   3.006   0.545
  640SOL    HW1 1960   1.445   2.977   0.497
  640SOL    HW2 1961   1.313   3.073   0.489
  641SOL     OW 1962   0.550   2.058   0.885
  641SOL    HW1 1963   0.545   2.053   0.985
  641SOL    HW2 1964   0.552   2.154   0.856
  642SOL     OW 1965   1.008   3.318   0.477
  642SOL    HW1 1966   0.962   3.390   0.425
  642SOL    HW2 1967   1.004   3.338   0.575
  643SOL     OW 1968   0.351   3.663   0.853
  643SOL    HW1 1969   0.401   3.577   0.859
  643SOL    HW2 1970   0.416   3.740   0.850
  644SOL     OW 1971   1.795   2.928   0.873
  644SOL    HW1 1972   1.733   2.913   0.797
  644SOL    HW2 1973   1.743   2.939   0.958
  645SOL     OW 1974   1.227   3.412   1.506
  645SOL    HW1 1975   1.233   3.335   1.570
  645SOL    HW2 1976   1.175   3.386   1.426
  646SOL     OW 1977   0.321   2.805   0.242
  646SOL    HW1 1978   0.403   2.844   0.200
  646SOL    HW2 1979   0.294   2.723   0.193
  647SOL     OW 1980   1.458   2.597   0.728
  647SOL    HW1 1981   1.453   2.532   0.803
  647SOL    HW2 1982   1.538   2.656   0.741
  648SOL     OW 1983   0.461   3.128   1.727
  648SOL    HW1 1984   0.411   3.129   1.641
  648SOL    HW2 1985   0.398   3.110   1.803
  649SOL     OW 1986   1.111   3.638   0.237
  649SOL    HW1 1987   1.051   3.576   0.287
  649SOL    HW2 1988   1.142   3.594   0.152
  650SOL     OW 1989   0.202   2.147   1.498
  650SOL    HW1 1990   0.122   2.207   1.485
  650SOL    HW2 1991   0.192   2.098   1.584
  651SOL     OW 1992   1.632   3.239   0.081
  651SOL    HW1 1993   1.600   3.333   0.071
  651SOL    HW2 1994   1.556   3.176   0.069
  652SOL     OW 1995   0.464   3.605   0.323
  652SOL    HW1 1996   0.497   3.644   0.409
  652SOL    HW2 1997   0.540   3.598   0.258
  653SOL     OW 1998   1.400   1.969   0.426
  653SOL    HW1 1999   1.376   1.932   0.336
  653SOL    HW2 2000   1.499   1.985   0.430
  654SOL     OW 2001   0.249   3.647   1.241
  654SOL    HW1 2002   0.306   3.582   1.291
  654SOL    HW2 2003   0.233   3.614   1.148
  655SOL     OW 2004   0.940   3.560   0.904
  655SOL    HW1 2005   1.020   3.503   0.925
  655SOL    HW2 2006   0.891   3.520   0.827
  656SOL     OW 2007   0.382   2.562   0.480
  656SOL    HW1 2008   0.427   2.472   0.477
  656SOL    HW2 2009   0.288   2.551   0.513
  657SOL     OW 2010   1.547   2.084   1.729
  657SOL    HW1 2011   1.542   2.121   1.821
  657SOL    HW2 2012   1.475   2.015   1.717
  658SOL     OW 2013   0.781   2.126   1.749
  658SOL    HW1 2014   0.848   2.065   1.792
  658SOL    HW2 2015   0.708   2.145   1.814
  659SOL     OW 2016   0.888   3.376   1.195
  659SOL    HW1 2017   0.865   3.351   1.101
  659SOL    HW2 2018   0.949   3.307   1.234
  660SOL     OW 2019   1.351   2.452   1.433
  660SOL    HW1 2020   1.379   2.409   1.518
  660SOL    HW2 2021   1.376   2.548   1.434
  661SOL     OW 2022   0.803   3.264   0.924
  661SOL    HW1 2023   0.893   3.278   0.882
  661SOL    HW2 2024   0.732   3.266   0.853
  662SOL     OW 2025   0.922   2.365   0.899
  662SOL    HW1 2026   0.897   2.356   0.803
  662SOL    HW2 2027   0.970   2.283   0.930
  663SOL     OW 2028   0.539   1.926   0.512
  663SOL    HW1 2029   0.458   1.927   0.570
  663SOL    HW2 2030   0.542   2.009   0.457
  664SOL     OW 2031   1.434   3.050   0.041
  664SOL    HW1 2032   1.466   2.974   0.098
  664SOL    HW2 2033   1.342   3.077   0.071
  665SOL     OW 2034   0.935   2.098   0.480
  665SOL    HW1 2035   0.887   2.139   0.402
  665SOL    HW2 2036   1.034   2.096   0.461
  666SOL     OW 2037   1.076   2.545   1.464
  666SOL    HW1 2038   0.996   2.484   1.467
  666SOL    HW2 2039   1.157   2.492   1.440
  667SOL     OW 2040   1.227   3.432   0.793
  667SOL    HW1 2041   1.248   3.506   0.728
  667SOL    HW2 2042   1.295   3.432   0.866
  668SOL     OW 2043   0.459   3.014   0.741
  668SOL    HW1 2044   0.388   2.987   0.806
  668SOL    HW2 2045   0.433   2.986   0.648
  669SOL     OW 2046   1.271   3.659   0.591
  669SOL    HW1 2047   1.315   3.723   0.527
  669SOL    HW2 2048   1.221   3.711   0.661
  670SOL     OW 2049   1.032   2.411   0.016
  670SOL    HW1 2050   0.991   2.493  -0.023
  670SOL    HW2 2051   1.096   2.437   0.089
  671SOL     OW 2052   0.078   2.418   1.386
  671SOL    HW1 2053   0.170   2.417   1.345
  671SOL    HW2 2054   0.072   2.492   1.453
  672SOL     OW 2055   0.561   2.084   1.147
  672SOL    HW1 2056   0.599   2.000   1.184
  672SOL    HW2 2057   0.473   2.103   1.191
  673SOL     OW 2058   0.866   2.316   0.642
  673SOL    HW1 2059   0.834   2.388   0.580
  673SOL    HW2 2060   0.890   2.235   0.589
  674SOL     OW 2061   1.017   1.901   0.753
  674SOL    HW1 2062   0.945   1.906   0.684
  674SOL    HW2 2063   0.993   1.832   0.822
  675SOL     OW 2064   1.429   3.035   0.867
  675SOL    HW1 2065   1.374   2.951   0.860
  675SOL    HW2 2066   1.455   3.064   0.775
  676SOL     OW 2067   1.466   2.452   0.992
  676SOL    HW1 2068   1.436   2.357   0.999
  676SOL    HW2 2069   1.539   2.468   1.058
  677SOL     OW 2070   1.857   2.695   0.377
  677SOL    HW1 2071   1.899   2.631   0.441
  677SOL    HW2 2072   1.819   2.644   0.299
  678SOL     OW 2073   0.488   3.247   0.174
  678SOL    HW1 2074   0.401   3.232   0.221
  678SOL    HW2 2075   0.471   3.273   0.079
  679SOL     OW 2076   1.664   3.142   0.657
  679SOL    HW1 2077   1.763   3.150   0.671
  679SOL    HW2 2078   1.619   3.226   0.688
  680SOL     OW 2079   1.390   2.437   0.078
  680SOL    HW1 2080   1.336   2.416   0.159
  680SOL    HW2 2081   1.481   2.396   0.087
  681SOL     OW 2082   0.527   2.118   0.328
  681SOL    HW1 2083   0.554   2.059   0.253
  681SOL    HW2 2084   0.527   2.213   0.297
  682SOL     OW 2085   1.754   3.085   1.588
  682SOL    HW1 2086   1.845   3.046   1.575
  682SOL    HW2 2087   1.762   3.181   1.612
  683SOL     OW 2088   1.064   3.209   1.340
  683SOL    HW1 2089   0.984   3.186   1.395
  683SOL    HW2 2090   1.147   3.183   1.389
  684SOL     OW 2091   1.592   3.491   1.625
  684SOL    HW1 2092   1.619   3.525   1.535
  684SOL    HW2 2093   1.671   3.453   1.671
  685SOL     OW 2094   1.111   3.057   1.100
  685SOL    HW1 2095   1.071   3.101   1.181
  685SOL    HW2 2096   1.070   3.094   1.017
  686SOL     OW 2097   1.638   2.961   1.079
  686SOL    HW1 2098   1.643   3.042   1.138
  686SOL    HW2 2099   1.552   2.963   1.028
  687SOL     OW 2100   0.915   1.951   1.402
  687SOL    HW1 2101   0.940   1.931   1.307
  687SOL    HW2 2102   0.987   2.007   1.444
  688SOL     OW 2103   0.980   2.978   1.719
  688SOL    HW1 2104   0.881   2.984   1.729
  688SOL    HW2 2105   1.003   2.898   1.663
  689SOL     OW 2106   0.705   2.912   0.368
  689SOL    HW1 2107   0.691   2.919   0.467
  689SOL    HW2 2108   0.789   2.861   0.350
  690SOL     OW 2109   0.410   2.675   1.251
  690SOL    HW1 2110   0.496   2.687   1.301
  690SOL    HW2 2111   0.368   2.588   1.278
  691SOL     OW 2112   1.274   2.248   1.262
  691SOL    HW1 2113   1.295   2.322   1.326
  691SOL    HW2 2114   1.185   2.265   1.219
  692SOL     OW 2115   0.064   3.426   1.331
  692SOL    HW1 2116   0.018   3.508   1.297
  692SOL    HW2 2117   0.162   3.445   1.340
  693SOL     OW 2118   0.367   2.962   0.501
  693SOL    HW1 2119   0.360   3.045   0.445
  693SOL    HW2 2120   0.371   2.882   0.441
  694SOL     OW 2121   0.566   2.399   0.865
  694SOL    HW1 2122   0.578   2.465   0.791
  694SOL    HW2 2123   0.612   2.433   0.948
  695SOL     OW 2124   1.252   3.210   0.388
  695SOL    HW1 2125   1.302   3.287   0.428
  695SOL    HW2 2126   1.157   3.212   0.420
  696SOL     OW 2127   1.272   3.307   1.142
  696SOL    HW1 2128   1.319   3.320   1.229
  696SOL    HW2 2129   1.206   3.233   1.151
  697SOL     OW 2130   1.582   2.501   0.472
  697SOL    HW1 2131   1.551   2.562   0.545
  697SOL    HW2 2132   1.632   2.553   0.403
  698SOL     OW 2133   0.354   3.372   1.329
  698SOL    HW1 2134   0.333   3.328   1.242
  698SOL    HW2 2135   0.451   3.398   1.332
  699SOL     OW 2136   0.402   2.613   1.598
  699SOL    HW1 2137   0.470   2.668   1.551
  699SOL    HW2 2138   0.442   2.525   1.625
  700SOL     OW 2139   1.587   2.641   1.670
  700SOL    HW1 2140   1.495   2.679   1.665
  700SOL    HW2 2141   1.647   2.688   1.605
  701SOL     OW 2142   1.013   1.967   1.770
  701SOL    HW1 2143   1.019   2.052   1.718
  701SOL    HW2 2144   1.045   1.891   1.713
  702SOL     OW 2145   0.504   1.912   1.740
  702SOL    HW1 2146   0.462   1.855   1.670
  702SOL    HW2 2147   0.438   1.981   1.772
  703SOL     OW 2148   0.573   2.732   1.029
  703SOL    HW1 2149   0.617   2.821   1.020
  703SOL    HW2 2150   0.510   2.732   1.106
  704SOL     OW 2151   1.360   2.724   1.045
  704SOL    HW1 2152   1.285   2.724   0.979
  704SOL    HW2 2153   1.397   2.632   1.054
  705SOL     OW 2154   1.209   2.387   0.275
  705SOL    HW1 2155   1.222   2.303   0.329
  705SOL    HW2 2156   1.180   2.461   0.335
  706SOL     OW 2157   0.307   2.075   1.231
  706SOL    HW1 2158   0.284   2.112   1.321
  706SOL    HW2 2159   0.277   1.980   1.225
  707SOL     OW 2160   0.037   3.172   1.282
  707SOL    HW1 2161   0.090   3.123   1.350
  707SOL    HW2 2162   0.059   3.270   1.287
  708SOL     OW 2163   0.732   2.496   1.064
  708SOL    HW1 2164   0.791   2.470   0.988
  708SOL    HW2 2165   0.704   2.592   1.053
  709SOL     OW 2166   1.728   2.797   1.854
  709SOL    HW1 2167   1.682   2.790   1.765
  709SOL    HW2 2168   1.666   2.841   1.920
  710SOL     OW 2169   0.307   1.925   0.618
  710SOL    HW1 2170   0.296   2.019   0.651
  710SOL    HW2 2171   0.302   1.862   0.695
  711SOL     OW 2172   1.622   2.229   0.374
  711SOL    HW1 2173   1.624   2.153   0.438
  711SOL    HW2 2174   1.574   2.306   0.414
  712SOL     OW 2175   1.023   2.628   0.966
  712SOL    HW1 2176   1.038   2.649   1.062
  712SOL    HW2 2177   0.993   2.533   0.957
  713SOL     OW 2178   0.980   3.435   1.700
  713SOL    HW1 2179   0.960   3.479   1.612
  713SOL    HW2 2180   1.019   3.344   1.684
  714SOL     OW 2181   1.859   3.380   1.605
  714SOL    HW1 2182   1.873   3.407   1.510
  714SOL    HW2 2183   1.942   3.402   1.658
  715SOL     OW 2184   0.350   2.760   1.804
  715SOL    HW1 2185   0.426   2.804   1.852
  715SOL    HW2 2186   0.385   2.713   1.722
  716SOL     OW 2187   1.540   2.136   0.125
  716SOL    HW1 2188   1.479   2.061   0.148
  716SOL    HW2 2189   1.562   2.188   0.208
  717SOL     OW 2190   1.303   2.700   0.042
  717SOL    HW1 2191   1.337   2.607   0.057
  717SOL    HW2 2192   1.321   2.727  -0.053
  718SOL     OW 2193   1.068   3.195   0.849
  718SOL    HW1 2194   1.075   3.111   0.794
  718SOL    HW2 2195   1.130   3.264   0.813
  719SOL     OW 2196   0.319   2.672   0.949
  719SOL    HW1 2197   0.412   2.708   0.954
  719SOL    HW2 2198   0.313   2.587   1.001
  720SOL     OW 2199   0.339   2.371   1.006
  720SOL    HW1 2200   0.287   2.288   0.989
  720SOL    HW2 2201   0.416   2.376   0.942
  721SOL     OW 2202   1.138   2.242   1.678
  721SOL    HW1 2203   1.093   2.305   1.742
  721SOL    HW2 2204   1.231   2.273   1.661
  722SOL     OW 2205   1.160   2.069   1.477
  722SOL    HW1 2206   1.160   2.133   1.554
  722SOL    HW2 2207   1.188   2.117   1.394
  723SOL     OW 2208   0.008   3.188   0.200
  723SOL    HW1 2209  -0.085   3.209   0.169
  723SOL    HW2 2210   0.018   3.089   0.213
  724SOL     OW 2211   0.088   3.663   0.927
  724SOL    HW1 2212   0.046   3.577   0.900
  724SOL    HW2 2213   0.182   3.666   0.893
  725SOL     OW 2214   0.504   3.430   0.910
  725SOL    HW1 2215   0.570   3.504   0.919
  725SOL    HW2 2216   0.548   3.351   0.868
  726SOL     OW 2217   1.002   2.658   1.238
  726SOL    HW1 2218   1.043   2.626   1.324
  726SOL    HW2 2219   0.906   2.631   1.235
  727SOL     OW 2220   0.040   2.406   1.114
  727SOL    HW1 2221   0.125   2.373   1.073
  727SOL    HW2 2222   0.053   2.421   1.212
  728SOL     OW 2223   0.189   2.382   1.722
  728SOL    HW1 2224   0.248   2.342   1.652
  728SOL    HW2 2225   0.131   2.453   1.681
  729SOL     OW 2226   1.369   2.812   1.660
  729SOL    HW1 2227   1.408   2.901   1.680
  729SOL    HW2 2228   1.379   2.792   1.563
  730SOL     OW 2229   0.815   2.434   0.325
  730SOL    HW1 2230   0.822   2.345   0.279
  730SOL    HW2 2231   0.721   2.468   0.317
  731SOL     OW 2232   1.657   2.466   1.206
  731SOL    HW1 2233   1.619   2.397   1.268
  731SOL    HW2 2234   1.739   2.430   1.162
  732SOL     OW 2235   0.252   3.426   1.744
  732SOL    HW1 2236   0.222   3.483   1.820
  732SOL    HW2 2237   0.245   3.329   1.770
  733SOL     OW 2238   0.671   2.326   1.269
  733SOL    HW1 2239   0.637   2.237   1.239
  733SOL    HW2 2240   0.697   2.380   1.189
  734SOL     OW 2241   0.930   3.540   1.465
  734SOL    HW1 2242   0.906   3.522   1.370
  734SOL    HW2 2243   0.960   3.634   1.475
  735SOL     OW 2244   0.473   2.362   0.191
  735SOL    HW1 2245   0.534   2.442   0.195
  735SOL    HW2 2246   0.378   2.393   0.198
  736SOL     OW 2247   0.159   2.999   1.466
  736SOL    HW1 2248   0.181   2.938   1.542
  736SOL    HW2 2249   0.169   2.950   1.380
  737SOL     OW 2250   1.347   2.921   1.234
  737SOL    HW1 2251   1.371   2.858   1.160
  737SOL    HW2 2252   1.257   2.961   1.216
  738SOL     OW 2253   1.302   2.717   0.309
  738SOL    HW1 2254   1.216   2.686   0.351
  738SOL    HW2 2255   1.298   2.703   0.210
  739SOL     OW 2256   1.759   3.609   1.154
  739SOL    HW1 2257   1.820   3.639   1.081
  739SOL    HW2 2258   1.721   3.520   1.132
  740SOL     OW 2259   1.252   3.593   1.128
  740SOL    HW1 2260   1.336   3.598   1.074
  740SOL    HW2 2261   1.229   3.497   1.146
  741SOL     OW 2262   0.083   3.120   1.022
  741SOL    HW1 2263   0.078   3.119   1.122
  741SOL    HW2 2264   0.000   3.079   0.984
  742SOL     OW 2265   0.688   3.524   1.716
  742SOL    HW1 2266   0.632   3.605   1.725
  742SOL    HW2 2267   0.740   3.528   1.630
  743SOL     OW 2268   0.903   1.948   0.133
  743SOL    HW1 2269   0.954   1.949   0.047
  743SOL    HW2 2270   0.959   1.906   0.204
  744SOL     OW 2271   1.726   1.997   0.523
  744SOL    HW1 2272   1.799   1.980   0.456
  744SOL    HW2 2273   1.695   1.910   0.561
  745SOL     OW 2274   1.388   3.435   0.477
  745SOL    HW1 2275   1.455   3.447   0.403
  745SOL    HW2 2276   1.348   3.524   0.500
  746SOL     OW 2277   0.130   3.656   1.851
  746SOL    HW1 2278   0.089   3.582   1.904
  746SOL    HW2 2279   0.194   3.707   1.909
  747SOL     OW 2280   1.280   2.789   0.672
  747SOL    HW1 2281   1.340   2.708   0.674
  747SOL    HW2 2282   1.320   2.858   0.612
  748SOL     OW 2283   0.830   3.135   1.422
  748SOL    HW1 2284   0.825   3.168   1.517
  748SOL    HW2 2285   0.744   3.154   1.376
  749SOL     OW 2286   0.672   3.478   0.154
  749SOL    HW1 2287   0.681   3.488   0.055
  749SOL    HW2 2288   0.632   3.389   0.175
  750SOL     OW 2289   1.650   3.582   1.394
  750SOL    HW1 2290   1.703   3.592   1.310
  750SOL    HW2 2291   1.623   3.672   1.428
  751SOL     OW 2292   1.841   2.037   0.963
  751SOL    HW1 2293   1.880   1.952   0.927
  751SOL    HW2 2294   1.743   2.039   0.944
  752SOL     OW 2295   0.263   2.188   0.720
  752SOL    HW1 2296   0.184   2.239   0.686
  752SOL    HW2 2297   0.254   2.173   0.818
  753SOL     OW 2298   1.194   3.474   0.031
  753SOL    HW1 2299   1.200   3.381   0.068
  753SOL    HW2 2300   1.135   3.474  -0.049
  754SOL     OW 2301   0.822   2.864   1.372
  754SOL    HW1 2302   0.862   2.863   1.280
  754SOL    HW2 2303   0.832   2.956   1.412
  755SOL     OW 2304   0.916   2.772   0.291
  755SOL    HW1 2305   0.979   2.810   0.223
  755SOL    HW2 2306   0.956   2.689   0.330
  756SOL     OW 2307   1.504   3.469   0.044
  756SOL    HW1 2308   1.412   3.506   0.051
  756SOL    HW2 2309   1.542   3.489  -0.046
  757SOL     OW 2310   0.372   3.150   1.490
  757SOL    HW1 2311   0.359   3.243   1.456
  757SOL    HW2 2312   0.288   3.098   1.477
  758SOL     OW 2313   1.614   3.154   1.289
  758SOL    HW1 2314   1.674   3.157   1.369
  758SOL    HW2 2315   1.539   3.218   1.302
  759SOL     OW 2316   1.039   2.960   0.696
  759SOL    HW1 2317   0.969   2.913   0.750
  759SOL    HW2 2318   1.098   2.892   0.653
  760SOL     OW 2319   1.014   2.098   0.971
  760SOL    HW1 2320   1.006   2.062   0.878
  760SOL    HW2 2321   1.012   2.022   1.036
  761SOL     OW 2322   0.590   3.349   0.491
  761SOL    HW1 2323   0.632   3.291   0.421
  761SOL    HW2 2324   0.546   3.428   0.447
  762SOL     OW 2325   1.709   2.247   1.381
  762SOL    HW1 2326   1.782   2.316   1.385
  762SOL    HW2 2327   1.737   2.172   1.322
  763SOL     OW 2328   0.255   3.210   0.290
  763SOL    HW1 2329   0.159   3.211   0.263
  763SOL    HW2 2330   0.267   3.263   0.374
  764SOL     OW 2331   0.105   2.875   1.726
  764SOL    HW1 2332   0.028   2.842   1.780
  764SOL    HW2 2333   0.190   2.845   1.768
  765SOL     OW 2334   0.672   2.065   1.489
  765SOL    HW1 2335   0.762   2.049   1.449
  765SOL    HW2 2336   0.680   2.070   1.588
  766SOL     OW 2337   0.075   2.207   0.033
  766SOL    HW1 2338  -0.017   2.179   0.004
  766SOL    HW2 2339   0.106   2.284  -0.023
  767SOL     OW 2340   1.440   2.718   1.398
  767SOL    HW1 2341   1.383   2.770   1.335
  767SOL    HW2 2342   1.536   2.730   1.374
  768SOL     OW 2343   0.072   2.028   0.318
  768SOL    HW1 2344   0.055   2.111   0.264
  768SOL    HW2 2345   0.162   1.991   0.296
  769SOL     OW 2346   1.183   3.197   0.119
  769SOL    HW1 2347   1.084   3.186   0.121
  769SOL    HW2 2348   1.217   3.212   0.212
  770SOL     OW 2349   0.613   2.704   1.431
  770SOL    HW1 2350   0.669   2.785   1.414
  770SOL    HW2 2351   0.672   2.624   1.434
  771SOL     OW 2352   1.493   3.629   0.959
  771SOL    HW1 2353   1.526   3.693   0.890
  771SOL    HW2 2354   1.559   3.623   1.034
  772SOL     OW 2355   0.716   2.427   1.708
  772SOL    HW1 2356   0.735   2.492   1.782
  772SOL    HW2 2357   0.776   2.347   1.717
  773SOL     OW 2358   1.450   3.082   1.633
  773SOL    HW1 2359   1.441   3.072   1.732
  773SOL    HW2 2360   1.546   3.075   1.607
  774SOL     OW 2361   0.390   3.603   1.560
  774SOL    HW1 2362   0.299   3.644   1.558
  774SOL    HW2 2363   0.383   3.509   1.592
  775SOL     OW 2364   1.674   2.745   1.254
  775SOL    HW1 2365   1.647   2.656   1.217
  775SOL    HW2 2366   1.675   2.813   1.181
  776SOL     OW 2367   1.225   2.187   0.449
  776SOL    HW1 2368   1.290   2.113   0.438
  776SOL    HW2 2369   1.245   2.237   0.533
  777SOL     OW 2370   0.594   2.607   0.652
  777SOL    HW1 2371   0.644   2.692   0.633
  777SOL    HW2 2372   0.506   2.609   0.604
  778SOL     OW 2373   1.777   2.204   1.642
  778SOL    HW1 2374   1.760   2.235   1.548
  778SOL    HW2 2375   1.693   2.167   1.680
  779SOL     OW 2376   1.730   2.796   1.517
  779SOL    HW1 2377   1.768   2.887   1.532
  779SOL    HW2 2378   1.722   2.779   1.418
  780SOL     OW 2379   0.859   3.236   0.016
  780SOL    HW1 2380   0.813   3.251   0.104
  780SOL    HW2 2381   0.903   3.321  -0.014
  781SOL     OW 2382   0.661   3.652   0.953
  781SOL    HW1 2383   0.615   3.740   0.940
  781SOL    HW2 2384   0.760   3.664   0.946
  782SOL     OW 2385   0.859   2.818   0.861
  782SOL    HW1 2386   0.913   2.749   0.909
  782SOL    HW2 2387   0.827   2.887   0.927
  783SOL     OW 2388   1.083   2.846   0.087
  783SOL    HW1 2389   1.060   2.899   0.005
  783SOL    HW2 2390   1.164   2.790   0.068
  784SOL     OW 2391   1.861   3.431   0.851
  784SOL    HW1 2392   1.790   3.419   0.781
  784SOL    HW2 2393   1.862   3.352   0.911
  785SOL     OW 2394   0.221   3.176   1.844
  785SOL    HW1 2395   0.156   3.103   1.823
  785SOL    HW2 2396   0.225   3.190   1.942
  786SOL     OW 2397   0.079   3.102   0.653
  786SOL    HW1 2398   0.078   3.055   0.741
  786SOL    HW2 2399   0.161   3.074   0.602
  787SOL     OW 2400   0.672   3.253   1.624
  787SOL    HW1 2401   0.594   3.203   1.662
  787SOL    HW2 2402   0.669   3.348   1.655
  788SOL     OW 2403   1.824   2.054   1.227
  788SOL    HW1 2404   1.820   1.964   1.271
  788SOL    HW2 2405   1.827   2.043   1.128
  789SOL     OW 2406   0.428   2.286   0.520
  789SOL    HW1 2407   0.458   2.214   0.458
  789SOL    HW2 2408   0.389   2.246   0.603
  790SOL     OW 2409   1.705   3.349   1.104
  790SOL    HW1 2410   1.612   3.324   1.077
  790SOL    HW2 2411   1.731   3.299   1.186
  791SOL     OW 2412   0.317   2.409   1.280
  791SOL    HW1 2413   0.355   2.350   1.352
  791SOL    HW2 2414   0.357   2.383   1.192
  792SOL     OW 2415   0.812   3.448   0.687
  792SOL    HW1 2416   0.844   3.458   0.593
  792SOL    HW2 2417   0.733   3.386   0.689
  793SOL     OW 2418   1.424   2.076   1.112
  793SOL    HW1 2419   1.476   2.011   1.167
  793SOL    HW2 2420   1.375   2.139   1.173
  794SOL     OW 2421   1.001   1.896   1.154
  794SOL    HW1 2422   0.938   1.824   1.123
  794SOL    HW2 2423   1.094   1.860   1.154
  795SOL     OW 2424   0.770   3.192   0.301
  795SOL    HW1 2425   0.724   3.105   0.318
  795SOL    HW2 2426   0.861   3.189   0.342
  796SOL     OW 2427   0.618   3.429   1.284
  796SOL    HW1 2428   0.613   3.511   1.341
  796SOL    HW2 2429   0.707   3.426   1.239
  797SOL     OW 2430   1.352   1.914   0.168
  797SOL    HW1 2431   1.387   1.873   0.084
  797SOL    HW2 2432   1.262   1.876   0.188
  798SOL     OW 2433   1.300   2.315   0.691
  798SOL    HW1 2434   1.241   2.395   0.695
  798SOL    HW2 2435   1.315   2.280   0.784
  799SOL     OW 2436   1.593   2.083   0.882
  799SOL    HW1 2437   1.509   2.082   0.936
  799SOL    HW2 2438   1.595   2.166   0.826
  800SOL     OW 2439   0.039   2.939   0.300
  800SOL    HW1 2440   0.138   2.928   0.291
  800SOL    HW2 2441  -0.001   2.853   0.332
  801SOL     OW 2442   0.875   3.508   0.337
  801SOL    HW1 2443   0.798   3.473   0.283
  801SOL    HW2 2444   0.843   3.579   0.399
  802SOL     OW 2445   0.230   2.490   1.975
  802SOL    HW1 2446   0.137   2.488   2.012
  802SOL    HW2 2447   0.231   2.451   1.883
  803SOL     OW 2448   0.225   2.137   2.858
  803SOL    HW1 2449   0.260   2.120   2.950
  803SOL    HW2 2450   0.137   2.092   2.846
  804SOL     OW 2451   0.019   2.230   2.509
  804SOL    HW1 2452  -0.063   2.273   2.548
  804SOL    HW2 2453  -0.009   2.157   2.446
  805SOL     OW 2454   0.569   3.137   3.027
  805SOL    HW1 2455   0.476   3.130   2.990
  805SOL    HW2 2456   0.580   3.226   3.071
  806SOL     OW 2457   1.555   3.373   2.565
  806SOL    HW1 2458   1.498   3.357   2.646
  806SOL    HW2 2459   1.496   3.383   2.485
  807SOL     OW 2460   1.135   2.565   2.579
  807SOL    HW1 2461   1.192   2.643   2.554
  807SOL    HW2 2462   1.075   2.591   2.655
  808SOL     OW 2463   1.755   2.469   2.093
  808SOL    HW1 2464   1.743   2.456   1.994
  808SOL    HW2 2465   1.725   2.388   2.142
  809SOL     OW 2466   0.768   3.006   2.885
  809SOL    HW1 2467   0.690   3.023   2.945
  809SOL    HW2 2468   0.802   3.093   2.849
  810SOL     OW 2469   0.850   2.660   3.685
  810SOL    HW1 2470   0.846   2.736   3.750
  810SOL    HW2 2471   0.872   2.696   3.594
  811SOL     OW 2472   0.685   2.874   2.527
  811SOL    HW1 2473   0.754   2.858   2.597
  811SOL    HW2 2474   0.612   2.931   2.565
  812SOL     OW 2475   0.686   3.023   3.665
  812SOL    HW1 2476   0.746   3.102   3.679
  812SOL    HW2 2477   0.600   3.054   3.624
  813SOL     OW 2478   0.335   3.297   2.923
  813SOL    HW1 2479   0.257   3.266   2.870
  813SOL    HW2 2480   0.393   3.355   2.866
  814SOL     OW 2481   1.460   3.367   3.201
  814SOL    HW1 2482   1.484   3.461   3.227
  814SOL    HW2 2483   1.444   3.313   3.283
  815SOL     OW 2484   0.438   2.254   3.361
  815SOL    HW1 2485   0.520   2.198   3.370
  815SOL    HW2 2486   0.357   2.196   3.365
  816SOL     OW 2487   1.603   2.309   2.599
  816SOL    HW1 2488   1.529   2.355   2.549
  816SOL    HW2 2489   1.654   2.377   2.652
  817SOL     OW 2490   0.231   3.575   2.345
  817SOL    HW1 2491   0.265   3.652   2.399
  817SOL    HW2 2492   0.275   3.575   2.255
  818SOL     OW 2493   1.127   3.203   3.552
  818SOL    HW1 2494   1.174   3.203   3.640
  818SOL    HW2 2495   1.079   3.116   3.541
  819SOL     OW 2496   0.230   3.296   2.400
  819SOL    HW1 2497   0.204   3.392   2.400
  819SOL    HW2 2498   0.159   3.242   2.445
  820SOL     OW 2499   0.240   2.953   2.748
  820SOL    HW1 2500   0.254   2.869   2.800
  820SOL    HW2 2501   0.185   3.017   2.803
  821SOL     OW 2502   0.620   3.648   3.301
  821SOL    HW1 2503   0.528   3.631   3.336
  821SOL    HW2 2504   0.648   3.740   3.327
  822SOL     OW 2505   0.606   2.826   1.985
  822SOL    HW1 2506   0.613   2.910   1.931
  822SOL    HW2 2507   0.652   2.839   2.073
  823SOL     OW 2508   1.594   1.976   3.342
  823SOL    HW1 2509   1.576   2.043   3.270
  823SOL    HW2 2510   1.591   2.022   3.431
  824SOL     OW 2511   0.122   2.505   2.425
  824SOL    HW1 2512   0.077   2.417   2.442
  824SOL    HW2 2513   0.121   2.559   2.509
  825SOL     OW 2514   1.842   3.629   2.221
  825SOL    HW1 2515   1.896   3.600   2.301
  825SOL    HW2 2516   1.872   3.719   2.192
  826SOL     OW 2517   0.027   3.458   1.979
  826SOL    HW1 2518   0.008   3.362   2.000
  826SOL    HW2 2519  -0.006   3.516   2.054
  827SOL     OW 2520   1.689   2.784   2.474
  827SOL    HW1 2521   1.784   2.755   2.482
  827SOL    HW2 2522   1.681   2.849   2.399
  828SOL     OW 2523   1.641   2.970   2.294
  828SOL    HW1 2524   1.727   2.972   2.242
  828SOL    HW2 2525   1.655   3.017   2.382
  829SOL     OW 2526   0.113   2.599   3.459
  829SOL    HW1 2527   0.201   2.586   3.504
  829SOL    HW2 2528   0.100   2.696   3.437
  830SOL     OW 2529   0.613   3.227   2.588
  830SOL    HW1 2530   0.564   3.140   2.597
  830SOL    HW2 2531   0.590   3.270   2.501
  831SOL     OW 2532   1.293   3.090   3.285
  831SOL    HW1 2533   1.330   3.017   3.227
  831SOL    HW2 2534   1.345   3.095   3.370
  832SOL     OW 2535   0.809   1.866   2.364
  832SOL    HW1 2536   0.849   1.957   2.355
  832SOL    HW2 2537   0.709   1.874   2.370
  833SOL     OW 2538   0.197   2.838   3.126
  833SOL    HW1 2539   0.286   2.793   3.112
  833SOL    HW2 2540   0.124   2.773   3.107
  834SOL     OW 2541   1.525   2.861   2.052
  834SOL    HW1 2542   1.462   2.785   2.065
  834SOL    HW2 2543   1.573   2.879   2.138
  835SOL     OW 2544   1.187   3.654   3.478
  835SOL    HW1 2545   1.211   3.714   3.402
  835SOL    HW2 2546   1.194   3.559   3.448
  836SOL     OW 2547   0.317   2.113   3.663
  836SOL    HW1 2548   0.388   2.184   3.669
  836SOL    HW2 2549   0.229   2.152   3.691
  837SOL     OW 2550   1.466   3.279   2.815
  837SOL    HW1 2551   1.407   3.285   2.895
  837SOL    HW2 2552   1.451   3.191   2.769
  838SOL     OW 2553   1.667   3.576   2.434
  838SOL    HW1 2554   1.626   3.553   2.346
  838SOL    HW2 2555   1.649   3.502   2.499
  839SOL     OW 2556   0.598   2.591   2.132
  839SOL    HW1 2557   0.622   2.660   2.064
  839SOL    HW2 2558   0.520   2.624   2.186
  840SOL     OW 2559   1.281   2.207   2.806
  840SOL    HW1 2560   1.195   2.157   2.793
  840SOL    HW2 2561   1.343   2.153   2.862
  841SOL     OW 2562   1.576   3.524   2.169
  841SOL    HW1 2563   1.665   3.570   2.172
  841SOL    HW2 2564   1.555   3.500   2.074
  842SOL     OW 2565   0.807   2.467   3.327
  842SOL    HW1 2566   0.760   2.464   3.416
  842SOL    HW2 2567   0.756   2.412   3.261
  843SOL     OW 2568   1.394   2.331   3.536
  843SOL    HW1 2569   1.374   2.374   3.624
  843SOL    HW2 2570   1.472   2.269   3.545
  844SOL     OW 2571   0.973   2.752   3.434
  844SOL    HW1 2572   1.019   2.668   3.405
  844SOL    HW2 2573   0.917   2.786   3.359
  845SOL     OW 2574   0.991   2.272   3.104
  845SOL    HW1 2575   0.914   2.306   3.158
  845SOL    HW2 2576   0.957   2.221   3.025
  846SOL     OW 2577   1.041   2.563   2.291
  846SOL    HW1 2578   1.067   2.559   2.387
  846SOL    HW2 2579   0.956   2.512   2.277
  847SOL     OW 2580   0.076   2.673   2.651
  847SOL    HW1 2581   0.175   2.661   2.660
  847SOL    HW2 2582   0.052   2.768   2.672
  848SOL     OW 2583   0.130   3.683   3.433
  848SOL    HW1 2584   0.120   3.668   3.532
  848SOL    HW2 2585   0.044   3.719   3.397
  849SOL     OW 2586   0.865   2.210   2.057
  849SOL    HW1 2587   0.924   2.273   2.008
  849SOL    HW2 2588   0.884   2.116   2.028
  850SOL     OW 2589   1.719   2.447   3.693
  850SOL    HW1 2590   1.693   2.536   3.657
  850SOL    HW2 2591   1.717   2.379   3.620
  851SOL     OW 2592   1.362   3.006   2.407
  851SOL    HW1 2593   1.445   2.977   2.359
  851SOL    HW2 2594   1.313   3.073   2.351
  852SOL     OW 2595   0.550   2.058   2.747
  852SOL    HW1 2596   0.545   2.053   2.847
  852SOL    HW2 2597   0.552   2.154   2.718
  853SOL     OW 2598   1.008   3.318   2.339
  853SOL    HW1 2599   0.962   3.390   2.287
  853SOL    HW2 2600   1.004   3.338   2.437
  854SOL     OW 2601   0.351   3.663   2.715
  854SOL    HW1 2602   0.401   3.577   2.721
  854SOL    HW2 2603   0.416   3.740   2.712
  855SOL     OW 2604   1.795   2.928   2.735
  855SOL    HW1 2605   1.733   2.913   2.659
  855SOL    HW2 2606   1.743   2.939   2.820
  856SOL     OW 2607   1.227   3.412   3.368
  856SOL    HW1 2608   1.233   3.335   3.432
  856SOL    HW2 2609   1.175   3.386   3.288
  857SOL     OW 2610   0.321   2.805   2.104
  857SOL    HW1 2611   0.403   2.844   2.062
  857SOL    HW2 2612   0.294   2.723   2.055
  858SOL     OW 2613   1.458   2.597   2.590
  858SOL    HW1 2614   1.453   2.532   2.665
  858SOL    HW2 2615   1.538   2.656   2.603
  859SOL     OW 2616   0.461   3.128   3.589
  859SOL    HW1 2617   0.411   3.129   3.503
  859SOL    HW2 2618   0.398   3.110   3.665
  860SOL     OW 2619   1.111   3.638   2.099
  860SOL    HW1 2620   1.051   3.576   2.149
  860SOL    HW2 2621   1.142   3.594   2.014
  861SOL     OW 2622   0.202   2.147   3.360
  861SOL    HW1 2623   0.122   2.207   3.347
  861SOL    HW2 2624   0.192   2.098   3.446
  862SOL     OW 2625   1.632   3.239   1.943
  862SOL    HW1 2626   1.600   3.333   1.933
  862SOL    HW2 2627   1.556   3.176   1.931
  863SOL     OW 2628   0.464   3.605   2.185
  863SOL    HW1 2629   0.497   3.644   2.271
  863SOL    HW2 2630   0.540   3.598   2.120
  864SOL     OW 2631   1.400   1.969   2.288
  864SOL    HW1 2632   1.376   1.932   2.198
  864SOL    HW2 2633   1.499   1.985   2.292
  865SOL     OW 2634   0.249   3.647   3.103
  865SOL    HW1 2635   0.306   3.582   3.153
  865SOL    HW2 2636   0.233   3.614   3.010
  866SOL     OW 2637   0.940   3.560   2.766
  866SOL    HW1 2638   1.020   3.503   2.787
  866SOL    HW2 2639   0.891   3.520   2.689
  867SOL     OW 2640   0.382   2.562   2.342
  867SOL    HW1 2641   0.427   2.472   2.339
  867SOL    HW2 2642   0.288   2.551   2.375
  868SOL     OW 2643   1.547   2.084   3.591
  868SOL    HW1 2644   1.542   2.121   3.683
  868SOL    HW2 2645   1.475   2.015   3.579
  869SOL     OW 2646   0.614   1.984   1.979
  869SOL    HW1 2647   0.712   1.962   1.986
  869SOL    HW2 2648   0.583   1.967   1.886
  870SOL     OW 2649   0.781   2.126   3.611
  870SOL    HW1 2650   0.848   2.065   3.654
  870SOL    HW2 2651   0.708   2.145   3.676
  871SOL     OW 2652   0.888   3.376   3.057
  871SOL    HW1 2653   0.865   3.351   2.963
  871SOL    HW2 2654   0.949   3.307   3.096
  872SOL     OW 2655   1.351   2.452   3.295
  872SOL    HW1 2656   1.379   2.409   3.380
  872SOL    HW2 2657   1.376   2.548   3.296
  873SOL     OW 2658   0.803   3.264   2.786
  873SOL    HW1 2659   0.893   3.278   2.744
  873SOL    HW2 2660   0.732   3.266   2.715
  874SOL     OW 2661   0.922   2.365   2.761
  874SOL    HW1 2662   0.897   2.356   2.665
  874SOL    HW2 2663   0.970   2.283   2.792
  875SOL     OW 2664   0.539   1.926   2.374
  875SOL    HW1 2665   0.458   1.927   2.432
  875SOL    HW2 2666   0.542   2.009   2.319
  876SOL     OW 2667   1.434   3.050   1.903
  876SOL    HW1 2668   1.466   2.974   1.960
  876SOL    HW2 2669   1.342   3.077   1.933
  877SOL     OW 2670   0.297   1.897   2.033
  877SOL    HW1 2671   0.346   1.981   2.012
  877SOL    HW2 2672   0.359   1.832   2.078
  878SOL     OW 2673   0.935   2.098   2.342
  878SOL    HW1 2674   0.887   2.139   2.264
  878SOL    HW2 2675   1.034   2.096   2.323
  879SOL     OW 2676   1.076   2.545   3.326
  879SOL    HW1 2677   0.996   2.484   3.329
  879SOL    HW2 2678   1.157   2.492   3.302
  880SOL     OW 2679   1.227   3.432   2.655
  880SOL    HW1 2680   1.248   3.506   2.590
  880SOL    HW2 2681   1.295   3.432   2.728
  881SOL     OW 2682   0.459   3.014   2.603
  881SOL    HW1 2683   0.388   2.987   2.668
  881SOL    HW2 2684   0.433   2.986   2.510
  882SOL     OW 2685   1.271   3.659   2.453
  882SOL    HW1 2686   1.315   3.723   2.389
  882SOL    HW2 2687   1.221   3.711   2.523
  883SOL     OW 2688   1.032   2.411   1.878
  883SOL    HW1 2689   0.991   2.493   1.839
  883SOL    HW2 2690   1.096   2.437   1.951
  884SOL     OW 2691   0.078   2.418   3.248
  884SOL    HW1 2692   0.170   2.417   3.207
  884SOL    HW2 2693   0.072   2.492   3.315
  885SOL     OW 2694   0.561   2.084   3.009
  885SOL    HW1 2695   0.599   2.000   3.046
  885SOL    HW2 2696   0.473   2.103   3.053
  886SOL     OW 2697   0.866   2.316   2.504
  886SOL    HW1 2698   0.834   2.388   2.442
  886SOL    HW2 2699   0.890   2.235   2.451
  887SOL     OW 2700   1.017   1.901   2.615
  887SOL    HW1 2701   0.945   1.906   2.546
  887SOL    HW2 2702   0.993   1.832   2.684
  888SOL     OW 2703   1.429   3.035   2.729
  888SOL    HW1 2704   1.374   2.951   2.722
  888SOL    HW2 2705   1.455   3.064   2.637
  889SOL     OW 2706   1.466   2.452   2.854
  889SOL    HW1 2707   1.436   2.357   2.861
  889SOL    HW2 2708   1.539   2.468   2.920
  890SOL     OW 2709   1.857   2.695   2.239
  890SOL    HW1 2710   1.899   2.631   2.303
  890SOL    HW2 2711   1.819   2.644   2.161
  891SOL     OW 2712   0.488   3.247   2.036
  891SOL    HW1 2713   0.401   3.232   2.083
  891SOL    HW2 2714   0.471   3.273   1.941
  892SOL     OW 2715   1.664   3.142   2.519
  892SOL    HW1 2716   1.763   3.150   2.533
  892SOL    HW2 2717   1.619   3.226   2.550
  893SOL     OW 2718   1.390   2.437   1.940
  893SOL    HW1 2719   1.336   2.416   2.021
  893SOL    HW2 2720   1.481   2.396   1.949
  894SOL     OW 2721   0.527   2.118   2.190
  894SOL    HW1 2722   0.554   2.059   2.115
  894SOL    HW2 2723   0.527   2.213   2.159
  895SOL     OW 2724   1.754   3.085   3.450
  895SOL    HW1 2725   1.845   3.046   3.437
  895SOL    HW2 2726   1.762   3.181   3.474
  896SOL     OW 2727   1.064   3.209   3.202
  896SOL    HW1 2728   0.984   3.186   3.257
  896SOL    HW2 2729   1.147   3.183   3.251
  897SOL     OW 2730   1.592   3.491   3.487
  897SOL    HW1 2731   1.619   3.525   3.397
  897SOL    HW2 2732   1.671   3.453   3.533
  898SOL     OW 2733   1.111   3.057   2.962
  898SOL    HW1 2734   1.071   3.101   3.043
  898SOL    HW2 2735   1.070   3.094   2.879
  899SOL     OW 2736   1.638   2.961   2.941
  899SOL    HW1 2737   1.643   3.042   3.000
  899SOL    HW2 2738   1.552   2.963   2.890
  900SOL     OW 2739   0.915   1.951   3.264
  900SOL    HW1 2740   0.940   1.931   3.169
  900SOL    HW2 2741   0.987   2.007   3.306
  901SOL     OW 2742   0.980   2.978   3.581
  901SOL    HW1 2743   0.881   2.984   3.591
  901SOL    HW2 2744   1.003   2.898   3.525
  902SOL     OW 2745   0.705   2.912   2.230
  902SOL    HW1 2746   0.691   2.919   2.329
  902SOL    HW2 2747   0.789   2.861   2.212
  903SOL     OW 2748   0.410   2.675   3.113
  903SOL    HW1 2749   0.496   2.687   3.163
  903SOL    HW2 2750   0.368   2.588   3.140
  904SOL     OW 2751   1.274   2.248   3.124
  904SOL    HW1 2752   1.295   2.322   3.188
  904SOL    HW2 2753   1.185   2.265   3.081
  905SOL     OW 2754   0.064   3.426   3.193
  905SOL    HW1 2755   0.018   3.508   3.159
  905SOL    HW2 2756   0.162   3.445   3.202
  906SOL     OW 2757   0.367   2.962   2.363
  906SOL    HW1 2758   0.360   3.045   2.307
  906SOL    HW2 2759   0.371   2.882   2.303
  907SOL     OW 2760   0.566   2.399   2.727
  907SOL    HW1 2761   0.578   2.465   2.653
  907SOL    HW2 2762   0.612   2.433   2.810
  908SOL     OW 2763   1.252   3.210   2.250
  908SOL    HW1 2764   1.302   3.287   2.290
  908SOL    HW2 2765   1.157   3.212   2.282
  909SOL     OW 2766   1.272   3.307   3.004
  909SOL    HW1 2767   1.319   3.320   3.091
  909SOL    HW2 2768   1.206   3.233   3.013
  910SOL     OW 2769   1.582   2.501   2.334
  910SOL    HW1 2770   1.551   2.562   2.407
  910SOL    HW2 2771   1.632   2.553   2.265
  911SOL     OW 2772   0.354   3.372   3.191
  911SOL    HW1 2773   0.333   3.328   3.104
  911SOL    HW2 2774   0.451   3.398   3.194
  912SOL     OW 2775   0.402   2.613   3.460
  912SOL    HW1 2776   0.470   2.668   3.413
  912SOL    HW2 2777   0.442   2.525   3.487
  913SOL     OW 2778   1.587   2.641   3.532
  913SOL    HW1 2779   1.495   2.679   3.527
  913SOL    HW2 2780   1.647   2.688   3.467
  914SOL     OW 2781   1.013   1.967   3.632
  914SOL    HW1 2782   1.019   2.052   3.580
  914SOL    HW2 2783   1.045   1.891   3.575
  915SOL     OW 2784   0.504   1.912   3.602
  915SOL    HW1 2785   0.462   1.855   3.532
  915SOL    HW2 2786   0.438   1.981   3.634
  916SOL     OW 2787   0.573   2.732   2.891
  916SOL    HW1 2788   0.617   2.821   2.882
  916SOL    HW2 2789   0.510   2.732   2.968
  917SOL     OW 2790   1.360   2.724   2.907
  917SOL    HW1 2791   1.285   2.724   2.841
  917SOL    HW2 2792   1.397   2.632   2.916
  918SOL     OW 2793   1.209   2.387   2.137
  918SOL    HW1 2794   1.222   2.303   2.191
  918SOL    HW2 2795   1.180   2.461   2.197
  919SOL     OW 2796   0.307   2.075   3.093
  919SOL    HW1 2797   0.284   2.112   3.183
  919SOL    HW2 2798   0.277   1.980   3.087
  920SOL     OW 2799   0.037   3.172   3.144
  920SOL    HW1 2800   0.090   3.123   3.212
  920SOL    HW2 2801   0.059   3.270   3.149
  921SOL     OW 2802   0.732   2.496   2.926
  921SOL    HW1 2803   0.791   2.470   2.850
  921SOL    HW2 2804   0.704   2.592   2.915
  922SOL     OW 2805   1.728   2.797   3.716
  922SOL    HW1 2806   1.682   2.790   3.627
  922SOL    HW2 2807   1.666   2.841   3.782
  923SOL     OW 2808   0.307   1.925   2.480
  923SOL    HW1 2809   0.296   2.019   2.513
  923SOL    HW2 2810   0.302   1.862   2.557
  924SOL     OW 2811   1.622   2.229   2.236
  924SOL    HW1 2812   1.624   2.153   2.300
  924SOL    HW2 2813   1.574   2.306   2.276
  925SOL     OW 2814   1.023   2.628   2.828
  925SOL    HW1 2815   1.038   2.649   2.924
  925SOL    HW2 2816   0.993   2.533   2.819
  926SOL     OW 2817   0.980   3.435   3.562
  926SOL    HW1 2818   0.960   3.479   3.474
  926SOL    HW2 2819   1.019   3.344   3.546
  927SOL     OW 2820   1.859   3.380   3.467
  927SOL    HW1 2821   1.873   3.407   3.372
  927SOL    HW2 2822   1.942   3.402   3.520
  928SOL     OW 2823   0.350   2.760   3.666
  928SOL    HW1 2824   0.426   2.804   3.714
  928SOL    HW2 2825   0.385   2.713   3.584
  929SOL     OW 2826   1.540   2.136   1.987
  929SOL    HW1 2827   1.479   2.061   2.010
  929SOL    HW2 2828   1.562   2.188   2.070
  930SOL     OW 2829   1.303   2.700   1.904
  930SOL    HW1 2830   1.337   2.607   1.919
  930SOL    HW2 2831   1.321   2.727   1.809
  931SOL     OW 2832   1.068   3.195   2.711
  931SOL    HW1 2833   1.075   3.111   2.656
  931SOL    HW2 2834   1.130   3.264   2.675
  932SOL     OW 2835   0.319   2.672   2.811
  932SOL    HW1 2836   0.412   2.708   2.816
  932SOL    HW2 2837   0.313   2.587   2.863
  933SOL     OW 2838   0.339   2.371   2.868
  933SOL    HW1 2839   0.287   2.288   2.851
  933SOL    HW2 2840   0.416   2.376   2.804
  934SOL     OW 2841   1.138   2.242   3.540
  934SOL    HW1 2842   1.093   2.305   3.604
  934SOL    HW2 2843   1.231   2.273   3.523
  935SOL     OW 2844   1.160   2.069   3.339
  935SOL    HW1 2845   1.160   2.133   3.416
  935SOL    HW2 2846   1.188   2.117   3.256
  936SOL     OW 2847   0.008   3.188   2.062
  936SOL    HW1 2848  -0.085   3.209   2.031
  936SOL    HW2 2849   0.018   3.089   2.075
  937SOL     OW 2850   0.088   3.663   2.789
  937SOL    HW1 2851   0.046   3.577   2.762
  937SOL    HW2 2852   0.182   3.666   2.755
  938SOL     OW 2853   0.504   3.430   2.772
  938SOL    HW1 2854   0.570   3.504   2.781
  938SOL    HW2 2855   0.548   3.351   2.730
  939SOL     OW 2856   1.002   2.658   3.100
  939SOL    HW1 2857   1.043   2.626   3.186
  939SOL    HW2 2858   0.906   2.631   3.097
  940SOL     OW 2859   0.040   2.406   2.976
  940SOL    HW1 2860   0.125   2.373   2.935
  940SOL    HW2 2861   0.053   2.421   3.074
  941SOL     OW 2862   0.189   2.382   3.584
  941SOL    HW1 2863   0.248   2.342   3.514
  941SOL    HW2 2864   0.131   2.453   3.543
  942SOL     OW 2865   1.369   2.812   3.522
  942SOL    HW1 2866   1.408   2.901   3.542
  942SOL    HW2 2867   1.379   2.792   3.425
  943SOL     OW 2868   0.815   2.434   2.187
  943SOL    HW1 2869   0.822   2.345   2.141
  943SOL    HW2 2870   0.721   2.468   2.179
  944SOL     OW 2871   1.657   2.466   3.068
  944SOL    HW1 2872   1.619   2.397   3.130
  944SOL    HW2 2873   1.739   2.430   3.024
  945SOL     OW 2874   0.252   3.426   3.606
  945SOL    HW1 2875   0.222   3.483   3.682
  945SOL    HW2 2876   0.245   3.329   3.632
  946SOL     OW 2877   0.671   2.326   3.131
  946SOL    HW1 2878   0.637   2.237   3.101
  946SOL    HW2 2879   0.697   2.380   3.051
  947SOL     OW 2880   0.930   3.540   3.327
  947SOL    HW1 2881   0.906   3.522   3.232
  947SOL    HW2 2882   0.960   3.634   3.337
  948SOL     OW 2883   0.473   2.362   2.053
  948SOL    HW1 2884   0.534   2.442   2.057
  948SOL    HW2 2885   0.378   2.393   2.060
  949SOL     OW 2886   0.159   2.999   3.328
  949SOL    HW1 2887   0.181   2.938   3.404
  949SOL    HW2 2888   0.169   2.950   3.242
  950SOL     OW 2889   1.347   2.921   3.096
  950SOL    HW1 2890   1.371   2.858   3.022
  950SOL    HW2 2891   1.257   2.961   3.078
  951SOL     OW 2892   1.302   2.717   2.171
  951SOL    HW1 2893   1.216   2.686   2.213
  951SOL    HW2 2894   1.298   2.703   2.072
  952SOL     OW 2895   1.759   3.609   3.016
  952SOL    HW1 2896   1.820   3.639   2.943
  952SOL    HW2 2897   1.721   3.520   2.994
  953SOL     OW 2898   1.252   3.593   2.990
  953SOL    HW1 2899   1.336   3.598   2.936
  953SOL    HW2 2900   1.229   3.497   3.008
  954SOL     OW 2901   0.083   3.120   2.884
  954SOL    HW1 2902   0.078   3.119   2.984
  954SOL    HW2 2903   0.000   3.079   2.846
  955SOL     OW 2904   0.688   3.524   3.578
  955SOL    HW1 2905   0.632   3.605   3.587
  955SOL    HW2 2906   0.740   3.528   3.492
  956SOL     OW 2907   1.726   1.997   2.385
  956SOL    HW1 2908   1.799   1.980   2.318
  956SOL    HW2 2909   1.695   1.910   2.423
  957SOL     OW 2910   1.388   3.435   2.339
  957SOL    HW1 2911   1.455   3.447   2.265
  957SOL    HW2 2912   1.348   3.524   2.362
  958SOL     OW 2913   0.130   3.656   3.713
  958SOL    HW1 2914   0.089   3.582   3.766
  958SOL    HW2 2915   0.194   3.707   3.771
  959SOL     OW 2916   1.280   2.789   2.534
  959SOL    HW1 2917   1.340   2.708   2.536
  959SOL    HW2 2918   1.320   2.858   2.474
  960SOL     OW 2919   0.830   3.135   3.284
  960SOL    HW1 2920   0.825   3.168   3.379
  960SOL    HW2 2921   0.744   3.154   3.238
  961SOL     OW 2922   0.672   3.478   2.016
  961SOL    HW1 2923   0.681   3.488   1.917
  961SOL    HW2 2924   0.632   3.389   2.037
  962SOL     OW 2925   1.650   3.582   3.256
  962SOL    HW1 2926   1.703   3.592   3.172
  962SOL    HW2 2927   1.623   3.672   3.290
  963SOL     OW 2928   1.841   2.037   2.825
  963SOL    HW1 2929   1.880   1.952   2.789
  963SOL    HW2 2930   1.743   2.039   2.806
  964SOL     OW 2931   0.263   2.188   2.582
  964SOL    HW1 2932   0.184   2.239   2.548
  964SOL    HW2 2933   0.254   2.173   2.680
  965SOL     OW 2934   1.194   3.474   1.893
  965SOL    HW1 2935   1.200   3.381   1.930
  965SOL    HW2 2936   1.135   3.474   1.813
  966SOL     OW 2937   0.822   2.864   3.234
  966SOL    HW1 2938   0.862   2.863   3.142
  966SOL    HW2 2939   0.832   2.956   3.274
  967SOL     OW 2940   0.916   2.772   2.153
  967SOL    HW1 2941   0.979   2.810   2.085
  967SOL    HW2 2942   0.956   2.689   2.192
  968SOL     OW 2943   1.504   3.469   1.906
  968SOL    HW1 2944   1.412   3.506   1.913
  968SOL    HW2 2945   1.542   3.489   1.816
  969SOL     OW 2946   0.372   3.150   3.352
  969SOL    HW1 2947   0.359   3.243   3.318
  969SOL    HW2 2948   0.288   3.098   3.339
  970SOL     OW 2949   1.614   3.154   3.151
  970SOL    HW1 2950   1.674   3.157   3.231
  970SOL    HW2 2951   1.539   3.218   3.164
  971SOL     OW 2952   1.039   2.960   2.558
  971SOL    HW1 2953   0.969   2.913   2.612
  971SOL    HW2 2954   1.098   2.892   2.515
  972SOL     OW 2955   1.014   2.098   2.833
  972SOL    HW1 2956   1.006   2.062   2.740
  972SOL    HW2 2957   1.012   2.022   2.898
  973SOL     OW 2958   0.590   3.349   2.353
  973SOL    HW1 2959   0.632   3.291   2.283
  973SOL    HW2 2960   0.546   3.428   2.309
  974SOL     OW 2961   1.709   2.247   3.243
  974SOL    HW1 2962   1.782   2.316   3.247
  974SOL    HW2 2963   1.737   2.172   3.184
  975SOL     OW 2964   0.255   3.210   2.152
  975SOL    HW1 2965   0.159   3.211   2.125
  975SOL    HW2 2966   0.267   3.263   2.236
  976SOL     OW 2967   0.105   2.875   3.588
  976SOL    HW1 2968   0.028   2.842   3.642
  976SOL    HW2 2969   0.190   2.845   3.630
  977SOL     OW 2970   0.672   2.065   3.351
  977SOL    HW1 2971   0.762   2.049   3.311
  977SOL    HW2 2972   0.680   2.070   3.450
  978SOL     OW 2973   0.075   2.207   1.895
  978SOL    HW1 2974  -0.017   2.179   1.866
  978SOL    HW2 2975   0.106   2.284   1.839
  979SOL     OW 2976   1.440   2.718   3.260
  979SOL    HW1 2977   1.383   2.770   3.197
  979SOL    HW2 2978   1.536   2.730   3.236
  980SOL     OW 2979   0.072   2.028   2.180
  980SOL    HW1 2980   0.055   2.111   2.126
  980SOL    HW2 2981   0.162   1.991   2.158
  981SOL     OW 2982   1.183   3.197   1.981
  981SOL    HW1 2983   1.084   3.186   1.983
  981SOL    HW2 2984   1.217   3.212   2.074
  982SOL     OW 2985   0.613   2.704   3.293
  982SOL    HW1 2986   0.669   2.785   3.276
  982SOL    HW2 2987   0.672   2.624   3.296
  983SOL     OW 2988   1.493   3.629   2.821
  983SOL    HW1 2989   1.526   3.693   2.752
  983SOL    HW2 2990   1.559   3.623   2.896
  984SOL     OW 2991   0.716   2.427   3.570
  984SOL    HW1 2992   0.735   2.492   3.644
  984SOL    HW2 2993   0.776   2.347   3.579
  985SOL     OW 2994   1.450   3.082   3.495
  985SOL    HW1 2995   1.441   3.072   3.594
  985SOL    HW2 2996   1.546   3.075   3.469
  986SOL     OW 2997   0.390   3.603   3.422
  986SOL    HW1 2998   0.299   3.644   3.420
  986SOL    HW2 2999   0.383   3.509   3.454
  987SOL     OW 3000   1.674   2.745   3.116
  987SOL    HW1 3001   1.647   2.656   3.079
  987SOL    HW2 3002   1.675   2.813   3.043
  988SOL     OW 3003   1.225   2.187   2.311
  988SOL    HW1 3004   1.290   2.113   2.300
  988SOL    HW2 3005   1.245   2.237   2.395
  989SOL     OW 3006   0.594   2.607   2.514
  989SOL    HW1 3007   0.644   2.692   2.495
  989SOL    HW2 3008   0.506   2.609   2.466
  990SOL     OW 3009   1.777   2.204   3.504
  990SOL    HW1 3010   1.760   2.235   3.410
  990SOL    HW2 3011   1.693   2.167   3.542
  991SOL     OW 3012   1.730   2.796   3.379
  991SOL    HW1 3013   1.768   2.887   3.394
  991SOL    HW2 3014   1.722   2.779   3.280
  992SOL     OW 3015   0.859   3.236   1.878
  992SOL    HW1 3016   0.813   3.251   1.966
  992SOL    HW2 3017   0.903   3.321   1.848
  993SOL     OW 3018   0.661   3.652   2.815
  993SOL    HW1 3019   0.615   3.740   2.802
  993SOL    HW2 3020   0.760   3.664   2.808
  994SOL     OW 3021   0.859   2.818   2.723
  994SOL    HW1 3022   0.913   2.749   2.771
  994SOL    HW2 3023   0.827   2.887   2.789
  995SOL     OW 3024   1.083   2.846   1.949
  995SOL    HW1 3025   1.060   2.899   1.867
  995SOL    HW2 3026   1.164   2.790   1.930
  996SOL     OW 3027   1.861   3.431   2.713
  996SOL    HW1 3028   1.790   3.419   2.643
  996SOL    HW2 3029   1.862   3.352   2.773
  997SOL     OW 3030   0.221   3.176   3.706
  997SOL    HW1 3031   0.156   3.103   3.685
  997SOL    HW2 3032   0.225   3.190   3.804
  998SOL     OW 3033   0.079   3.102   2.515
  998SOL    HW1 3034   0.078   3.055   2.603
  998SOL    HW2 3035   0.161   3.074   2.464
  999SOL     OW 3036   0.672   3.253   3.486
  999SOL    HW1 3037   0.594   3.203   3.524
  999SOL    HW2 3038   0.669   3.348   3.517
 1000SOL     OW 3039   1.824   2.054   3.089
 1000SOL    HW1 3040   1.820   1.964   3.133
 1000SOL    HW2 3041   1.827   2.043   2.990
 1001SOL     OW 3042   0.428   2.286   2.382
 1001SOL    HW1 3043   0.458   2.214   2.320
 1001SOL    HW2 3044   0.389   2.246   2.465
 1002SOL     OW 3045   1.705   3.349   2.966
 1002SOL    HW1 3046   1.612   3.324   2.939
 1002SOL    HW2 3047   1.731   3.299   3.048
 1003SOL     OW 3048   0.317   2.409   3.142
 1003SOL    HW1 3049   0.355   2.350   3.214
 1003SOL    HW2 3050   0.357   2.383   3.054
 1004SOL     OW 3051   0.812   3.448   2.549
 1004SOL    HW1 3052   0.844   3.458   2.455
 1004SOL    HW2 3053   0.733   3.386   2.551
 1005SOL     OW 3054   1.424   2.076   2.974
 1005SOL    HW1 3055   1.476   2.011   3.029
 1005SOL    HW2 3056   1.375   2.139   3.035
 1006SOL     OW 3057   1.001   1.896   3.016
 1006SOL    HW1 3058   0.938   1.824   2.985
 1006SOL    HW2 3059   1.094   1.860   3.016
 1007SOL     OW 3060   0.770   3.192   2.163
 1007SOL    HW1 3061   0.724   3.105   2.180
 1007SOL    HW2 3062   0.861   3.189   2.204
 1008SOL     OW 3063   0.618   3.429   3.146
 1008SOL    HW1 3064   0.613   3.511   3.203
 1008SOL    HW2 3065   0.707   3.426   3.101
 1009SOL     OW 3066   1.352   1.914   2.030
 1009SOL    HW1 3067   1.387   1.873   1.946
 1009SOL    HW2 3068   1.262   1.876   2.050
 1010SOL     OW 3069   1.300   2.315   2.553
 1010SOL    HW1 3070   1.241   2.395   2.557
 1010SOL    HW2 3071   1.315   2.280   2.646
 1011SOL     OW 3072   1.593   2.083   2.744
 1011SOL    HW1 3073   1.509   2.082   2.798
 1011SOL    HW2 3074   1.595   2.166   2.688
 1012SOL     OW 3075   0.039   2.939   2.162
 1012SOL    HW1 3076   0.138   2.928   2.153
 1012SOL    HW2 3077  -0.001   2.853   2.194
 1013SOL     OW 3078   0.875   3.508   2.199
 1013SOL    HW1 3079   0.798   3.473   2.145
 1013SOL    HW2 3080   0.843   3.579   2.261
 1014SOL     OW 3081   0.230   2.490   3.837
 1014SOL    HW1 3082   0.137   2.488   3.874
 1014SOL    HW2 3083   0.231   2.451   3.745
 1015SOL     OW 3084   0.225   2.137   4.720
 1015SOL    HW1 3085   0.260   2.120   4.812
 1015SOL    HW2 3086   0.137   2.092   4.708
 1016SOL     OW 3087   0.019   2.230   4.371
 1016SOL    HW1 3088  -0.063   2.273   4.410
 1016SOL    HW2 3089  -0.009   2.157   4.308
 1017SOL     OW 3090   0.569   3.137   4.889
 1017SOL    HW1 3091   0.476   3.130   4.852
 1017SOL    HW2 3092   0.580   3.226   4.933
 1018SOL     OW 3093   1.555   3.373   4.427
 1018SOL    HW1 3094   1.498   3.357   4.508
 1018SOL    HW2 3095   1.496   3.383   4.347
 1019SOL     OW 3096   1.135   2.565   4.441
 1019SOL    HW1 3097   1.192   2.643   4.416
 1019SOL    HW2 3098   1.075   2.591   4.517
 1020SOL     OW 3099   1.755   2.469   3.955
 1020SOL    HW1 3100   1.743   2.456   3.856
 1020SOL    HW2 3101   1.725   2.388   4.004
 1021SOL     OW 3102   0.768   3.006   4.747
 1021SOL    HW1 3103   0.690   3.023   4.807
 1021SOL    HW2 3104   0.802   3.093   4.711
 1022SOL     OW 3105   0.685   2.874   4.389
 1022SOL    HW1 3106   0.754   2.858   4.459
 1022SOL    HW2 3107   0.612   2.931   4.427
 1023SOL     OW 3108   0.335   3.297   4.785
 1023SOL    HW1 3109   0.257   3.266   4.732
 1023SOL    HW2 3110   0.393   3.355   4.728
 1024SOL     OW 3111   0.438   2.254   5.223
 1024SOL    HW1 3112   0.520   2.198   5.232
 1024SOL    HW2 3113   0.357   2.196   5.227
 1025SOL     OW 3114   1.603   2.309   4.461
 1025SOL    HW1 3115   1.529   2.355   4.411
 1025SOL    HW2 3116   1.654   2.377   4.514
 1026SOL     OW 3117   0.231   3.575   4.207
 1026SOL    HW1 3118   0.265   3.652   4.261
 1026SOL    HW2 3119   0.275   3.575   4.117
 1027SOL     OW 3120   0.230   3.296   4.262
 1027SOL    HW1 3121   0.204   3.392   4.262
 1027SOL    HW2 3122   0.159   3.242   4.307
 1028SOL     OW 3123   0.240   2.953   4.610
 1028SOL    HW1 3124   0.254   2.869   4.662
 1028SOL    HW2 3125   0.185   3.017   4.665
 1029SOL     OW 3126   0.620   3.648   5.163
 1029SOL    HW1 3127   0.528   3.631   5.198
 1029SOL    HW2 3128   0.648   3.740   5.189
 1030SOL     OW 3129   0.606   2.826   3.847
 1030SOL    HW1 3130   0.613   2.910   3.793
 1030SOL    HW2 3131   0.652   2.839   3.935
 1031SOL     OW 3132   0.122   2.505   4.287
 1031SOL    HW1 3133   0.077   2.417   4.304
 1031SOL    HW2 3134   0.121   2.559   4.371
 1032SOL     OW 3135   1.842   3.629   4.083
 1032SOL    HW1 3136   1.896   3.600   4.163
 1032SOL    HW2 3137   1.872   3.719   4.054
 1033SOL     OW 3138   0.027   3.458   3.841
 1033SOL    HW1 3139   0.008   3.362   3.862
 1033SOL    HW2 3140  -0.006   3.516   3.916
 1034SOL     OW 3141   1.689   2.784   4.336
 1034SOL    HW1 3142   1.784   2.755   4.344
 1034SOL    HW2 3143   1.681   2.849   4.261
 1035SOL     OW 3144   1.641   2.970   4.156
 1035SOL    HW1 3145   1.727   2.972   4.104
 1035SOL    HW2 3146   1.655   3.017   4.244
 1036SOL     OW 3147   0.613   3.227   4.450
 1036SOL    HW1 3148   0.564   3.140   4.459
 1036SOL    HW2 3149   0.590   3.270   4.363
 1037SOL     OW 3150   0.809   1.866   4.226
 1037SOL    HW1 3151   0.849   1.957   4.217
 1037SOL    HW2 3152   0.709   1.874   4.232
 1038SOL     OW 3153   0.197   2.838   4.988
 1038SOL    HW1 3154   0.286   2.793   4.974
 1038SOL    HW2 3155   0.124   2.773   4.969
 1039SOL     OW 3156   1.525   2.861   3.914
 1039SOL    HW1 3157   1.462   2.785   3.927
 1039SOL    HW2 3158   1.573   2.879   4.000
 1040SOL     OW 3159   1.466   3.279   4.677
 1040SOL    HW1 3160   1.407   3.285   4.757
 1040SOL    HW2 3161   1.451   3.191   4.631
 1041SOL     OW 3162   1.667   3.576   4.296
 1041SOL    HW1 3163   1.626   3.553   4.208
 1041SOL    HW2 3164   1.649   3.502   4.361
 1042SOL     OW 3165   0.598   2.591   3.994
 1042SOL    HW1 3166   0.622   2.660   3.926
 1042SOL    HW2 3167   0.520   2.624   4.048
 1043SOL     OW 3168   1.281   2.207   4.668
 1043SOL    HW1 3169   1.195   2.157   4.655
 1043SOL    HW2 3170   1.343   2.153   4.724
 1044SOL     OW 3171   1.576   3.524   4.031
 1044SOL    HW1 3172   1.665   3.570   4.034
 1044SOL    HW2 3173   1.555   3.500   3.936
 1045SOL     OW 3174   0.807   2.467   5.189
 1045SOL    HW1 3175   0.760   2.464   5.278
 1045SOL    HW2 3176   0.756   2.412   5.123
 1046SOL     OW 3177   0.991   2.272   4.966
 1046SOL    HW1 3178   0.914   2.306   5.020
 1046SOL    HW2 3179   0.957   2.221   4.887
 1047SOL     OW 3180   1.041   2.563   4.153
 1047SOL    HW1 3181   1.067   2.559   4.249
 1047SOL    HW2 3182   0.956   2.512   4.139
 1048SOL     OW 3183   0.076   2.673   4.513
 1048SOL    HW1 3184   0.175   2.661   4.522
 1048SOL    HW2 3185   0.052   2.768   4.534
 1049SOL     OW 3186   0.130   3.683   5.295
 1049SOL    HW1 3187   0.120   3.668   5.394
 1049SOL    HW2 3188   0.044   3.719   5.259
 1050SOL     OW 3189   0.865   2.210   3.919
 1050SOL    HW1 3190   0.924   2.273   3.870
 1050SOL    HW2 3191   0.884   2.116   3.890
 1051SOL     OW 3192   1.362   3.006   4.269
 1051SOL    HW1 3193   1.445   2.977   4.221
 1051SOL    HW2 3194   1.313   3.073   4.213
 1052SOL     OW 3195   0.550   2.058   4.609
 1052SOL    HW1 3196   0.545   2.053   4.709
 1052SOL    HW2 3197   0.552   2.154   4.580
 1053SOL     OW 3198   1.008   3.318   4.201
 1053SOL    HW1 3199   0.962   3.390   4.149
 1053SOL    HW2 3200   1.004   3.338   4.299
 1054SOL     OW 3201   0.351   3.663   4.577
 1054SOL    HW1 3202   0.401   3.577   4.583
 1054SOL    HW2 3203   0.416   3.740   4.574
 1055SOL     OW 3204   1.795   2.928   4.597
 1055SOL    HW1 3205   1.733   2.913   4.521
 1055SOL    HW2 3206   1.743   2.939   4.682
 1056SOL     OW 3207   0.321   2.805   3.966
 1056SOL    HW1 3208   0.403   2.844   3.924
 1056SOL    HW2 3209   0.294   2.723   3.917
 1057SOL     OW 3210   1.458   2.597   4.452
 1057SOL    HW1 3211   1.453   2.532   4.527
 1057SOL    HW2 3212   1.538   2.656   4.465
 1058SOL     OW 3213   1.111   3.638   3.961
 1058SOL    HW1 3214   1.051   3.576   4.011
 1058SOL    HW2 3215   1.142   3.594   3.876
 1059SOL     OW 3216   1.632   3.239   3.805
 1059SOL    HW1 3217   1.600   3.333   3.795
 1059SOL    HW2 3218   1.556   3.176   3.793
 1060SOL     OW 3219   0.464   3.605   4.047
 1060SOL    HW1 3220   0.497   3.644   4.133
 1060SOL    HW2 3221   0.540   3.598   3.982
 1061SOL     OW 3222   1.400   1.969   4.150
 1061SOL    HW1 3223   1.376   1.932   4.060
 1061SOL    HW2 3224   1.499   1.985   4.154
 1062SOL     OW 3225   0.249   3.647   4.965
 1062SOL    HW1 3226   0.306   3.582   5.015
 1062SOL    HW2 3227   0.233   3.614   4.872
 1063SOL     OW 3228   0.940   3.560   4.628
 1063SOL    HW1 3229   1.020   3.503   4.649
 1063SOL    HW2 3230   0.891   3.520   4.551
 1064SOL     OW 3231   0.382   2.562   4.204
 1064SOL    HW1 3232   0.427   2.472   4.201
 1064SOL    HW2 3233   0.288   2.551   4.237
 1065SOL     OW 3234   0.614   1.984   3.841
 1065SOL    HW1 3235   0.712   1.962   3.848
 1065SOL    HW2 3236   0.583   1.967   3.748
 1066SOL     OW 3237   0.888   3.376   4.919
 1066SOL    HW1 3238   0.865   3.351   4.825
 1066SOL    HW2 3239   0.949   3.307   4.958
 1067SOL     OW 3240   0.803   3.264   4.648
 1067SOL    HW1 3241   0.893   3.278   4.606
 1067SOL    HW2 3242   0.732   3.266   4.577
 1068SOL     OW 3243   0.922   2.365   4.623
 1068SOL    HW1 3244   0.897   2.356   4.527
 1068SOL    HW2 3245   0.970   2.283   4.654
 1069SOL     OW 3246   0.539   1.926   4.236
 1069SOL    HW1 3247   0.458   1.927   4.294
 1069SOL    HW2 3248   0.542   2.009   4.181
 1070SOL     OW 3249   1.434   3.050   3.765
 1070SOL    HW1 3250   1.466   2.974   3.822
 1070SOL    HW2 3251   1.342   3.077   3.795
 1071SOL     OW 3252   0.297   1.897   3.895
 1071SOL    HW1 3253   0.346   1.981   3.874
 1071SOL    HW2 3254   0.359   1.832   3.940
 1072SOL     OW 3255   0.935   2.098   4.204
 1072SOL    HW1 3256   0.887   2.139   4.126
 1072SOL    HW2 3257   1.034   2.096   4.185
 1073SOL     OW 3258   1.227   3.432   4.517
 1073SOL    HW1 3259   1.248   3.506   4.452
 1073SOL    HW2 3260   1.295   3.432   4.590
 1074SOL     OW 3261   0.459   3.014   4.465
 1074SOL    HW1 3262   0.388   2.987   4.530
 1074SOL    HW2 3263   0.433   2.986   4.372
 1075SOL     OW 3264   1.271   3.659   4.315
 1075SOL    HW1 3265   1.315   3.723   4.251
 1075SOL    HW2 3266   1.221   3.711   4.385
 1076SOL     OW 3267   1.032   2.411   3.740
 1076SOL    HW1 3268   0.991   2.493   3.701
 1076SOL    HW2 3269   1.096   2.437   3.813
 1077SOL     OW 3270   0.561   2.084   4.871
 1077SOL    HW1 3271   0.599   2.000   4.908
 1077SOL    HW2 3272   0.473   2.103   4.915
 1078SOL     OW 3273   0.866   2.316   4.366
 1078SOL    HW1 3274   0.834   2.388   4.304
 1078SOL    HW2 3275   0.890   2.235   4.313
 1079SOL     OW 3276   1.017   1.901   4.477
 1079SOL    HW1 3277   0.945   1.906   4.408
 1079SOL    HW2 3278   0.993   1.832   4.546
 1080SOL     OW 3279   1.429   3.035   4.591
 1080SOL    HW1 3280   1.374   2.951   4.584
 1080SOL    HW2 3281   1.455   3.064   4.499
 1081SOL     OW 3282   1.466   2.452   4.716
 1081SOL    HW1 3283   1.436   2.357   4.723
 1081SOL    HW2 3284   1.539   2.468   4.782
 1082SOL     OW 3285   1.857   2.695   4.101
 1082SOL    HW1 3286   1.899   2.631   4.165
 1082SOL    HW2 3287   1.819   2.644   4.023
 1083SOL     OW 3288   0.488   3.247   3.898
 1083SOL    HW1 3289   0.401   3.232   3.945
 1083SOL    HW2 3290   0.471   3.273   3.803
 1084SOL     OW 3291   1.664   3.142   4.381
 1084SOL    HW1 3292   1.763   3.150   4.395
 1084SOL    HW2 3293   1.619   3.226   4.412
 1085SOL     OW 3294   1.390   2.437   3.802
 1085SOL    HW1 3295   1.336   2.416   3.883
 1085SOL    HW2 3296   1.481   2.396   3.811
 1086SOL     OW 3297   0.527   2.118   4.052
 1086SOL    HW1 3298   0.554   2.059   3.977
 1086SOL    HW2 3299   0.527   2.213   4.021
 1087SOL     OW 3300   1.754   3.085   5.312
 1087SOL    HW1 3301   1.845   3.046   5.299
 1087SOL    HW2 3302   1.762   3.181   5.336
 1088SOL     OW 3303   1.111   3.057   4.824
 1088SOL    HW1 3304   1.071   3.101   4.905
 1088SOL    HW2 3305   1.070   3.094   4.741
 1089SOL     OW 3306   1.638   2.961   4.803
 1089SOL    HW1 3307   1.643   3.042   4.862
 1089SOL    HW2 3308   1.552   2.963   4.752
 1090SOL     OW 3309   0.705   2.912   4.092
 1090SOL    HW1 3310   0.691   2.919   4.191
 1090SOL    HW2 3311   0.789   2.861   4.074
 1091SOL     OW 3312   0.410   2.675   4.975
 1091SOL    HW1 3313   0.496   2.687   5.025
 1091SOL    HW2 3314   0.368   2.588   5.002
 1092SOL     OW 3315   1.274   2.248   4.986
 1092SOL    HW1 3316   1.295   2.322   5.050
 1092SOL    HW2 3317   1.185   2.265   4.943
 1093SOL     OW 3318   0.064   3.426   5.055
 1093SOL    HW1 3319   0.018   3.508   5.021
 1093SOL    HW2 3320   0.162   3.445   5.064
 1094SOL     OW 3321   0.367   2.962   4.225
 1094SOL    HW1 3322   0.360   3.045   4.169
 1094SOL    HW2 3323   0.371   2.882   4.165
 1095SOL     OW 3324   0.566   2.399   4.589
 1095SOL    HW1 3325   0.578   2.465   4.515
 1095SOL    HW2 3326   0.612   2.433   4.672
 1096SOL     OW 3327   1.252   3.210   4.112
 1096SOL    HW1 3328   1.302   3.287   4.152
 1096SOL    HW2 3329   1.157   3.212   4.144
 1097SOL     OW 3330   1.272   3.307   4.866
 1097SOL    HW1 3331   1.319   3.320   4.953
 1097SOL    HW2 3332   1.206   3.233   4.875
 1098SOL     OW 3333   1.582   2.501   4.196
 1098SOL    HW1 3334   1.551   2.562   4.269
 1098SOL    HW2 3335   1.632   2.553   4.127
 1099SOL     OW 3336   0.354   3.372   5.053
 1099SOL    HW1 3337   0.333   3.328   4.966
 1099SOL    HW2 3338   0.451   3.398   5.056
 1100SOL     OW 3339   0.573   2.732   4.753
 1100SOL    HW1 3340   0.617   2.821   4.744
 1100SOL    HW2 3341   0.510   2.732   4.830
 1101SOL     OW 3342   1.360   2.724   4.769
 1101SOL    HW1 3343   1.285   2.724   4.703
 1101SOL    HW2 3344   1.397   2.632   4.778
 1102SOL     OW 3345   1.209   2.387   3.999
 1102SOL    HW1 3346   1.222   2.303   4.053
 1102SOL    HW2 3347   1.180   2.461   4.059
 1103SOL     OW 3348   0.307   2.075   4.955
 1103SOL    HW1 3349   0.284   2.112   5.045
 1103SOL    HW2 3350   0.277   1.980   4.949
 1104SOL     OW 3351   0.037   3.172   5.006
 1104SOL    HW1 3352   0.090   3.123   5.074
 1104SOL    HW2 3353   0.059   3.270   5.011
 1105SOL     OW 3354   0.732   2.496   4.788
 1105SOL    HW1 3355   0.791   2.470   4.712
 1105SOL    HW2 3356   0.704   2.592   4.777
 1106SOL     OW 3357   0.307   1.925   4.342
 1106SOL    HW1 3358   0.296   2.019   4.375
 1106SOL    HW2 3359   0.302   1.862   4.419
 1107SOL     OW 3360   1.622   2.229   4.098
 1107SOL    HW1 3361   1.624   2.153   4.162
 1107SOL    HW2 3362   1.574   2.306   4.138
 1108SOL     OW 3363   1.023   2.628   4.690
 1108SOL    HW1 3364   1.038   2.649   4.786
 1108SOL    HW2 3365   0.993   2.533   4.681
 1109SOL     OW 3366   1.540   2.136   3.849
 1109SOL    HW1 3367   1.479   2.061   3.872
 1109SOL    HW2 3368   1.562   2.188   3.932
 1110SOL     OW 3369   1.303   2.700   3.766
 1110SOL    HW1 3370   1.337   2.607   3.781
 1110SOL    HW2 3371   1.321   2.727   3.671
 1111SOL     OW 3372   1.068   3.195   4.573
 1111SOL    HW1 3373   1.075   3.111   4.518
 1111SOL    HW2 3374   1.130   3.264   4.537
 1112SOL     OW 3375   0.319   2.672   4.673
 1112SOL    HW1 3376   0.412   2.708   4.678
 1112SOL    HW2 3377   0.313   2.587   4.725
 1113SOL     OW 3378   0.339   2.371   4.730
 1113SOL    HW1 3379   0.287   2.288   4.713
 1113SOL    HW2 3380   0.416   2.376   4.666
 1114SOL     OW 3381   1.160   2.069   5.201
 1114SOL    HW1 3382   1.160   2.133   5.278
 1114SOL    HW2 3383   1.188   2.117   5.118
 1115SOL     OW 3384   0.008   3.188   3.924
 1115SOL    HW1 3385  -0.085   3.209   3.893
 1115SOL    HW2 3386   0.018   3.089   3.937
 1116SOL     OW 3387   0.088   3.663   4.651
 1116SOL    HW1 3388   0.046   3.577   4.624
 1116SOL    HW2 3389   0.182   3.666   4.617
 1117SOL     OW 3390   0.504   3.430   4.634
 1117SOL    HW1 3391   0.570   3.504   4.643
 1117SOL    HW2 3392   0.548   3.351   4.592
 1118SOL     OW 3393   1.002   2.658   4.962
 1118SOL    HW1 3394   1.043   2.626   5.048
 1118SOL    HW2 3395   0.906   2.631   4.959
 1119SOL     OW 3396   0.040   2.406   4.838
 1119SOL    HW1 3397   0.125   2.373   4.797
 1119SOL    HW2 3398   0.053   2.421   4.936
 1120SOL     OW 3399   0.815   2.434   4.049
 1120SOL    HW1 3400   0.822   2.345   4.003
 1120SOL    HW2 3401   0.721   2.468   4.041
 1121SOL     OW 3402   1.657   2.466   4.930
 1121SOL    HW1 3403   1.619   2.397   4.992
 1121SOL    HW2 3404   1.739   2.430   4.886
 1122SOL     OW 3405   0.671   2.326   4.993
 1122SOL    HW1 3406   0.637   2.237   4.963
 1122SOL    HW2 3407   0.697   2.380   4.913
 1123SOL     OW 3408   0.930   3.540   5.189
 1123SOL    HW1 3409   0.906   3.522   5.094
 1123SOL    HW2 3410   0.960   3.634   5.199
 1124SOL     OW 3411   0.473   2.362   3.915
 1124SOL    HW1 3412   0.534   2.442   3.919
 1124SOL    HW2 3413   0.378   2.393   3.922
 1125SOL     OW 3414   0.159   2.999   5.190
 1125SOL    HW1 3415   0.181   2.938   5.266
 1125SOL    HW2 3416   0.169   2.950   5.104
 1126SOL     OW 3417   1.347   2.921   4.958
 1126SOL    HW1 3418   1.371   2.858   4.884
 1126SOL    HW2 3419   1.257   2.961   4.940
 1127SOL     OW 3420   1.302   2.717   4.033
 1127SOL    HW1 3421   1.216   2.686   4.075
 1127SOL    HW2 3422   1.298   2.703   3.934
 1128SOL     OW 3423   1.759   3.609   4.878
 1128SOL    HW1 3424   1.820   3.639   4.805
 1128SOL    HW2 3425   1.721   3.520   4.856
 1129SOL     OW 3426   1.252   3.593   4.852
 1129SOL    HW1 3427   1.336   3.598   4.798
 1129SOL    HW2 3428   1.229   3.497   4.870
 1130SOL     OW 3429   0.083   3.120   4.746
 1130SOL    HW1 3430   0.078   3.119   4.846
 1130SOL    HW2 3431   0.000   3.079   4.708
 1131SOL     OW 3432   1.726   1.997   4.247
 1131SOL    HW1 3433   1.799   1.980   4.180
 1131SOL    HW2 3434   1.695   1.910   4.285
 1132SOL     OW 3435   1.388   3.435   4.201
 1132SOL    HW1 3436   1.455   3.447   4.127
 1132SOL    HW2 3437   1.348   3.524   4.224
 1133SOL     OW 3438   1.280   2.789   4.396
 1133SOL    HW1 3439   1.340   2.708   4.398
 1133SOL    HW2 3440   1.320   2.858   4.336
 1134SOL     OW 3441   0.672   3.478   3.878
 1134SOL    HW1 3442   0.681   3.488   3.779
 1134SOL    HW2 3443   0.632   3.389   3.899
 1135SOL     OW 3444   1.841   2.037   4.687
 1135SOL    HW1 3445   1.880   1.952   4.651
 1135SOL    HW2 3446   1.743   2.039   4.668
 1136SOL     OW 3447   0.263   2.188   4.444
 1136SOL    HW1 3448   0.184   2.239   4.410
 1136SOL    HW2 3449   0.254   2.173   4.542
 1137SOL     OW 3450   1.194   3.474   3.755
 1137SOL    HW1 3451   1.200   3.381   3.792
 1137SOL    HW2 3452   1.135   3.474   3.675
 1138SOL     OW 3453   0.822   2.864   5.096
 1138SOL    HW1 3454   0.862   2.863   5.004
 1138SOL    HW2 3455   0.832   2.956   5.136
 1139SOL     OW 3456   0.916   2.772   4.015
 1139SOL    HW1 3457   0.979   2.810   3.947
 1139SOL    HW2 3458   0.956   2.689   4.054
 1140SOL     OW 3459   1.504   3.469   3.768
 1140SOL    HW1 3460   1.412   3.506   3.775
 1140SOL    HW2 3461   1.542   3.489   3.678
 1141SOL     OW 3462   0.372   3.150   5.214
 1141SOL    HW1 3463   0.359   3.243   5.180
 1141SOL    HW2 3464   0.288   3.098   5.201
 1142SOL     OW 3465   1.614   3.154   5.013
 1142SOL    HW1 3466   1.674   3.157   5.093
 1142SOL    HW2 3467   1.539   3.218   5.026
 1143SOL     OW 3468   1.039   2.960   4.420
 1143SOL    HW1 3469   0.969   2.913   4.474
 1143SOL    HW2 3470   1.098   2.892   4.377
 1144SOL     OW 3471   1.014   2.098   4.695
 1144SOL    HW1 3472   1.006   2.062   4.602
 1144SOL    HW2 3473   1.012   2.022   4.760
 1145SOL     OW 3474   0.590   3.349   4.215
 1145SOL    HW1 3475   0.632   3.291   4.145
 1145SOL    HW2 3476   0.546   3.428   4.171
 1146SOL     OW 3477   1.709   2.247   5.105
 1146SOL    HW1 3478   1.782   2.316   5.109
 1146SOL    HW2 3479   1.737   2.172   5.046
 1147SOL     OW 3480   0.255   3.210   4.014
 1147SOL    HW1 3481   0.159   3.211   3.987
 1147SOL    HW2 3482   0.267   3.263   4.098
 1148SOL     OW 3483   0.672   2.065   5.213
 1148SOL    HW1 3484   0.762   2.049   5.173
 1148SOL    HW2 3485   0.680   2.070   5.312
 1149SOL     OW 3486   0.075   2.207   3.757
 1149SOL    HW1 3487  -0.017   2.179   3.728
 1149SOL    HW2 3488   0.106   2.284   3.701
 1150SOL     OW 3489   0.072   2.028   4.042
 1150SOL    HW1 3490   0.055   2.111   3.988
 1150SOL    HW2 3491   0.162   1.991   4.020
 1151SOL     OW 3492   1.183   3.197   3.843
 1151SOL    HW1 3493   1.084   3.186   3.845
 1151SOL    HW2 3494   1.217   3.212   3.936
 1152SOL     OW 3495   0.613   2.704   5.155
 1152SOL    HW1 3496   0.669   2.785   5.138
 1152SOL    HW2 3497   0.672   2.624   5.158
 1153SOL     OW 3498   1.493   3.629   4.683
 1153SOL    HW1 3499   1.526   3.693   4.614
 1153SOL    HW2 3500   1.559   3.623   4.758
 1154SOL     OW 3501   0.390   3.603   5.284
 1154SOL    HW1 3502   0.299   3.644   5.282
 1154SOL    HW2 3503   0.383   3.509   5.316
 1155SOL     OW 3504   1.674   2.745   4.978
 1155SOL    HW1 3505   1.647   2.656   4.941
 1155SOL    HW2 3506   1.675   2.813   4.905
 1156SOL     OW 3507   1.225   2.187   4.173
 1156SOL    HW1 3508   1.290   2.113   4.162
 1156SOL    HW2 3509   1.245   2.237   4.257
 1157SOL     OW 3510   0.594   2.607   4.376
 1157SOL    HW1 3511   0.644   2.692   4.357
 1157SOL    HW2 3512   0.506   2.609   4.328
 1158SOL     OW 3513   1.730   2.796   5.241
 1158SOL    HW1 3514   1.768   2.887   5.256
 1158SOL    HW2 3515   1.722   2.779   5.142
 1159SOL     OW 3516   0.859   3.236   3.740
 1159SOL    HW1 3517   0.813   3.251   3.828
 1159SOL    HW2 3518   0.903   3.321   3.710
 1160SOL     OW 3519   0.661   3.652   4.677
 1160SOL    HW1 3520   0.615   3.740   4.664
 1160SOL    HW2 3521   0.760   3.664   4.670
 1161SOL     OW 3522   0.859   2.818   4.585
 1161SOL    HW1 3523   0.913   2.749   4.633
 1161SOL    HW2 3524   0.827   2.887   4.651
 1162SOL     OW 3525   1.083   2.846   3.811
 1162SOL    HW1 3526   1.060   2.899   3.729
 1162SOL    HW2 3527   1.164   2.790   3.792
 1163SOL     OW 3528   1.861   3.431   4.575
 1163SOL    HW1 3529   1.790   3.419   4.505
 1163SOL    HW2 3530   1.862   3.352   4.635
 1164SOL     OW 3531   0.079   3.102   4.377
 1164SOL    HW1 3532   0.078   3.055   4.465
 1164SOL    HW2 3533   0.161   3.074   4.326
 1165SOL     OW 3534   1.824   2.054   4.951
 1165SOL    HW1 3535   1.820   1.964   4.995
 1165SOL    HW2 3536   1.827   2.043   4.852
 1166SOL     OW 3537   0.428   2.286   4.244
 1166SOL    HW1 3538   0.458   2.214   4.182
 1166SOL    HW2 3539   0.389   2.246   4.327
 1167SOL     OW 3540   1.705   3.349   4.828
 1167SOL    HW1 3541   1.612   3.324   4.801
 1167SOL    HW2 3542   1.731   3.299   4.910
 1168SOL     OW 3543   0.317   2.409   5.004
 1168SOL    HW1 3544   0.355   2.350   5.076
 1168SOL    HW2 3545   0.357   2.383   4.916
 1169SOL     OW 3546   0.812   3.448   4.411
 1169SOL    HW1 3547   0.844   3.458   4.317
 1169SOL    HW2 3548   0.733   3.386   4.413
 1170SOL     OW 3549   1.424   2.076   4.836
 1170SOL    HW1 3550   1.476   2.011   4.891
 1170SOL    HW2 3551   1.375   2.139   4.897
 1171SOL     OW 3552   1.001   1.896   4.878
 1171SOL    HW1 3553   0.938   1.824   4.847
 1171SOL    HW2 3554   1.094   1.860   4.878
 1172SOL     OW 3555   0.770   3.192   4.025
 1172SOL    HW1 3556   0.724   3.105   4.042
 1172SOL    HW2 3557   0.861   3.189   4.066
 1173SOL     OW 3558   0.618   3.429   5.008
 1173SOL    HW1 3559   0.613   3.511   5.065
 1173SOL    HW2 3560   0.707   3.426   4.963
 1174SOL     OW 3561   1.352   1.914   3.892
 1174SOL    HW1 3562   1.387   1.873   3.808
 1174SOL    HW2 3563   1.262   1.876   3.912
 1175SOL     OW 3564   1.300   2.315   4.415
 1175SOL    HW1 3565   1.241   2.395   4.419
 1175SOL    HW2 3566   1.315   2.280   4.508
 1176SOL     OW 3567   1.593   2.083   4.606
 1176SOL    HW1 3568   1.509   2.082   4.660
 1176SOL    HW2 3569   1.595   2.166   4.550
 1177SOL     OW 3570   0.039   2.939   4.024
 1177SOL    HW1 3571   0.138   2.928   4.015
 1177SOL    HW2 3572  -0.001   2.853   4.056
 1178SOL     OW 3573   0.875   3.508   4.061
 1178SOL    HW1 3574   0.798   3.473   4.007
 1178SOL    HW2 3575   0.843   3.579   4.123
 1179SOL     OW 3576   0.230   4.352   0.113
 1179SOL    HW1 3577   0.137   4.350   0.150
 1179SOL    HW2 3578   0.231   4.313   0.021
 1180SOL     OW 3579   0.225   3.999   0.996
 1180SOL    HW1 3580   0.260   3.982   1.088
 1180SOL    HW2 3581   0.137   3.954   0.984
 1181SOL     OW 3582   0.019   4.092   0.647
 1181SOL    HW1 3583  -0.063   4.135   0.686
 1181SOL    HW2 3584  -0.009   4.019   0.584
 1182SOL     OW 3585   0.569   4.999   1.165
 1182SOL    HW1 3586   0.476   4.992   1.128
 1182SOL    HW2 3587   0.580   5.088   1.209
 1183SOL     OW 3588   1.555   5.235   0.703
 1183SOL    HW1 3589   1.498   5.219   0.784
 1183SOL    HW2 3590   1.496   5.245   0.623
 1184SOL     OW 3591   1.135   4.427   0.717
 1184SOL    HW1 3592   1.192   4.505   0.692
 1184SOL    HW2 3593   1.075   4.453   0.793
 1185SOL     OW 3594   1.755   4.331   0.231
 1185SOL    HW1 3595   1.743   4.318   0.132
 1185SOL    HW2 3596   1.725   4.250   0.280
 1186SOL     OW 3597   0.768   4.868   1.023
 1186SOL    HW1 3598   0.690   4.885   1.083
 1186SOL    HW2 3599   0.802   4.955   0.987
 1187SOL     OW 3600   0.850   4.522   1.823
 1187SOL    HW1 3601   0.846   4.598   1.888
 1187SOL    HW2 3602   0.872   4.558   1.732
 1188SOL     OW 3603   0.685   4.736   0.665
 1188SOL    HW1 3604   0.754   4.720   0.735
 1188SOL    HW2 3605   0.612   4.793   0.703
 1189SOL     OW 3606   0.686   4.885   1.803
 1189SOL    HW1 3607   0.746   4.964   1.817
 1189SOL    HW2 3608   0.600   4.916   1.762
 1190SOL     OW 3609   0.335   5.159   1.061
 1190SOL    HW1 3610   0.257   5.128   1.008
 1190SOL    HW2 3611   0.393   5.217   1.004
 1191SOL     OW 3612   0.438   4.116   1.499
 1191SOL    HW1 3613   0.520   4.060   1.508
 1191SOL    HW2 3614   0.357   4.058   1.503
 1192SOL     OW 3615   1.603   4.171   0.737
 1192SOL    HW1 3616   1.529   4.217   0.687
 1192SOL    HW2 3617   1.654   4.239   0.790
 1193SOL     OW 3618   1.127   5.065   1.690
 1193SOL    HW1 3619   1.174   5.065   1.778
 1193SOL    HW2 3620   1.079   4.978   1.679
 1194SOL     OW 3621   0.240   4.815   0.886
 1194SOL    HW1 3622   0.254   4.731   0.938
 1194SOL    HW2 3623   0.185   4.879   0.941
 1195SOL     OW 3624   0.606   4.688   0.123
 1195SOL    HW1 3625   0.613   4.772   0.069
 1195SOL    HW2 3626   0.652   4.701   0.211
 1196SOL     OW 3627   1.594   3.838   1.480
 1196SOL    HW1 3628   1.576   3.905   1.408
 1196SOL    HW2 3629   1.591   3.884   1.569
 1197SOL     OW 3630   0.122   4.367   0.563
 1197SOL    HW1 3631   0.077   4.279   0.580
 1197SOL    HW2 3632   0.121   4.421   0.647
 1198SOL     OW 3633   1.689   4.646   0.612
 1198SOL    HW1 3634   1.784   4.617   0.620
 1198SOL    HW2 3635   1.681   4.711   0.537
 1199SOL     OW 3636   1.641   4.832   0.432
 1199SOL    HW1 3637   1.727   4.834   0.380
 1199SOL    HW2 3638   1.655   4.879   0.520
 1200SOL     OW 3639   0.113   4.461   1.597
 1200SOL    HW1 3640   0.201   4.448   1.642
 1200SOL    HW2 3641   0.100   4.558   1.575
 1201SOL     OW 3642   0.613   5.089   0.726
 1201SOL    HW1 3643   0.564   5.002   0.735
 1201SOL    HW2 3644   0.590   5.132   0.639
 1202SOL     OW 3645   1.293   4.952   1.423
 1202SOL    HW1 3646   1.330   4.879   1.365
 1202SOL    HW2 3647   1.345   4.957   1.508
 1203SOL     OW 3648   0.809   3.728   0.502
 1203SOL    HW1 3649   0.849   3.819   0.493
 1203SOL    HW2 3650   0.709   3.736   0.508
 1204SOL     OW 3651   0.197   4.700   1.264
 1204SOL    HW1 3652   0.286   4.655   1.250
 1204SOL    HW2 3653   0.124   4.635   1.245
 1205SOL     OW 3654   1.525   4.723   0.190
 1205SOL    HW1 3655   1.462   4.647   0.203
 1205SOL    HW2 3656   1.573   4.741   0.276
 1206SOL     OW 3657   0.317   3.975   1.801
 1206SOL    HW1 3658   0.388   4.046   1.807
 1206SOL    HW2 3659   0.229   4.014   1.829
 1207SOL     OW 3660   1.466   5.141   0.953
 1207SOL    HW1 3661   1.407   5.147   1.033
 1207SOL    HW2 3662   1.451   5.053   0.907
 1208SOL     OW 3663   0.598   4.453   0.270
 1208SOL    HW1 3664   0.622   4.522   0.202
 1208SOL    HW2 3665   0.520   4.486   0.324
 1209SOL     OW 3666   1.281   4.069   0.944
 1209SOL    HW1 3667   1.195   4.019   0.931
 1209SOL    HW2 3668   1.343   4.015   1.000
 1210SOL     OW 3669   0.807   4.329   1.465
 1210SOL    HW1 3670   0.760   4.326   1.554
 1210SOL    HW2 3671   0.756   4.274   1.399
 1211SOL     OW 3672   1.394   4.193   1.674
 1211SOL    HW1 3673   1.374   4.236   1.762
 1211SOL    HW2 3674   1.472   4.131   1.683
 1212SOL     OW 3675   0.973   4.614   1.572
 1212SOL    HW1 3676   1.019   4.530   1.543
 1212SOL    HW2 3677   0.917   4.648   1.497
 1213SOL     OW 3678   0.991   4.134   1.242
 1213SOL    HW1 3679   0.914   4.168   1.296
 1213SOL    HW2 3680   0.957   4.083   1.163
 1214SOL     OW 3681   1.041   4.425   0.429
 1214SOL    HW1 3682   1.067   4.421   0.525
 1214SOL    HW2 3683   0.956   4.374   0.415
 1215SOL     OW 3684   0.076   4.535   0.789
 1215SOL    HW1 3685   0.175   4.523   0.798
 1215SOL    HW2 3686   0.052   4.630   0.810
 1216SOL     OW 3687   0.865   4.072   0.195
 1216SOL    HW1 3688   0.924   4.135   0.146
 1216SOL    HW2 3689   0.884   3.978   0.166
 1217SOL     OW 3690   1.719   4.309   1.831
 1217SOL    HW1 3691   1.693   4.398   1.795
 1217SOL    HW2 3692   1.717   4.241   1.758
 1218SOL     OW 3693   1.362   4.868   0.545
 1218SOL    HW1 3694   1.445   4.839   0.497
 1218SOL    HW2 3695   1.313   4.935   0.489
 1219SOL     OW 3696   0.550   3.920   0.885
 1219SOL    HW1 3697   0.545   3.915   0.985
 1219SOL    HW2 3698   0.552   4.016   0.856
 1220SOL     OW 3699   1.795   4.790   0.873
 1220SOL    HW1 3700   1.733   4.775   0.797
 1220SOL    HW2 3701   1.743   4.801   0.958
 1221SOL     OW 3702   0.321   4.667   0.242
 1221SOL    HW1 3703   0.403   4.706   0.200
 1221SOL    HW2 3704   0.294   4.585   0.193
 1222SOL     OW 3705   1.458   4.459   0.728
 1222SOL    HW1 3706   1.453   4.394   0.803
 1222SOL    HW2 3707   1.538   4.518   0.741
 1223SOL     OW 3708   0.461   4.990   1.727
 1223SOL    HW1 3709   0.411   4.991   1.641
 1223SOL    HW2 3710   0.398   4.972   1.803
 1224SOL     OW 3711   0.202   4.009   1.498
 1224SOL    HW1 3712   0.122   4.069   1.485
 1224SOL    HW2 3713   0.192   3.960   1.584
 1225SOL     OW 3714   1.632   5.101   0.081
 1225SOL    HW1 3715   1.600   5.195   0.071
 1225SOL    HW2 3716   1.556   5.038   0.069
 1226SOL     OW 3717   1.400   3.831   0.426
 1226SOL    HW1 3718   1.376   3.794   0.336
 1226SOL    HW2 3719   1.499   3.847   0.430
 1227SOL     OW 3720   0.382   4.424   0.480
 1227SOL    HW1 3721   0.427   4.334   0.477
 1227SOL    HW2 3722   0.288   4.413   0.513
 1228SOL     OW 3723   1.547   3.946   1.729
 1228SOL    HW1 3724   1.542   3.983   1.821
 1228SOL    HW2 3725   1.475   3.877   1.717
 1229SOL     OW 3726   0.781   3.988   1.749
 1229SOL    HW1 3727   0.848   3.927   1.792
 1229SOL    HW2 3728   0.708   4.007   1.814
 1230SOL     OW 3729   1.351   4.314   1.433
 1230SOL    HW1 3730   1.379   4.271   1.518
 1230SOL    HW2 3731   1.376   4.410   1.434
 1231SOL     OW 3732   0.922   4.227   0.899
 1231SOL    HW1 3733   0.897   4.218   0.803
 1231SOL    HW2 3734   0.970   4.145   0.930
 1232SOL     OW 3735   0.539   3.788   0.512
 1232SOL    HW1 3736   0.458   3.789   0.570
 1232SOL    HW2 3737   0.542   3.871   0.457
 1233SOL     OW 3738   1.434   4.912   0.041
 1233SOL    HW1 3739   1.466   4.836   0.098
 1233SOL    HW2 3740   1.342   4.939   0.071
 1234SOL     OW 3741   0.935   3.960   0.480
 1234SOL    HW1 3742   0.887   4.001   0.402
 1234SOL    HW2 3743   1.034   3.958   0.461
 1235SOL     OW 3744   1.076   4.407   1.464
 1235SOL    HW1 3745   0.996   4.346   1.467
 1235SOL    HW2 3746   1.157   4.354   1.440
 1236SOL     OW 3747   1.227   5.294   0.793
 1236SOL    HW1 3748   1.248   5.368   0.728
 1236SOL    HW2 3749   1.295   5.294   0.866
 1237SOL     OW 3750   0.459   4.876   0.741
 1237SOL    HW1 3751   0.388   4.849   0.806
 1237SOL    HW2 3752   0.433   4.848   0.648
 1238SOL     OW 3753   1.032   4.273   0.016
 1238SOL    HW1 3754   0.991   4.355  -0.023
 1238SOL    HW2 3755   1.096   4.299   0.089
 1239SOL     OW 3756   0.078   4.280   1.386
 1239SOL    HW1 3757   0.170   4.279   1.345
 1239SOL    HW2 3758   0.072   4.354   1.453
 1240SOL     OW 3759   0.561   3.946   1.147
 1240SOL    HW1 3760   0.599   3.862   1.184
 1240SOL    HW2 3761   0.473   3.965   1.191
 1241SOL     OW 3762   0.866   4.178   0.642
 1241SOL    HW1 3763   0.834   4.250   0.580
 1241SOL    HW2 3764   0.890   4.097   0.589
 1242SOL     OW 3765   1.017   3.763   0.753
 1242SOL    HW1 3766   0.945   3.768   0.684
 1242SOL    HW2 3767   0.993   3.694   0.822
 1243SOL     OW 3768   1.429   4.897   0.867
 1243SOL    HW1 3769   1.374   4.813   0.860
 1243SOL    HW2 3770   1.455   4.926   0.775
 1244SOL     OW 3771   1.466   4.314   0.992
 1244SOL    HW1 3772   1.436   4.219   0.999
 1244SOL    HW2 3773   1.539   4.330   1.058
 1245SOL     OW 3774   1.857   4.557   0.377
 1245SOL    HW1 3775   1.899   4.493   0.441
 1245SOL    HW2 3776   1.819   4.506   0.299
 1246SOL     OW 3777   1.664   5.004   0.657
 1246SOL    HW1 3778   1.763   5.012   0.671
 1246SOL    HW2 3779   1.619   5.088   0.688
 1247SOL     OW 3780   1.390   4.299   0.078
 1247SOL    HW1 3781   1.336   4.278   0.159
 1247SOL    HW2 3782   1.481   4.258   0.087
 1248SOL     OW 3783   0.527   3.980   0.328
 1248SOL    HW1 3784   0.554   3.921   0.253
 1248SOL    HW2 3785   0.527   4.075   0.297
 1249SOL     OW 3786   1.754   4.947   1.588
 1249SOL    HW1 3787   1.845   4.908   1.575
 1249SOL    HW2 3788   1.762   5.043   1.612
 1250SOL     OW 3789   1.064   5.071   1.340
 1250SOL    HW1 3790   0.984   5.048   1.395
 1250SOL    HW2 3791   1.147   5.045   1.389
 1251SOL     OW 3792   1.111   4.919   1.100
 1251SOL    HW1 3793   1.071   4.963   1.181
 1251SOL    HW2 3794   1.070   4.956   1.017
 1252SOL     OW 3795   1.638   4.823   1.079
 1252SOL    HW1 3796   1.643   4.904   1.138
 1252SOL    HW2 3797   1.552   4.825   1.028
 1253SOL     OW 3798   0.915   3.813   1.402
 1253SOL    HW1 3799   0.940   3.793   1.307
 1253SOL    HW2 3800   0.987   3.869   1.444
 1254SOL     OW 3801   0.980   4.840   1.719
 1254SOL    HW1 3802   0.881   4.846   1.729
 1254SOL    HW2 3803   1.003   4.760   1.663
 1255SOL     OW 3804   0.705   4.774   0.368
 1255SOL    HW1 3805   0.691   4.781   0.467
 1255SOL    HW2 3806   0.789   4.723   0.350
 1256SOL     OW 3807   0.410   4.537   1.251
 1256SOL    HW1 3808   0.496   4.549   1.301
 1256SOL    HW2 3809   0.368   4.450   1.278
 1257SOL     OW 3810   1.274   4.110   1.262
 1257SOL    HW1 3811   1.295   4.184   1.326
 1257SOL    HW2 3812   1.185   4.127   1.219
 1258SOL     OW 3813   0.064   5.288   1.331
 1258SOL    HW1 3814   0.018   5.370   1.297
 1258SOL    HW2 3815   0.162   5.307   1.340
 1259SOL     OW 3816   0.367   4.824   0.501
 1259SOL    HW1 3817   0.360   4.907   0.445
 1259SOL    HW2 3818   0.371   4.744   0.441
 1260SOL     OW 3819   0.566   4.261   0.865
 1260SOL    HW1 3820   0.578   4.327   0.791
 1260SOL    HW2 3821   0.612   4.295   0.948
 1261SOL     OW 3822   1.252   5.072   0.388
 1261SOL    HW1 3823   1.302   5.149   0.428
 1261SOL    HW2 3824   1.157   5.074   0.420
 1262SOL     OW 3825   1.582   4.363   0.472
 1262SOL    HW1 3826   1.551   4.424   0.545
 1262SOL    HW2 3827   1.632   4.415   0.403
 1263SOL     OW 3828   0.402   4.475   1.598
 1263SOL    HW1 3829   0.470   4.530   1.551
 1263SOL    HW2 3830   0.442   4.387   1.625
 1264SOL     OW 3831   1.587   4.503   1.670
 1264SOL    HW1 3832   1.495   4.541   1.665
 1264SOL    HW2 3833   1.647   4.550   1.605
 1265SOL     OW 3834   1.013   3.829   1.770
 1265SOL    HW1 3835   1.019   3.914   1.718
 1265SOL    HW2 3836   1.045   3.753   1.713
 1266SOL     OW 3837   0.504   3.774   1.740
 1266SOL    HW1 3838   0.462   3.717   1.670
 1266SOL    HW2 3839   0.438   3.843   1.772
 1267SOL     OW 3840   0.573   4.594   1.029
 1267SOL    HW1 3841   0.617   4.683   1.020
 1267SOL    HW2 3842   0.510   4.594   1.106
 1268SOL     OW 3843   1.360   4.586   1.045
 1268SOL    HW1 3844   1.285   4.586   0.979
 1268SOL    HW2 3845   1.397   4.494   1.054
 1269SOL     OW 3846   1.209   4.249   0.275
 1269SOL    HW1 3847   1.222   4.165   0.329
 1269SOL    HW2 3848   1.180   4.323   0.335
 1270SOL     OW 3849   0.307   3.937   1.231
 1270SOL    HW1 3850   0.284   3.974   1.321
 1270SOL    HW2 3851   0.277   3.842   1.225
 1271SOL     OW 3852   0.037   5.034   1.282
 1271SOL    HW1 3853   0.090   4.985   1.350
 1271SOL    HW2 3854   0.059   5.132   1.287
 1272SOL     OW 3855   0.732   4.358   1.064
 1272SOL    HW1 3856   0.791   4.332   0.988
 1272SOL    HW2 3857   0.704   4.454   1.053
 1273SOL     OW 3858   1.728   4.659   1.854
 1273SOL    HW1 3859   1.682   4.652   1.765
 1273SOL    HW2 3860   1.666   4.703   1.920
 1274SOL     OW 3861   0.307   3.787   0.618
 1274SOL    HW1 3862   0.296   3.881   0.651
 1274SOL    HW2 3863   0.302   3.724   0.695
 1275SOL     OW 3864   1.622   4.091   0.374
 1275SOL    HW1 3865   1.624   4.015   0.438
 1275SOL    HW2 3866   1.574   4.168   0.414
 1276SOL     OW 3867   1.023   4.490   0.966
 1276SOL    HW1 3868   1.038   4.511   1.062
 1276SOL    HW2 3869   0.993   4.395   0.957
 1277SOL     OW 3870   1.859   5.242   1.605
 1277SOL    HW1 3871   1.873   5.269   1.510
 1277SOL    HW2 3872   1.942   5.264   1.658
 1278SOL     OW 3873   0.350   4.622   1.804
 1278SOL    HW1 3874   0.426   4.666   1.852
 1278SOL    HW2 3875   0.385   4.575   1.722
 1279SOL     OW 3876   1.540   3.998   0.125
 1279SOL    HW1 3877   1.479   3.923   0.148
 1279SOL    HW2 3878   1.562   4.050   0.208
 1280SOL     OW 3879   1.303   4.562   0.042
 1280SOL    HW1 3880   1.337   4.469   0.057
 1280SOL    HW2 3881   1.321   4.589  -0.053
 1281SOL     OW 3882   0.319   4.534   0.949
 1281SOL    HW1 3883   0.412   4.570   0.954
 1281SOL    HW2 3884   0.313   4.449   1.001
 1282SOL     OW 3885   0.339   4.233   1.006
 1282SOL    HW1 3886   0.287   4.150   0.989
 1282SOL    HW2 3887   0.416   4.238   0.942
 1283SOL     OW 3888   1.138   4.104   1.678
 1283SOL    HW1 3889   1.093   4.167   1.742
 1283SOL    HW2 3890   1.231   4.135   1.661
 1284SOL     OW 3891   1.160   3.931   1.477
 1284SOL    HW1 3892   1.160   3.995   1.554
 1284SOL    HW2 3893   1.188   3.979   1.394
 1285SOL     OW 3894   0.008   5.050   0.200
 1285SOL    HW1 3895  -0.085   5.071   0.169
 1285SOL    HW2 3896   0.018   4.951   0.213
 1286SOL     OW 3897   1.002   4.520   1.238
 1286SOL    HW1 3898   1.043   4.488   1.324
 1286SOL    HW2 3899   0.906   4.493   1.235
 1287SOL     OW 3900   0.040   4.268   1.114
 1287SOL    HW1 3901   0.125   4.235   1.073
 1287SOL    HW2 3902   0.053   4.283   1.212
 1288SOL     OW 3903   0.189   4.244   1.722
 1288SOL    HW1 3904   0.248   4.204   1.652
 1288SOL    HW2 3905   0.131   4.315   1.681
 1289SOL     OW 3906   1.369   4.674   1.660
 1289SOL    HW1 3907   1.408   4.763   1.680
 1289SOL    HW2 3908   1.379   4.654   1.563
 1290SOL     OW 3909   0.815   4.296   0.325
 1290SOL    HW1 3910   0.822   4.207   0.279
 1290SOL    HW2 3911   0.721   4.330   0.317
 1291SOL     OW 3912   1.657   4.328   1.206
 1291SOL    HW1 3913   1.619   4.259   1.268
 1291SOL    HW2 3914   1.739   4.292   1.162
 1292SOL     OW 3915   0.671   4.188   1.269
 1292SOL    HW1 3916   0.637   4.099   1.239
 1292SOL    HW2 3917   0.697   4.242   1.189
 1293SOL     OW 3918   0.473   4.224   0.191
 1293SOL    HW1 3919   0.534   4.304   0.195
 1293SOL    HW2 3920   0.378   4.255   0.198
 1294SOL     OW 3921   0.159   4.861   1.466
 1294SOL    HW1 3922   0.181   4.800   1.542
 1294SOL    HW2 3923   0.169   4.812   1.380
 1295SOL     OW 3924   1.347   4.783   1.234
 1295SOL    HW1 3925   1.371   4.720   1.160
 1295SOL    HW2 3926   1.257   4.823   1.216
 1296SOL     OW 3927   1.302   4.579   0.309
 1296SOL    HW1 3928   1.216   4.548   0.351
 1296SOL    HW2 3929   1.298   4.565   0.210
 1297SOL     OW 3930   0.083   4.982   1.022
 1297SOL    HW1 3931   0.078   4.981   1.122
 1297SOL    HW2 3932   0.000   4.941   0.984
 1298SOL     OW 3933   0.903   3.810   0.133
 1298SOL    HW1 3934   0.954   3.811   0.047
 1298SOL    HW2 3935   0.959   3.768   0.204
 1299SOL     OW 3936   1.726   3.859   0.523
 1299SOL    HW1 3937   1.799   3.842   0.456
 1299SOL    HW2 3938   1.695   3.772   0.561
 1300SOL     OW 3939   1.280   4.651   0.672
 1300SOL    HW1 3940   1.340   4.570   0.674
 1300SOL    HW2 3941   1.320   4.720   0.612
 1301SOL     OW 3942   0.830   4.997   1.422
 1301SOL    HW1 3943   0.825   5.030   1.517
 1301SOL    HW2 3944   0.744   5.016   1.376
 1302SOL     OW 3945   1.841   3.899   0.963
 1302SOL    HW1 3946   1.880   3.814   0.927
 1302SOL    HW2 3947   1.743   3.901   0.944
 1303SOL     OW 3948   0.263   4.050   0.720
 1303SOL    HW1 3949   0.184   4.101   0.686
 1303SOL    HW2 3950   0.254   4.035   0.818
 1304SOL     OW 3951   0.822   4.726   1.372
 1304SOL    HW1 3952   0.862   4.725   1.280
 1304SOL    HW2 3953   0.832   4.818   1.412
 1305SOL     OW 3954   0.916   4.634   0.291
 1305SOL    HW1 3955   0.979   4.672   0.223
 1305SOL    HW2 3956   0.956   4.551   0.330
 1306SOL     OW 3957   0.372   5.012   1.490
 1306SOL    HW1 3958   0.359   5.105   1.456
 1306SOL    HW2 3959   0.288   4.960   1.477
 1307SOL     OW 3960   1.614   5.016   1.289
 1307SOL    HW1 3961   1.674   5.019   1.369
 1307SOL    HW2 3962   1.539   5.080   1.302
 1308SOL     OW 3963   1.039   4.822   0.696
 1308SOL    HW1 3964   0.969   4.775   0.750
 1308SOL    HW2 3965   1.098   4.754   0.653
 1309SOL     OW 3966   1.014   3.960   0.971
 1309SOL    HW1 3967   1.006   3.924   0.878
 1309SOL    HW2 3968   1.012   3.884   1.036
 1310SOL     OW 3969   1.709   4.109   1.381
 1310SOL    HW1 3970   1.782   4.178   1.385
 1310SOL    HW2 3971   1.737   4.034   1.322
 1311SOL     OW 3972   0.105   4.737   1.726
 1311SOL    HW1 3973   0.028   4.704   1.780
 1311SOL    HW2 3974   0.190   4.707   1.768
 1312SOL     OW 3975   0.672   3.927   1.489
 1312SOL    HW1 3976   0.762   3.911   1.449
 1312SOL    HW2 3977   0.680   3.932   1.588
 1313SOL     OW 3978   0.075   4.069   0.033
 1313SOL    HW1 3979  -0.017   4.041   0.004
 1313SOL    HW2 3980   0.106   4.146  -0.023
 1314SOL     OW 3981   1.440   4.580   1.398
 1314SOL    HW1 3982   1.383   4.632   1.335
 1314SOL    HW2 3983   1.536   4.592   1.374
 1315SOL     OW 3984   0.072   3.890   0.318
 1315SOL    HW1 3985   0.055   3.973   0.264
 1315SOL    HW2 3986   0.162   3.853   0.296
 1316SOL     OW 3987   0.613   4.566   1.431
 1316SOL    HW1 3988   0.669   4.647   1.414
 1316SOL    HW2 3989   0.672   4.486   1.434
 1317SOL     OW 3990   0.716   4.289   1.708
 1317SOL    HW1 3991   0.735   4.354   1.782
 1317SOL    HW2 3992   0.776   4.209   1.717
 1318SOL     OW 3993   1.450   4.944   1.633
 1318SOL    HW1 3994   1.441   4.934   1.732
 1318SOL    HW2 3995   1.546   4.937   1.607
 1319SOL     OW 3996   1.674   4.607   1.254
 1319SOL    HW1 3997   1.647   4.518   1.217
 1319SOL    HW2 3998   1.675   4.675   1.181
 1320SOL     OW 3999   1.225   4.049   0.449
 1320SOL    HW1 4000   1.290   3.975   0.438
 1320SOL    HW2 4001   1.245   4.099   0.533
 1321SOL     OW 4002   0.594   4.469   0.652
 1321SOL    HW1 4003   0.644   4.554   0.633
 1321SOL    HW2 4004   0.506   4.471   0.604
 1322SOL     OW 4005   1.777   4.066   1.642
 1322SOL    HW1 4006   1.760   4.097   1.548
 1322SOL    HW2 4007   1.693   4.029   1.680
 1323SOL     OW 4008   1.730   4.658   1.517
 1323SOL    HW1 4009   1.768   4.749   1.532
 1323SOL    HW2 4010   1.722   4.641   1.418
 1324SOL     OW 4011   0.859   4.680   0.861
 1324SOL    HW1 4012   0.913   4.611   0.909
 1324SOL    HW2 4013   0.827   4.749   0.927
 1325SOL     OW 4014   1.083   4.708   0.087
 1325SOL    HW1 4015   1.060   4.761   0.005
 1325SOL    HW2 4016   1.164   4.652   0.068
 1326SOL     OW 4017   0.221   5.038   1.844
 1326SOL    HW1 4018   0.156   4.965   1.823
 1326SOL    HW2 4019   0.225   5.052   1.942
 1327SOL     OW 4020   0.079   4.964   0.653
 1327SOL    HW1 4021   0.078   4.917   0.741
 1327SOL    HW2 4022   0.161   4.936   0.602
 1328SOL     OW 4023   0.672   5.115   1.624
 1328SOL    HW1 4024   0.594   5.065   1.662
 1328SOL    HW2 4025   0.669   5.210   1.655
 1329SOL     OW 4026   1.824   3.916   1.227
 1329SOL    HW1 4027   1.820   3.826   1.271
 1329SOL    HW2 4028   1.827   3.905   1.128
 1330SOL     OW 4029   0.428   4.148   0.520
 1330SOL    HW1 4030   0.458   4.076   0.458
 1330SOL    HW2 4031   0.389   4.108   0.603
 1331SOL     OW 4032   1.705   5.211   1.104
 1331SOL    HW1 4033   1.612   5.186   1.077
 1331SOL    HW2 4034   1.731   5.161   1.186
 1332SOL     OW 4035   0.317   4.271   1.280
 1332SOL    HW1 4036   0.355   4.212   1.352
 1332SOL    HW2 4037   0.357   4.245   1.192
 1333SOL     OW 4038   1.424   3.938   1.112
 1333SOL    HW1 4039   1.476   3.873   1.167
 1333SOL    HW2 4040   1.375   4.001   1.173
 1334SOL     OW 4041   1.001   3.758   1.154
 1334SOL    HW1 4042   0.938   3.686   1.123
 1334SOL    HW2 4043   1.094   3.722   1.154
 1335SOL     OW 4044   0.770   5.054   0.301
 1335SOL    HW1 4045   0.724   4.967   0.318
 1335SOL    HW2 4046   0.861   5.051   0.342
 1336SOL     OW 4047   1.352   3.776   0.168
 1336SOL    HW1 4048   1.387   3.735   0.084
 1336SOL    HW2 4049   1.262   3.738   0.188
 1337SOL     OW 4050   1.300   4.177   0.691
 1337SOL    HW1 4051   1.241   4.257   0.695
 1337SOL    HW2 4052   1.315   4.142   0.784
 1338SOL     OW 4053   1.593   3.945   0.882
 1338SOL    HW1 4054   1.509   3.944   0.936
 1338SOL    HW2 4055   1.595   4.028   0.826
 1339SOL     OW 4056   0.039   4.801   0.300
 1339SOL    HW1 4057   0.138   4.790   0.291
 1339SOL    HW2 4058  -0.001   4.715   0.332
 1340SOL     OW 4059   0.230   4.352   1.975
 1340SOL    HW1 4060   0.137   4.350   2.012
 1340SOL    HW2 4061   0.231   4.313   1.883
 1341SOL     OW 4062   0.225   3.999   2.858
 1341SOL    HW1 4063   0.260   3.982   2.950
 1341SOL    HW2 4064   0.137   3.954   2.846
 1342SOL     OW 4065   0.019   4.092   2.509
 1342SOL    HW1 4066  -0.063   4.135   2.548
 1342SOL    HW2 4067  -0.009   4.019   2.446
 1343SOL     OW 4068   0.569   4.999   3.027
 1343SOL    HW1 4069   0.476   4.992   2.990
 1343SOL    HW2 4070   0.580   5.088   3.071
 1344SOL     OW 4071   1.555   5.235   2.565
 1344SOL    HW1 4072   1.498   5.219   2.646
 1344SOL    HW2 4073   1.496   5.245   2.485
 1345SOL     OW 4074   1.135   4.427   2.579
 1345SOL    HW1 4075   1.192   4.505   2.554
 1345SOL    HW2 4076   1.075   4.453   2.655
 1346SOL     OW 4077   1.755   4.331   2.093
 1346SOL    HW1 4078   1.743   4.318   1.994
 1346SOL    HW2 4079   1.725   4.250   2.142
 1347SOL     OW 4080   0.768   4.868   2.885
 1347SOL    HW1 4081   0.690   4.885   2.945
 1347SOL    HW2 4082   0.802   4.955   2.849
 1348SOL     OW 4083   0.850   4.522   3.685
 1348SOL    HW1 4084   0.846   4.598   3.750
 1348SOL    HW2 4085   0.872   4.558   3.594
 1349SOL     OW 4086   0.685   4.736   2.527
 1349SOL    HW1 4087   0.754   4.720   2.597
 1349SOL    HW2 4088   0.612   4.793   2.565
 1350SOL     OW 4089   0.686   4.885   3.665
 1350SOL    HW1 4090   0.746   4.964   3.679
 1350SOL    HW2 4091   0.600   4.916   3.624
 1351SOL     OW 4092   0.335   5.159   2.923
 1351SOL    HW1 4093   0.257   5.128   2.870
 1351SOL    HW2 4094   0.393   5.217   2.866
 1352SOL     OW 4095   0.438   4.116   3.361
 1352SOL    HW1 4096   0.520   4.060   3.370
 1352SOL    HW2 4097   0.357   4.058   3.365
 1353SOL     OW 4098   1.603   4.171   2.599
 1353SOL    HW1 4099   1.529   4.217   2.549
 1353SOL    HW2 4100   1.654   4.239   2.652
 1354SOL     OW 4101   1.127   5.065   3.552
 1354SOL    HW1 4102   1.174   5.065   3.640
 1354SOL    HW2 4103   1.079   4.978   3.541
 1355SOL     OW 4104   0.240   4.815   2.748
 1355SOL    HW1 4105   0.254   4.731   2.800
 1355SOL    HW2 4106   0.185   4.879   2.803
 1356SOL     OW 4107   0.606   4.688   1.985
 1356SOL    HW1 4108   0.613   4.772   1.931
 1356SOL    HW2 4109   0.652   4.701   2.073
 1357SOL     OW 4110   1.594   3.838   3.342
 1357SOL    HW1 4111   1.576   3.905   3.270
 1357SOL    HW2 4112   1.591   3.884   3.431
 1358SOL     OW 4113   0.122   4.367   2.425
 1358SOL    HW1 4114   0.077   4.279   2.442
 1358SOL    HW2 4115   0.121   4.421   2.509
 1359SOL     OW 4116   1.689   4.646   2.474
 1359SOL    HW1 4117   1.784   4.617   2.482
 1359SOL    HW2 4118   1.681   4.711   2.399
 1360SOL     OW 4119   1.641   4.832   2.294
 1360SOL    HW1 4120   1.727   4.834   2.242
 1360SOL    HW2 4121   1.655   4.879   2.382
 1361SOL     OW 4122   0.113   4.461   3.459
 1361SOL    HW1 4123   0.201   4.448   3.504
 1361SOL    HW2 4124   0.100   4.558   3.437
 1362SOL     OW 4125   0.613   5.089   2.588
 1362SOL    HW1 4126   0.564   5.002   2.597
 1362SOL    HW2 4127   0.590   5.132   2.501
 1363SOL     OW 4128   1.293   4.952   3.285
 1363SOL    HW1 4129   1.330   4.879   3.227
 1363SOL    HW2 4130   1.345   4.957   3.370
 1364SOL     OW 4131   0.809   3.728   2.364
 1364SOL    HW1 4132   0.849   3.819   2.355
 1364SOL    HW2 4133   0.709   3.736   2.370
 1365SOL     OW 4134   0.197   4.700   3.126
 1365SOL    HW1 4135   0.286   4.655   3.112
 1365SOL    HW2 4136   0.124   4.635   3.107
 1366SOL     OW 4137   1.525   4.723   2.052
 1366SOL    HW1 4138   1.462   4.647   2.065
 1366SOL    HW2 4139   1.573   4.741   2.138
 1367SOL     OW 4140   0.317   3.975   3.663
 1367SOL    HW1 4141   0.388   4.046   3.669
 1367SOL    HW2 4142   0.229   4.014   3.691
 1368SOL     OW 4143   1.466   5.141   2.815
 1368SOL    HW1 4144   1.407   5.147   2.895
 1368SOL    HW2 4145   1.451   5.053   2.769
 1369SOL     OW 4146   0.598   4.453   2.132
 1369SOL    HW1 4147   0.622   4.522   2.064
 1369SOL    HW2 4148   0.520   4.486   2.186
 1370SOL     OW 4149   1.281   4.069   2.806
 1370SOL    HW1 4150   1.195   4.019   2.793
 1370SOL    HW2 4151   1.343   4.015   2.862
 1371SOL     OW 4152   0.807   4.329   3.327
 1371SOL    HW1 4153   0.760   4.326   3.416
 1371SOL    HW2 4154   0.756   4.274   3.261
 1372SOL     OW 4155   1.394   4.193   3.536
 1372SOL    HW1 4156   1.374   4.236   3.624
 1372SOL    HW2 4157   1.472   4.131   3.545
 1373SOL     OW 4158   0.973   4.614   3.434
 1373SOL    HW1 4159   1.019   4.530   3.405
 1373SOL    HW2 4160   0.917   4.648   3.359
 1374SOL     OW 4161   0.991   4.134   3.104
 1374SOL    HW1 4162   0.914   4.168   3.158
 1374SOL    HW2 4163   0.957   4.083   3.025
 1375SOL     OW 4164   1.041   4.425   2.291
 1375SOL    HW1 4165   1.067   4.421   2.387
 1375SOL    HW2 4166   0.956   4.374   2.277
 1376SOL     OW 4167   0.076   4.535   2.651
 1376SOL    HW1 4168   0.175   4.523   2.660
 1376SOL    HW2 4169   0.052   4.630   2.672
 1377SOL     OW 4170   0.865   4.072   2.057
 1377SOL    HW1 4171   0.924   4.135   2.008
 1377SOL    HW2 4172   0.884   3.978   2.028
 1378SOL     OW 4173   1.719   4.309   3.693
 1378SOL    HW1 4174   1.693   4.398   3.657
 1378SOL    HW2 4175   1.717   4.241   3.620
 1379SOL     OW 4176   1.362   4.868   2.407
 1379SOL    HW1 4177   1.445   4.839   2.359
 1379SOL    HW2 4178   1.313   4.935   2.351
 1380SOL     OW 4179   0.550   3.920   2.747
 1380SOL    HW1 4180   0.545   3.915   2.847
 1380SOL    HW2 4181   0.552   4.016   2.718
 1381SOL     OW 4182   1.795   4.790   2.735
 1381SOL    HW1 4183   1.733   4.775   2.659
 1381SOL    HW2 4184   1.743   4.801   2.820
 1382SOL     OW 4185   0.321   4.667   2.104
 1382SOL    HW1 4186   0.403   4.706   2.062
 1382SOL    HW2 4187   0.294   4.585   2.055
 1383SOL     OW 4188   1.458   4.459   2.590
 1383SOL    HW1 4189   1.453   4.394   2.665
 1383SOL    HW2 4190   1.538   4.518   2.603
 1384SOL     OW 4191   0.461   4.990   3.589
 1384SOL    HW1 4192   0.411   4.991   3.503
 1384SOL    HW2 4193   0.398   4.972   3.665
 1385SOL     OW 4194   0.202   4.009   3.360
 1385SOL    HW1 4195   0.122   4.069   3.347
 1385SOL    HW2 4196   0.192   3.960   3.446
 1386SOL     OW 4197   1.632   5.101   1.943
 1386SOL    HW1 4198   1.600   5.195   1.933
 1386SOL    HW2 4199   1.556   5.038   1.931
 1387SOL     OW 4200   1.400   3.831   2.288
 1387SOL    HW1 4201   1.376   3.794   2.198
 1387SOL    HW2 4202   1.499   3.847   2.292
 1388SOL     OW 4203   0.382   4.424   2.342
 1388SOL    HW1 4204   0.427   4.334   2.339
 1388SOL    HW2 4205   0.288   4.413   2.375
 1389SOL     OW 4206   1.547   3.946   3.591
 1389SOL    HW1 4207   1.542   3.983   3.683
 1389SOL    HW2 4208   1.475   3.877   3.579
 1390SOL     OW 4209   0.614   3.846   1.979
 1390SOL    HW1 4210   0.712   3.824   1.986
 1390SOL    HW2 4211   0.583   3.829   1.886
 1391SOL     OW 4212   0.781   3.988   3.611
 1391SOL    HW1 4213   0.848   3.927   3.654
 1391SOL    HW2 4214   0.708   4.007   3.676
 1392SOL     OW 4215   1.351   4.314   3.295
 1392SOL    HW1 4216   1.379   4.271   3.380
 1392SOL    HW2 4217   1.376   4.410   3.296
 1393SOL     OW 4218   0.922   4.227   2.761
 1393SOL    HW1 4219   0.897   4.218   2.665
 1393SOL    HW2 4220   0.970   4.145   2.792
 1394SOL     OW 4221   0.539   3.788   2.374
 1394SOL    HW1 4222   0.458   3.789   2.432
 1394SOL    HW2 4223   0.542   3.871   2.319
 1395SOL     OW 4224   1.434   4.912   1.903
 1395SOL    HW1 4225   1.466   4.836   1.960
 1395SOL    HW2 4226   1.342   4.939   1.933
 1396SOL     OW 4227   0.297   3.759   2.033
 1396SOL    HW1 4228   0.346   3.843   2.012
 1396SOL    HW2 4229   0.359   3.694   2.078
 1397SOL     OW 4230   0.935   3.960   2.342
 1397SOL    HW1 4231   0.887   4.001   2.264
 1397SOL    HW2 4232   1.034   3.958   2.323
 1398SOL     OW 4233   1.076   4.407   3.326
 1398SOL    HW1 4234   0.996   4.346   3.329
 1398SOL    HW2 4235   1.157   4.354   3.302
 1399SOL     OW 4236   1.227   5.294   2.655
 1399SOL    HW1 4237   1.248   5.368   2.590
 1399SOL    HW2 4238   1.295   5.294   2.728
 1400SOL     OW 4239   0.459   4.876   2.603
 1400SOL    HW1 4240   0.388   4.849   2.668
 1400SOL    HW2 4241   0.433   4.848   2.510
 1401SOL     OW 4242   1.032   4.273   1.878
 1401SOL    HW1 4243   0.991   4.355   1.839
 1401SOL    HW2 4244   1.096   4.299   1.951
 1402SOL     OW 4245   0.078   4.280   3.248
 1402SOL    HW1 4246   0.170   4.279   3.207
 1402SOL    HW2 4247   0.072   4.354   3.315
 1403SOL     OW 4248   0.561   3.946   3.009
 1403SOL    HW1 4249   0.599   3.862   3.046
 1403SOL    HW2 4250   0.473   3.965   3.053
 1404SOL     OW 4251   0.866   4.178   2.504
 1404SOL    HW1 4252   0.834   4.250   2.442
 1404SOL    HW2 4253   0.890   4.097   2.451
 1405SOL     OW 4254   1.017   3.763   2.615
 1405SOL    HW1 4255   0.945   3.768   2.546
 1405SOL    HW2 4256   0.993   3.694   2.684
 1406SOL     OW 4257   1.429   4.897   2.729
 1406SOL    HW1 4258   1.374   4.813   2.722
 1406SOL    HW2 4259   1.455   4.926   2.637
 1407SOL     OW 4260   1.466   4.314   2.854
 1407SOL    HW1 4261   1.436   4.219   2.861
 1407SOL    HW2 4262   1.539   4.330   2.920
 1408SOL     OW 4263   1.857   4.557   2.239
 1408SOL    HW1 4264   1.899   4.493   2.303
 1408SOL    HW2 4265   1.819   4.506   2.161
 1409SOL     OW 4266   1.664   5.004   2.519
 1409SOL    HW1 4267   1.763   5.012   2.533
 1409SOL    HW2 4268   1.619   5.088   2.550
 1410SOL     OW 4269   1.390   4.299   1.940
 1410SOL    HW1 4270   1.336   4.278   2.021
 1410SOL    HW2 4271   1.481   4.258   1.949
 1411SOL     OW 4272   0.527   3.980   2.190
 1411SOL    HW1 4273   0.554   3.921   2.115
 1411SOL    HW2 4274   0.527   4.075   2.159
 1412SOL     OW 4275   1.754   4.947   3.450
 1412SOL    HW1 4276   1.845   4.908   3.437
 1412SOL    HW2 4277   1.762   5.043   3.474
 1413SOL     OW 4278   1.064   5.071   3.202
 1413SOL    HW1 4279   0.984   5.048   3.257
 1413SOL    HW2 4280   1.147   5.045   3.251
 1414SOL     OW 4281   1.111   4.919   2.962
 1414SOL    HW1 4282   1.071   4.963   3.043
 1414SOL    HW2 4283   1.070   4.956   2.879
 1415SOL     OW 4284   1.638   4.823   2.941
 1415SOL    HW1 4285   1.643   4.904   3.000
 1415SOL    HW2 4286   1.552   4.825   2.890
 1416SOL     OW 4287   0.915   3.813   3.264
 1416SOL    HW1 4288   0.940   3.793   3.169
 1416SOL    HW2 4289   0.987   3.869   3.306
 1417SOL     OW 4290   0.980   4.840   3.581
 1417SOL    HW1 4291   0.881   4.846   3.591
 1417SOL    HW2 4292   1.003   4.760   3.525
 1418SOL     OW 4293   0.705   4.774   2.230
 1418SOL    HW1 4294   0.691   4.781   2.329
 1418SOL    HW2 4295   0.789   4.723   2.212
 1419SOL     OW 4296   0.410   4.537   3.113
 1419SOL    HW1 4297   0.496   4.549   3.163
 1419SOL    HW2 4298   0.368   4.450   3.140
 1420SOL     OW 4299   1.274   4.110   3.124
 1420SOL    HW1 4300   1.295   4.184   3.188
 1420SOL    HW2 4301   1.185   4.127   3.081
 1421SOL     OW 4302   0.064   5.288   3.193
 1421SOL    HW1 4303   0.018   5.370   3.159
 1421SOL    HW2 4304   0.162   5.307   3.202
 1422SOL     OW 4305   0.367   4.824   2.363
 1422SOL    HW1 4306   0.360   4.907   2.307
 1422SOL    HW2 4307   0.371   4.744   2.303
 1423SOL     OW 4308   0.566   4.261   2.727
 1423SOL    HW1 4309   0.578   4.327   2.653
 1423SOL    HW2 4310   0.612   4.295   2.810
 1424SOL     OW 4311   1.252   5.072   2.250
 1424SOL    HW1 4312   1.302   5.149   2.290
 1424SOL    HW2 4313   1.157   5.074   2.282
 1425SOL     OW 4314   1.582   4.363   2.334
 1425SOL    HW1 4315   1.551   4.424   2.407
 1425SOL    HW2 4316   1.632   4.415   2.265
 1426SOL     OW 4317   0.402   4.475   3.460
 1426SOL    HW1 4318   0.470   4.530   3.413
 1426SOL    HW2 4319   0.442   4.387   3.487
 1427SOL     OW 4320   1.587   4.503   3.532
 1427SOL    HW1 4321   1.495   4.541   3.527
 1427SOL    HW2 4322   1.647   4.550   3.467
 1428SOL     OW 4323   1.013   3.829   3.632
 1428SOL    HW1 4324   1.019   3.914   3.580
 1428SOL    HW2 4325   1.045   3.753   3.575
 1429SOL     OW 4326   0.504   3.774   3.602
 1429SOL    HW1 4327   0.462   3.717   3.532
 1429SOL    HW2 4328   0.438   3.843   3.634
 1430SOL     OW 4329   0.573   4.594   2.891
 1430SOL    HW1 4330   0.617   4.683   2.882
 1430SOL    HW2 4331   0.510   4.594   2.968
 1431SOL     OW 4332   1.360   4.586   2.907
 1431SOL    HW1 4333   1.285   4.586   2.841
 1431SOL    HW2 4334   1.397   4.494   2.916
 1432SOL     OW 4335   1.209   4.249   2.137
 1432SOL    HW1 4336   1.222   4.165   2.191
 1432SOL    HW2 4337   1.180   4.323   2.197
 1433SOL     OW 4338   0.307   3.937   3.093
 1433SOL    HW1 4339   0.284   3.974   3.183
 1433SOL    HW2 4340   0.277   3.842   3.087
 1434SOL     OW 4341   0.037   5.034   3.144
 1434SOL    HW1 4342   0.090   4.985   3.212
 1434SOL    HW2 4343   0.059   5.132   3.149
 1435SOL     OW 4344   0.732   4.358   2.926
 1435SOL    HW1 4345   0.791   4.332   2.850
 1435SOL    HW2 4346   0.704   4.454   2.915
 1436SOL     OW 4347   1.728   4.659   3.716
 1436SOL    HW1 4348   1.682   4.652   3.627
 1436SOL    HW2 4349   1.666   4.703   3.782
 1437SOL     OW 4350   0.307   3.787   2.480
 1437SOL    HW1 4351   0.296   3.881   2.513
 1437SOL    HW2 4352   0.302   3.724   2.557
 1438SOL     OW 4353   1.622   4.091   2.236
 1438SOL    HW1 4354   1.624   4.015   2.300
 1438SOL    HW2 4355   1.574   4.168   2.276
 1439SOL     OW 4356   1.023   4.490   2.828
 1439SOL    HW1 4357   1.038   4.511   2.924
 1439SOL    HW2 4358   0.993   4.395   2.819
 1440SOL     OW 4359   1.859   5.242   3.467
 1440SOL    HW1 4360   1.873   5.269   3.372
 1440SOL    HW2 4361   1.942   5.264   3.520
 1441SOL     OW 4362   0.350   4.622   3.666
 1441SOL    HW1 4363   0.426   4.666   3.714
 1441SOL    HW2 4364   0.385   4.575   3.584
 1442SOL     OW 4365   1.540   3.998   1.987
 1442SOL    HW1 4366   1.479   3.923   2.010
 1442SOL    HW2 4367   1.562   4.050   2.070
 1443SOL     OW 4368   1.303   4.562   1.904
 1443SOL    HW1 4369   1.337   4.469   1.919
 1443SOL    HW2 4370   1.321   4.589   1.809
 1444SOL     OW 4371   0.319   4.534   2.811
 1444SOL    HW1 4372   0.412   4.570   2.816
 1444SOL    HW2 4373   0.313   4.449   2.863
 1445SOL     OW 4374   0.339   4.233   2.868
 1445SOL    HW1 4375   0.287   4.150   2.851
 1445SOL    HW2 4376   0.416   4.238   2.804
 1446SOL     OW 4377   1.138   4.104   3.540
 1446SOL    HW1 4378   1.093   4.167   3.604
 1446SOL    HW2 4379   1.231   4.135   3.523
 1447SOL     OW 4380   1.160   3.931   3.339
 1447SOL    HW1 4381   1.160   3.995   3.416
 1447SOL    HW2 4382   1.188   3.979   3.256
 1448SOL     OW 4383   0.008   5.050   2.062
 1448SOL    HW1 4384  -0.085   5.071   2.031
 1448SOL    HW2 4385   0.018   4.951   2.075
 1449SOL     OW 4386   1.002   4.520   3.100
 1449SOL    HW1 4387   1.043   4.488   3.186
 1449SOL    HW2 4388   0.906   4.493   3.097
 1450SOL     OW 4389   0.040   4.268   2.976
 1450SOL    HW1 4390   0.125   4.235   2.935
 1450SOL    HW2 4391   0.053   4.283   3.074
 1451SOL     OW 4392   0.189   4.244   3.584
 1451SOL    HW1 4393   0.248   4.204   3.514
 1451SOL    HW2 4394   0.131   4.315   3.543
 1452SOL     OW 4395   1.369   4.674   3.522
 1452SOL    HW1 4396   1.408   4.763   3.542
 1452SOL    HW2 4397   1.379   4.654   3.425
 1453SOL     OW 4398   0.815   4.296   2.187
 1453SOL    HW1 4399   0.822   4.207   2.141
 1453SOL    HW2 4400   0.721   4.330   2.179
 1454SOL     OW 4401   1.657   4.328   3.068
 1454SOL    HW1 4402   1.619   4.259   3.130
 1454SOL    HW2 4403   1.739   4.292   3.024
 1455SOL     OW 4404   0.671   4.188   3.131
 1455SOL    HW1 4405   0.637   4.099   3.101
 1455SOL    HW2 4406   0.697   4.242   3.051
 1456SOL     OW 4407   0.473   4.224   2.053
 1456SOL    HW1 4408   0.534   4.304   2.057
 1456SOL    HW2 4409   0.378   4.255   2.060
 1457SOL     OW 4410   0.159   4.861   3.328
 1457SOL    HW1 4411   0.181   4.800   3.404
 1457SOL    HW2 4412   0.169   4.812   3.242
 1458SOL     OW 4413   1.347   4.783   3.096
 1458SOL    HW1 4414   1.371   4.720   3.022
 1458SOL    HW2 4415   1.257   4.823   3.078
 1459SOL     OW 4416   1.302   4.579   2.171
 1459SOL    HW1 4417   1.216   4.548   2.213
 1459SOL    HW2 4418   1.298   4.565   2.072
 1460SOL     OW 4419   0.083   4.982   2.884
 1460SOL    HW1 4420   0.078   4.981   2.984
 1460SOL    HW2 4421   0.000   4.941   2.846
 1461SOL     OW 4422   1.726   3.859   2.385
 1461SOL    HW1 4423   1.799   3.842   2.318
 1461SOL    HW2 4424   1.695   3.772   2.423
 1462SOL     OW 4425   1.280   4.651   2.534
 1462SOL    HW1 4426   1.340   4.570   2.536
 1462SOL    HW2 4427   1.320   4.720   2.474
 1463SOL     OW 4428   0.830   4.997   3.284
 1463SOL    HW1 4429   0.825   5.030   3.379
 1463SOL    HW2 4430   0.744   5.016   3.238
 1464SOL     OW 4431   1.841   3.899   2.825
 1464SOL    HW1 4432   1.880   3.814   2.789
 1464SOL    HW2 4433   1.743   3.901   2.806
 1465SOL     OW 4434   0.263   4.050   2.582
 1465SOL    HW1 4435   0.184   4.101   2.548
 1465SOL    HW2 4436   0.254   4.035   2.680
 1466SOL     OW 4437   0.822   4.726   3.234
 1466SOL    HW1 4438   0.862   4.725   3.142
 1466SOL    HW2 4439   0.832   4.818   3.274
 1467SOL     OW 4440   0.916   4.634   2.153
 1467SOL    HW1 4441   0.979   4.672   2.085
 1467SOL    HW2 4442   0.956   4.551   2.192
 1468SOL     OW 4443   0.372   5.012   3.352
 1468SOL    HW1 4444   0.359   5.105   3.318
 1468SOL    HW2 4445   0.288   4.960   3.339
 1469SOL     OW 4446   1.614   5.016   3.151
 1469SOL    HW1 4447   1.674   5.019   3.231
 1469SOL    HW2 4448   1.539   5.080   3.164
 1470SOL     OW 4449   1.039   4.822   2.558
 1470SOL    HW1 4450   0.969   4.775   2.612
 1470SOL    HW2 4451   1.098   4.754   2.515
 1471SOL     OW 4452   1.014   3.960   2.833
 1471SOL    HW1 4453   1.006   3.924   2.740
 1471SOL    HW2 4454   1.012   3.884   2.898
 1472SOL     OW 4455   1.709   4.109   3.243
 1472SOL    HW1 4456   1.782   4.178   3.247
 1472SOL    HW2 4457   1.737   4.034   3.184
 1473SOL     OW 4458   0.105   4.737   3.588
 1473SOL    HW1 4459   0.028   4.704   3.642
 1473SOL    HW2 4460   0.190   4.707   3.630
 1474SOL     OW 4461   0.672   3.927   3.351
 1474SOL    HW1 4462   0.762   3.911   3.311
 1474SOL    HW2 4463   0.680   3.932   3.450
 1475SOL     OW 4464   0.075   4.069   1.895
 1475SOL    HW1 4465  -0.017   4.041   1.866
 1475SOL    HW2 4466   0.106   4.146   1.839
 1476SOL     OW 4467   1.440   4.580   3.260
 1476SOL    HW1 4468   1.383   4.632   3.197
 1476SOL    HW2 4469   1.536   4.592   3.236
 1477SOL     OW 4470   0.072   3.890   2.180
 1477SOL    HW1 4471   0.055   3.973   2.126
 1477SOL    HW2 4472   0.162   3.853   2.158
 1478SOL     OW 4473   0.613   4.566   3.293
 1478SOL    HW1 4474   0.669   4.647   3.276
 1478SOL    HW2 4475   0.672   4.486   3.296
 1479SOL     OW 4476   0.716   4.289   3.570
 1479SOL    HW1 4477   0.735   4.354   3.644
 1479SOL    HW2 4478   0.776   4.209   3.579
 1480SOL     OW 4479   1.450   4.944   3.495
 1480SOL    HW1 4480   1.441   4.934   3.594
 1480SOL    HW2 4481   1.546   4.937   3.469
 1481SOL     OW 4482   1.674   4.607   3.116
 1481SOL    HW1 4483   1.647   4.518   3.079
 1481SOL    HW2 4484   1.675   4.675   3.043
 1482SOL     OW 4485   1.225   4.049   2.311
 1482SOL    HW1 4486   1.290   3.975   2.300
 1482SOL    HW2 4487   1.245   4.099   2.395
 1483SOL     OW 4488   0.594   4.469   2.514
 1483SOL    HW1 4489   0.644   4.554   2.495
 1483SOL    HW2 4490   0.506   4.471   2.466
 1484SOL     OW 4491   1.777   4.066   3.504
 1484SOL    HW1 4492   1.760   4.097   3.410
 1484SOL    HW2 4493   1.693   4.029   3.542
 1485SOL     OW 4494   1.730   4.658   3.379
 1485SOL    HW1 4495   1.768   4.749   3.394
 1485SOL    HW2 4496   1.722   4.641   3.280
 1486SOL     OW 4497   0.859   5.098   1.878
 1486SOL    HW1 4498   0.813   5.113   1.966
 1486SOL    HW2 4499   0.903   5.183   1.848
 1487SOL     OW 4500   0.859   4.680   2.723
 1487SOL    HW1 4501   0.913   4.611   2.771
 1487SOL    HW2 4502   0.827   4.749   2.789
 1488SOL     OW 4503   1.083   4.708   1.949
 1488SOL    HW1 4504   1.060   4.761   1.867
 1488SOL    HW2 4505   1.164   4.652   1.930
 1489SOL     OW 4506   0.221   5.038   3.706
 1489SOL    HW1 4507   0.156   4.965   3.685
 1489SOL    HW2 4508   0.225   5.052   3.804
 1490SOL     OW 4509   0.079   4.964   2.515
 1490SOL    HW1 4510   0.078   4.917   2.603
 1490SOL    HW2 4511   0.161   4.936   2.464
 1491SOL     OW 4512   0.672   5.115   3.486
 1491SOL    HW1 4513   0.594   5.065   3.524
 1491SOL    HW2 4514   0.669   5.210   3.517
 1492SOL     OW 4515   1.824   3.916   3.089
 1492SOL    HW1 4516   1.820   3.826   3.133
 1492SOL    HW2 4517   1.827   3.905   2.990
 1493SOL     OW 4518   0.428   4.148   2.382
 1493SOL    HW1 4519   0.458   4.076   2.320
 1493SOL    HW2 4520   0.389   4.108   2.465
 1494SOL     OW 4521   1.705   5.211   2.966
 1494SOL    HW1 4522   1.612   5.186   2.939
 1494SOL    HW2 4523   1.731   5.161   3.048
 1495SOL     OW 4524   0.317   4.271   3.142
 1495SOL    HW1 4525   0.355   4.212   3.214
 1495SOL    HW2 4526   0.357   4.245   3.054
 1496SOL     OW 4527   1.424   3.938   2.974
 1496SOL    HW1 4528   1.476   3.873   3.029
 1496SOL    HW2 4529   1.375   4.001   3.035
 1497SOL     OW 4530   1.001   3.758   3.016
 1497SOL    HW1 4531   0.938   3.686   2.985
 1497SOL    HW2 4532   1.094   3.722   3.016
 1498SOL     OW 4533   0.770   5.054   2.163
 1498SOL    HW1 4534   0.724   4.967   2.180
 1498SOL    HW2 4535   0.861   5.051   2.204
 1499SOL     OW 4536   1.352   3.776   2.030
 1499SOL    HW1 4537   1.387   3.735   1.946
 1499SOL    HW2 4538   1.262   3.738   2.050
 1500SOL     OW 4539   1.300   4.177   2.553
 1500SOL    HW1 4540   1.241   4.257   2.557
 1500SOL    HW2 4541   1.315   4.142   2.646
 1501SOL     OW 4542   1.593   3.945   2.744
 1501SOL    HW1 4543   1.509   3.944   2.798
 1501SOL    HW2 4544   1.595   4.028   2.688
 1502SOL     OW 4545   0.039   4.801   2.162
 1502SOL    HW1 4546   0.138   4.790   2.153
 1502SOL    HW2 4547  -0.001   4.715   2.194
 1503SOL     OW 4548   0.230   4.352   3.837
 1503SOL    HW1 4549   0.137   4.350   3.874
 1503SOL    HW2 4550   0.231   4.313   3.745
 1504SOL     OW 4551   0.225   3.999   4.720
 1504SOL    HW1 4552   0.260   3.982   4.812
 1504SOL    HW2 4553   0.137   3.954   4.708
 1505SOL     OW 4554   0.019   4.092   4.371
 1505SOL    HW1 4555  -0.063   4.135   4.410
 1505SOL    HW2 4556  -0.009   4.019   4.308
 1506SOL     OW 4557   0.569   4.999   4.889
 1506SOL    HW1 4558   0.476   4.992   4.852
 1506SOL    HW2 4559   0.580   5.088   4.933
 1507SOL     OW 4560   1.555   5.235   4.427
 1507SOL    HW1 4561   1.498   5.219   4.508
 1507SOL    HW2 4562   1.496   5.245   4.347
 1508SOL     OW 4563   1.135   4.427   4.441
 1508SOL    HW1 4564   1.192   4.505   4.416
 1508SOL    HW2 4565   1.075   4.453   4.517
 1509SOL     OW 4566   1.755   4.331   3.955
 1509SOL    HW1 4567   1.743   4.318   3.856
 1509SOL    HW2 4568   1.725   4.250   4.004
 1510SOL     OW 4569   0.768   4.868   4.747
 1510SOL    HW1 4570   0.690   4.885   4.807
 1510SOL    HW2 4571   0.802   4.955   4.711
 1511SOL     OW 4572   0.685   4.736   4.389
 1511SOL    HW1 4573   0.754   4.720   4.459
 1511SOL    HW2 4574   0.612   4.793   4.427
 1512SOL     OW 4575   0.335   5.159   4.785
 1512SOL    HW1 4576   0.257   5.128   4.732
 1512SOL    HW2 4577   0.393   5.217   4.728
 1513SOL     OW 4578   0.438   4.116   5.223
 1513SOL    HW1 4579   0.520   4.060   5.232
 1513SOL    HW2 4580   0.357   4.058   5.227
 1514SOL     OW 4581   1.603   4.171   4.461
 1514SOL    HW1 4582   1.529   4.217   4.411
 1514SOL    HW2 4583   1.654   4.239   4.514
 1515SOL     OW 4584   0.240   4.815   4.610
 1515SOL    HW1 4585   0.254   4.731   4.662
 1515SOL    HW2 4586   0.185   4.879   4.665
 1516SOL     OW 4587   0.606   4.688   3.847
 1516SOL    HW1 4588   0.613   4.772   3.793
 1516SOL    HW2 4589   0.652   4.701   3.935
 1517SOL     OW 4590   0.122   4.367   4.287
 1517SOL    HW1 4591   0.077   4.279   4.304
 1517SOL    HW2 4592   0.121   4.421   4.371
 1518SOL     OW 4593   1.689   4.646   4.336
 1518SOL    HW1 4594   1.784   4.617   4.344
 1518SOL    HW2 4595   1.681   4.711   4.261
 1519SOL     OW 4596   1.641   4.832   4.156
 1519SOL    HW1 4597   1.727   4.834   4.104
 1519SOL    HW2 4598   1.655   4.879   4.244
 1520SOL     OW 4599   0.613   5.089   4.450
 1520SOL    HW1 4600   0.564   5.002   4.459
 1520SOL    HW2 4601   0.590   5.132   4.363
 1521SOL     OW 4602   0.809   3.728   4.226
 1521SOL    HW1 4603   0.849   3.819   4.217
 1521SOL    HW2 4604   0.709   3.736   4.232
 1522SOL     OW 4605   0.197   4.700   4.988
 1522SOL    HW1 4606   0.286   4.655   4.974
 1522SOL    HW2 4607   0.124   4.635   4.969
 1523SOL     OW 4608   1.525   4.723   3.914
 1523SOL    HW1 4609   1.462   4.647   3.927
 1523SOL    HW2 4610   1.573   4.741   4.000
 1524SOL     OW 4611   1.466   5.141   4.677
 1524SOL    HW1 4612   1.407   5.147   4.757
 1524SOL    HW2 4613   1.451   5.053   4.631
 1525SOL     OW 4614   0.598   4.453   3.994
 1525SOL    HW1 4615   0.622   4.522   3.926
 1525SOL    HW2 4616   0.520   4.486   4.048
 1526SOL     OW 4617   1.281   4.069   4.668
 1526SOL    HW1 4618   1.195   4.019   4.655
 1526SOL    HW2 4619   1.343   4.015   4.724
 1527SOL     OW 4620   0.807   4.329   5.189
 1527SOL    HW1 4621   0.760   4.326   5.278
 1527SOL    HW2 4622   0.756   4.274   5.123
 1528SOL     OW 4623   0.991   4.134   4.966
 1528SOL    HW1 4624   0.914   4.168   5.020
 1528SOL    HW2 4625   0.957   4.083   4.887
 1529SOL     OW 4626   1.041   4.425   4.153
 1529SOL    HW1 4627   1.067   4.421   4.249
 1529SOL    HW2 4628   0.956   4.374   4.139
 1530SOL     OW 4629   0.076   4.535   4.513
 1530SOL    HW1 4630   0.175   4.523   4.522
 1530SOL    HW2 4631   0.052   4.630   4.534
 1531SOL     OW 4632   0.865   4.072   3.919
 1531SOL    HW1 4633   0.924   4.135   3.870
 1531SOL    HW2 4634   0.884   3.978   3.890
 1532SOL     OW 4635   1.362   4.868   4.269
 1532SOL    HW1 4636   1.445   4.839   4.221
 1532SOL    HW2 4637   1.313   4.935   4.213
 1533SOL     OW 4638   0.550   3.920   4.609
 1533SOL    HW1 4639   0.545   3.915   4.709
 1533SOL    HW2 4640   0.552   4.016   4.580
 1534SOL     OW 4641   1.795   4.790   4.597
 1534SOL    HW1 4642   1.733   4.775   4.521
 1534SOL    HW2 4643   1.743   4.801   4.682
 1535SOL     OW 4644   0.321   4.667   3.966
 1535SOL    HW1 4645   0.403   4.706   3.924
 1535SOL    HW2 4646   0.294   4.585   3.917
 1536SOL     OW 4647   1.458   4.459   4.452
 1536SOL    HW1 4648   1.453   4.394   4.527
 1536SOL    HW2 4649   1.538   4.518   4.465
 1537SOL     OW 4650   1.632   5.101   3.805
 1537SOL    HW1 4651   1.600   5.195   3.795
 1537SOL    HW2 4652   1.556   5.038   3.793
 1538SOL     OW 4653   1.400   3.831   4.150
 1538SOL    HW1 4654   1.376   3.794   4.060
 1538SOL    HW2 4655   1.499   3.847   4.154
 1539SOL     OW 4656   0.382   4.424   4.204
 1539SOL    HW1 4657   0.427   4.334   4.201
 1539SOL    HW2 4658   0.288   4.413   4.237
 1540SOL     OW 4659   0.614   3.846   3.841
 1540SOL    HW1 4660   0.712   3.824   3.848
 1540SOL    HW2 4661   0.583   3.829   3.748
 1541SOL     OW 4662   0.922   4.227   4.623
 1541SOL    HW1 4663   0.897   4.218   4.527
 1541SOL    HW2 4664   0.970   4.145   4.654
 1542SOL     OW 4665   0.539   3.788   4.236
 1542SOL    HW1 4666   0.458   3.789   4.294
 1542SOL    HW2 4667   0.542   3.871   4.181
 1543SOL     OW 4668   1.434   4.912   3.765
 1543SOL    HW1 4669   1.466   4.836   3.822
 1543SOL    HW2 4670   1.342   4.939   3.795
 1544SOL     OW 4671   0.297   3.759   3.895
 1544SOL    HW1 4672   0.346   3.843   3.874
 1544SOL    HW2 4673   0.359   3.694   3.940
 1545SOL     OW 4674   0.935   3.960   4.204
 1545SOL    HW1 4675   0.887   4.001   4.126
 1545SOL    HW2 4676   1.034   3.958   4.185
 1546SOL     OW 4677   1.227   5.294   4.517
 1546SOL    HW1 4678   1.248   5.368   4.452
 1546SOL    HW2 4679   1.295   5.294   4.590
 1547SOL     OW 4680   0.459   4.876   4.465
 1547SOL    HW1 4681   0.388   4.849   4.530
 1547SOL    HW2 4682   0.433   4.848   4.372
 1548SOL     OW 4683   1.032   4.273   3.740
 1548SOL    HW1 4684   0.991   4.355   3.701
 1548SOL    HW2 4685   1.096   4.299   3.813
 1549SOL     OW 4686   0.561   3.946   4.871
 1549SOL    HW1 4687   0.599   3.862   4.908
 1549SOL    HW2 4688   0.473   3.965   4.915
 1550SOL     OW 4689   0.866   4.178   4.366
 1550SOL    HW1 4690   0.834   4.250   4.304
 1550SOL    HW2 4691   0.890   4.097   4.313
 1551SOL     OW 4692   1.017   3.763   4.477
 1551SOL    HW1 4693   0.945   3.768   4.408
 1551SOL    HW2 4694   0.993   3.694   4.546
 1552SOL     OW 4695   1.429   4.897   4.591
 1552SOL    HW1 4696   1.374   4.813   4.584
 1552SOL    HW2 4697   1.455   4.926   4.499
 1553SOL     OW 4698   1.466   4.314   4.716
 1553SOL    HW1 4699   1.436   4.219   4.723
 1553SOL    HW2 4700   1.539   4.330   4.782
 1554SOL     OW 4701   1.857   4.557   4.101
 1554SOL    HW1 4702   1.899   4.493   4.165
 1554SOL    HW2 4703   1.819   4.506   4.023
 1555SOL     OW 4704   1.664   5.004   4.381
 1555SOL    HW1 4705   1.763   5.012   4.395
 1555SOL    HW2 4706   1.619   5.088   4.412
 1556SOL     OW 4707   1.390   4.299   3.802
 1556SOL    HW1 4708   1.336   4.278   3.883
 1556SOL    HW2 4709   1.481   4.258   3.811
 1557SOL     OW 4710   0.527   3.980   4.052
 1557SOL    HW1 4711   0.554   3.921   3.977
 1557SOL    HW2 4712   0.527   4.075   4.021
 1558SOL     OW 4713   1.754   4.947   5.312
 1558SOL    HW1 4714   1.845   4.908   5.299
 1558SOL    HW2 4715   1.762   5.043   5.336
 1559SOL     OW 4716   1.064   5.071   5.064
 1559SOL    HW1 4717   0.984   5.048   5.119
 1559SOL    HW2 4718   1.147   5.045   5.113
 1560SOL     OW 4719   1.111   4.919   4.824
 1560SOL    HW1 4720   1.071   4.963   4.905
 1560SOL    HW2 4721   1.070   4.956   4.741
 1561SOL     OW 4722   1.638   4.823   4.803
 1561SOL    HW1 4723   1.643   4.904   4.862
 1561SOL    HW2 4724   1.552   4.825   4.752
 1562SOL     OW 4725   0.705   4.774   4.092
 1562SOL    HW1 4726   0.691   4.781   4.191
 1562SOL    HW2 4727   0.789   4.723   4.074
 1563SOL     OW 4728   0.410   4.537   4.975
 1563SOL    HW1 4729   0.496   4.549   5.025
 1563SOL    HW2 4730   0.368   4.450   5.002
 1564SOL     OW 4731   1.274   4.110   4.986
 1564SOL    HW1 4732   1.295   4.184   5.050
 1564SOL    HW2 4733   1.185   4.127   4.943
 1565SOL     OW 4734   0.064   5.288   5.055
 1565SOL    HW1 4735   0.018   5.370   5.021
 1565SOL    HW2 4736   0.162   5.307   5.064
 1566SOL     OW 4737   0.367   4.824   4.225
 1566SOL    HW1 4738   0.360   4.907   4.169
 1566SOL    HW2 4739   0.371   4.744   4.165
 1567SOL     OW 4740   0.566   4.261   4.589
 1567SOL    HW1 4741   0.578   4.327   4.515
 1567SOL    HW2 4742   0.612   4.295   4.672
 1568SOL     OW 4743   1.252   5.072   4.112
 1568SOL    HW1 4744   1.302   5.149   4.152
 1568SOL    HW2 4745   1.157   5.074   4.144
 1569SOL     OW 4746   1.582   4.363   4.196
 1569SOL    HW1 4747   1.551   4.424   4.269
 1569SOL    HW2 4748   1.632   4.415   4.127
 1570SOL     OW 4749   0.573   4.594   4.753
 1570SOL    HW1 4750   0.617   4.683   4.744
 1570SOL    HW2 4751   0.510   4.594   4.830
 1571SOL     OW 4752   1.360   4.586   4.769
 1571SOL    HW1 4753   1.285   4.586   4.703
 1571SOL    HW2 4754   1.397   4.494   4.778
 1572SOL     OW 4755   1.209   4.249   3.999
 1572SOL    HW1 4756   1.222   4.165   4.053
 1572SOL    HW2 4757   1.180   4.323   4.059
 1573SOL     OW 4758   0.307   3.937   4.955
 1573SOL    HW1 4759   0.284   3.974   5.045
 1573SOL    HW2 4760   0.277   3.842   4.949
 1574SOL     OW 4761   0.037   5.034   5.006
 1574SOL    HW1 4762   0.090   4.985   5.074
 1574SOL    HW2 4763   0.059   5.132   5.011
 1575SOL     OW 4764   0.732   4.358   4.788
 1575SOL    HW1 4765   0.791   4.332   4.712
 1575SOL    HW2 4766   0.704   4.454   4.777
 1576SOL     OW 4767   0.307   3.787   4.342
 1576SOL    HW1 4768   0.296   3.881   4.375
 1576SOL    HW2 4769   0.302   3.724   4.419
 1577SOL     OW 4770   1.622   4.091   4.098
 1577SOL    HW1 4771   1.624   4.015   4.162
 1577SOL    HW2 4772   1.574   4.168   4.138
 1578SOL     OW 4773   1.023   4.490   4.690
 1578SOL    HW1 4774   1.038   4.511   4.786
 1578SOL    HW2 4775   0.993   4.395   4.681
 1579SOL     OW 4776   1.540   3.998   3.849
 1579SOL    HW1 4777   1.479   3.923   3.872
 1579SOL    HW2 4778   1.562   4.050   3.932
 1580SOL     OW 4779   1.303   4.562   3.766
 1580SOL    HW1 4780   1.337   4.469   3.781
 1580SOL    HW2 4781   1.321   4.589   3.671
 1581SOL     OW 4782   0.319   4.534   4.673
 1581SOL    HW1 4783   0.412   4.570   4.678
 1581SOL    HW2 4784   0.313   4.449   4.725
 1582SOL     OW 4785   0.339   4.233   4.730
 1582SOL    HW1 4786   0.287   4.150   4.713
 1582SOL    HW2 4787   0.416   4.238   4.666
 1583SOL     OW 4788   1.160   3.931   5.201
 1583SOL    HW1 4789   1.160   3.995   5.278
 1583SOL    HW2 4790   1.188   3.979   5.118
 1584SOL     OW 4791   0.008   5.050   3.924
 1584SOL    HW1 4792  -0.085   5.071   3.893
 1584SOL    HW2 4793   0.018   4.951   3.937
 1585SOL     OW 4794   1.002   4.520   4.962
 1585SOL    HW1 4795   1.043   4.488   5.048
 1585SOL    HW2 4796   0.906   4.493   4.959
 1586SOL     OW 4797   0.040   4.268   4.838
 1586SOL    HW1 4798   0.125   4.235   4.797
 1586SOL    HW2 4799   0.053   4.283   4.936
 1587SOL     OW 4800   0.815   4.296   4.049
 1587SOL    HW1 4801   0.822   4.207   4.003
 1587SOL    HW2 4802   0.721   4.330   4.041
 1588SOL     OW 4803   1.657   4.328   4.930
 1588SOL    HW1 4804   1.619   4.259   4.992
 1588SOL    HW2 4805   1.739   4.292   4.886
 1589SOL     OW 4806   0.671   4.188   4.993
 1589SOL    HW1 4807   0.637   4.099   4.963
 1589SOL    HW2 4808   0.697   4.242   4.913
 1590SOL     OW 4809   0.473   4.224   3.915
 1590SOL    HW1 4810   0.534   4.304   3.919
 1590SOL    HW2 4811   0.378   4.255   3.922
 1591SOL     OW 4812   0.159   4.861   5.190
 1591SOL    HW1 4813   0.181   4.800   5.266
 1591SOL    HW2 4814   0.169   4.812   5.104
 1592SOL     OW 4815   1.347   4.783   4.958
 1592SOL    HW1 4816   1.371   4.720   4.884
 1592SOL    HW2 4817   1.257   4.823   4.940
 1593SOL     OW 4818   1.302   4.579   4.033
 1593SOL    HW1 4819   1.216   4.548   4.075
 1593SOL    HW2 4820   1.298   4.565   3.934
 1594SOL     OW 4821   0.083   4.982   4.746
 1594SOL    HW1 4822   0.078   4.981   4.846
 1594SOL    HW2 4823   0.000   4.941   4.708
 1595SOL     OW 4824   1.726   3.859   4.247
 1595SOL    HW1 4825   1.799   3.842   4.180
 1595SOL    HW2 4826   1.695   3.772   4.285
 1596SOL     OW 4827   1.280   4.651   4.396
 1596SOL    HW1 4828   1.340   4.570   4.398
 1596SOL    HW2 4829   1.320   4.720   4.336
 1597SOL     OW 4830   0.830   4.997   5.146
 1597SOL    HW1 4831   0.825   5.030   5.241
 1597SOL    HW2 4832   0.744   5.016   5.100
 1598SOL     OW 4833   1.841   3.899   4.687
 1598SOL    HW1 4834   1.880   3.814   4.651
 1598SOL    HW2 4835   1.743   3.901   4.668
 1599SOL     OW 4836   0.263   4.050   4.444
 1599SOL    HW1 4837   0.184   4.101   4.410
 1599SOL    HW2 4838   0.254   4.035   4.542
 1600SOL     OW 4839   0.822   4.726   5.096
 1600SOL    HW1 4840   0.862   4.725   5.004
 1600SOL    HW2 4841   0.832   4.818   5.136
 1601SOL     OW 4842   0.916   4.634   4.015
 1601SOL    HW1 4843   0.979   4.672   3.947
 1601SOL    HW2 4844   0.956   4.551   4.054
 1602SOL     OW 4845   0.372   5.012   5.214
 1602SOL    HW1 4846   0.359   5.105   5.180
 1602SOL    HW2 4847   0.288   4.960   5.201
 1603SOL     OW 4848   1.614   5.016   5.013
 1603SOL    HW1 4849   1.674   5.019   5.093
 1603SOL    HW2 4850   1.539   5.080   5.026
 1604SOL     OW 4851   1.039   4.822   4.420
 1604SOL    HW1 4852   0.969   4.775   4.474
 1604SOL    HW2 4853   1.098   4.754   4.377
 1605SOL     OW 4854   1.014   3.960   4.695
 1605SOL    HW1 4855   1.006   3.924   4.602
 1605SOL    HW2 4856   1.012   3.884   4.760
 1606SOL     OW 4857   1.709   4.109   5.105
 1606SOL    HW1 4858   1.782   4.178   5.109
 1606SOL    HW2 4859   1.737   4.034   5.046
 1607SOL     OW 4860   0.672   3.927   5.213
 1607SOL    HW1 4861   0.762   3.911   5.173
 1607SOL    HW2 4862   0.680   3.932   5.312
 1608SOL     OW 4863   0.075   4.069   3.757
 1608SOL    HW1 4864  -0.017   4.041   3.728
 1608SOL    HW2 4865   0.106   4.146   3.701
 1609SOL     OW 4866   0.072   3.890   4.042
 1609SOL    HW1 4867   0.055   3.973   3.988
 1609SOL    HW2 4868   0.162   3.853   4.020
 1610SOL     OW 4869   0.613   4.566   5.155
 1610SOL    HW1 4870   0.669   4.647   5.138
 1610SOL    HW2 4871   0.672   4.486   5.158
 1611SOL     OW 4872   1.674   4.607   4.978
 1611SOL    HW1 4873   1.647   4.518   4.941
 1611SOL    HW2 4874   1.675   4.675   4.905
 1612SOL     OW 4875   1.225   4.049   4.173
 1612SOL    HW1 4876   1.290   3.975   4.162
 1612SOL    HW2 4877   1.245   4.099   4.257
 1613SOL     OW 4878   0.594   4.469   4.376
 1613SOL    HW1 4879   0.644   4.554   4.357
 1613SOL    HW2 4880   0.506   4.471   4.328
 1614SOL     OW 4881   1.730   4.658   5.241
 1614SOL    HW1 4882   1.768   4.749   5.256
 1614SOL    HW2 4883   1.722   4.641   5.142
 1615SOL     OW 4884   0.859   5.098   3.740
 1615SOL    HW1 4885   0.813   5.113   3.828
 1615SOL    HW2 4886   0.903   5.183   3.710
 1616SOL     OW 4887   0.859   4.680   4.585
 1616SOL    HW1 4888   0.913   4.611   4.633
 1616SOL    HW2 4889   0.827   4.749   4.651
 1617SOL     OW 4890   1.083   4.708   3.811
 1617SOL    HW1 4891   1.060   4.761   3.729
 1617SOL    HW2 4892   1.164   4.652   3.792
 1618SOL     OW 4893   0.079   4.964   4.377
 1618SOL    HW1 4894   0.078   4.917   4.465
 1618SOL    HW2 4895   0.161   4.936   4.326
 1619SOL     OW 4896   1.824   3.916   4.951
 1619SOL    HW1 4897   1.820   3.826   4.995
 1619SOL    HW2 4898   1.827   3.905   4.852
 1620SOL     OW 4899   0.428   4.148   4.244
 1620SOL    HW1 4900   0.458   4.076   4.182
 1620SOL    HW2 4901   0.389   4.108   4.327
 1621SOL     OW 4902   1.705   5.211   4.828
 1621SOL    HW1 4903   1.612   5.186   4.801
 1621SOL    HW2 4904   1.731   5.161   4.910
 1622SOL     OW 4905   0.317   4.271   5.004
 1622SOL    HW1 4906   0.355   4.212   5.076
 1622SOL    HW2 4907   0.357   4.245   4.916
 1623SOL     OW 4908   1.424   3.938   4.836
 1623SOL    HW1 4909   1.476   3.873   4.891
 1623SOL    HW2 4910   1.375   4.001   4.897
 1624SOL     OW 4911   1.001   3.758   4.878
 1624SOL    HW1 4912   0.938   3.686   4.847
 1624SOL    HW2 4913   1.094   3.722   4.878
 1625SOL     OW 4914   0.770   5.054   4.025
 1625SOL    HW1 4915   0.724   4.967   4.042
 1625SOL    HW2 4916   0.861   5.051   4.066
 1626SOL     OW 4917   1.352   3.776   3.892
 1626SOL    HW1 4918   1.387   3.735   3.808
 1626SOL    HW2 4919   1.262   3.738   3.912
 1627SOL     OW 4920   1.300   4.177   4.415
 1627SOL    HW1 4921   1.241   4.257   4.419
 1627SOL    HW2 4922   1.315   4.142   4.508
 1628SOL     OW 4923   1.593   3.945   4.606
 1628SOL    HW1 4924   1.509   3.944   4.660
 1628SOL    HW2 4925   1.595   4.028   4.550
 1629SOL     OW 4926   0.039   4.801   4.024
 1629SOL    HW1 4927   0.138   4.790   4.015
 1629SOL    HW2 4928  -0.001   4.715   4.056
 1630SOL     OW 4929   2.092   0.628   0.113
 1630SOL    HW1 4930   1.999   0.626   0.150
 1630SOL    HW2 4931   2.093   0.589   0.021
 1631SOL     OW 4932   2.087   0.275   0.996
 1631SOL    HW1 4933   2.122   0.258   1.088
 1631SOL    HW2 4934   1.999   0.230   0.984
 1632SOL     OW 4935   1.881   0.368   0.647
 1632SOL    HW1 4936   1.799   0.411   0.686
 1632SOL    HW2 4937   1.853   0.295   0.584
 1633SOL     OW 4938   2.431   1.275   1.165
 1633SOL    HW1 4939   2.338   1.268   1.128
 1633SOL    HW2 4940   2.442   1.364   1.209
 1634SOL     OW 4941   3.417   1.511   0.703
 1634SOL    HW1 4942   3.360   1.495   0.784
 1634SOL    HW2 4943   3.358   1.521   0.623
 1635SOL     OW 4944   2.997   0.703   0.717
 1635SOL    HW1 4945   3.054   0.781   0.692
 1635SOL    HW2 4946   2.937   0.729   0.793
 1636SOL     OW 4947   3.617   0.607   0.231
 1636SOL    HW1 4948   3.605   0.594   0.132
 1636SOL    HW2 4949   3.587   0.526   0.280
 1637SOL     OW 4950   2.630   1.144   1.023
 1637SOL    HW1 4951   2.552   1.161   1.083
 1637SOL    HW2 4952   2.664   1.231   0.987
 1638SOL     OW 4953   2.712   0.798   1.823
 1638SOL    HW1 4954   2.708   0.874   1.888
 1638SOL    HW2 4955   2.734   0.834   1.732
 1639SOL     OW 4956   2.547   1.012   0.665
 1639SOL    HW1 4957   2.616   0.996   0.735
 1639SOL    HW2 4958   2.474   1.069   0.703
 1640SOL     OW 4959   2.548   1.161   1.803
 1640SOL    HW1 4960   2.608   1.240   1.817
 1640SOL    HW2 4961   2.462   1.192   1.762
 1641SOL     OW 4962   2.197   1.435   1.061
 1641SOL    HW1 4963   2.119   1.404   1.008
 1641SOL    HW2 4964   2.255   1.493   1.004
 1642SOL     OW 4965   3.322   1.505   1.339
 1642SOL    HW1 4966   3.346   1.599   1.365
 1642SOL    HW2 4967   3.306   1.451   1.421
 1643SOL     OW 4968   2.300   0.392   1.499
 1643SOL    HW1 4969   2.382   0.336   1.508
 1643SOL    HW2 4970   2.219   0.334   1.503
 1644SOL     OW 4971   3.465   0.447   0.737
 1644SOL    HW1 4972   3.391   0.493   0.687
 1644SOL    HW2 4973   3.516   0.515   0.790
 1645SOL     OW 4974   2.093   1.713   0.483
 1645SOL    HW1 4975   2.127   1.790   0.537
 1645SOL    HW2 4976   2.137   1.713   0.393
 1646SOL     OW 4977   2.989   1.341   1.690
 1646SOL    HW1 4978   3.036   1.341   1.778
 1646SOL    HW2 4979   2.941   1.254   1.679
 1647SOL     OW 4980   2.092   1.434   0.538
 1647SOL    HW1 4981   2.066   1.530   0.538
 1647SOL    HW2 4982   2.021   1.380   0.583
 1648SOL     OW 4983   2.102   1.091   0.886
 1648SOL    HW1 4984   2.116   1.007   0.938
 1648SOL    HW2 4985   2.047   1.155   0.941
 1649SOL     OW 4986   2.482   1.786   1.439
 1649SOL    HW1 4987   2.390   1.769   1.474
 1649SOL    HW2 4988   2.510   1.878   1.465
 1650SOL     OW 4989   2.468   0.964   0.123
 1650SOL    HW1 4990   2.475   1.048   0.069
 1650SOL    HW2 4991   2.514   0.977   0.211
 1651SOL     OW 4992   3.456   0.114   1.480
 1651SOL    HW1 4993   3.438   0.181   1.408
 1651SOL    HW2 4994   3.453   0.160   1.569
 1652SOL     OW 4995   1.984   0.643   0.563
 1652SOL    HW1 4996   1.939   0.555   0.580
 1652SOL    HW2 4997   1.983   0.697   0.647
 1653SOL     OW 4998   3.704   1.767   0.359
 1653SOL    HW1 4999   3.758   1.738   0.439
 1653SOL    HW2 5000   3.734   1.857   0.330
 1654SOL     OW 5001   1.889   1.596   0.117
 1654SOL    HW1 5002   1.870   1.500   0.138
 1654SOL    HW2 5003   1.856   1.654   0.192
 1655SOL     OW 5004   3.551   0.922   0.612
 1655SOL    HW1 5005   3.646   0.893   0.620
 1655SOL    HW2 5006   3.543   0.987   0.537
 1656SOL     OW 5007   3.503   1.108   0.432
 1656SOL    HW1 5008   3.589   1.110   0.380
 1656SOL    HW2 5009   3.517   1.155   0.520
 1657SOL     OW 5010   1.975   0.737   1.597
 1657SOL    HW1 5011   2.063   0.724   1.642
 1657SOL    HW2 5012   1.962   0.834   1.575
 1658SOL     OW 5013   2.475   1.365   0.726
 1658SOL    HW1 5014   2.426   1.278   0.735
 1658SOL    HW2 5015   2.452   1.408   0.639
 1659SOL     OW 5016   3.155   1.228   1.423
 1659SOL    HW1 5017   3.192   1.155   1.365
 1659SOL    HW2 5018   3.207   1.233   1.508
 1660SOL     OW 5019   2.671   0.004   0.502
 1660SOL    HW1 5020   2.711   0.095   0.493
 1660SOL    HW2 5021   2.571   0.012   0.508
 1661SOL     OW 5022   2.059   0.976   1.264
 1661SOL    HW1 5023   2.148   0.931   1.250
 1661SOL    HW2 5024   1.986   0.911   1.245
 1662SOL     OW 5025   3.387   0.999   0.190
 1662SOL    HW1 5026   3.324   0.923   0.203
 1662SOL    HW2 5027   3.435   1.017   0.276
 1663SOL     OW 5028   3.049   1.792   1.616
 1663SOL    HW1 5029   3.073   1.852   1.540
 1663SOL    HW2 5030   3.056   1.697   1.586
 1664SOL     OW 5031   2.179   0.251   1.801
 1664SOL    HW1 5032   2.250   0.322   1.807
 1664SOL    HW2 5033   2.091   0.290   1.829
 1665SOL     OW 5034   3.328   1.417   0.953
 1665SOL    HW1 5035   3.269   1.423   1.033
 1665SOL    HW2 5036   3.313   1.329   0.907
 1666SOL     OW 5037   3.529   1.714   0.572
 1666SOL    HW1 5038   3.488   1.691   0.484
 1666SOL    HW2 5039   3.511   1.640   0.637
 1667SOL     OW 5040   2.460   0.729   0.270
 1667SOL    HW1 5041   2.484   0.798   0.202
 1667SOL    HW2 5042   2.382   0.762   0.324
 1668SOL     OW 5043   3.143   0.345   0.944
 1668SOL    HW1 5044   3.057   0.295   0.931
 1668SOL    HW2 5045   3.205   0.291   1.000
 1669SOL     OW 5046   3.438   1.662   0.307
 1669SOL    HW1 5047   3.527   1.708   0.310
 1669SOL    HW2 5048   3.417   1.638   0.212
 1670SOL     OW 5049   2.669   0.605   1.465
 1670SOL    HW1 5050   2.622   0.602   1.554
 1670SOL    HW2 5051   2.618   0.550   1.399
 1671SOL     OW 5052   3.256   0.469   1.674
 1671SOL    HW1 5053   3.236   0.512   1.762
 1671SOL    HW2 5054   3.334   0.407   1.683
 1672SOL     OW 5055   2.835   0.890   1.572
 1672SOL    HW1 5056   2.881   0.806   1.543
 1672SOL    HW2 5057   2.779   0.924   1.497
 1673SOL     OW 5058   2.853   0.410   1.242
 1673SOL    HW1 5059   2.776   0.444   1.296
 1673SOL    HW2 5060   2.819   0.359   1.163
 1674SOL     OW 5061   2.903   0.701   0.429
 1674SOL    HW1 5062   2.929   0.697   0.525
 1674SOL    HW2 5063   2.818   0.650   0.415
 1675SOL     OW 5064   1.938   0.811   0.789
 1675SOL    HW1 5065   2.037   0.799   0.798
 1675SOL    HW2 5066   1.914   0.906   0.810
 1676SOL     OW 5067   1.992   1.821   1.571
 1676SOL    HW1 5068   1.982   1.806   1.670
 1676SOL    HW2 5069   1.906   1.857   1.535
 1677SOL     OW 5070   2.727   0.348   0.195
 1677SOL    HW1 5071   2.786   0.411   0.146
 1677SOL    HW2 5072   2.746   0.254   0.166
 1678SOL     OW 5073   3.581   0.585   1.831
 1678SOL    HW1 5074   3.555   0.674   1.795
 1678SOL    HW2 5075   3.579   0.517   1.758
 1679SOL     OW 5076   3.224   1.144   0.545
 1679SOL    HW1 5077   3.307   1.115   0.497
 1679SOL    HW2 5078   3.175   1.211   0.489
 1680SOL     OW 5079   2.412   0.196   0.885
 1680SOL    HW1 5080   2.407   0.191   0.985
 1680SOL    HW2 5081   2.414   0.292   0.856
 1681SOL     OW 5082   2.870   1.456   0.477
 1681SOL    HW1 5083   2.824   1.528   0.425
 1681SOL    HW2 5084   2.866   1.476   0.575
 1682SOL     OW 5085   2.213   1.801   0.853
 1682SOL    HW1 5086   2.263   1.715   0.859
 1682SOL    HW2 5087   2.278   1.878   0.850
 1683SOL     OW 5088   3.657   1.066   0.873
 1683SOL    HW1 5089   3.595   1.051   0.797
 1683SOL    HW2 5090   3.605   1.077   0.958
 1684SOL     OW 5091   3.089   1.550   1.506
 1684SOL    HW1 5092   3.095   1.473   1.570
 1684SOL    HW2 5093   3.037   1.524   1.426
 1685SOL     OW 5094   2.183   0.943   0.242
 1685SOL    HW1 5095   2.265   0.982   0.200
 1685SOL    HW2 5096   2.156   0.861   0.193
 1686SOL     OW 5097   3.320   0.735   0.728
 1686SOL    HW1 5098   3.315   0.670   0.803
 1686SOL    HW2 5099   3.400   0.794   0.741
 1687SOL     OW 5100   2.323   1.266   1.727
 1687SOL    HW1 5101   2.273   1.267   1.641
 1687SOL    HW2 5102   2.260   1.248   1.803
 1688SOL     OW 5103   2.973   1.776   0.237
 1688SOL    HW1 5104   2.913   1.714   0.287
 1688SOL    HW2 5105   3.004   1.732   0.152
 1689SOL     OW 5106   2.064   0.285   1.498
 1689SOL    HW1 5107   1.984   0.345   1.485
 1689SOL    HW2 5108   2.054   0.236   1.584
 1690SOL     OW 5109   3.494   1.377   0.081
 1690SOL    HW1 5110   3.462   1.471   0.071
 1690SOL    HW2 5111   3.418   1.314   0.069
 1691SOL     OW 5112   2.326   1.743   0.323
 1691SOL    HW1 5113   2.359   1.782   0.409
 1691SOL    HW2 5114   2.402   1.736   0.258
 1692SOL     OW 5115   3.262   0.107   0.426
 1692SOL    HW1 5116   3.238   0.070   0.336
 1692SOL    HW2 5117   3.361   0.123   0.430
 1693SOL     OW 5118   2.111   1.785   1.241
 1693SOL    HW1 5119   2.168   1.720   1.291
 1693SOL    HW2 5120   2.095   1.752   1.148
 1694SOL     OW 5121   2.802   1.698   0.904
 1694SOL    HW1 5122   2.882   1.641   0.925
 1694SOL    HW2 5123   2.753   1.658   0.827
 1695SOL     OW 5124   2.244   0.700   0.480
 1695SOL    HW1 5125   2.289   0.610   0.477
 1695SOL    HW2 5126   2.150   0.689   0.513
 1696SOL     OW 5127   3.409   0.222   1.729
 1696SOL    HW1 5128   3.404   0.259   1.821
 1696SOL    HW2 5129   3.337   0.153   1.717
 1697SOL     OW 5130   2.476   0.122   0.117
 1697SOL    HW1 5131   2.574   0.100   0.124
 1697SOL    HW2 5132   2.445   0.105   0.024
 1698SOL     OW 5133   2.643   0.264   1.749
 1698SOL    HW1 5134   2.710   0.203   1.792
 1698SOL    HW2 5135   2.570   0.283   1.814
 1699SOL     OW 5136   2.750   1.514   1.195
 1699SOL    HW1 5137   2.727   1.489   1.101
 1699SOL    HW2 5138   2.811   1.445   1.234
 1700SOL     OW 5139   3.213   0.590   1.433
 1700SOL    HW1 5140   3.241   0.547   1.518
 1700SOL    HW2 5141   3.238   0.686   1.434
 1701SOL     OW 5142   2.665   1.402   0.924
 1701SOL    HW1 5143   2.755   1.416   0.882
 1701SOL    HW2 5144   2.594   1.404   0.853
 1702SOL     OW 5145   2.784   0.503   0.899
 1702SOL    HW1 5146   2.759   0.494   0.803
 1702SOL    HW2 5147   2.832   0.421   0.930
 1703SOL     OW 5148   2.401   0.064   0.512
 1703SOL    HW1 5149   2.320   0.065   0.570
 1703SOL    HW2 5150   2.404   0.147   0.457
 1704SOL     OW 5151   3.296   1.188   0.041
 1704SOL    HW1 5152   3.328   1.112   0.098
 1704SOL    HW2 5153   3.204   1.215   0.071
 1705SOL     OW 5154   2.159   0.035   0.171
 1705SOL    HW1 5155   2.208   0.119   0.150
 1705SOL    HW2 5156   2.221  -0.030   0.216
 1706SOL     OW 5157   2.797   0.236   0.480
 1706SOL    HW1 5158   2.749   0.277   0.402
 1706SOL    HW2 5159   2.896   0.234   0.461
 1707SOL     OW 5160   2.938   0.683   1.464
 1707SOL    HW1 5161   2.858   0.622   1.467
 1707SOL    HW2 5162   3.019   0.630   1.440
 1708SOL     OW 5163   3.089   1.570   0.793
 1708SOL    HW1 5164   3.110   1.644   0.728
 1708SOL    HW2 5165   3.157   1.570   0.866
 1709SOL     OW 5166   2.321   1.152   0.741
 1709SOL    HW1 5167   2.250   1.125   0.806
 1709SOL    HW2 5168   2.295   1.124   0.648
 1710SOL     OW 5169   3.133   1.797   0.591
 1710SOL    HW1 5170   3.177   1.861   0.527
 1710SOL    HW2 5171   3.083   1.849   0.661
 1711SOL     OW 5172   2.894   0.549   0.016
 1711SOL    HW1 5173   2.853   0.631  -0.023
 1711SOL    HW2 5174   2.958   0.575   0.089
 1712SOL     OW 5175   1.940   0.556   1.386
 1712SOL    HW1 5176   2.032   0.555   1.345
 1712SOL    HW2 5177   1.934   0.630   1.453
 1713SOL     OW 5178   2.423   0.222   1.147
 1713SOL    HW1 5179   2.461   0.138   1.184
 1713SOL    HW2 5180   2.335   0.241   1.191
 1714SOL     OW 5181   2.728   0.454   0.642
 1714SOL    HW1 5182   2.696   0.526   0.580
 1714SOL    HW2 5183   2.752   0.373   0.589
 1715SOL     OW 5184   2.879   0.039   0.753
 1715SOL    HW1 5185   2.807   0.044   0.684
 1715SOL    HW2 5186   2.855  -0.030   0.822
 1716SOL     OW 5187   3.291   1.173   0.867
 1716SOL    HW1 5188   3.236   1.089   0.860
 1716SOL    HW2 5189   3.317   1.202   0.775
 1717SOL     OW 5190   3.328   0.590   0.992
 1717SOL    HW1 5191   3.298   0.495   0.999
 1717SOL    HW2 5192   3.401   0.606   1.058
 1718SOL     OW 5193   3.719   0.833   0.377
 1718SOL    HW1 5194   3.761   0.769   0.441
 1718SOL    HW2 5195   3.681   0.782   0.299
 1719SOL     OW 5196   2.350   1.385   0.174
 1719SOL    HW1 5197   2.263   1.370   0.221
 1719SOL    HW2 5198   2.333   1.411   0.079
 1720SOL     OW 5199   3.526   1.280   0.657
 1720SOL    HW1 5200   3.625   1.288   0.671
 1720SOL    HW2 5201   3.481   1.364   0.688
 1721SOL     OW 5202   3.252   0.575   0.078
 1721SOL    HW1 5203   3.198   0.554   0.159
 1721SOL    HW2 5204   3.343   0.534   0.087
 1722SOL     OW 5205   2.389   0.256   0.328
 1722SOL    HW1 5206   2.416   0.197   0.253
 1722SOL    HW2 5207   2.389   0.351   0.297
 1723SOL     OW 5208   3.616   1.223   1.588
 1723SOL    HW1 5209   3.707   1.184   1.575
 1723SOL    HW2 5210   3.624   1.319   1.612
 1724SOL     OW 5211   2.926   1.347   1.340
 1724SOL    HW1 5212   2.846   1.324   1.395
 1724SOL    HW2 5213   3.009   1.321   1.389
 1725SOL     OW 5214   3.454   1.629   1.625
 1725SOL    HW1 5215   3.481   1.663   1.535
 1725SOL    HW2 5216   3.533   1.591   1.671
 1726SOL     OW 5217   2.973   1.195   1.100
 1726SOL    HW1 5218   2.933   1.239   1.181
 1726SOL    HW2 5219   2.932   1.232   1.017
 1727SOL     OW 5220   3.500   1.099   1.079
 1727SOL    HW1 5221   3.505   1.180   1.138
 1727SOL    HW2 5222   3.414   1.101   1.028
 1728SOL     OW 5223   2.777   0.089   1.402
 1728SOL    HW1 5224   2.802   0.069   1.307
 1728SOL    HW2 5225   2.849   0.145   1.444
 1729SOL     OW 5226   2.842   1.116   1.719
 1729SOL    HW1 5227   2.743   1.122   1.729
 1729SOL    HW2 5228   2.865   1.036   1.663
 1730SOL     OW 5229   2.567   1.050   0.368
 1730SOL    HW1 5230   2.553   1.057   0.467
 1730SOL    HW2 5231   2.651   0.999   0.350
 1731SOL     OW 5232   2.272   0.813   1.251
 1731SOL    HW1 5233   2.358   0.825   1.301
 1731SOL    HW2 5234   2.230   0.726   1.278
 1732SOL     OW 5235   3.136   0.386   1.262
 1732SOL    HW1 5236   3.157   0.460   1.326
 1732SOL    HW2 5237   3.047   0.403   1.219
 1733SOL     OW 5238   1.926   1.564   1.331
 1733SOL    HW1 5239   1.880   1.646   1.297
 1733SOL    HW2 5240   2.024   1.583   1.340
 1734SOL     OW 5241   2.229   1.100   0.501
 1734SOL    HW1 5242   2.222   1.183   0.445
 1734SOL    HW2 5243   2.233   1.020   0.441
 1735SOL     OW 5244   2.428   0.537   0.865
 1735SOL    HW1 5245   2.440   0.603   0.791
 1735SOL    HW2 5246   2.474   0.571   0.948
 1736SOL     OW 5247   3.114   1.348   0.388
 1736SOL    HW1 5248   3.164   1.425   0.428
 1736SOL    HW2 5249   3.019   1.350   0.420
 1737SOL     OW 5250   3.134   1.445   1.142
 1737SOL    HW1 5251   3.181   1.458   1.229
 1737SOL    HW2 5252   3.068   1.371   1.151
 1738SOL     OW 5253   3.444   0.639   0.472
 1738SOL    HW1 5254   3.413   0.700   0.545
 1738SOL    HW2 5255   3.494   0.691   0.403
 1739SOL     OW 5256   2.216   1.510   1.329
 1739SOL    HW1 5257   2.195   1.466   1.242
 1739SOL    HW2 5258   2.313   1.536   1.332
 1740SOL     OW 5259   2.264   0.751   1.598
 1740SOL    HW1 5260   2.332   0.806   1.551
 1740SOL    HW2 5261   2.304   0.663   1.625
 1741SOL     OW 5262   3.449   0.779   1.670
 1741SOL    HW1 5263   3.357   0.817   1.665
 1741SOL    HW2 5264   3.509   0.826   1.605
 1742SOL     OW 5265   2.875   0.105   1.770
 1742SOL    HW1 5266   2.881   0.190   1.718
 1742SOL    HW2 5267   2.907   0.029   1.713
 1743SOL     OW 5268   2.366   0.050   1.740
 1743SOL    HW1 5269   2.324  -0.007   1.670
 1743SOL    HW2 5270   2.300   0.119   1.772
 1744SOL     OW 5271   2.435   0.870   1.029
 1744SOL    HW1 5272   2.479   0.959   1.020
 1744SOL    HW2 5273   2.372   0.870   1.106
 1745SOL     OW 5274   3.222   0.862   1.045
 1745SOL    HW1 5275   3.147   0.862   0.979
 1745SOL    HW2 5276   3.259   0.770   1.054
 1746SOL     OW 5277   3.071   0.525   0.275
 1746SOL    HW1 5278   3.084   0.441   0.329
 1746SOL    HW2 5279   3.042   0.599   0.335
 1747SOL     OW 5280   2.169   0.213   1.231
 1747SOL    HW1 5281   2.146   0.250   1.321
 1747SOL    HW2 5282   2.139   0.118   1.225
 1748SOL     OW 5283   1.899   1.310   1.282
 1748SOL    HW1 5284   1.952   1.261   1.350
 1748SOL    HW2 5285   1.921   1.408   1.287
 1749SOL     OW 5286   2.594   0.634   1.064
 1749SOL    HW1 5287   2.653   0.608   0.988
 1749SOL    HW2 5288   2.566   0.730   1.053
 1750SOL     OW 5289   3.590   0.935   1.854
 1750SOL    HW1 5290   3.544   0.928   1.765
 1750SOL    HW2 5291   3.528   0.979   1.920
 1751SOL     OW 5292   2.169   0.063   0.618
 1751SOL    HW1 5293   2.158   0.157   0.651
 1751SOL    HW2 5294   2.164   0.000   0.695
 1752SOL     OW 5295   3.484   0.367   0.374
 1752SOL    HW1 5296   3.486   0.291   0.438
 1752SOL    HW2 5297   3.436   0.444   0.414
 1753SOL     OW 5298   2.885   0.766   0.966
 1753SOL    HW1 5299   2.900   0.787   1.062
 1753SOL    HW2 5300   2.855   0.671   0.957
 1754SOL     OW 5301   2.842   1.573   1.700
 1754SOL    HW1 5302   2.822   1.617   1.612
 1754SOL    HW2 5303   2.881   1.482   1.684
 1755SOL     OW 5304   3.721   1.518   1.605
 1755SOL    HW1 5305   3.735   1.545   1.510
 1755SOL    HW2 5306   3.804   1.540   1.658
 1756SOL     OW 5307   2.212   0.898   1.804
 1756SOL    HW1 5308   2.288   0.942   1.852
 1756SOL    HW2 5309   2.247   0.851   1.722
 1757SOL     OW 5310   3.402   0.274   0.125
 1757SOL    HW1 5311   3.341   0.199   0.148
 1757SOL    HW2 5312   3.424   0.326   0.208
 1758SOL     OW 5313   3.165   0.838   0.042
 1758SOL    HW1 5314   3.199   0.745   0.057
 1758SOL    HW2 5315   3.183   0.865  -0.053
 1759SOL     OW 5316   2.930   1.333   0.849
 1759SOL    HW1 5317   2.937   1.249   0.794
 1759SOL    HW2 5318   2.992   1.402   0.813
 1760SOL     OW 5319   2.181   0.810   0.949
 1760SOL    HW1 5320   2.274   0.846   0.954
 1760SOL    HW2 5321   2.175   0.725   1.001
 1761SOL     OW 5322   2.201   0.509   1.006
 1761SOL    HW1 5323   2.149   0.426   0.989
 1761SOL    HW2 5324   2.278   0.514   0.942
 1762SOL     OW 5325   3.000   0.380   1.678
 1762SOL    HW1 5326   2.955   0.443   1.742
 1762SOL    HW2 5327   3.093   0.411   1.661
 1763SOL     OW 5328   3.022   0.207   1.477
 1763SOL    HW1 5329   3.022   0.271   1.554
 1763SOL    HW2 5330   3.050   0.255   1.394
 1764SOL     OW 5331   1.950   1.801   0.927
 1764SOL    HW1 5332   1.908   1.715   0.900
 1764SOL    HW2 5333   2.044   1.804   0.893
 1765SOL     OW 5334   2.366   1.568   0.910
 1765SOL    HW1 5335   2.432   1.642   0.919
 1765SOL    HW2 5336   2.410   1.489   0.868
 1766SOL     OW 5337   2.864   0.796   1.238
 1766SOL    HW1 5338   2.905   0.764   1.324
 1766SOL    HW2 5339   2.768   0.769   1.235
 1767SOL     OW 5340   1.902   0.544   1.114
 1767SOL    HW1 5341   1.987   0.511   1.073
 1767SOL    HW2 5342   1.915   0.559   1.212
 1768SOL     OW 5343   2.051   0.520   1.722
 1768SOL    HW1 5344   2.110   0.480   1.652
 1768SOL    HW2 5345   1.993   0.591   1.681
 1769SOL     OW 5346   3.231   0.950   1.660
 1769SOL    HW1 5347   3.270   1.039   1.680
 1769SOL    HW2 5348   3.241   0.930   1.563
 1770SOL     OW 5349   2.677   0.572   0.325
 1770SOL    HW1 5350   2.684   0.483   0.279
 1770SOL    HW2 5351   2.583   0.606   0.317
 1771SOL     OW 5352   3.519   0.604   1.206
 1771SOL    HW1 5353   3.481   0.535   1.268
 1771SOL    HW2 5354   3.601   0.568   1.162
 1772SOL     OW 5355   2.114   1.564   1.744
 1772SOL    HW1 5356   2.084   1.621   1.820
 1772SOL    HW2 5357   2.107   1.467   1.770
 1773SOL     OW 5358   2.533   0.464   1.269
 1773SOL    HW1 5359   2.499   0.375   1.239
 1773SOL    HW2 5360   2.559   0.518   1.189
 1774SOL     OW 5361   2.792   1.678   1.465
 1774SOL    HW1 5362   2.768   1.660   1.370
 1774SOL    HW2 5363   2.822   1.772   1.475
 1775SOL     OW 5364   2.335   0.500   0.191
 1775SOL    HW1 5365   2.396   0.580   0.195
 1775SOL    HW2 5366   2.240   0.531   0.198
 1776SOL     OW 5367   2.021   1.137   1.466
 1776SOL    HW1 5368   2.043   1.076   1.542
 1776SOL    HW2 5369   2.031   1.088   1.380
 1777SOL     OW 5370   3.209   1.059   1.234
 1777SOL    HW1 5371   3.233   0.996   1.160
 1777SOL    HW2 5372   3.119   1.099   1.216
 1778SOL     OW 5373   3.164   0.855   0.309
 1778SOL    HW1 5374   3.078   0.824   0.351
 1778SOL    HW2 5375   3.160   0.841   0.210
 1779SOL     OW 5376   3.621   1.747   1.154
 1779SOL    HW1 5377   3.682   1.777   1.081
 1779SOL    HW2 5378   3.583   1.658   1.132
 1780SOL     OW 5379   3.114   1.731   1.128
 1780SOL    HW1 5380   3.198   1.736   1.074
 1780SOL    HW2 5381   3.091   1.635   1.146
 1781SOL     OW 5382   1.945   1.258   1.022
 1781SOL    HW1 5383   1.940   1.257   1.122
 1781SOL    HW2 5384   1.862   1.217   0.984
 1782SOL     OW 5385   2.550   1.662   1.716
 1782SOL    HW1 5386   2.494   1.743   1.725
 1782SOL    HW2 5387   2.602   1.666   1.630
 1783SOL     OW 5388   2.765   0.086   0.133
 1783SOL    HW1 5389   2.816   0.087   0.047
 1783SOL    HW2 5390   2.821   0.044   0.204
 1784SOL     OW 5391   3.588   0.135   0.523
 1784SOL    HW1 5392   3.661   0.118   0.456
 1784SOL    HW2 5393   3.557   0.048   0.561
 1785SOL     OW 5394   3.250   1.573   0.477
 1785SOL    HW1 5395   3.317   1.585   0.403
 1785SOL    HW2 5396   3.210   1.662   0.500
 1786SOL     OW 5397   1.992   1.794   1.851
 1786SOL    HW1 5398   1.951   1.720   1.904
 1786SOL    HW2 5399   2.056   1.845   1.909
 1787SOL     OW 5400   3.142   0.927   0.672
 1787SOL    HW1 5401   3.202   0.846   0.674
 1787SOL    HW2 5402   3.182   0.996   0.612
 1788SOL     OW 5403   2.692   1.273   1.422
 1788SOL    HW1 5404   2.687   1.306   1.517
 1788SOL    HW2 5405   2.606   1.292   1.376
 1789SOL     OW 5406   2.534   1.616   0.154
 1789SOL    HW1 5407   2.543   1.626   0.055
 1789SOL    HW2 5408   2.494   1.527   0.175
 1790SOL     OW 5409   3.512   1.720   1.394
 1790SOL    HW1 5410   3.565   1.730   1.310
 1790SOL    HW2 5411   3.485   1.810   1.428
 1791SOL     OW 5412   3.703   0.175   0.963
 1791SOL    HW1 5413   3.742   0.090   0.927
 1791SOL    HW2 5414   3.605   0.177   0.944
 1792SOL     OW 5415   2.125   0.326   0.720
 1792SOL    HW1 5416   2.046   0.377   0.686
 1792SOL    HW2 5417   2.116   0.311   0.818
 1793SOL     OW 5418   3.056   1.612   0.031
 1793SOL    HW1 5419   3.062   1.519   0.068
 1793SOL    HW2 5420   2.997   1.612  -0.049
 1794SOL     OW 5421   2.684   1.002   1.372
 1794SOL    HW1 5422   2.724   1.001   1.280
 1794SOL    HW2 5423   2.694   1.094   1.412
 1795SOL     OW 5424   2.778   0.910   0.291
 1795SOL    HW1 5425   2.841   0.948   0.223
 1795SOL    HW2 5426   2.818   0.827   0.330
 1796SOL     OW 5427   3.366   1.607   0.044
 1796SOL    HW1 5428   3.274   1.644   0.051
 1796SOL    HW2 5429   3.404   1.627  -0.046
 1797SOL     OW 5430   2.234   1.288   1.490
 1797SOL    HW1 5431   2.221   1.381   1.456
 1797SOL    HW2 5432   2.150   1.236   1.477
 1798SOL     OW 5433   3.476   1.292   1.289
 1798SOL    HW1 5434   3.536   1.295   1.369
 1798SOL    HW2 5435   3.401   1.356   1.302
 1799SOL     OW 5436   2.901   1.098   0.696
 1799SOL    HW1 5437   2.831   1.051   0.750
 1799SOL    HW2 5438   2.960   1.030   0.653
 1800SOL     OW 5439   2.876   0.236   0.971
 1800SOL    HW1 5440   2.868   0.200   0.878
 1800SOL    HW2 5441   2.874   0.160   1.036
 1801SOL     OW 5442   2.452   1.487   0.491
 1801SOL    HW1 5443   2.494   1.429   0.421
 1801SOL    HW2 5444   2.408   1.566   0.447
 1802SOL     OW 5445   3.571   0.385   1.381
 1802SOL    HW1 5446   3.644   0.454   1.385
 1802SOL    HW2 5447   3.599   0.310   1.322
 1803SOL     OW 5448   2.117   1.348   0.290
 1803SOL    HW1 5449   2.021   1.349   0.263
 1803SOL    HW2 5450   2.129   1.401   0.374
 1804SOL     OW 5451   1.967   1.013   1.726
 1804SOL    HW1 5452   1.890   0.980   1.780
 1804SOL    HW2 5453   2.052   0.983   1.768
 1805SOL     OW 5454   2.534   0.203   1.489
 1805SOL    HW1 5455   2.624   0.187   1.449
 1805SOL    HW2 5456   2.542   0.208   1.588
 1806SOL     OW 5457   1.937   0.345   0.033
 1806SOL    HW1 5458   1.845   0.317   0.004
 1806SOL    HW2 5459   1.968   0.422  -0.023
 1807SOL     OW 5460   3.302   0.856   1.398
 1807SOL    HW1 5461   3.245   0.908   1.335
 1807SOL    HW2 5462   3.398   0.868   1.374
 1808SOL     OW 5463   1.934   0.166   0.318
 1808SOL    HW1 5464   1.917   0.249   0.264
 1808SOL    HW2 5465   2.024   0.129   0.296
 1809SOL     OW 5466   3.045   1.335   0.119
 1809SOL    HW1 5467   2.946   1.324   0.121
 1809SOL    HW2 5468   3.079   1.350   0.212
 1810SOL     OW 5469   2.475   0.842   1.431
 1810SOL    HW1 5470   2.531   0.923   1.414
 1810SOL    HW2 5471   2.534   0.762   1.434
 1811SOL     OW 5472   3.355   1.767   0.959
 1811SOL    HW1 5473   3.388   1.831   0.890
 1811SOL    HW2 5474   3.421   1.761   1.034
 1812SOL     OW 5475   2.578   0.565   1.708
 1812SOL    HW1 5476   2.597   0.630   1.782
 1812SOL    HW2 5477   2.638   0.485   1.717
 1813SOL     OW 5478   3.312   1.220   1.633
 1813SOL    HW1 5479   3.303   1.210   1.732
 1813SOL    HW2 5480   3.408   1.213   1.607
 1814SOL     OW 5481   2.252   1.741   1.560
 1814SOL    HW1 5482   2.161   1.782   1.558
 1814SOL    HW2 5483   2.245   1.647   1.592
 1815SOL     OW 5484   3.536   0.883   1.254
 1815SOL    HW1 5485   3.509   0.794   1.217
 1815SOL    HW2 5486   3.537   0.951   1.181
 1816SOL     OW 5487   3.087   0.325   0.449
 1816SOL    HW1 5488   3.152   0.251   0.438
 1816SOL    HW2 5489   3.107   0.375   0.533
 1817SOL     OW 5490   2.456   0.745   0.652
 1817SOL    HW1 5491   2.506   0.830   0.633
 1817SOL    HW2 5492   2.368   0.747   0.604
 1818SOL     OW 5493   3.639   0.342   1.642
 1818SOL    HW1 5494   3.622   0.373   1.548
 1818SOL    HW2 5495   3.555   0.305   1.680
 1819SOL     OW 5496   3.592   0.934   1.517
 1819SOL    HW1 5497   3.630   1.025   1.532
 1819SOL    HW2 5498   3.584   0.917   1.418
 1820SOL     OW 5499   2.721   1.374   0.016
 1820SOL    HW1 5500   2.675   1.389   0.104
 1820SOL    HW2 5501   2.765   1.459  -0.014
 1821SOL     OW 5502   2.523   1.790   0.953
 1821SOL    HW1 5503   2.477   1.878   0.940
 1821SOL    HW2 5504   2.622   1.802   0.946
 1822SOL     OW 5505   2.721   0.956   0.861
 1822SOL    HW1 5506   2.775   0.887   0.909
 1822SOL    HW2 5507   2.689   1.025   0.927
 1823SOL     OW 5508   2.945   0.984   0.087
 1823SOL    HW1 5509   2.922   1.037   0.005
 1823SOL    HW2 5510   3.026   0.928   0.068
 1824SOL     OW 5511   3.723   1.569   0.851
 1824SOL    HW1 5512   3.652   1.557   0.781
 1824SOL    HW2 5513   3.724   1.490   0.911
 1825SOL     OW 5514   2.083   1.314   1.844
 1825SOL    HW1 5515   2.018   1.241   1.823
 1825SOL    HW2 5516   2.087   1.328   1.942
 1826SOL     OW 5517   1.941   1.240   0.653
 1826SOL    HW1 5518   1.940   1.193   0.741
 1826SOL    HW2 5519   2.023   1.212   0.602
 1827SOL     OW 5520   2.534   1.391   1.624
 1827SOL    HW1 5521   2.456   1.341   1.662
 1827SOL    HW2 5522   2.531   1.486   1.655
 1828SOL     OW 5523   3.686   0.192   1.227
 1828SOL    HW1 5524   3.682   0.102   1.271
 1828SOL    HW2 5525   3.689   0.181   1.128
 1829SOL     OW 5526   2.290   0.424   0.520
 1829SOL    HW1 5527   2.320   0.352   0.458
 1829SOL    HW2 5528   2.251   0.384   0.603
 1830SOL     OW 5529   3.567   1.487   1.104
 1830SOL    HW1 5530   3.474   1.462   1.077
 1830SOL    HW2 5531   3.593   1.437   1.186
 1831SOL     OW 5532   2.179   0.547   1.280
 1831SOL    HW1 5533   2.217   0.488   1.352
 1831SOL    HW2 5534   2.219   0.521   1.192
 1832SOL     OW 5535   2.674   1.586   0.687
 1832SOL    HW1 5536   2.706   1.596   0.593
 1832SOL    HW2 5537   2.595   1.524   0.689
 1833SOL     OW 5538   3.286   0.214   1.112
 1833SOL    HW1 5539   3.338   0.149   1.167
 1833SOL    HW2 5540   3.237   0.277   1.173
 1834SOL     OW 5541   2.863   0.034   1.154
 1834SOL    HW1 5542   2.800  -0.038   1.123
 1834SOL    HW2 5543   2.956  -0.002   1.154
 1835SOL     OW 5544   2.632   1.330   0.301
 1835SOL    HW1 5545   2.586   1.243   0.318
 1835SOL    HW2 5546   2.723   1.327   0.342
 1836SOL     OW 5547   2.480   1.567   1.284
 1836SOL    HW1 5548   2.475   1.649   1.341
 1836SOL    HW2 5549   2.569   1.564   1.239
 1837SOL     OW 5550   3.214   0.052   0.168
 1837SOL    HW1 5551   3.249   0.011   0.084
 1837SOL    HW2 5552   3.124   0.014   0.188
 1838SOL     OW 5553   3.162   0.453   0.691
 1838SOL    HW1 5554   3.103   0.533   0.695
 1838SOL    HW2 5555   3.177   0.418   0.784
 1839SOL     OW 5556   3.455   0.221   0.882
 1839SOL    HW1 5557   3.371   0.220   0.936
 1839SOL    HW2 5558   3.457   0.304   0.826
 1840SOL     OW 5559   1.901   1.077   0.300
 1840SOL    HW1 5560   2.000   1.066   0.291
 1840SOL    HW2 5561   1.861   0.991   0.332
 1841SOL     OW 5562   2.737   1.646   0.337
 1841SOL    HW1 5563   2.660   1.611   0.283
 1841SOL    HW2 5564   2.705   1.717   0.399
 1842SOL     OW 5565   2.092   0.628   1.975
 1842SOL    HW1 5566   1.999   0.626   2.012
 1842SOL    HW2 5567   2.093   0.589   1.883
 1843SOL     OW 5568   2.087   0.275   2.858
 1843SOL    HW1 5569   2.122   0.258   2.950
 1843SOL    HW2 5570   1.999   0.230   2.846
 1844SOL     OW 5571   1.881   0.368   2.509
 1844SOL    HW1 5572   1.799   0.411   2.548
 1844SOL    HW2 5573   1.853   0.295   2.446
 1845SOL     OW 5574   2.431   1.275   3.027
 1845SOL    HW1 5575   2.338   1.268   2.990
 1845SOL    HW2 5576   2.442   1.364   3.071
 1846SOL     OW 5577   3.417   1.511   2.565
 1846SOL    HW1 5578   3.360   1.495   2.646
 1846SOL    HW2 5579   3.358   1.521   2.485
 1847SOL     OW 5580   2.997   0.703   2.579
 1847SOL    HW1 5581   3.054   0.781   2.554
 1847SOL    HW2 5582   2.937   0.729   2.655
 1848SOL     OW 5583   3.617   0.607   2.093
 1848SOL    HW1 5584   3.605   0.594   1.994
 1848SOL    HW2 5585   3.587   0.526   2.142
 1849SOL     OW 5586   2.630   1.144   2.885
 1849SOL    HW1 5587   2.552   1.161   2.945
 1849SOL    HW2 5588   2.664   1.231   2.849
 1850SOL     OW 5589   2.712   0.798   3.685
 1850SOL    HW1 5590   2.708   0.874   3.750
 1850SOL    HW2 5591   2.734   0.834   3.594
 1851SOL     OW 5592   2.547   1.012   2.527
 1851SOL    HW1 5593   2.616   0.996   2.597
 1851SOL    HW2 5594   2.474   1.069   2.565
 1852SOL     OW 5595   2.548   1.161   3.665
 1852SOL    HW1 5596   2.608   1.240   3.679
 1852SOL    HW2 5597   2.462   1.192   3.624
 1853SOL     OW 5598   2.197   1.435   2.923
 1853SOL    HW1 5599   2.119   1.404   2.870
 1853SOL    HW2 5600   2.255   1.493   2.866
 1854SOL     OW 5601   3.322   1.505   3.201
 1854SOL    HW1 5602   3.346   1.599   3.227
 1854SOL    HW2 5603   3.306   1.451   3.283
 1855SOL     OW 5604   2.300   0.392   3.361
 1855SOL    HW1 5605   2.382   0.336   3.370
 1855SOL    HW2 5606   2.219   0.334   3.365
 1856SOL     OW 5607   3.465   0.447   2.599
 1856SOL    HW1 5608   3.391   0.493   2.549
 1856SOL    HW2 5609   3.516   0.515   2.652
 1857SOL     OW 5610   2.093   1.713   2.345
 1857SOL    HW1 5611   2.127   1.790   2.399
 1857SOL    HW2 5612   2.137   1.713   2.255
 1858SOL     OW 5613   2.989   1.341   3.552
 1858SOL    HW1 5614   3.036   1.341   3.640
 1858SOL    HW2 5615   2.941   1.254   3.541
 1859SOL     OW 5616   2.092   1.434   2.400
 1859SOL    HW1 5617   2.066   1.530   2.400
 1859SOL    HW2 5618   2.021   1.380   2.445
 1860SOL     OW 5619   2.102   1.091   2.748
 1860SOL    HW1 5620   2.116   1.007   2.800
 1860SOL    HW2 5621   2.047   1.155   2.803
 1861SOL     OW 5622   2.482   1.786   3.301
 1861SOL    HW1 5623   2.390   1.769   3.336
 1861SOL    HW2 5624   2.510   1.878   3.327
 1862SOL     OW 5625   2.468   0.964   1.985
 1862SOL    HW1 5626   2.475   1.048   1.931
 1862SOL    HW2 5627   2.514   0.977   2.073
 1863SOL     OW 5628   3.456   0.114   3.342
 1863SOL    HW1 5629   3.438   0.181   3.270
 1863SOL    HW2 5630   3.453   0.160   3.431
 1864SOL     OW 5631   1.984   0.643   2.425
 1864SOL    HW1 5632   1.939   0.555   2.442
 1864SOL    HW2 5633   1.983   0.697   2.509
 1865SOL     OW 5634   3.704   1.767   2.221
 1865SOL    HW1 5635   3.758   1.738   2.301
 1865SOL    HW2 5636   3.734   1.857   2.192
 1866SOL     OW 5637   1.889   1.596   1.979
 1866SOL    HW1 5638   1.870   1.500   2.000
 1866SOL    HW2 5639   1.856   1.654   2.054
 1867SOL     OW 5640   3.551   0.922   2.474
 1867SOL    HW1 5641   3.646   0.893   2.482
 1867SOL    HW2 5642   3.543   0.987   2.399
 1868SOL     OW 5643   3.503   1.108   2.294
 1868SOL    HW1 5644   3.589   1.110   2.242
 1868SOL    HW2 5645   3.517   1.155   2.382
 1869SOL     OW 5646   1.975   0.737   3.459
 1869SOL    HW1 5647   2.063   0.724   3.504
 1869SOL    HW2 5648   1.962   0.834   3.437
 1870SOL     OW 5649   2.475   1.365   2.588
 1870SOL    HW1 5650   2.426   1.278   2.597
 1870SOL    HW2 5651   2.452   1.408   2.501
 1871SOL     OW 5652   3.155   1.228   3.285
 1871SOL    HW1 5653   3.192   1.155   3.227
 1871SOL    HW2 5654   3.207   1.233   3.370
 1872SOL     OW 5655   2.671   0.004   2.364
 1872SOL    HW1 5656   2.711   0.095   2.355
 1872SOL    HW2 5657   2.571   0.012   2.370
 1873SOL     OW 5658   2.059   0.976   3.126
 1873SOL    HW1 5659   2.148   0.931   3.112
 1873SOL    HW2 5660   1.986   0.911   3.107
 1874SOL     OW 5661   3.387   0.999   2.052
 1874SOL    HW1 5662   3.324   0.923   2.065
 1874SOL    HW2 5663   3.435   1.017   2.138
 1875SOL     OW 5664   3.049   1.792   3.478
 1875SOL    HW1 5665   3.073   1.852   3.402
 1875SOL    HW2 5666   3.056   1.697   3.448
 1876SOL     OW 5667   2.179   0.251   3.663
 1876SOL    HW1 5668   2.250   0.322   3.669
 1876SOL    HW2 5669   2.091   0.290   3.691
 1877SOL     OW 5670   3.328   1.417   2.815
 1877SOL    HW1 5671   3.269   1.423   2.895
 1877SOL    HW2 5672   3.313   1.329   2.769
 1878SOL     OW 5673   3.529   1.714   2.434
 1878SOL    HW1 5674   3.488   1.691   2.346
 1878SOL    HW2 5675   3.511   1.640   2.499
 1879SOL     OW 5676   2.460   0.729   2.132
 1879SOL    HW1 5677   2.484   0.798   2.064
 1879SOL    HW2 5678   2.382   0.762   2.186
 1880SOL     OW 5679   3.143   0.345   2.806
 1880SOL    HW1 5680   3.057   0.295   2.793
 1880SOL    HW2 5681   3.205   0.291   2.862
 1881SOL     OW 5682   3.438   1.662   2.169
 1881SOL    HW1 5683   3.527   1.708   2.172
 1881SOL    HW2 5684   3.417   1.638   2.074
 1882SOL     OW 5685   2.669   0.605   3.327
 1882SOL    HW1 5686   2.622   0.602   3.416
 1882SOL    HW2 5687   2.618   0.550   3.261
 1883SOL     OW 5688   3.256   0.469   3.536
 1883SOL    HW1 5689   3.236   0.512   3.624
 1883SOL    HW2 5690   3.334   0.407   3.545
 1884SOL     OW 5691   2.835   0.890   3.434
 1884SOL    HW1 5692   2.881   0.806   3.405
 1884SOL    HW2 5693   2.779   0.924   3.359
 1885SOL     OW 5694   2.853   0.410   3.104
 1885SOL    HW1 5695   2.776   0.444   3.158
 1885SOL    HW2 5696   2.819   0.359   3.025
 1886SOL     OW 5697   2.903   0.701   2.291
 1886SOL    HW1 5698   2.929   0.697   2.387
 1886SOL    HW2 5699   2.818   0.650   2.277
 1887SOL     OW 5700   1.938   0.811   2.651
 1887SOL    HW1 5701   2.037   0.799   2.660
 1887SOL    HW2 5702   1.914   0.906   2.672
 1888SOL     OW 5703   1.992   1.821   3.433
 1888SOL    HW1 5704   1.982   1.806   3.532
 1888SOL    HW2 5705   1.906   1.857   3.397
 1889SOL     OW 5706   2.727   0.348   2.057
 1889SOL    HW1 5707   2.786   0.411   2.008
 1889SOL    HW2 5708   2.746   0.254   2.028
 1890SOL     OW 5709   3.581   0.585   3.693
 1890SOL    HW1 5710   3.555   0.674   3.657
 1890SOL    HW2 5711   3.579   0.517   3.620
 1891SOL     OW 5712   3.224   1.144   2.407
 1891SOL    HW1 5713   3.307   1.115   2.359
 1891SOL    HW2 5714   3.175   1.211   2.351
 1892SOL     OW 5715   2.412   0.196   2.747
 1892SOL    HW1 5716   2.407   0.191   2.847
 1892SOL    HW2 5717   2.414   0.292   2.718
 1893SOL     OW 5718   2.870   1.456   2.339
 1893SOL    HW1 5719   2.824   1.528   2.287
 1893SOL    HW2 5720   2.866   1.476   2.437
 1894SOL     OW 5721   2.213   1.801   2.715
 1894SOL    HW1 5722   2.263   1.715   2.721
 1894SOL    HW2 5723   2.278   1.878   2.712
 1895SOL     OW 5724   3.657   1.066   2.735
 1895SOL    HW1 5725   3.595   1.051   2.659
 1895SOL    HW2 5726   3.605   1.077   2.820
 1896SOL     OW 5727   3.089   1.550   3.368
 1896SOL    HW1 5728   3.095   1.473   3.432
 1896SOL    HW2 5729   3.037   1.524   3.288
 1897SOL     OW 5730   2.183   0.943   2.104
 1897SOL    HW1 5731   2.265   0.982   2.062
 1897SOL    HW2 5732   2.156   0.861   2.055
 1898SOL     OW 5733   3.320   0.735   2.590
 1898SOL    HW1 5734   3.315   0.670   2.665
 1898SOL    HW2 5735   3.400   0.794   2.603
 1899SOL     OW 5736   2.323   1.266   3.589
 1899SOL    HW1 5737   2.273   1.267   3.503
 1899SOL    HW2 5738   2.260   1.248   3.665
 1900SOL     OW 5739   2.973   1.776   2.099
 1900SOL    HW1 5740   2.913   1.714   2.149
 1900SOL    HW2 5741   3.004   1.732   2.014
 1901SOL     OW 5742   2.064   0.285   3.360
 1901SOL    HW1 5743   1.984   0.345   3.347
 1901SOL    HW2 5744   2.054   0.236   3.446
 1902SOL     OW 5745   3.494   1.377   1.943
 1902SOL    HW1 5746   3.462   1.471   1.933
 1902SOL    HW2 5747   3.418   1.314   1.931
 1903SOL     OW 5748   2.326   1.743   2.185
 1903SOL    HW1 5749   2.359   1.782   2.271
 1903SOL    HW2 5750   2.402   1.736   2.120
 1904SOL     OW 5751   3.262   0.107   2.288
 1904SOL    HW1 5752   3.238   0.070   2.198
 1904SOL    HW2 5753   3.361   0.123   2.292
 1905SOL     OW 5754   2.111   1.785   3.103
 1905SOL    HW1 5755   2.168   1.720   3.153
 1905SOL    HW2 5756   2.095   1.752   3.010
 1906SOL     OW 5757   2.802   1.698   2.766
 1906SOL    HW1 5758   2.882   1.641   2.787
 1906SOL    HW2 5759   2.753   1.658   2.689
 1907SOL     OW 5760   2.244   0.700   2.342
 1907SOL    HW1 5761   2.289   0.610   2.339
 1907SOL    HW2 5762   2.150   0.689   2.375
 1908SOL     OW 5763   3.409   0.222   3.591
 1908SOL    HW1 5764   3.404   0.259   3.683
 1908SOL    HW2 5765   3.337   0.153   3.579
 1909SOL     OW 5766   2.476   0.122   1.979
 1909SOL    HW1 5767   2.574   0.100   1.986
 1909SOL    HW2 5768   2.445   0.105   1.886
 1910SOL     OW 5769   2.643   0.264   3.611
 1910SOL    HW1 5770   2.710   0.203   3.654
 1910SOL    HW2 5771   2.570   0.283   3.676
 1911SOL     OW 5772   2.750   1.514   3.057
 1911SOL    HW1 5773   2.727   1.489   2.963
 1911SOL    HW2 5774   2.811   1.445   3.096
 1912SOL     OW 5775   3.213   0.590   3.295
 1912SOL    HW1 5776   3.241   0.547   3.380
 1912SOL    HW2 5777   3.238   0.686   3.296
 1913SOL     OW 5778   2.665   1.402   2.786
 1913SOL    HW1 5779   2.755   1.416   2.744
 1913SOL    HW2 5780   2.594   1.404   2.715
 1914SOL     OW 5781   2.784   0.503   2.761
 1914SOL    HW1 5782   2.759   0.494   2.665
 1914SOL    HW2 5783   2.832   0.421   2.792
 1915SOL     OW 5784   2.401   0.064   2.374
 1915SOL    HW1 5785   2.320   0.065   2.432
 1915SOL    HW2 5786   2.404   0.147   2.319
 1916SOL     OW 5787   3.296   1.188   1.903
 1916SOL    HW1 5788   3.328   1.112   1.960
 1916SOL    HW2 5789   3.204   1.215   1.933
 1917SOL     OW 5790   2.159   0.035   2.033
 1917SOL    HW1 5791   2.208   0.119   2.012
 1917SOL    HW2 5792   2.221  -0.030   2.078
 1918SOL     OW 5793   2.797   0.236   2.342
 1918SOL    HW1 5794   2.749   0.277   2.264
 1918SOL    HW2 5795   2.896   0.234   2.323
 1919SOL     OW 5796   2.938   0.683   3.326
 1919SOL    HW1 5797   2.858   0.622   3.329
 1919SOL    HW2 5798   3.019   0.630   3.302
 1920SOL     OW 5799   3.089   1.570   2.655
 1920SOL    HW1 5800   3.110   1.644   2.590
 1920SOL    HW2 5801   3.157   1.570   2.728
 1921SOL     OW 5802   2.321   1.152   2.603
 1921SOL    HW1 5803   2.250   1.125   2.668
 1921SOL    HW2 5804   2.295   1.124   2.510
 1922SOL     OW 5805   3.133   1.797   2.453
 1922SOL    HW1 5806   3.177   1.861   2.389
 1922SOL    HW2 5807   3.083   1.849   2.523
 1923SOL     OW 5808   2.894   0.549   1.878
 1923SOL    HW1 5809   2.853   0.631   1.839
 1923SOL    HW2 5810   2.958   0.575   1.951
 1924SOL     OW 5811   1.940   0.556   3.248
 1924SOL    HW1 5812   2.032   0.555   3.207
 1924SOL    HW2 5813   1.934   0.630   3.315
 1925SOL     OW 5814   2.423   0.222   3.009
 1925SOL    HW1 5815   2.461   0.138   3.046
 1925SOL    HW2 5816   2.335   0.241   3.053
 1926SOL     OW 5817   2.728   0.454   2.504
 1926SOL    HW1 5818   2.696   0.526   2.442
 1926SOL    HW2 5819   2.752   0.373   2.451
 1927SOL     OW 5820   2.879   0.039   2.615
 1927SOL    HW1 5821   2.807   0.044   2.546
 1927SOL    HW2 5822   2.855  -0.030   2.684
 1928SOL     OW 5823   3.291   1.173   2.729
 1928SOL    HW1 5824   3.236   1.089   2.722
 1928SOL    HW2 5825   3.317   1.202   2.637
 1929SOL     OW 5826   3.328   0.590   2.854
 1929SOL    HW1 5827   3.298   0.495   2.861
 1929SOL    HW2 5828   3.401   0.606   2.920
 1930SOL     OW 5829   3.719   0.833   2.239
 1930SOL    HW1 5830   3.761   0.769   2.303
 1930SOL    HW2 5831   3.681   0.782   2.161
 1931SOL     OW 5832   2.350   1.385   2.036
 1931SOL    HW1 5833   2.263   1.370   2.083
 1931SOL    HW2 5834   2.333   1.411   1.941
 1932SOL     OW 5835   3.526   1.280   2.519
 1932SOL    HW1 5836   3.625   1.288   2.533
 1932SOL    HW2 5837   3.481   1.364   2.550
 1933SOL     OW 5838   3.252   0.575   1.940
 1933SOL    HW1 5839   3.198   0.554   2.021
 1933SOL    HW2 5840   3.343   0.534   1.949
 1934SOL     OW 5841   2.389   0.256   2.190
 1934SOL    HW1 5842   2.416   0.197   2.115
 1934SOL    HW2 5843   2.389   0.351   2.159
 1935SOL     OW 5844   3.616   1.223   3.450
 1935SOL    HW1 5845   3.707   1.184   3.437
 1935SOL    HW2 5846   3.624   1.319   3.474
 1936SOL     OW 5847   2.926   1.347   3.202
 1936SOL    HW1 5848   2.846   1.324   3.257
 1936SOL    HW2 5849   3.009   1.321   3.251
 1937SOL     OW 5850   3.454   1.629   3.487
 1937SOL    HW1 5851   3.481   1.663   3.397
 1937SOL    HW2 5852   3.533   1.591   3.533
 1938SOL     OW 5853   2.973   1.195   2.962
 1938SOL    HW1 5854   2.933   1.239   3.043
 1938SOL    HW2 5855   2.932   1.232   2.879
 1939SOL     OW 5856   3.500   1.099   2.941
 1939SOL    HW1 5857   3.505   1.180   3.000
 1939SOL    HW2 5858   3.414   1.101   2.890
 1940SOL     OW 5859   2.777   0.089   3.264
 1940SOL    HW1 5860   2.802   0.069   3.169
 1940SOL    HW2 5861   2.849   0.145   3.306
 1941SOL     OW 5862   2.842   1.116   3.581
 1941SOL    HW1 5863   2.743   1.122   3.591
 1941SOL    HW2 5864   2.865   1.036   3.525
 1942SOL     OW 5865   2.567   1.050   2.230
 1942SOL    HW1 5866   2.553   1.057   2.329
 1942SOL    HW2 5867   2.651   0.999   2.212
 1943SOL     OW 5868   2.272   0.813   3.113
 1943SOL    HW1 5869   2.358   0.825   3.163
 1943SOL    HW2 5870   2.230   0.726   3.140
 1944SOL     OW 5871   3.136   0.386   3.124
 1944SOL    HW1 5872   3.157   0.460   3.188
 1944SOL    HW2 5873   3.047   0.403   3.081
 1945SOL     OW 5874   1.926   1.564   3.193
 1945SOL    HW1 5875   1.880   1.646   3.159
 1945SOL    HW2 5876   2.024   1.583   3.202
 1946SOL     OW 5877   2.229   1.100   2.363
 1946SOL    HW1 5878   2.222   1.183   2.307
 1946SOL    HW2 5879   2.233   1.020   2.303
 1947SOL     OW 5880   2.428   0.537   2.727
 1947SOL    HW1 5881   2.440   0.603   2.653
 1947SOL    HW2 5882   2.474   0.571   2.810
 1948SOL     OW 5883   3.114   1.348   2.250
 1948SOL    HW1 5884   3.164   1.425   2.290
 1948SOL    HW2 5885   3.019   1.350   2.282
 1949SOL     OW 5886   3.134   1.445   3.004
 1949SOL    HW1 5887   3.181   1.458   3.091
 1949SOL    HW2 5888   3.068   1.371   3.013
 1950SOL     OW 5889   3.444   0.639   2.334
 1950SOL    HW1 5890   3.413   0.700   2.407
 1950SOL    HW2 5891   3.494   0.691   2.265
 1951SOL     OW 5892   2.216   1.510   3.191
 1951SOL    HW1 5893   2.195   1.466   3.104
 1951SOL    HW2 5894   2.313   1.536   3.194
 1952SOL     OW 5895   2.264   0.751   3.460
 1952SOL    HW1 5896   2.332   0.806   3.413
 1952SOL    HW2 5897   2.304   0.663   3.487
 1953SOL     OW 5898   3.449   0.779   3.532
 1953SOL    HW1 5899   3.357   0.817   3.527
 1953SOL    HW2 5900   3.509   0.826   3.467
 1954SOL     OW 5901   2.875   0.105   3.632
 1954SOL    HW1 5902   2.881   0.190   3.580
 1954SOL    HW2 5903   2.907   0.029   3.575
 1955SOL     OW 5904   2.366   0.050   3.602
 1955SOL    HW1 5905   2.324  -0.007   3.532
 1955SOL    HW2 5906   2.300   0.119   3.634
 1956SOL     OW 5907   2.435   0.870   2.891
 1956SOL    HW1 5908   2.479   0.959   2.882
 1956SOL    HW2 5909   2.372   0.870   2.968
 1957SOL     OW 5910   3.222   0.862   2.907
 1957SOL    HW1 5911   3.147   0.862   2.841
 1957SOL    HW2 5912   3.259   0.770   2.916
 1958SOL     OW 5913   3.071   0.525   2.137
 1958SOL    HW1 5914   3.084   0.441   2.191
 1958SOL    HW2 5915   3.042   0.599   2.197
 1959SOL     OW 5916   2.169   0.213   3.093
 1959SOL    HW1 5917   2.146   0.250   3.183
 1959SOL    HW2 5918   2.139   0.118   3.087
 1960SOL     OW 5919   1.899   1.310   3.144
 1960SOL    HW1 5920   1.952   1.261   3.212
 1960SOL    HW2 5921   1.921   1.408   3.149
 1961SOL     OW 5922   2.594   0.634   2.926
 1961SOL    HW1 5923   2.653   0.608   2.850
 1961SOL    HW2 5924   2.566   0.730   2.915
 1962SOL     OW 5925   3.590   0.935   3.716
 1962SOL    HW1 5926   3.544   0.928   3.627
 1962SOL    HW2 5927   3.528   0.979   3.782
 1963SOL     OW 5928   2.169   0.063   2.480
 1963SOL    HW1 5929   2.158   0.157   2.513
 1963SOL    HW2 5930   2.164   0.000   2.557
 1964SOL     OW 5931   3.484   0.367   2.236
 1964SOL    HW1 5932   3.486   0.291   2.300
 1964SOL    HW2 5933   3.436   0.444   2.276
 1965SOL     OW 5934   2.885   0.766   2.828
 1965SOL    HW1 5935   2.900   0.787   2.924
 1965SOL    HW2 5936   2.855   0.671   2.819
 1966SOL     OW 5937   2.842   1.573   3.562
 1966SOL    HW1 5938   2.822   1.617   3.474
 1966SOL    HW2 5939   2.881   1.482   3.546
 1967SOL     OW 5940   3.721   1.518   3.467
 1967SOL    HW1 5941   3.735   1.545   3.372
 1967SOL    HW2 5942   3.804   1.540   3.520
 1968SOL     OW 5943   2.212   0.898   3.666
 1968SOL    HW1 5944   2.288   0.942   3.714
 1968SOL    HW2 5945   2.247   0.851   3.584
 1969SOL     OW 5946   3.402   0.274   1.987
 1969SOL    HW1 5947   3.341   0.199   2.010
 1969SOL    HW2 5948   3.424   0.326   2.070
 1970SOL     OW 5949   3.165   0.838   1.904
 1970SOL    HW1 5950   3.199   0.745   1.919
 1970SOL    HW2 5951   3.183   0.865   1.809
 1971SOL     OW 5952   2.930   1.333   2.711
 1971SOL    HW1 5953   2.937   1.249   2.656
 1971SOL    HW2 5954   2.992   1.402   2.675
 1972SOL     OW 5955   2.181   0.810   2.811
 1972SOL    HW1 5956   2.274   0.846   2.816
 1972SOL    HW2 5957   2.175   0.725   2.863
 1973SOL     OW 5958   2.201   0.509   2.868
 1973SOL    HW1 5959   2.149   0.426   2.851
 1973SOL    HW2 5960   2.278   0.514   2.804
 1974SOL     OW 5961   3.000   0.380   3.540
 1974SOL    HW1 5962   2.955   0.443   3.604
 1974SOL    HW2 5963   3.093   0.411   3.523
 1975SOL     OW 5964   3.022   0.207   3.339
 1975SOL    HW1 5965   3.022   0.271   3.416
 1975SOL    HW2 5966   3.050   0.255   3.256
 1976SOL     OW 5967   1.870   1.326   2.062
 1976SOL    HW1 5968   1.777   1.347   2.031
 1976SOL    HW2 5969   1.880   1.227   2.075
 1977SOL     OW 5970   1.950   1.801   2.789
 1977SOL    HW1 5971   1.908   1.715   2.762
 1977SOL    HW2 5972   2.044   1.804   2.755
 1978SOL     OW 5973   2.366   1.568   2.772
 1978SOL    HW1 5974   2.432   1.642   2.781
 1978SOL    HW2 5975   2.410   1.489   2.730
 1979SOL     OW 5976   2.864   0.796   3.100
 1979SOL    HW1 5977   2.905   0.764   3.186
 1979SOL    HW2 5978   2.768   0.769   3.097
 1980SOL     OW 5979   1.902   0.544   2.976
 1980SOL    HW1 5980   1.987   0.511   2.935
 1980SOL    HW2 5981   1.915   0.559   3.074
 1981SOL     OW 5982   2.051   0.520   3.584
 1981SOL    HW1 5983   2.110   0.480   3.514
 1981SOL    HW2 5984   1.993   0.591   3.543
 1982SOL     OW 5985   3.231   0.950   3.522
 1982SOL    HW1 5986   3.270   1.039   3.542
 1982SOL    HW2 5987   3.241   0.930   3.425
 1983SOL     OW 5988   2.677   0.572   2.187
 1983SOL    HW1 5989   2.684   0.483   2.141
 1983SOL    HW2 5990   2.583   0.606   2.179
 1984SOL     OW 5991   3.519   0.604   3.068
 1984SOL    HW1 5992   3.481   0.535   3.130
 1984SOL    HW2 5993   3.601   0.568   3.024
 1985SOL     OW 5994   2.114   1.564   3.606
 1985SOL    HW1 5995   2.084   1.621   3.682
 1985SOL    HW2 5996   2.107   1.467   3.632
 1986SOL     OW 5997   2.533   0.464   3.131
 1986SOL    HW1 5998   2.499   0.375   3.101
 1986SOL    HW2 5999   2.559   0.518   3.051
 1987SOL     OW 6000   2.792   1.678   3.327
 1987SOL    HW1 6001   2.768   1.660   3.232
 1987SOL    HW2 6002   2.822   1.772   3.337
 1988SOL     OW 6003   2.335   0.500   2.053
 1988SOL    HW1 6004   2.396   0.580   2.057
 1988SOL    HW2 6005   2.240   0.531   2.060
 1989SOL     OW 6006   2.021   1.137   3.328
 1989SOL    HW1 6007   2.043   1.076   3.404
 1989SOL    HW2 6008   2.031   1.088   3.242
 1990SOL     OW 6009   3.209   1.059   3.096
 1990SOL    HW1 6010   3.233   0.996   3.022
 1990SOL    HW2 6011   3.119   1.099   3.078
 1991SOL     OW 6012   3.164   0.855   2.171
 1991SOL    HW1 6013   3.078   0.824   2.213
 1991SOL    HW2 6014   3.160   0.841   2.072
 1992SOL     OW 6015   3.621   1.747   3.016
 1992SOL    HW1 6016   3.682   1.777   2.943
 1992SOL    HW2 6017   3.583   1.658   2.994
 1993SOL     OW 6018   3.114   1.731   2.990
 1993SOL    HW1 6019   3.198   1.736   2.936
 1993SOL    HW2 6020   3.091   1.635   3.008
 1994SOL     OW 6021   1.945   1.258   2.884
 1994SOL    HW1 6022   1.940   1.257   2.984
 1994SOL    HW2 6023   1.862   1.217   2.846
 1995SOL     OW 6024   2.550   1.662   3.578
 1995SOL    HW1 6025   2.494   1.743   3.587
 1995SOL    HW2 6026   2.602   1.666   3.492
 1996SOL     OW 6027   3.588   0.135   2.385
 1996SOL    HW1 6028   3.661   0.118   2.318
 1996SOL    HW2 6029   3.557   0.048   2.423
 1997SOL     OW 6030   3.250   1.573   2.339
 1997SOL    HW1 6031   3.317   1.585   2.265
 1997SOL    HW2 6032   3.210   1.662   2.362
 1998SOL     OW 6033   1.992   1.794   3.713
 1998SOL    HW1 6034   1.951   1.720   3.766
 1998SOL    HW2 6035   2.056   1.845   3.771
 1999SOL     OW 6036   3.142   0.927   2.534
 1999SOL    HW1 6037   3.202   0.846   2.536
 1999SOL    HW2 6038   3.182   0.996   2.474
 2000SOL     OW 6039   2.692   1.273   3.284
 2000SOL    HW1 6040   2.687   1.306   3.379
 2000SOL    HW2 6041   2.606   1.292   3.238
 2001SOL     OW 6042   2.534   1.616   2.016
 2001SOL    HW1 6043   2.543   1.626   1.917
 2001SOL    HW2 6044   2.494   1.527   2.037
 2002SOL     OW 6045   3.512   1.720   3.256
 2002SOL    HW1 6046   3.565   1.730   3.172
 2002SOL    HW2 6047   3.485   1.810   3.290
 2003SOL     OW 6048   3.703   0.175   2.825
 2003SOL    HW1 6049   3.742   0.090   2.789
 2003SOL    HW2 6050   3.605   0.177   2.806
 2004SOL     OW 6051   2.125   0.326   2.582
 2004SOL    HW1 6052   2.046   0.377   2.548
 2004SOL    HW2 6053   2.116   0.311   2.680
 2005SOL     OW 6054   3.056   1.612   1.893
 2005SOL    HW1 6055   3.062   1.519   1.930
 2005SOL    HW2 6056   2.997   1.612   1.813
 2006SOL     OW 6057   2.684   1.002   3.234
 2006SOL    HW1 6058   2.724   1.001   3.142
 2006SOL    HW2 6059   2.694   1.094   3.274
 2007SOL     OW 6060   2.778   0.910   2.153
 2007SOL    HW1 6061   2.841   0.948   2.085
 2007SOL    HW2 6062   2.818   0.827   2.192
 2008SOL     OW 6063   3.366   1.607   1.906
 2008SOL    HW1 6064   3.274   1.644   1.913
 2008SOL    HW2 6065   3.404   1.627   1.816
 2009SOL     OW 6066   2.234   1.288   3.352
 2009SOL    HW1 6067   2.221   1.381   3.318
 2009SOL    HW2 6068   2.150   1.236   3.339
 2010SOL     OW 6069   3.476   1.292   3.151
 2010SOL    HW1 6070   3.536   1.295   3.231
 2010SOL    HW2 6071   3.401   1.356   3.164
 2011SOL     OW 6072   2.901   1.098   2.558
 2011SOL    HW1 6073   2.831   1.051   2.612
 2011SOL    HW2 6074   2.960   1.030   2.515
 2012SOL     OW 6075   2.876   0.236   2.833
 2012SOL    HW1 6076   2.868   0.200   2.740
 2012SOL    HW2 6077   2.874   0.160   2.898
 2013SOL     OW 6078   2.452   1.487   2.353
 2013SOL    HW1 6079   2.494   1.429   2.283
 2013SOL    HW2 6080   2.408   1.566   2.309
 2014SOL     OW 6081   3.571   0.385   3.243
 2014SOL    HW1 6082   3.644   0.454   3.247
 2014SOL    HW2 6083   3.599   0.310   3.184
 2015SOL     OW 6084   2.117   1.348   2.152
 2015SOL    HW1 6085   2.021   1.349   2.125
 2015SOL    HW2 6086   2.129   1.401   2.236
 2016SOL     OW 6087   1.967   1.013   3.588
 2016SOL    HW1 6088   1.890   0.980   3.642
 2016SOL    HW2 6089   2.052   0.983   3.630
 2017SOL     OW 6090   2.534   0.203   3.351
 2017SOL    HW1 6091   2.624   0.187   3.311
 2017SOL    HW2 6092   2.542   0.208   3.450
 2018SOL     OW 6093   1.937   0.345   1.895
 2018SOL    HW1 6094   1.845   0.317   1.866
 2018SOL    HW2 6095   1.968   0.422   1.839
 2019SOL     OW 6096   3.302   0.856   3.260
 2019SOL    HW1 6097   3.245   0.908   3.197
 2019SOL    HW2 6098   3.398   0.868   3.236
 2020SOL     OW 6099   1.934   0.166   2.180
 2020SOL    HW1 6100   1.917   0.249   2.126
 2020SOL    HW2 6101   2.024   0.129   2.158
 2021SOL     OW 6102   3.045   1.335   1.981
 2021SOL    HW1 6103   2.946   1.324   1.983
 2021SOL    HW2 6104   3.079   1.350   2.074
 2022SOL     OW 6105   2.475   0.842   3.293
 2022SOL    HW1 6106   2.531   0.923   3.276
 2022SOL    HW2 6107   2.534   0.762   3.296
 2023SOL     OW 6108   3.355   1.767   2.821
 2023SOL    HW1 6109   3.388   1.831   2.752
 2023SOL    HW2 6110   3.421   1.761   2.896
 2024SOL     OW 6111   2.578   0.565   3.570
 2024SOL    HW1 6112   2.597   0.630   3.644
 2024SOL    HW2 6113   2.638   0.485   3.579
 2025SOL     OW 6114   3.312   1.220   3.495
 2025SOL    HW1 6115   3.303   1.210   3.594
 2025SOL    HW2 6116   3.408   1.213   3.469
 2026SOL     OW 6117   2.252   1.741   3.422
 2026SOL    HW1 6118   2.161   1.782   3.420
 2026SOL    HW2 6119   2.245   1.647   3.454
 2027SOL     OW 6120   3.536   0.883   3.116
 2027SOL    HW1 6121   3.509   0.794   3.079
 2027SOL    HW2 6122   3.537   0.951   3.043
 2028SOL     OW 6123   3.087   0.325   2.311
 2028SOL    HW1 6124   3.152   0.251   2.300
 2028SOL    HW2 6125   3.107   0.375   2.395
 2029SOL     OW 6126   2.456   0.745   2.514
 2029SOL    HW1 6127   2.506   0.830   2.495
 2029SOL    HW2 6128   2.368   0.747   2.466
 2030SOL     OW 6129   3.639   0.342   3.504
 2030SOL    HW1 6130   3.622   0.373   3.410
 2030SOL    HW2 6131   3.555   0.305   3.542
 2031SOL     OW 6132   3.592   0.934   3.379
 2031SOL    HW1 6133   3.630   1.025   3.394
 2031SOL    HW2 6134   3.584   0.917   3.280
 2032SOL     OW 6135   2.721   1.374   1.878
 2032SOL    HW1 6136   2.675   1.389   1.966
 2032SOL    HW2 6137   2.765   1.459   1.848
 2033SOL     OW 6138   2.523   1.790   2.815
 2033SOL    HW1 6139   2.477   1.878   2.802
 2033SOL    HW2 6140   2.622   1.802   2.808
 2034SOL     OW 6141   2.721   0.956   2.723
 2034SOL    HW1 6142   2.775   0.887   2.771
 2034SOL    HW2 6143   2.689   1.025   2.789
 2035SOL     OW 6144   2.945   0.984   1.949
 2035SOL    HW1 6145   2.922   1.037   1.867
 2035SOL    HW2 6146   3.026   0.928   1.930
 2036SOL     OW 6147   3.723   1.569   2.713
 2036SOL    HW1 6148   3.652   1.557   2.643
 2036SOL    HW2 6149   3.724   1.490   2.773
 2037SOL     OW 6150   2.083   1.314   3.706
 2037SOL    HW1 6151   2.018   1.241   3.685
 2037SOL    HW2 6152   2.087   1.328   3.804
 2038SOL     OW 6153   1.941   1.240   2.515
 2038SOL    HW1 6154   1.940   1.193   2.603
 2038SOL    HW2 6155   2.023   1.212   2.464
 2039SOL     OW 6156   2.534   1.391   3.486
 2039SOL    HW1 6157   2.456   1.341   3.524
 2039SOL    HW2 6158   2.531   1.486   3.517
 2040SOL     OW 6159   3.686   0.192   3.089
 2040SOL    HW1 6160   3.682   0.102   3.133
 2040SOL    HW2 6161   3.689   0.181   2.990
 2041SOL     OW 6162   2.290   0.424   2.382
 2041SOL    HW1 6163   2.320   0.352   2.320
 2041SOL    HW2 6164   2.251   0.384   2.465
 2042SOL     OW 6165   3.567   1.487   2.966
 2042SOL    HW1 6166   3.474   1.462   2.939
 2042SOL    HW2 6167   3.593   1.437   3.048
 2043SOL     OW 6168   2.179   0.547   3.142
 2043SOL    HW1 6169   2.217   0.488   3.214
 2043SOL    HW2 6170   2.219   0.521   3.054
 2044SOL     OW 6171   2.674   1.586   2.549
 2044SOL    HW1 6172   2.706   1.596   2.455
 2044SOL    HW2 6173   2.595   1.524   2.551
 2045SOL     OW 6174   3.286   0.214   2.974
 2045SOL    HW1 6175   3.338   0.149   3.029
 2045SOL    HW2 6176   3.237   0.277   3.035
 2046SOL     OW 6177   2.863   0.034   3.016
 2046SOL    HW1 6178   2.800  -0.038   2.985
 2046SOL    HW2 6179   2.956  -0.002   3.016
 2047SOL     OW 6180   2.632   1.330   2.163
 2047SOL    HW1 6181   2.586   1.243   2.180
 2047SOL    HW2 6182   2.723   1.327   2.204
 2048SOL     OW 6183   2.480   1.567   3.146
 2048SOL    HW1 6184   2.475   1.649   3.203
 2048SOL    HW2 6185   2.569   1.564   3.101
 2049SOL     OW 6186   3.214   0.052   2.030
 2049SOL    HW1 6187   3.249   0.011   1.946
 2049SOL    HW2 6188   3.124   0.014   2.050
 2050SOL     OW 6189   3.162   0.453   2.553
 2050SOL    HW1 6190   3.103   0.533   2.557
 2050SOL    HW2 6191   3.177   0.418   2.646
 2051SOL     OW 6192   3.455   0.221   2.744
 2051SOL    HW1 6193   3.371   0.220   2.798
 2051SOL    HW2 6194   3.457   0.304   2.688
 2052SOL     OW 6195   1.901   1.077   2.162
 2052SOL    HW1 6196   2.000   1.066   2.153
 2052SOL    HW2 6197   1.861   0.991   2.194
 2053SOL     OW 6198   2.737   1.646   2.199
 2053SOL    HW1 6199   2.660   1.611   2.145
 2053SOL    HW2 6200   2.705   1.717   2.261
 2054SOL     OW 6201   2.092   0.628   3.837
 2054SOL    HW1 6202   1.999   0.626   3.874
 2054SOL    HW2 6203   2.093   0.589   3.745
 2055SOL     OW 6204   2.087   0.275   4.720
 2055SOL    HW1 6205   2.122   0.258   4.812
 2055SOL    HW2 6206   1.999   0.230   4.708
 2056SOL     OW 6207   1.881   0.368   4.371
 2056SOL    HW1 6208   1.799   0.411   4.410
 2056SOL    HW2 6209   1.853   0.295   4.308
 2057SOL     OW 6210   2.431   1.275   4.889
 2057SOL    HW1 6211   2.338   1.268   4.852
 2057SOL    HW2 6212   2.442   1.364   4.933
 2058SOL     OW 6213   3.417   1.511   4.427
 2058SOL    HW1 6214   3.360   1.495   4.508
 2058SOL    HW2 6215   3.358   1.521   4.347
 2059SOL     OW 6216   2.997   0.703   4.441
 2059SOL    HW1 6217   3.054   0.781   4.416
 2059SOL    HW2 6218   2.937   0.729   4.517
 2060SOL     OW 6219   3.617   0.607   3.955
 2060SOL    HW1 6220   3.605   0.594   3.856
 2060SOL    HW2 6221   3.587   0.526   4.004
 2061SOL     OW 6222   2.630   1.144   4.747
 2061SOL    HW1 6223   2.552   1.161   4.807
 2061SOL    HW2 6224   2.664   1.231   4.711
 2062SOL     OW 6225   2.547   1.012   4.389
 2062SOL    HW1 6226   2.616   0.996   4.459
 2062SOL    HW2 6227   2.474   1.069   4.427
 2063SOL     OW 6228   2.197   1.435   4.785
 2063SOL    HW1 6229   2.119   1.404   4.732
 2063SOL    HW2 6230   2.255   1.493   4.728
 2064SOL     OW 6231   2.300   0.392   5.223
 2064SOL    HW1 6232   2.382   0.336   5.232
 2064SOL    HW2 6233   2.219   0.334   5.227
 2065SOL     OW 6234   3.465   0.447   4.461
 2065SOL    HW1 6235   3.391   0.493   4.411
 2065SOL    HW2 6236   3.516   0.515   4.514
 2066SOL     OW 6237   2.093   1.713   4.207
 2066SOL    HW1 6238   2.127   1.790   4.261
 2066SOL    HW2 6239   2.137   1.713   4.117
 2067SOL     OW 6240   2.092   1.434   4.262
 2067SOL    HW1 6241   2.066   1.530   4.262
 2067SOL    HW2 6242   2.021   1.380   4.307
 2068SOL     OW 6243   2.102   1.091   4.610
 2068SOL    HW1 6244   2.116   1.007   4.662
 2068SOL    HW2 6245   2.047   1.155   4.665
 2069SOL     OW 6246   2.482   1.786   5.163
 2069SOL    HW1 6247   2.390   1.769   5.198
 2069SOL    HW2 6248   2.510   1.878   5.189
 2070SOL     OW 6249   2.468   0.964   3.847
 2070SOL    HW1 6250   2.475   1.048   3.793
 2070SOL    HW2 6251   2.514   0.977   3.935
 2071SOL     OW 6252   1.984   0.643   4.287
 2071SOL    HW1 6253   1.939   0.555   4.304
 2071SOL    HW2 6254   1.983   0.697   4.371
 2072SOL     OW 6255   3.704   1.767   4.083
 2072SOL    HW1 6256   3.758   1.738   4.163
 2072SOL    HW2 6257   3.734   1.857   4.054
 2073SOL     OW 6258   1.889   1.596   3.841
 2073SOL    HW1 6259   1.870   1.500   3.862
 2073SOL    HW2 6260   1.856   1.654   3.916
 2074SOL     OW 6261   3.551   0.922   4.336
 2074SOL    HW1 6262   3.646   0.893   4.344
 2074SOL    HW2 6263   3.543   0.987   4.261
 2075SOL     OW 6264   3.503   1.108   4.156
 2075SOL    HW1 6265   3.589   1.110   4.104
 2075SOL    HW2 6266   3.517   1.155   4.244
 2076SOL     OW 6267   2.475   1.365   4.450
 2076SOL    HW1 6268   2.426   1.278   4.459
 2076SOL    HW2 6269   2.452   1.408   4.363
 2077SOL     OW 6270   2.671   0.004   4.226
 2077SOL    HW1 6271   2.711   0.095   4.217
 2077SOL    HW2 6272   2.571   0.012   4.232
 2078SOL     OW 6273   2.059   0.976   4.988
 2078SOL    HW1 6274   2.148   0.931   4.974
 2078SOL    HW2 6275   1.986   0.911   4.969
 2079SOL     OW 6276   3.387   0.999   3.914
 2079SOL    HW1 6277   3.324   0.923   3.927
 2079SOL    HW2 6278   3.435   1.017   4.000
 2080SOL     OW 6279   3.328   1.417   4.677
 2080SOL    HW1 6280   3.269   1.423   4.757
 2080SOL    HW2 6281   3.313   1.329   4.631
 2081SOL     OW 6282   3.529   1.714   4.296
 2081SOL    HW1 6283   3.488   1.691   4.208
 2081SOL    HW2 6284   3.511   1.640   4.361
 2082SOL     OW 6285   2.460   0.729   3.994
 2082SOL    HW1 6286   2.484   0.798   3.926
 2082SOL    HW2 6287   2.382   0.762   4.048
 2083SOL     OW 6288   3.143   0.345   4.668
 2083SOL    HW1 6289   3.057   0.295   4.655
 2083SOL    HW2 6290   3.205   0.291   4.724
 2084SOL     OW 6291   3.438   1.662   4.031
 2084SOL    HW1 6292   3.527   1.708   4.034
 2084SOL    HW2 6293   3.417   1.638   3.936
 2085SOL     OW 6294   2.669   0.605   5.189
 2085SOL    HW1 6295   2.622   0.602   5.278
 2085SOL    HW2 6296   2.618   0.550   5.123
 2086SOL     OW 6297   2.853   0.410   4.966
 2086SOL    HW1 6298   2.776   0.444   5.020
 2086SOL    HW2 6299   2.819   0.359   4.887
 2087SOL     OW 6300   2.903   0.701   4.153
 2087SOL    HW1 6301   2.929   0.697   4.249
 2087SOL    HW2 6302   2.818   0.650   4.139
 2088SOL     OW 6303   1.938   0.811   4.513
 2088SOL    HW1 6304   2.037   0.799   4.522
 2088SOL    HW2 6305   1.914   0.906   4.534
 2089SOL     OW 6306   1.992   1.821   5.295
 2089SOL    HW1 6307   1.982   1.806   5.394
 2089SOL    HW2 6308   1.906   1.857   5.259
 2090SOL     OW 6309   2.727   0.348   3.919
 2090SOL    HW1 6310   2.786   0.411   3.870
 2090SOL    HW2 6311   2.746   0.254   3.890
 2091SOL     OW 6312   3.224   1.144   4.269
 2091SOL    HW1 6313   3.307   1.115   4.221
 2091SOL    HW2 6314   3.175   1.211   4.213
 2092SOL     OW 6315   2.412   0.196   4.609
 2092SOL    HW1 6316   2.407   0.191   4.709
 2092SOL    HW2 6317   2.414   0.292   4.580
 2093SOL     OW 6318   2.870   1.456   4.201
 2093SOL    HW1 6319   2.824   1.528   4.149
 2093SOL    HW2 6320   2.866   1.476   4.299
 2094SOL     OW 6321   2.213   1.801   4.577
 2094SOL    HW1 6322   2.263   1.715   4.583
 2094SOL    HW2 6323   2.278   1.878   4.574
 2095SOL     OW 6324   3.657   1.066   4.597
 2095SOL    HW1 6325   3.595   1.051   4.521
 2095SOL    HW2 6326   3.605   1.077   4.682
 2096SOL     OW 6327   2.183   0.943   3.966
 2096SOL    HW1 6328   2.265   0.982   3.924
 2096SOL    HW2 6329   2.156   0.861   3.917
 2097SOL     OW 6330   3.320   0.735   4.452
 2097SOL    HW1 6331   3.315   0.670   4.527
 2097SOL    HW2 6332   3.400   0.794   4.465
 2098SOL     OW 6333   2.973   1.776   3.961
 2098SOL    HW1 6334   2.913   1.714   4.011
 2098SOL    HW2 6335   3.004   1.732   3.876
 2099SOL     OW 6336   3.494   1.377   3.805
 2099SOL    HW1 6337   3.462   1.471   3.795
 2099SOL    HW2 6338   3.418   1.314   3.793
 2100SOL     OW 6339   2.326   1.743   4.047
 2100SOL    HW1 6340   2.359   1.782   4.133
 2100SOL    HW2 6341   2.402   1.736   3.982
 2101SOL     OW 6342   3.262   0.107   4.150
 2101SOL    HW1 6343   3.238   0.070   4.060
 2101SOL    HW2 6344   3.361   0.123   4.154
 2102SOL     OW 6345   2.111   1.785   4.965
 2102SOL    HW1 6346   2.168   1.720   5.015
 2102SOL    HW2 6347   2.095   1.752   4.872
 2103SOL     OW 6348   2.802   1.698   4.628
 2103SOL    HW1 6349   2.882   1.641   4.649
 2103SOL    HW2 6350   2.753   1.658   4.551
 2104SOL     OW 6351   2.244   0.700   4.204
 2104SOL    HW1 6352   2.289   0.610   4.201
 2104SOL    HW2 6353   2.150   0.689   4.237
 2105SOL     OW 6354   2.476   0.122   3.841
 2105SOL    HW1 6355   2.574   0.100   3.848
 2105SOL    HW2 6356   2.445   0.105   3.748
 2106SOL     OW 6357   2.750   1.514   4.919
 2106SOL    HW1 6358   2.727   1.489   4.825
 2106SOL    HW2 6359   2.811   1.445   4.958
 2107SOL     OW 6360   2.665   1.402   4.648
 2107SOL    HW1 6361   2.755   1.416   4.606
 2107SOL    HW2 6362   2.594   1.404   4.577
 2108SOL     OW 6363   2.784   0.503   4.623
 2108SOL    HW1 6364   2.759   0.494   4.527
 2108SOL    HW2 6365   2.832   0.421   4.654
 2109SOL     OW 6366   2.401   0.064   4.236
 2109SOL    HW1 6367   2.320   0.065   4.294
 2109SOL    HW2 6368   2.404   0.147   4.181
 2110SOL     OW 6369   3.296   1.188   3.765
 2110SOL    HW1 6370   3.328   1.112   3.822
 2110SOL    HW2 6371   3.204   1.215   3.795
 2111SOL     OW 6372   2.159   0.035   3.895
 2111SOL    HW1 6373   2.208   0.119   3.874
 2111SOL    HW2 6374   2.221  -0.030   3.940
 2112SOL     OW 6375   2.797   0.236   4.204
 2112SOL    HW1 6376   2.749   0.277   4.126
 2112SOL    HW2 6377   2.896   0.234   4.185
 2113SOL     OW 6378   3.089   1.570   4.517
 2113SOL    HW1 6379   3.110   1.644   4.452
 2113SOL    HW2 6380   3.157   1.570   4.590
 2114SOL     OW 6381   2.321   1.152   4.465
 2114SOL    HW1 6382   2.250   1.125   4.530
 2114SOL    HW2 6383   2.295   1.124   4.372
 2115SOL     OW 6384   3.133   1.797   4.315
 2115SOL    HW1 6385   3.177   1.861   4.251
 2115SOL    HW2 6386   3.083   1.849   4.385
 2116SOL     OW 6387   2.894   0.549   3.740
 2116SOL    HW1 6388   2.853   0.631   3.701
 2116SOL    HW2 6389   2.958   0.575   3.813
 2117SOL     OW 6390   2.423   0.222   4.871
 2117SOL    HW1 6391   2.461   0.138   4.908
 2117SOL    HW2 6392   2.335   0.241   4.915
 2118SOL     OW 6393   2.728   0.454   4.366
 2118SOL    HW1 6394   2.696   0.526   4.304
 2118SOL    HW2 6395   2.752   0.373   4.313
 2119SOL     OW 6396   2.879   0.039   4.477
 2119SOL    HW1 6397   2.807   0.044   4.408
 2119SOL    HW2 6398   2.855  -0.030   4.546
 2120SOL     OW 6399   3.291   1.173   4.591
 2120SOL    HW1 6400   3.236   1.089   4.584
 2120SOL    HW2 6401   3.317   1.202   4.499
 2121SOL     OW 6402   3.328   0.590   4.716
 2121SOL    HW1 6403   3.298   0.495   4.723
 2121SOL    HW2 6404   3.401   0.606   4.782
 2122SOL     OW 6405   3.719   0.833   4.101
 2122SOL    HW1 6406   3.761   0.769   4.165
 2122SOL    HW2 6407   3.681   0.782   4.023
 2123SOL     OW 6408   2.350   1.385   3.898
 2123SOL    HW1 6409   2.263   1.370   3.945
 2123SOL    HW2 6410   2.333   1.411   3.803
 2124SOL     OW 6411   3.526   1.280   4.381
 2124SOL    HW1 6412   3.625   1.288   4.395
 2124SOL    HW2 6413   3.481   1.364   4.412
 2125SOL     OW 6414   3.252   0.575   3.802
 2125SOL    HW1 6415   3.198   0.554   3.883
 2125SOL    HW2 6416   3.343   0.534   3.811
 2126SOL     OW 6417   2.389   0.256   4.052
 2126SOL    HW1 6418   2.416   0.197   3.977
 2126SOL    HW2 6419   2.389   0.351   4.021
 2127SOL     OW 6420   3.616   1.223   5.312
 2127SOL    HW1 6421   3.707   1.184   5.299
 2127SOL    HW2 6422   3.624   1.319   5.336
 2128SOL     OW 6423   2.973   1.195   4.824
 2128SOL    HW1 6424   2.933   1.239   4.905
 2128SOL    HW2 6425   2.932   1.232   4.741
 2129SOL     OW 6426   3.500   1.099   4.803
 2129SOL    HW1 6427   3.505   1.180   4.862
 2129SOL    HW2 6428   3.414   1.101   4.752
 2130SOL     OW 6429   2.567   1.050   4.092
 2130SOL    HW1 6430   2.553   1.057   4.191
 2130SOL    HW2 6431   2.651   0.999   4.074
 2131SOL     OW 6432   2.272   0.813   4.975
 2131SOL    HW1 6433   2.358   0.825   5.025
 2131SOL    HW2 6434   2.230   0.726   5.002
 2132SOL     OW 6435   3.136   0.386   4.986
 2132SOL    HW1 6436   3.157   0.460   5.050
 2132SOL    HW2 6437   3.047   0.403   4.943
 2133SOL     OW 6438   1.926   1.564   5.055
 2133SOL    HW1 6439   1.880   1.646   5.021
 2133SOL    HW2 6440   2.024   1.583   5.064
 2134SOL     OW 6441   2.229   1.100   4.225
 2134SOL    HW1 6442   2.222   1.183   4.169
 2134SOL    HW2 6443   2.233   1.020   4.165
 2135SOL     OW 6444   2.428   0.537   4.589
 2135SOL    HW1 6445   2.440   0.603   4.515
 2135SOL    HW2 6446   2.474   0.571   4.672
 2136SOL     OW 6447   3.114   1.348   4.112
 2136SOL    HW1 6448   3.164   1.425   4.152
 2136SOL    HW2 6449   3.019   1.350   4.144
 2137SOL     OW 6450   3.134   1.445   4.866
 2137SOL    HW1 6451   3.181   1.458   4.953
 2137SOL    HW2 6452   3.068   1.371   4.875
 2138SOL     OW 6453   3.444   0.639   4.196
 2138SOL    HW1 6454   3.413   0.700   4.269
 2138SOL    HW2 6455   3.494   0.691   4.127
 2139SOL     OW 6456   2.216   1.510   5.053
 2139SOL    HW1 6457   2.195   1.466   4.966
 2139SOL    HW2 6458   2.313   1.536   5.056
 2140SOL     OW 6459   2.435   0.870   4.753
 2140SOL    HW1 6460   2.479   0.959   4.744
 2140SOL    HW2 6461   2.372   0.870   4.830
 2141SOL     OW 6462   3.222   0.862   4.769
 2141SOL    HW1 6463   3.147   0.862   4.703
 2141SOL    HW2 6464   3.259   0.770   4.778
 2142SOL     OW 6465   3.071   0.525   3.999
 2142SOL    HW1 6466   3.084   0.441   4.053
 2142SOL    HW2 6467   3.042   0.599   4.059
 2143SOL     OW 6468   2.169   0.213   4.955
 2143SOL    HW1 6469   2.146   0.250   5.045
 2143SOL    HW2 6470   2.139   0.118   4.949
 2144SOL     OW 6471   1.899   1.310   5.006
 2144SOL    HW1 6472   1.952   1.261   5.074
 2144SOL    HW2 6473   1.921   1.408   5.011
 2145SOL     OW 6474   2.594   0.634   4.788
 2145SOL    HW1 6475   2.653   0.608   4.712
 2145SOL    HW2 6476   2.566   0.730   4.777
 2146SOL     OW 6477   2.169   0.063   4.342
 2146SOL    HW1 6478   2.158   0.157   4.375
 2146SOL    HW2 6479   2.164   0.000   4.419
 2147SOL     OW 6480   3.484   0.367   4.098
 2147SOL    HW1 6481   3.486   0.291   4.162
 2147SOL    HW2 6482   3.436   0.444   4.138
 2148SOL     OW 6483   2.885   0.766   4.690
 2148SOL    HW1 6484   2.900   0.787   4.786
 2148SOL    HW2 6485   2.855   0.671   4.681
 2149SOL     OW 6486   3.402   0.274   3.849
 2149SOL    HW1 6487   3.341   0.199   3.872
 2149SOL    HW2 6488   3.424   0.326   3.932
 2150SOL     OW 6489   3.165   0.838   3.766
 2150SOL    HW1 6490   3.199   0.745   3.781
 2150SOL    HW2 6491   3.183   0.865   3.671
 2151SOL     OW 6492   2.930   1.333   4.573
 2151SOL    HW1 6493   2.937   1.249   4.518
 2151SOL    HW2 6494   2.992   1.402   4.537
 2152SOL     OW 6495   2.181   0.810   4.673
 2152SOL    HW1 6496   2.274   0.846   4.678
 2152SOL    HW2 6497   2.175   0.725   4.725
 2153SOL     OW 6498   2.201   0.509   4.730
 2153SOL    HW1 6499   2.149   0.426   4.713
 2153SOL    HW2 6500   2.278   0.514   4.666
 2154SOL     OW 6501   3.022   0.207   5.201
 2154SOL    HW1 6502   3.022   0.271   5.278
 2154SOL    HW2 6503   3.050   0.255   5.118
 2155SOL     OW 6504   1.870   1.326   3.924
 2155SOL    HW1 6505   1.777   1.347   3.893
 2155SOL    HW2 6506   1.880   1.227   3.937
 2156SOL     OW 6507   1.950   1.801   4.651
 2156SOL    HW1 6508   1.908   1.715   4.624
 2156SOL    HW2 6509   2.044   1.804   4.617
 2157SOL     OW 6510   2.366   1.568   4.634
 2157SOL    HW1 6511   2.432   1.642   4.643
 2157SOL    HW2 6512   2.410   1.489   4.592
 2158SOL     OW 6513   2.864   0.796   4.962
 2158SOL    HW1 6514   2.905   0.764   5.048
 2158SOL    HW2 6515   2.768   0.769   4.959
 2159SOL     OW 6516   1.902   0.544   4.838
 2159SOL    HW1 6517   1.987   0.511   4.797
 2159SOL    HW2 6518   1.915   0.559   4.936
 2160SOL     OW 6519   2.677   0.572   4.049
 2160SOL    HW1 6520   2.684   0.483   4.003
 2160SOL    HW2 6521   2.583   0.606   4.041
 2161SOL     OW 6522   3.519   0.604   4.930
 2161SOL    HW1 6523   3.481   0.535   4.992
 2161SOL    HW2 6524   3.601   0.568   4.886
 2162SOL     OW 6525   2.533   0.464   4.993
 2162SOL    HW1 6526   2.499   0.375   4.963
 2162SOL    HW2 6527   2.559   0.518   4.913
 2163SOL     OW 6528   2.792   1.678   5.189
 2163SOL    HW1 6529   2.768   1.660   5.094
 2163SOL    HW2 6530   2.822   1.772   5.199
 2164SOL     OW 6531   2.335   0.500   3.915
 2164SOL    HW1 6532   2.396   0.580   3.919
 2164SOL    HW2 6533   2.240   0.531   3.922
 2165SOL     OW 6534   2.021   1.137   5.190
 2165SOL    HW1 6535   2.043   1.076   5.266
 2165SOL    HW2 6536   2.031   1.088   5.104
 2166SOL     OW 6537   3.209   1.059   4.958
 2166SOL    HW1 6538   3.233   0.996   4.884
 2166SOL    HW2 6539   3.119   1.099   4.940
 2167SOL     OW 6540   3.164   0.855   4.033
 2167SOL    HW1 6541   3.078   0.824   4.075
 2167SOL    HW2 6542   3.160   0.841   3.934
 2168SOL     OW 6543   3.621   1.747   4.878
 2168SOL    HW1 6544   3.682   1.777   4.805
 2168SOL    HW2 6545   3.583   1.658   4.856
 2169SOL     OW 6546   3.114   1.731   4.852
 2169SOL    HW1 6547   3.198   1.736   4.798
 2169SOL    HW2 6548   3.091   1.635   4.870
 2170SOL     OW 6549   1.945   1.258   4.746
 2170SOL    HW1 6550   1.940   1.257   4.846
 2170SOL    HW2 6551   1.862   1.217   4.708
 2171SOL     OW 6552   3.588   0.135   4.247
 2171SOL    HW1 6553   3.661   0.118   4.180
 2171SOL    HW2 6554   3.557   0.048   4.285
 2172SOL     OW 6555   3.250   1.573   4.201
 2172SOL    HW1 6556   3.317   1.585   4.127
 2172SOL    HW2 6557   3.210   1.662   4.224
 2173SOL     OW 6558   3.142   0.927   4.396
 2173SOL    HW1 6559   3.202   0.846   4.398
 2173SOL    HW2 6560   3.182   0.996   4.336
 2174SOL     OW 6561   2.534   1.616   3.878
 2174SOL    HW1 6562   2.543   1.626   3.779
 2174SOL    HW2 6563   2.494   1.527   3.899
 2175SOL     OW 6564   3.703   0.175   4.687
 2175SOL    HW1 6565   3.742   0.090   4.651
 2175SOL    HW2 6566   3.605   0.177   4.668
 2176SOL     OW 6567   2.125   0.326   4.444
 2176SOL    HW1 6568   2.046   0.377   4.410
 2176SOL    HW2 6569   2.116   0.311   4.542
 2177SOL     OW 6570   3.056   1.612   3.755
 2177SOL    HW1 6571   3.062   1.519   3.792
 2177SOL    HW2 6572   2.997   1.612   3.675
 2178SOL     OW 6573   2.684   1.002   5.096
 2178SOL    HW1 6574   2.724   1.001   5.004
 2178SOL    HW2 6575   2.694   1.094   5.136
 2179SOL     OW 6576   2.778   0.910   4.015
 2179SOL    HW1 6577   2.841   0.948   3.947
 2179SOL    HW2 6578   2.818   0.827   4.054
 2180SOL     OW 6579   3.366   1.607   3.768
 2180SOL    HW1 6580   3.274   1.644   3.775
 2180SOL    HW2 6581   3.404   1.627   3.678
 2181SOL     OW 6582   2.234   1.288   5.214
 2181SOL    HW1 6583   2.221   1.381   5.180
 2181SOL    HW2 6584   2.150   1.236   5.201
 2182SOL     OW 6585   3.476   1.292   5.013
 2182SOL    HW1 6586   3.536   1.295   5.093
 2182SOL    HW2 6587   3.401   1.356   5.026
 2183SOL     OW 6588   2.901   1.098   4.420
 2183SOL    HW1 6589   2.831   1.051   4.474
 2183SOL    HW2 6590   2.960   1.030   4.377
 2184SOL     OW 6591   2.876   0.236   4.695
 2184SOL    HW1 6592   2.868   0.200   4.602
 2184SOL    HW2 6593   2.874   0.160   4.760
 2185SOL     OW 6594   2.452   1.487   4.215
 2185SOL    HW1 6595   2.494   1.429   4.145
 2185SOL    HW2 6596   2.408   1.566   4.171
 2186SOL     OW 6597   3.571   0.385   5.105
 2186SOL    HW1 6598   3.644   0.454   5.109
 2186SOL    HW2 6599   3.599   0.310   5.046
 2187SOL     OW 6600   2.117   1.348   4.014
 2187SOL    HW1 6601   2.021   1.349   3.987
 2187SOL    HW2 6602   2.129   1.401   4.098
 2188SOL     OW 6603   1.937   0.345   3.757
 2188SOL    HW1 6604   1.845   0.317   3.728
 2188SOL    HW2 6605   1.968   0.422   3.701
 2189SOL     OW 6606   1.934   0.166   4.042
 2189SOL    HW1 6607   1.917   0.249   3.988
 2189SOL    HW2 6608   2.024   0.129   4.020
 2190SOL     OW 6609   3.045   1.335   3.843
 2190SOL    HW1 6610   2.946   1.324   3.845
 2190SOL    HW2 6611   3.079   1.350   3.936
 2191SOL     OW 6612   2.475   0.842   5.155
 2191SOL    HW1 6613   2.531   0.923   5.138
 2191SOL    HW2 6614   2.534   0.762   5.158
 2192SOL     OW 6615   3.355   1.767   4.683
 2192SOL    HW1 6616   3.388   1.831   4.614
 2192SOL    HW2 6617   3.421   1.761   4.758
 2193SOL     OW 6618   2.252   1.741   5.284
 2193SOL    HW1 6619   2.161   1.782   5.282
 2193SOL    HW2 6620   2.245   1.647   5.316
 2194SOL     OW 6621   3.536   0.883   4.978
 2194SOL    HW1 6622   3.509   0.794   4.941
 2194SOL    HW2 6623   3.537   0.951   4.905
 2195SOL     OW 6624   3.087   0.325   4.173
 2195SOL    HW1 6625   3.152   0.251   4.162
 2195SOL    HW2 6626   3.107   0.375   4.257
 2196SOL     OW 6627   2.456   0.745   4.376
 2196SOL    HW1 6628   2.506   0.830   4.357
 2196SOL    HW2 6629   2.368   0.747   4.328
 2197SOL     OW 6630   3.592   0.934   5.241
 2197SOL    HW1 6631   3.630   1.025   5.256
 2197SOL    HW2 6632   3.584   0.917   5.142
 2198SOL     OW 6633   2.721   1.374   3.740
 2198SOL    HW1 6634   2.675   1.389   3.828
 2198SOL    HW2 6635   2.765   1.459   3.710
 2199SOL     OW 6636   2.523   1.790   4.677
 2199SOL    HW1 6637   2.477   1.878   4.664
 2199SOL    HW2 6638   2.622   1.802   4.670
 2200SOL     OW 6639   2.721   0.956   4.585
 2200SOL    HW1 6640   2.775   0.887   4.633
 2200SOL    HW2 6641   2.689   1.025   4.651
 2201SOL     OW 6642   2.945   0.984   3.811
 2201SOL    HW1 6643   2.922   1.037   3.729
 2201SOL    HW2 6644   3.026   0.928   3.792
 2202SOL     OW 6645   3.723   1.569   4.575
 2202SOL    HW1 6646   3.652   1.557   4.505
 2202SOL    HW2 6647   3.724   1.490   4.635
 2203SOL     OW 6648   1.941   1.240   4.377
 2203SOL    HW1 6649   1.940   1.193   4.465
 2203SOL    HW2 6650   2.023   1.212   4.326
 2204SOL     OW 6651   3.686   0.192   4.951
 2204SOL    HW1 6652   3.682   0.102   4.995
 2204SOL    HW2 6653   3.689   0.181   4.852
 2205SOL     OW 6654   2.290   0.424   4.244
 2205SOL    HW1 6655   2.320   0.352   4.182
 2205SOL    HW2 6656   2.251   0.384   4.327
 2206SOL     OW 6657   3.567   1.487   4.828
 2206SOL    HW1 6658   3.474   1.462   4.801
 2206SOL    HW2 6659   3.593   1.437   4.910
 2207SOL     OW 6660   2.179   0.547   5.004
 2207SOL    HW1 6661   2.217   0.488   5.076
 2207SOL    HW2 6662   2.219   0.521   4.916
 2208SOL     OW 6663   2.674   1.586   4.411
 2208SOL    HW1 6664   2.706   1.596   4.317
 2208SOL    HW2 6665   2.595   1.524   4.413
 2209SOL     OW 6666   3.286   0.214   4.836
 2209SOL    HW1 6667   3.338   0.149   4.891
 2209SOL    HW2 6668   3.237   0.277   4.897
 2210SOL     OW 6669   2.863   0.034   4.878
 2210SOL    HW1 6670   2.800  -0.038   4.847
 2210SOL    HW2 6671   2.956  -0.002   4.878
 2211SOL     OW 6672   2.632   1.330   4.025
 2211SOL    HW1 6673   2.586   1.243   4.042
 2211SOL    HW2 6674   2.723   1.327   4.066
 2212SOL     OW 6675   2.480   1.567   5.008
 2212SOL    HW1 6676   2.475   1.649   5.065
 2212SOL    HW2 6677   2.569   1.564   4.963
 2213SOL     OW 6678   3.214   0.052   3.892
 2213SOL    HW1 6679   3.249   0.011   3.808
 2213SOL    HW2 6680   3.124   0.014   3.912
 2214SOL     OW 6681   3.162   0.453   4.415
 2214SOL    HW1 6682   3.103   0.533   4.419
 2214SOL    HW2 6683   3.177   0.418   4.508
 2215SOL     OW 6684   3.455   0.221   4.606
 2215SOL    HW1 6685   3.371   0.220   4.660
 2215SOL    HW2 6686   3.457   0.304   4.550
 2216SOL     OW 6687   1.901   1.077   4.024
 2216SOL    HW1 6688   2.000   1.066   4.015
 2216SOL    HW2 6689   1.861   0.991   4.056
 2217SOL     OW 6690   2.737   1.646   4.061
 2217SOL    HW1 6691   2.660   1.611   4.007
 2217SOL    HW2 6692   2.705   1.717   4.123
 2218SOL     OW 6693   2.092   2.490   0.113
 2218SOL    HW1 6694   1.999   2.488   0.150
 2218SOL    HW2 6695   2.093   2.451   0.021
 2219SOL     OW 6696   2.087   2.137   0.996
 2219SOL    HW1 6697   2.122   2.120   1.088
 2219SOL    HW2 6698   1.999   2.092   0.984
 2220SOL     OW 6699   1.881   2.230   0.647
 2220SOL    HW1 6700   1.799   2.273   0.686
 2220SOL    HW2 6701   1.853   2.157   0.584
 2221SOL     OW 6702   2.431   3.137   1.165
 2221SOL    HW1 6703   2.338   3.130   1.128
 2221SOL    HW2 6704   2.442   3.226   1.209
 2222SOL     OW 6705   3.417   3.373   0.703
 2222SOL    HW1 6706   3.360   3.357   0.784
 2222SOL    HW2 6707   3.358   3.383   0.623
 2223SOL     OW 6708   2.997   2.565   0.717
 2223SOL    HW1 6709   3.054   2.643   0.692
 2223SOL    HW2 6710   2.937   2.591   0.793
 2224SOL     OW 6711   3.617   2.469   0.231
 2224SOL    HW1 6712   3.605   2.456   0.132
 2224SOL    HW2 6713   3.587   2.388   0.280
 2225SOL     OW 6714   2.630   3.006   1.023
 2225SOL    HW1 6715   2.552   3.023   1.083
 2225SOL    HW2 6716   2.664   3.093   0.987
 2226SOL     OW 6717   2.712   2.660   1.823
 2226SOL    HW1 6718   2.708   2.736   1.888
 2226SOL    HW2 6719   2.734   2.696   1.732
 2227SOL     OW 6720   2.547   2.874   0.665
 2227SOL    HW1 6721   2.616   2.858   0.735
 2227SOL    HW2 6722   2.474   2.931   0.703
 2228SOL     OW 6723   2.548   3.023   1.803
 2228SOL    HW1 6724   2.608   3.102   1.817
 2228SOL    HW2 6725   2.462   3.054   1.762
 2229SOL     OW 6726   2.197   3.297   1.061
 2229SOL    HW1 6727   2.119   3.266   1.008
 2229SOL    HW2 6728   2.255   3.355   1.004
 2230SOL     OW 6729   3.322   3.367   1.339
 2230SOL    HW1 6730   3.346   3.461   1.365
 2230SOL    HW2 6731   3.306   3.313   1.421
 2231SOL     OW 6732   2.300   2.254   1.499
 2231SOL    HW1 6733   2.382   2.198   1.508
 2231SOL    HW2 6734   2.219   2.196   1.503
 2232SOL     OW 6735   3.465   2.309   0.737
 2232SOL    HW1 6736   3.391   2.355   0.687
 2232SOL    HW2 6737   3.516   2.377   0.790
 2233SOL     OW 6738   2.093   3.575   0.483
 2233SOL    HW1 6739   2.127   3.652   0.537
 2233SOL    HW2 6740   2.137   3.575   0.393
 2234SOL     OW 6741   2.989   3.203   1.690
 2234SOL    HW1 6742   3.036   3.203   1.778
 2234SOL    HW2 6743   2.941   3.116   1.679
 2235SOL     OW 6744   2.092   3.296   0.538
 2235SOL    HW1 6745   2.066   3.392   0.538
 2235SOL    HW2 6746   2.021   3.242   0.583
 2236SOL     OW 6747   2.102   2.953   0.886
 2236SOL    HW1 6748   2.116   2.869   0.938
 2236SOL    HW2 6749   2.047   3.017   0.941
 2237SOL     OW 6750   2.482   3.648   1.439
 2237SOL    HW1 6751   2.390   3.631   1.474
 2237SOL    HW2 6752   2.510   3.740   1.465
 2238SOL     OW 6753   2.468   2.826   0.123
 2238SOL    HW1 6754   2.475   2.910   0.069
 2238SOL    HW2 6755   2.514   2.839   0.211
 2239SOL     OW 6756   3.456   1.976   1.480
 2239SOL    HW1 6757   3.438   2.043   1.408
 2239SOL    HW2 6758   3.453   2.022   1.569
 2240SOL     OW 6759   1.984   2.505   0.563
 2240SOL    HW1 6760   1.939   2.417   0.580
 2240SOL    HW2 6761   1.983   2.559   0.647
 2241SOL     OW 6762   3.704   3.629   0.359
 2241SOL    HW1 6763   3.758   3.600   0.439
 2241SOL    HW2 6764   3.734   3.719   0.330
 2242SOL     OW 6765   1.889   3.458   0.117
 2242SOL    HW1 6766   1.870   3.362   0.138
 2242SOL    HW2 6767   1.856   3.516   0.192
 2243SOL     OW 6768   3.551   2.784   0.612
 2243SOL    HW1 6769   3.646   2.755   0.620
 2243SOL    HW2 6770   3.543   2.849   0.537
 2244SOL     OW 6771   3.503   2.970   0.432
 2244SOL    HW1 6772   3.589   2.972   0.380
 2244SOL    HW2 6773   3.517   3.017   0.520
 2245SOL     OW 6774   1.975   2.599   1.597
 2245SOL    HW1 6775   2.063   2.586   1.642
 2245SOL    HW2 6776   1.962   2.696   1.575
 2246SOL     OW 6777   2.475   3.227   0.726
 2246SOL    HW1 6778   2.426   3.140   0.735
 2246SOL    HW2 6779   2.452   3.270   0.639
 2247SOL     OW 6780   3.155   3.090   1.423
 2247SOL    HW1 6781   3.192   3.017   1.365
 2247SOL    HW2 6782   3.207   3.095   1.508
 2248SOL     OW 6783   2.671   1.866   0.502
 2248SOL    HW1 6784   2.711   1.957   0.493
 2248SOL    HW2 6785   2.571   1.874   0.508
 2249SOL     OW 6786   2.059   2.838   1.264
 2249SOL    HW1 6787   2.148   2.793   1.250
 2249SOL    HW2 6788   1.986   2.773   1.245
 2250SOL     OW 6789   3.387   2.861   0.190
 2250SOL    HW1 6790   3.324   2.785   0.203
 2250SOL    HW2 6791   3.435   2.879   0.276
 2251SOL     OW 6792   3.049   3.654   1.616
 2251SOL    HW1 6793   3.073   3.714   1.540
 2251SOL    HW2 6794   3.056   3.559   1.586
 2252SOL     OW 6795   2.179   2.113   1.801
 2252SOL    HW1 6796   2.250   2.184   1.807
 2252SOL    HW2 6797   2.091   2.152   1.829
 2253SOL     OW 6798   3.328   3.279   0.953
 2253SOL    HW1 6799   3.269   3.285   1.033
 2253SOL    HW2 6800   3.313   3.191   0.907
 2254SOL     OW 6801   3.529   3.576   0.572
 2254SOL    HW1 6802   3.488   3.553   0.484
 2254SOL    HW2 6803   3.511   3.502   0.637
 2255SOL     OW 6804   2.460   2.591   0.270
 2255SOL    HW1 6805   2.484   2.660   0.202
 2255SOL    HW2 6806   2.382   2.624   0.324
 2256SOL     OW 6807   3.143   2.207   0.944
 2256SOL    HW1 6808   3.057   2.157   0.931
 2256SOL    HW2 6809   3.205   2.153   1.000
 2257SOL     OW 6810   3.438   3.524   0.307
 2257SOL    HW1 6811   3.527   3.570   0.310
 2257SOL    HW2 6812   3.417   3.500   0.212
 2258SOL     OW 6813   2.669   2.467   1.465
 2258SOL    HW1 6814   2.622   2.464   1.554
 2258SOL    HW2 6815   2.618   2.412   1.399
 2259SOL     OW 6816   3.256   2.331   1.674
 2259SOL    HW1 6817   3.236   2.374   1.762
 2259SOL    HW2 6818   3.334   2.269   1.683
 2260SOL     OW 6819   2.835   2.752   1.572
 2260SOL    HW1 6820   2.881   2.668   1.543
 2260SOL    HW2 6821   2.779   2.786   1.497
 2261SOL     OW 6822   2.853   2.272   1.242
 2261SOL    HW1 6823   2.776   2.306   1.296
 2261SOL    HW2 6824   2.819   2.221   1.163
 2262SOL     OW 6825   2.903   2.563   0.429
 2262SOL    HW1 6826   2.929   2.559   0.525
 2262SOL    HW2 6827   2.818   2.512   0.415
 2263SOL     OW 6828   1.938   2.673   0.789
 2263SOL    HW1 6829   2.037   2.661   0.798
 2263SOL    HW2 6830   1.914   2.768   0.810
 2264SOL     OW 6831   1.992   3.683   1.571
 2264SOL    HW1 6832   1.982   3.668   1.670
 2264SOL    HW2 6833   1.906   3.719   1.535
 2265SOL     OW 6834   2.727   2.210   0.195
 2265SOL    HW1 6835   2.786   2.273   0.146
 2265SOL    HW2 6836   2.746   2.116   0.166
 2266SOL     OW 6837   3.581   2.447   1.831
 2266SOL    HW1 6838   3.555   2.536   1.795
 2266SOL    HW2 6839   3.579   2.379   1.758
 2267SOL     OW 6840   3.224   3.006   0.545
 2267SOL    HW1 6841   3.307   2.977   0.497
 2267SOL    HW2 6842   3.175   3.073   0.489
 2268SOL     OW 6843   2.412   2.058   0.885
 2268SOL    HW1 6844   2.407   2.053   0.985
 2268SOL    HW2 6845   2.414   2.154   0.856
 2269SOL     OW 6846   2.870   3.318   0.477
 2269SOL    HW1 6847   2.824   3.390   0.425
 2269SOL    HW2 6848   2.866   3.338   0.575
 2270SOL     OW 6849   2.213   3.663   0.853
 2270SOL    HW1 6850   2.263   3.577   0.859
 2270SOL    HW2 6851   2.278   3.740   0.850
 2271SOL     OW 6852   3.657   2.928   0.873
 2271SOL    HW1 6853   3.595   2.913   0.797
 2271SOL    HW2 6854   3.605   2.939   0.958
 2272SOL     OW 6855   3.089   3.412   1.506
 2272SOL    HW1 6856   3.095   3.335   1.570
 2272SOL    HW2 6857   3.037   3.386   1.426
 2273SOL     OW 6858   2.183   2.805   0.242
 2273SOL    HW1 6859   2.265   2.844   0.200
 2273SOL    HW2 6860   2.156   2.723   0.193
 2274SOL     OW 6861   3.320   2.597   0.728
 2274SOL    HW1 6862   3.315   2.532   0.803
 2274SOL    HW2 6863   3.400   2.656   0.741
 2275SOL     OW 6864   2.323   3.128   1.727
 2275SOL    HW1 6865   2.273   3.129   1.641
 2275SOL    HW2 6866   2.260   3.110   1.803
 2276SOL     OW 6867   2.973   3.638   0.237
 2276SOL    HW1 6868   2.913   3.576   0.287
 2276SOL    HW2 6869   3.004   3.594   0.152
 2277SOL     OW 6870   2.064   2.147   1.498
 2277SOL    HW1 6871   1.984   2.207   1.485
 2277SOL    HW2 6872   2.054   2.098   1.584
 2278SOL     OW 6873   3.494   3.239   0.081
 2278SOL    HW1 6874   3.462   3.333   0.071
 2278SOL    HW2 6875   3.418   3.176   0.069
 2279SOL     OW 6876   2.326   3.605   0.323
 2279SOL    HW1 6877   2.359   3.644   0.409
 2279SOL    HW2 6878   2.402   3.598   0.258
 2280SOL     OW 6879   3.262   1.969   0.426
 2280SOL    HW1 6880   3.238   1.932   0.336
 2280SOL    HW2 6881   3.361   1.985   0.430
 2281SOL     OW 6882   2.111   3.647   1.241
 2281SOL    HW1 6883   2.168   3.582   1.291
 2281SOL    HW2 6884   2.095   3.614   1.148
 2282SOL     OW 6885   2.802   3.560   0.904
 2282SOL    HW1 6886   2.882   3.503   0.925
 2282SOL    HW2 6887   2.753   3.520   0.827
 2283SOL     OW 6888   2.244   2.562   0.480
 2283SOL    HW1 6889   2.289   2.472   0.477
 2283SOL    HW2 6890   2.150   2.551   0.513
 2284SOL     OW 6891   3.409   2.084   1.729
 2284SOL    HW1 6892   3.404   2.121   1.821
 2284SOL    HW2 6893   3.337   2.015   1.717
 2285SOL     OW 6894   2.643   2.126   1.749
 2285SOL    HW1 6895   2.710   2.065   1.792
 2285SOL    HW2 6896   2.570   2.145   1.814
 2286SOL     OW 6897   2.750   3.376   1.195
 2286SOL    HW1 6898   2.727   3.351   1.101
 2286SOL    HW2 6899   2.811   3.307   1.234
 2287SOL     OW 6900   3.213   2.452   1.433
 2287SOL    HW1 6901   3.241   2.409   1.518
 2287SOL    HW2 6902   3.238   2.548   1.434
 2288SOL     OW 6903   2.665   3.264   0.924
 2288SOL    HW1 6904   2.755   3.278   0.882
 2288SOL    HW2 6905   2.594   3.266   0.853
 2289SOL     OW 6906   2.784   2.365   0.899
 2289SOL    HW1 6907   2.759   2.356   0.803
 2289SOL    HW2 6908   2.832   2.283   0.930
 2290SOL     OW 6909   2.401   1.926   0.512
 2290SOL    HW1 6910   2.320   1.927   0.570
 2290SOL    HW2 6911   2.404   2.009   0.457
 2291SOL     OW 6912   3.296   3.050   0.041
 2291SOL    HW1 6913   3.328   2.974   0.098
 2291SOL    HW2 6914   3.204   3.077   0.071
 2292SOL     OW 6915   2.797   2.098   0.480
 2292SOL    HW1 6916   2.749   2.139   0.402
 2292SOL    HW2 6917   2.896   2.096   0.461
 2293SOL     OW 6918   2.938   2.545   1.464
 2293SOL    HW1 6919   2.858   2.484   1.467
 2293SOL    HW2 6920   3.019   2.492   1.440
 2294SOL     OW 6921   3.089   3.432   0.793
 2294SOL    HW1 6922   3.110   3.506   0.728
 2294SOL    HW2 6923   3.157   3.432   0.866
 2295SOL     OW 6924   2.321   3.014   0.741
 2295SOL    HW1 6925   2.250   2.987   0.806
 2295SOL    HW2 6926   2.295   2.986   0.648
 2296SOL     OW 6927   3.133   3.659   0.591
 2296SOL    HW1 6928   3.177   3.723   0.527
 2296SOL    HW2 6929   3.083   3.711   0.661
 2297SOL     OW 6930   2.894   2.411   0.016
 2297SOL    HW1 6931   2.853   2.493  -0.023
 2297SOL    HW2 6932   2.958   2.437   0.089
 2298SOL     OW 6933   1.940   2.418   1.386
 2298SOL    HW1 6934   2.032   2.417   1.345
 2298SOL    HW2 6935   1.934   2.492   1.453
 2299SOL     OW 6936   2.423   2.084   1.147
 2299SOL    HW1 6937   2.461   2.000   1.184
 2299SOL    HW2 6938   2.335   2.103   1.191
 2300SOL     OW 6939   2.728   2.316   0.642
 2300SOL    HW1 6940   2.696   2.388   0.580
 2300SOL    HW2 6941   2.752   2.235   0.589
 2301SOL     OW 6942   2.879   1.901   0.753
 2301SOL    HW1 6943   2.807   1.906   0.684
 2301SOL    HW2 6944   2.855   1.832   0.822
 2302SOL     OW 6945   3.291   3.035   0.867
 2302SOL    HW1 6946   3.236   2.951   0.860
 2302SOL    HW2 6947   3.317   3.064   0.775
 2303SOL     OW 6948   3.328   2.452   0.992
 2303SOL    HW1 6949   3.298   2.357   0.999
 2303SOL    HW2 6950   3.401   2.468   1.058
 2304SOL     OW 6951   3.719   2.695   0.377
 2304SOL    HW1 6952   3.761   2.631   0.441
 2304SOL    HW2 6953   3.681   2.644   0.299
 2305SOL     OW 6954   2.350   3.247   0.174
 2305SOL    HW1 6955   2.263   3.232   0.221
 2305SOL    HW2 6956   2.333   3.273   0.079
 2306SOL     OW 6957   3.526   3.142   0.657
 2306SOL    HW1 6958   3.625   3.150   0.671
 2306SOL    HW2 6959   3.481   3.226   0.688
 2307SOL     OW 6960   3.252   2.437   0.078
 2307SOL    HW1 6961   3.198   2.416   0.159
 2307SOL    HW2 6962   3.343   2.396   0.087
 2308SOL     OW 6963   2.389   2.118   0.328
 2308SOL    HW1 6964   2.416   2.059   0.253
 2308SOL    HW2 6965   2.389   2.213   0.297
 2309SOL     OW 6966   3.616   3.085   1.588
 2309SOL    HW1 6967   3.707   3.046   1.575
 2309SOL    HW2 6968   3.624   3.181   1.612
 2310SOL     OW 6969   2.926   3.209   1.340
 2310SOL    HW1 6970   2.846   3.186   1.395
 2310SOL    HW2 6971   3.009   3.183   1.389
 2311SOL     OW 6972   3.454   3.491   1.625
 2311SOL    HW1 6973   3.481   3.525   1.535
 2311SOL    HW2 6974   3.533   3.453   1.671
 2312SOL     OW 6975   2.973   3.057   1.100
 2312SOL    HW1 6976   2.933   3.101   1.181
 2312SOL    HW2 6977   2.932   3.094   1.017
 2313SOL     OW 6978   3.500   2.961   1.079
 2313SOL    HW1 6979   3.505   3.042   1.138
 2313SOL    HW2 6980   3.414   2.963   1.028
 2314SOL     OW 6981   2.777   1.951   1.402
 2314SOL    HW1 6982   2.802   1.931   1.307
 2314SOL    HW2 6983   2.849   2.007   1.444
 2315SOL     OW 6984   2.842   2.978   1.719
 2315SOL    HW1 6985   2.743   2.984   1.729
 2315SOL    HW2 6986   2.865   2.898   1.663
 2316SOL     OW 6987   2.567   2.912   0.368
 2316SOL    HW1 6988   2.553   2.919   0.467
 2316SOL    HW2 6989   2.651   2.861   0.350
 2317SOL     OW 6990   2.272   2.675   1.251
 2317SOL    HW1 6991   2.358   2.687   1.301
 2317SOL    HW2 6992   2.230   2.588   1.278
 2318SOL     OW 6993   3.136   2.248   1.262
 2318SOL    HW1 6994   3.157   2.322   1.326
 2318SOL    HW2 6995   3.047   2.265   1.219
 2319SOL     OW 6996   1.926   3.426   1.331
 2319SOL    HW1 6997   1.880   3.508   1.297
 2319SOL    HW2 6998   2.024   3.445   1.340
 2320SOL     OW 6999   2.229   2.962   0.501
 2320SOL    HW1 7000   2.222   3.045   0.445
 2320SOL    HW2 7001   2.233   2.882   0.441
 2321SOL     OW 7002   2.428   2.399   0.865
 2321SOL    HW1 7003   2.440   2.465   0.791
 2321SOL    HW2 7004   2.474   2.433   0.948
 2322SOL     OW 7005   3.114   3.210   0.388
 2322SOL    HW1 7006   3.164   3.287   0.428
 2322SOL    HW2 7007   3.019   3.212   0.420
 2323SOL     OW 7008   3.134   3.307   1.142
 2323SOL    HW1 7009   3.181   3.320   1.229
 2323SOL    HW2 7010   3.068   3.233   1.151
 2324SOL     OW 7011   3.444   2.501   0.472
 2324SOL    HW1 7012   3.413   2.562   0.545
 2324SOL    HW2 7013   3.494   2.553   0.403
 2325SOL     OW 7014   2.216   3.372   1.329
 2325SOL    HW1 7015   2.195   3.328   1.242
 2325SOL    HW2 7016   2.313   3.398   1.332
 2326SOL     OW 7017   2.264   2.613   1.598
 2326SOL    HW1 7018   2.332   2.668   1.551
 2326SOL    HW2 7019   2.304   2.525   1.625
 2327SOL     OW 7020   3.449   2.641   1.670
 2327SOL    HW1 7021   3.357   2.679   1.665
 2327SOL    HW2 7022   3.509   2.688   1.605
 2328SOL     OW 7023   2.875   1.967   1.770
 2328SOL    HW1 7024   2.881   2.052   1.718
 2328SOL    HW2 7025   2.907   1.891   1.713
 2329SOL     OW 7026   2.366   1.912   1.740
 2329SOL    HW1 7027   2.324   1.855   1.670
 2329SOL    HW2 7028   2.300   1.981   1.772
 2330SOL     OW 7029   2.435   2.732   1.029
 2330SOL    HW1 7030   2.479   2.821   1.020
 2330SOL    HW2 7031   2.372   2.732   1.106
 2331SOL     OW 7032   3.222   2.724   1.045
 2331SOL    HW1 7033   3.147   2.724   0.979
 2331SOL    HW2 7034   3.259   2.632   1.054
 2332SOL     OW 7035   3.071   2.387   0.275
 2332SOL    HW1 7036   3.084   2.303   0.329
 2332SOL    HW2 7037   3.042   2.461   0.335
 2333SOL     OW 7038   2.169   2.075   1.231
 2333SOL    HW1 7039   2.146   2.112   1.321
 2333SOL    HW2 7040   2.139   1.980   1.225
 2334SOL     OW 7041   1.899   3.172   1.282
 2334SOL    HW1 7042   1.952   3.123   1.350
 2334SOL    HW2 7043   1.921   3.270   1.287
 2335SOL     OW 7044   2.594   2.496   1.064
 2335SOL    HW1 7045   2.653   2.470   0.988
 2335SOL    HW2 7046   2.566   2.592   1.053
 2336SOL     OW 7047   3.590   2.797   1.854
 2336SOL    HW1 7048   3.544   2.790   1.765
 2336SOL    HW2 7049   3.528   2.841   1.920
 2337SOL     OW 7050   2.169   1.925   0.618
 2337SOL    HW1 7051   2.158   2.019   0.651
 2337SOL    HW2 7052   2.164   1.862   0.695
 2338SOL     OW 7053   3.484   2.229   0.374
 2338SOL    HW1 7054   3.486   2.153   0.438
 2338SOL    HW2 7055   3.436   2.306   0.414
 2339SOL     OW 7056   2.885   2.628   0.966
 2339SOL    HW1 7057   2.900   2.649   1.062
 2339SOL    HW2 7058   2.855   2.533   0.957
 2340SOL     OW 7059   2.842   3.435   1.700
 2340SOL    HW1 7060   2.822   3.479   1.612
 2340SOL    HW2 7061   2.881   3.344   1.684
 2341SOL     OW 7062   3.721   3.380   1.605
 2341SOL    HW1 7063   3.735   3.407   1.510
 2341SOL    HW2 7064   3.804   3.402   1.658
 2342SOL     OW 7065   2.212   2.760   1.804
 2342SOL    HW1 7066   2.288   2.804   1.852
 2342SOL    HW2 7067   2.247   2.713   1.722
 2343SOL     OW 7068   3.402   2.136   0.125
 2343SOL    HW1 7069   3.341   2.061   0.148
 2343SOL    HW2 7070   3.424   2.188   0.208
 2344SOL     OW 7071   3.165   2.700   0.042
 2344SOL    HW1 7072   3.199   2.607   0.057
 2344SOL    HW2 7073   3.183   2.727  -0.053
 2345SOL     OW 7074   2.930   3.195   0.849
 2345SOL    HW1 7075   2.937   3.111   0.794
 2345SOL    HW2 7076   2.992   3.264   0.813
 2346SOL     OW 7077   2.181   2.672   0.949
 2346SOL    HW1 7078   2.274   2.708   0.954
 2346SOL    HW2 7079   2.175   2.587   1.001
 2347SOL     OW 7080   2.201   2.371   1.006
 2347SOL    HW1 7081   2.149   2.288   0.989
 2347SOL    HW2 7082   2.278   2.376   0.942
 2348SOL     OW 7083   3.000   2.242   1.678
 2348SOL    HW1 7084   2.955   2.305   1.742
 2348SOL    HW2 7085   3.093   2.273   1.661
 2349SOL     OW 7086   3.022   2.069   1.477
 2349SOL    HW1 7087   3.022   2.133   1.554
 2349SOL    HW2 7088   3.050   2.117   1.394
 2350SOL     OW 7089   1.950   3.663   0.927
 2350SOL    HW1 7090   1.908   3.577   0.900
 2350SOL    HW2 7091   2.044   3.666   0.893
 2351SOL     OW 7092   2.366   3.430   0.910
 2351SOL    HW1 7093   2.432   3.504   0.919
 2351SOL    HW2 7094   2.410   3.351   0.868
 2352SOL     OW 7095   2.864   2.658   1.238
 2352SOL    HW1 7096   2.905   2.626   1.324
 2352SOL    HW2 7097   2.768   2.631   1.235
 2353SOL     OW 7098   1.902   2.406   1.114
 2353SOL    HW1 7099   1.987   2.373   1.073
 2353SOL    HW2 7100   1.915   2.421   1.212
 2354SOL     OW 7101   2.051   2.382   1.722
 2354SOL    HW1 7102   2.110   2.342   1.652
 2354SOL    HW2 7103   1.993   2.453   1.681
 2355SOL     OW 7104   3.231   2.812   1.660
 2355SOL    HW1 7105   3.270   2.901   1.680
 2355SOL    HW2 7106   3.241   2.792   1.563
 2356SOL     OW 7107   2.677   2.434   0.325
 2356SOL    HW1 7108   2.684   2.345   0.279
 2356SOL    HW2 7109   2.583   2.468   0.317
 2357SOL     OW 7110   3.519   2.466   1.206
 2357SOL    HW1 7111   3.481   2.397   1.268
 2357SOL    HW2 7112   3.601   2.430   1.162
 2358SOL     OW 7113   2.114   3.426   1.744
 2358SOL    HW1 7114   2.084   3.483   1.820
 2358SOL    HW2 7115   2.107   3.329   1.770
 2359SOL     OW 7116   2.533   2.326   1.269
 2359SOL    HW1 7117   2.499   2.237   1.239
 2359SOL    HW2 7118   2.559   2.380   1.189
 2360SOL     OW 7119   2.792   3.540   1.465
 2360SOL    HW1 7120   2.768   3.522   1.370
 2360SOL    HW2 7121   2.822   3.634   1.475
 2361SOL     OW 7122   2.335   2.362   0.191
 2361SOL    HW1 7123   2.396   2.442   0.195
 2361SOL    HW2 7124   2.240   2.393   0.198
 2362SOL     OW 7125   2.021   2.999   1.466
 2362SOL    HW1 7126   2.043   2.938   1.542
 2362SOL    HW2 7127   2.031   2.950   1.380
 2363SOL     OW 7128   3.209   2.921   1.234
 2363SOL    HW1 7129   3.233   2.858   1.160
 2363SOL    HW2 7130   3.119   2.961   1.216
 2364SOL     OW 7131   3.164   2.717   0.309
 2364SOL    HW1 7132   3.078   2.686   0.351
 2364SOL    HW2 7133   3.160   2.703   0.210
 2365SOL     OW 7134   3.621   3.609   1.154
 2365SOL    HW1 7135   3.682   3.639   1.081
 2365SOL    HW2 7136   3.583   3.520   1.132
 2366SOL     OW 7137   3.114   3.593   1.128
 2366SOL    HW1 7138   3.198   3.598   1.074
 2366SOL    HW2 7139   3.091   3.497   1.146
 2367SOL     OW 7140   1.945   3.120   1.022
 2367SOL    HW1 7141   1.940   3.119   1.122
 2367SOL    HW2 7142   1.862   3.079   0.984
 2368SOL     OW 7143   2.550   3.524   1.716
 2368SOL    HW1 7144   2.494   3.605   1.725
 2368SOL    HW2 7145   2.602   3.528   1.630
 2369SOL     OW 7146   2.765   1.948   0.133
 2369SOL    HW1 7147   2.816   1.949   0.047
 2369SOL    HW2 7148   2.821   1.906   0.204
 2370SOL     OW 7149   3.588   1.997   0.523
 2370SOL    HW1 7150   3.661   1.980   0.456
 2370SOL    HW2 7151   3.557   1.910   0.561
 2371SOL     OW 7152   3.250   3.435   0.477
 2371SOL    HW1 7153   3.317   3.447   0.403
 2371SOL    HW2 7154   3.210   3.524   0.500
 2372SOL     OW 7155   1.992   3.656   1.851
 2372SOL    HW1 7156   1.951   3.582   1.904
 2372SOL    HW2 7157   2.056   3.707   1.909
 2373SOL     OW 7158   3.142   2.789   0.672
 2373SOL    HW1 7159   3.202   2.708   0.674
 2373SOL    HW2 7160   3.182   2.858   0.612
 2374SOL     OW 7161   2.692   3.135   1.422
 2374SOL    HW1 7162   2.687   3.168   1.517
 2374SOL    HW2 7163   2.606   3.154   1.376
 2375SOL     OW 7164   2.534   3.478   0.154
 2375SOL    HW1 7165   2.543   3.488   0.055
 2375SOL    HW2 7166   2.494   3.389   0.175
 2376SOL     OW 7167   3.512   3.582   1.394
 2376SOL    HW1 7168   3.565   3.592   1.310
 2376SOL    HW2 7169   3.485   3.672   1.428
 2377SOL     OW 7170   3.703   2.037   0.963
 2377SOL    HW1 7171   3.742   1.952   0.927
 2377SOL    HW2 7172   3.605   2.039   0.944
 2378SOL     OW 7173   2.125   2.188   0.720
 2378SOL    HW1 7174   2.046   2.239   0.686
 2378SOL    HW2 7175   2.116   2.173   0.818
 2379SOL     OW 7176   3.056   3.474   0.031
 2379SOL    HW1 7177   3.062   3.381   0.068
 2379SOL    HW2 7178   2.997   3.474  -0.049
 2380SOL     OW 7179   2.684   2.864   1.372
 2380SOL    HW1 7180   2.724   2.863   1.280
 2380SOL    HW2 7181   2.694   2.956   1.412
 2381SOL     OW 7182   2.778   2.772   0.291
 2381SOL    HW1 7183   2.841   2.810   0.223
 2381SOL    HW2 7184   2.818   2.689   0.330
 2382SOL     OW 7185   3.366   3.469   0.044
 2382SOL    HW1 7186   3.274   3.506   0.051
 2382SOL    HW2 7187   3.404   3.489  -0.046
 2383SOL     OW 7188   2.234   3.150   1.490
 2383SOL    HW1 7189   2.221   3.243   1.456
 2383SOL    HW2 7190   2.150   3.098   1.477
 2384SOL     OW 7191   3.476   3.154   1.289
 2384SOL    HW1 7192   3.536   3.157   1.369
 2384SOL    HW2 7193   3.401   3.218   1.302
 2385SOL     OW 7194   2.901   2.960   0.696
 2385SOL    HW1 7195   2.831   2.913   0.750
 2385SOL    HW2 7196   2.960   2.892   0.653
 2386SOL     OW 7197   2.876   2.098   0.971
 2386SOL    HW1 7198   2.868   2.062   0.878
 2386SOL    HW2 7199   2.874   2.022   1.036
 2387SOL     OW 7200   2.452   3.349   0.491
 2387SOL    HW1 7201   2.494   3.291   0.421
 2387SOL    HW2 7202   2.408   3.428   0.447
 2388SOL     OW 7203   3.571   2.247   1.381
 2388SOL    HW1 7204   3.644   2.316   1.385
 2388SOL    HW2 7205   3.599   2.172   1.322
 2389SOL     OW 7206   2.117   3.210   0.290
 2389SOL    HW1 7207   2.021   3.211   0.263
 2389SOL    HW2 7208   2.129   3.263   0.374
 2390SOL     OW 7209   1.967   2.875   1.726
 2390SOL    HW1 7210   1.890   2.842   1.780
 2390SOL    HW2 7211   2.052   2.845   1.768
 2391SOL     OW 7212   2.534   2.065   1.489
 2391SOL    HW1 7213   2.624   2.049   1.449
 2391SOL    HW2 7214   2.542   2.070   1.588
 2392SOL     OW 7215   1.937   2.207   0.033
 2392SOL    HW1 7216   1.845   2.179   0.004
 2392SOL    HW2 7217   1.968   2.284  -0.023
 2393SOL     OW 7218   3.302   2.718   1.398
 2393SOL    HW1 7219   3.245   2.770   1.335
 2393SOL    HW2 7220   3.398   2.730   1.374
 2394SOL     OW 7221   1.934   2.028   0.318
 2394SOL    HW1 7222   1.917   2.111   0.264
 2394SOL    HW2 7223   2.024   1.991   0.296
 2395SOL     OW 7224   3.045   3.197   0.119
 2395SOL    HW1 7225   2.946   3.186   0.121
 2395SOL    HW2 7226   3.079   3.212   0.212
 2396SOL     OW 7227   2.475   2.704   1.431
 2396SOL    HW1 7228   2.531   2.785   1.414
 2396SOL    HW2 7229   2.534   2.624   1.434
 2397SOL     OW 7230   3.355   3.629   0.959
 2397SOL    HW1 7231   3.388   3.693   0.890
 2397SOL    HW2 7232   3.421   3.623   1.034
 2398SOL     OW 7233   2.578   2.427   1.708
 2398SOL    HW1 7234   2.597   2.492   1.782
 2398SOL    HW2 7235   2.638   2.347   1.717
 2399SOL     OW 7236   3.312   3.082   1.633
 2399SOL    HW1 7237   3.303   3.072   1.732
 2399SOL    HW2 7238   3.408   3.075   1.607
 2400SOL     OW 7239   2.252   3.603   1.560
 2400SOL    HW1 7240   2.161   3.644   1.558
 2400SOL    HW2 7241   2.245   3.509   1.592
 2401SOL     OW 7242   3.536   2.745   1.254
 2401SOL    HW1 7243   3.509   2.656   1.217
 2401SOL    HW2 7244   3.537   2.813   1.181
 2402SOL     OW 7245   3.087   2.187   0.449
 2402SOL    HW1 7246   3.152   2.113   0.438
 2402SOL    HW2 7247   3.107   2.237   0.533
 2403SOL     OW 7248   2.456   2.607   0.652
 2403SOL    HW1 7249   2.506   2.692   0.633
 2403SOL    HW2 7250   2.368   2.609   0.604
 2404SOL     OW 7251   3.639   2.204   1.642
 2404SOL    HW1 7252   3.622   2.235   1.548
 2404SOL    HW2 7253   3.555   2.167   1.680
 2405SOL     OW 7254   3.592   2.796   1.517
 2405SOL    HW1 7255   3.630   2.887   1.532
 2405SOL    HW2 7256   3.584   2.779   1.418
 2406SOL     OW 7257   2.721   3.236   0.016
 2406SOL    HW1 7258   2.675   3.251   0.104
 2406SOL    HW2 7259   2.765   3.321  -0.014
 2407SOL     OW 7260   2.523   3.652   0.953
 2407SOL    HW1 7261   2.477   3.740   0.940
 2407SOL    HW2 7262   2.622   3.664   0.946
 2408SOL     OW 7263   2.721   2.818   0.861
 2408SOL    HW1 7264   2.775   2.749   0.909
 2408SOL    HW2 7265   2.689   2.887   0.927
 2409SOL     OW 7266   2.945   2.846   0.087
 2409SOL    HW1 7267   2.922   2.899   0.005
 2409SOL    HW2 7268   3.026   2.790   0.068
 2410SOL     OW 7269   3.723   3.431   0.851
 2410SOL    HW1 7270   3.652   3.419   0.781
 2410SOL    HW2 7271   3.724   3.352   0.911
 2411SOL     OW 7272   2.083   3.176   1.844
 2411SOL    HW1 7273   2.018   3.103   1.823
 2411SOL    HW2 7274   2.087   3.190   1.942
 2412SOL     OW 7275   1.941   3.102   0.653
 2412SOL    HW1 7276   1.940   3.055   0.741
 2412SOL    HW2 7277   2.023   3.074   0.602
 2413SOL     OW 7278   2.534   3.253   1.624
 2413SOL    HW1 7279   2.456   3.203   1.662
 2413SOL    HW2 7280   2.531   3.348   1.655
 2414SOL     OW 7281   3.686   2.054   1.227
 2414SOL    HW1 7282   3.682   1.964   1.271
 2414SOL    HW2 7283   3.689   2.043   1.128
 2415SOL     OW 7284   2.290   2.286   0.520
 2415SOL    HW1 7285   2.320   2.214   0.458
 2415SOL    HW2 7286   2.251   2.246   0.603
 2416SOL     OW 7287   3.567   3.349   1.104
 2416SOL    HW1 7288   3.474   3.324   1.077
 2416SOL    HW2 7289   3.593   3.299   1.186
 2417SOL     OW 7290   2.179   2.409   1.280
 2417SOL    HW1 7291   2.217   2.350   1.352
 2417SOL    HW2 7292   2.219   2.383   1.192
 2418SOL     OW 7293   2.674   3.448   0.687
 2418SOL    HW1 7294   2.706   3.458   0.593
 2418SOL    HW2 7295   2.595   3.386   0.689
 2419SOL     OW 7296   3.286   2.076   1.112
 2419SOL    HW1 7297   3.338   2.011   1.167
 2419SOL    HW2 7298   3.237   2.139   1.173
 2420SOL     OW 7299   2.863   1.896   1.154
 2420SOL    HW1 7300   2.800   1.824   1.123
 2420SOL    HW2 7301   2.956   1.860   1.154
 2421SOL     OW 7302   2.632   3.192   0.301
 2421SOL    HW1 7303   2.586   3.105   0.318
 2421SOL    HW2 7304   2.723   3.189   0.342
 2422SOL     OW 7305   2.480   3.429   1.284
 2422SOL    HW1 7306   2.475   3.511   1.341
 2422SOL    HW2 7307   2.569   3.426   1.239
 2423SOL     OW 7308   3.214   1.914   0.168
 2423SOL    HW1 7309   3.249   1.873   0.084
 2423SOL    HW2 7310   3.124   1.876   0.188
 2424SOL     OW 7311   3.162   2.315   0.691
 2424SOL    HW1 7312   3.103   2.395   0.695
 2424SOL    HW2 7313   3.177   2.280   0.784
 2425SOL     OW 7314   3.455   2.083   0.882
 2425SOL    HW1 7315   3.371   2.082   0.936
 2425SOL    HW2 7316   3.457   2.166   0.826
 2426SOL     OW 7317   1.901   2.939   0.300
 2426SOL    HW1 7318   2.000   2.928   0.291
 2426SOL    HW2 7319   1.861   2.853   0.332
 2427SOL     OW 7320   2.737   3.508   0.337
 2427SOL    HW1 7321   2.660   3.473   0.283
 2427SOL    HW2 7322   2.705   3.579   0.399
 2428SOL     OW 7323   2.092   2.490   1.975
 2428SOL    HW1 7324   1.999   2.488   2.012
 2428SOL    HW2 7325   2.093   2.451   1.883
 2429SOL     OW 7326   2.087   2.137   2.858
 2429SOL    HW1 7327   2.122   2.120   2.950
 2429SOL    HW2 7328   1.999   2.092   2.846
 2430SOL     OW 7329   1.881   2.230   2.509
 2430SOL    HW1 7330   1.799   2.273   2.548
 2430SOL    HW2 7331   1.853   2.157   2.446
 2431SOL     OW 7332   2.431   3.137   3.027
 2431SOL    HW1 7333   2.338   3.130   2.990
 2431SOL    HW2 7334   2.442   3.226   3.071
 2432SOL     OW 7335   3.417   3.373   2.565
 2432SOL    HW1 7336   3.360   3.357   2.646
 2432SOL    HW2 7337   3.358   3.383   2.485
 2433SOL     OW 7338   3.617   2.469   2.093
 2433SOL    HW1 7339   3.605   2.456   1.994
 2433SOL    HW2 7340   3.587   2.388   2.142
 2434SOL     OW 7341   2.630   3.006   2.885
 2434SOL    HW1 7342   2.552   3.023   2.945
 2434SOL    HW2 7343   2.664   3.093   2.849
 2435SOL     OW 7344   2.712   2.660   3.685
 2435SOL    HW1 7345   2.708   2.736   3.750
 2435SOL    HW2 7346   2.734   2.696   3.594
 2436SOL     OW 7347   2.548   3.023   3.665
 2436SOL    HW1 7348   2.608   3.102   3.679
 2436SOL    HW2 7349   2.462   3.054   3.624
 2437SOL     OW 7350   2.197   3.297   2.923
 2437SOL    HW1 7351   2.119   3.266   2.870
 2437SOL    HW2 7352   2.255   3.355   2.866
 2438SOL     OW 7353   3.322   3.367   3.201
 2438SOL    HW1 7354   3.346   3.461   3.227
 2438SOL    HW2 7355   3.306   3.313   3.283
 2439SOL     OW 7356   2.300   2.254   3.361
 2439SOL    HW1 7357   2.382   2.198   3.370
 2439SOL    HW2 7358   2.219   2.196   3.365
 2440SOL     OW 7359   3.465   2.309   2.599
 2440SOL    HW1 7360   3.391   2.355   2.549
 2440SOL    HW2 7361   3.516   2.377   2.652
 2441SOL     OW 7362   2.093   3.575   2.345
 2441SOL    HW1 7363   2.127   3.652   2.399
 2441SOL    HW2 7364   2.137   3.575   2.255
 2442SOL     OW 7365   2.989   3.203   3.552
 2442SOL    HW1 7366   3.036   3.203   3.640
 2442SOL    HW2 7367   2.941   3.116   3.541
 2443SOL     OW 7368   2.092   3.296   2.400
 2443SOL    HW1 7369   2.066   3.392   2.400
 2443SOL    HW2 7370   2.021   3.242   2.445
 2444SOL     OW 7371   2.102   2.953   2.748
 2444SOL    HW1 7372   2.116   2.869   2.800
 2444SOL    HW2 7373   2.047   3.017   2.803
 2445SOL     OW 7374   2.482   3.648   3.301
 2445SOL    HW1 7375   2.390   3.631   3.336
 2445SOL    HW2 7376   2.510   3.740   3.327
 2446SOL     OW 7377   3.456   1.976   3.342
 2446SOL    HW1 7378   3.438   2.043   3.270
 2446SOL    HW2 7379   3.453   2.022   3.431
 2447SOL     OW 7380   1.984   2.505   2.425
 2447SOL    HW1 7381   1.939   2.417   2.442
 2447SOL    HW2 7382   1.983   2.559   2.509
 2448SOL     OW 7383   3.704   3.629   2.221
 2448SOL    HW1 7384   3.758   3.600   2.301
 2448SOL    HW2 7385   3.734   3.719   2.192
 2449SOL     OW 7386   1.889   3.458   1.979
 2449SOL    HW1 7387   1.870   3.362   2.000
 2449SOL    HW2 7388   1.856   3.516   2.054
 2450SOL     OW 7389   3.551   2.784   2.474
 2450SOL    HW1 7390   3.646   2.755   2.482
 2450SOL    HW2 7391   3.543   2.849   2.399
 2451SOL     OW 7392   3.503   2.970   2.294
 2451SOL    HW1 7393   3.589   2.972   2.242
 2451SOL    HW2 7394   3.517   3.017   2.382
 2452SOL     OW 7395   1.975   2.599   3.459
 2452SOL    HW1 7396   2.063   2.586   3.504
 2452SOL    HW2 7397   1.962   2.696   3.437
 2453SOL     OW 7398   2.475   3.227   2.588
 2453SOL    HW1 7399   2.426   3.140   2.597
 2453SOL    HW2 7400   2.452   3.270   2.501
 2454SOL     OW 7401   3.155   3.090   3.285
 2454SOL    HW1 7402   3.192   3.017   3.227
 2454SOL    HW2 7403   3.207   3.095   3.370
 2455SOL     OW 7404   2.671   1.866   2.364
 2455SOL    HW1 7405   2.711   1.957   2.355
 2455SOL    HW2 7406   2.571   1.874   2.370
 2456SOL     OW 7407   2.059   2.838   3.126
 2456SOL    HW1 7408   2.148   2.793   3.112
 2456SOL    HW2 7409   1.986   2.773   3.107
 2457SOL     OW 7410   3.387   2.861   2.052
 2457SOL    HW1 7411   3.324   2.785   2.065
 2457SOL    HW2 7412   3.435   2.879   2.138
 2458SOL     OW 7413   3.049   3.654   3.478
 2458SOL    HW1 7414   3.073   3.714   3.402
 2458SOL    HW2 7415   3.056   3.559   3.448
 2459SOL     OW 7416   2.179   2.113   3.663
 2459SOL    HW1 7417   2.250   2.184   3.669
 2459SOL    HW2 7418   2.091   2.152   3.691
 2460SOL     OW 7419   3.328   3.279   2.815
 2460SOL    HW1 7420   3.269   3.285   2.895
 2460SOL    HW2 7421   3.313   3.191   2.769
 2461SOL     OW 7422   3.529   3.576   2.434
 2461SOL    HW1 7423   3.488   3.553   2.346
 2461SOL    HW2 7424   3.511   3.502   2.499
 2462SOL     OW 7425   2.460   2.591   2.132
 2462SOL    HW1 7426   2.484   2.660   2.064
 2462SOL    HW2 7427   2.382   2.624   2.186
 2463SOL     OW 7428   3.143   2.207   2.806
 2463SOL    HW1 7429   3.057   2.157   2.793
 2463SOL    HW2 7430   3.205   2.153   2.862
 2464SOL     OW 7431   3.438   3.524   2.169
 2464SOL    HW1 7432   3.527   3.570   2.172
 2464SOL    HW2 7433   3.417   3.500   2.074
 2465SOL     OW 7434   2.669   2.467   3.327
 2465SOL    HW1 7435   2.622   2.464   3.416
 2465SOL    HW2 7436   2.618   2.412   3.261
 2466SOL     OW 7437   3.256   2.331   3.536
 2466SOL    HW1 7438   3.236   2.374   3.624
 2466SOL    HW2 7439   3.334   2.269   3.545
 2467SOL     OW 7440   2.835   2.752   3.434
 2467SOL    HW1 7441   2.881   2.668   3.405
 2467SOL    HW2 7442   2.779   2.786   3.359
 2468SOL     OW 7443   2.853   2.272   3.104
 2468SOL    HW1 7444   2.776   2.306   3.158
 2468SOL    HW2 7445   2.819   2.221   3.025
 2469SOL     OW 7446   1.938   2.673   2.651
 2469SOL    HW1 7447   2.037   2.661   2.660
 2469SOL    HW2 7448   1.914   2.768   2.672
 2470SOL     OW 7449   1.992   3.683   3.433
 2470SOL    HW1 7450   1.982   3.668   3.532
 2470SOL    HW2 7451   1.906   3.719   3.397
 2471SOL     OW 7452   2.727   2.210   2.057
 2471SOL    HW1 7453   2.786   2.273   2.008
 2471SOL    HW2 7454   2.746   2.116   2.028
 2472SOL     OW 7455   3.581   2.447   3.693
 2472SOL    HW1 7456   3.555   2.536   3.657
 2472SOL    HW2 7457   3.579   2.379   3.620
 2473SOL     OW 7458   3.224   3.006   2.407
 2473SOL    HW1 7459   3.307   2.977   2.359
 2473SOL    HW2 7460   3.175   3.073   2.351
 2474SOL     OW 7461   2.412   2.058   2.747
 2474SOL    HW1 7462   2.407   2.053   2.847
 2474SOL    HW2 7463   2.414   2.154   2.718
 2475SOL     OW 7464   2.870   3.318   2.339
 2475SOL    HW1 7465   2.824   3.390   2.287
 2475SOL    HW2 7466   2.866   3.338   2.437
 2476SOL     OW 7467   2.213   3.663   2.715
 2476SOL    HW1 7468   2.263   3.577   2.721
 2476SOL    HW2 7469   2.278   3.740   2.712
 2477SOL     OW 7470   3.657   2.928   2.735
 2477SOL    HW1 7471   3.595   2.913   2.659
 2477SOL    HW2 7472   3.605   2.939   2.820
 2478SOL     OW 7473   3.089   3.412   3.368
 2478SOL    HW1 7474   3.095   3.335   3.432
 2478SOL    HW2 7475   3.037   3.386   3.288
 2479SOL     OW 7476   2.183   2.805   2.104
 2479SOL    HW1 7477   2.265   2.844   2.062
 2479SOL    HW2 7478   2.156   2.723   2.055
 2480SOL     OW 7479   3.320   2.597   2.590
 2480SOL    HW1 7480   3.315   2.532   2.665
 2480SOL    HW2 7481   3.400   2.656   2.603
 2481SOL     OW 7482   2.323   3.128   3.589
 2481SOL    HW1 7483   2.273   3.129   3.503
 2481SOL    HW2 7484   2.260   3.110   3.665
 2482SOL     OW 7485   2.973   3.638   2.099
 2482SOL    HW1 7486   2.913   3.576   2.149
 2482SOL    HW2 7487   3.004   3.594   2.014
 2483SOL     OW 7488   2.064   2.147   3.360
 2483SOL    HW1 7489   1.984   2.207   3.347
 2483SOL    HW2 7490   2.054   2.098   3.446
 2484SOL     OW 7491   3.494   3.239   1.943
 2484SOL    HW1 7492   3.462   3.333   1.933
 2484SOL    HW2 7493   3.418   3.176   1.931
 2485SOL     OW 7494   2.326   3.605   2.185
 2485SOL    HW1 7495   2.359   3.644   2.271
 2485SOL    HW2 7496   2.402   3.598   2.120
 2486SOL     OW 7497   3.262   1.969   2.288
 2486SOL    HW1 7498   3.238   1.932   2.198
 2486SOL    HW2 7499   3.361   1.985   2.292
 2487SOL     OW 7500   2.111   3.647   3.103
 2487SOL    HW1 7501   2.168   3.582   3.153
 2487SOL    HW2 7502   2.095   3.614   3.010
 2488SOL     OW 7503   2.802   3.560   2.766
 2488SOL    HW1 7504   2.882   3.503   2.787
 2488SOL    HW2 7505   2.753   3.520   2.689
 2489SOL     OW 7506   2.244   2.562   2.342
 2489SOL    HW1 7507   2.289   2.472   2.339
 2489SOL    HW2 7508   2.150   2.551   2.375
 2490SOL     OW 7509   3.409   2.084   3.591
 2490SOL    HW1 7510   3.404   2.121   3.683
 2490SOL    HW2 7511   3.337   2.015   3.579
 2491SOL     OW 7512   2.476   1.984   1.979
 2491SOL    HW1 7513   2.574   1.962   1.986
 2491SOL    HW2 7514   2.445   1.967   1.886
 2492SOL     OW 7515   2.643   2.126   3.611
 2492SOL    HW1 7516   2.710   2.065   3.654
 2492SOL    HW2 7517   2.570   2.145   3.676
 2493SOL     OW 7518   2.750   3.376   3.057
 2493SOL    HW1 7519   2.727   3.351   2.963
 2493SOL    HW2 7520   2.811   3.307   3.096
 2494SOL     OW 7521   3.213   2.452   3.295
 2494SOL    HW1 7522   3.241   2.409   3.380
 2494SOL    HW2 7523   3.238   2.548   3.296
 2495SOL     OW 7524   2.665   3.264   2.786
 2495SOL    HW1 7525   2.755   3.278   2.744
 2495SOL    HW2 7526   2.594   3.266   2.715
 2496SOL     OW 7527   2.401   1.926   2.374
 2496SOL    HW1 7528   2.320   1.927   2.432
 2496SOL    HW2 7529   2.404   2.009   2.319
 2497SOL     OW 7530   3.296   3.050   1.903
 2497SOL    HW1 7531   3.328   2.974   1.960
 2497SOL    HW2 7532   3.204   3.077   1.933
 2498SOL     OW 7533   2.159   1.897   2.033
 2498SOL    HW1 7534   2.208   1.981   2.012
 2498SOL    HW2 7535   2.221   1.832   2.078
 2499SOL     OW 7536   2.797   2.098   2.342
 2499SOL    HW1 7537   2.749   2.139   2.264
 2499SOL    HW2 7538   2.896   2.096   2.323
 2500SOL     OW 7539   2.938   2.545   3.326
 2500SOL    HW1 7540   2.858   2.484   3.329
 2500SOL    HW2 7541   3.019   2.492   3.302
 2501SOL     OW 7542   3.089   3.432   2.655
 2501SOL    HW1 7543   3.110   3.506   2.590
 2501SOL    HW2 7544   3.157   3.432   2.728
 2502SOL     OW 7545   2.321   3.014   2.603
 2502SOL    HW1 7546   2.250   2.987   2.668
 2502SOL    HW2 7547   2.295   2.986   2.510
 2503SOL     OW 7548   3.133   3.659   2.453
 2503SOL    HW1 7549   3.177   3.723   2.389
 2503SOL    HW2 7550   3.083   3.711   2.523
 2504SOL     OW 7551   2.894   2.411   1.878
 2504SOL    HW1 7552   2.853   2.493   1.839
 2504SOL    HW2 7553   2.958   2.437   1.951
 2505SOL     OW 7554   1.940   2.418   3.248
 2505SOL    HW1 7555   2.032   2.417   3.207
 2505SOL    HW2 7556   1.934   2.492   3.315
 2506SOL     OW 7557   2.423   2.084   3.009
 2506SOL    HW1 7558   2.461   2.000   3.046
 2506SOL    HW2 7559   2.335   2.103   3.053
 2507SOL     OW 7560   2.879   1.901   2.615
 2507SOL    HW1 7561   2.807   1.906   2.546
 2507SOL    HW2 7562   2.855   1.832   2.684
 2508SOL     OW 7563   3.291   3.035   2.729
 2508SOL    HW1 7564   3.236   2.951   2.722
 2508SOL    HW2 7565   3.317   3.064   2.637
 2509SOL     OW 7566   3.328   2.452   2.854
 2509SOL    HW1 7567   3.298   2.357   2.861
 2509SOL    HW2 7568   3.401   2.468   2.920
 2510SOL     OW 7569   3.719   2.695   2.239
 2510SOL    HW1 7570   3.761   2.631   2.303
 2510SOL    HW2 7571   3.681   2.644   2.161
 2511SOL     OW 7572   2.350   3.247   2.036
 2511SOL    HW1 7573   2.263   3.232   2.083
 2511SOL    HW2 7574   2.333   3.273   1.941
 2512SOL     OW 7575   3.526   3.142   2.519
 2512SOL    HW1 7576   3.625   3.150   2.533
 2512SOL    HW2 7577   3.481   3.226   2.550
 2513SOL     OW 7578   3.252   2.437   1.940
 2513SOL    HW1 7579   3.198   2.416   2.021
 2513SOL    HW2 7580   3.343   2.396   1.949
 2514SOL     OW 7581   2.389   2.118   2.190
 2514SOL    HW1 7582   2.416   2.059   2.115
 2514SOL    HW2 7583   2.389   2.213   2.159
 2515SOL     OW 7584   3.616   3.085   3.450
 2515SOL    HW1 7585   3.707   3.046   3.437
 2515SOL    HW2 7586   3.624   3.181   3.474
 2516SOL     OW 7587   2.926   3.209   3.202
 2516SOL    HW1 7588   2.846   3.186   3.257
 2516SOL    HW2 7589   3.009   3.183   3.251
 2517SOL     OW 7590   3.454   3.491   3.487
 2517SOL    HW1 7591   3.481   3.525   3.397
 2517SOL    HW2 7592   3.533   3.453   3.533
 2518SOL     OW 7593   2.973   3.057   2.962
 2518SOL    HW1 7594   2.933   3.101   3.043
 2518SOL    HW2 7595   2.932   3.094   2.879
 2519SOL     OW 7596   3.500   2.961   2.941
 2519SOL    HW1 7597   3.505   3.042   3.000
 2519SOL    HW2 7598   3.414   2.963   2.890
 2520SOL     OW 7599   2.777   1.951   3.264
 2520SOL    HW1 7600   2.802   1.931   3.169
 2520SOL    HW2 7601   2.849   2.007   3.306
 2521SOL     OW 7602   2.842   2.978   3.581
 2521SOL    HW1 7603   2.743   2.984   3.591
 2521SOL    HW2 7604   2.865   2.898   3.525
 2522SOL     OW 7605   2.567   2.912   2.230
 2522SOL    HW1 7606   2.553   2.919   2.329
 2522SOL    HW2 7607   2.651   2.861   2.212
 2523SOL     OW 7608   2.272   2.675   3.113
 2523SOL    HW1 7609   2.358   2.687   3.163
 2523SOL    HW2 7610   2.230   2.588   3.140
 2524SOL     OW 7611   3.136   2.248   3.124
 2524SOL    HW1 7612   3.157   2.322   3.188
 2524SOL    HW2 7613   3.047   2.265   3.081
 2525SOL     OW 7614   1.926   3.426   3.193
 2525SOL    HW1 7615   1.880   3.508   3.159
 2525SOL    HW2 7616   2.024   3.445   3.202
 2526SOL     OW 7617   2.229   2.962   2.363
 2526SOL    HW1 7618   2.222   3.045   2.307
 2526SOL    HW2 7619   2.233   2.882   2.303
 2527SOL     OW 7620   3.114   3.210   2.250
 2527SOL    HW1 7621   3.164   3.287   2.290
 2527SOL    HW2 7622   3.019   3.212   2.282
 2528SOL     OW 7623   3.134   3.307   3.004
 2528SOL    HW1 7624   3.181   3.320   3.091
 2528SOL    HW2 7625   3.068   3.233   3.013
 2529SOL     OW 7626   3.444   2.501   2.334
 2529SOL    HW1 7627   3.413   2.562   2.407
 2529SOL    HW2 7628   3.494   2.553   2.265
 2530SOL     OW 7629   2.216   3.372   3.191
 2530SOL    HW1 7630   2.195   3.328   3.104
 2530SOL    HW2 7631   2.313   3.398   3.194
 2531SOL     OW 7632   2.264   2.613   3.460
 2531SOL    HW1 7633   2.332   2.668   3.413
 2531SOL    HW2 7634   2.304   2.525   3.487
 2532SOL     OW 7635   3.449   2.641   3.532
 2532SOL    HW1 7636   3.357   2.679   3.527
 2532SOL    HW2 7637   3.509   2.688   3.467
 2533SOL     OW 7638   2.875   1.967   3.632
 2533SOL    HW1 7639   2.881   2.052   3.580
 2533SOL    HW2 7640   2.907   1.891   3.575
 2534SOL     OW 7641   2.366   1.912   3.602
 2534SOL    HW1 7642   2.324   1.855   3.532
 2534SOL    HW2 7643   2.300   1.981   3.634
 2535SOL     OW 7644   2.435   2.732   2.891
 2535SOL    HW1 7645   2.479   2.821   2.882
 2535SOL    HW2 7646   2.372   2.732   2.968
 2536SOL     OW 7647   3.071   2.387   2.137
 2536SOL    HW1 7648   3.084   2.303   2.191
 2536SOL    HW2 7649   3.042   2.461   2.197
 2537SOL     OW 7650   2.169   2.075   3.093
 2537SOL    HW1 7651   2.146   2.112   3.183
 2537SOL    HW2 7652   2.139   1.980   3.087
 2538SOL     OW 7653   1.899   3.172   3.144
 2538SOL    HW1 7654   1.952   3.123   3.212
 2538SOL    HW2 7655   1.921   3.270   3.149
 2539SOL     OW 7656   2.594   2.496   2.926
 2539SOL    HW1 7657   2.653   2.470   2.850
 2539SOL    HW2 7658   2.566   2.592   2.915
 2540SOL     OW 7659   3.590   2.797   3.716
 2540SOL    HW1 7660   3.544   2.790   3.627
 2540SOL    HW2 7661   3.528   2.841   3.782
 2541SOL     OW 7662   2.169   1.925   2.480
 2541SOL    HW1 7663   2.158   2.019   2.513
 2541SOL    HW2 7664   2.164   1.862   2.557
 2542SOL     OW 7665   3.484   2.229   2.236
 2542SOL    HW1 7666   3.486   2.153   2.300
 2542SOL    HW2 7667   3.436   2.306   2.276
 2543SOL     OW 7668   2.842   3.435   3.562
 2543SOL    HW1 7669   2.822   3.479   3.474
 2543SOL    HW2 7670   2.881   3.344   3.546
 2544SOL     OW 7671   3.721   3.380   3.467
 2544SOL    HW1 7672   3.735   3.407   3.372
 2544SOL    HW2 7673   3.804   3.402   3.520
 2545SOL     OW 7674   2.212   2.760   3.666
 2545SOL    HW1 7675   2.288   2.804   3.714
 2545SOL    HW2 7676   2.247   2.713   3.584
 2546SOL     OW 7677   3.402   2.136   1.987
 2546SOL    HW1 7678   3.341   2.061   2.010
 2546SOL    HW2 7679   3.424   2.188   2.070
 2547SOL     OW 7680   3.165   2.700   1.904
 2547SOL    HW1 7681   3.199   2.607   1.919
 2547SOL    HW2 7682   3.183   2.727   1.809
 2548SOL     OW 7683   2.930   3.195   2.711
 2548SOL    HW1 7684   2.937   3.111   2.656
 2548SOL    HW2 7685   2.992   3.264   2.675
 2549SOL     OW 7686   3.000   2.242   3.540
 2549SOL    HW1 7687   2.955   2.305   3.604
 2549SOL    HW2 7688   3.093   2.273   3.523
 2550SOL     OW 7689   3.022   2.069   3.339
 2550SOL    HW1 7690   3.022   2.133   3.416
 2550SOL    HW2 7691   3.050   2.117   3.256
 2551SOL     OW 7692   1.870   3.188   2.062
 2551SOL    HW1 7693   1.777   3.209   2.031
 2551SOL    HW2 7694   1.880   3.089   2.075
 2552SOL     OW 7695   1.950   3.663   2.789
 2552SOL    HW1 7696   1.908   3.577   2.762
 2552SOL    HW2 7697   2.044   3.666   2.755
 2553SOL     OW 7698   2.366   3.430   2.772
 2553SOL    HW1 7699   2.432   3.504   2.781
 2553SOL    HW2 7700   2.410   3.351   2.730
 2554SOL     OW 7701   2.864   2.658   3.100
 2554SOL    HW1 7702   2.905   2.626   3.186
 2554SOL    HW2 7703   2.768   2.631   3.097
 2555SOL     OW 7704   1.902   2.406   2.976
 2555SOL    HW1 7705   1.987   2.373   2.935
 2555SOL    HW2 7706   1.915   2.421   3.074
 2556SOL     OW 7707   2.051   2.382   3.584
 2556SOL    HW1 7708   2.110   2.342   3.514
 2556SOL    HW2 7709   1.993   2.453   3.543
 2557SOL     OW 7710   3.231   2.812   3.522
 2557SOL    HW1 7711   3.270   2.901   3.542
 2557SOL    HW2 7712   3.241   2.792   3.425
 2558SOL     OW 7713   3.519   2.466   3.068
 2558SOL    HW1 7714   3.481   2.397   3.130
 2558SOL    HW2 7715   3.601   2.430   3.024
 2559SOL     OW 7716   2.114   3.426   3.606
 2559SOL    HW1 7717   2.084   3.483   3.682
 2559SOL    HW2 7718   2.107   3.329   3.632
 2560SOL     OW 7719   2.533   2.326   3.131
 2560SOL    HW1 7720   2.499   2.237   3.101
 2560SOL    HW2 7721   2.559   2.380   3.051
 2561SOL     OW 7722   2.792   3.540   3.327
 2561SOL    HW1 7723   2.768   3.522   3.232
 2561SOL    HW2 7724   2.822   3.634   3.337
 2562SOL     OW 7725   2.335   2.362   2.053
 2562SOL    HW1 7726   2.396   2.442   2.057
 2562SOL    HW2 7727   2.240   2.393   2.060
 2563SOL     OW 7728   2.021   2.999   3.328
 2563SOL    HW1 7729   2.043   2.938   3.404
 2563SOL    HW2 7730   2.031   2.950   3.242
 2564SOL     OW 7731   3.209   2.921   3.096
 2564SOL    HW1 7732   3.233   2.858   3.022
 2564SOL    HW2 7733   3.119   2.961   3.078
 2565SOL     OW 7734   3.164   2.717   2.171
 2565SOL    HW1 7735   3.078   2.686   2.213
 2565SOL    HW2 7736   3.160   2.703   2.072
 2566SOL     OW 7737   3.621   3.609   3.016
 2566SOL    HW1 7738   3.682   3.639   2.943
 2566SOL    HW2 7739   3.583   3.520   2.994
 2567SOL     OW 7740   3.114   3.593   2.990
 2567SOL    HW1 7741   3.198   3.598   2.936
 2567SOL    HW2 7742   3.091   3.497   3.008
 2568SOL     OW 7743   1.945   3.120   2.884
 2568SOL    HW1 7744   1.940   3.119   2.984
 2568SOL    HW2 7745   1.862   3.079   2.846
 2569SOL     OW 7746   2.550   3.524   3.578
 2569SOL    HW1 7747   2.494   3.605   3.587
 2569SOL    HW2 7748   2.602   3.528   3.492
 2570SOL     OW 7749   3.588   1.997   2.385
 2570SOL    HW1 7750   3.661   1.980   2.318
 2570SOL    HW2 7751   3.557   1.910   2.423
 2571SOL     OW 7752   3.250   3.435   2.339
 2571SOL    HW1 7753   3.317   3.447   2.265
 2571SOL    HW2 7754   3.210   3.524   2.362
 2572SOL     OW 7755   1.992   3.656   3.713
 2572SOL    HW1 7756   1.951   3.582   3.766
 2572SOL    HW2 7757   2.056   3.707   3.771
 2573SOL     OW 7758   3.142   2.789   2.534
 2573SOL    HW1 7759   3.202   2.708   2.536
 2573SOL    HW2 7760   3.182   2.858   2.474
 2574SOL     OW 7761   2.692   3.135   3.284
 2574SOL    HW1 7762   2.687   3.168   3.379
 2574SOL    HW2 7763   2.606   3.154   3.238
 2575SOL     OW 7764   2.534   3.478   2.016
 2575SOL    HW1 7765   2.543   3.488   1.917
 2575SOL    HW2 7766   2.494   3.389   2.037
 2576SOL     OW 7767   3.512   3.582   3.256
 2576SOL    HW1 7768   3.565   3.592   3.172
 2576SOL    HW2 7769   3.485   3.672   3.290
 2577SOL     OW 7770   3.703   2.037   2.825
 2577SOL    HW1 7771   3.742   1.952   2.789
 2577SOL    HW2 7772   3.605   2.039   2.806
 2578SOL     OW 7773   3.056   3.474   1.893
 2578SOL    HW1 7774   3.062   3.381   1.930
 2578SOL    HW2 7775   2.997   3.474   1.813
 2579SOL     OW 7776   2.684   2.864   3.234
 2579SOL    HW1 7777   2.724   2.863   3.142
 2579SOL    HW2 7778   2.694   2.956   3.274
 2580SOL     OW 7779   2.778   2.772   2.153
 2580SOL    HW1 7780   2.841   2.810   2.085
 2580SOL    HW2 7781   2.818   2.689   2.192
 2581SOL     OW 7782   3.366   3.469   1.906
 2581SOL    HW1 7783   3.274   3.506   1.913
 2581SOL    HW2 7784   3.404   3.489   1.816
 2582SOL     OW 7785   2.234   3.150   3.352
 2582SOL    HW1 7786   2.221   3.243   3.318
 2582SOL    HW2 7787   2.150   3.098   3.339
 2583SOL     OW 7788   3.476   3.154   3.151
 2583SOL    HW1 7789   3.536   3.157   3.231
 2583SOL    HW2 7790   3.401   3.218   3.164
 2584SOL     OW 7791   2.901   2.960   2.558
 2584SOL    HW1 7792   2.831   2.913   2.612
 2584SOL    HW2 7793   2.960   2.892   2.515
 2585SOL     OW 7794   2.876   2.098   2.833
 2585SOL    HW1 7795   2.868   2.062   2.740
 2585SOL    HW2 7796   2.874   2.022   2.898
 2586SOL     OW 7797   2.452   3.349   2.353
 2586SOL    HW1 7798   2.494   3.291   2.283
 2586SOL    HW2 7799   2.408   3.428   2.309
 2587SOL     OW 7800   3.571   2.247   3.243
 2587SOL    HW1 7801   3.644   2.316   3.247
 2587SOL    HW2 7802   3.599   2.172   3.184
 2588SOL     OW 7803   2.117   3.210   2.152
 2588SOL    HW1 7804   2.021   3.211   2.125
 2588SOL    HW2 7805   2.129   3.263   2.236
 2589SOL     OW 7806   1.967   2.875   3.588
 2589SOL    HW1 7807   1.890   2.842   3.642
 2589SOL    HW2 7808   2.052   2.845   3.630
 2590SOL     OW 7809   2.534   2.065   3.351
 2590SOL    HW1 7810   2.624   2.049   3.311
 2590SOL    HW2 7811   2.542   2.070   3.450
 2591SOL     OW 7812   1.937   2.207   1.895
 2591SOL    HW1 7813   1.845   2.179   1.866
 2591SOL    HW2 7814   1.968   2.284   1.839
 2592SOL     OW 7815   3.302   2.718   3.260
 2592SOL    HW1 7816   3.245   2.770   3.197
 2592SOL    HW2 7817   3.398   2.730   3.236
 2593SOL     OW 7818   1.934   2.028   2.180
 2593SOL    HW1 7819   1.917   2.111   2.126
 2593SOL    HW2 7820   2.024   1.991   2.158
 2594SOL     OW 7821   3.045   3.197   1.981
 2594SOL    HW1 7822   2.946   3.186   1.983
 2594SOL    HW2 7823   3.079   3.212   2.074
 2595SOL     OW 7824   2.475   2.704   3.293
 2595SOL    HW1 7825   2.531   2.785   3.276
 2595SOL    HW2 7826   2.534   2.624   3.296
 2596SOL     OW 7827   3.355   3.629   2.821
 2596SOL    HW1 7828   3.388   3.693   2.752
 2596SOL    HW2 7829   3.421   3.623   2.896
 2597SOL     OW 7830   2.578   2.427   3.570
 2597SOL    HW1 7831   2.597   2.492   3.644
 2597SOL    HW2 7832   2.638   2.347   3.579
 2598SOL     OW 7833   3.312   3.082   3.495
 2598SOL    HW1 7834   3.303   3.072   3.594
 2598SOL    HW2 7835   3.408   3.075   3.469
 2599SOL     OW 7836   2.252   3.603   3.422
 2599SOL    HW1 7837   2.161   3.644   3.420
 2599SOL    HW2 7838   2.245   3.509   3.454
 2600SOL     OW 7839   3.536   2.745   3.116
 2600SOL    HW1 7840   3.509   2.656   3.079
 2600SOL    HW2 7841   3.537   2.813   3.043
 2601SOL     OW 7842   3.087   2.187   2.311
 2601SOL    HW1 7843   3.152   2.113   2.300
 2601SOL    HW2 7844   3.107   2.237   2.395
 2602SOL     OW 7845   3.639   2.204   3.504
 2602SOL    HW1 7846   3.622   2.235   3.410
 2602SOL    HW2 7847   3.555   2.167   3.542
 2603SOL     OW 7848   3.592   2.796   3.379
 2603SOL    HW1 7849   3.630   2.887   3.394
 2603SOL    HW2 7850   3.584   2.779   3.280
 2604SOL     OW 7851   2.721   3.236   1.878
 2604SOL    HW1 7852   2.675   3.251   1.966
 2604SOL    HW2 7853   2.765   3.321   1.848
 2605SOL     OW 7854   2.523   3.652   2.815
 2605SOL    HW1 7855   2.477   3.740   2.802
 2605SOL    HW2 7856   2.622   3.664   2.808
 2606SOL     OW 7857   2.945   2.846   1.949
 2606SOL    HW1 7858   2.922   2.899   1.867
 2606SOL    HW2 7859   3.026   2.790   1.930
 2607SOL     OW 7860   3.723   3.431   2.713
 2607SOL    HW1 7861   3.652   3.419   2.643
 2607SOL    HW2 7862   3.724   3.352   2.773
 2608SOL     OW 7863   2.083   3.176   3.706
 2608SOL    HW1 7864   2.018   3.103   3.685
 2608SOL    HW2 7865   2.087   3.190   3.804
 2609SOL     OW 7866   1.941   3.102   2.515
 2609SOL    HW1 7867   1.940   3.055   2.603
 2609SOL    HW2 7868   2.023   3.074   2.464
 2610SOL     OW 7869   2.534   3.253   3.486
 2610SOL    HW1 7870   2.456   3.203   3.524
 2610SOL    HW2 7871   2.531   3.348   3.517
 2611SOL     OW 7872   3.686   2.054   3.089
 2611SOL    HW1 7873   3.682   1.964   3.133
 2611SOL    HW2 7874   3.689   2.043   2.990
 2612SOL     OW 7875   3.567   3.349   2.966
 2612SOL    HW1 7876   3.474   3.324   2.939
 2612SOL    HW2 7877   3.593   3.299   3.048
 2613SOL     OW 7878   2.179   2.409   3.142
 2613SOL    HW1 7879   2.217   2.350   3.214
 2613SOL    HW2 7880   2.219   2.383   3.054
 2614SOL     OW 7881   2.674   3.448   2.549
 2614SOL    HW1 7882   2.706   3.458   2.455
 2614SOL    HW2 7883   2.595   3.386   2.551
 2615SOL     OW 7884   3.286   2.076   2.974
 2615SOL    HW1 7885   3.338   2.011   3.029
 2615SOL    HW2 7886   3.237   2.139   3.035
 2616SOL     OW 7887   2.863   1.896   3.016
 2616SOL    HW1 7888   2.800   1.824   2.985
 2616SOL    HW2 7889   2.956   1.860   3.016
 2617SOL     OW 7890   2.632   3.192   2.163
 2617SOL    HW1 7891   2.586   3.105   2.180
 2617SOL    HW2 7892   2.723   3.189   2.204
 2618SOL     OW 7893   2.480   3.429   3.146
 2618SOL    HW1 7894   2.475   3.511   3.203
 2618SOL    HW2 7895   2.569   3.426   3.101
 2619SOL     OW 7896   3.214   1.914   2.030
 2619SOL    HW1 7897   3.249   1.873   1.946
 2619SOL    HW2 7898   3.124   1.876   2.050
 2620SOL     OW 7899   3.162   2.315   2.553
 2620SOL    HW1 7900   3.103   2.395   2.557
 2620SOL    HW2 7901   3.177   2.280   2.646
 2621SOL     OW 7902   3.455   2.083   2.744
 2621SOL    HW1 7903   3.371   2.082   2.798
 2621SOL    HW2 7904   3.457   2.166   2.688
 2622SOL     OW 7905   1.901   2.939   2.162
 2622SOL    HW1 7906   2.000   2.928   2.153
 2622SOL    HW2 7907   1.861   2.853   2.194
 2623SOL     OW 7908   2.737   3.508   2.199
 2623SOL    HW1 7909   2.660   3.473   2.145
 2623SOL    HW2 7910   2.705   3.579   2.261
 2624SOL     OW 7911   2.092   2.490   3.837
 2624SOL    HW1 7912   1.999   2.488   3.874
 2624SOL    HW2 7913   2.093   2.451   3.745
 2625SOL     OW 7914   2.087   2.137   4.720
 2625SOL    HW1 7915   2.122   2.120   4.812
 2625SOL    HW2 7916   1.999   2.092   4.708
 2626SOL     OW 7917   1.881   2.230   4.371
 2626SOL    HW1 7918   1.799   2.273   4.410
 2626SOL    HW2 7919   1.853   2.157   4.308
 2627SOL     OW 7920   2.431   3.137   4.889
 2627SOL    HW1 7921   2.338   3.130   4.852
 2627SOL    HW2 7922   2.442   3.226   4.933
 2628SOL     OW 7923   3.417   3.373   4.427
 2628SOL    HW1 7924   3.360   3.357   4.508
 2628SOL    HW2 7925   3.358   3.383   4.347
 2629SOL     OW 7926   2.997   2.565   4.441
 2629SOL    HW1 7927   3.054   2.643   4.416
 2629SOL    HW2 7928   2.937   2.591   4.517
 2630SOL     OW 7929   3.617   2.469   3.955
 2630SOL    HW1 7930   3.605   2.456   3.856
 2630SOL    HW2 7931   3.587   2.388   4.004
 2631SOL     OW 7932   2.630   3.006   4.747
 2631SOL    HW1 7933   2.552   3.023   4.807
 2631SOL    HW2 7934   2.664   3.093   4.711
 2632SOL     OW 7935   2.547   2.874   4.389
 2632SOL    HW1 7936   2.616   2.858   4.459
 2632SOL    HW2 7937   2.474   2.931   4.427
 2633SOL     OW 7938   2.197   3.297   4.785
 2633SOL    HW1 7939   2.119   3.266   4.732
 2633SOL    HW2 7940   2.255   3.355   4.728
 2634SOL     OW 7941   2.300   2.254   5.223
 2634SOL    HW1 7942   2.382   2.198   5.232
 2634SOL    HW2 7943   2.219   2.196   5.227
 2635SOL     OW 7944   3.465   2.309   4.461
 2635SOL    HW1 7945   3.391   2.355   4.411
 2635SOL    HW2 7946   3.516   2.377   4.514
 2636SOL     OW 7947   2.093   3.575   4.207
 2636SOL    HW1 7948   2.127   3.652   4.261
 2636SOL    HW2 7949   2.137   3.575   4.117
 2637SOL     OW 7950   2.092   3.296   4.262
 2637SOL    HW1 7951   2.066   3.392   4.262
 2637SOL    HW2 7952   2.021   3.242   4.307
 2638SOL     OW 7953   2.102   2.953   4.610
 2638SOL    HW1 7954   2.116   2.869   4.662
 2638SOL    HW2 7955   2.047   3.017   4.665
 2639SOL     OW 7956   2.482   3.648   5.163
 2639SOL    HW1 7957   2.390   3.631   5.198
 2639SOL    HW2 7958   2.510   3.740   5.189
 2640SOL     OW 7959   2.468   2.826   3.847
 2640SOL    HW1 7960   2.475   2.910   3.793
 2640SOL    HW2 7961   2.514   2.839   3.935
 2641SOL     OW 7962   1.984   2.505   4.287
 2641SOL    HW1 7963   1.939   2.417   4.304
 2641SOL    HW2 7964   1.983   2.559   4.371
 2642SOL     OW 7965   3.704   3.629   4.083
 2642SOL    HW1 7966   3.758   3.600   4.163
 2642SOL    HW2 7967   3.734   3.719   4.054
 2643SOL     OW 7968   1.889   3.458   3.841
 2643SOL    HW1 7969   1.870   3.362   3.862
 2643SOL    HW2 7970   1.856   3.516   3.916
 2644SOL     OW 7971   3.551   2.784   4.336
 2644SOL    HW1 7972   3.646   2.755   4.344
 2644SOL    HW2 7973   3.543   2.849   4.261
 2645SOL     OW 7974   3.503   2.970   4.156
 2645SOL    HW1 7975   3.589   2.972   4.104
 2645SOL    HW2 7976   3.517   3.017   4.244
 2646SOL     OW 7977   2.475   3.227   4.450
 2646SOL    HW1 7978   2.426   3.140   4.459
 2646SOL    HW2 7979   2.452   3.270   4.363
 2647SOL     OW 7980   2.671   1.866   4.226
 2647SOL    HW1 7981   2.711   1.957   4.217
 2647SOL    HW2 7982   2.571   1.874   4.232
 2648SOL     OW 7983   2.059   2.838   4.988
 2648SOL    HW1 7984   2.148   2.793   4.974
 2648SOL    HW2 7985   1.986   2.773   4.969
 2649SOL     OW 7986   3.387   2.861   3.914
 2649SOL    HW1 7987   3.324   2.785   3.927
 2649SOL    HW2 7988   3.435   2.879   4.000
 2650SOL     OW 7989   3.328   3.279   4.677
 2650SOL    HW1 7990   3.269   3.285   4.757
 2650SOL    HW2 7991   3.313   3.191   4.631
 2651SOL     OW 7992   3.529   3.576   4.296
 2651SOL    HW1 7993   3.488   3.553   4.208
 2651SOL    HW2 7994   3.511   3.502   4.361
 2652SOL     OW 7995   2.460   2.591   3.994
 2652SOL    HW1 7996   2.484   2.660   3.926
 2652SOL    HW2 7997   2.382   2.624   4.048
 2653SOL     OW 7998   3.143   2.207   4.668
 2653SOL    HW1 7999   3.057   2.157   4.655
 2653SOL    HW2 8000   3.205   2.153   4.724
 2654SOL     OW 8001   3.438   3.524   4.031
 2654SOL    HW1 8002   3.527   3.570   4.034
 2654SOL    HW2 8003   3.417   3.500   3.936
 2655SOL     OW 8004   2.669   2.467   5.189
 2655SOL    HW1 8005   2.622   2.464   5.278
 2655SOL    HW2 8006   2.618   2.412   5.123
 2656SOL     OW 8007   2.853   2.272   4.966
 2656SOL    HW1 8008   2.776   2.306   5.020
 2656SOL    HW2 8009   2.819   2.221   4.887
 2657SOL     OW 8010   2.903   2.563   4.153
 2657SOL    HW1 8011   2.929   2.559   4.249
 2657SOL    HW2 8012   2.818   2.512   4.139
 2658SOL     OW 8013   1.938   2.673   4.513
 2658SOL    HW1 8014   2.037   2.661   4.522
 2658SOL    HW2 8015   1.914   2.768   4.534
 2659SOL     OW 8016   1.992   3.683   5.295
 2659SOL    HW1 8017   1.982   3.668   5.394
 2659SOL    HW2 8018   1.906   3.719   5.259
 2660SOL     OW 8019   2.727   2.210   3.919
 2660SOL    HW1 8020   2.786   2.273   3.870
 2660SOL    HW2 8021   2.746   2.116   3.890
 2661SOL     OW 8022   3.224   3.006   4.269
 2661SOL    HW1 8023   3.307   2.977   4.221
 2661SOL    HW2 8024   3.175   3.073   4.213
 2662SOL     OW 8025   2.412   2.058   4.609
 2662SOL    HW1 8026   2.407   2.053   4.709
 2662SOL    HW2 8027   2.414   2.154   4.580
 2663SOL     OW 8028   2.870   3.318   4.201
 2663SOL    HW1 8029   2.824   3.390   4.149
 2663SOL    HW2 8030   2.866   3.338   4.299
 2664SOL     OW 8031   2.213   3.663   4.577
 2664SOL    HW1 8032   2.263   3.577   4.583
 2664SOL    HW2 8033   2.278   3.740   4.574
 2665SOL     OW 8034   3.657   2.928   4.597
 2665SOL    HW1 8035   3.595   2.913   4.521
 2665SOL    HW2 8036   3.605   2.939   4.682
 2666SOL     OW 8037   2.183   2.805   3.966
 2666SOL    HW1 8038   2.265   2.844   3.924
 2666SOL    HW2 8039   2.156   2.723   3.917
 2667SOL     OW 8040   3.320   2.597   4.452
 2667SOL    HW1 8041   3.315   2.532   4.527
 2667SOL    HW2 8042   3.400   2.656   4.465
 2668SOL     OW 8043   2.973   3.638   3.961
 2668SOL    HW1 8044   2.913   3.576   4.011
 2668SOL    HW2 8045   3.004   3.594   3.876
 2669SOL     OW 8046   3.494   3.239   3.805
 2669SOL    HW1 8047   3.462   3.333   3.795
 2669SOL    HW2 8048   3.418   3.176   3.793
 2670SOL     OW 8049   2.326   3.605   4.047
 2670SOL    HW1 8050   2.359   3.644   4.133
 2670SOL    HW2 8051   2.402   3.598   3.982
 2671SOL     OW 8052   3.262   1.969   4.150
 2671SOL    HW1 8053   3.238   1.932   4.060
 2671SOL    HW2 8054   3.361   1.985   4.154
 2672SOL     OW 8055   2.111   3.647   4.965
 2672SOL    HW1 8056   2.168   3.582   5.015
 2672SOL    HW2 8057   2.095   3.614   4.872
 2673SOL     OW 8058   2.802   3.560   4.628
 2673SOL    HW1 8059   2.882   3.503   4.649
 2673SOL    HW2 8060   2.753   3.520   4.551
 2674SOL     OW 8061   2.244   2.562   4.204
 2674SOL    HW1 8062   2.289   2.472   4.201
 2674SOL    HW2 8063   2.150   2.551   4.237
 2675SOL     OW 8064   2.476   1.984   3.841
 2675SOL    HW1 8065   2.574   1.962   3.848
 2675SOL    HW2 8066   2.445   1.967   3.748
 2676SOL     OW 8067   2.750   3.376   4.919
 2676SOL    HW1 8068   2.727   3.351   4.825
 2676SOL    HW2 8069   2.811   3.307   4.958
 2677SOL     OW 8070   2.665   3.264   4.648
 2677SOL    HW1 8071   2.755   3.278   4.606
 2677SOL    HW2 8072   2.594   3.266   4.577
 2678SOL     OW 8073   2.784   2.365   4.623
 2678SOL    HW1 8074   2.759   2.356   4.527
 2678SOL    HW2 8075   2.832   2.283   4.654
 2679SOL     OW 8076   2.401   1.926   4.236
 2679SOL    HW1 8077   2.320   1.927   4.294
 2679SOL    HW2 8078   2.404   2.009   4.181
 2680SOL     OW 8079   3.296   3.050   3.765
 2680SOL    HW1 8080   3.328   2.974   3.822
 2680SOL    HW2 8081   3.204   3.077   3.795
 2681SOL     OW 8082   2.159   1.897   3.895
 2681SOL    HW1 8083   2.208   1.981   3.874
 2681SOL    HW2 8084   2.221   1.832   3.940
 2682SOL     OW 8085   2.797   2.098   4.204
 2682SOL    HW1 8086   2.749   2.139   4.126
 2682SOL    HW2 8087   2.896   2.096   4.185
 2683SOL     OW 8088   3.089   3.432   4.517
 2683SOL    HW1 8089   3.110   3.506   4.452
 2683SOL    HW2 8090   3.157   3.432   4.590
 2684SOL     OW 8091   2.321   3.014   4.465
 2684SOL    HW1 8092   2.250   2.987   4.530
 2684SOL    HW2 8093   2.295   2.986   4.372
 2685SOL     OW 8094   3.133   3.659   4.315
 2685SOL    HW1 8095   3.177   3.723   4.251
 2685SOL    HW2 8096   3.083   3.711   4.385
 2686SOL     OW 8097   2.894   2.411   3.740
 2686SOL    HW1 8098   2.853   2.493   3.701
 2686SOL    HW2 8099   2.958   2.437   3.813
 2687SOL     OW 8100   2.423   2.084   4.871
 2687SOL    HW1 8101   2.461   2.000   4.908
 2687SOL    HW2 8102   2.335   2.103   4.915
 2688SOL     OW 8103   2.728   2.316   4.366
 2688SOL    HW1 8104   2.696   2.388   4.304
 2688SOL    HW2 8105   2.752   2.235   4.313
 2689SOL     OW 8106   2.879   1.901   4.477
 2689SOL    HW1 8107   2.807   1.906   4.408
 2689SOL    HW2 8108   2.855   1.832   4.546
 2690SOL     OW 8109   3.291   3.035   4.591
 2690SOL    HW1 8110   3.236   2.951   4.584
 2690SOL    HW2 8111   3.317   3.064   4.499
 2691SOL     OW 8112   3.328   2.452   4.716
 2691SOL    HW1 8113   3.298   2.357   4.723
 2691SOL    HW2 8114   3.401   2.468   4.782
 2692SOL     OW 8115   3.719   2.695   4.101
 2692SOL    HW1 8116   3.761   2.631   4.165
 2692SOL    HW2 8117   3.681   2.644   4.023
 2693SOL     OW 8118   2.350   3.247   3.898
 2693SOL    HW1 8119   2.263   3.232   3.945
 2693SOL    HW2 8120   2.333   3.273   3.803
 2694SOL     OW 8121   3.526   3.142   4.381
 2694SOL    HW1 8122   3.625   3.150   4.395
 2694SOL    HW2 8123   3.481   3.226   4.412
 2695SOL     OW 8124   3.252   2.437   3.802
 2695SOL    HW1 8125   3.198   2.416   3.883
 2695SOL    HW2 8126   3.343   2.396   3.811
 2696SOL     OW 8127   2.389   2.118   4.052
 2696SOL    HW1 8128   2.416   2.059   3.977
 2696SOL    HW2 8129   2.389   2.213   4.021
 2697SOL     OW 8130   3.616   3.085   5.312
 2697SOL    HW1 8131   3.707   3.046   5.299
 2697SOL    HW2 8132   3.624   3.181   5.336
 2698SOL     OW 8133   2.973   3.057   4.824
 2698SOL    HW1 8134   2.933   3.101   4.905
 2698SOL    HW2 8135   2.932   3.094   4.741
 2699SOL     OW 8136   3.500   2.961   4.803
 2699SOL    HW1 8137   3.505   3.042   4.862
 2699SOL    HW2 8138   3.414   2.963   4.752
 2700SOL     OW 8139   2.567   2.912   4.092
 2700SOL    HW1 8140   2.553   2.919   4.191
 2700SOL    HW2 8141   2.651   2.861   4.074
 2701SOL     OW 8142   2.272   2.675   4.975
 2701SOL    HW1 8143   2.358   2.687   5.025
 2701SOL    HW2 8144   2.230   2.588   5.002
 2702SOL     OW 8145   3.136   2.248   4.986
 2702SOL    HW1 8146   3.157   2.322   5.050
 2702SOL    HW2 8147   3.047   2.265   4.943
 2703SOL     OW 8148   1.926   3.426   5.055
 2703SOL    HW1 8149   1.880   3.508   5.021
 2703SOL    HW2 8150   2.024   3.445   5.064
 2704SOL     OW 8151   2.229   2.962   4.225
 2704SOL    HW1 8152   2.222   3.045   4.169
 2704SOL    HW2 8153   2.233   2.882   4.165
 2705SOL     OW 8154   2.428   2.399   4.589
 2705SOL    HW1 8155   2.440   2.465   4.515
 2705SOL    HW2 8156   2.474   2.433   4.672
 2706SOL     OW 8157   3.114   3.210   4.112
 2706SOL    HW1 8158   3.164   3.287   4.152
 2706SOL    HW2 8159   3.019   3.212   4.144
 2707SOL     OW 8160   3.134   3.307   4.866
 2707SOL    HW1 8161   3.181   3.320   4.953
 2707SOL    HW2 8162   3.068   3.233   4.875
 2708SOL     OW 8163   3.444   2.501   4.196
 2708SOL    HW1 8164   3.413   2.562   4.269
 2708SOL    HW2 8165   3.494   2.553   4.127
 2709SOL     OW 8166   2.216   3.372   5.053
 2709SOL    HW1 8167   2.195   3.328   4.966
 2709SOL    HW2 8168   2.313   3.398   5.056
 2710SOL     OW 8169   2.435   2.732   4.753
 2710SOL    HW1 8170   2.479   2.821   4.744
 2710SOL    HW2 8171   2.372   2.732   4.830
 2711SOL     OW 8172   3.222   2.724   4.769
 2711SOL    HW1 8173   3.147   2.724   4.703
 2711SOL    HW2 8174   3.259   2.632   4.778
 2712SOL     OW 8175   3.071   2.387   3.999
 2712SOL    HW1 8176   3.084   2.303   4.053
 2712SOL    HW2 8177   3.042   2.461   4.059
 2713SOL     OW 8178   2.169   2.075   4.955
 2713SOL    HW1 8179   2.146   2.112   5.045
 2713SOL    HW2 8180   2.139   1.980   4.949
 2714SOL     OW 8181   1.899   3.172   5.006
 2714SOL    HW1 8182   1.952   3.123   5.074
 2714SOL    HW2 8183   1.921   3.270   5.011
 2715SOL     OW 8184   2.594   2.496   4.788
 2715SOL    HW1 8185   2.653   2.470   4.712
 2715SOL    HW2 8186   2.566   2.592   4.777
 2716SOL     OW 8187   2.169   1.925   4.342
 2716SOL    HW1 8188   2.158   2.019   4.375
 2716SOL    HW2 8189   2.164   1.862   4.419
 2717SOL     OW 8190   3.484   2.229   4.098
 2717SOL    HW1 8191   3.486   2.153   4.162
 2717SOL    HW2 8192   3.436   2.306   4.138
 2718SOL     OW 8193   2.885   2.628   4.690
 2718SOL    HW1 8194   2.900   2.649   4.786
 2718SOL    HW2 8195   2.855   2.533   4.681
 2719SOL     OW 8196   3.402   2.136   3.849
 2719SOL    HW1 8197   3.341   2.061   3.872
 2719SOL    HW2 8198   3.424   2.188   3.932
 2720SOL     OW 8199   3.165   2.700   3.766
 2720SOL    HW1 8200   3.199   2.607   3.781
 2720SOL    HW2 8201   3.183   2.727   3.671
 2721SOL     OW 8202   2.930   3.195   4.573
 2721SOL    HW1 8203   2.937   3.111   4.518
 2721SOL    HW2 8204   2.992   3.264   4.537
 2722SOL     OW 8205   2.181   2.672   4.673
 2722SOL    HW1 8206   2.274   2.708   4.678
 2722SOL    HW2 8207   2.175   2.587   4.725
 2723SOL     OW 8208   2.201   2.371   4.730
 2723SOL    HW1 8209   2.149   2.288   4.713
 2723SOL    HW2 8210   2.278   2.376   4.666
 2724SOL     OW 8211   3.022   2.069   5.201
 2724SOL    HW1 8212   3.022   2.133   5.278
 2724SOL    HW2 8213   3.050   2.117   5.118
 2725SOL     OW 8214   1.870   3.188   3.924
 2725SOL    HW1 8215   1.777   3.209   3.893
 2725SOL    HW2 8216   1.880   3.089   3.937
 2726SOL     OW 8217   1.950   3.663   4.651
 2726SOL    HW1 8218   1.908   3.577   4.624
 2726SOL    HW2 8219   2.044   3.666   4.617
 2727SOL     OW 8220   2.366   3.430   4.634
 2727SOL    HW1 8221   2.432   3.504   4.643
 2727SOL    HW2 8222   2.410   3.351   4.592
 2728SOL     OW 8223   2.864   2.658   4.962
 2728SOL    HW1 8224   2.905   2.626   5.048
 2728SOL    HW2 8225   2.768   2.631   4.959
 2729SOL     OW 8226   1.902   2.406   4.838
 2729SOL    HW1 8227   1.987   2.373   4.797
 2729SOL    HW2 8228   1.915   2.421   4.936
 2730SOL     OW 8229   2.677   2.434   4.049
 2730SOL    HW1 8230   2.684   2.345   4.003
 2730SOL    HW2 8231   2.583   2.468   4.041
 2731SOL     OW 8232   3.519   2.466   4.930
 2731SOL    HW1 8233   3.481   2.397   4.992
 2731SOL    HW2 8234   3.601   2.430   4.886
 2732SOL     OW 8235   2.533   2.326   4.993
 2732SOL    HW1 8236   2.499   2.237   4.963
 2732SOL    HW2 8237   2.559   2.380   4.913
 2733SOL     OW 8238   2.792   3.540   5.189
 2733SOL    HW1 8239   2.768   3.522   5.094
 2733SOL    HW2 8240   2.822   3.634   5.199
 2734SOL     OW 8241   2.335   2.362   3.915
 2734SOL    HW1 8242   2.396   2.442   3.919
 2734SOL    HW2 8243   2.240   2.393   3.922
 2735SOL     OW 8244   2.021   2.999   5.190
 2735SOL    HW1 8245   2.043   2.938   5.266
 2735SOL    HW2 8246   2.031   2.950   5.104
 2736SOL     OW 8247   3.209   2.921   4.958
 2736SOL    HW1 8248   3.233   2.858   4.884
 2736SOL    HW2 8249   3.119   2.961   4.940
 2737SOL     OW 8250   3.164   2.717   4.033
 2737SOL    HW1 8251   3.078   2.686   4.075
 2737SOL    HW2 8252   3.160   2.703   3.934
 2738SOL     OW 8253   3.621   3.609   4.878
 2738SOL    HW1 8254   3.682   3.639   4.805
 2738SOL    HW2 8255   3.583   3.520   4.856
 2739SOL     OW 8256   3.114   3.593   4.852
 2739SOL    HW1 8257   3.198   3.598   4.798
 2739SOL    HW2 8258   3.091   3.497   4.870
 2740SOL     OW 8259   1.945   3.120   4.746
 2740SOL    HW1 8260   1.940   3.119   4.846
 2740SOL    HW2 8261   1.862   3.079   4.708
 2741SOL     OW 8262   3.588   1.997   4.247
 2741SOL    HW1 8263   3.661   1.980   4.180
 2741SOL    HW2 8264   3.557   1.910   4.285
 2742SOL     OW 8265   3.250   3.435   4.201
 2742SOL    HW1 8266   3.317   3.447   4.127
 2742SOL    HW2 8267   3.210   3.524   4.224
 2743SOL     OW 8268   3.142   2.789   4.396
 2743SOL    HW1 8269   3.202   2.708   4.398
 2743SOL    HW2 8270   3.182   2.858   4.336
 2744SOL     OW 8271   2.534   3.478   3.878
 2744SOL    HW1 8272   2.543   3.488   3.779
 2744SOL    HW2 8273   2.494   3.389   3.899
 2745SOL     OW 8274   3.703   2.037   4.687
 2745SOL    HW1 8275   3.742   1.952   4.651
 2745SOL    HW2 8276   3.605   2.039   4.668
 2746SOL     OW 8277   2.125   2.188   4.444
 2746SOL    HW1 8278   2.046   2.239   4.410
 2746SOL    HW2 8279   2.116   2.173   4.542
 2747SOL     OW 8280   3.056   3.474   3.755
 2747SOL    HW1 8281   3.062   3.381   3.792
 2747SOL    HW2 8282   2.997   3.474   3.675
 2748SOL     OW 8283   2.684   2.864   5.096
 2748SOL    HW1 8284   2.724   2.863   5.004
 2748SOL    HW2 8285   2.694   2.956   5.136
 2749SOL     OW 8286   2.778   2.772   4.015
 2749SOL    HW1 8287   2.841   2.810   3.947
 2749SOL    HW2 8288   2.818   2.689   4.054
 2750SOL     OW 8289   3.366   3.469   3.768
 2750SOL    HW1 8290   3.274   3.506   3.775
 2750SOL    HW2 8291   3.404   3.489   3.678
 2751SOL     OW 8292   2.234   3.150   5.214
 2751SOL    HW1 8293   2.221   3.243   5.180
 2751SOL    HW2 8294   2.150   3.098   5.201
 2752SOL     OW 8295   3.476   3.154   5.013
 2752SOL    HW1 8296   3.536   3.157   5.093
 2752SOL    HW2 8297   3.401   3.218   5.026
 2753SOL     OW 8298   2.901   2.960   4.420
 2753SOL    HW1 8299   2.831   2.913   4.474
 2753SOL    HW2 8300   2.960   2.892   4.377
 2754SOL     OW 8301   2.876   2.098   4.695
 2754SOL    HW1 8302   2.868   2.062   4.602
 2754SOL    HW2 8303   2.874   2.022   4.760
 2755SOL     OW 8304   2.452   3.349   4.215
 2755SOL    HW1 8305   2.494   3.291   4.145
 2755SOL    HW2 8306   2.408   3.428   4.171
 2756SOL     OW 8307   3.571   2.247   5.105
 2756SOL    HW1 8308   3.644   2.316   5.109
 2756SOL    HW2 8309   3.599   2.172   5.046
 2757SOL     OW 8310   2.117   3.210   4.014
 2757SOL    HW1 8311   2.021   3.211   3.987
 2757SOL    HW2 8312   2.129   3.263   4.098
 2758SOL     OW 8313   2.534   2.065   5.213
 2758SOL    HW1 8314   2.624   2.049   5.173
 2758SOL    HW2 8315   2.542   2.070   5.312
 2759SOL     OW 8316   1.937   2.207   3.757
 2759SOL    HW1 8317   1.845   2.179   3.728
 2759SOL    HW2 8318   1.968   2.284   3.701
 2760SOL     OW 8319   1.934   2.028   4.042
 2760SOL    HW1 8320   1.917   2.111   3.988
 2760SOL    HW2 8321   2.024   1.991   4.020
 2761SOL     OW 8322   3.045   3.197   3.843
 2761SOL    HW1 8323   2.946   3.186   3.845
 2761SOL    HW2 8324   3.079   3.212   3.936
 2762SOL     OW 8325   2.475   2.704   5.155
 2762SOL    HW1 8326   2.531   2.785   5.138
 2762SOL    HW2 8327   2.534   2.624   5.158
 2763SOL     OW 8328   3.355   3.629   4.683
 2763SOL    HW1 8329   3.388   3.693   4.614
 2763SOL    HW2 8330   3.421   3.623   4.758
 2764SOL     OW 8331   2.252   3.603   5.284
 2764SOL    HW1 8332   2.161   3.644   5.282
 2764SOL    HW2 8333   2.245   3.509   5.316
 2765SOL     OW 8334   3.536   2.745   4.978
 2765SOL    HW1 8335   3.509   2.656   4.941
 2765SOL    HW2 8336   3.537   2.813   4.905
 2766SOL     OW 8337   3.087   2.187   4.173
 2766SOL    HW1 8338   3.152   2.113   4.162
 2766SOL    HW2 8339   3.107   2.237   4.257
 2767SOL     OW 8340   2.456   2.607   4.376
 2767SOL    HW1 8341   2.506   2.692   4.357
 2767SOL    HW2 8342   2.368   2.609   4.328
 2768SOL     OW 8343   3.592   2.796   5.241
 2768SOL    HW1 8344   3.630   2.887   5.256
 2768SOL    HW2 8345   3.584   2.779   5.142
 2769SOL     OW 8346   2.721   3.236   3.740
 2769SOL    HW1 8347   2.675   3.251   3.828
 2769SOL    HW2 8348   2.765   3.321   3.710
 2770SOL     OW 8349   2.523   3.652   4.677
 2770SOL    HW1 8350   2.477   3.740   4.664
 2770SOL    HW2 8351   2.622   3.664   4.670
 2771SOL     OW 8352   2.721   2.818   4.585
 2771SOL    HW1 8353   2.775   2.749   4.633
 2771SOL    HW2 8354   2.689   2.887   4.651
 2772SOL     OW 8355   2.945   2.846   3.811
 2772SOL    HW1 8356   2.922   2.899   3.729
 2772SOL    HW2 8357   3.026   2.790   3.792
 2773SOL     OW 8358   3.723   3.431   4.575
 2773SOL    HW1 8359   3.652   3.419   4.505
 2773SOL    HW2 8360   3.724   3.352   4.635
 2774SOL     OW 8361   1.941   3.102   4.377
 2774SOL    HW1 8362   1.940   3.055   4.465
 2774SOL    HW2 8363   2.023   3.074   4.326
 2775SOL     OW 8364   3.686   2.054   4.951
 2775SOL    HW1 8365   3.682   1.964   4.995
 2775SOL    HW2 8366   3.689   2.043   4.852
 2776SOL     OW 8367   2.290   2.286   4.244
 2776SOL    HW1 8368   2.320   2.214   4.182
 2776SOL    HW2 8369   2.251   2.246   4.327
 2777SOL     OW 8370   3.567   3.349   4.828
 2777SOL    HW1 8371   3.474   3.324   4.801
 2777SOL    HW2 8372   3.593   3.299   4.910
 2778SOL     OW 8373   2.179   2.409   5.004
 2778SOL    HW1 8374   2.217   2.350   5.076
 2778SOL    HW2 8375   2.219   2.383   4.916
 2779SOL     OW 8376   2.674   3.448   4.411
 2779SOL    HW1 8377   2.706   3.458   4.317
 2779SOL    HW2 8378   2.595   3.386   4.413
 2780SOL     OW 8379   3.286   2.076   4.836
 2780SOL    HW1 8380   3.338   2.011   4.891
 2780SOL    HW2 8381   3.237   2.139   4.897
 2781SOL     OW 8382   2.863   1.896   4.878
 2781SOL    HW1 8383   2.800   1.824   4.847
 2781SOL    HW2 8384   2.956   1.860   4.878
 2782SOL     OW 8385   2.632   3.192   4.025
 2782SOL    HW1 8386   2.586   3.105   4.042
 2782SOL    HW2 8387   2.723   3.189   4.066
 2783SOL     OW 8388   2.480   3.429   5.008
 2783SOL    HW1 8389   2.475   3.511   5.065
 2783SOL    HW2 8390   2.569   3.426   4.963
 2784SOL     OW 8391   3.214   1.914   3.892
 2784SOL    HW1 8392   3.249   1.873   3.808
 2784SOL    HW2 8393   3.124   1.876   3.912
 2785SOL     OW 8394   3.162   2.315   4.415
 2785SOL    HW1 8395   3.103   2.395   4.419
 2785SOL    HW2 8396   3.177   2.280   4.508
 2786SOL     OW 8397   3.455   2.083   4.606
 2786SOL    HW1 8398   3.371   2.082   4.660
 2786SOL    HW2 8399   3.457   2.166   4.550
 2787SOL     OW 8400   1.901   2.939   4.024
 2787SOL    HW1 8401   2.000   2.928   4.015
 2787SOL    HW2 8402   1.861   2.853   4.056
 2788SOL     OW 8403   2.737   3.508   4.061
 2788SOL    HW1 8404   2.660   3.473   4.007
 2788SOL    HW2 8405   2.705   3.579   4.123
 2789SOL     OW 8406   2.092   4.352   0.113
 2789SOL    HW1 8407   1.999   4.350   0.150
 2789SOL    HW2 8408   2.093   4.313   0.021
 2790SOL     OW 8409   2.087   3.999   0.996
 2790SOL    HW1 8410   2.122   3.982   1.088
 2790SOL    HW2 8411   1.999   3.954   0.984
 2791SOL     OW 8412   1.881   4.092   0.647
 2791SOL    HW1 8413   1.799   4.135   0.686
 2791SOL    HW2 8414   1.853   4.019   0.584
 2792SOL     OW 8415   2.431   4.999   1.165
 2792SOL    HW1 8416   2.338   4.992   1.128
 2792SOL    HW2 8417   2.442   5.088   1.209
 2793SOL     OW 8418   3.417   5.235   0.703
 2793SOL    HW1 8419   3.360   5.219   0.784
 2793SOL    HW2 8420   3.358   5.245   0.623
 2794SOL     OW 8421   2.997   4.427   0.717
 2794SOL    HW1 8422   3.054   4.505   0.692
 2794SOL    HW2 8423   2.937   4.453   0.793
 2795SOL     OW 8424   3.617   4.331   0.231
 2795SOL    HW1 8425   3.605   4.318   0.132
 2795SOL    HW2 8426   3.587   4.250   0.280
 2796SOL     OW 8427   2.630   4.868   1.023
 2796SOL    HW1 8428   2.552   4.885   1.083
 2796SOL    HW2 8429   2.664   4.955   0.987
 2797SOL     OW 8430   2.712   4.522   1.823
 2797SOL    HW1 8431   2.708   4.598   1.888
 2797SOL    HW2 8432   2.734   4.558   1.732
 2798SOL     OW 8433   2.547   4.736   0.665
 2798SOL    HW1 8434   2.616   4.720   0.735
 2798SOL    HW2 8435   2.474   4.793   0.703
 2799SOL     OW 8436   2.548   4.885   1.803
 2799SOL    HW1 8437   2.608   4.964   1.817
 2799SOL    HW2 8438   2.462   4.916   1.762
 2800SOL     OW 8439   2.197   5.159   1.061
 2800SOL    HW1 8440   2.119   5.128   1.008
 2800SOL    HW2 8441   2.255   5.217   1.004
 2801SOL     OW 8442   2.300   4.116   1.499
 2801SOL    HW1 8443   2.382   4.060   1.508
 2801SOL    HW2 8444   2.219   4.058   1.503
 2802SOL     OW 8445   3.465   4.171   0.737
 2802SOL    HW1 8446   3.391   4.217   0.687
 2802SOL    HW2 8447   3.516   4.239   0.790
 2803SOL     OW 8448   2.989   5.065   1.690
 2803SOL    HW1 8449   3.036   5.065   1.778
 2803SOL    HW2 8450   2.941   4.978   1.679
 2804SOL     OW 8451   2.102   4.815   0.886
 2804SOL    HW1 8452   2.116   4.731   0.938
 2804SOL    HW2 8453   2.047   4.879   0.941
 2805SOL     OW 8454   2.468   4.688   0.123
 2805SOL    HW1 8455   2.475   4.772   0.069
 2805SOL    HW2 8456   2.514   4.701   0.211
 2806SOL     OW 8457   3.456   3.838   1.480
 2806SOL    HW1 8458   3.438   3.905   1.408
 2806SOL    HW2 8459   3.453   3.884   1.569
 2807SOL     OW 8460   1.984   4.367   0.563
 2807SOL    HW1 8461   1.939   4.279   0.580
 2807SOL    HW2 8462   1.983   4.421   0.647
 2808SOL     OW 8463   3.551   4.646   0.612
 2808SOL    HW1 8464   3.646   4.617   0.620
 2808SOL    HW2 8465   3.543   4.711   0.537
 2809SOL     OW 8466   3.503   4.832   0.432
 2809SOL    HW1 8467   3.589   4.834   0.380
 2809SOL    HW2 8468   3.517   4.879   0.520
 2810SOL     OW 8469   1.975   4.461   1.597
 2810SOL    HW1 8470   2.063   4.448   1.642
 2810SOL    HW2 8471   1.962   4.558   1.575
 2811SOL     OW 8472   2.475   5.089   0.726
 2811SOL    HW1 8473   2.426   5.002   0.735
 2811SOL    HW2 8474   2.452   5.132   0.639
 2812SOL     OW 8475   3.155   4.952   1.423
 2812SOL    HW1 8476   3.192   4.879   1.365
 2812SOL    HW2 8477   3.207   4.957   1.508
 2813SOL     OW 8478   2.671   3.728   0.502
 2813SOL    HW1 8479   2.711   3.819   0.493
 2813SOL    HW2 8480   2.571   3.736   0.508
 2814SOL     OW 8481   2.059   4.700   1.264
 2814SOL    HW1 8482   2.148   4.655   1.250
 2814SOL    HW2 8483   1.986   4.635   1.245
 2815SOL     OW 8484   3.387   4.723   0.190
 2815SOL    HW1 8485   3.324   4.647   0.203
 2815SOL    HW2 8486   3.435   4.741   0.276
 2816SOL     OW 8487   2.179   3.975   1.801
 2816SOL    HW1 8488   2.250   4.046   1.807
 2816SOL    HW2 8489   2.091   4.014   1.829
 2817SOL     OW 8490   3.328   5.141   0.953
 2817SOL    HW1 8491   3.269   5.147   1.033
 2817SOL    HW2 8492   3.313   5.053   0.907
 2818SOL     OW 8493   2.460   4.453   0.270
 2818SOL    HW1 8494   2.484   4.522   0.202
 2818SOL    HW2 8495   2.382   4.486   0.324
 2819SOL     OW 8496   3.143   4.069   0.944
 2819SOL    HW1 8497   3.057   4.019   0.931
 2819SOL    HW2 8498   3.205   4.015   1.000
 2820SOL     OW 8499   2.669   4.329   1.465
 2820SOL    HW1 8500   2.622   4.326   1.554
 2820SOL    HW2 8501   2.618   4.274   1.399
 2821SOL     OW 8502   3.256   4.193   1.674
 2821SOL    HW1 8503   3.236   4.236   1.762
 2821SOL    HW2 8504   3.334   4.131   1.683
 2822SOL     OW 8505   2.835   4.614   1.572
 2822SOL    HW1 8506   2.881   4.530   1.543
 2822SOL    HW2 8507   2.779   4.648   1.497
 2823SOL     OW 8508   2.853   4.134   1.242
 2823SOL    HW1 8509   2.776   4.168   1.296
 2823SOL    HW2 8510   2.819   4.083   1.163
 2824SOL     OW 8511   2.903   4.425   0.429
 2824SOL    HW1 8512   2.929   4.421   0.525
 2824SOL    HW2 8513   2.818   4.374   0.415
 2825SOL     OW 8514   1.938   4.535   0.789
 2825SOL    HW1 8515   2.037   4.523   0.798
 2825SOL    HW2 8516   1.914   4.630   0.810
 2826SOL     OW 8517   2.727   4.072   0.195
 2826SOL    HW1 8518   2.786   4.135   0.146
 2826SOL    HW2 8519   2.746   3.978   0.166
 2827SOL     OW 8520   3.581   4.309   1.831
 2827SOL    HW1 8521   3.555   4.398   1.795
 2827SOL    HW2 8522   3.579   4.241   1.758
 2828SOL     OW 8523   3.224   4.868   0.545
 2828SOL    HW1 8524   3.307   4.839   0.497
 2828SOL    HW2 8525   3.175   4.935   0.489
 2829SOL     OW 8526   2.412   3.920   0.885
 2829SOL    HW1 8527   2.407   3.915   0.985
 2829SOL    HW2 8528   2.414   4.016   0.856
 2830SOL     OW 8529   3.657   4.790   0.873
 2830SOL    HW1 8530   3.595   4.775   0.797
 2830SOL    HW2 8531   3.605   4.801   0.958
 2831SOL     OW 8532   2.183   4.667   0.242
 2831SOL    HW1 8533   2.265   4.706   0.200
 2831SOL    HW2 8534   2.156   4.585   0.193
 2832SOL     OW 8535   3.320   4.459   0.728
 2832SOL    HW1 8536   3.315   4.394   0.803
 2832SOL    HW2 8537   3.400   4.518   0.741
 2833SOL     OW 8538   2.323   4.990   1.727
 2833SOL    HW1 8539   2.273   4.991   1.641
 2833SOL    HW2 8540   2.260   4.972   1.803
 2834SOL     OW 8541   2.064   4.009   1.498
 2834SOL    HW1 8542   1.984   4.069   1.485
 2834SOL    HW2 8543   2.054   3.960   1.584
 2835SOL     OW 8544   3.494   5.101   0.081
 2835SOL    HW1 8545   3.462   5.195   0.071
 2835SOL    HW2 8546   3.418   5.038   0.069
 2836SOL     OW 8547   3.262   3.831   0.426
 2836SOL    HW1 8548   3.238   3.794   0.336
 2836SOL    HW2 8549   3.361   3.847   0.430
 2837SOL     OW 8550   2.244   4.424   0.480
 2837SOL    HW1 8551   2.289   4.334   0.477
 2837SOL    HW2 8552   2.150   4.413   0.513
 2838SOL     OW 8553   3.409   3.946   1.729
 2838SOL    HW1 8554   3.404   3.983   1.821
 2838SOL    HW2 8555   3.337   3.877   1.717
 2839SOL     OW 8556   2.643   3.988   1.749
 2839SOL    HW1 8557   2.710   3.927   1.792
 2839SOL    HW2 8558   2.570   4.007   1.814
 2840SOL     OW 8559   3.213   4.314   1.433
 2840SOL    HW1 8560   3.241   4.271   1.518
 2840SOL    HW2 8561   3.238   4.410   1.434
 2841SOL     OW 8562   2.784   4.227   0.899
 2841SOL    HW1 8563   2.759   4.218   0.803
 2841SOL    HW2 8564   2.832   4.145   0.930
 2842SOL     OW 8565   2.401   3.788   0.512
 2842SOL    HW1 8566   2.320   3.789   0.570
 2842SOL    HW2 8567   2.404   3.871   0.457
 2843SOL     OW 8568   3.296   4.912   0.041
 2843SOL    HW1 8569   3.328   4.836   0.098
 2843SOL    HW2 8570   3.204   4.939   0.071
 2844SOL     OW 8571   2.797   3.960   0.480
 2844SOL    HW1 8572   2.749   4.001   0.402
 2844SOL    HW2 8573   2.896   3.958   0.461
 2845SOL     OW 8574   2.938   4.407   1.464
 2845SOL    HW1 8575   2.858   4.346   1.467
 2845SOL    HW2 8576   3.019   4.354   1.440
 2846SOL     OW 8577   3.089   5.294   0.793
 2846SOL    HW1 8578   3.110   5.368   0.728
 2846SOL    HW2 8579   3.157   5.294   0.866
 2847SOL     OW 8580   2.321   4.876   0.741
 2847SOL    HW1 8581   2.250   4.849   0.806
 2847SOL    HW2 8582   2.295   4.848   0.648
 2848SOL     OW 8583   2.894   4.273   0.016
 2848SOL    HW1 8584   2.853   4.355  -0.023
 2848SOL    HW2 8585   2.958   4.299   0.089
 2849SOL     OW 8586   1.940   4.280   1.386
 2849SOL    HW1 8587   2.032   4.279   1.345
 2849SOL    HW2 8588   1.934   4.354   1.453
 2850SOL     OW 8589   2.423   3.946   1.147
 2850SOL    HW1 8590   2.461   3.862   1.184
 2850SOL    HW2 8591   2.335   3.965   1.191
 2851SOL     OW 8592   2.728   4.178   0.642
 2851SOL    HW1 8593   2.696   4.250   0.580
 2851SOL    HW2 8594   2.752   4.097   0.589
 2852SOL     OW 8595   2.879   3.763   0.753
 2852SOL    HW1 8596   2.807   3.768   0.684
 2852SOL    HW2 8597   2.855   3.694   0.822
 2853SOL     OW 8598   3.291   4.897   0.867
 2853SOL    HW1 8599   3.236   4.813   0.860
 2853SOL    HW2 8600   3.317   4.926   0.775
 2854SOL     OW 8601   3.328   4.314   0.992
 2854SOL    HW1 8602   3.298   4.219   0.999
 2854SOL    HW2 8603   3.401   4.330   1.058
 2855SOL     OW 8604   3.719   4.557   0.377
 2855SOL    HW1 8605   3.761   4.493   0.441
 2855SOL    HW2 8606   3.681   4.506   0.299
 2856SOL     OW 8607   3.526   5.004   0.657
 2856SOL    HW1 8608   3.625   5.012   0.671
 2856SOL    HW2 8609   3.481   5.088   0.688
 2857SOL     OW 8610   3.252   4.299   0.078
 2857SOL    HW1 8611   3.198   4.278   0.159
 2857SOL    HW2 8612   3.343   4.258   0.087
 2858SOL     OW 8613   2.389   3.980   0.328
 2858SOL    HW1 8614   2.416   3.921   0.253
 2858SOL    HW2 8615   2.389   4.075   0.297
 2859SOL     OW 8616   3.616   4.947   1.588
 2859SOL    HW1 8617   3.707   4.908   1.575
 2859SOL    HW2 8618   3.624   5.043   1.612
 2860SOL     OW 8619   2.926   5.071   1.340
 2860SOL    HW1 8620   2.846   5.048   1.395
 2860SOL    HW2 8621   3.009   5.045   1.389
 2861SOL     OW 8622   2.973   4.919   1.100
 2861SOL    HW1 8623   2.933   4.963   1.181
 2861SOL    HW2 8624   2.932   4.956   1.017
 2862SOL     OW 8625   3.500   4.823   1.079
 2862SOL    HW1 8626   3.505   4.904   1.138
 2862SOL    HW2 8627   3.414   4.825   1.028
 2863SOL     OW 8628   2.777   3.813   1.402
 2863SOL    HW1 8629   2.802   3.793   1.307
 2863SOL    HW2 8630   2.849   3.869   1.444
 2864SOL     OW 8631   2.842   4.840   1.719
 2864SOL    HW1 8632   2.743   4.846   1.729
 2864SOL    HW2 8633   2.865   4.760   1.663
 2865SOL     OW 8634   2.567   4.774   0.368
 2865SOL    HW1 8635   2.553   4.781   0.467
 2865SOL    HW2 8636   2.651   4.723   0.350
 2866SOL     OW 8637   2.272   4.537   1.251
 2866SOL    HW1 8638   2.358   4.549   1.301
 2866SOL    HW2 8639   2.230   4.450   1.278
 2867SOL     OW 8640   3.136   4.110   1.262
 2867SOL    HW1 8641   3.157   4.184   1.326
 2867SOL    HW2 8642   3.047   4.127   1.219
 2868SOL     OW 8643   2.229   4.824   0.501
 2868SOL    HW1 8644   2.222   4.907   0.445
 2868SOL    HW2 8645   2.233   4.744   0.441
 2869SOL     OW 8646   2.428   4.261   0.865
 2869SOL    HW1 8647   2.440   4.327   0.791
 2869SOL    HW2 8648   2.474   4.295   0.948
 2870SOL     OW 8649   3.114   5.072   0.388
 2870SOL    HW1 8650   3.164   5.149   0.428
 2870SOL    HW2 8651   3.019   5.074   0.420
 2871SOL     OW 8652   3.444   4.363   0.472
 2871SOL    HW1 8653   3.413   4.424   0.545
 2871SOL    HW2 8654   3.494   4.415   0.403
 2872SOL     OW 8655   2.264   4.475   1.598
 2872SOL    HW1 8656   2.332   4.530   1.551
 2872SOL    HW2 8657   2.304   4.387   1.625
 2873SOL     OW 8658   3.449   4.503   1.670
 2873SOL    HW1 8659   3.357   4.541   1.665
 2873SOL    HW2 8660   3.509   4.550   1.605
 2874SOL     OW 8661   2.875   3.829   1.770
 2874SOL    HW1 8662   2.881   3.914   1.718
 2874SOL    HW2 8663   2.907   3.753   1.713
 2875SOL     OW 8664   2.366   3.774   1.740
 2875SOL    HW1 8665   2.324   3.717   1.670
 2875SOL    HW2 8666   2.300   3.843   1.772
 2876SOL     OW 8667   2.435   4.594   1.029
 2876SOL    HW1 8668   2.479   4.683   1.020
 2876SOL    HW2 8669   2.372   4.594   1.106
 2877SOL     OW 8670   3.222   4.586   1.045
 2877SOL    HW1 8671   3.147   4.586   0.979
 2877SOL    HW2 8672   3.259   4.494   1.054
 2878SOL     OW 8673   3.071   4.249   0.275
 2878SOL    HW1 8674   3.084   4.165   0.329
 2878SOL    HW2 8675   3.042   4.323   0.335
 2879SOL     OW 8676   2.169   3.937   1.231
 2879SOL    HW1 8677   2.146   3.974   1.321
 2879SOL    HW2 8678   2.139   3.842   1.225
 2880SOL     OW 8679   1.899   5.034   1.282
 2880SOL    HW1 8680   1.952   4.985   1.350
 2880SOL    HW2 8681   1.921   5.132   1.287
 2881SOL     OW 8682   2.594   4.358   1.064
 2881SOL    HW1 8683   2.653   4.332   0.988
 2881SOL    HW2 8684   2.566   4.454   1.053
 2882SOL     OW 8685   3.590   4.659   1.854
 2882SOL    HW1 8686   3.544   4.652   1.765
 2882SOL    HW2 8687   3.528   4.703   1.920
 2883SOL     OW 8688   2.169   3.787   0.618
 2883SOL    HW1 8689   2.158   3.881   0.651
 2883SOL    HW2 8690   2.164   3.724   0.695
 2884SOL     OW 8691   3.484   4.091   0.374
 2884SOL    HW1 8692   3.486   4.015   0.438
 2884SOL    HW2 8693   3.436   4.168   0.414
 2885SOL     OW 8694   2.885   4.490   0.966
 2885SOL    HW1 8695   2.900   4.511   1.062
 2885SOL    HW2 8696   2.855   4.395   0.957
 2886SOL     OW 8697   3.721   5.242   1.605
 2886SOL    HW1 8698   3.735   5.269   1.510
 2886SOL    HW2 8699   3.804   5.264   1.658
 2887SOL     OW 8700   2.212   4.622   1.804
 2887SOL    HW1 8701   2.288   4.666   1.852
 2887SOL    HW2 8702   2.247   4.575   1.722
 2888SOL     OW 8703   3.402   3.998   0.125
 2888SOL    HW1 8704   3.341   3.923   0.148
 2888SOL    HW2 8705   3.424   4.050   0.208
 2889SOL     OW 8706   3.165   4.562   0.042
 2889SOL    HW1 8707   3.199   4.469   0.057
 2889SOL    HW2 8708   3.183   4.589  -0.053
 2890SOL     OW 8709   2.181   4.534   0.949
 2890SOL    HW1 8710   2.274   4.570   0.954
 2890SOL    HW2 8711   2.175   4.449   1.001
 2891SOL     OW 8712   2.201   4.233   1.006
 2891SOL    HW1 8713   2.149   4.150   0.989
 2891SOL    HW2 8714   2.278   4.238   0.942
 2892SOL     OW 8715   3.000   4.104   1.678
 2892SOL    HW1 8716   2.955   4.167   1.742
 2892SOL    HW2 8717   3.093   4.135   1.661
 2893SOL     OW 8718   3.022   3.931   1.477
 2893SOL    HW1 8719   3.022   3.995   1.554
 2893SOL    HW2 8720   3.050   3.979   1.394
 2894SOL     OW 8721   2.864   4.520   1.238
 2894SOL    HW1 8722   2.905   4.488   1.324
 2894SOL    HW2 8723   2.768   4.493   1.235
 2895SOL     OW 8724   1.902   4.268   1.114
 2895SOL    HW1 8725   1.987   4.235   1.073
 2895SOL    HW2 8726   1.915   4.283   1.212
 2896SOL     OW 8727   2.051   4.244   1.722
 2896SOL    HW1 8728   2.110   4.204   1.652
 2896SOL    HW2 8729   1.993   4.315   1.681
 2897SOL     OW 8730   3.231   4.674   1.660
 2897SOL    HW1 8731   3.270   4.763   1.680
 2897SOL    HW2 8732   3.241   4.654   1.563
 2898SOL     OW 8733   2.677   4.296   0.325
 2898SOL    HW1 8734   2.684   4.207   0.279
 2898SOL    HW2 8735   2.583   4.330   0.317
 2899SOL     OW 8736   3.519   4.328   1.206
 2899SOL    HW1 8737   3.481   4.259   1.268
 2899SOL    HW2 8738   3.601   4.292   1.162
 2900SOL     OW 8739   2.533   4.188   1.269
 2900SOL    HW1 8740   2.499   4.099   1.239
 2900SOL    HW2 8741   2.559   4.242   1.189
 2901SOL     OW 8742   2.335   4.224   0.191
 2901SOL    HW1 8743   2.396   4.304   0.195
 2901SOL    HW2 8744   2.240   4.255   0.198
 2902SOL     OW 8745   2.021   4.861   1.466
 2902SOL    HW1 8746   2.043   4.800   1.542
 2902SOL    HW2 8747   2.031   4.812   1.380
 2903SOL     OW 8748   3.209   4.783   1.234
 2903SOL    HW1 8749   3.233   4.720   1.160
 2903SOL    HW2 8750   3.119   4.823   1.216
 2904SOL     OW 8751   3.164   4.579   0.309
 2904SOL    HW1 8752   3.078   4.548   0.351
 2904SOL    HW2 8753   3.160   4.565   0.210
 2905SOL     OW 8754   1.945   4.982   1.022
 2905SOL    HW1 8755   1.940   4.981   1.122
 2905SOL    HW2 8756   1.862   4.941   0.984
 2906SOL     OW 8757   2.765   3.810   0.133
 2906SOL    HW1 8758   2.816   3.811   0.047
 2906SOL    HW2 8759   2.821   3.768   0.204
 2907SOL     OW 8760   3.588   3.859   0.523
 2907SOL    HW1 8761   3.661   3.842   0.456
 2907SOL    HW2 8762   3.557   3.772   0.561
 2908SOL     OW 8763   3.142   4.651   0.672
 2908SOL    HW1 8764   3.202   4.570   0.674
 2908SOL    HW2 8765   3.182   4.720   0.612
 2909SOL     OW 8766   2.692   4.997   1.422
 2909SOL    HW1 8767   2.687   5.030   1.517
 2909SOL    HW2 8768   2.606   5.016   1.376
 2910SOL     OW 8769   3.703   3.899   0.963
 2910SOL    HW1 8770   3.742   3.814   0.927
 2910SOL    HW2 8771   3.605   3.901   0.944
 2911SOL     OW 8772   2.125   4.050   0.720
 2911SOL    HW1 8773   2.046   4.101   0.686
 2911SOL    HW2 8774   2.116   4.035   0.818
 2912SOL     OW 8775   2.684   4.726   1.372
 2912SOL    HW1 8776   2.724   4.725   1.280
 2912SOL    HW2 8777   2.694   4.818   1.412
 2913SOL     OW 8778   2.778   4.634   0.291
 2913SOL    HW1 8779   2.841   4.672   0.223
 2913SOL    HW2 8780   2.818   4.551   0.330
 2914SOL     OW 8781   2.234   5.012   1.490
 2914SOL    HW1 8782   2.221   5.105   1.456
 2914SOL    HW2 8783   2.150   4.960   1.477
 2915SOL     OW 8784   3.476   5.016   1.289
 2915SOL    HW1 8785   3.536   5.019   1.369
 2915SOL    HW2 8786   3.401   5.080   1.302
 2916SOL     OW 8787   2.901   4.822   0.696
 2916SOL    HW1 8788   2.831   4.775   0.750
 2916SOL    HW2 8789   2.960   4.754   0.653
 2917SOL     OW 8790   2.876   3.960   0.971
 2917SOL    HW1 8791   2.868   3.924   0.878
 2917SOL    HW2 8792   2.874   3.884   1.036
 2918SOL     OW 8793   3.571   4.109   1.381
 2918SOL    HW1 8794   3.644   4.178   1.385
 2918SOL    HW2 8795   3.599   4.034   1.322
 2919SOL     OW 8796   1.967   4.737   1.726
 2919SOL    HW1 8797   1.890   4.704   1.780
 2919SOL    HW2 8798   2.052   4.707   1.768
 2920SOL     OW 8799   2.534   3.927   1.489
 2920SOL    HW1 8800   2.624   3.911   1.449
 2920SOL    HW2 8801   2.542   3.932   1.588
 2921SOL     OW 8802   1.937   4.069   0.033
 2921SOL    HW1 8803   1.845   4.041   0.004
 2921SOL    HW2 8804   1.968   4.146  -0.023
 2922SOL     OW 8805   3.302   4.580   1.398
 2922SOL    HW1 8806   3.245   4.632   1.335
 2922SOL    HW2 8807   3.398   4.592   1.374
 2923SOL     OW 8808   1.934   3.890   0.318
 2923SOL    HW1 8809   1.917   3.973   0.264
 2923SOL    HW2 8810   2.024   3.853   0.296
 2924SOL     OW 8811   2.475   4.566   1.431
 2924SOL    HW1 8812   2.531   4.647   1.414
 2924SOL    HW2 8813   2.534   4.486   1.434
 2925SOL     OW 8814   2.578   4.289   1.708
 2925SOL    HW1 8815   2.597   4.354   1.782
 2925SOL    HW2 8816   2.638   4.209   1.717
 2926SOL     OW 8817   3.312   4.944   1.633
 2926SOL    HW1 8818   3.303   4.934   1.732
 2926SOL    HW2 8819   3.408   4.937   1.607
 2927SOL     OW 8820   3.536   4.607   1.254
 2927SOL    HW1 8821   3.509   4.518   1.217
 2927SOL    HW2 8822   3.537   4.675   1.181
 2928SOL     OW 8823   3.087   4.049   0.449
 2928SOL    HW1 8824   3.152   3.975   0.438
 2928SOL    HW2 8825   3.107   4.099   0.533
 2929SOL     OW 8826   2.456   4.469   0.652
 2929SOL    HW1 8827   2.506   4.554   0.633
 2929SOL    HW2 8828   2.368   4.471   0.604
 2930SOL     OW 8829   3.639   4.066   1.642
 2930SOL    HW1 8830   3.622   4.097   1.548
 2930SOL    HW2 8831   3.555   4.029   1.680
 2931SOL     OW 8832   3.592   4.658   1.517
 2931SOL    HW1 8833   3.630   4.749   1.532
 2931SOL    HW2 8834   3.584   4.641   1.418
 2932SOL     OW 8835   2.721   4.680   0.861
 2932SOL    HW1 8836   2.775   4.611   0.909
 2932SOL    HW2 8837   2.689   4.749   0.927
 2933SOL     OW 8838   2.945   4.708   0.087
 2933SOL    HW1 8839   2.922   4.761   0.005
 2933SOL    HW2 8840   3.026   4.652   0.068
 2934SOL     OW 8841   2.083   5.038   1.844
 2934SOL    HW1 8842   2.018   4.965   1.823
 2934SOL    HW2 8843   2.087   5.052   1.942
 2935SOL     OW 8844   1.941   4.964   0.653
 2935SOL    HW1 8845   1.940   4.917   0.741
 2935SOL    HW2 8846   2.023   4.936   0.602
 2936SOL     OW 8847   2.534   5.115   1.624
 2936SOL    HW1 8848   2.456   5.065   1.662
 2936SOL    HW2 8849   2.531   5.210   1.655
 2937SOL     OW 8850   3.686   3.916   1.227
 2937SOL    HW1 8851   3.682   3.826   1.271
 2937SOL    HW2 8852   3.689   3.905   1.128
 2938SOL     OW 8853   2.290   4.148   0.520
 2938SOL    HW1 8854   2.320   4.076   0.458
 2938SOL    HW2 8855   2.251   4.108   0.603
 2939SOL     OW 8856   3.567   5.211   1.104
 2939SOL    HW1 8857   3.474   5.186   1.077
 2939SOL    HW2 8858   3.593   5.161   1.186
 2940SOL     OW 8859   2.179   4.271   1.280
 2940SOL    HW1 8860   2.217   4.212   1.352
 2940SOL    HW2 8861   2.219   4.245   1.192
 2941SOL     OW 8862   3.286   3.938   1.112
 2941SOL    HW1 8863   3.338   3.873   1.167
 2941SOL    HW2 8864   3.237   4.001   1.173
 2942SOL     OW 8865   2.863   3.758   1.154
 2942SOL    HW1 8866   2.800   3.686   1.123
 2942SOL    HW2 8867   2.956   3.722   1.154
 2943SOL     OW 8868   2.632   5.054   0.301
 2943SOL    HW1 8869   2.586   4.967   0.318
 2943SOL    HW2 8870   2.723   5.051   0.342
 2944SOL     OW 8871   3.214   3.776   0.168
 2944SOL    HW1 8872   3.249   3.735   0.084
 2944SOL    HW2 8873   3.124   3.738   0.188
 2945SOL     OW 8874   3.162   4.177   0.691
 2945SOL    HW1 8875   3.103   4.257   0.695
 2945SOL    HW2 8876   3.177   4.142   0.784
 2946SOL     OW 8877   3.455   3.945   0.882
 2946SOL    HW1 8878   3.371   3.944   0.936
 2946SOL    HW2 8879   3.457   4.028   0.826
 2947SOL     OW 8880   1.901   4.801   0.300
 2947SOL    HW1 8881   2.000   4.790   0.291
 2947SOL    HW2 8882   1.861   4.715   0.332
 2948SOL     OW 8883   2.092   4.352   1.975
 2948SOL    HW1 8884   1.999   4.350   2.012
 2948SOL    HW2 8885   2.093   4.313   1.883
 2949SOL     OW 8886   2.087   3.999   2.858
 2949SOL    HW1 8887   2.122   3.982   2.950
 2949SOL    HW2 8888   1.999   3.954   2.846
 2950SOL     OW 8889   1.881   4.092   2.509
 2950SOL    HW1 8890   1.799   4.135   2.548
 2950SOL    HW2 8891   1.853   4.019   2.446
 2951SOL     OW 8892   2.431   4.999   3.027
 2951SOL    HW1 8893   2.338   4.992   2.990
 2951SOL    HW2 8894   2.442   5.088   3.071
 2952SOL     OW 8895   3.417   5.235   2.565
 2952SOL    HW1 8896   3.360   5.219   2.646
 2952SOL    HW2 8897   3.358   5.245   2.485
 2953SOL     OW 8898   2.997   4.427   2.579
 2953SOL    HW1 8899   3.054   4.505   2.554
 2953SOL    HW2 8900   2.937   4.453   2.655
 2954SOL     OW 8901   3.617   4.331   2.093
 2954SOL    HW1 8902   3.605   4.318   1.994
 2954SOL    HW2 8903   3.587   4.250   2.142
 2955SOL     OW 8904   2.630   4.868   2.885
 2955SOL    HW1 8905   2.552   4.885   2.945
 2955SOL    HW2 8906   2.664   4.955   2.849
 2956SOL     OW 8907   2.712   4.522   3.685
 2956SOL    HW1 8908   2.708   4.598   3.750
 2956SOL    HW2 8909   2.734   4.558   3.594
 2957SOL     OW 8910   2.547   4.736   2.527
 2957SOL    HW1 8911   2.616   4.720   2.597
 2957SOL    HW2 8912   2.474   4.793   2.565
 2958SOL     OW 8913   2.548   4.885   3.665
 2958SOL    HW1 8914   2.608   4.964   3.679
 2958SOL    HW2 8915   2.462   4.916   3.624
 2959SOL     OW 8916   2.197   5.159   2.923
 2959SOL    HW1 8917   2.119   5.128   2.870
 2959SOL    HW2 8918   2.255   5.217   2.866
 2960SOL     OW 8919   2.300   4.116   3.361
 2960SOL    HW1 8920   2.382   4.060   3.370
 2960SOL    HW2 8921   2.219   4.058   3.365
 2961SOL     OW 8922   3.465   4.171   2.599
 2961SOL    HW1 8923   3.391   4.217   2.549
 2961SOL    HW2 8924   3.516   4.239   2.652
 2962SOL     OW 8925   2.989   5.065   3.552
 2962SOL    HW1 8926   3.036   5.065   3.640
 2962SOL    HW2 8927   2.941   4.978   3.541
 2963SOL     OW 8928   2.102   4.815   2.748
 2963SOL    HW1 8929   2.116   4.731   2.800
 2963SOL    HW2 8930   2.047   4.879   2.803
 2964SOL     OW 8931   2.468   4.688   1.985
 2964SOL    HW1 8932   2.475   4.772   1.931
 2964SOL    HW2 8933   2.514   4.701   2.073
 2965SOL     OW 8934   3.456   3.838   3.342
 2965SOL    HW1 8935   3.438   3.905   3.270
 2965SOL    HW2 8936   3.453   3.884   3.431
 2966SOL     OW 8937   1.984   4.367   2.425
 2966SOL    HW1 8938   1.939   4.279   2.442
 2966SOL    HW2 8939   1.983   4.421   2.509
 2967SOL     OW 8940   3.551   4.646   2.474
 2967SOL    HW1 8941   3.646   4.617   2.482
 2967SOL    HW2 8942   3.543   4.711   2.399
 2968SOL     OW 8943   3.503   4.832   2.294
 2968SOL    HW1 8944   3.589   4.834   2.242
 2968SOL    HW2 8945   3.517   4.879   2.382
 2969SOL     OW 8946   1.975   4.461   3.459
 2969SOL    HW1 8947   2.063   4.448   3.504
 2969SOL    HW2 8948   1.962   4.558   3.437
 2970SOL     OW 8949   2.475   5.089   2.588
 2970SOL    HW1 8950   2.426   5.002   2.597
 2970SOL    HW2 8951   2.452   5.132   2.501
 2971SOL     OW 8952   3.155   4.952   3.285
 2971SOL    HW1 8953   3.192   4.879   3.227
 2971SOL    HW2 8954   3.207   4.957   3.370
 2972SOL     OW 8955   2.671   3.728   2.364
 2972SOL    HW1 8956   2.711   3.819   2.355
 2972SOL    HW2 8957   2.571   3.736   2.370
 2973SOL     OW 8958   2.059   4.700   3.126
 2973SOL    HW1 8959   2.148   4.655   3.112
 2973SOL    HW2 8960   1.986   4.635   3.107
 2974SOL     OW 8961   3.387   4.723   2.052
 2974SOL    HW1 8962   3.324   4.647   2.065
 2974SOL    HW2 8963   3.435   4.741   2.138
 2975SOL     OW 8964   2.179   3.975   3.663
 2975SOL    HW1 8965   2.250   4.046   3.669
 2975SOL    HW2 8966   2.091   4.014   3.691
 2976SOL     OW 8967   3.328   5.141   2.815
 2976SOL    HW1 8968   3.269   5.147   2.895
 2976SOL    HW2 8969   3.313   5.053   2.769
 2977SOL     OW 8970   2.460   4.453   2.132
 2977SOL    HW1 8971   2.484   4.522   2.064
 2977SOL    HW2 8972   2.382   4.486   2.186
 2978SOL     OW 8973   3.143   4.069   2.806
 2978SOL    HW1 8974   3.057   4.019   2.793
 2978SOL    HW2 8975   3.205   4.015   2.862
 2979SOL     OW 8976   2.669   4.329   3.327
 2979SOL    HW1 8977   2.622   4.326   3.416
 2979SOL    HW2 8978   2.618   4.274   3.261
 2980SOL     OW 8979   3.256   4.193   3.536
 2980SOL    HW1 8980   3.236   4.236   3.624
 2980SOL    HW2 8981   3.334   4.131   3.545
 2981SOL     OW 8982   2.835   4.614   3.434
 2981SOL    HW1 8983   2.881   4.530   3.405
 2981SOL    HW2 8984   2.779   4.648   3.359
 2982SOL     OW 8985   2.853   4.134   3.104
 2982SOL    HW1 8986   2.776   4.168   3.158
 2982SOL    HW2 8987   2.819   4.083   3.025
 2983SOL     OW 8988   2.903   4.425   2.291
 2983SOL    HW1 8989   2.929   4.421   2.387
 2983SOL    HW2 8990   2.818   4.374   2.277
 2984SOL     OW 8991   1.938   4.535   2.651
 2984SOL    HW1 8992   2.037   4.523   2.660
 2984SOL    HW2 8993   1.914   4.630   2.672
 2985SOL     OW 8994   2.727   4.072   2.057
 2985SOL    HW1 8995   2.786   4.135   2.008
 2985SOL    HW2 8996   2.746   3.978   2.028
 2986SOL     OW 8997   3.581   4.309   3.693
 2986SOL    HW1 8998   3.555   4.398   3.657
 2986SOL    HW2 8999   3.579   4.241   3.620
 2987SOL     OW 9000   3.224   4.868   2.407
 2987SOL    HW1 9001   3.307   4.839   2.359
 2987SOL    HW2 9002   3.175   4.935   2.351
 2988SOL     OW 9003   2.412   3.920   2.747
 2988SOL    HW1 9004   2.407   3.915   2.847
 2988SOL    HW2 9005   2.414   4.016   2.718
 2989SOL     OW 9006   3.657   4.790   2.735
 2989SOL    HW1 9007   3.595   4.775   2.659
 2989SOL    HW2 9008   3.605   4.801   2.820
 2990SOL     OW 9009   2.183   4.667   2.104
 2990SOL    HW1 9010   2.265   4.706   2.062
 2990SOL    HW2 9011   2.156   4.585   2.055
 2991SOL     OW 9012   3.320   4.459   2.590
 2991SOL    HW1 9013   3.315   4.394   2.665
 2991SOL    HW2 9014   3.400   4.518   2.603
 2992SOL     OW 9015   2.323   4.990   3.589
 2992SOL    HW1 9016   2.273   4.991   3.503
 2992SOL    HW2 9017   2.260   4.972   3.665
 2993SOL     OW 9018   2.064   4.009   3.360
 2993SOL    HW1 9019   1.984   4.069   3.347
 2993SOL    HW2 9020   2.054   3.960   3.446
 2994SOL     OW 9021   3.494   5.101   1.943
 2994SOL    HW1 9022   3.462   5.195   1.933
 2994SOL    HW2 9023   3.418   5.038   1.931
 2995SOL     OW 9024   3.262   3.831   2.288
 2995SOL    HW1 9025   3.238   3.794   2.198
 2995SOL    HW2 9026   3.361   3.847   2.292
 2996SOL     OW 9027   2.244   4.424   2.342
 2996SOL    HW1 9028   2.289   4.334   2.339
 2996SOL    HW2 9029   2.150   4.413   2.375
 2997SOL     OW 9030   3.409   3.946   3.591
 2997SOL    HW1 9031   3.404   3.983   3.683
 2997SOL    HW2 9032   3.337   3.877   3.579
 2998SOL     OW 9033   2.476   3.846   1.979
 2998SOL    HW1 9034   2.574   3.824   1.986
 2998SOL    HW2 9035   2.445   3.829   1.886
 2999SOL     OW 9036   2.643   3.988   3.611
 2999SOL    HW1 9037   2.710   3.927   3.654
 2999SOL    HW2 9038   2.570   4.007   3.676
 3000SOL     OW 9039   3.213   4.314   3.295
 3000SOL    HW1 9040   3.241   4.271   3.380
 3000SOL    HW2 9041   3.238   4.410   3.296
 3001SOL     OW 9042   2.784   4.227   2.761
 3001SOL    HW1 9043   2.759   4.218   2.665
 3001SOL    HW2 9044   2.832   4.145   2.792
 3002SOL     OW 9045   2.401   3.788   2.374
 3002SOL    HW1 9046   2.320   3.789   2.432
 3002SOL    HW2 9047   2.404   3.871   2.319
 3003SOL     OW 9048   3.296   4.912   1.903
 3003SOL    HW1 9049   3.328   4.836   1.960
 3003SOL    HW2 9050   3.204   4.939   1.933
 3004SOL     OW 9051   2.159   3.759   2.033
 3004SOL    HW1 9052   2.208   3.843   2.012
 3004SOL    HW2 9053   2.221   3.694   2.078
 3005SOL     OW 9054   2.797   3.960   2.342
 3005SOL    HW1 9055   2.749   4.001   2.264
 3005SOL    HW2 9056   2.896   3.958   2.323
 3006SOL     OW 9057   2.938   4.407   3.326
 3006SOL    HW1 9058   2.858   4.346   3.329
 3006SOL    HW2 9059   3.019   4.354   3.302
 3007SOL     OW 9060   3.089   5.294   2.655
 3007SOL    HW1 9061   3.110   5.368   2.590
 3007SOL    HW2 9062   3.157   5.294   2.728
 3008SOL     OW 9063   2.321   4.876   2.603
 3008SOL    HW1 9064   2.250   4.849   2.668
 3008SOL    HW2 9065   2.295   4.848   2.510
 3009SOL     OW 9066   2.894   4.273   1.878
 3009SOL    HW1 9067   2.853   4.355   1.839
 3009SOL    HW2 9068   2.958   4.299   1.951
 3010SOL     OW 9069   1.940   4.280   3.248
 3010SOL    HW1 9070   2.032   4.279   3.207
 3010SOL    HW2 9071   1.934   4.354   3.315
 3011SOL     OW 9072   2.423   3.946   3.009
 3011SOL    HW1 9073   2.461   3.862   3.046
 3011SOL    HW2 9074   2.335   3.965   3.053
 3012SOL     OW 9075   2.728   4.178   2.504
 3012SOL    HW1 9076   2.696   4.250   2.442
 3012SOL    HW2 9077   2.752   4.097   2.451
 3013SOL     OW 9078   2.879   3.763   2.615
 3013SOL    HW1 9079   2.807   3.768   2.546
 3013SOL    HW2 9080   2.855   3.694   2.684
 3014SOL     OW 9081   3.291   4.897   2.729
 3014SOL    HW1 9082   3.236   4.813   2.722
 3014SOL    HW2 9083   3.317   4.926   2.637
 3015SOL     OW 9084   3.328   4.314   2.854
 3015SOL    HW1 9085   3.298   4.219   2.861
 3015SOL    HW2 9086   3.401   4.330   2.920
 3016SOL     OW 9087   3.719   4.557   2.239
 3016SOL    HW1 9088   3.761   4.493   2.303
 3016SOL    HW2 9089   3.681   4.506   2.161
 3017SOL     OW 9090   3.526   5.004   2.519
 3017SOL    HW1 9091   3.625   5.012   2.533
 3017SOL    HW2 9092   3.481   5.088   2.550
 3018SOL     OW 9093   3.252   4.299   1.940
 3018SOL    HW1 9094   3.198   4.278   2.021
 3018SOL    HW2 9095   3.343   4.258   1.949
 3019SOL     OW 9096   2.389   3.980   2.190
 3019SOL    HW1 9097   2.416   3.921   2.115
 3019SOL    HW2 9098   2.389   4.075   2.159
 3020SOL     OW 9099   3.616   4.947   3.450
 3020SOL    HW1 9100   3.707   4.908   3.437
 3020SOL    HW2 9101   3.624   5.043   3.474
 3021SOL     OW 9102   2.926   5.071   3.202
 3021SOL    HW1 9103   2.846   5.048   3.257
 3021SOL    HW2 9104   3.009   5.045   3.251
 3022SOL     OW 9105   2.973   4.919   2.962
 3022SOL    HW1 9106   2.933   4.963   3.043
 3022SOL    HW2 9107   2.932   4.956   2.879
 3023SOL     OW 9108   3.500   4.823   2.941
 3023SOL    HW1 9109   3.505   4.904   3.000
 3023SOL    HW2 9110   3.414   4.825   2.890
 3024SOL     OW 9111   2.777   3.813   3.264
 3024SOL    HW1 9112   2.802   3.793   3.169
 3024SOL    HW2 9113   2.849   3.869   3.306
 3025SOL     OW 9114   2.842   4.840   3.581
 3025SOL    HW1 9115   2.743   4.846   3.591
 3025SOL    HW2 9116   2.865   4.760   3.525
 3026SOL     OW 9117   2.567   4.774   2.230
 3026SOL    HW1 9118   2.553   4.781   2.329
 3026SOL    HW2 9119   2.651   4.723   2.212
 3027SOL     OW 9120   2.272   4.537   3.113
 3027SOL    HW1 9121   2.358   4.549   3.163
 3027SOL    HW2 9122   2.230   4.450   3.140
 3028SOL     OW 9123   3.136   4.110   3.124
 3028SOL    HW1 9124   3.157   4.184   3.188
 3028SOL    HW2 9125   3.047   4.127   3.081
 3029SOL     OW 9126   2.229   4.824   2.363
 3029SOL    HW1 9127   2.222   4.907   2.307
 3029SOL    HW2 9128   2.233   4.744   2.303
 3030SOL     OW 9129   2.428   4.261   2.727
 3030SOL    HW1 9130   2.440   4.327   2.653
 3030SOL    HW2 9131   2.474   4.295   2.810
 3031SOL     OW 9132   3.114   5.072   2.250
 3031SOL    HW1 9133   3.164   5.149   2.290
 3031SOL    HW2 9134   3.019   5.074   2.282
 3032SOL     OW 9135   3.444   4.363   2.334
 3032SOL    HW1 9136   3.413   4.424   2.407
 3032SOL    HW2 9137   3.494   4.415   2.265
 3033SOL     OW 9138   2.264   4.475   3.460
 3033SOL    HW1 9139   2.332   4.530   3.413
 3033SOL    HW2 9140   2.304   4.387   3.487
 3034SOL     OW 9141   3.449   4.503   3.532
 3034SOL    HW1 9142   3.357   4.541   3.527
 3034SOL    HW2 9143   3.509   4.550   3.467
 3035SOL     OW 9144   2.875   3.829   3.632
 3035SOL    HW1 9145   2.881   3.914   3.580
 3035SOL    HW2 9146   2.907   3.753   3.575
 3036SOL     OW 9147   2.366   3.774   3.602
 3036SOL    HW1 9148   2.324   3.717   3.532
 3036SOL    HW2 9149   2.300   3.843   3.634
 3037SOL     OW 9150   2.435   4.594   2.891
 3037SOL    HW1 9151   2.479   4.683   2.882
 3037SOL    HW2 9152   2.372   4.594   2.968
 3038SOL     OW 9153   3.222   4.586   2.907
 3038SOL    HW1 9154   3.147   4.586   2.841
 3038SOL    HW2 9155   3.259   4.494   2.916
 3039SOL     OW 9156   3.071   4.249   2.137
 3039SOL    HW1 9157   3.084   4.165   2.191
 3039SOL    HW2 9158   3.042   4.323   2.197
 3040SOL     OW 9159   2.169   3.937   3.093
 3040SOL    HW1 9160   2.146   3.974   3.183
 3040SOL    HW2 9161   2.139   3.842   3.087
 3041SOL     OW 9162   1.899   5.034   3.144
 3041SOL    HW1 9163   1.952   4.985   3.212
 3041SOL    HW2 9164   1.921   5.132   3.149
 3042SOL     OW 9165   2.594   4.358   2.926
 3042SOL    HW1 9166   2.653   4.332   2.850
 3042SOL    HW2 9167   2.566   4.454   2.915
 3043SOL     OW 9168   3.590   4.659   3.716
 3043SOL    HW1 9169   3.544   4.652   3.627
 3043SOL    HW2 9170   3.528   4.703   3.782
 3044SOL     OW 9171   2.169   3.787   2.480
 3044SOL    HW1 9172   2.158   3.881   2.513
 3044SOL    HW2 9173   2.164   3.724   2.557
 3045SOL     OW 9174   3.484   4.091   2.236
 3045SOL    HW1 9175   3.486   4.015   2.300
 3045SOL    HW2 9176   3.436   4.168   2.276
 3046SOL     OW 9177   2.885   4.490   2.828
 3046SOL    HW1 9178   2.900   4.511   2.924
 3046SOL    HW2 9179   2.855   4.395   2.819
 3047SOL     OW 9180   3.721   5.242   3.467
 3047SOL    HW1 9181   3.735   5.269   3.372
 3047SOL    HW2 9182   3.804   5.264   3.520
 3048SOL     OW 9183   2.212   4.622   3.666
 3048SOL    HW1 9184   2.288   4.666   3.714
 3048SOL    HW2 9185   2.247   4.575   3.584
 3049SOL     OW 9186   3.402   3.998   1.987
 3049SOL    HW1 9187   3.341   3.923   2.010
 3049SOL    HW2 9188   3.424   4.050   2.070
 3050SOL     OW 9189   3.165   4.562   1.904
 3050SOL    HW1 9190   3.199   4.469   1.919
 3050SOL    HW2 9191   3.183   4.589   1.809
 3051SOL     OW 9192   2.181   4.534   2.811
 3051SOL    HW1 9193   2.274   4.570   2.816
 3051SOL    HW2 9194   2.175   4.449   2.863
 3052SOL     OW 9195   2.201   4.233   2.868
 3052SOL    HW1 9196   2.149   4.150   2.851
 3052SOL    HW2 9197   2.278   4.238   2.804
 3053SOL     OW 9198   3.000   4.104   3.540
 3053SOL    HW1 9199   2.955   4.167   3.604
 3053SOL    HW2 9200   3.093   4.135   3.523
 3054SOL     OW 9201   3.022   3.931   3.339
 3054SOL    HW1 9202   3.022   3.995   3.416
 3054SOL    HW2 9203   3.050   3.979   3.256
 3055SOL     OW 9204   1.870   5.050   2.062
 3055SOL    HW1 9205   1.777   5.071   2.031
 3055SOL    HW2 9206   1.880   4.951   2.075
 3056SOL     OW 9207   2.864   4.520   3.100
 3056SOL    HW1 9208   2.905   4.488   3.186
 3056SOL    HW2 9209   2.768   4.493   3.097
 3057SOL     OW 9210   1.902   4.268   2.976
 3057SOL    HW1 9211   1.987   4.235   2.935
 3057SOL    HW2 9212   1.915   4.283   3.074
 3058SOL     OW 9213   2.051   4.244   3.584
 3058SOL    HW1 9214   2.110   4.204   3.514
 3058SOL    HW2 9215   1.993   4.315   3.543
 3059SOL     OW 9216   3.231   4.674   3.522
 3059SOL    HW1 9217   3.270   4.763   3.542
 3059SOL    HW2 9218   3.241   4.654   3.425
 3060SOL     OW 9219   2.677   4.296   2.187
 3060SOL    HW1 9220   2.684   4.207   2.141
 3060SOL    HW2 9221   2.583   4.330   2.179
 3061SOL     OW 9222   3.519   4.328   3.068
 3061SOL    HW1 9223   3.481   4.259   3.130
 3061SOL    HW2 9224   3.601   4.292   3.024
 3062SOL     OW 9225   2.533   4.188   3.131
 3062SOL    HW1 9226   2.499   4.099   3.101
 3062SOL    HW2 9227   2.559   4.242   3.051
 3063SOL     OW 9228   2.335   4.224   2.053
 3063SOL    HW1 9229   2.396   4.304   2.057
 3063SOL    HW2 9230   2.240   4.255   2.060
 3064SOL     OW 9231   2.021   4.861   3.328
 3064SOL    HW1 9232   2.043   4.800   3.404
 3064SOL    HW2 9233   2.031   4.812   3.242
 3065SOL     OW 9234   3.209   4.783   3.096
 3065SOL    HW1 9235   3.233   4.720   3.022
 3065SOL    HW2 9236   3.119   4.823   3.078
 3066SOL     OW 9237   3.164   4.579   2.171
 3066SOL    HW1 9238   3.078   4.548   2.213
 3066SOL    HW2 9239   3.160   4.565   2.072
 3067SOL     OW 9240   1.945   4.982   2.884
 3067SOL    HW1 9241   1.940   4.981   2.984
 3067SOL    HW2 9242   1.862   4.941   2.846
 3068SOL     OW 9243   3.588   3.859   2.385
 3068SOL    HW1 9244   3.661   3.842   2.318
 3068SOL    HW2 9245   3.557   3.772   2.423
 3069SOL     OW 9246   3.142   4.651   2.534
 3069SOL    HW1 9247   3.202   4.570   2.536
 3069SOL    HW2 9248   3.182   4.720   2.474
 3070SOL     OW 9249   2.692   4.997   3.284
 3070SOL    HW1 9250   2.687   5.030   3.379
 3070SOL    HW2 9251   2.606   5.016   3.238
 3071SOL     OW 9252   3.703   3.899   2.825
 3071SOL    HW1 9253   3.742   3.814   2.789
 3071SOL    HW2 9254   3.605   3.901   2.806
 3072SOL     OW 9255   2.125   4.050   2.582
 3072SOL    HW1 9256   2.046   4.101   2.548
 3072SOL    HW2 9257   2.116   4.035   2.680
 3073SOL     OW 9258   2.684   4.726   3.234
 3073SOL    HW1 9259   2.724   4.725   3.142
 3073SOL    HW2 9260   2.694   4.818   3.274
 3074SOL     OW 9261   2.778   4.634   2.153
 3074SOL    HW1 9262   2.841   4.672   2.085
 3074SOL    HW2 9263   2.818   4.551   2.192
 3075SOL     OW 9264   2.234   5.012   3.352
 3075SOL    HW1 9265   2.221   5.105   3.318
 3075SOL    HW2 9266   2.150   4.960   3.339
 3076SOL     OW 9267   3.476   5.016   3.151
 3076SOL    HW1 9268   3.536   5.019   3.231
 3076SOL    HW2 9269   3.401   5.080   3.164
 3077SOL     OW 9270   2.901   4.822   2.558
 3077SOL    HW1 9271   2.831   4.775   2.612
 3077SOL    HW2 9272   2.960   4.754   2.515
 3078SOL     OW 9273   2.876   3.960   2.833
 3078SOL    HW1 9274   2.868   3.924   2.740
 3078SOL    HW2 9275   2.874   3.884   2.898
 3079SOL     OW 9276   3.571   4.109   3.243
 3079SOL    HW1 9277   3.644   4.178   3.247
 3079SOL    HW2 9278   3.599   4.034   3.184
 3080SOL     OW 9279   1.967   4.737   3.588
 3080SOL    HW1 9280   1.890   4.704   3.642
 3080SOL    HW2 9281   2.052   4.707   3.630
 3081SOL     OW 9282   2.534   3.927   3.351
 3081SOL    HW1 9283   2.624   3.911   3.311
 3081SOL    HW2 9284   2.542   3.932   3.450
 3082SOL     OW 9285   1.937   4.069   1.895
 3082SOL    HW1 9286   1.845   4.041   1.866
 3082SOL    HW2 9287   1.968   4.146   1.839
 3083SOL     OW 9288   3.302   4.580   3.260
 3083SOL    HW1 9289   3.245   4.632   3.197
 3083SOL    HW2 9290   3.398   4.592   3.236
 3084SOL     OW 9291   1.934   3.890   2.180
 3084SOL    HW1 9292   1.917   3.973   2.126
 3084SOL    HW2 9293   2.024   3.853   2.158
 3085SOL     OW 9294   2.475   4.566   3.293
 3085SOL    HW1 9295   2.531   4.647   3.276
 3085SOL    HW2 9296   2.534   4.486   3.296
 3086SOL     OW 9297   2.578   4.289   3.570
 3086SOL    HW1 9298   2.597   4.354   3.644
 3086SOL    HW2 9299   2.638   4.209   3.579
 3087SOL     OW 9300   3.312   4.944   3.495
 3087SOL    HW1 9301   3.303   4.934   3.594
 3087SOL    HW2 9302   3.408   4.937   3.469
 3088SOL     OW 9303   3.536   4.607   3.116
 3088SOL    HW1 9304   3.509   4.518   3.079
 3088SOL    HW2 9305   3.537   4.675   3.043
 3089SOL     OW 9306   3.087   4.049   2.311
 3089SOL    HW1 9307   3.152   3.975   2.300
 3089SOL    HW2 9308   3.107   4.099   2.395
 3090SOL     OW 9309   2.456   4.469   2.514
 3090SOL    HW1 9310   2.506   4.554   2.495
 3090SOL    HW2 9311   2.368   4.471   2.466
 3091SOL     OW 9312   3.639   4.066   3.504
 3091SOL    HW1 9313   3.622   4.097   3.410
 3091SOL    HW2 9314   3.555   4.029   3.542
 3092SOL     OW 9315   3.592   4.658   3.379
 3092SOL    HW1 9316   3.630   4.749   3.394
 3092SOL    HW2 9317   3.584   4.641   3.280
 3093SOL     OW 9318   2.721   5.098   1.878
 3093SOL    HW1 9319   2.675   5.113   1.966
 3093SOL    HW2 9320   2.765   5.183   1.848
 3094SOL     OW 9321   2.721   4.680   2.723
 3094SOL    HW1 9322   2.775   4.611   2.771
 3094SOL    HW2 9323   2.689   4.749   2.789
 3095SOL     OW 9324   2.945   4.708   1.949
 3095SOL    HW1 9325   2.922   4.761   1.867
 3095SOL    HW2 9326   3.026   4.652   1.930
 3096SOL     OW 9327   2.083   5.038   3.706
 3096SOL    HW1 9328   2.018   4.965   3.685
 3096SOL    HW2 9329   2.087   5.052   3.804
 3097SOL     OW 9330   1.941   4.964   2.515
 3097SOL    HW1 9331   1.940   4.917   2.603
 3097SOL    HW2 9332   2.023   4.936   2.464
 3098SOL     OW 9333   2.534   5.115   3.486
 3098SOL    HW1 9334   2.456   5.065   3.524
 3098SOL    HW2 9335   2.531   5.210   3.517
 3099SOL     OW 9336   3.686   3.916   3.089
 3099SOL    HW1 9337   3.682   3.826   3.133
 3099SOL    HW2 9338   3.689   3.905   2.990
 3100SOL     OW 9339   2.290   4.148   2.382
 3100SOL    HW1 9340   2.320   4.076   2.320
 3100SOL    HW2 9341   2.251   4.108   2.465
 3101SOL     OW 9342   3.567   5.211   2.966
 3101SOL    HW1 9343   3.474   5.186   2.939
 3101SOL    HW2 9344   3.593   5.161   3.048
 3102SOL     OW 9345   2.179   4.271   3.142
 3102SOL    HW1 9346   2.217   4.212   3.214
 3102SOL    HW2 9347   2.219   4.245   3.054
 3103SOL     OW 9348   3.286   3.938   2.974
 3103SOL    HW1 9349   3.338   3.873   3.029
 3103SOL    HW2 9350   3.237   4.001   3.035
 3104SOL     OW 9351   2.863   3.758   3.016
 3104SOL    HW1 9352   2.800   3.686   2.985
 3104SOL    HW2 9353   2.956   3.722   3.016
 3105SOL     OW 9354   2.632   5.054   2.163
 3105SOL    HW1 9355   2.586   4.967   2.180
 3105SOL    HW2 9356   2.723   5.051   2.204
 3106SOL     OW 9357   3.214   3.776   2.030
 3106SOL    HW1 9358   3.249   3.735   1.946
 3106SOL    HW2 9359   3.124   3.738   2.050
 3107SOL     OW 9360   3.162   4.177   2.553
 3107SOL    HW1 9361   3.103   4.257   2.557
 3107SOL    HW2 9362   3.177   4.142   2.646
 3108SOL     OW 9363   3.455   3.945   2.744
 3108SOL    HW1 9364   3.371   3.944   2.798
 3108SOL    HW2 9365   3.457   4.028   2.688
 3109SOL     OW 9366   1.901   4.801   2.162
 3109SOL    HW1 9367   2.000   4.790   2.153
 3109SOL    HW2 9368   1.861   4.715   2.194
 3110SOL     OW 9369   2.092   4.352   3.837
 3110SOL    HW1 9370   1.999   4.350   3.874
 3110SOL    HW2 9371   2.093   4.313   3.745
 3111SOL     OW 9372   2.087   3.999   4.720
 3111SOL    HW1 9373   2.122   3.982   4.812
 3111SOL    HW2 9374   1.999   3.954   4.708
 3112SOL     OW 9375   1.881   4.092   4.371
 3112SOL    HW1 9376   1.799   4.135   4.410
 3112SOL    HW2 9377   1.853   4.019   4.308
 3113SOL     OW 9378   2.431   4.999   4.889
 3113SOL    HW1 9379   2.338   4.992   4.852
 3113SOL    HW2 9380   2.442   5.088   4.933
 3114SOL     OW 9381   3.417   5.235   4.427
 3114SOL    HW1 9382   3.360   5.219   4.508
 3114SOL    HW2 9383   3.358   5.245   4.347
 3115SOL     OW 9384   2.997   4.427   4.441
 3115SOL    HW1 9385   3.054   4.505   4.416
 3115SOL    HW2 9386   2.937   4.453   4.517
 3116SOL     OW 9387   3.617   4.331   3.955
 3116SOL    HW1 9388   3.605   4.318   3.856
 3116SOL    HW2 9389   3.587   4.250   4.004
 3117SOL     OW 9390   2.630   4.868   4.747
 3117SOL    HW1 9391   2.552   4.885   4.807
 3117SOL    HW2 9392   2.664   4.955   4.711
 3118SOL     OW 9393   2.547   4.736   4.389
 3118SOL    HW1 9394   2.616   4.720   4.459
 3118SOL    HW2 9395   2.474   4.793   4.427
 3119SOL     OW 9396   2.197   5.159   4.785
 3119SOL    HW1 9397   2.119   5.128   4.732
 3119SOL    HW2 9398   2.255   5.217   4.728
 3120SOL     OW 9399   2.300   4.116   5.223
 3120SOL    HW1 9400   2.382   4.060   5.232
 3120SOL    HW2 9401   2.219   4.058   5.227
 3121SOL     OW 9402   3.465   4.171   4.461
 3121SOL    HW1 9403   3.391   4.217   4.411
 3121SOL    HW2 9404   3.516   4.239   4.514
 3122SOL     OW 9405   2.102   4.815   4.610
 3122SOL    HW1 9406   2.116   4.731   4.662
 3122SOL    HW2 9407   2.047   4.879   4.665
 3123SOL     OW 9408   2.468   4.688   3.847
 3123SOL    HW1 9409   2.475   4.772   3.793
 3123SOL    HW2 9410   2.514   4.701   3.935
 3124SOL     OW 9411   1.984   4.367   4.287
 3124SOL    HW1 9412   1.939   4.279   4.304
 3124SOL    HW2 9413   1.983   4.421   4.371
 3125SOL     OW 9414   3.551   4.646   4.336
 3125SOL    HW1 9415   3.646   4.617   4.344
 3125SOL    HW2 9416   3.543   4.711   4.261
 3126SOL     OW 9417   3.503   4.832   4.156
 3126SOL    HW1 9418   3.589   4.834   4.104
 3126SOL    HW2 9419   3.517   4.879   4.244
 3127SOL     OW 9420   2.475   5.089   4.450
 3127SOL    HW1 9421   2.426   5.002   4.459
 3127SOL    HW2 9422   2.452   5.132   4.363
 3128SOL     OW 9423   2.671   3.728   4.226
 3128SOL    HW1 9424   2.711   3.819   4.217
 3128SOL    HW2 9425   2.571   3.736   4.232
 3129SOL     OW 9426   2.059   4.700   4.988
 3129SOL    HW1 9427   2.148   4.655   4.974
 3129SOL    HW2 9428   1.986   4.635   4.969
 3130SOL     OW 9429   3.387   4.723   3.914
 3130SOL    HW1 9430   3.324   4.647   3.927
 3130SOL    HW2 9431   3.435   4.741   4.000
 3131SOL     OW 9432   3.328   5.141   4.677
 3131SOL    HW1 9433   3.269   5.147   4.757
 3131SOL    HW2 9434   3.313   5.053   4.631
 3132SOL     OW 9435   2.460   4.453   3.994
 3132SOL    HW1 9436   2.484   4.522   3.926
 3132SOL    HW2 9437   2.382   4.486   4.048
 3133SOL     OW 9438   3.143   4.069   4.668
 3133SOL    HW1 9439   3.057   4.019   4.655
 3133SOL    HW2 9440   3.205   4.015   4.724
 3134SOL     OW 9441   2.669   4.329   5.189
 3134SOL    HW1 9442   2.622   4.326   5.278
 3134SOL    HW2 9443   2.618   4.274   5.123
 3135SOL     OW 9444   2.853   4.134   4.966
 3135SOL    HW1 9445   2.776   4.168   5.020
 3135SOL    HW2 9446   2.819   4.083   4.887
 3136SOL     OW 9447   2.903   4.425   4.153
 3136SOL    HW1 9448   2.929   4.421   4.249
 3136SOL    HW2 9449   2.818   4.374   4.139
 3137SOL     OW 9450   1.938   4.535   4.513
 3137SOL    HW1 9451   2.037   4.523   4.522
 3137SOL    HW2 9452   1.914   4.630   4.534
 3138SOL     OW 9453   2.727   4.072   3.919
 3138SOL    HW1 9454   2.786   4.135   3.870
 3138SOL    HW2 9455   2.746   3.978   3.890
 3139SOL     OW 9456   3.224   4.868   4.269
 3139SOL    HW1 9457   3.307   4.839   4.221
 3139SOL    HW2 9458   3.175   4.935   4.213
 3140SOL     OW 9459   2.412   3.920   4.609
 3140SOL    HW1 9460   2.407   3.915   4.709
 3140SOL    HW2 9461   2.414   4.016   4.580
 3141SOL     OW 9462   3.657   4.790   4.597
 3141SOL    HW1 9463   3.595   4.775   4.521
 3141SOL    HW2 9464   3.605   4.801   4.682
 3142SOL     OW 9465   2.183   4.667   3.966
 3142SOL    HW1 9466   2.265   4.706   3.924
 3142SOL    HW2 9467   2.156   4.585   3.917
 3143SOL     OW 9468   3.320   4.459   4.452
 3143SOL    HW1 9469   3.315   4.394   4.527
 3143SOL    HW2 9470   3.400   4.518   4.465
 3144SOL     OW 9471   3.494   5.101   3.805
 3144SOL    HW1 9472   3.462   5.195   3.795
 3144SOL    HW2 9473   3.418   5.038   3.793
 3145SOL     OW 9474   3.262   3.831   4.150
 3145SOL    HW1 9475   3.238   3.794   4.060
 3145SOL    HW2 9476   3.361   3.847   4.154
 3146SOL     OW 9477   2.244   4.424   4.204
 3146SOL    HW1 9478   2.289   4.334   4.201
 3146SOL    HW2 9479   2.150   4.413   4.237
 3147SOL     OW 9480   2.476   3.846   3.841
 3147SOL    HW1 9481   2.574   3.824   3.848
 3147SOL    HW2 9482   2.445   3.829   3.748
 3148SOL     OW 9483   2.784   4.227   4.623
 3148SOL    HW1 9484   2.759   4.218   4.527
 3148SOL    HW2 9485   2.832   4.145   4.654
 3149SOL     OW 9486   2.401   3.788   4.236
 3149SOL    HW1 9487   2.320   3.789   4.294
 3149SOL    HW2 9488   2.404   3.871   4.181
 3150SOL     OW 9489   3.296   4.912   3.765
 3150SOL    HW1 9490   3.328   4.836   3.822
 3150SOL    HW2 9491   3.204   4.939   3.795
 3151SOL     OW 9492   2.159   3.759   3.895
 3151SOL    HW1 9493   2.208   3.843   3.874
 3151SOL    HW2 9494   2.221   3.694   3.940
 3152SOL     OW 9495   2.797   3.960   4.204
 3152SOL    HW1 9496   2.749   4.001   4.126
 3152SOL    HW2 9497   2.896   3.958   4.185
 3153SOL     OW 9498   3.089   5.294   4.517
 3153SOL    HW1 9499   3.110   5.368   4.452
 3153SOL    HW2 9500   3.157   5.294   4.590
 3154SOL     OW 9501   2.321   4.876   4.465
 3154SOL    HW1 9502   2.250   4.849   4.530
 3154SOL    HW2 9503   2.295   4.848   4.372
 3155SOL     OW 9504   2.894   4.273   3.740
 3155SOL    HW1 9505   2.853   4.355   3.701
 3155SOL    HW2 9506   2.958   4.299   3.813
 3156SOL     OW 9507   2.423   3.946   4.871
 3156SOL    HW1 9508   2.461   3.862   4.908
 3156SOL    HW2 9509   2.335   3.965   4.915
 3157SOL     OW 9510   2.728   4.178   4.366
 3157SOL    HW1 9511   2.696   4.250   4.304
 3157SOL    HW2 9512   2.752   4.097   4.313
 3158SOL     OW 9513   2.879   3.763   4.477
 3158SOL    HW1 9514   2.807   3.768   4.408
 3158SOL    HW2 9515   2.855   3.694   4.546
 3159SOL     OW 9516   3.291   4.897   4.591
 3159SOL    HW1 9517   3.236   4.813   4.584
 3159SOL    HW2 9518   3.317   4.926   4.499
 3160SOL     OW 9519   3.328   4.314   4.716
 3160SOL    HW1 9520   3.298   4.219   4.723
 3160SOL    HW2 9521   3.401   4.330   4.782
 3161SOL     OW 9522   3.719   4.557   4.101
 3161SOL    HW1 9523   3.761   4.493   4.165
 3161SOL    HW2 9524   3.681   4.506   4.023
 3162SOL     OW 9525   3.526   5.004   4.381
 3162SOL    HW1 9526   3.625   5.012   4.395
 3162SOL    HW2 9527   3.481   5.088   4.412
 3163SOL     OW 9528   3.252   4.299   3.802
 3163SOL    HW1 9529   3.198   4.278   3.883
 3163SOL    HW2 9530   3.343   4.258   3.811
 3164SOL     OW 9531   2.389   3.980   4.052
 3164SOL    HW1 9532   2.416   3.921   3.977
 3164SOL    HW2 9533   2.389   4.075   4.021
 3165SOL     OW 9534   3.616   4.947   5.312
 3165SOL    HW1 9535   3.707   4.908   5.299
 3165SOL    HW2 9536   3.624   5.043   5.336
 3166SOL     OW 9537   2.926   5.071   5.064
 3166SOL    HW1 9538   2.846   5.048   5.119
 3166SOL    HW2 9539   3.009   5.045   5.113
 3167SOL     OW 9540   2.973   4.919   4.824
 3167SOL    HW1 9541   2.933   4.963   4.905
 3167SOL    HW2 9542   2.932   4.956   4.741
 3168SOL     OW 9543   3.500   4.823   4.803
 3168SOL    HW1 9544   3.505   4.904   4.862
 3168SOL    HW2 9545   3.414   4.825   4.752
 3169SOL     OW 9546   2.567   4.774   4.092
 3169SOL    HW1 9547   2.553   4.781   4.191
 3169SOL    HW2 9548   2.651   4.723   4.074
 3170SOL     OW 9549   2.272   4.537   4.975
 3170SOL    HW1 9550   2.358   4.549   5.025
 3170SOL    HW2 9551   2.230   4.450   5.002
 3171SOL     OW 9552   3.136   4.110   4.986
 3171SOL    HW1 9553   3.157   4.184   5.050
 3171SOL    HW2 9554   3.047   4.127   4.943
 3172SOL     OW 9555   2.229   4.824   4.225
 3172SOL    HW1 9556   2.222   4.907   4.169
 3172SOL    HW2 9557   2.233   4.744   4.165
 3173SOL     OW 9558   2.428   4.261   4.589
 3173SOL    HW1 9559   2.440   4.327   4.515
 3173SOL    HW2 9560   2.474   4.295   4.672
 3174SOL     OW 9561   3.114   5.072   4.112
 3174SOL    HW1 9562   3.164   5.149   4.152
 3174SOL    HW2 9563   3.019   5.074   4.144
 3175SOL     OW 9564   3.444   4.363   4.196
 3175SOL    HW1 9565   3.413   4.424   4.269
 3175SOL    HW2 9566   3.494   4.415   4.127
 3176SOL     OW 9567   2.435   4.594   4.753
 3176SOL    HW1 9568   2.479   4.683   4.744
 3176SOL    HW2 9569   2.372   4.594   4.830
 3177SOL     OW 9570   3.222   4.586   4.769
 3177SOL    HW1 9571   3.147   4.586   4.703
 3177SOL    HW2 9572   3.259   4.494   4.778
 3178SOL     OW 9573   3.071   4.249   3.999
 3178SOL    HW1 9574   3.084   4.165   4.053
 3178SOL    HW2 9575   3.042   4.323   4.059
 3179SOL     OW 9576   2.169   3.937   4.955
 3179SOL    HW1 9577   2.146   3.974   5.045
 3179SOL    HW2 9578   2.139   3.842   4.949
 3180SOL     OW 9579   1.899   5.034   5.006
 3180SOL    HW1 9580   1.952   4.985   5.074
 3180SOL    HW2 9581   1.921   5.132   5.011
 3181SOL     OW 9582   2.594   4.358   4.788
 3181SOL    HW1 9583   2.653   4.332   4.712
 3181SOL    HW2 9584   2.566   4.454   4.777
 3182SOL     OW 9585   2.169   3.787   4.342
 3182SOL    HW1 9586   2.158   3.881   4.375
 3182SOL    HW2 9587   2.164   3.724   4.419
 3183SOL     OW 9588   3.484   4.091   4.098
 3183SOL    HW1 9589   3.486   4.015   4.162
 3183SOL    HW2 9590   3.436   4.168   4.138
 3184SOL     OW 9591   2.885   4.490   4.690
 3184SOL    HW1 9592   2.900   4.511   4.786
 3184SOL    HW2 9593   2.855   4.395   4.681
 3185SOL     OW 9594   3.402   3.998   3.849
 3185SOL    HW1 9595   3.341   3.923   3.872
 3185SOL    HW2 9596   3.424   4.050   3.932
 3186SOL     OW 9597   3.165   4.562   3.766
 3186SOL    HW1 9598   3.199   4.469   3.781
 3186SOL    HW2 9599   3.183   4.589   3.671
 3187SOL     OW 9600   2.181   4.534   4.673
 3187SOL    HW1 9601   2.274   4.570   4.678
 3187SOL    HW2 9602   2.175   4.449   4.725
 3188SOL     OW 9603   2.201   4.233   4.730
 3188SOL    HW1 9604   2.149   4.150   4.713
 3188SOL    HW2 9605   2.278   4.238   4.666
 3189SOL     OW 9606   3.022   3.931   5.201
 3189SOL    HW1 9607   3.022   3.995   5.278
 3189SOL    HW2 9608   3.050   3.979   5.118
 3190SOL     OW 9609   1.870   5.050   3.924
 3190SOL    HW1 9610   1.777   5.071   3.893
 3190SOL    HW2 9611   1.880   4.951   3.937
 3191SOL     OW 9612   2.864   4.520   4.962
 3191SOL    HW1 9613   2.905   4.488   5.048
 3191SOL    HW2 9614   2.768   4.493   4.959
 3192SOL     OW 9615   1.902   4.268   4.838
 3192SOL    HW1 9616   1.987   4.235   4.797
 3192SOL    HW2 9617   1.915   4.283   4.936
 3193SOL     OW 9618   2.677   4.296   4.049
 3193SOL    HW1 9619   2.684   4.207   4.003
 3193SOL    HW2 9620   2.583   4.330   4.041
 3194SOL     OW 9621   3.519   4.328   4.930
 3194SOL    HW1 9622   3.481   4.259   4.992
 3194SOL    HW2 9623   3.601   4.292   4.886
 3195SOL     OW 9624   2.533   4.188   4.993
 3195SOL    HW1 9625   2.499   4.099   4.963
 3195SOL    HW2 9626   2.559   4.242   4.913
 3196SOL     OW 9627   2.335   4.224   3.915
 3196SOL    HW1 9628   2.396   4.304   3.919
 3196SOL    HW2 9629   2.240   4.255   3.922
 3197SOL     OW 9630   2.021   4.861   5.190
 3197SOL    HW1 9631   2.043   4.800   5.266
 3197SOL    HW2 9632   2.031   4.812   5.104
 3198SOL     OW 9633   3.209   4.783   4.958
 3198SOL    HW1 9634   3.233   4.720   4.884
 3198SOL    HW2 9635   3.119   4.823   4.940
 3199SOL     OW 9636   3.164   4.579   4.033
 3199SOL    HW1 9637   3.078   4.548   4.075
 3199SOL    HW2 9638   3.160   4.565   3.934
 3200SOL     OW 9639   1.945   4.982   4.746
 3200SOL    HW1 9640   1.940   4.981   4.846
 3200SOL    HW2 9641   1.862   4.941   4.708
 3201SOL     OW 9642   3.588   3.859   4.247
 3201SOL    HW1 9643   3.661   3.842   4.180
 3201SOL    HW2 9644   3.557   3.772   4.285
 3202SOL     OW 9645   3.142   4.651   4.396
 3202SOL    HW1 9646   3.202   4.570   4.398
 3202SOL    HW2 9647   3.182   4.720   4.336
 3203SOL     OW 9648   2.692   4.997   5.146
 3203SOL    HW1 9649   2.687   5.030   5.241
 3203SOL    HW2 9650   2.606   5.016   5.100
 3204SOL     OW 9651   3.703   3.899   4.687
 3204SOL    HW1 9652   3.742   3.814   4.651
 3204SOL    HW2 9653   3.605   3.901   4.668
 3205SOL     OW 9654   2.125   4.050   4.444
 3205SOL    HW1 9655   2.046   4.101   4.410
 3205SOL    HW2 9656   2.116   4.035   4.542
 3206SOL     OW 9657   2.684   4.726   5.096
 3206SOL    HW1 9658   2.724   4.725   5.004
 3206SOL    HW2 9659   2.694   4.818   5.136
 3207SOL     OW 9660   2.778   4.634   4.015
 3207SOL    HW1 9661   2.841   4.672   3.947
 3207SOL    HW2 9662   2.818   4.551   4.054
 3208SOL     OW 9663   2.234   5.012   5.214
 3208SOL    HW1 9664   2.221   5.105   5.180
 3208SOL    HW2 9665   2.150   4.960   5.201
 3209SOL     OW 9666   3.476   5.016   5.013
 3209SOL    HW1 9667   3.536   5.019   5.093
 3209SOL    HW2 9668   3.401   5.080   5.026
 3210SOL     OW 9669   2.901   4.822   4.420
 3210SOL    HW1 9670   2.831   4.775   4.474
 3210SOL    HW2 9671   2.960   4.754   4.377
 3211SOL     OW 9672   2.876   3.960   4.695
 3211SOL    HW1 9673   2.868   3.924   4.602
 3211SOL    HW2 9674   2.874   3.884   4.760
 3212SOL     OW 9675   3.571   4.109   5.105
 3212SOL    HW1 9676   3.644   4.178   5.109
 3212SOL    HW2 9677   3.599   4.034   5.046
 3213SOL     OW 9678   2.534   3.927   5.213
 3213SOL    HW1 9679   2.624   3.911   5.173
 3213SOL    HW2 9680   2.542   3.932   5.312
 3214SOL     OW 9681   1.937   4.069   3.757
 3214SOL    HW1 9682   1.845   4.041   3.728
 3214SOL    HW2 9683   1.968   4.146   3.701
 3215SOL     OW 9684   1.934   3.890   4.042
 3215SOL    HW1 9685   1.917   3.973   3.988
 3215SOL    HW2 9686   2.024   3.853   4.020
 3216SOL     OW 9687   2.475   4.566   5.155
 3216SOL    HW1 9688   2.531   4.647   5.138
 3216SOL    HW2 9689   2.534   4.486   5.158
 3217SOL     OW 9690   3.536   4.607   4.978
 3217SOL    HW1 9691   3.509   4.518   4.941
 3217SOL    HW2 9692   3.537   4.675   4.905
 3218SOL     OW 9693   3.087   4.049   4.173
 3218SOL    HW1 9694   3.152   3.975   4.162
 3218SOL    HW2 9695   3.107   4.099   4.257
 3219SOL     OW 9696   2.456   4.469   4.376
 3219SOL    HW1 9697   2.506   4.554   4.357
 3219SOL    HW2 9698   2.368   4.471   4.328
 3220SOL     OW 9699   3.592   4.658   5.241
 3220SOL    HW1 9700   3.630   4.749   5.256
 3220SOL    HW2 9701   3.584   4.641   5.142
 3221SOL     OW 9702   2.721   5.098   3.740
 3221SOL    HW1 9703   2.675   5.113   3.828
 3221SOL    HW2 9704   2.765   5.183   3.710
 3222SOL     OW 9705   2.721   4.680   4.585
 3222SOL    HW1 9706   2.775   4.611   4.633
 3222SOL    HW2 9707   2.689   4.749   4.651
 3223SOL     OW 9708   2.945   4.708   3.811
 3223SOL    HW1 9709   2.922   4.761   3.729
 3223SOL    HW2 9710   3.026   4.652   3.792
 3224SOL     OW 9711   1.941   4.964   4.377
 3224SOL    HW1 9712   1.940   4.917   4.465
 3224SOL    HW2 9713   2.023   4.936   4.326
 3225SOL     OW 9714   3.686   3.916   4.951
 3225SOL    HW1 9715   3.682   3.826   4.995
 3225SOL    HW2 9716   3.689   3.905   4.852
 3226SOL     OW 9717   2.290   4.148   4.244
 3226SOL    HW1 9718   2.320   4.076   4.182
 3226SOL    HW2 9719   2.251   4.108   4.327
 3227SOL     OW 9720   3.567   5.211   4.828
 3227SOL    HW1 9721   3.474   5.186   4.801
 3227SOL    HW2 9722   3.593   5.161   4.910
 3228SOL     OW 9723   2.179   4.271   5.004
 3228SOL    HW1 9724   2.217   4.212   5.076
 3228SOL    HW2 9725   2.219   4.245   4.916
 3229SOL     OW 9726   3.286   3.938   4.836
 3229SOL    HW1 9727   3.338   3.873   4.891
 3229SOL    HW2 9728   3.237   4.001   4.897
 3230SOL     OW 9729   2.863   3.758   4.878
 3230SOL    HW1 9730   2.800   3.686   4.847
 3230SOL    HW2 9731   2.956   3.722   4.878
 3231SOL     OW 9732   2.632   5.054   4.025
 3231SOL    HW1 9733   2.586   4.967   4.042
 3231SOL    HW2 9734   2.723   5.051   4.066
 3232SOL     OW 9735   3.214   3.776   3.892
 3232SOL    HW1 9736   3.249   3.735   3.808
 3232SOL    HW2 9737   3.124   3.738   3.912
 3233SOL     OW 9738   3.162   4.177   4.415
 3233SOL    HW1 9739   3.103   4.257   4.419
 3233SOL    HW2 9740   3.177   4.142   4.508
 3234SOL     OW 9741   3.455   3.945   4.606
 3234SOL    HW1 9742   3.371   3.944   4.660
 3234SOL    HW2 9743   3.457   4.028   4.550
 3235SOL     OW 9744   1.901   4.801   4.024
 3235SOL    HW1 9745   2.000   4.790   4.015
 3235SOL    HW2 9746   1.861   4.715   4.056
 3236SOL     OW 9747   3.954   0.628   0.113
 3236SOL    HW1 9748   3.861   0.626   0.150
 3236SOL    HW2 9749   3.955   0.589   0.021
 3237SOL     OW 9750   3.949   0.275   0.996
 3237SOL    HW1 9751   3.984   0.258   1.088
 3237SOL    HW2 9752   3.861   0.230   0.984
 3238SOL     OW 9753   3.743   0.368   0.647
 3238SOL    HW1 9754   3.661   0.411   0.686
 3238SOL    HW2 9755   3.715   0.295   0.584
 3239SOL     OW 9756   4.293   1.275   1.165
 3239SOL    HW1 9757   4.200   1.268   1.128
 3239SOL    HW2 9758   4.304   1.364   1.209
 3240SOL     OW 9759   5.279   1.511   0.703
 3240SOL    HW1 9760   5.222   1.495   0.784
 3240SOL    HW2 9761   5.220   1.521   0.623
 3241SOL     OW 9762   4.859   0.703   0.717
 3241SOL    HW1 9763   4.916   0.781   0.692
 3241SOL    HW2 9764   4.799   0.729   0.793
 3242SOL     OW 9765   4.492   1.144   1.023
 3242SOL    HW1 9766   4.414   1.161   1.083
 3242SOL    HW2 9767   4.526   1.231   0.987
 3243SOL     OW 9768   4.574   0.798   1.823
 3243SOL    HW1 9769   4.570   0.874   1.888
 3243SOL    HW2 9770   4.596   0.834   1.732
 3244SOL     OW 9771   4.409   1.012   0.665
 3244SOL    HW1 9772   4.478   0.996   0.735
 3244SOL    HW2 9773   4.336   1.069   0.703
 3245SOL     OW 9774   4.410   1.161   1.803
 3245SOL    HW1 9775   4.470   1.240   1.817
 3245SOL    HW2 9776   4.324   1.192   1.762
 3246SOL     OW 9777   4.059   1.435   1.061
 3246SOL    HW1 9778   3.981   1.404   1.008
 3246SOL    HW2 9779   4.117   1.493   1.004
 3247SOL     OW 9780   4.162   0.392   1.499
 3247SOL    HW1 9781   4.244   0.336   1.508
 3247SOL    HW2 9782   4.081   0.334   1.503
 3248SOL     OW 9783   3.955   1.713   0.483
 3248SOL    HW1 9784   3.989   1.790   0.537
 3248SOL    HW2 9785   3.999   1.713   0.393
 3249SOL     OW 9786   4.851   1.341   1.690
 3249SOL    HW1 9787   4.898   1.341   1.778
 3249SOL    HW2 9788   4.803   1.254   1.679
 3250SOL     OW 9789   3.954   1.434   0.538
 3250SOL    HW1 9790   3.928   1.530   0.538
 3250SOL    HW2 9791   3.883   1.380   0.583
 3251SOL     OW 9792   3.964   1.091   0.886
 3251SOL    HW1 9793   3.978   1.007   0.938
 3251SOL    HW2 9794   3.909   1.155   0.941
 3252SOL     OW 9795   4.344   1.786   1.439
 3252SOL    HW1 9796   4.252   1.769   1.474
 3252SOL    HW2 9797   4.372   1.878   1.465
 3253SOL     OW 9798   4.330   0.964   0.123
 3253SOL    HW1 9799   4.337   1.048   0.069
 3253SOL    HW2 9800   4.376   0.977   0.211
 3254SOL     OW 9801   3.846   0.643   0.563
 3254SOL    HW1 9802   3.801   0.555   0.580
 3254SOL    HW2 9803   3.845   0.697   0.647
 3255SOL     OW 9804   3.751   1.596   0.117
 3255SOL    HW1 9805   3.732   1.500   0.138
 3255SOL    HW2 9806   3.718   1.654   0.192
 3256SOL     OW 9807   5.413   0.922   0.612
 3256SOL    HW1 9808   5.508   0.893   0.620
 3256SOL    HW2 9809   5.405   0.987   0.537
 3257SOL     OW 9810   3.837   0.737   1.597
 3257SOL    HW1 9811   3.925   0.724   1.642
 3257SOL    HW2 9812   3.824   0.834   1.575
 3258SOL     OW 9813   4.337   1.365   0.726
 3258SOL    HW1 9814   4.288   1.278   0.735
 3258SOL    HW2 9815   4.314   1.408   0.639
 3259SOL     OW 9816   5.017   1.228   1.423
 3259SOL    HW1 9817   5.054   1.155   1.365
 3259SOL    HW2 9818   5.069   1.233   1.508
 3260SOL     OW 9819   4.533   0.004   0.502
 3260SOL    HW1 9820   4.573   0.095   0.493
 3260SOL    HW2 9821   4.433   0.012   0.508
 3261SOL     OW 9822   3.921   0.976   1.264
 3261SOL    HW1 9823   4.010   0.931   1.250
 3261SOL    HW2 9824   3.848   0.911   1.245
 3262SOL     OW 9825   4.911   1.792   1.616
 3262SOL    HW1 9826   4.935   1.852   1.540
 3262SOL    HW2 9827   4.918   1.697   1.586
 3263SOL     OW 9828   4.041   0.251   1.801
 3263SOL    HW1 9829   4.112   0.322   1.807
 3263SOL    HW2 9830   3.953   0.290   1.829
 3264SOL     OW 9831   4.322   0.729   0.270
 3264SOL    HW1 9832   4.346   0.798   0.202
 3264SOL    HW2 9833   4.244   0.762   0.324
 3265SOL     OW 9834   5.005   0.345   0.944
 3265SOL    HW1 9835   4.919   0.295   0.931
 3265SOL    HW2 9836   5.067   0.291   1.000
 3266SOL     OW 9837   4.531   0.605   1.465
 3266SOL    HW1 9838   4.484   0.602   1.554
 3266SOL    HW2 9839   4.480   0.550   1.399
 3267SOL     OW 9840   5.118   0.469   1.674
 3267SOL    HW1 9841   5.098   0.512   1.762
 3267SOL    HW2 9842   5.196   0.407   1.683
 3268SOL     OW 9843   4.697   0.890   1.572
 3268SOL    HW1 9844   4.743   0.806   1.543
 3268SOL    HW2 9845   4.641   0.924   1.497
 3269SOL     OW 9846   4.715   0.410   1.242
 3269SOL    HW1 9847   4.638   0.444   1.296
 3269SOL    HW2 9848   4.681   0.359   1.163
 3270SOL     OW 9849   4.765   0.701   0.429
 3270SOL    HW1 9850   4.791   0.697   0.525
 3270SOL    HW2 9851   4.680   0.650   0.415
 3271SOL     OW 9852   3.800   0.811   0.789
 3271SOL    HW1 9853   3.899   0.799   0.798
 3271SOL    HW2 9854   3.776   0.906   0.810
 3272SOL     OW 9855   3.854   1.821   1.571
 3272SOL    HW1 9856   3.844   1.806   1.670
 3272SOL    HW2 9857   3.768   1.857   1.535
 3273SOL     OW 9858   4.589   0.348   0.195
 3273SOL    HW1 9859   4.648   0.411   0.146
 3273SOL    HW2 9860   4.608   0.254   0.166
 3274SOL     OW 9861   5.086   1.144   0.545
 3274SOL    HW1 9862   5.169   1.115   0.497
 3274SOL    HW2 9863   5.037   1.211   0.489
 3275SOL     OW 9864   4.274   0.196   0.885
 3275SOL    HW1 9865   4.269   0.191   0.985
 3275SOL    HW2 9866   4.276   0.292   0.856
 3276SOL     OW 9867   4.732   1.456   0.477
 3276SOL    HW1 9868   4.686   1.528   0.425
 3276SOL    HW2 9869   4.728   1.476   0.575
 3277SOL     OW 9870   4.075   1.801   0.853
 3277SOL    HW1 9871   4.125   1.715   0.859
 3277SOL    HW2 9872   4.140   1.878   0.850
 3278SOL     OW 9873   4.951   1.550   1.506
 3278SOL    HW1 9874   4.957   1.473   1.570
 3278SOL    HW2 9875   4.899   1.524   1.426
 3279SOL     OW 9876   4.045   0.943   0.242
 3279SOL    HW1 9877   4.127   0.982   0.200
 3279SOL    HW2 9878   4.018   0.861   0.193
 3280SOL     OW 9879   4.185   1.266   1.727
 3280SOL    HW1 9880   4.135   1.267   1.641
 3280SOL    HW2 9881   4.122   1.248   1.803
 3281SOL     OW 9882   4.835   1.776   0.237
 3281SOL    HW1 9883   4.775   1.714   0.287
 3281SOL    HW2 9884   4.866   1.732   0.152
 3282SOL     OW 9885   3.926   0.285   1.498
 3282SOL    HW1 9886   3.846   0.345   1.485
 3282SOL    HW2 9887   3.916   0.236   1.584
 3283SOL     OW 9888   5.356   1.377   0.081
 3283SOL    HW1 9889   5.324   1.471   0.071
 3283SOL    HW2 9890   5.280   1.314   0.069
 3284SOL     OW 9891   4.188   1.743   0.323
 3284SOL    HW1 9892   4.221   1.782   0.409
 3284SOL    HW2 9893   4.264   1.736   0.258
 3285SOL     OW 9894   3.973   1.785   1.241
 3285SOL    HW1 9895   4.030   1.720   1.291
 3285SOL    HW2 9896   3.957   1.752   1.148
 3286SOL     OW 9897   4.664   1.698   0.904
 3286SOL    HW1 9898   4.744   1.641   0.925
 3286SOL    HW2 9899   4.615   1.658   0.827
 3287SOL     OW 9900   4.106   0.700   0.480
 3287SOL    HW1 9901   4.151   0.610   0.477
 3287SOL    HW2 9902   4.012   0.689   0.513
 3288SOL     OW 9903   4.338   0.122   0.117
 3288SOL    HW1 9904   4.436   0.100   0.124
 3288SOL    HW2 9905   4.307   0.105   0.024
 3289SOL     OW 9906   4.505   0.264   1.749
 3289SOL    HW1 9907   4.572   0.203   1.792
 3289SOL    HW2 9908   4.432   0.283   1.814
 3290SOL     OW 9909   4.612   1.514   1.195
 3290SOL    HW1 9910   4.589   1.489   1.101
 3290SOL    HW2 9911   4.673   1.445   1.234
 3291SOL     OW 9912   5.075   0.590   1.433
 3291SOL    HW1 9913   5.103   0.547   1.518
 3291SOL    HW2 9914   5.100   0.686   1.434
 3292SOL     OW 9915   4.527   1.402   0.924
 3292SOL    HW1 9916   4.617   1.416   0.882
 3292SOL    HW2 9917   4.456   1.404   0.853
 3293SOL     OW 9918   4.646   0.503   0.899
 3293SOL    HW1 9919   4.621   0.494   0.803
 3293SOL    HW2 9920   4.694   0.421   0.930
 3294SOL     OW 9921   4.263   0.064   0.512
 3294SOL    HW1 9922   4.182   0.065   0.570
 3294SOL    HW2 9923   4.266   0.147   0.457
 3295SOL     OW 9924   5.158   1.188   0.041
 3295SOL    HW1 9925   5.190   1.112   0.098
 3295SOL    HW2 9926   5.066   1.215   0.071
 3296SOL     OW 9927   4.021   0.035   0.171
 3296SOL    HW1 9928   4.070   0.119   0.150
 3296SOL    HW2 9929   4.083  -0.030   0.216
 3297SOL     OW 9930   4.659   0.236   0.480
 3297SOL    HW1 9931   4.611   0.277   0.402
 3297SOL    HW2 9932   4.758   0.234   0.461
 3298SOL     OW 9933   4.800   0.683   1.464
 3298SOL    HW1 9934   4.720   0.622   1.467
 3298SOL    HW2 9935   4.881   0.630   1.440
 3299SOL     OW 9936   4.951   1.570   0.793
 3299SOL    HW1 9937   4.972   1.644   0.728
 3299SOL    HW2 9938   5.019   1.570   0.866
 3300SOL     OW 9939   4.183   1.152   0.741
 3300SOL    HW1 9940   4.112   1.125   0.806
 3300SOL    HW2 9941   4.157   1.124   0.648
 3301SOL     OW 9942   4.995   1.797   0.591
 3301SOL    HW1 9943   5.039   1.861   0.527
 3301SOL    HW2 9944   4.945   1.849   0.661
 3302SOL     OW 9945   4.756   0.549   0.016
 3302SOL    HW1 9946   4.715   0.631  -0.023
 3302SOL    HW2 9947   4.820   0.575   0.089
 3303SOL     OW 9948   3.802   0.556   1.386
 3303SOL    HW1 9949   3.894   0.555   1.345
 3303SOL    HW2 9950   3.796   0.630   1.453
 3304SOL     OW 9951   4.285   0.222   1.147
 3304SOL    HW1 9952   4.323   0.138   1.184
 3304SOL    HW2 9953   4.197   0.241   1.191
 3305SOL     OW 9954   4.590   0.454   0.642
 3305SOL    HW1 9955   4.558   0.526   0.580
 3305SOL    HW2 9956   4.614   0.373   0.589
 3306SOL     OW 9957   4.741   0.039   0.753
 3306SOL    HW1 9958   4.669   0.044   0.684
 3306SOL    HW2 9959   4.717  -0.030   0.822
 3307SOL     OW 9960   4.212   1.385   0.174
 3307SOL    HW1 9961   4.125   1.370   0.221
 3307SOL    HW2 9962   4.195   1.411   0.079
 3308SOL     OW 9963   5.114   0.575   0.078
 3308SOL    HW1 9964   5.060   0.554   0.159
 3308SOL    HW2 9965   5.205   0.534   0.087
 3309SOL     OW 9966   4.251   0.256   0.328
 3309SOL    HW1 9967   4.278   0.197   0.253
 3309SOL    HW2 9968   4.251   0.351   0.297
 3310SOL     OW 9969   4.788   1.347   1.340
 3310SOL    HW1 9970   4.708   1.324   1.395
 3310SOL    HW2 9971   4.871   1.321   1.389
 3311SOL     OW 9972   4.835   1.195   1.100
 3311SOL    HW1 9973   4.795   1.239   1.181
 3311SOL    HW2 9974   4.794   1.232   1.017
 3312SOL     OW 9975   4.639   0.089   1.402
 3312SOL    HW1 9976   4.664   0.069   1.307
 3312SOL    HW2 9977   4.711   0.145   1.444
 3313SOL     OW 9978   4.704   1.116   1.719
 3313SOL    HW1 9979   4.605   1.122   1.729
 3313SOL    HW2 9980   4.727   1.036   1.663
 3314SOL     OW 9981   4.429   1.050   0.368
 3314SOL    HW1 9982   4.415   1.057   0.467
 3314SOL    HW2 9983   4.513   0.999   0.350
 3315SOL     OW 9984   4.134   0.813   1.251
 3315SOL    HW1 9985   4.220   0.825   1.301
 3315SOL    HW2 9986   4.092   0.726   1.278
 3316SOL     OW 9987   4.998   0.386   1.262
 3316SOL    HW1 9988   5.019   0.460   1.326
 3316SOL    HW2 9989   4.909   0.403   1.219
 3317SOL     OW 9990   3.788   1.564   1.331
 3317SOL    HW1 9991   3.742   1.646   1.297
 3317SOL    HW2 9992   3.886   1.583   1.340
 3318SOL     OW 9993   4.091   1.100   0.501
 3318SOL    HW1 9994   4.084   1.183   0.445
 3318SOL    HW2 9995   4.095   1.020   0.441
 3319SOL     OW 9996   4.290   0.537   0.865
 3319SOL    HW1 9997   4.302   0.603   0.791
 3319SOL    HW2 9998   4.336   0.571   0.948
 3320SOL     OW 9999   4.976   1.348   0.388
 3320SOL    HW110000   5.026   1.425   0.428
 3320SOL    HW210001   4.881   1.350   0.420
 3321SOL     OW10002   4.996   1.445   1.142
 3321SOL    HW110003   5.043   1.458   1.229
 3321SOL    HW210004   4.930   1.371   1.151
 3322SOL     OW10005   4.078   1.510   1.329
 3322SOL    HW110006   4.057   1.466   1.242
 3322SOL    HW210007   4.175   1.536   1.332
 3323SOL     OW10008   4.126   0.751   1.598
 3323SOL    HW110009   4.194   0.806   1.551
 3323SOL    HW210010   4.166   0.663   1.625
 3324SOL     OW10011   4.737   0.105   1.770
 3324SOL    HW110012   4.743   0.190   1.718
 3324SOL    HW210013   4.769   0.029   1.713
 3325SOL     OW10014   4.228   0.050   1.740
 3325SOL    HW110015   4.186  -0.007   1.670
 3325SOL    HW210016   4.162   0.119   1.772
 3326SOL     OW10017   4.297   0.870   1.029
 3326SOL    HW110018   4.341   0.959   1.020
 3326SOL    HW210019   4.234   0.870   1.106
 3327SOL     OW10020   5.084   0.862   1.045
 3327SOL    HW110021   5.009   0.862   0.979
 3327SOL    HW210022   5.121   0.770   1.054
 3328SOL     OW10023   4.933   0.525   0.275
 3328SOL    HW110024   4.946   0.441   0.329
 3328SOL    HW210025   4.904   0.599   0.335
 3329SOL     OW10026   4.031   0.213   1.231
 3329SOL    HW110027   4.008   0.250   1.321
 3329SOL    HW210028   4.001   0.118   1.225
 3330SOL     OW10029   3.761   1.310   1.282
 3330SOL    HW110030   3.814   1.261   1.350
 3330SOL    HW210031   3.783   1.408   1.287
 3331SOL     OW10032   4.456   0.634   1.064
 3331SOL    HW110033   4.515   0.608   0.988
 3331SOL    HW210034   4.428   0.730   1.053
 3332SOL     OW10035   4.031   0.063   0.618
 3332SOL    HW110036   4.020   0.157   0.651
 3332SOL    HW210037   4.026   0.000   0.695
 3333SOL     OW10038   5.346   0.367   0.374
 3333SOL    HW110039   5.348   0.291   0.438
 3333SOL    HW210040   5.298   0.444   0.414
 3334SOL     OW10041   4.747   0.766   0.966
 3334SOL    HW110042   4.762   0.787   1.062
 3334SOL    HW210043   4.717   0.671   0.957
 3335SOL     OW10044   4.704   1.573   1.700
 3335SOL    HW110045   4.684   1.617   1.612
 3335SOL    HW210046   4.743   1.482   1.684
 3336SOL     OW10047   4.074   0.898   1.804
 3336SOL    HW110048   4.150   0.942   1.852
 3336SOL    HW210049   4.109   0.851   1.722
 3337SOL     OW10050   5.027   0.838   0.042
 3337SOL    HW110051   5.061   0.745   0.057
 3337SOL    HW210052   5.045   0.865  -0.053
 3338SOL     OW10053   4.792   1.333   0.849
 3338SOL    HW110054   4.799   1.249   0.794
 3338SOL    HW210055   4.854   1.402   0.813
 3339SOL     OW10056   4.043   0.810   0.949
 3339SOL    HW110057   4.136   0.846   0.954
 3339SOL    HW210058   4.037   0.725   1.001
 3340SOL     OW10059   4.063   0.509   1.006
 3340SOL    HW110060   4.011   0.426   0.989
 3340SOL    HW210061   4.140   0.514   0.942
 3341SOL     OW10062   4.862   0.380   1.678
 3341SOL    HW110063   4.817   0.443   1.742
 3341SOL    HW210064   4.955   0.411   1.661
 3342SOL     OW10065   4.884   0.207   1.477
 3342SOL    HW110066   4.884   0.271   1.554
 3342SOL    HW210067   4.912   0.255   1.394
 3343SOL     OW10068   3.812   1.801   0.927
 3343SOL    HW110069   3.770   1.715   0.900
 3343SOL    HW210070   3.906   1.804   0.893
 3344SOL     OW10071   4.228   1.568   0.910
 3344SOL    HW110072   4.294   1.642   0.919
 3344SOL    HW210073   4.272   1.489   0.868
 3345SOL     OW10074   4.726   0.796   1.238
 3345SOL    HW110075   4.767   0.764   1.324
 3345SOL    HW210076   4.630   0.769   1.235
 3346SOL     OW10077   3.764   0.544   1.114
 3346SOL    HW110078   3.849   0.511   1.073
 3346SOL    HW210079   3.777   0.559   1.212
 3347SOL     OW10080   3.913   0.520   1.722
 3347SOL    HW110081   3.972   0.480   1.652
 3347SOL    HW210082   3.855   0.591   1.681
 3348SOL     OW10083   4.539   0.572   0.325
 3348SOL    HW110084   4.546   0.483   0.279
 3348SOL    HW210085   4.445   0.606   0.317
 3349SOL     OW10086   3.976   1.564   1.744
 3349SOL    HW110087   3.946   1.621   1.820
 3349SOL    HW210088   3.969   1.467   1.770
 3350SOL     OW10089   4.395   0.464   1.269
 3350SOL    HW110090   4.361   0.375   1.239
 3350SOL    HW210091   4.421   0.518   1.189
 3351SOL     OW10092   4.654   1.678   1.465
 3351SOL    HW110093   4.630   1.660   1.370
 3351SOL    HW210094   4.684   1.772   1.475
 3352SOL     OW10095   4.197   0.500   0.191
 3352SOL    HW110096   4.258   0.580   0.195
 3352SOL    HW210097   4.102   0.531   0.198
 3353SOL     OW10098   3.883   1.137   1.466
 3353SOL    HW110099   3.905   1.076   1.542
 3353SOL    HW210100   3.893   1.088   1.380
 3354SOL     OW10101   5.071   1.059   1.234
 3354SOL    HW110102   5.095   0.996   1.160
 3354SOL    HW210103   4.981   1.099   1.216
 3355SOL     OW10104   5.026   0.855   0.309
 3355SOL    HW110105   4.940   0.824   0.351
 3355SOL    HW210106   5.022   0.841   0.210
 3356SOL     OW10107   4.976   1.731   1.128
 3356SOL    HW110108   5.060   1.736   1.074
 3356SOL    HW210109   4.953   1.635   1.146
 3357SOL     OW10110   3.807   1.258   1.022
 3357SOL    HW110111   3.802   1.257   1.122
 3357SOL    HW210112   3.724   1.217   0.984
 3358SOL     OW10113   4.412   1.662   1.716
 3358SOL    HW110114   4.356   1.743   1.725
 3358SOL    HW210115   4.464   1.666   1.630
 3359SOL     OW10116   4.627   0.086   0.133
 3359SOL    HW110117   4.678   0.087   0.047
 3359SOL    HW210118   4.683   0.044   0.204
 3360SOL     OW10119   5.112   1.573   0.477
 3360SOL    HW110120   5.179   1.585   0.403
 3360SOL    HW210121   5.072   1.662   0.500
 3361SOL     OW10122   3.854   1.794   1.851
 3361SOL    HW110123   3.813   1.720   1.904
 3361SOL    HW210124   3.918   1.845   1.909
 3362SOL     OW10125   5.004   0.927   0.672
 3362SOL    HW110126   5.064   0.846   0.674
 3362SOL    HW210127   5.044   0.996   0.612
 3363SOL     OW10128   4.554   1.273   1.422
 3363SOL    HW110129   4.549   1.306   1.517
 3363SOL    HW210130   4.468   1.292   1.376
 3364SOL     OW10131   4.396   1.616   0.154
 3364SOL    HW110132   4.405   1.626   0.055
 3364SOL    HW210133   4.356   1.527   0.175
 3365SOL     OW10134   3.987   0.326   0.720
 3365SOL    HW110135   3.908   0.377   0.686
 3365SOL    HW210136   3.978   0.311   0.818
 3366SOL     OW10137   4.918   1.612   0.031
 3366SOL    HW110138   4.924   1.519   0.068
 3366SOL    HW210139   4.859   1.612  -0.049
 3367SOL     OW10140   4.546   1.002   1.372
 3367SOL    HW110141   4.586   1.001   1.280
 3367SOL    HW210142   4.556   1.094   1.412
 3368SOL     OW10143   4.640   0.910   0.291
 3368SOL    HW110144   4.703   0.948   0.223
 3368SOL    HW210145   4.680   0.827   0.330
 3369SOL     OW10146   4.096   1.288   1.490
 3369SOL    HW110147   4.083   1.381   1.456
 3369SOL    HW210148   4.012   1.236   1.477
 3370SOL     OW10149   4.763   1.098   0.696
 3370SOL    HW110150   4.693   1.051   0.750
 3370SOL    HW210151   4.822   1.030   0.653
 3371SOL     OW10152   4.738   0.236   0.971
 3371SOL    HW110153   4.730   0.200   0.878
 3371SOL    HW210154   4.736   0.160   1.036
 3372SOL     OW10155   4.314   1.487   0.491
 3372SOL    HW110156   4.356   1.429   0.421
 3372SOL    HW210157   4.270   1.566   0.447
 3373SOL     OW10158   3.979   1.348   0.290
 3373SOL    HW110159   3.883   1.349   0.263
 3373SOL    HW210160   3.991   1.401   0.374
 3374SOL     OW10161   3.829   1.013   1.726
 3374SOL    HW110162   3.752   0.980   1.780
 3374SOL    HW210163   3.914   0.983   1.768
 3375SOL     OW10164   4.396   0.203   1.489
 3375SOL    HW110165   4.486   0.187   1.449
 3375SOL    HW210166   4.404   0.208   1.588
 3376SOL     OW10167   3.799   0.345   0.033
 3376SOL    HW110168   3.707   0.317   0.004
 3376SOL    HW210169   3.830   0.422  -0.023
 3377SOL     OW10170   5.164   0.856   1.398
 3377SOL    HW110171   5.107   0.908   1.335
 3377SOL    HW210172   5.260   0.868   1.374
 3378SOL     OW10173   3.796   0.166   0.318
 3378SOL    HW110174   3.779   0.249   0.264
 3378SOL    HW210175   3.886   0.129   0.296
 3379SOL     OW10176   4.907   1.335   0.119
 3379SOL    HW110177   4.808   1.324   0.121
 3379SOL    HW210178   4.941   1.350   0.212
 3380SOL     OW10179   4.337   0.842   1.431
 3380SOL    HW110180   4.393   0.923   1.414
 3380SOL    HW210181   4.396   0.762   1.434
 3381SOL     OW10182   4.440   0.565   1.708
 3381SOL    HW110183   4.459   0.630   1.782
 3381SOL    HW210184   4.500   0.485   1.717
 3382SOL     OW10185   5.174   1.220   1.633
 3382SOL    HW110186   5.165   1.210   1.732
 3382SOL    HW210187   5.270   1.213   1.607
 3383SOL     OW10188   4.114   1.741   1.560
 3383SOL    HW110189   4.023   1.782   1.558
 3383SOL    HW210190   4.107   1.647   1.592
 3384SOL     OW10191   4.949   0.325   0.449
 3384SOL    HW110192   5.014   0.251   0.438
 3384SOL    HW210193   4.969   0.375   0.533
 3385SOL     OW10194   4.318   0.745   0.652
 3385SOL    HW110195   4.368   0.830   0.633
 3385SOL    HW210196   4.230   0.747   0.604
 3386SOL     OW10197   4.583   1.374   0.016
 3386SOL    HW110198   4.537   1.389   0.104
 3386SOL    HW210199   4.627   1.459  -0.014
 3387SOL     OW10200   4.385   1.790   0.953
 3387SOL    HW110201   4.339   1.878   0.940
 3387SOL    HW210202   4.484   1.802   0.946
 3388SOL     OW10203   4.583   0.956   0.861
 3388SOL    HW110204   4.637   0.887   0.909
 3388SOL    HW210205   4.551   1.025   0.927
 3389SOL     OW10206   4.807   0.984   0.087
 3389SOL    HW110207   4.784   1.037   0.005
 3389SOL    HW210208   4.888   0.928   0.068
 3390SOL     OW10209   3.945   1.314   1.844
 3390SOL    HW110210   3.880   1.241   1.823
 3390SOL    HW210211   3.949   1.328   1.942
 3391SOL     OW10212   3.803   1.240   0.653
 3391SOL    HW110213   3.802   1.193   0.741
 3391SOL    HW210214   3.885   1.212   0.602
 3392SOL     OW10215   4.396   1.391   1.624
 3392SOL    HW110216   4.318   1.341   1.662
 3392SOL    HW210217   4.393   1.486   1.655
 3393SOL     OW10218   4.152   0.424   0.520
 3393SOL    HW110219   4.182   0.352   0.458
 3393SOL    HW210220   4.113   0.384   0.603
 3394SOL     OW10221   4.041   0.547   1.280
 3394SOL    HW110222   4.079   0.488   1.352
 3394SOL    HW210223   4.081   0.521   1.192
 3395SOL     OW10224   4.536   1.586   0.687
 3395SOL    HW110225   4.568   1.596   0.593
 3395SOL    HW210226   4.457   1.524   0.689
 3396SOL     OW10227   5.148   0.214   1.112
 3396SOL    HW110228   5.200   0.149   1.167
 3396SOL    HW210229   5.099   0.277   1.173
 3397SOL     OW10230   4.725   0.034   1.154
 3397SOL    HW110231   4.662  -0.038   1.123
 3397SOL    HW210232   4.818  -0.002   1.154
 3398SOL     OW10233   4.494   1.330   0.301
 3398SOL    HW110234   4.448   1.243   0.318
 3398SOL    HW210235   4.585   1.327   0.342
 3399SOL     OW10236   4.342   1.567   1.284
 3399SOL    HW110237   4.337   1.649   1.341
 3399SOL    HW210238   4.431   1.564   1.239
 3400SOL     OW10239   5.076   0.052   0.168
 3400SOL    HW110240   5.111   0.011   0.084
 3400SOL    HW210241   4.986   0.014   0.188
 3401SOL     OW10242   3.763   1.077   0.300
 3401SOL    HW110243   3.862   1.066   0.291
 3401SOL    HW210244   3.723   0.991   0.332
 3402SOL     OW10245   4.599   1.646   0.337
 3402SOL    HW110246   4.522   1.611   0.283
 3402SOL    HW210247   4.567   1.717   0.399
 3403SOL     OW10248   3.954   0.628   1.975
 3403SOL    HW110249   3.861   0.626   2.012
 3403SOL    HW210250   3.955   0.589   1.883
 3404SOL     OW10251   3.949   0.275   2.858
 3404SOL    HW110252   3.984   0.258   2.950
 3404SOL    HW210253   3.861   0.230   2.846
 3405SOL     OW10254   3.743   0.368   2.509
 3405SOL    HW110255   3.661   0.411   2.548
 3405SOL    HW210256   3.715   0.295   2.446
 3406SOL     OW10257   4.293   1.275   3.027
 3406SOL    HW110258   4.200   1.268   2.990
 3406SOL    HW210259   4.304   1.364   3.071
 3407SOL     OW10260   5.279   1.511   2.565
 3407SOL    HW110261   5.222   1.495   2.646
 3407SOL    HW210262   5.220   1.521   2.485
 3408SOL     OW10263   4.859   0.703   2.579
 3408SOL    HW110264   4.916   0.781   2.554
 3408SOL    HW210265   4.799   0.729   2.655
 3409SOL     OW10266   4.492   1.144   2.885
 3409SOL    HW110267   4.414   1.161   2.945
 3409SOL    HW210268   4.526   1.231   2.849
 3410SOL     OW10269   4.574   0.798   3.685
 3410SOL    HW110270   4.570   0.874   3.750
 3410SOL    HW210271   4.596   0.834   3.594
 3411SOL     OW10272   4.409   1.012   2.527
 3411SOL    HW110273   4.478   0.996   2.597
 3411SOL    HW210274   4.336   1.069   2.565
 3412SOL     OW10275   4.410   1.161   3.665
 3412SOL    HW110276   4.470   1.240   3.679
 3412SOL    HW210277   4.324   1.192   3.624
 3413SOL     OW10278   4.059   1.435   2.923
 3413SOL    HW110279   3.981   1.404   2.870
 3413SOL    HW210280   4.117   1.493   2.866
 3414SOL     OW10281   4.162   0.392   3.361
 3414SOL    HW110282   4.244   0.336   3.370
 3414SOL    HW210283   4.081   0.334   3.365
 3415SOL     OW10284   3.955   1.713   2.345
 3415SOL    HW110285   3.989   1.790   2.399
 3415SOL    HW210286   3.999   1.713   2.255
 3416SOL     OW10287   4.851   1.341   3.552
 3416SOL    HW110288   4.898   1.341   3.640
 3416SOL    HW210289   4.803   1.254   3.541
 3417SOL     OW10290   3.954   1.434   2.400
 3417SOL    HW110291   3.928   1.530   2.400
 3417SOL    HW210292   3.883   1.380   2.445
 3418SOL     OW10293   3.964   1.091   2.748
 3418SOL    HW110294   3.978   1.007   2.800
 3418SOL    HW210295   3.909   1.155   2.803
 3419SOL     OW10296   4.344   1.786   3.301
 3419SOL    HW110297   4.252   1.769   3.336
 3419SOL    HW210298   4.372   1.878   3.327
 3420SOL     OW10299   4.330   0.964   1.985
 3420SOL    HW110300   4.337   1.048   1.931
 3420SOL    HW210301   4.376   0.977   2.073
 3421SOL     OW10302   3.846   0.643   2.425
 3421SOL    HW110303   3.801   0.555   2.442
 3421SOL    HW210304   3.845   0.697   2.509
 3422SOL     OW10305   3.751   1.596   1.979
 3422SOL    HW110306   3.732   1.500   2.000
 3422SOL    HW210307   3.718   1.654   2.054
 3423SOL     OW10308   5.413   0.922   2.474
 3423SOL    HW110309   5.508   0.893   2.482
 3423SOL    HW210310   5.405   0.987   2.399
 3424SOL     OW10311   3.837   0.737   3.459
 3424SOL    HW110312   3.925   0.724   3.504
 3424SOL    HW210313   3.824   0.834   3.437
 3425SOL     OW10314   4.337   1.365   2.588
 3425SOL    HW110315   4.288   1.278   2.597
 3425SOL    HW210316   4.314   1.408   2.501
 3426SOL     OW10317   5.017   1.228   3.285
 3426SOL    HW110318   5.054   1.155   3.227
 3426SOL    HW210319   5.069   1.233   3.370
 3427SOL     OW10320   4.533   0.004   2.364
 3427SOL    HW110321   4.573   0.095   2.355
 3427SOL    HW210322   4.433   0.012   2.370
 3428SOL     OW10323   3.921   0.976   3.126
 3428SOL    HW110324   4.010   0.931   3.112
 3428SOL    HW210325   3.848   0.911   3.107
 3429SOL     OW10326   4.911   1.792   3.478
 3429SOL    HW110327   4.935   1.852   3.402
 3429SOL    HW210328   4.918   1.697   3.448
 3430SOL     OW10329   4.041   0.251   3.663
 3430SOL    HW110330   4.112   0.322   3.669
 3430SOL    HW210331   3.953   0.290   3.691
 3431SOL     OW10332   4.322   0.729   2.132
 3431SOL    HW110333   4.346   0.798   2.064
 3431SOL    HW210334   4.244   0.762   2.186
 3432SOL     OW10335   5.005   0.345   2.806
 3432SOL    HW110336   4.919   0.295   2.793
 3432SOL    HW210337   5.067   0.291   2.862
 3433SOL     OW10338   4.531   0.605   3.327
 3433SOL    HW110339   4.484   0.602   3.416
 3433SOL    HW210340   4.480   0.550   3.261
 3434SOL     OW10341   5.118   0.469   3.536
 3434SOL    HW110342   5.098   0.512   3.624
 3434SOL    HW210343   5.196   0.407   3.545
 3435SOL     OW10344   4.697   0.890   3.434
 3435SOL    HW110345   4.743   0.806   3.405
 3435SOL    HW210346   4.641   0.924   3.359
 3436SOL     OW10347   4.715   0.410   3.104
 3436SOL    HW110348   4.638   0.444   3.158
 3436SOL    HW210349   4.681   0.359   3.025
 3437SOL     OW10350   4.765   0.701   2.291
 3437SOL    HW110351   4.791   0.697   2.387
 3437SOL    HW210352   4.680   0.650   2.277
 3438SOL     OW10353   3.800   0.811   2.651
 3438SOL    HW110354   3.899   0.799   2.660
 3438SOL    HW210355   3.776   0.906   2.672
 3439SOL     OW10356   3.854   1.821   3.433
 3439SOL    HW110357   3.844   1.806   3.532
 3439SOL    HW210358   3.768   1.857   3.397
 3440SOL     OW10359   4.589   0.348   2.057
 3440SOL    HW110360   4.648   0.411   2.008
 3440SOL    HW210361   4.608   0.254   2.028
 3441SOL     OW10362   5.086   1.144   2.407
 3441SOL    HW110363   5.169   1.115   2.359
 3441SOL    HW210364   5.037   1.211   2.351
 3442SOL     OW10365   4.274   0.196   2.747
 3442SOL    HW110366   4.269   0.191   2.847
 3442SOL    HW210367   4.276   0.292   2.718
 3443SOL     OW10368   4.732   1.456   2.339
 3443SOL    HW110369   4.686   1.528   2.287
 3443SOL    HW210370   4.728   1.476   2.437
 3444SOL     OW10371   4.075   1.801   2.715
 3444SOL    HW110372   4.125   1.715   2.721
 3444SOL    HW210373   4.140   1.878   2.712
 3445SOL     OW10374   4.951   1.550   3.368
 3445SOL    HW110375   4.957   1.473   3.432
 3445SOL    HW210376   4.899   1.524   3.288
 3446SOL     OW10377   4.045   0.943   2.104
 3446SOL    HW110378   4.127   0.982   2.062
 3446SOL    HW210379   4.018   0.861   2.055
 3447SOL     OW10380   4.185   1.266   3.589
 3447SOL    HW110381   4.135   1.267   3.503
 3447SOL    HW210382   4.122   1.248   3.665
 3448SOL     OW10383   4.835   1.776   2.099
 3448SOL    HW110384   4.775   1.714   2.149
 3448SOL    HW210385   4.866   1.732   2.014
 3449SOL     OW10386   3.926   0.285   3.360
 3449SOL    HW110387   3.846   0.345   3.347
 3449SOL    HW210388   3.916   0.236   3.446
 3450SOL     OW10389   4.188   1.743   2.185
 3450SOL    HW110390   4.221   1.782   2.271
 3450SOL    HW210391   4.264   1.736   2.120
 3451SOL     OW10392   3.973   1.785   3.103
 3451SOL    HW110393   4.030   1.720   3.153
 3451SOL    HW210394   3.957   1.752   3.010
 3452SOL     OW10395   4.664   1.698   2.766
 3452SOL    HW110396   4.744   1.641   2.787
 3452SOL    HW210397   4.615   1.658   2.689
 3453SOL     OW10398   4.106   0.700   2.342
 3453SOL    HW110399   4.151   0.610   2.339
 3453SOL    HW210400   4.012   0.689   2.375
 3454SOL     OW10401   4.338   0.122   1.979
 3454SOL    HW110402   4.436   0.100   1.986
 3454SOL    HW210403   4.307   0.105   1.886
 3455SOL     OW10404   4.505   0.264   3.611
 3455SOL    HW110405   4.572   0.203   3.654
 3455SOL    HW210406   4.432   0.283   3.676
 3456SOL     OW10407   4.612   1.514   3.057
 3456SOL    HW110408   4.589   1.489   2.963
 3456SOL    HW210409   4.673   1.445   3.096
 3457SOL     OW10410   5.075   0.590   3.295
 3457SOL    HW110411   5.103   0.547   3.380
 3457SOL    HW210412   5.100   0.686   3.296
 3458SOL     OW10413   4.527   1.402   2.786
 3458SOL    HW110414   4.617   1.416   2.744
 3458SOL    HW210415   4.456   1.404   2.715
 3459SOL     OW10416   4.646   0.503   2.761
 3459SOL    HW110417   4.621   0.494   2.665
 3459SOL    HW210418   4.694   0.421   2.792
 3460SOL     OW10419   4.263   0.064   2.374
 3460SOL    HW110420   4.182   0.065   2.432
 3460SOL    HW210421   4.266   0.147   2.319
 3461SOL     OW10422   5.158   1.188   1.903
 3461SOL    HW110423   5.190   1.112   1.960
 3461SOL    HW210424   5.066   1.215   1.933
 3462SOL     OW10425   4.021   0.035   2.033
 3462SOL    HW110426   4.070   0.119   2.012
 3462SOL    HW210427   4.083  -0.030   2.078
 3463SOL     OW10428   4.659   0.236   2.342
 3463SOL    HW110429   4.611   0.277   2.264
 3463SOL    HW210430   4.758   0.234   2.323
 3464SOL     OW10431   4.800   0.683   3.326
 3464SOL    HW110432   4.720   0.622   3.329
 3464SOL    HW210433   4.881   0.630   3.302
 3465SOL     OW10434   4.951   1.570   2.655
 3465SOL    HW110435   4.972   1.644   2.590
 3465SOL    HW210436   5.019   1.570   2.728
 3466SOL     OW10437   4.183   1.152   2.603
 3466SOL    HW110438   4.112   1.125   2.668
 3466SOL    HW210439   4.157   1.124   2.510
 3467SOL     OW10440   4.995   1.797   2.453
 3467SOL    HW110441   5.039   1.861   2.389
 3467SOL    HW210442   4.945   1.849   2.523
 3468SOL     OW10443   4.756   0.549   1.878
 3468SOL    HW110444   4.715   0.631   1.839
 3468SOL    HW210445   4.820   0.575   1.951
 3469SOL     OW10446   3.802   0.556   3.248
 3469SOL    HW110447   3.894   0.555   3.207
 3469SOL    HW210448   3.796   0.630   3.315
 3470SOL     OW10449   4.285   0.222   3.009
 3470SOL    HW110450   4.323   0.138   3.046
 3470SOL    HW210451   4.197   0.241   3.053
 3471SOL     OW10452   4.590   0.454   2.504
 3471SOL    HW110453   4.558   0.526   2.442
 3471SOL    HW210454   4.614   0.373   2.451
 3472SOL     OW10455   4.741   0.039   2.615
 3472SOL    HW110456   4.669   0.044   2.546
 3472SOL    HW210457   4.717  -0.030   2.684
 3473SOL     OW10458   4.212   1.385   2.036
 3473SOL    HW110459   4.125   1.370   2.083
 3473SOL    HW210460   4.195   1.411   1.941
 3474SOL     OW10461   5.114   0.575   1.940
 3474SOL    HW110462   5.060   0.554   2.021
 3474SOL    HW210463   5.205   0.534   1.949
 3475SOL     OW10464   4.251   0.256   2.190
 3475SOL    HW110465   4.278   0.197   2.115
 3475SOL    HW210466   4.251   0.351   2.159
 3476SOL     OW10467   4.788   1.347   3.202
 3476SOL    HW110468   4.708   1.324   3.257
 3476SOL    HW210469   4.871   1.321   3.251
 3477SOL     OW10470   4.835   1.195   2.962
 3477SOL    HW110471   4.795   1.239   3.043
 3477SOL    HW210472   4.794   1.232   2.879
 3478SOL     OW10473   4.639   0.089   3.264
 3478SOL    HW110474   4.664   0.069   3.169
 3478SOL    HW210475   4.711   0.145   3.306
 3479SOL     OW10476   4.704   1.116   3.581
 3479SOL    HW110477   4.605   1.122   3.591
 3479SOL    HW210478   4.727   1.036   3.525
 3480SOL     OW10479   4.429   1.050   2.230
 3480SOL    HW110480   4.415   1.057   2.329
 3480SOL    HW210481   4.513   0.999   2.212
 3481SOL     OW10482   4.134   0.813   3.113
 3481SOL    HW110483   4.220   0.825   3.163
 3481SOL    HW210484   4.092   0.726   3.140
 3482SOL     OW10485   4.998   0.386   3.124
 3482SOL    HW110486   5.019   0.460   3.188
 3482SOL    HW210487   4.909   0.403   3.081
 3483SOL     OW10488   3.788   1.564   3.193
 3483SOL    HW110489   3.742   1.646   3.159
 3483SOL    HW210490   3.886   1.583   3.202
 3484SOL     OW10491   4.091   1.100   2.363
 3484SOL    HW110492   4.084   1.183   2.307
 3484SOL    HW210493   4.095   1.020   2.303
 3485SOL     OW10494   4.290   0.537   2.727
 3485SOL    HW110495   4.302   0.603   2.653
 3485SOL    HW210496   4.336   0.571   2.810
 3486SOL     OW10497   4.976   1.348   2.250
 3486SOL    HW110498   5.026   1.425   2.290
 3486SOL    HW210499   4.881   1.350   2.282
 3487SOL     OW10500   4.996   1.445   3.004
 3487SOL    HW110501   5.043   1.458   3.091
 3487SOL    HW210502   4.930   1.371   3.013
 3488SOL     OW10503   4.078   1.510   3.191
 3488SOL    HW110504   4.057   1.466   3.104
 3488SOL    HW210505   4.175   1.536   3.194
 3489SOL     OW10506   4.126   0.751   3.460
 3489SOL    HW110507   4.194   0.806   3.413
 3489SOL    HW210508   4.166   0.663   3.487
 3490SOL     OW10509   4.737   0.105   3.632
 3490SOL    HW110510   4.743   0.190   3.580
 3490SOL    HW210511   4.769   0.029   3.575
 3491SOL     OW10512   4.228   0.050   3.602
 3491SOL    HW110513   4.186  -0.007   3.532
 3491SOL    HW210514   4.162   0.119   3.634
 3492SOL     OW10515   4.297   0.870   2.891
 3492SOL    HW110516   4.341   0.959   2.882
 3492SOL    HW210517   4.234   0.870   2.968
 3493SOL     OW10518   5.084   0.862   2.907
 3493SOL    HW110519   5.009   0.862   2.841
 3493SOL    HW210520   5.121   0.770   2.916
 3494SOL     OW10521   4.933   0.525   2.137
 3494SOL    HW110522   4.946   0.441   2.191
 3494SOL    HW210523   4.904   0.599   2.197
 3495SOL     OW10524   4.031   0.213   3.093
 3495SOL    HW110525   4.008   0.250   3.183
 3495SOL    HW210526   4.001   0.118   3.087
 3496SOL     OW10527   3.761   1.310   3.144
 3496SOL    HW110528   3.814   1.261   3.212
 3496SOL    HW210529   3.783   1.408   3.149
 3497SOL     OW10530   4.456   0.634   2.926
 3497SOL    HW110531   4.515   0.608   2.850
 3497SOL    HW210532   4.428   0.730   2.915
 3498SOL     OW10533   4.031   0.063   2.480
 3498SOL    HW110534   4.020   0.157   2.513
 3498SOL    HW210535   4.026   0.000   2.557
 3499SOL     OW10536   5.346   0.367   2.236
 3499SOL    HW110537   5.348   0.291   2.300
 3499SOL    HW210538   5.298   0.444   2.276
 3500SOL     OW10539   4.747   0.766   2.828
 3500SOL    HW110540   4.762   0.787   2.924
 3500SOL    HW210541   4.717   0.671   2.819
 3501SOL     OW10542   4.704   1.573   3.562
 3501SOL    HW110543   4.684   1.617   3.474
 3501SOL    HW210544   4.743   1.482   3.546
 3502SOL     OW10545   4.074   0.898   3.666
 3502SOL    HW110546   4.150   0.942   3.714
 3502SOL    HW210547   4.109   0.851   3.584
 3503SOL     OW10548   5.027   0.838   1.904
 3503SOL    HW110549   5.061   0.745   1.919
 3503SOL    HW210550   5.045   0.865   1.809
 3504SOL     OW10551   4.792   1.333   2.711
 3504SOL    HW110552   4.799   1.249   2.656
 3504SOL    HW210553   4.854   1.402   2.675
 3505SOL     OW10554   4.043   0.810   2.811
 3505SOL    HW110555   4.136   0.846   2.816
 3505SOL    HW210556   4.037   0.725   2.863
 3506SOL     OW10557   4.063   0.509   2.868
 3506SOL    HW110558   4.011   0.426   2.851
 3506SOL    HW210559   4.140   0.514   2.804
 3507SOL     OW10560   4.862   0.380   3.540
 3507SOL    HW110561   4.817   0.443   3.604
 3507SOL    HW210562   4.955   0.411   3.523
 3508SOL     OW10563   4.884   0.207   3.339
 3508SOL    HW110564   4.884   0.271   3.416
 3508SOL    HW210565   4.912   0.255   3.256
 3509SOL     OW10566   3.732   1.326   2.062
 3509SOL    HW110567   3.639   1.347   2.031
 3509SOL    HW210568   3.742   1.227   2.075
 3510SOL     OW10569   3.812   1.801   2.789
 3510SOL    HW110570   3.770   1.715   2.762
 3510SOL    HW210571   3.906   1.804   2.755
 3511SOL     OW10572   4.228   1.568   2.772
 3511SOL    HW110573   4.294   1.642   2.781
 3511SOL    HW210574   4.272   1.489   2.730
 3512SOL     OW10575   4.726   0.796   3.100
 3512SOL    HW110576   4.767   0.764   3.186
 3512SOL    HW210577   4.630   0.769   3.097
 3513SOL     OW10578   3.764   0.544   2.976
 3513SOL    HW110579   3.849   0.511   2.935
 3513SOL    HW210580   3.777   0.559   3.074
 3514SOL     OW10581   3.913   0.520   3.584
 3514SOL    HW110582   3.972   0.480   3.514
 3514SOL    HW210583   3.855   0.591   3.543
 3515SOL     OW10584   4.539   0.572   2.187
 3515SOL    HW110585   4.546   0.483   2.141
 3515SOL    HW210586   4.445   0.606   2.179
 3516SOL     OW10587   3.976   1.564   3.606
 3516SOL    HW110588   3.946   1.621   3.682
 3516SOL    HW210589   3.969   1.467   3.632
 3517SOL     OW10590   4.395   0.464   3.131
 3517SOL    HW110591   4.361   0.375   3.101
 3517SOL    HW210592   4.421   0.518   3.051
 3518SOL     OW10593   4.654   1.678   3.327
 3518SOL    HW110594   4.630   1.660   3.232
 3518SOL    HW210595   4.684   1.772   3.337
 3519SOL     OW10596   4.197   0.500   2.053
 3519SOL    HW110597   4.258   0.580   2.057
 3519SOL    HW210598   4.102   0.531   2.060
 3520SOL     OW10599   3.883   1.137   3.328
 3520SOL    HW110600   3.905   1.076   3.404
 3520SOL    HW210601   3.893   1.088   3.242
 3521SOL     OW10602   5.071   1.059   3.096
 3521SOL    HW110603   5.095   0.996   3.022
 3521SOL    HW210604   4.981   1.099   3.078
 3522SOL     OW10605   5.026   0.855   2.171
 3522SOL    HW110606   4.940   0.824   2.213
 3522SOL    HW210607   5.022   0.841   2.072
 3523SOL     OW10608   4.976   1.731   2.990
 3523SOL    HW110609   5.060   1.736   2.936
 3523SOL    HW210610   4.953   1.635   3.008
 3524SOL     OW10611   3.807   1.258   2.884
 3524SOL    HW110612   3.802   1.257   2.984
 3524SOL    HW210613   3.724   1.217   2.846
 3525SOL     OW10614   4.412   1.662   3.578
 3525SOL    HW110615   4.356   1.743   3.587
 3525SOL    HW210616   4.464   1.666   3.492
 3526SOL     OW10617   5.112   1.573   2.339
 3526SOL    HW110618   5.179   1.585   2.265
 3526SOL    HW210619   5.072   1.662   2.362
 3527SOL     OW10620   3.854   1.794   3.713
 3527SOL    HW110621   3.813   1.720   3.766
 3527SOL    HW210622   3.918   1.845   3.771
 3528SOL     OW10623   5.004   0.927   2.534
 3528SOL    HW110624   5.064   0.846   2.536
 3528SOL    HW210625   5.044   0.996   2.474
 3529SOL     OW10626   4.554   1.273   3.284
 3529SOL    HW110627   4.549   1.306   3.379
 3529SOL    HW210628   4.468   1.292   3.238
 3530SOL     OW10629   4.396   1.616   2.016
 3530SOL    HW110630   4.405   1.626   1.917
 3530SOL    HW210631   4.356   1.527   2.037
 3531SOL     OW10632   3.987   0.326   2.582
 3531SOL    HW110633   3.908   0.377   2.548
 3531SOL    HW210634   3.978   0.311   2.680
 3532SOL     OW10635   4.918   1.612   1.893
 3532SOL    HW110636   4.924   1.519   1.930
 3532SOL    HW210637   4.859   1.612   1.813
 3533SOL     OW10638   4.546   1.002   3.234
 3533SOL    HW110639   4.586   1.001   3.142
 3533SOL    HW210640   4.556   1.094   3.274
 3534SOL     OW10641   4.640   0.910   2.153
 3534SOL    HW110642   4.703   0.948   2.085
 3534SOL    HW210643   4.680   0.827   2.192
 3535SOL     OW10644   4.096   1.288   3.352
 3535SOL    HW110645   4.083   1.381   3.318
 3535SOL    HW210646   4.012   1.236   3.339
 3536SOL     OW10647   4.763   1.098   2.558
 3536SOL    HW110648   4.693   1.051   2.612
 3536SOL    HW210649   4.822   1.030   2.515
 3537SOL     OW10650   4.738   0.236   2.833
 3537SOL    HW110651   4.730   0.200   2.740
 3537SOL    HW210652   4.736   0.160   2.898
 3538SOL     OW10653   4.314   1.487   2.353
 3538SOL    HW110654   4.356   1.429   2.283
 3538SOL    HW210655   4.270   1.566   2.309
 3539SOL     OW10656   3.979   1.348   2.152
 3539SOL    HW110657   3.883   1.349   2.125
 3539SOL    HW210658   3.991   1.401   2.236
 3540SOL     OW10659   3.829   1.013   3.588
 3540SOL    HW110660   3.752   0.980   3.642
 3540SOL    HW210661   3.914   0.983   3.630
 3541SOL     OW10662   4.396   0.203   3.351
 3541SOL    HW110663   4.486   0.187   3.311
 3541SOL    HW210664   4.404   0.208   3.450
 3542SOL     OW10665   3.799   0.345   1.895
 3542SOL    HW110666   3.707   0.317   1.866
 3542SOL    HW210667   3.830   0.422   1.839
 3543SOL     OW10668   5.164   0.856   3.260
 3543SOL    HW110669   5.107   0.908   3.197
 3543SOL    HW210670   5.260   0.868   3.236
 3544SOL     OW10671   3.796   0.166   2.180
 3544SOL    HW110672   3.779   0.249   2.126
 3544SOL    HW210673   3.886   0.129   2.158
 3545SOL     OW10674   4.907   1.335   1.981
 3545SOL    HW110675   4.808   1.324   1.983
 3545SOL    HW210676   4.941   1.350   2.074
 3546SOL     OW10677   4.337   0.842   3.293
 3546SOL    HW110678   4.393   0.923   3.276
 3546SOL    HW210679   4.396   0.762   3.296
 3547SOL     OW10680   4.440   0.565   3.570
 3547SOL    HW110681   4.459   0.630   3.644
 3547SOL    HW210682   4.500   0.485   3.579
 3548SOL     OW10683   5.174   1.220   3.495
 3548SOL    HW110684   5.165   1.210   3.594
 3548SOL    HW210685   5.270   1.213   3.469
 3549SOL     OW10686   4.114   1.741   3.422
 3549SOL    HW110687   4.023   1.782   3.420
 3549SOL    HW210688   4.107   1.647   3.454
 3550SOL     OW10689   4.949   0.325   2.311
 3550SOL    HW110690   5.014   0.251   2.300
 3550SOL    HW210691   4.969   0.375   2.395
 3551SOL     OW10692   4.318   0.745   2.514
 3551SOL    HW110693   4.368   0.830   2.495
 3551SOL    HW210694   4.230   0.747   2.466
 3552SOL     OW10695   4.583   1.374   1.878
 3552SOL    HW110696   4.537   1.389   1.966
 3552SOL    HW210697   4.627   1.459   1.848
 3553SOL     OW10698   4.385   1.790   2.815
 3553SOL    HW110699   4.339   1.878   2.802
 3553SOL    HW210700   4.484   1.802   2.808
 3554SOL     OW10701   4.583   0.956   2.723
 3554SOL    HW110702   4.637   0.887   2.771
 3554SOL    HW210703   4.551   1.025   2.789
 3555SOL     OW10704   4.807   0.984   1.949
 3555SOL    HW110705   4.784   1.037   1.867
 3555SOL    HW210706   4.888   0.928   1.930
 3556SOL     OW10707   3.945   1.314   3.706
 3556SOL    HW110708   3.880   1.241   3.685
 3556SOL    HW210709   3.949   1.328   3.804
 3557SOL     OW10710   3.803   1.240   2.515
 3557SOL    HW110711   3.802   1.193   2.603
 3557SOL    HW210712   3.885   1.212   2.464
 3558SOL     OW10713   4.396   1.391   3.486
 3558SOL    HW110714   4.318   1.341   3.524
 3558SOL    HW210715   4.393   1.486   3.517
 3559SOL     OW10716   4.152   0.424   2.382
 3559SOL    HW110717   4.182   0.352   2.320
 3559SOL    HW210718   4.113   0.384   2.465
 3560SOL     OW10719   4.041   0.547   3.142
 3560SOL    HW110720   4.079   0.488   3.214
 3560SOL    HW210721   4.081   0.521   3.054
 3561SOL     OW10722   4.536   1.586   2.549
 3561SOL    HW110723   4.568   1.596   2.455
 3561SOL    HW210724   4.457   1.524   2.551
 3562SOL     OW10725   5.148   0.214   2.974
 3562SOL    HW110726   5.200   0.149   3.029
 3562SOL    HW210727   5.099   0.277   3.035
 3563SOL     OW10728   4.725   0.034   3.016
 3563SOL    HW110729   4.662  -0.038   2.985
 3563SOL    HW210730   4.818  -0.002   3.016
 3564SOL     OW10731   4.494   1.330   2.163
 3564SOL    HW110732   4.448   1.243   2.180
 3564SOL    HW210733   4.585   1.327   2.204
 3565SOL     OW10734   4.342   1.567   3.146
 3565SOL    HW110735   4.337   1.649   3.203
 3565SOL    HW210736   4.431   1.564   3.101
 3566SOL     OW10737   5.076   0.052   2.030
 3566SOL    HW110738   5.111   0.011   1.946
 3566SOL    HW210739   4.986   0.014   2.050
 3567SOL     OW10740   3.763   1.077   2.162
 3567SOL    HW110741   3.862   1.066   2.153
 3567SOL    HW210742   3.723   0.991   2.194
 3568SOL     OW10743   4.599   1.646   2.199
 3568SOL    HW110744   4.522   1.611   2.145
 3568SOL    HW210745   4.567   1.717   2.261
 3569SOL     OW10746   3.954   0.628   3.837
 3569SOL    HW110747   3.861   0.626   3.874
 3569SOL    HW210748   3.955   0.589   3.745
 3570SOL     OW10749   3.949   0.275   4.720
 3570SOL    HW110750   3.984   0.258   4.812
 3570SOL    HW210751   3.861   0.230   4.708
 3571SOL     OW10752   3.743   0.368   4.371
 3571SOL    HW110753   3.661   0.411   4.410
 3571SOL    HW210754   3.715   0.295   4.308
 3572SOL     OW10755   4.293   1.275   4.889
 3572SOL    HW110756   4.200   1.268   4.852
 3572SOL    HW210757   4.304   1.364   4.933
 3573SOL     OW10758   5.279   1.511   4.427
 3573SOL    HW110759   5.222   1.495   4.508
 3573SOL    HW210760   5.220   1.521   4.347
 3574SOL     OW10761   4.859   0.703   4.441
 3574SOL    HW110762   4.916   0.781   4.416
 3574SOL    HW210763   4.799   0.729   4.517
 3575SOL     OW10764   4.492   1.144   4.747
 3575SOL    HW110765   4.414   1.161   4.807
 3575SOL    HW210766   4.526   1.231   4.711
 3576SOL     OW10767   4.409   1.012   4.389
 3576SOL    HW110768   4.478   0.996   4.459
 3576SOL    HW210769   4.336   1.069   4.427
 3577SOL     OW10770   4.059   1.435   4.785
 3577SOL    HW110771   3.981   1.404   4.732
 3577SOL    HW210772   4.117   1.493   4.728
 3578SOL     OW10773   4.162   0.392   5.223
 3578SOL    HW110774   4.244   0.336   5.232
 3578SOL    HW210775   4.081   0.334   5.227
 3579SOL     OW10776   3.955   1.713   4.207
 3579SOL    HW110777   3.989   1.790   4.261
 3579SOL    HW210778   3.999   1.713   4.117
 3580SOL     OW10779   3.954   1.434   4.262
 3580SOL    HW110780   3.928   1.530   4.262
 3580SOL    HW210781   3.883   1.380   4.307
 3581SOL     OW10782   3.964   1.091   4.610
 3581SOL    HW110783   3.978   1.007   4.662
 3581SOL    HW210784   3.909   1.155   4.665
 3582SOL     OW10785   4.344   1.786   5.163
 3582SOL    HW110786   4.252   1.769   5.198
 3582SOL    HW210787   4.372   1.878   5.189
 3583SOL     OW10788   4.330   0.964   3.847
 3583SOL    HW110789   4.337   1.048   3.793
 3583SOL    HW210790   4.376   0.977   3.935
 3584SOL     OW10791   3.846   0.643   4.287
 3584SOL    HW110792   3.801   0.555   4.304
 3584SOL    HW210793   3.845   0.697   4.371
 3585SOL     OW10794   3.751   1.596   3.841
 3585SOL    HW110795   3.732   1.500   3.862
 3585SOL    HW210796   3.718   1.654   3.916
 3586SOL     OW10797   5.413   0.922   4.336
 3586SOL    HW110798   5.508   0.893   4.344
 3586SOL    HW210799   5.405   0.987   4.261
 3587SOL     OW10800   4.337   1.365   4.450
 3587SOL    HW110801   4.288   1.278   4.459
 3587SOL    HW210802   4.314   1.408   4.363
 3588SOL     OW10803   4.533   0.004   4.226
 3588SOL    HW110804   4.573   0.095   4.217
 3588SOL    HW210805   4.433   0.012   4.232
 3589SOL     OW10806   3.921   0.976   4.988
 3589SOL    HW110807   4.010   0.931   4.974
 3589SOL    HW210808   3.848   0.911   4.969
 3590SOL     OW10809   4.322   0.729   3.994
 3590SOL    HW110810   4.346   0.798   3.926
 3590SOL    HW210811   4.244   0.762   4.048
 3591SOL     OW10812   5.005   0.345   4.668
 3591SOL    HW110813   4.919   0.295   4.655
 3591SOL    HW210814   5.067   0.291   4.724
 3592SOL     OW10815   4.531   0.605   5.189
 3592SOL    HW110816   4.484   0.602   5.278
 3592SOL    HW210817   4.480   0.550   5.123
 3593SOL     OW10818   4.715   0.410   4.966
 3593SOL    HW110819   4.638   0.444   5.020
 3593SOL    HW210820   4.681   0.359   4.887
 3594SOL     OW10821   4.765   0.701   4.153
 3594SOL    HW110822   4.791   0.697   4.249
 3594SOL    HW210823   4.680   0.650   4.139
 3595SOL     OW10824   3.800   0.811   4.513
 3595SOL    HW110825   3.899   0.799   4.522
 3595SOL    HW210826   3.776   0.906   4.534
 3596SOL     OW10827   3.854   1.821   5.295
 3596SOL    HW110828   3.844   1.806   5.394
 3596SOL    HW210829   3.768   1.857   5.259
 3597SOL     OW10830   4.589   0.348   3.919
 3597SOL    HW110831   4.648   0.411   3.870
 3597SOL    HW210832   4.608   0.254   3.890
 3598SOL     OW10833   5.086   1.144   4.269
 3598SOL    HW110834   5.169   1.115   4.221
 3598SOL    HW210835   5.037   1.211   4.213
 3599SOL     OW10836   4.274   0.196   4.609
 3599SOL    HW110837   4.269   0.191   4.709
 3599SOL    HW210838   4.276   0.292   4.580
 3600SOL     OW10839   4.732   1.456   4.201
 3600SOL    HW110840   4.686   1.528   4.149
 3600SOL    HW210841   4.728   1.476   4.299
 3601SOL     OW10842   4.075   1.801   4.577
 3601SOL    HW110843   4.125   1.715   4.583
 3601SOL    HW210844   4.140   1.878   4.574
 3602SOL     OW10845   4.045   0.943   3.966
 3602SOL    HW110846   4.127   0.982   3.924
 3602SOL    HW210847   4.018   0.861   3.917
 3603SOL     OW10848   4.835   1.776   3.961
 3603SOL    HW110849   4.775   1.714   4.011
 3603SOL    HW210850   4.866   1.732   3.876
 3604SOL     OW10851   4.188   1.743   4.047
 3604SOL    HW110852   4.221   1.782   4.133
 3604SOL    HW210853   4.264   1.736   3.982
 3605SOL     OW10854   3.973   1.785   4.965
 3605SOL    HW110855   4.030   1.720   5.015
 3605SOL    HW210856   3.957   1.752   4.872
 3606SOL     OW10857   4.664   1.698   4.628
 3606SOL    HW110858   4.744   1.641   4.649
 3606SOL    HW210859   4.615   1.658   4.551
 3607SOL     OW10860   4.106   0.700   4.204
 3607SOL    HW110861   4.151   0.610   4.201
 3607SOL    HW210862   4.012   0.689   4.237
 3608SOL     OW10863   4.338   0.122   3.841
 3608SOL    HW110864   4.436   0.100   3.848
 3608SOL    HW210865   4.307   0.105   3.748
 3609SOL     OW10866   4.612   1.514   4.919
 3609SOL    HW110867   4.589   1.489   4.825
 3609SOL    HW210868   4.673   1.445   4.958
 3610SOL     OW10869   4.527   1.402   4.648
 3610SOL    HW110870   4.617   1.416   4.606
 3610SOL    HW210871   4.456   1.404   4.577
 3611SOL     OW10872   4.646   0.503   4.623
 3611SOL    HW110873   4.621   0.494   4.527
 3611SOL    HW210874   4.694   0.421   4.654
 3612SOL     OW10875   4.263   0.064   4.236
 3612SOL    HW110876   4.182   0.065   4.294
 3612SOL    HW210877   4.266   0.147   4.181
 3613SOL     OW10878   5.158   1.188   3.765
 3613SOL    HW110879   5.190   1.112   3.822
 3613SOL    HW210880   5.066   1.215   3.795
 3614SOL     OW10881   4.021   0.035   3.895
 3614SOL    HW110882   4.070   0.119   3.874
 3614SOL    HW210883   4.083  -0.030   3.940
 3615SOL     OW10884   4.659   0.236   4.204
 3615SOL    HW110885   4.611   0.277   4.126
 3615SOL    HW210886   4.758   0.234   4.185
 3616SOL     OW10887   4.951   1.570   4.517
 3616SOL    HW110888   4.972   1.644   4.452
 3616SOL    HW210889   5.019   1.570   4.590
 3617SOL     OW10890   4.183   1.152   4.465
 3617SOL    HW110891   4.112   1.125   4.530
 3617SOL    HW210892   4.157   1.124   4.372
 3618SOL     OW10893   4.995   1.797   4.315
 3618SOL    HW110894   5.039   1.861   4.251
 3618SOL    HW210895   4.945   1.849   4.385
 3619SOL     OW10896   4.756   0.549   3.740
 3619SOL    HW110897   4.715   0.631   3.701
 3619SOL    HW210898   4.820   0.575   3.813
 3620SOL     OW10899   4.285   0.222   4.871
 3620SOL    HW110900   4.323   0.138   4.908
 3620SOL    HW210901   4.197   0.241   4.915
 3621SOL     OW10902   4.590   0.454   4.366
 3621SOL    HW110903   4.558   0.526   4.304
 3621SOL    HW210904   4.614   0.373   4.313
 3622SOL     OW10905   4.741   0.039   4.477
 3622SOL    HW110906   4.669   0.044   4.408
 3622SOL    HW210907   4.717  -0.030   4.546
 3623SOL     OW10908   4.212   1.385   3.898
 3623SOL    HW110909   4.125   1.370   3.945
 3623SOL    HW210910   4.195   1.411   3.803
 3624SOL     OW10911   5.114   0.575   3.802
 3624SOL    HW110912   5.060   0.554   3.883
 3624SOL    HW210913   5.205   0.534   3.811
 3625SOL     OW10914   4.251   0.256   4.052
 3625SOL    HW110915   4.278   0.197   3.977
 3625SOL    HW210916   4.251   0.351   4.021
 3626SOL     OW10917   4.835   1.195   4.824
 3626SOL    HW110918   4.795   1.239   4.905
 3626SOL    HW210919   4.794   1.232   4.741
 3627SOL     OW10920   4.429   1.050   4.092
 3627SOL    HW110921   4.415   1.057   4.191
 3627SOL    HW210922   4.513   0.999   4.074
 3628SOL     OW10923   4.134   0.813   4.975
 3628SOL    HW110924   4.220   0.825   5.025
 3628SOL    HW210925   4.092   0.726   5.002
 3629SOL     OW10926   4.998   0.386   4.986
 3629SOL    HW110927   5.019   0.460   5.050
 3629SOL    HW210928   4.909   0.403   4.943
 3630SOL     OW10929   3.788   1.564   5.055
 3630SOL    HW110930   3.742   1.646   5.021
 3630SOL    HW210931   3.886   1.583   5.064
 3631SOL     OW10932   4.091   1.100   4.225
 3631SOL    HW110933   4.084   1.183   4.169
 3631SOL    HW210934   4.095   1.020   4.165
 3632SOL     OW10935   4.290   0.537   4.589
 3632SOL    HW110936   4.302   0.603   4.515
 3632SOL    HW210937   4.336   0.571   4.672
 3633SOL     OW10938   4.976   1.348   4.112
 3633SOL    HW110939   5.026   1.425   4.152
 3633SOL    HW210940   4.881   1.350   4.144
 3634SOL     OW10941   4.996   1.445   4.866
 3634SOL    HW110942   5.043   1.458   4.953
 3634SOL    HW210943   4.930   1.371   4.875
 3635SOL     OW10944   4.078   1.510   5.053
 3635SOL    HW110945   4.057   1.466   4.966
 3635SOL    HW210946   4.175   1.536   5.056
 3636SOL     OW10947   4.297   0.870   4.753
 3636SOL    HW110948   4.341   0.959   4.744
 3636SOL    HW210949   4.234   0.870   4.830
 3637SOL     OW10950   5.084   0.862   4.769
 3637SOL    HW110951   5.009   0.862   4.703
 3637SOL    HW210952   5.121   0.770   4.778
 3638SOL     OW10953   4.933   0.525   3.999
 3638SOL    HW110954   4.946   0.441   4.053
 3638SOL    HW210955   4.904   0.599   4.059
 3639SOL     OW10956   4.031   0.213   4.955
 3639SOL    HW110957   4.008   0.250   5.045
 3639SOL    HW210958   4.001   0.118   4.949
 3640SOL     OW10959   3.761   1.310   5.006
 3640SOL    HW110960   3.814   1.261   5.074
 3640SOL    HW210961   3.783   1.408   5.011
 3641SOL     OW10962   4.456   0.634   4.788
 3641SOL    HW110963   4.515   0.608   4.712
 3641SOL    HW210964   4.428   0.730   4.777
 3642SOL     OW10965   4.031   0.063   4.342
 3642SOL    HW110966   4.020   0.157   4.375
 3642SOL    HW210967   4.026   0.000   4.419
 3643SOL     OW10968   5.346   0.367   4.098
 3643SOL    HW110969   5.348   0.291   4.162
 3643SOL    HW210970   5.298   0.444   4.138
 3644SOL     OW10971   4.747   0.766   4.690
 3644SOL    HW110972   4.762   0.787   4.786
 3644SOL    HW210973   4.717   0.671   4.681
 3645SOL     OW10974   5.027   0.838   3.766
 3645SOL    HW110975   5.061   0.745   3.781
 3645SOL    HW210976   5.045   0.865   3.671
 3646SOL     OW10977   4.792   1.333   4.573
 3646SOL    HW110978   4.799   1.249   4.518
 3646SOL    HW210979   4.854   1.402   4.537
 3647SOL     OW10980   4.043   0.810   4.673
 3647SOL    HW110981   4.136   0.846   4.678
 3647SOL    HW210982   4.037   0.725   4.725
 3648SOL     OW10983   4.063   0.509   4.730
 3648SOL    HW110984   4.011   0.426   4.713
 3648SOL    HW210985   4.140   0.514   4.666
 3649SOL     OW10986   4.884   0.207   5.201
 3649SOL    HW110987   4.884   0.271   5.278
 3649SOL    HW210988   4.912   0.255   5.118
 3650SOL     OW10989   3.732   1.326   3.924
 3650SOL    HW110990   3.639   1.347   3.893
 3650SOL    HW210991   3.742   1.227   3.937
 3651SOL     OW10992   3.812   1.801   4.651
 3651SOL    HW110993   3.770   1.715   4.624
 3651SOL    HW210994   3.906   1.804   4.617
 3652SOL     OW10995   4.228   1.568   4.634
 3652SOL    HW110996   4.294   1.642   4.643
 3652SOL    HW210997   4.272   1.489   4.592
 3653SOL     OW10998   4.726   0.796   4.962
 3653SOL    HW110999   4.767   0.764   5.048
 3653SOL    HW211000   4.630   0.769   4.959
 3654SOL     OW11001   3.764   0.544   4.838
 3654SOL    HW111002   3.849   0.511   4.797
 3654SOL    HW211003   3.777   0.559   4.936
 3655SOL     OW11004   4.539   0.572   4.049
 3655SOL    HW111005   4.546   0.483   4.003
 3655SOL    HW211006   4.445   0.606   4.041
 3656SOL     OW11007   4.395   0.464   4.993
 3656SOL    HW111008   4.361   0.375   4.963
 3656SOL    HW211009   4.421   0.518   4.913
 3657SOL     OW11010   4.654   1.678   5.189
 3657SOL    HW111011   4.630   1.660   5.094
 3657SOL    HW211012   4.684   1.772   5.199
 3658SOL     OW11013   4.197   0.500   3.915
 3658SOL    HW111014   4.258   0.580   3.919
 3658SOL    HW211015   4.102   0.531   3.922
 3659SOL     OW11016   3.883   1.137   5.190
 3659SOL    HW111017   3.905   1.076   5.266
 3659SOL    HW211018   3.893   1.088   5.104
 3660SOL     OW11019   5.071   1.059   4.958
 3660SOL    HW111020   5.095   0.996   4.884
 3660SOL    HW211021   4.981   1.099   4.940
 3661SOL     OW11022   5.026   0.855   4.033
 3661SOL    HW111023   4.940   0.824   4.075
 3661SOL    HW211024   5.022   0.841   3.934
 3662SOL     OW11025   4.976   1.731   4.852
 3662SOL    HW111026   5.060   1.736   4.798
 3662SOL    HW211027   4.953   1.635   4.870
 3663SOL     OW11028   3.807   1.258   4.746
 3663SOL    HW111029   3.802   1.257   4.846
 3663SOL    HW211030   3.724   1.217   4.708
 3664SOL     OW11031   5.112   1.573   4.201
 3664SOL    HW111032   5.179   1.585   4.127
 3664SOL    HW211033   5.072   1.662   4.224
 3665SOL     OW11034   5.004   0.927   4.396
 3665SOL    HW111035   5.064   0.846   4.398
 3665SOL    HW211036   5.044   0.996   4.336
 3666SOL     OW11037   4.396   1.616   3.878
 3666SOL    HW111038   4.405   1.626   3.779
 3666SOL    HW211039   4.356   1.527   3.899
 3667SOL     OW11040   3.987   0.326   4.444
 3667SOL    HW111041   3.908   0.377   4.410
 3667SOL    HW211042   3.978   0.311   4.542
 3668SOL     OW11043   4.918   1.612   3.755
 3668SOL    HW111044   4.924   1.519   3.792
 3668SOL    HW211045   4.859   1.612   3.675
 3669SOL     OW11046   4.546   1.002   5.096
 3669SOL    HW111047   4.586   1.001   5.004
 3669SOL    HW211048   4.556   1.094   5.136
 3670SOL     OW11049   4.640   0.910   4.015
 3670SOL    HW111050   4.703   0.948   3.947
 3670SOL    HW211051   4.680   0.827   4.054
 3671SOL     OW11052   4.096   1.288   5.214
 3671SOL    HW111053   4.083   1.381   5.180
 3671SOL    HW211054   4.012   1.236   5.201
 3672SOL     OW11055   4.763   1.098   4.420
 3672SOL    HW111056   4.693   1.051   4.474
 3672SOL    HW211057   4.822   1.030   4.377
 3673SOL     OW11058   4.738   0.236   4.695
 3673SOL    HW111059   4.730   0.200   4.602
 3673SOL    HW211060   4.736   0.160   4.760
 3674SOL     OW11061   4.314   1.487   4.215
 3674SOL    HW111062   4.356   1.429   4.145
 3674SOL    HW211063   4.270   1.566   4.171
 3675SOL     OW11064   3.979   1.348   4.014
 3675SOL    HW111065   3.883   1.349   3.987
 3675SOL    HW211066   3.991   1.401   4.098
 3676SOL     OW11067   3.799   0.345   3.757
 3676SOL    HW111068   3.707   0.317   3.728
 3676SOL    HW211069   3.830   0.422   3.701
 3677SOL     OW11070   3.796   0.166   4.042
 3677SOL    HW111071   3.779   0.249   3.988
 3677SOL    HW211072   3.886   0.129   4.020
 3678SOL     OW11073   4.907   1.335   3.843
 3678SOL    HW111074   4.808   1.324   3.845
 3678SOL    HW211075   4.941   1.350   3.936
 3679SOL     OW11076   4.337   0.842   5.155
 3679SOL    HW111077   4.393   0.923   5.138
 3679SOL    HW211078   4.396   0.762   5.158
 3680SOL     OW11079   4.114   1.741   5.284
 3680SOL    HW111080   4.023   1.782   5.282
 3680SOL    HW211081   4.107   1.647   5.316
 3681SOL     OW11082   4.949   0.325   4.173
 3681SOL    HW111083   5.014   0.251   4.162
 3681SOL    HW211084   4.969   0.375   4.257
 3682SOL     OW11085   4.318   0.745   4.376
 3682SOL    HW111086   4.368   0.830   4.357
 3682SOL    HW211087   4.230   0.747   4.328
 3683SOL     OW11088   4.583   1.374   3.740
 3683SOL    HW111089   4.537   1.389   3.828
 3683SOL    HW211090   4.627   1.459   3.710
 3684SOL     OW11091   4.385   1.790   4.677
 3684SOL    HW111092   4.339   1.878   4.664
 3684SOL    HW211093   4.484   1.802   4.670
 3685SOL     OW11094   4.583   0.956   4.585
 3685SOL    HW111095   4.637   0.887   4.633
 3685SOL    HW211096   4.551   1.025   4.651
 3686SOL     OW11097   4.807   0.984   3.811
 3686SOL    HW111098   4.784   1.037   3.729
 3686SOL    HW211099   4.888   0.928   3.792
 3687SOL     OW11100   3.803   1.240   4.377
 3687SOL    HW111101   3.802   1.193   4.465
 3687SOL    HW211102   3.885   1.212   4.326
 3688SOL     OW11103   4.152   0.424   4.244
 3688SOL    HW111104   4.182   0.352   4.182
 3688SOL    HW211105   4.113   0.384   4.327
 3689SOL     OW11106   4.041   0.547   5.004
 3689SOL    HW111107   4.079   0.488   5.076
 3689SOL    HW211108   4.081   0.521   4.916
 3690SOL     OW11109   4.536   1.586   4.411
 3690SOL    HW111110   4.568   1.596   4.317
 3690SOL    HW211111   4.457   1.524   4.413
 3691SOL     OW11112   5.148   0.214   4.836
 3691SOL    HW111113   5.200   0.149   4.891
 3691SOL    HW211114   5.099   0.277   4.897
 3692SOL     OW11115   4.725   0.034   4.878
 3692SOL    HW111116   4.662  -0.038   4.847
 3692SOL    HW211117   4.818  -0.002   4.878
 3693SOL     OW11118   4.494   1.330   4.025
 3693SOL    HW111119   4.448   1.243   4.042
 3693SOL    HW211120   4.585   1.327   4.066
 3694SOL     OW11121   4.342   1.567   5.008
 3694SOL    HW111122   4.337   1.649   5.065
 3694SOL    HW211123   4.431   1.564   4.963
 3695SOL     OW11124   5.076   0.052   3.892
 3695SOL    HW111125   5.111   0.011   3.808
 3695SOL    HW211126   4.986   0.014   3.912
 3696SOL     OW11127   3.763   1.077   4.024
 3696SOL    HW111128   3.862   1.066   4.015
 3696SOL    HW211129   3.723   0.991   4.056
 3697SOL     OW11130   4.599   1.646   4.061
 3697SOL    HW111131   4.522   1.611   4.007
 3697SOL    HW211132   4.567   1.717   4.123
 3698SOL     OW11133   3.954   2.490   0.113
 3698SOL    HW111134   3.861   2.488   0.150
 3698SOL    HW211135   3.955   2.451   0.021
 3699SOL     OW11136   3.949   2.137   0.996
 3699SOL    HW111137   3.984   2.120   1.088
 3699SOL    HW211138   3.861   2.092   0.984
 3700SOL     OW11139   3.743   2.230   0.647
 3700SOL    HW111140   3.661   2.273   0.686
 3700SOL    HW211141   3.715   2.157   0.584
 3701SOL     OW11142   4.293   3.137   1.165
 3701SOL    HW111143   4.200   3.130   1.128
 3701SOL    HW211144   4.304   3.226   1.209
 3702SOL     OW11145   5.279   3.373   0.703
 3702SOL    HW111146   5.222   3.357   0.784
 3702SOL    HW211147   5.220   3.383   0.623
 3703SOL     OW11148   4.859   2.565   0.717
 3703SOL    HW111149   4.916   2.643   0.692
 3703SOL    HW211150   4.799   2.591   0.793
 3704SOL     OW11151   4.492   3.006   1.023
 3704SOL    HW111152   4.414   3.023   1.083
 3704SOL    HW211153   4.526   3.093   0.987
 3705SOL     OW11154   4.574   2.660   1.823
 3705SOL    HW111155   4.570   2.736   1.888
 3705SOL    HW211156   4.596   2.696   1.732
 3706SOL     OW11157   4.409   2.874   0.665
 3706SOL    HW111158   4.478   2.858   0.735
 3706SOL    HW211159   4.336   2.931   0.703
 3707SOL     OW11160   4.410   3.023   1.803
 3707SOL    HW111161   4.470   3.102   1.817
 3707SOL    HW211162   4.324   3.054   1.762
 3708SOL     OW11163   4.059   3.297   1.061
 3708SOL    HW111164   3.981   3.266   1.008
 3708SOL    HW211165   4.117   3.355   1.004
 3709SOL     OW11166   4.162   2.254   1.499
 3709SOL    HW111167   4.244   2.198   1.508
 3709SOL    HW211168   4.081   2.196   1.503
 3710SOL     OW11169   3.955   3.575   0.483
 3710SOL    HW111170   3.989   3.652   0.537
 3710SOL    HW211171   3.999   3.575   0.393
 3711SOL     OW11172   4.851   3.203   1.690
 3711SOL    HW111173   4.898   3.203   1.778
 3711SOL    HW211174   4.803   3.116   1.679
 3712SOL     OW11175   3.954   3.296   0.538
 3712SOL    HW111176   3.928   3.392   0.538
 3712SOL    HW211177   3.883   3.242   0.583
 3713SOL     OW11178   3.964   2.953   0.886
 3713SOL    HW111179   3.978   2.869   0.938
 3713SOL    HW211180   3.909   3.017   0.941
 3714SOL     OW11181   4.344   3.648   1.439
 3714SOL    HW111182   4.252   3.631   1.474
 3714SOL    HW211183   4.372   3.740   1.465
 3715SOL     OW11184   4.330   2.826   0.123
 3715SOL    HW111185   4.337   2.910   0.069
 3715SOL    HW211186   4.376   2.839   0.211
 3716SOL     OW11187   3.846   2.505   0.563
 3716SOL    HW111188   3.801   2.417   0.580
 3716SOL    HW211189   3.845   2.559   0.647
 3717SOL     OW11190   3.751   3.458   0.117
 3717SOL    HW111191   3.732   3.362   0.138
 3717SOL    HW211192   3.718   3.516   0.192
 3718SOL     OW11193   5.413   2.784   0.612
 3718SOL    HW111194   5.508   2.755   0.620
 3718SOL    HW211195   5.405   2.849   0.537
 3719SOL     OW11196   3.837   2.599   1.597
 3719SOL    HW111197   3.925   2.586   1.642
 3719SOL    HW211198   3.824   2.696   1.575
 3720SOL     OW11199   4.337   3.227   0.726
 3720SOL    HW111200   4.288   3.140   0.735
 3720SOL    HW211201   4.314   3.270   0.639
 3721SOL     OW11202   5.017   3.090   1.423
 3721SOL    HW111203   5.054   3.017   1.365
 3721SOL    HW211204   5.069   3.095   1.508
 3722SOL     OW11205   4.533   1.866   0.502
 3722SOL    HW111206   4.573   1.957   0.493
 3722SOL    HW211207   4.433   1.874   0.508
 3723SOL     OW11208   3.921   2.838   1.264
 3723SOL    HW111209   4.010   2.793   1.250
 3723SOL    HW211210   3.848   2.773   1.245
 3724SOL     OW11211   4.911   3.654   1.616
 3724SOL    HW111212   4.935   3.714   1.540
 3724SOL    HW211213   4.918   3.559   1.586
 3725SOL     OW11214   4.041   2.113   1.801
 3725SOL    HW111215   4.112   2.184   1.807
 3725SOL    HW211216   3.953   2.152   1.829
 3726SOL     OW11217   4.322   2.591   0.270
 3726SOL    HW111218   4.346   2.660   0.202
 3726SOL    HW211219   4.244   2.624   0.324
 3727SOL     OW11220   5.005   2.207   0.944
 3727SOL    HW111221   4.919   2.157   0.931
 3727SOL    HW211222   5.067   2.153   1.000
 3728SOL     OW11223   4.531   2.467   1.465
 3728SOL    HW111224   4.484   2.464   1.554
 3728SOL    HW211225   4.480   2.412   1.399
 3729SOL     OW11226   5.118   2.331   1.674
 3729SOL    HW111227   5.098   2.374   1.762
 3729SOL    HW211228   5.196   2.269   1.683
 3730SOL     OW11229   4.697   2.752   1.572
 3730SOL    HW111230   4.743   2.668   1.543
 3730SOL    HW211231   4.641   2.786   1.497
 3731SOL     OW11232   4.715   2.272   1.242
 3731SOL    HW111233   4.638   2.306   1.296
 3731SOL    HW211234   4.681   2.221   1.163
 3732SOL     OW11235   4.765   2.563   0.429
 3732SOL    HW111236   4.791   2.559   0.525
 3732SOL    HW211237   4.680   2.512   0.415
 3733SOL     OW11238   3.800   2.673   0.789
 3733SOL    HW111239   3.899   2.661   0.798
 3733SOL    HW211240   3.776   2.768   0.810
 3734SOL     OW11241   3.854   3.683   1.571
 3734SOL    HW111242   3.844   3.668   1.670
 3734SOL    HW211243   3.768   3.719   1.535
 3735SOL     OW11244   4.589   2.210   0.195
 3735SOL    HW111245   4.648   2.273   0.146
 3735SOL    HW211246   4.608   2.116   0.166
 3736SOL     OW11247   5.086   3.006   0.545
 3736SOL    HW111248   5.169   2.977   0.497
 3736SOL    HW211249   5.037   3.073   0.489
 3737SOL     OW11250   4.274   2.058   0.885
 3737SOL    HW111251   4.269   2.053   0.985
 3737SOL    HW211252   4.276   2.154   0.856
 3738SOL     OW11253   4.732   3.318   0.477
 3738SOL    HW111254   4.686   3.390   0.425
 3738SOL    HW211255   4.728   3.338   0.575
 3739SOL     OW11256   4.075   3.663   0.853
 3739SOL    HW111257   4.125   3.577   0.859
 3739SOL    HW211258   4.140   3.740   0.850
 3740SOL     OW11259   4.951   3.412   1.506
 3740SOL    HW111260   4.957   3.335   1.570
 3740SOL    HW211261   4.899   3.386   1.426
 3741SOL     OW11262   4.045   2.805   0.242
 3741SOL    HW111263   4.127   2.844   0.200
 3741SOL    HW211264   4.018   2.723   0.193
 3742SOL     OW11265   4.185   3.128   1.727
 3742SOL    HW111266   4.135   3.129   1.641
 3742SOL    HW211267   4.122   3.110   1.803
 3743SOL     OW11268   4.835   3.638   0.237
 3743SOL    HW111269   4.775   3.576   0.287
 3743SOL    HW211270   4.866   3.594   0.152
 3744SOL     OW11271   3.926   2.147   1.498
 3744SOL    HW111272   3.846   2.207   1.485
 3744SOL    HW211273   3.916   2.098   1.584
 3745SOL     OW11274   5.356   3.239   0.081
 3745SOL    HW111275   5.324   3.333   0.071
 3745SOL    HW211276   5.280   3.176   0.069
 3746SOL     OW11277   4.188   3.605   0.323
 3746SOL    HW111278   4.221   3.644   0.409
 3746SOL    HW211279   4.264   3.598   0.258
 3747SOL     OW11280   3.973   3.647   1.241
 3747SOL    HW111281   4.030   3.582   1.291
 3747SOL    HW211282   3.957   3.614   1.148
 3748SOL     OW11283   4.664   3.560   0.904
 3748SOL    HW111284   4.744   3.503   0.925
 3748SOL    HW211285   4.615   3.520   0.827
 3749SOL     OW11286   4.106   2.562   0.480
 3749SOL    HW111287   4.151   2.472   0.477
 3749SOL    HW211288   4.012   2.551   0.513
 3750SOL     OW11289   4.505   2.126   1.749
 3750SOL    HW111290   4.572   2.065   1.792
 3750SOL    HW211291   4.432   2.145   1.814
 3751SOL     OW11292   4.612   3.376   1.195
 3751SOL    HW111293   4.589   3.351   1.101
 3751SOL    HW211294   4.673   3.307   1.234
 3752SOL     OW11295   5.075   2.452   1.433
 3752SOL    HW111296   5.103   2.409   1.518
 3752SOL    HW211297   5.100   2.548   1.434
 3753SOL     OW11298   4.527   3.264   0.924
 3753SOL    HW111299   4.617   3.278   0.882
 3753SOL    HW211300   4.456   3.266   0.853
 3754SOL     OW11301   4.646   2.365   0.899
 3754SOL    HW111302   4.621   2.356   0.803
 3754SOL    HW211303   4.694   2.283   0.930
 3755SOL     OW11304   4.263   1.926   0.512
 3755SOL    HW111305   4.182   1.927   0.570
 3755SOL    HW211306   4.266   2.009   0.457
 3756SOL     OW11307   5.158   3.050   0.041
 3756SOL    HW111308   5.190   2.974   0.098
 3756SOL    HW211309   5.066   3.077   0.071
 3757SOL     OW11310   4.659   2.098   0.480
 3757SOL    HW111311   4.611   2.139   0.402
 3757SOL    HW211312   4.758   2.096   0.461
 3758SOL     OW11313   4.800   2.545   1.464
 3758SOL    HW111314   4.720   2.484   1.467
 3758SOL    HW211315   4.881   2.492   1.440
 3759SOL     OW11316   4.951   3.432   0.793
 3759SOL    HW111317   4.972   3.506   0.728
 3759SOL    HW211318   5.019   3.432   0.866
 3760SOL     OW11319   4.183   3.014   0.741
 3760SOL    HW111320   4.112   2.987   0.806
 3760SOL    HW211321   4.157   2.986   0.648
 3761SOL     OW11322   4.995   3.659   0.591
 3761SOL    HW111323   5.039   3.723   0.527
 3761SOL    HW211324   4.945   3.711   0.661
 3762SOL     OW11325   4.756   2.411   0.016
 3762SOL    HW111326   4.715   2.493  -0.023
 3762SOL    HW211327   4.820   2.437   0.089
 3763SOL     OW11328   3.802   2.418   1.386
 3763SOL    HW111329   3.894   2.417   1.345
 3763SOL    HW211330   3.796   2.492   1.453
 3764SOL     OW11331   4.285   2.084   1.147
 3764SOL    HW111332   4.323   2.000   1.184
 3764SOL    HW211333   4.197   2.103   1.191
 3765SOL     OW11334   4.590   2.316   0.642
 3765SOL    HW111335   4.558   2.388   0.580
 3765SOL    HW211336   4.614   2.235   0.589
 3766SOL     OW11337   4.741   1.901   0.753
 3766SOL    HW111338   4.669   1.906   0.684
 3766SOL    HW211339   4.717   1.832   0.822
 3767SOL     OW11340   4.212   3.247   0.174
 3767SOL    HW111341   4.125   3.232   0.221
 3767SOL    HW211342   4.195   3.273   0.079
 3768SOL     OW11343   5.114   2.437   0.078
 3768SOL    HW111344   5.060   2.416   0.159
 3768SOL    HW211345   5.205   2.396   0.087
 3769SOL     OW11346   4.251   2.118   0.328
 3769SOL    HW111347   4.278   2.059   0.253
 3769SOL    HW211348   4.251   2.213   0.297
 3770SOL     OW11349   4.788   3.209   1.340
 3770SOL    HW111350   4.708   3.186   1.395
 3770SOL    HW211351   4.871   3.183   1.389
 3771SOL     OW11352   4.835   3.057   1.100
 3771SOL    HW111353   4.795   3.101   1.181
 3771SOL    HW211354   4.794   3.094   1.017
 3772SOL     OW11355   4.639   1.951   1.402
 3772SOL    HW111356   4.664   1.931   1.307
 3772SOL    HW211357   4.711   2.007   1.444
 3773SOL     OW11358   4.704   2.978   1.719
 3773SOL    HW111359   4.605   2.984   1.729
 3773SOL    HW211360   4.727   2.898   1.663
 3774SOL     OW11361   4.429   2.912   0.368
 3774SOL    HW111362   4.415   2.919   0.467
 3774SOL    HW211363   4.513   2.861   0.350
 3775SOL     OW11364   4.134   2.675   1.251
 3775SOL    HW111365   4.220   2.687   1.301
 3775SOL    HW211366   4.092   2.588   1.278
 3776SOL     OW11367   4.998   2.248   1.262
 3776SOL    HW111368   5.019   2.322   1.326
 3776SOL    HW211369   4.909   2.265   1.219
 3777SOL     OW11370   3.788   3.426   1.331
 3777SOL    HW111371   3.742   3.508   1.297
 3777SOL    HW211372   3.886   3.445   1.340
 3778SOL     OW11373   4.091   2.962   0.501
 3778SOL    HW111374   4.084   3.045   0.445
 3778SOL    HW211375   4.095   2.882   0.441
 3779SOL     OW11376   4.290   2.399   0.865
 3779SOL    HW111377   4.302   2.465   0.791
 3779SOL    HW211378   4.336   2.433   0.948
 3780SOL     OW11379   4.976   3.210   0.388
 3780SOL    HW111380   5.026   3.287   0.428
 3780SOL    HW211381   4.881   3.212   0.420
 3781SOL     OW11382   4.996   3.307   1.142
 3781SOL    HW111383   5.043   3.320   1.229
 3781SOL    HW211384   4.930   3.233   1.151
 3782SOL     OW11385   4.078   3.372   1.329
 3782SOL    HW111386   4.057   3.328   1.242
 3782SOL    HW211387   4.175   3.398   1.332
 3783SOL     OW11388   4.126   2.613   1.598
 3783SOL    HW111389   4.194   2.668   1.551
 3783SOL    HW211390   4.166   2.525   1.625
 3784SOL     OW11391   4.737   1.967   1.770
 3784SOL    HW111392   4.743   2.052   1.718
 3784SOL    HW211393   4.769   1.891   1.713
 3785SOL     OW11394   4.228   1.912   1.740
 3785SOL    HW111395   4.186   1.855   1.670
 3785SOL    HW211396   4.162   1.981   1.772
 3786SOL     OW11397   4.297   2.732   1.029
 3786SOL    HW111398   4.341   2.821   1.020
 3786SOL    HW211399   4.234   2.732   1.106
 3787SOL     OW11400   5.084   2.724   1.045
 3787SOL    HW111401   5.009   2.724   0.979
 3787SOL    HW211402   5.121   2.632   1.054
 3788SOL     OW11403   4.933   2.387   0.275
 3788SOL    HW111404   4.946   2.303   0.329
 3788SOL    HW211405   4.904   2.461   0.335
 3789SOL     OW11406   4.031   2.075   1.231
 3789SOL    HW111407   4.008   2.112   1.321
 3789SOL    HW211408   4.001   1.980   1.225
 3790SOL     OW11409   3.761   3.172   1.282
 3790SOL    HW111410   3.814   3.123   1.350
 3790SOL    HW211411   3.783   3.270   1.287
 3791SOL     OW11412   4.456   2.496   1.064
 3791SOL    HW111413   4.515   2.470   0.988
 3791SOL    HW211414   4.428   2.592   1.053
 3792SOL     OW11415   4.031   1.925   0.618
 3792SOL    HW111416   4.020   2.019   0.651
 3792SOL    HW211417   4.026   1.862   0.695
 3793SOL     OW11418   5.346   2.229   0.374
 3793SOL    HW111419   5.348   2.153   0.438
 3793SOL    HW211420   5.298   2.306   0.414
 3794SOL     OW11421   4.747   2.628   0.966
 3794SOL    HW111422   4.762   2.649   1.062
 3794SOL    HW211423   4.717   2.533   0.957
 3795SOL     OW11424   4.704   3.435   1.700
 3795SOL    HW111425   4.684   3.479   1.612
 3795SOL    HW211426   4.743   3.344   1.684
 3796SOL     OW11427   4.074   2.760   1.804
 3796SOL    HW111428   4.150   2.804   1.852
 3796SOL    HW211429   4.109   2.713   1.722
 3797SOL     OW11430   5.027   2.700   0.042
 3797SOL    HW111431   5.061   2.607   0.057
 3797SOL    HW211432   5.045   2.727  -0.053
 3798SOL     OW11433   4.792   3.195   0.849
 3798SOL    HW111434   4.799   3.111   0.794
 3798SOL    HW211435   4.854   3.264   0.813
 3799SOL     OW11436   4.043   2.672   0.949
 3799SOL    HW111437   4.136   2.708   0.954
 3799SOL    HW211438   4.037   2.587   1.001
 3800SOL     OW11439   4.063   2.371   1.006
 3800SOL    HW111440   4.011   2.288   0.989
 3800SOL    HW211441   4.140   2.376   0.942
 3801SOL     OW11442   4.862   2.242   1.678
 3801SOL    HW111443   4.817   2.305   1.742
 3801SOL    HW211444   4.955   2.273   1.661
 3802SOL     OW11445   4.884   2.069   1.477
 3802SOL    HW111446   4.884   2.133   1.554
 3802SOL    HW211447   4.912   2.117   1.394
 3803SOL     OW11448   3.812   3.663   0.927
 3803SOL    HW111449   3.770   3.577   0.900
 3803SOL    HW211450   3.906   3.666   0.893
 3804SOL     OW11451   4.228   3.430   0.910
 3804SOL    HW111452   4.294   3.504   0.919
 3804SOL    HW211453   4.272   3.351   0.868
 3805SOL     OW11454   4.726   2.658   1.238
 3805SOL    HW111455   4.767   2.626   1.324
 3805SOL    HW211456   4.630   2.631   1.235
 3806SOL     OW11457   3.764   2.406   1.114
 3806SOL    HW111458   3.849   2.373   1.073
 3806SOL    HW211459   3.777   2.421   1.212
 3807SOL     OW11460   3.913   2.382   1.722
 3807SOL    HW111461   3.972   2.342   1.652
 3807SOL    HW211462   3.855   2.453   1.681
 3808SOL     OW11463   4.539   2.434   0.325
 3808SOL    HW111464   4.546   2.345   0.279
 3808SOL    HW211465   4.445   2.468   0.317
 3809SOL     OW11466   3.976   3.426   1.744
 3809SOL    HW111467   3.946   3.483   1.820
 3809SOL    HW211468   3.969   3.329   1.770
 3810SOL     OW11469   4.395   2.326   1.269
 3810SOL    HW111470   4.361   2.237   1.239
 3810SOL    HW211471   4.421   2.380   1.189
 3811SOL     OW11472   4.654   3.540   1.465
 3811SOL    HW111473   4.630   3.522   1.370
 3811SOL    HW211474   4.684   3.634   1.475
 3812SOL     OW11475   4.197   2.362   0.191
 3812SOL    HW111476   4.258   2.442   0.195
 3812SOL    HW211477   4.102   2.393   0.198
 3813SOL     OW11478   3.883   2.999   1.466
 3813SOL    HW111479   3.905   2.938   1.542
 3813SOL    HW211480   3.893   2.950   1.380
 3814SOL     OW11481   5.071   2.921   1.234
 3814SOL    HW111482   5.095   2.858   1.160
 3814SOL    HW211483   4.981   2.961   1.216
 3815SOL     OW11484   5.026   2.717   0.309
 3815SOL    HW111485   4.940   2.686   0.351
 3815SOL    HW211486   5.022   2.703   0.210
 3816SOL     OW11487   4.976   3.593   1.128
 3816SOL    HW111488   5.060   3.598   1.074
 3816SOL    HW211489   4.953   3.497   1.146
 3817SOL     OW11490   3.807   3.120   1.022
 3817SOL    HW111491   3.802   3.119   1.122
 3817SOL    HW211492   3.724   3.079   0.984
 3818SOL     OW11493   4.412   3.524   1.716
 3818SOL    HW111494   4.356   3.605   1.725
 3818SOL    HW211495   4.464   3.528   1.630
 3819SOL     OW11496   4.627   1.948   0.133
 3819SOL    HW111497   4.678   1.949   0.047
 3819SOL    HW211498   4.683   1.906   0.204
 3820SOL     OW11499   5.112   3.435   0.477
 3820SOL    HW111500   5.179   3.447   0.403
 3820SOL    HW211501   5.072   3.524   0.500
 3821SOL     OW11502   3.854   3.656   1.851
 3821SOL    HW111503   3.813   3.582   1.904
 3821SOL    HW211504   3.918   3.707   1.909
 3822SOL     OW11505   5.004   2.789   0.672
 3822SOL    HW111506   5.064   2.708   0.674
 3822SOL    HW211507   5.044   2.858   0.612
 3823SOL     OW11508   4.554   3.135   1.422
 3823SOL    HW111509   4.549   3.168   1.517
 3823SOL    HW211510   4.468   3.154   1.376
 3824SOL     OW11511   4.396   3.478   0.154
 3824SOL    HW111512   4.405   3.488   0.055
 3824SOL    HW211513   4.356   3.389   0.175
 3825SOL     OW11514   3.987   2.188   0.720
 3825SOL    HW111515   3.908   2.239   0.686
 3825SOL    HW211516   3.978   2.173   0.818
 3826SOL     OW11517   4.918   3.474   0.031
 3826SOL    HW111518   4.924   3.381   0.068
 3826SOL    HW211519   4.859   3.474  -0.049
 3827SOL     OW11520   4.546   2.864   1.372
 3827SOL    HW111521   4.586   2.863   1.280
 3827SOL    HW211522   4.556   2.956   1.412
 3828SOL     OW11523   4.640   2.772   0.291
 3828SOL    HW111524   4.703   2.810   0.223
 3828SOL    HW211525   4.680   2.689   0.330
 3829SOL     OW11526   4.096   3.150   1.490
 3829SOL    HW111527   4.083   3.243   1.456
 3829SOL    HW211528   4.012   3.098   1.477
 3830SOL     OW11529   4.763   2.960   0.696
 3830SOL    HW111530   4.693   2.913   0.750
 3830SOL    HW211531   4.822   2.892   0.653
 3831SOL     OW11532   4.738   2.098   0.971
 3831SOL    HW111533   4.730   2.062   0.878
 3831SOL    HW211534   4.736   2.022   1.036
 3832SOL     OW11535   4.314   3.349   0.491
 3832SOL    HW111536   4.356   3.291   0.421
 3832SOL    HW211537   4.270   3.428   0.447
 3833SOL     OW11538   3.979   3.210   0.290
 3833SOL    HW111539   3.883   3.211   0.263
 3833SOL    HW211540   3.991   3.263   0.374
 3834SOL     OW11541   3.829   2.875   1.726
 3834SOL    HW111542   3.752   2.842   1.780
 3834SOL    HW211543   3.914   2.845   1.768
 3835SOL     OW11544   4.396   2.065   1.489
 3835SOL    HW111545   4.486   2.049   1.449
 3835SOL    HW211546   4.404   2.070   1.588
 3836SOL     OW11547   3.799   2.207   0.033
 3836SOL    HW111548   3.707   2.179   0.004
 3836SOL    HW211549   3.830   2.284  -0.023
 3837SOL     OW11550   5.164   2.718   1.398
 3837SOL    HW111551   5.107   2.770   1.335
 3837SOL    HW211552   5.260   2.730   1.374
 3838SOL     OW11553   3.796   2.028   0.318
 3838SOL    HW111554   3.779   2.111   0.264
 3838SOL    HW211555   3.886   1.991   0.296
 3839SOL     OW11556   4.907   3.197   0.119
 3839SOL    HW111557   4.808   3.186   0.121
 3839SOL    HW211558   4.941   3.212   0.212
 3840SOL     OW11559   4.337   2.704   1.431
 3840SOL    HW111560   4.393   2.785   1.414
 3840SOL    HW211561   4.396   2.624   1.434
 3841SOL     OW11562   4.440   2.427   1.708
 3841SOL    HW111563   4.459   2.492   1.782
 3841SOL    HW211564   4.500   2.347   1.717
 3842SOL     OW11565   5.174   3.082   1.633
 3842SOL    HW111566   5.165   3.072   1.732
 3842SOL    HW211567   5.270   3.075   1.607
 3843SOL     OW11568   4.114   3.603   1.560
 3843SOL    HW111569   4.023   3.644   1.558
 3843SOL    HW211570   4.107   3.509   1.592
 3844SOL     OW11571   4.949   2.187   0.449
 3844SOL    HW111572   5.014   2.113   0.438
 3844SOL    HW211573   4.969   2.237   0.533
 3845SOL     OW11574   4.318   2.607   0.652
 3845SOL    HW111575   4.368   2.692   0.633
 3845SOL    HW211576   4.230   2.609   0.604
 3846SOL     OW11577   4.583   3.236   0.016
 3846SOL    HW111578   4.537   3.251   0.104
 3846SOL    HW211579   4.627   3.321  -0.014
 3847SOL     OW11580   4.385   3.652   0.953
 3847SOL    HW111581   4.339   3.740   0.940
 3847SOL    HW211582   4.484   3.664   0.946
 3848SOL     OW11583   4.583   2.818   0.861
 3848SOL    HW111584   4.637   2.749   0.909
 3848SOL    HW211585   4.551   2.887   0.927
 3849SOL     OW11586   4.807   2.846   0.087
 3849SOL    HW111587   4.784   2.899   0.005
 3849SOL    HW211588   4.888   2.790   0.068
 3850SOL     OW11589   3.945   3.176   1.844
 3850SOL    HW111590   3.880   3.103   1.823
 3850SOL    HW211591   3.949   3.190   1.942
 3851SOL     OW11592   3.803   3.102   0.653
 3851SOL    HW111593   3.802   3.055   0.741
 3851SOL    HW211594   3.885   3.074   0.602
 3852SOL     OW11595   4.396   3.253   1.624
 3852SOL    HW111596   4.318   3.203   1.662
 3852SOL    HW211597   4.393   3.348   1.655
 3853SOL     OW11598   4.152   2.286   0.520
 3853SOL    HW111599   4.182   2.214   0.458
 3853SOL    HW211600   4.113   2.246   0.603
 3854SOL     OW11601   4.041   2.409   1.280
 3854SOL    HW111602   4.079   2.350   1.352
 3854SOL    HW211603   4.081   2.383   1.192
 3855SOL     OW11604   4.536   3.448   0.687
 3855SOL    HW111605   4.568   3.458   0.593
 3855SOL    HW211606   4.457   3.386   0.689
 3856SOL     OW11607   5.148   2.076   1.112
 3856SOL    HW111608   5.200   2.011   1.167
 3856SOL    HW211609   5.099   2.139   1.173
 3857SOL     OW11610   4.725   1.896   1.154
 3857SOL    HW111611   4.662   1.824   1.123
 3857SOL    HW211612   4.818   1.860   1.154
 3858SOL     OW11613   4.494   3.192   0.301
 3858SOL    HW111614   4.448   3.105   0.318
 3858SOL    HW211615   4.585   3.189   0.342
 3859SOL     OW11616   4.342   3.429   1.284
 3859SOL    HW111617   4.337   3.511   1.341
 3859SOL    HW211618   4.431   3.426   1.239
 3860SOL     OW11619   3.763   2.939   0.300
 3860SOL    HW111620   3.862   2.928   0.291
 3860SOL    HW211621   3.723   2.853   0.332
 3861SOL     OW11622   4.599   3.508   0.337
 3861SOL    HW111623   4.522   3.473   0.283
 3861SOL    HW211624   4.567   3.579   0.399
 3862SOL     OW11625   3.954   2.490   1.975
 3862SOL    HW111626   3.861   2.488   2.012
 3862SOL    HW211627   3.955   2.451   1.883
 3863SOL     OW11628   3.949   2.137   2.858
 3863SOL    HW111629   3.984   2.120   2.950
 3863SOL    HW211630   3.861   2.092   2.846
 3864SOL     OW11631   3.743   2.230   2.509
 3864SOL    HW111632   3.661   2.273   2.548
 3864SOL    HW211633   3.715   2.157   2.446
 3865SOL     OW11634   4.293   3.137   3.027
 3865SOL    HW111635   4.200   3.130   2.990
 3865SOL    HW211636   4.304   3.226   3.071
 3866SOL     OW11637   5.279   3.373   2.565
 3866SOL    HW111638   5.222   3.357   2.646
 3866SOL    HW211639   5.220   3.383   2.485
 3867SOL     OW11640   4.859   2.565   2.579
 3867SOL    HW111641   4.916   2.643   2.554
 3867SOL    HW211642   4.799   2.591   2.655
 3868SOL     OW11643   4.492   3.006   2.885
 3868SOL    HW111644   4.414   3.023   2.945
 3868SOL    HW211645   4.526   3.093   2.849
 3869SOL     OW11646   4.574   2.660   3.685
 3869SOL    HW111647   4.570   2.736   3.750
 3869SOL    HW211648   4.596   2.696   3.594
 3870SOL     OW11649   4.409   2.874   2.527
 3870SOL    HW111650   4.478   2.858   2.597
 3870SOL    HW211651   4.336   2.931   2.565
 3871SOL     OW11652   4.410   3.023   3.665
 3871SOL    HW111653   4.470   3.102   3.679
 3871SOL    HW211654   4.324   3.054   3.624
 3872SOL     OW11655   4.059   3.297   2.923
 3872SOL    HW111656   3.981   3.266   2.870
 3872SOL    HW211657   4.117   3.355   2.866
 3873SOL     OW11658   4.162   2.254   3.361
 3873SOL    HW111659   4.244   2.198   3.370
 3873SOL    HW211660   4.081   2.196   3.365
 3874SOL     OW11661   3.955   3.575   2.345
 3874SOL    HW111662   3.989   3.652   2.399
 3874SOL    HW211663   3.999   3.575   2.255
 3875SOL     OW11664   4.851   3.203   3.552
 3875SOL    HW111665   4.898   3.203   3.640
 3875SOL    HW211666   4.803   3.116   3.541
 3876SOL     OW11667   3.954   3.296   2.400
 3876SOL    HW111668   3.928   3.392   2.400
 3876SOL    HW211669   3.883   3.242   2.445
 3877SOL     OW11670   3.964   2.953   2.748
 3877SOL    HW111671   3.978   2.869   2.800
 3877SOL    HW211672   3.909   3.017   2.803
 3878SOL     OW11673   4.344   3.648   3.301
 3878SOL    HW111674   4.252   3.631   3.336
 3878SOL    HW211675   4.372   3.740   3.327
 3879SOL     OW11676   4.330   2.826   1.985
 3879SOL    HW111677   4.337   2.910   1.931
 3879SOL    HW211678   4.376   2.839   2.073
 3880SOL     OW11679   3.846   2.505   2.425
 3880SOL    HW111680   3.801   2.417   2.442
 3880SOL    HW211681   3.845   2.559   2.509
 3881SOL     OW11682   3.751   3.458   1.979
 3881SOL    HW111683   3.732   3.362   2.000
 3881SOL    HW211684   3.718   3.516   2.054
 3882SOL     OW11685   5.413   2.784   2.474
 3882SOL    HW111686   5.508   2.755   2.482
 3882SOL    HW211687   5.405   2.849   2.399
 3883SOL     OW11688   3.837   2.599   3.459
 3883SOL    HW111689   3.925   2.586   3.504
 3883SOL    HW211690   3.824   2.696   3.437
 3884SOL     OW11691   4.337   3.227   2.588
 3884SOL    HW111692   4.288   3.140   2.597
 3884SOL    HW211693   4.314   3.270   2.501
 3885SOL     OW11694   5.017   3.090   3.285
 3885SOL    HW111695   5.054   3.017   3.227
 3885SOL    HW211696   5.069   3.095   3.370
 3886SOL     OW11697   4.533   1.866   2.364
 3886SOL    HW111698   4.573   1.957   2.355
 3886SOL    HW211699   4.433   1.874   2.370
 3887SOL     OW11700   3.921   2.838   3.126
 3887SOL    HW111701   4.010   2.793   3.112
 3887SOL    HW211702   3.848   2.773   3.107
 3888SOL     OW11703   4.911   3.654   3.478
 3888SOL    HW111704   4.935   3.714   3.402
 3888SOL    HW211705   4.918   3.559   3.448
 3889SOL     OW11706   4.041   2.113   3.663
 3889SOL    HW111707   4.112   2.184   3.669
 3889SOL    HW211708   3.953   2.152   3.691
 3890SOL     OW11709   4.322   2.591   2.132
 3890SOL    HW111710   4.346   2.660   2.064
 3890SOL    HW211711   4.244   2.624   2.186
 3891SOL     OW11712   5.005   2.207   2.806
 3891SOL    HW111713   4.919   2.157   2.793
 3891SOL    HW211714   5.067   2.153   2.862
 3892SOL     OW11715   4.531   2.467   3.327
 3892SOL    HW111716   4.484   2.464   3.416
 3892SOL    HW211717   4.480   2.412   3.261
 3893SOL     OW11718   5.118   2.331   3.536
 3893SOL    HW111719   5.098   2.374   3.624
 3893SOL    HW211720   5.196   2.269   3.545
 3894SOL     OW11721   4.697   2.752   3.434
 3894SOL    HW111722   4.743   2.668   3.405
 3894SOL    HW211723   4.641   2.786   3.359
 3895SOL     OW11724   4.715   2.272   3.104
 3895SOL    HW111725   4.638   2.306   3.158
 3895SOL    HW211726   4.681   2.221   3.025
 3896SOL     OW11727   4.765   2.563   2.291
 3896SOL    HW111728   4.791   2.559   2.387
 3896SOL    HW211729   4.680   2.512   2.277
 3897SOL     OW11730   3.800   2.673   2.651
 3897SOL    HW111731   3.899   2.661   2.660
 3897SOL    HW211732   3.776   2.768   2.672
 3898SOL     OW11733   3.854   3.683   3.433
 3898SOL    HW111734   3.844   3.668   3.532
 3898SOL    HW211735   3.768   3.719   3.397
 3899SOL     OW11736   4.589   2.210   2.057
 3899SOL    HW111737   4.648   2.273   2.008
 3899SOL    HW211738   4.608   2.116   2.028
 3900SOL     OW11739   5.086   3.006   2.407
 3900SOL    HW111740   5.169   2.977   2.359
 3900SOL    HW211741   5.037   3.073   2.351
 3901SOL     OW11742   4.274   2.058   2.747
 3901SOL    HW111743   4.269   2.053   2.847
 3901SOL    HW211744   4.276   2.154   2.718
 3902SOL     OW11745   4.732   3.318   2.339
 3902SOL    HW111746   4.686   3.390   2.287
 3902SOL    HW211747   4.728   3.338   2.437
 3903SOL     OW11748   4.075   3.663   2.715
 3903SOL    HW111749   4.125   3.577   2.721
 3903SOL    HW211750   4.140   3.740   2.712
 3904SOL     OW11751   4.951   3.412   3.368
 3904SOL    HW111752   4.957   3.335   3.432
 3904SOL    HW211753   4.899   3.386   3.288
 3905SOL     OW11754   4.045   2.805   2.104
 3905SOL    HW111755   4.127   2.844   2.062
 3905SOL    HW211756   4.018   2.723   2.055
 3906SOL     OW11757   4.185   3.128   3.589
 3906SOL    HW111758   4.135   3.129   3.503
 3906SOL    HW211759   4.122   3.110   3.665
 3907SOL     OW11760   4.835   3.638   2.099
 3907SOL    HW111761   4.775   3.576   2.149
 3907SOL    HW211762   4.866   3.594   2.014
 3908SOL     OW11763   3.926   2.147   3.360
 3908SOL    HW111764   3.846   2.207   3.347
 3908SOL    HW211765   3.916   2.098   3.446
 3909SOL     OW11766   4.188   3.605   2.185
 3909SOL    HW111767   4.221   3.644   2.271
 3909SOL    HW211768   4.264   3.598   2.120
 3910SOL     OW11769   3.973   3.647   3.103
 3910SOL    HW111770   4.030   3.582   3.153
 3910SOL    HW211771   3.957   3.614   3.010
 3911SOL     OW11772   4.664   3.560   2.766
 3911SOL    HW111773   4.744   3.503   2.787
 3911SOL    HW211774   4.615   3.520   2.689
 3912SOL     OW11775   4.106   2.562   2.342
 3912SOL    HW111776   4.151   2.472   2.339
 3912SOL    HW211777   4.012   2.551   2.375
 3913SOL     OW11778   4.338   1.984   1.979
 3913SOL    HW111779   4.436   1.962   1.986
 3913SOL    HW211780   4.307   1.967   1.886
 3914SOL     OW11781   4.505   2.126   3.611
 3914SOL    HW111782   4.572   2.065   3.654
 3914SOL    HW211783   4.432   2.145   3.676
 3915SOL     OW11784   4.612   3.376   3.057
 3915SOL    HW111785   4.589   3.351   2.963
 3915SOL    HW211786   4.673   3.307   3.096
 3916SOL     OW11787   5.075   2.452   3.295
 3916SOL    HW111788   5.103   2.409   3.380
 3916SOL    HW211789   5.100   2.548   3.296
 3917SOL     OW11790   4.527   3.264   2.786
 3917SOL    HW111791   4.617   3.278   2.744
 3917SOL    HW211792   4.456   3.266   2.715
 3918SOL     OW11793   4.646   2.365   2.761
 3918SOL    HW111794   4.621   2.356   2.665
 3918SOL    HW211795   4.694   2.283   2.792
 3919SOL     OW11796   4.263   1.926   2.374
 3919SOL    HW111797   4.182   1.927   2.432
 3919SOL    HW211798   4.266   2.009   2.319
 3920SOL     OW11799   5.158   3.050   1.903
 3920SOL    HW111800   5.190   2.974   1.960
 3920SOL    HW211801   5.066   3.077   1.933
 3921SOL     OW11802   4.021   1.897   2.033
 3921SOL    HW111803   4.070   1.981   2.012
 3921SOL    HW211804   4.083   1.832   2.078
 3922SOL     OW11805   4.659   2.098   2.342
 3922SOL    HW111806   4.611   2.139   2.264
 3922SOL    HW211807   4.758   2.096   2.323
 3923SOL     OW11808   4.800   2.545   3.326
 3923SOL    HW111809   4.720   2.484   3.329
 3923SOL    HW211810   4.881   2.492   3.302
 3924SOL     OW11811   4.951   3.432   2.655
 3924SOL    HW111812   4.972   3.506   2.590
 3924SOL    HW211813   5.019   3.432   2.728
 3925SOL     OW11814   4.183   3.014   2.603
 3925SOL    HW111815   4.112   2.987   2.668
 3925SOL    HW211816   4.157   2.986   2.510
 3926SOL     OW11817   4.995   3.659   2.453
 3926SOL    HW111818   5.039   3.723   2.389
 3926SOL    HW211819   4.945   3.711   2.523
 3927SOL     OW11820   4.756   2.411   1.878
 3927SOL    HW111821   4.715   2.493   1.839
 3927SOL    HW211822   4.820   2.437   1.951
 3928SOL     OW11823   3.802   2.418   3.248
 3928SOL    HW111824   3.894   2.417   3.207
 3928SOL    HW211825   3.796   2.492   3.315
 3929SOL     OW11826   4.285   2.084   3.009
 3929SOL    HW111827   4.323   2.000   3.046
 3929SOL    HW211828   4.197   2.103   3.053
 3930SOL     OW11829   4.590   2.316   2.504
 3930SOL    HW111830   4.558   2.388   2.442
 3930SOL    HW211831   4.614   2.235   2.451
 3931SOL     OW11832   4.741   1.901   2.615
 3931SOL    HW111833   4.669   1.906   2.546
 3931SOL    HW211834   4.717   1.832   2.684
 3932SOL     OW11835   4.212   3.247   2.036
 3932SOL    HW111836   4.125   3.232   2.083
 3932SOL    HW211837   4.195   3.273   1.941
 3933SOL     OW11838   5.114   2.437   1.940
 3933SOL    HW111839   5.060   2.416   2.021
 3933SOL    HW211840   5.205   2.396   1.949
 3934SOL     OW11841   4.251   2.118   2.190
 3934SOL    HW111842   4.278   2.059   2.115
 3934SOL    HW211843   4.251   2.213   2.159
 3935SOL     OW11844   4.788   3.209   3.202
 3935SOL    HW111845   4.708   3.186   3.257
 3935SOL    HW211846   4.871   3.183   3.251
 3936SOL     OW11847   4.835   3.057   2.962
 3936SOL    HW111848   4.795   3.101   3.043
 3936SOL    HW211849   4.794   3.094   2.879
 3937SOL     OW11850   4.639   1.951   3.264
 3937SOL    HW111851   4.664   1.931   3.169
 3937SOL    HW211852   4.711   2.007   3.306
 3938SOL     OW11853   4.704   2.978   3.581
 3938SOL    HW111854   4.605   2.984   3.591
 3938SOL    HW211855   4.727   2.898   3.525
 3939SOL     OW11856   4.429   2.912   2.230
 3939SOL    HW111857   4.415   2.919   2.329
 3939SOL    HW211858   4.513   2.861   2.212
 3940SOL     OW11859   4.134   2.675   3.113
 3940SOL    HW111860   4.220   2.687   3.163
 3940SOL    HW211861   4.092   2.588   3.140
 3941SOL     OW11862   4.998   2.248   3.124
 3941SOL    HW111863   5.019   2.322   3.188
 3941SOL    HW211864   4.909   2.265   3.081
 3942SOL     OW11865   3.788   3.426   3.193
 3942SOL    HW111866   3.742   3.508   3.159
 3942SOL    HW211867   3.886   3.445   3.202
 3943SOL     OW11868   4.091   2.962   2.363
 3943SOL    HW111869   4.084   3.045   2.307
 3943SOL    HW211870   4.095   2.882   2.303
 3944SOL     OW11871   4.290   2.399   2.727
 3944SOL    HW111872   4.302   2.465   2.653
 3944SOL    HW211873   4.336   2.433   2.810
 3945SOL     OW11874   4.976   3.210   2.250
 3945SOL    HW111875   5.026   3.287   2.290
 3945SOL    HW211876   4.881   3.212   2.282
 3946SOL     OW11877   4.996   3.307   3.004
 3946SOL    HW111878   5.043   3.320   3.091
 3946SOL    HW211879   4.930   3.233   3.013
 3947SOL     OW11880   4.078   3.372   3.191
 3947SOL    HW111881   4.057   3.328   3.104
 3947SOL    HW211882   4.175   3.398   3.194
 3948SOL     OW11883   4.126   2.613   3.460
 3948SOL    HW111884   4.194   2.668   3.413
 3948SOL    HW211885   4.166   2.525   3.487
 3949SOL     OW11886   4.737   1.967   3.632
 3949SOL    HW111887   4.743   2.052   3.580
 3949SOL    HW211888   4.769   1.891   3.575
 3950SOL     OW11889   4.228   1.912   3.602
 3950SOL    HW111890   4.186   1.855   3.532
 3950SOL    HW211891   4.162   1.981   3.634
 3951SOL     OW11892   4.297   2.732   2.891
 3951SOL    HW111893   4.341   2.821   2.882
 3951SOL    HW211894   4.234   2.732   2.968
 3952SOL     OW11895   5.084   2.724   2.907
 3952SOL    HW111896   5.009   2.724   2.841
 3952SOL    HW211897   5.121   2.632   2.916
 3953SOL     OW11898   4.933   2.387   2.137
 3953SOL    HW111899   4.946   2.303   2.191
 3953SOL    HW211900   4.904   2.461   2.197
 3954SOL     OW11901   4.031   2.075   3.093
 3954SOL    HW111902   4.008   2.112   3.183
 3954SOL    HW211903   4.001   1.980   3.087
 3955SOL     OW11904   3.761   3.172   3.144
 3955SOL    HW111905   3.814   3.123   3.212
 3955SOL    HW211906   3.783   3.270   3.149
 3956SOL     OW11907   4.456   2.496   2.926
 3956SOL    HW111908   4.515   2.470   2.850
 3956SOL    HW211909   4.428   2.592   2.915
 3957SOL     OW11910   4.031   1.925   2.480
 3957SOL    HW111911   4.020   2.019   2.513
 3957SOL    HW211912   4.026   1.862   2.557
 3958SOL     OW11913   5.346   2.229   2.236
 3958SOL    HW111914   5.348   2.153   2.300
 3958SOL    HW211915   5.298   2.306   2.276
 3959SOL     OW11916   4.747   2.628   2.828
 3959SOL    HW111917   4.762   2.649   2.924
 3959SOL    HW211918   4.717   2.533   2.819
 3960SOL     OW11919   4.704   3.435   3.562
 3960SOL    HW111920   4.684   3.479   3.474
 3960SOL    HW211921   4.743   3.344   3.546
 3961SOL     OW11922   4.074   2.760   3.666
 3961SOL    HW111923   4.150   2.804   3.714
 3961SOL    HW211924   4.109   2.713   3.584
 3962SOL     OW11925   5.027   2.700   1.904
 3962SOL    HW111926   5.061   2.607   1.919
 3962SOL    HW211927   5.045   2.727   1.809
 3963SOL     OW11928   4.792   3.195   2.711
 3963SOL    HW111929   4.799   3.111   2.656
 3963SOL    HW211930   4.854   3.264   2.675
 3964SOL     OW11931   4.043   2.672   2.811
 3964SOL    HW111932   4.136   2.708   2.816
 3964SOL    HW211933   4.037   2.587   2.863
 3965SOL     OW11934   4.063   2.371   2.868
 3965SOL    HW111935   4.011   2.288   2.851
 3965SOL    HW211936   4.140   2.376   2.804
 3966SOL     OW11937   4.862   2.242   3.540
 3966SOL    HW111938   4.817   2.305   3.604
 3966SOL    HW211939   4.955   2.273   3.523
 3967SOL     OW11940   4.884   2.069   3.339
 3967SOL    HW111941   4.884   2.133   3.416
 3967SOL    HW211942   4.912   2.117   3.256
 3968SOL     OW11943   3.732   3.188   2.062
 3968SOL    HW111944   3.639   3.209   2.031
 3968SOL    HW211945   3.742   3.089   2.075
 3969SOL     OW11946   3.812   3.663   2.789
 3969SOL    HW111947   3.770   3.577   2.762
 3969SOL    HW211948   3.906   3.666   2.755
 3970SOL     OW11949   4.228   3.430   2.772
 3970SOL    HW111950   4.294   3.504   2.781
 3970SOL    HW211951   4.272   3.351   2.730
 3971SOL     OW11952   4.726   2.658   3.100
 3971SOL    HW111953   4.767   2.626   3.186
 3971SOL    HW211954   4.630   2.631   3.097
 3972SOL     OW11955   3.764   2.406   2.976
 3972SOL    HW111956   3.849   2.373   2.935
 3972SOL    HW211957   3.777   2.421   3.074
 3973SOL     OW11958   3.913   2.382   3.584
 3973SOL    HW111959   3.972   2.342   3.514
 3973SOL    HW211960   3.855   2.453   3.543
 3974SOL     OW11961   4.539   2.434   2.187
 3974SOL    HW111962   4.546   2.345   2.141
 3974SOL    HW211963   4.445   2.468   2.179
 3975SOL     OW11964   3.976   3.426   3.606
 3975SOL    HW111965   3.946   3.483   3.682
 3975SOL    HW211966   3.969   3.329   3.632
 3976SOL     OW11967   4.395   2.326   3.131
 3976SOL    HW111968   4.361   2.237   3.101
 3976SOL    HW211969   4.421   2.380   3.051
 3977SOL     OW11970   4.654   3.540   3.327
 3977SOL    HW111971   4.630   3.522   3.232
 3977SOL    HW211972   4.684   3.634   3.337
 3978SOL     OW11973   4.197   2.362   2.053
 3978SOL    HW111974   4.258   2.442   2.057
 3978SOL    HW211975   4.102   2.393   2.060
 3979SOL     OW11976   3.883   2.999   3.328
 3979SOL    HW111977   3.905   2.938   3.404
 3979SOL    HW211978   3.893   2.950   3.242
 3980SOL     OW11979   5.071   2.921   3.096
 3980SOL    HW111980   5.095   2.858   3.022
 3980SOL    HW211981   4.981   2.961   3.078
 3981SOL     OW11982   5.026   2.717   2.171
 3981SOL    HW111983   4.940   2.686   2.213
 3981SOL    HW211984   5.022   2.703   2.072
 3982SOL     OW11985   4.976   3.593   2.990
 3982SOL    HW111986   5.060   3.598   2.936
 3982SOL    HW211987   4.953   3.497   3.008
 3983SOL     OW11988   3.807   3.120   2.884
 3983SOL    HW111989   3.802   3.119   2.984
 3983SOL    HW211990   3.724   3.079   2.846
 3984SOL     OW11991   4.412   3.524   3.578
 3984SOL    HW111992   4.356   3.605   3.587
 3984SOL    HW211993   4.464   3.528   3.492
 3985SOL     OW11994   5.112   3.435   2.339
 3985SOL    HW111995   5.179   3.447   2.265
 3985SOL    HW211996   5.072   3.524   2.362
 3986SOL     OW11997   3.854   3.656   3.713
 3986SOL    HW111998   3.813   3.582   3.766
 3986SOL    HW211999   3.918   3.707   3.771
 3987SOL     OW12000   5.004   2.789   2.534
 3987SOL    HW112001   5.064   2.708   2.536
 3987SOL    HW212002   5.044   2.858   2.474
 3988SOL     OW12003   4.554   3.135   3.284
 3988SOL    HW112004   4.549   3.168   3.379
 3988SOL    HW212005   4.468   3.154   3.238
 3989SOL     OW12006   4.396   3.478   2.016
 3989SOL    HW112007   4.405   3.488   1.917
 3989SOL    HW212008   4.356   3.389   2.037
 3990SOL     OW12009   3.987   2.188   2.582
 3990SOL    HW112010   3.908   2.239   2.548
 3990SOL    HW212011   3.978   2.173   2.680
 3991SOL     OW12012   4.918   3.474   1.893
 3991SOL    HW112013   4.924   3.381   1.930
 3991SOL    HW212014   4.859   3.474   1.813
 3992SOL     OW12015   4.546   2.864   3.234
 3992SOL    HW112016   4.586   2.863   3.142
 3992SOL    HW212017   4.556   2.956   3.274
 3993SOL     OW12018   4.640   2.772   2.153
 3993SOL    HW112019   4.703   2.810   2.085
 3993SOL    HW212020   4.680   2.689   2.192
 3994SOL     OW12021   4.096   3.150   3.352
 3994SOL    HW112022   4.083   3.243   3.318
 3994SOL    HW212023   4.012   3.098   3.339
 3995SOL     OW12024   4.763   2.960   2.558
 3995SOL    HW112025   4.693   2.913   2.612
 3995SOL    HW212026   4.822   2.892   2.515
 3996SOL     OW12027   4.738   2.098   2.833
 3996SOL    HW112028   4.730   2.062   2.740
 3996SOL    HW212029   4.736   2.022   2.898
 3997SOL     OW12030   4.314   3.349   2.353
 3997SOL    HW112031   4.356   3.291   2.283
 3997SOL    HW212032   4.270   3.428   2.309
 3998SOL     OW12033   3.979   3.210   2.152
 3998SOL    HW112034   3.883   3.211   2.125
 3998SOL    HW212035   3.991   3.263   2.236
 3999SOL     OW12036   3.829   2.875   3.588
 3999SOL    HW112037   3.752   2.842   3.642
 3999SOL    HW212038   3.914   2.845   3.630
 4000SOL     OW12039   4.396   2.065   3.351
 4000SOL    HW112040   4.486   2.049   3.311
 4000SOL    HW212041   4.404   2.070   3.450
 4001SOL     OW12042   3.799   2.207   1.895
 4001SOL    HW112043   3.707   2.179   1.866
 4001SOL    HW212044   3.830   2.284   1.839
 4002SOL     OW12045   5.164   2.718   3.260
 4002SOL    HW112046   5.107   2.770   3.197
 4002SOL    HW212047   5.260   2.730   3.236
 4003SOL     OW12048   3.796   2.028   2.180
 4003SOL    HW112049   3.779   2.111   2.126
 4003SOL    HW212050   3.886   1.991   2.158
 4004SOL     OW12051   4.907   3.197   1.981
 4004SOL    HW112052   4.808   3.186   1.983
 4004SOL    HW212053   4.941   3.212   2.074
 4005SOL     OW12054   4.337   2.704   3.293
 4005SOL    HW112055   4.393   2.785   3.276
 4005SOL    HW212056   4.396   2.624   3.296
 4006SOL     OW12057   4.440   2.427   3.570
 4006SOL    HW112058   4.459   2.492   3.644
 4006SOL    HW212059   4.500   2.347   3.579
 4007SOL     OW12060   5.174   3.082   3.495
 4007SOL    HW112061   5.165   3.072   3.594
 4007SOL    HW212062   5.270   3.075   3.469
 4008SOL     OW12063   4.114   3.603   3.422
 4008SOL    HW112064   4.023   3.644   3.420
 4008SOL    HW212065   4.107   3.509   3.454
 4009SOL     OW12066   4.949   2.187   2.311
 4009SOL    HW112067   5.014   2.113   2.300
 4009SOL    HW212068   4.969   2.237   2.395
 4010SOL     OW12069   4.318   2.607   2.514
 4010SOL    HW112070   4.368   2.692   2.495
 4010SOL    HW212071   4.230   2.609   2.466
 4011SOL     OW12072   4.583   3.236   1.878
 4011SOL    HW112073   4.537   3.251   1.966
 4011SOL    HW212074   4.627   3.321   1.848
 4012SOL     OW12075   4.385   3.652   2.815
 4012SOL    HW112076   4.339   3.740   2.802
 4012SOL    HW212077   4.484   3.664   2.808
 4013SOL     OW12078   4.583   2.818   2.723
 4013SOL    HW112079   4.637   2.749   2.771
 4013SOL    HW212080   4.551   2.887   2.789
 4014SOL     OW12081   4.807   2.846   1.949
 4014SOL    HW112082   4.784   2.899   1.867
 4014SOL    HW212083   4.888   2.790   1.930
 4015SOL     OW12084   3.945   3.176   3.706
 4015SOL    HW112085   3.880   3.103   3.685
 4015SOL    HW212086   3.949   3.190   3.804
 4016SOL     OW12087   3.803   3.102   2.515
 4016SOL    HW112088   3.802   3.055   2.603
 4016SOL    HW212089   3.885   3.074   2.464
 4017SOL     OW12090   4.396   3.253   3.486
 4017SOL    HW112091   4.318   3.203   3.524
 4017SOL    HW212092   4.393   3.348   3.517
 4018SOL     OW12093   4.152   2.286   2.382
 4018SOL    HW112094   4.182   2.214   2.320
 4018SOL    HW212095   4.113   2.246   2.465
 4019SOL     OW12096   4.041   2.409   3.142
 4019SOL    HW112097   4.079   2.350   3.214
 4019SOL    HW212098   4.081   2.383   3.054
 4020SOL     OW12099   4.536   3.448   2.549
 4020SOL    HW112100   4.568   3.458   2.455
 4020SOL    HW212101   4.457   3.386   2.551
 4021SOL     OW12102   5.148   2.076   2.974
 4021SOL    HW112103   5.200   2.011   3.029
 4021SOL    HW212104   5.099   2.139   3.035
 4022SOL     OW12105   4.725   1.896   3.016
 4022SOL    HW112106   4.662   1.824   2.985
 4022SOL    HW212107   4.818   1.860   3.016
 4023SOL     OW12108   4.494   3.192   2.163
 4023SOL    HW112109   4.448   3.105   2.180
 4023SOL    HW212110   4.585   3.189   2.204
 4024SOL     OW12111   4.342   3.429   3.146
 4024SOL    HW112112   4.337   3.511   3.203
 4024SOL    HW212113   4.431   3.426   3.101
 4025SOL     OW12114   5.076   1.914   2.030
 4025SOL    HW112115   5.111   1.873   1.946
 4025SOL    HW212116   4.986   1.876   2.050
 4026SOL     OW12117   3.763   2.939   2.162
 4026SOL    HW112118   3.862   2.928   2.153
 4026SOL    HW212119   3.723   2.853   2.194
 4027SOL     OW12120   4.599   3.508   2.199
 4027SOL    HW112121   4.522   3.473   2.145
 4027SOL    HW212122   4.567   3.579   2.261
 4028SOL     OW12123   3.954   2.490   3.837
 4028SOL    HW112124   3.861   2.488   3.874
 4028SOL    HW212125   3.955   2.451   3.745
 4029SOL     OW12126   3.949   2.137   4.720
 4029SOL    HW112127   3.984   2.120   4.812
 4029SOL    HW212128   3.861   2.092   4.708
 4030SOL     OW12129   3.743   2.230   4.371
 4030SOL    HW112130   3.661   2.273   4.410
 4030SOL    HW212131   3.715   2.157   4.308
 4031SOL     OW12132   4.293   3.137   4.889
 4031SOL    HW112133   4.200   3.130   4.852
 4031SOL    HW212134   4.304   3.226   4.933
 4032SOL     OW12135   5.279   3.373   4.427
 4032SOL    HW112136   5.222   3.357   4.508
 4032SOL    HW212137   5.220   3.383   4.347
 4033SOL     OW12138   4.859   2.565   4.441
 4033SOL    HW112139   4.916   2.643   4.416
 4033SOL    HW212140   4.799   2.591   4.517
 4034SOL     OW12141   4.492   3.006   4.747
 4034SOL    HW112142   4.414   3.023   4.807
 4034SOL    HW212143   4.526   3.093   4.711
 4035SOL     OW12144   4.409   2.874   4.389
 4035SOL    HW112145   4.478   2.858   4.459
 4035SOL    HW212146   4.336   2.931   4.427
 4036SOL     OW12147   4.059   3.297   4.785
 4036SOL    HW112148   3.981   3.266   4.732
 4036SOL    HW212149   4.117   3.355   4.728
 4037SOL     OW12150   4.162   2.254   5.223
 4037SOL    HW112151   4.244   2.198   5.232
 4037SOL    HW212152   4.081   2.196   5.227
 4038SOL     OW12153   3.955   3.575   4.207
 4038SOL    HW112154   3.989   3.652   4.261
 4038SOL    HW212155   3.999   3.575   4.117
 4039SOL     OW12156   3.954   3.296   4.262
 4039SOL    HW112157   3.928   3.392   4.262
 4039SOL    HW212158   3.883   3.242   4.307
 4040SOL     OW12159   3.964   2.953   4.610
 4040SOL    HW112160   3.978   2.869   4.662
 4040SOL    HW212161   3.909   3.017   4.665
 4041SOL     OW12162   4.344   3.648   5.163
 4041SOL    HW112163   4.252   3.631   5.198
 4041SOL    HW212164   4.372   3.740   5.189
 4042SOL     OW12165   4.330   2.826   3.847
 4042SOL    HW112166   4.337   2.910   3.793
 4042SOL    HW212167   4.376   2.839   3.935
 4043SOL     OW12168   5.318   1.976   5.204
 4043SOL    HW112169   5.300   2.043   5.132
 4043SOL    HW212170   5.315   2.022   5.293
 4044SOL     OW12171   3.846   2.505   4.287
 4044SOL    HW112172   3.801   2.417   4.304
 4044SOL    HW212173   3.845   2.559   4.371
 4045SOL     OW12174   3.751   3.458   3.841
 4045SOL    HW112175   3.732   3.362   3.862
 4045SOL    HW212176   3.718   3.516   3.916
 4046SOL     OW12177   5.413   2.784   4.336
 4046SOL    HW112178   5.508   2.755   4.344
 4046SOL    HW212179   5.405   2.849   4.261
 4047SOL     OW12180   4.337   3.227   4.450
 4047SOL    HW112181   4.288   3.140   4.459
 4047SOL    HW212182   4.314   3.270   4.363
 4048SOL     OW12183   4.533   1.866   4.226
 4048SOL    HW112184   4.573   1.957   4.217
 4048SOL    HW212185   4.433   1.874   4.232
 4049SOL     OW12186   3.921   2.838   4.988
 4049SOL    HW112187   4.010   2.793   4.974
 4049SOL    HW212188   3.848   2.773   4.969
 4050SOL     OW12189   4.322   2.591   3.994
 4050SOL    HW112190   4.346   2.660   3.926
 4050SOL    HW212191   4.244   2.624   4.048
 4051SOL     OW12192   5.005   2.207   4.668
 4051SOL    HW112193   4.919   2.157   4.655
 4051SOL    HW212194   5.067   2.153   4.724
 4052SOL     OW12195   4.531   2.467   5.189
 4052SOL    HW112196   4.484   2.464   5.278
 4052SOL    HW212197   4.480   2.412   5.123
 4053SOL     OW12198   4.715   2.272   4.966
 4053SOL    HW112199   4.638   2.306   5.020
 4053SOL    HW212200   4.681   2.221   4.887
 4054SOL     OW12201   4.765   2.563   4.153
 4054SOL    HW112202   4.791   2.559   4.249
 4054SOL    HW212203   4.680   2.512   4.139
 4055SOL     OW12204   3.800   2.673   4.513
 4055SOL    HW112205   3.899   2.661   4.522
 4055SOL    HW212206   3.776   2.768   4.534
 4056SOL     OW12207   3.854   3.683   5.295
 4056SOL    HW112208   3.844   3.668   5.394
 4056SOL    HW212209   3.768   3.719   5.259
 4057SOL     OW12210   4.589   2.210   3.919
 4057SOL    HW112211   4.648   2.273   3.870
 4057SOL    HW212212   4.608   2.116   3.890
 4058SOL     OW12213   5.086   3.006   4.269
 4058SOL    HW112214   5.169   2.977   4.221
 4058SOL    HW212215   5.037   3.073   4.213
 4059SOL     OW12216   4.274   2.058   4.609
 4059SOL    HW112217   4.269   2.053   4.709
 4059SOL    HW212218   4.276   2.154   4.580
 4060SOL     OW12219   4.732   3.318   4.201
 4060SOL    HW112220   4.686   3.390   4.149
 4060SOL    HW212221   4.728   3.338   4.299
 4061SOL     OW12222   4.075   3.663   4.577
 4061SOL    HW112223   4.125   3.577   4.583
 4061SOL    HW212224   4.140   3.740   4.574
 4062SOL     OW12225   4.045   2.805   3.966
 4062SOL    HW112226   4.127   2.844   3.924
 4062SOL    HW212227   4.018   2.723   3.917
 4063SOL     OW12228   4.835   3.638   3.961
 4063SOL    HW112229   4.775   3.576   4.011
 4063SOL    HW212230   4.866   3.594   3.876
 4064SOL     OW12231   4.188   3.605   4.047
 4064SOL    HW112232   4.221   3.644   4.133
 4064SOL    HW212233   4.264   3.598   3.982
 4065SOL     OW12234   3.973   3.647   4.965
 4065SOL    HW112235   4.030   3.582   5.015
 4065SOL    HW212236   3.957   3.614   4.872
 4066SOL     OW12237   4.664   3.560   4.628
 4066SOL    HW112238   4.744   3.503   4.649
 4066SOL    HW212239   4.615   3.520   4.551
 4067SOL     OW12240   4.106   2.562   4.204
 4067SOL    HW112241   4.151   2.472   4.201
 4067SOL    HW212242   4.012   2.551   4.237
 4068SOL     OW12243   4.338   1.984   3.841
 4068SOL    HW112244   4.436   1.962   3.848
 4068SOL    HW212245   4.307   1.967   3.748
 4069SOL     OW12246   4.612   3.376   4.919
 4069SOL    HW112247   4.589   3.351   4.825
 4069SOL    HW212248   4.673   3.307   4.958
 4070SOL     OW12249   4.527   3.264   4.648
 4070SOL    HW112250   4.617   3.278   4.606
 4070SOL    HW212251   4.456   3.266   4.577
 4071SOL     OW12252   4.646   2.365   4.623
 4071SOL    HW112253   4.621   2.356   4.527
 4071SOL    HW212254   4.694   2.283   4.654
 4072SOL     OW12255   4.263   1.926   4.236
 4072SOL    HW112256   4.182   1.927   4.294
 4072SOL    HW212257   4.266   2.009   4.181
 4073SOL     OW12258   5.158   3.050   3.765
 4073SOL    HW112259   5.190   2.974   3.822
 4073SOL    HW212260   5.066   3.077   3.795
 4074SOL     OW12261   4.021   1.897   3.895
 4074SOL    HW112262   4.070   1.981   3.874
 4074SOL    HW212263   4.083   1.832   3.940
 4075SOL     OW12264   4.659   2.098   4.204
 4075SOL    HW112265   4.611   2.139   4.126
 4075SOL    HW212266   4.758   2.096   4.185
 4076SOL     OW12267   4.951   3.432   4.517
 4076SOL    HW112268   4.972   3.506   4.452
 4076SOL    HW212269   5.019   3.432   4.590
 4077SOL     OW12270   4.183   3.014   4.465
 4077SOL    HW112271   4.112   2.987   4.530
 4077SOL    HW212272   4.157   2.986   4.372
 4078SOL     OW12273   4.995   3.659   4.315
 4078SOL    HW112274   5.039   3.723   4.251
 4078SOL    HW212275   4.945   3.711   4.385
 4079SOL     OW12276   4.756   2.411   3.740
 4079SOL    HW112277   4.715   2.493   3.701
 4079SOL    HW212278   4.820   2.437   3.813
 4080SOL     OW12279   4.285   2.084   4.871
 4080SOL    HW112280   4.323   2.000   4.908
 4080SOL    HW212281   4.197   2.103   4.915
 4081SOL     OW12282   4.590   2.316   4.366
 4081SOL    HW112283   4.558   2.388   4.304
 4081SOL    HW212284   4.614   2.235   4.313
 4082SOL     OW12285   4.741   1.901   4.477
 4082SOL    HW112286   4.669   1.906   4.408
 4082SOL    HW212287   4.717   1.832   4.546
 4083SOL     OW12288   4.212   3.247   3.898
 4083SOL    HW112289   4.125   3.232   3.945
 4083SOL    HW212290   4.195   3.273   3.803
 4084SOL     OW12291   5.114   2.437   3.802
 4084SOL    HW112292   5.060   2.416   3.883
 4084SOL    HW212293   5.205   2.396   3.811
 4085SOL     OW12294   4.251   2.118   4.052
 4085SOL    HW112295   4.278   2.059   3.977
 4085SOL    HW212296   4.251   2.213   4.021
 4086SOL     OW12297   4.835   3.057   4.824
 4086SOL    HW112298   4.795   3.101   4.905
 4086SOL    HW212299   4.794   3.094   4.741
 4087SOL     OW12300   4.429   2.912   4.092
 4087SOL    HW112301   4.415   2.919   4.191
 4087SOL    HW212302   4.513   2.861   4.074
 4088SOL     OW12303   4.134   2.675   4.975
 4088SOL    HW112304   4.220   2.687   5.025
 4088SOL    HW212305   4.092   2.588   5.002
 4089SOL     OW12306   4.998   2.248   4.986
 4089SOL    HW112307   5.019   2.322   5.050
 4089SOL    HW212308   4.909   2.265   4.943
 4090SOL     OW12309   3.788   3.426   5.055
 4090SOL    HW112310   3.742   3.508   5.021
 4090SOL    HW212311   3.886   3.445   5.064
 4091SOL     OW12312   4.091   2.962   4.225
 4091SOL    HW112313   4.084   3.045   4.169
 4091SOL    HW212314   4.095   2.882   4.165
 4092SOL     OW12315   4.290   2.399   4.589
 4092SOL    HW112316   4.302   2.465   4.515
 4092SOL    HW212317   4.336   2.433   4.672
 4093SOL     OW12318   4.976   3.210   4.112
 4093SOL    HW112319   5.026   3.287   4.152
 4093SOL    HW212320   4.881   3.212   4.144
 4094SOL     OW12321   4.996   3.307   4.866
 4094SOL    HW112322   5.043   3.320   4.953
 4094SOL    HW212323   4.930   3.233   4.875
 4095SOL     OW12324   4.078   3.372   5.053
 4095SOL    HW112325   4.057   3.328   4.966
 4095SOL    HW212326   4.175   3.398   5.056
 4096SOL     OW12327   4.297   2.732   4.753
 4096SOL    HW112328   4.341   2.821   4.744
 4096SOL    HW212329   4.234   2.732   4.830
 4097SOL     OW12330   5.084   2.724   4.769
 4097SOL    HW112331   5.009   2.724   4.703
 4097SOL    HW212332   5.121   2.632   4.778
 4098SOL     OW12333   4.933   2.387   3.999
 4098SOL    HW112334   4.946   2.303   4.053
 4098SOL    HW212335   4.904   2.461   4.059
 4099SOL     OW12336   4.031   2.075   4.955
 4099SOL    HW112337   4.008   2.112   5.045
 4099SOL    HW212338   4.001   1.980   4.949
 4100SOL     OW12339   3.761   3.172   5.006
 4100SOL    HW112340   3.814   3.123   5.074
 4100SOL    HW212341   3.783   3.270   5.011
 4101SOL     OW12342   4.456   2.496   4.788
 4101SOL    HW112343   4.515   2.470   4.712
 4101SOL    HW212344   4.428   2.592   4.777
 4102SOL     OW12345   4.031   1.925   4.342
 4102SOL    HW112346   4.020   2.019   4.375
 4102SOL    HW212347   4.026   1.862   4.419
 4103SOL     OW12348   5.346   2.229   4.098
 4103SOL    HW112349   5.348   2.153   4.162
 4103SOL    HW212350   5.298   2.306   4.138
 4104SOL     OW12351   4.747   2.628   4.690
 4104SOL    HW112352   4.762   2.649   4.786
 4104SOL    HW212353   4.717   2.533   4.681
 4105SOL     OW12354   5.027   2.700   3.766
 4105SOL    HW112355   5.061   2.607   3.781
 4105SOL    HW212356   5.045   2.727   3.671
 4106SOL     OW12357   4.792   3.195   4.573
 4106SOL    HW112358   4.799   3.111   4.518
 4106SOL    HW212359   4.854   3.264   4.537
 4107SOL     OW12360   4.043   2.672   4.673
 4107SOL    HW112361   4.136   2.708   4.678
 4107SOL    HW212362   4.037   2.587   4.725
 4108SOL     OW12363   4.063   2.371   4.730
 4108SOL    HW112364   4.011   2.288   4.713
 4108SOL    HW212365   4.140   2.376   4.666
 4109SOL     OW12366   4.884   2.069   5.201
 4109SOL    HW112367   4.884   2.133   5.278
 4109SOL    HW212368   4.912   2.117   5.118
 4110SOL     OW12369   3.732   3.188   3.924
 4110SOL    HW112370   3.639   3.209   3.893
 4110SOL    HW212371   3.742   3.089   3.937
 4111SOL     OW12372   3.812   3.663   4.651
 4111SOL    HW112373   3.770   3.577   4.624
 4111SOL    HW212374   3.906   3.666   4.617
 4112SOL     OW12375   4.228   3.430   4.634
 4112SOL    HW112376   4.294   3.504   4.643
 4112SOL    HW212377   4.272   3.351   4.592
 4113SOL     OW12378   4.726   2.658   4.962
 4113SOL    HW112379   4.767   2.626   5.048
 4113SOL    HW212380   4.630   2.631   4.959
 4114SOL     OW12381   3.764   2.406   4.838
 4114SOL    HW112382   3.849   2.373   4.797
 4114SOL    HW212383   3.777   2.421   4.936
 4115SOL     OW12384   4.539   2.434   4.049
 4115SOL    HW112385   4.546   2.345   4.003
 4115SOL    HW212386   4.445   2.468   4.041
 4116SOL     OW12387   4.395   2.326   4.993
 4116SOL    HW112388   4.361   2.237   4.963
 4116SOL    HW212389   4.421   2.380   4.913
 4117SOL     OW12390   4.654   3.540   5.189
 4117SOL    HW112391   4.630   3.522   5.094
 4117SOL    HW212392   4.684   3.634   5.199
 4118SOL     OW12393   4.197   2.362   3.915
 4118SOL    HW112394   4.258   2.442   3.919
 4118SOL    HW212395   4.102   2.393   3.922
 4119SOL     OW12396   3.883   2.999   5.190
 4119SOL    HW112397   3.905   2.938   5.266
 4119SOL    HW212398   3.893   2.950   5.104
 4120SOL     OW12399   5.071   2.921   4.958
 4120SOL    HW112400   5.095   2.858   4.884
 4120SOL    HW212401   4.981   2.961   4.940
 4121SOL     OW12402   5.026   2.717   4.033
 4121SOL    HW112403   4.940   2.686   4.075
 4121SOL    HW212404   5.022   2.703   3.934
 4122SOL     OW12405   4.976   3.593   4.852
 4122SOL    HW112406   5.060   3.598   4.798
 4122SOL    HW212407   4.953   3.497   4.870
 4123SOL     OW12408   3.807   3.120   4.746
 4123SOL    HW112409   3.802   3.119   4.846
 4123SOL    HW212410   3.724   3.079   4.708
 4124SOL     OW12411   5.112   3.435   4.201
 4124SOL    HW112412   5.179   3.447   4.127
 4124SOL    HW212413   5.072   3.524   4.224
 4125SOL     OW12414   5.004   2.789   4.396
 4125SOL    HW112415   5.064   2.708   4.398
 4125SOL    HW212416   5.044   2.858   4.336
 4126SOL     OW12417   4.396   3.478   3.878
 4126SOL    HW112418   4.405   3.488   3.779
 4126SOL    HW212419   4.356   3.389   3.899
 4127SOL     OW12420   3.987   2.188   4.444
 4127SOL    HW112421   3.908   2.239   4.410
 4127SOL    HW212422   3.978   2.173   4.542
 4128SOL     OW12423   4.918   3.474   3.755
 4128SOL    HW112424   4.924   3.381   3.792
 4128SOL    HW212425   4.859   3.474   3.675
 4129SOL     OW12426   4.546   2.864   5.096
 4129SOL    HW112427   4.586   2.863   5.004
 4129SOL    HW212428   4.556   2.956   5.136
 4130SOL     OW12429   4.640   2.772   4.015
 4130SOL    HW112430   4.703   2.810   3.947
 4130SOL    HW212431   4.680   2.689   4.054
 4131SOL     OW12432   4.096   3.150   5.214
 4131SOL    HW112433   4.083   3.243   5.180
 4131SOL    HW212434   4.012   3.098   5.201
 4132SOL     OW12435   4.763   2.960   4.420
 4132SOL    HW112436   4.693   2.913   4.474
 4132SOL    HW212437   4.822   2.892   4.377
 4133SOL     OW12438   4.738   2.098   4.695
 4133SOL    HW112439   4.730   2.062   4.602
 4133SOL    HW212440   4.736   2.022   4.760
 4134SOL     OW12441   4.314   3.349   4.215
 4134SOL    HW112442   4.356   3.291   4.145
 4134SOL    HW212443   4.270   3.428   4.171
 4135SOL     OW12444   3.979   3.210   4.014
 4135SOL    HW112445   3.883   3.211   3.987
 4135SOL    HW212446   3.991   3.263   4.098
 4136SOL     OW12447   4.396   2.065   5.213
 4136SOL    HW112448   4.486   2.049   5.173
 4136SOL    HW212449   4.404   2.070   5.312
 4137SOL     OW12450   3.799   2.207   3.757
 4137SOL    HW112451   3.707   2.179   3.728
 4137SOL    HW212452   3.830   2.284   3.701
 4138SOL     OW12453   3.796   2.028   4.042
 4138SOL    HW112454   3.779   2.111   3.988
 4138SOL    HW212455   3.886   1.991   4.020
 4139SOL     OW12456   4.907   3.197   3.843
 4139SOL    HW112457   4.808   3.186   3.845
 4139SOL    HW212458   4.941   3.212   3.936
 4140SOL     OW12459   4.337   2.704   5.155
 4140SOL    HW112460   4.393   2.785   5.138
 4140SOL    HW212461   4.396   2.624   5.158
 4141SOL     OW12462   4.114   3.603   5.284
 4141SOL    HW112463   4.023   3.644   5.282
 4141SOL    HW212464   4.107   3.509   5.316
 4142SOL     OW12465   4.949   2.187   4.173
 4142SOL    HW112466   5.014   2.113   4.162
 4142SOL    HW212467   4.969   2.237   4.257
 4143SOL     OW12468   4.318   2.607   4.376
 4143SOL    HW112469   4.368   2.692   4.357
 4143SOL    HW212470   4.230   2.609   4.328
 4144SOL     OW12471   4.583   3.236   3.740
 4144SOL    HW112472   4.537   3.251   3.828
 4144SOL    HW212473   4.627   3.321   3.710
 4145SOL     OW12474   4.385   3.652   4.677
 4145SOL    HW112475   4.339   3.740   4.664
 4145SOL    HW212476   4.484   3.664   4.670
 4146SOL     OW12477   4.583   2.818   4.585
 4146SOL    HW112478   4.637   2.749   4.633
 4146SOL    HW212479   4.551   2.887   4.651
 4147SOL     OW12480   4.807   2.846   3.811
 4147SOL    HW112481   4.784   2.899   3.729
 4147SOL    HW212482   4.888   2.790   3.792
 4148SOL     OW12483   3.803   3.102   4.377
 4148SOL    HW112484   3.802   3.055   4.465
 4148SOL    HW212485   3.885   3.074   4.326
 4149SOL     OW12486   4.152   2.286   4.244
 4149SOL    HW112487   4.182   2.214   4.182
 4149SOL    HW212488   4.113   2.246   4.327
 4150SOL     OW12489   4.041   2.409   5.004
 4150SOL    HW112490   4.079   2.350   5.076
 4150SOL    HW212491   4.081   2.383   4.916
 4151SOL     OW12492   4.536   3.448   4.411
 4151SOL    HW112493   4.568   3.458   4.317
 4151SOL    HW212494   4.457   3.386   4.413
 4152SOL     OW12495   5.148   2.076   4.836
 4152SOL    HW112496   5.200   2.011   4.891
 4152SOL    HW212497   5.099   2.139   4.897
 4153SOL     OW12498   4.725   1.896   4.878
 4153SOL    HW112499   4.662   1.824   4.847
 4153SOL    HW212500   4.818   1.860   4.878
 4154SOL     OW12501   4.494   3.192   4.025
 4154SOL    HW112502   4.448   3.105   4.042
 4154SOL    HW212503   4.585   3.189   4.066
 4155SOL     OW12504   4.342   3.429   5.008
 4155SOL    HW112505   4.337   3.511   5.065
 4155SOL    HW212506   4.431   3.426   4.963
 4156SOL     OW12507   5.076   1.914   3.892
 4156SOL    HW112508   5.111   1.873   3.808
 4156SOL    HW212509   4.986   1.876   3.912
 4157SOL     OW12510   3.763   2.939   4.024
 4157SOL    HW112511   3.862   2.928   4.015
 4157SOL    HW212512   3.723   2.853   4.056
 4158SOL     OW12513   4.599   3.508   4.061
 4158SOL    HW112514   4.522   3.473   4.007
 4158SOL    HW212515   4.567   3.579   4.123
 4159SOL     OW12516   3.954   4.352   0.113
 4159SOL    HW112517   3.861   4.350   0.150
 4159SOL    HW212518   3.955   4.313   0.021
 4160SOL     OW12519   3.949   3.999   0.996
 4160SOL    HW112520   3.984   3.982   1.088
 4160SOL    HW212521   3.861   3.954   0.984
 4161SOL     OW12522   3.743   4.092   0.647
 4161SOL    HW112523   3.661   4.135   0.686
 4161SOL    HW212524   3.715   4.019   0.584
 4162SOL     OW12525   4.293   4.999   1.165
 4162SOL    HW112526   4.200   4.992   1.128
 4162SOL    HW212527   4.304   5.088   1.209
 4163SOL     OW12528   5.279   5.235   0.703
 4163SOL    HW112529   5.222   5.219   0.784
 4163SOL    HW212530   5.220   5.245   0.623
 4164SOL     OW12531   4.859   4.427   0.717
 4164SOL    HW112532   4.916   4.505   0.692
 4164SOL    HW212533   4.799   4.453   0.793
 4165SOL     OW12534   4.492   4.868   1.023
 4165SOL    HW112535   4.414   4.885   1.083
 4165SOL    HW212536   4.526   4.955   0.987
 4166SOL     OW12537   4.574   4.522   1.823
 4166SOL    HW112538   4.570   4.598   1.888
 4166SOL    HW212539   4.596   4.558   1.732
 4167SOL     OW12540   4.409   4.736   0.665
 4167SOL    HW112541   4.478   4.720   0.735
 4167SOL    HW212542   4.336   4.793   0.703
 4168SOL     OW12543   4.410   4.885   1.803
 4168SOL    HW112544   4.470   4.964   1.817
 4168SOL    HW212545   4.324   4.916   1.762
 4169SOL     OW12546   4.059   5.159   1.061
 4169SOL    HW112547   3.981   5.128   1.008
 4169SOL    HW212548   4.117   5.217   1.004
 4170SOL     OW12549   4.162   4.116   1.499
 4170SOL    HW112550   4.244   4.060   1.508
 4170SOL    HW212551   4.081   4.058   1.503
 4171SOL     OW12552   4.851   5.065   1.690
 4171SOL    HW112553   4.898   5.065   1.778
 4171SOL    HW212554   4.803   4.978   1.679
 4172SOL     OW12555   3.964   4.815   0.886
 4172SOL    HW112556   3.978   4.731   0.938
 4172SOL    HW212557   3.909   4.879   0.941
 4173SOL     OW12558   4.330   4.688   0.123
 4173SOL    HW112559   4.337   4.772   0.069
 4173SOL    HW212560   4.376   4.701   0.211
 4174SOL     OW12561   3.846   4.367   0.563
 4174SOL    HW112562   3.801   4.279   0.580
 4174SOL    HW212563   3.845   4.421   0.647
 4175SOL     OW12564   5.413   4.646   0.612
 4175SOL    HW112565   5.508   4.617   0.620
 4175SOL    HW212566   5.405   4.711   0.537
 4176SOL     OW12567   3.837   4.461   1.597
 4176SOL    HW112568   3.925   4.448   1.642
 4176SOL    HW212569   3.824   4.558   1.575
 4177SOL     OW12570   4.337   5.089   0.726
 4177SOL    HW112571   4.288   5.002   0.735
 4177SOL    HW212572   4.314   5.132   0.639
 4178SOL     OW12573   5.017   4.952   1.423
 4178SOL    HW112574   5.054   4.879   1.365
 4178SOL    HW212575   5.069   4.957   1.508
 4179SOL     OW12576   4.533   3.728   0.502
 4179SOL    HW112577   4.573   3.819   0.493
 4179SOL    HW212578   4.433   3.736   0.508
 4180SOL     OW12579   3.921   4.700   1.264
 4180SOL    HW112580   4.010   4.655   1.250
 4180SOL    HW212581   3.848   4.635   1.245
 4181SOL     OW12582   4.041   3.975   1.801
 4181SOL    HW112583   4.112   4.046   1.807
 4181SOL    HW212584   3.953   4.014   1.829
 4182SOL     OW12585   4.322   4.453   0.270
 4182SOL    HW112586   4.346   4.522   0.202
 4182SOL    HW212587   4.244   4.486   0.324
 4183SOL     OW12588   5.005   4.069   0.944
 4183SOL    HW112589   4.919   4.019   0.931
 4183SOL    HW212590   5.067   4.015   1.000
 4184SOL     OW12591   4.531   4.329   1.465
 4184SOL    HW112592   4.484   4.326   1.554
 4184SOL    HW212593   4.480   4.274   1.399
 4185SOL     OW12594   5.118   4.193   1.674
 4185SOL    HW112595   5.098   4.236   1.762
 4185SOL    HW212596   5.196   4.131   1.683
 4186SOL     OW12597   4.697   4.614   1.572
 4186SOL    HW112598   4.743   4.530   1.543
 4186SOL    HW212599   4.641   4.648   1.497
 4187SOL     OW12600   4.715   4.134   1.242
 4187SOL    HW112601   4.638   4.168   1.296
 4187SOL    HW212602   4.681   4.083   1.163
 4188SOL     OW12603   4.765   4.425   0.429
 4188SOL    HW112604   4.791   4.421   0.525
 4188SOL    HW212605   4.680   4.374   0.415
 4189SOL     OW12606   3.800   4.535   0.789
 4189SOL    HW112607   3.899   4.523   0.798
 4189SOL    HW212608   3.776   4.630   0.810
 4190SOL     OW12609   4.589   4.072   0.195
 4190SOL    HW112610   4.648   4.135   0.146
 4190SOL    HW212611   4.608   3.978   0.166
 4191SOL     OW12612   5.086   4.868   0.545
 4191SOL    HW112613   5.169   4.839   0.497
 4191SOL    HW212614   5.037   4.935   0.489
 4192SOL     OW12615   4.274   3.920   0.885
 4192SOL    HW112616   4.269   3.915   0.985
 4192SOL    HW212617   4.276   4.016   0.856
 4193SOL     OW12618   4.045   4.667   0.242
 4193SOL    HW112619   4.127   4.706   0.200
 4193SOL    HW212620   4.018   4.585   0.193
 4194SOL     OW12621   4.185   4.990   1.727
 4194SOL    HW112622   4.135   4.991   1.641
 4194SOL    HW212623   4.122   4.972   1.803
 4195SOL     OW12624   3.926   4.009   1.498
 4195SOL    HW112625   3.846   4.069   1.485
 4195SOL    HW212626   3.916   3.960   1.584
 4196SOL     OW12627   5.356   5.101   0.081
 4196SOL    HW112628   5.324   5.195   0.071
 4196SOL    HW212629   5.280   5.038   0.069
 4197SOL     OW12630   4.106   4.424   0.480
 4197SOL    HW112631   4.151   4.334   0.477
 4197SOL    HW212632   4.012   4.413   0.513
 4198SOL     OW12633   4.505   3.988   1.749
 4198SOL    HW112634   4.572   3.927   1.792
 4198SOL    HW212635   4.432   4.007   1.814
 4199SOL     OW12636   5.075   4.314   1.433
 4199SOL    HW112637   5.103   4.271   1.518
 4199SOL    HW212638   5.100   4.410   1.434
 4200SOL     OW12639   4.646   4.227   0.899
 4200SOL    HW112640   4.621   4.218   0.803
 4200SOL    HW212641   4.694   4.145   0.930
 4201SOL     OW12642   4.263   3.788   0.512
 4201SOL    HW112643   4.182   3.789   0.570
 4201SOL    HW212644   4.266   3.871   0.457
 4202SOL     OW12645   5.158   4.912   0.041
 4202SOL    HW112646   5.190   4.836   0.098
 4202SOL    HW212647   5.066   4.939   0.071
 4203SOL     OW12648   4.659   3.960   0.480
 4203SOL    HW112649   4.611   4.001   0.402
 4203SOL    HW212650   4.758   3.958   0.461
 4204SOL     OW12651   4.800   4.407   1.464
 4204SOL    HW112652   4.720   4.346   1.467
 4204SOL    HW212653   4.881   4.354   1.440
 4205SOL     OW12654   4.951   5.294   0.793
 4205SOL    HW112655   4.972   5.368   0.728
 4205SOL    HW212656   5.019   5.294   0.866
 4206SOL     OW12657   4.183   4.876   0.741
 4206SOL    HW112658   4.112   4.849   0.806
 4206SOL    HW212659   4.157   4.848   0.648
 4207SOL     OW12660   4.756   4.273   0.016
 4207SOL    HW112661   4.715   4.355  -0.023
 4207SOL    HW212662   4.820   4.299   0.089
 4208SOL     OW12663   3.802   4.280   1.386
 4208SOL    HW112664   3.894   4.279   1.345
 4208SOL    HW212665   3.796   4.354   1.453
 4209SOL     OW12666   4.285   3.946   1.147
 4209SOL    HW112667   4.323   3.862   1.184
 4209SOL    HW212668   4.197   3.965   1.191
 4210SOL     OW12669   4.590   4.178   0.642
 4210SOL    HW112670   4.558   4.250   0.580
 4210SOL    HW212671   4.614   4.097   0.589
 4211SOL     OW12672   4.741   3.763   0.753
 4211SOL    HW112673   4.669   3.768   0.684
 4211SOL    HW212674   4.717   3.694   0.822
 4212SOL     OW12675   5.114   4.299   0.078
 4212SOL    HW112676   5.060   4.278   0.159
 4212SOL    HW212677   5.205   4.258   0.087
 4213SOL     OW12678   4.251   3.980   0.328
 4213SOL    HW112679   4.278   3.921   0.253
 4213SOL    HW212680   4.251   4.075   0.297
 4214SOL     OW12681   4.788   5.071   1.340
 4214SOL    HW112682   4.708   5.048   1.395
 4214SOL    HW212683   4.871   5.045   1.389
 4215SOL     OW12684   4.835   4.919   1.100
 4215SOL    HW112685   4.795   4.963   1.181
 4215SOL    HW212686   4.794   4.956   1.017
 4216SOL     OW12687   4.639   3.813   1.402
 4216SOL    HW112688   4.664   3.793   1.307
 4216SOL    HW212689   4.711   3.869   1.444
 4217SOL     OW12690   4.704   4.840   1.719
 4217SOL    HW112691   4.605   4.846   1.729
 4217SOL    HW212692   4.727   4.760   1.663
 4218SOL     OW12693   4.429   4.774   0.368
 4218SOL    HW112694   4.415   4.781   0.467
 4218SOL    HW212695   4.513   4.723   0.350
 4219SOL     OW12696   4.134   4.537   1.251
 4219SOL    HW112697   4.220   4.549   1.301
 4219SOL    HW212698   4.092   4.450   1.278
 4220SOL     OW12699   4.998   4.110   1.262
 4220SOL    HW112700   5.019   4.184   1.326
 4220SOL    HW212701   4.909   4.127   1.219
 4221SOL     OW12702   4.091   4.824   0.501
 4221SOL    HW112703   4.084   4.907   0.445
 4221SOL    HW212704   4.095   4.744   0.441
 4222SOL     OW12705   4.290   4.261   0.865
 4222SOL    HW112706   4.302   4.327   0.791
 4222SOL    HW212707   4.336   4.295   0.948
 4223SOL     OW12708   4.976   5.072   0.388
 4223SOL    HW112709   5.026   5.149   0.428
 4223SOL    HW212710   4.881   5.074   0.420
 4224SOL     OW12711   4.126   4.475   1.598
 4224SOL    HW112712   4.194   4.530   1.551
 4224SOL    HW212713   4.166   4.387   1.625
 4225SOL     OW12714   4.737   3.829   1.770
 4225SOL    HW112715   4.743   3.914   1.718
 4225SOL    HW212716   4.769   3.753   1.713
 4226SOL     OW12717   4.228   3.774   1.740
 4226SOL    HW112718   4.186   3.717   1.670
 4226SOL    HW212719   4.162   3.843   1.772
 4227SOL     OW12720   4.297   4.594   1.029
 4227SOL    HW112721   4.341   4.683   1.020
 4227SOL    HW212722   4.234   4.594   1.106
 4228SOL     OW12723   5.084   4.586   1.045
 4228SOL    HW112724   5.009   4.586   0.979
 4228SOL    HW212725   5.121   4.494   1.054
 4229SOL     OW12726   4.933   4.249   0.275
 4229SOL    HW112727   4.946   4.165   0.329
 4229SOL    HW212728   4.904   4.323   0.335
 4230SOL     OW12729   4.031   3.937   1.231
 4230SOL    HW112730   4.008   3.974   1.321
 4230SOL    HW212731   4.001   3.842   1.225
 4231SOL     OW12732   3.761   5.034   1.282
 4231SOL    HW112733   3.814   4.985   1.350
 4231SOL    HW212734   3.783   5.132   1.287
 4232SOL     OW12735   4.456   4.358   1.064
 4232SOL    HW112736   4.515   4.332   0.988
 4232SOL    HW212737   4.428   4.454   1.053
 4233SOL     OW12738   4.031   3.787   0.618
 4233SOL    HW112739   4.020   3.881   0.651
 4233SOL    HW212740   4.026   3.724   0.695
 4234SOL     OW12741   5.346   4.091   0.374
 4234SOL    HW112742   5.348   4.015   0.438
 4234SOL    HW212743   5.298   4.168   0.414
 4235SOL     OW12744   4.747   4.490   0.966
 4235SOL    HW112745   4.762   4.511   1.062
 4235SOL    HW212746   4.717   4.395   0.957
 4236SOL     OW12747   4.074   4.622   1.804
 4236SOL    HW112748   4.150   4.666   1.852
 4236SOL    HW212749   4.109   4.575   1.722
 4237SOL     OW12750   5.027   4.562   0.042
 4237SOL    HW112751   5.061   4.469   0.057
 4237SOL    HW212752   5.045   4.589  -0.053
 4238SOL     OW12753   4.043   4.534   0.949
 4238SOL    HW112754   4.136   4.570   0.954
 4238SOL    HW212755   4.037   4.449   1.001
 4239SOL     OW12756   4.063   4.233   1.006
 4239SOL    HW112757   4.011   4.150   0.989
 4239SOL    HW212758   4.140   4.238   0.942
 4240SOL     OW12759   4.862   4.104   1.678
 4240SOL    HW112760   4.817   4.167   1.742
 4240SOL    HW212761   4.955   4.135   1.661
 4241SOL     OW12762   4.884   3.931   1.477
 4241SOL    HW112763   4.884   3.995   1.554
 4241SOL    HW212764   4.912   3.979   1.394
 4242SOL     OW12765   4.726   4.520   1.238
 4242SOL    HW112766   4.767   4.488   1.324
 4242SOL    HW212767   4.630   4.493   1.235
 4243SOL     OW12768   3.764   4.268   1.114
 4243SOL    HW112769   3.849   4.235   1.073
 4243SOL    HW212770   3.777   4.283   1.212
 4244SOL     OW12771   3.913   4.244   1.722
 4244SOL    HW112772   3.972   4.204   1.652
 4244SOL    HW212773   3.855   4.315   1.681
 4245SOL     OW12774   4.539   4.296   0.325
 4245SOL    HW112775   4.546   4.207   0.279
 4245SOL    HW212776   4.445   4.330   0.317
 4246SOL     OW12777   4.395   4.188   1.269
 4246SOL    HW112778   4.361   4.099   1.239
 4246SOL    HW212779   4.421   4.242   1.189
 4247SOL     OW12780   4.197   4.224   0.191
 4247SOL    HW112781   4.258   4.304   0.195
 4247SOL    HW212782   4.102   4.255   0.198
 4248SOL     OW12783   3.883   4.861   1.466
 4248SOL    HW112784   3.905   4.800   1.542
 4248SOL    HW212785   3.893   4.812   1.380
 4249SOL     OW12786   5.071   4.783   1.234
 4249SOL    HW112787   5.095   4.720   1.160
 4249SOL    HW212788   4.981   4.823   1.216
 4250SOL     OW12789   5.026   4.579   0.309
 4250SOL    HW112790   4.940   4.548   0.351
 4250SOL    HW212791   5.022   4.565   0.210
 4251SOL     OW12792   3.807   4.982   1.022
 4251SOL    HW112793   3.802   4.981   1.122
 4251SOL    HW212794   3.724   4.941   0.984
 4252SOL     OW12795   4.627   3.810   0.133
 4252SOL    HW112796   4.678   3.811   0.047
 4252SOL    HW212797   4.683   3.768   0.204
 4253SOL     OW12798   5.004   4.651   0.672
 4253SOL    HW112799   5.064   4.570   0.674
 4253SOL    HW212800   5.044   4.720   0.612
 4254SOL     OW12801   4.554   4.997   1.422
 4254SOL    HW112802   4.549   5.030   1.517
 4254SOL    HW212803   4.468   5.016   1.376
 4255SOL     OW12804   3.987   4.050   0.720
 4255SOL    HW112805   3.908   4.101   0.686
 4255SOL    HW212806   3.978   4.035   0.818
 4256SOL     OW12807   4.546   4.726   1.372
 4256SOL    HW112808   4.586   4.725   1.280
 4256SOL    HW212809   4.556   4.818   1.412
 4257SOL     OW12810   4.640   4.634   0.291
 4257SOL    HW112811   4.703   4.672   0.223
 4257SOL    HW212812   4.680   4.551   0.330
 4258SOL     OW12813   4.096   5.012   1.490
 4258SOL    HW112814   4.083   5.105   1.456
 4258SOL    HW212815   4.012   4.960   1.477
 4259SOL     OW12816   4.763   4.822   0.696
 4259SOL    HW112817   4.693   4.775   0.750
 4259SOL    HW212818   4.822   4.754   0.653
 4260SOL     OW12819   4.738   3.960   0.971
 4260SOL    HW112820   4.730   3.924   0.878
 4260SOL    HW212821   4.736   3.884   1.036
 4261SOL     OW12822   3.829   4.737   1.726
 4261SOL    HW112823   3.752   4.704   1.780
 4261SOL    HW212824   3.914   4.707   1.768
 4262SOL     OW12825   4.396   3.927   1.489
 4262SOL    HW112826   4.486   3.911   1.449
 4262SOL    HW212827   4.404   3.932   1.588
 4263SOL     OW12828   3.799   4.069   0.033
 4263SOL    HW112829   3.707   4.041   0.004
 4263SOL    HW212830   3.830   4.146  -0.023
 4264SOL     OW12831   5.164   4.580   1.398
 4264SOL    HW112832   5.107   4.632   1.335
 4264SOL    HW212833   5.260   4.592   1.374
 4265SOL     OW12834   3.796   3.890   0.318
 4265SOL    HW112835   3.779   3.973   0.264
 4265SOL    HW212836   3.886   3.853   0.296
 4266SOL     OW12837   4.337   4.566   1.431
 4266SOL    HW112838   4.393   4.647   1.414
 4266SOL    HW212839   4.396   4.486   1.434
 4267SOL     OW12840   4.440   4.289   1.708
 4267SOL    HW112841   4.459   4.354   1.782
 4267SOL    HW212842   4.500   4.209   1.717
 4268SOL     OW12843   5.174   4.944   1.633
 4268SOL    HW112844   5.165   4.934   1.732
 4268SOL    HW212845   5.270   4.937   1.607
 4269SOL     OW12846   4.949   4.049   0.449
 4269SOL    HW112847   5.014   3.975   0.438
 4269SOL    HW212848   4.969   4.099   0.533
 4270SOL     OW12849   4.318   4.469   0.652
 4270SOL    HW112850   4.368   4.554   0.633
 4270SOL    HW212851   4.230   4.471   0.604
 4271SOL     OW12852   4.583   4.680   0.861
 4271SOL    HW112853   4.637   4.611   0.909
 4271SOL    HW212854   4.551   4.749   0.927
 4272SOL     OW12855   4.807   4.708   0.087
 4272SOL    HW112856   4.784   4.761   0.005
 4272SOL    HW212857   4.888   4.652   0.068
 4273SOL     OW12858   3.945   5.038   1.844
 4273SOL    HW112859   3.880   4.965   1.823
 4273SOL    HW212860   3.949   5.052   1.942
 4274SOL     OW12861   3.803   4.964   0.653
 4274SOL    HW112862   3.802   4.917   0.741
 4274SOL    HW212863   3.885   4.936   0.602
 4275SOL     OW12864   4.396   5.115   1.624
 4275SOL    HW112865   4.318   5.065   1.662
 4275SOL    HW212866   4.393   5.210   1.655
 4276SOL     OW12867   4.152   4.148   0.520
 4276SOL    HW112868   4.182   4.076   0.458
 4276SOL    HW212869   4.113   4.108   0.603
 4277SOL     OW12870   4.041   4.271   1.280
 4277SOL    HW112871   4.079   4.212   1.352
 4277SOL    HW212872   4.081   4.245   1.192
 4278SOL     OW12873   5.148   3.938   1.112
 4278SOL    HW112874   5.200   3.873   1.167
 4278SOL    HW212875   5.099   4.001   1.173
 4279SOL     OW12876   4.725   3.758   1.154
 4279SOL    HW112877   4.662   3.686   1.123
 4279SOL    HW212878   4.818   3.722   1.154
 4280SOL     OW12879   4.494   5.054   0.301
 4280SOL    HW112880   4.448   4.967   0.318
 4280SOL    HW212881   4.585   5.051   0.342
 4281SOL     OW12882   3.763   4.801   0.300
 4281SOL    HW112883   3.862   4.790   0.291
 4281SOL    HW212884   3.723   4.715   0.332
 4282SOL     OW12885   3.954   4.352   1.975
 4282SOL    HW112886   3.861   4.350   2.012
 4282SOL    HW212887   3.955   4.313   1.883
 4283SOL     OW12888   3.949   3.999   2.858
 4283SOL    HW112889   3.984   3.982   2.950
 4283SOL    HW212890   3.861   3.954   2.846
 4284SOL     OW12891   3.743   4.092   2.509
 4284SOL    HW112892   3.661   4.135   2.548
 4284SOL    HW212893   3.715   4.019   2.446
 4285SOL     OW12894   4.293   4.999   3.027
 4285SOL    HW112895   4.200   4.992   2.990
 4285SOL    HW212896   4.304   5.088   3.071
 4286SOL     OW12897   5.279   5.235   2.565
 4286SOL    HW112898   5.222   5.219   2.646
 4286SOL    HW212899   5.220   5.245   2.485
 4287SOL     OW12900   4.859   4.427   2.579
 4287SOL    HW112901   4.916   4.505   2.554
 4287SOL    HW212902   4.799   4.453   2.655
 4288SOL     OW12903   4.492   4.868   2.885
 4288SOL    HW112904   4.414   4.885   2.945
 4288SOL    HW212905   4.526   4.955   2.849
 4289SOL     OW12906   4.574   4.522   3.685
 4289SOL    HW112907   4.570   4.598   3.750
 4289SOL    HW212908   4.596   4.558   3.594
 4290SOL     OW12909   4.409   4.736   2.527
 4290SOL    HW112910   4.478   4.720   2.597
 4290SOL    HW212911   4.336   4.793   2.565
 4291SOL     OW12912   4.410   4.885   3.665
 4291SOL    HW112913   4.470   4.964   3.679
 4291SOL    HW212914   4.324   4.916   3.624
 4292SOL     OW12915   4.059   5.159   2.923
 4292SOL    HW112916   3.981   5.128   2.870
 4292SOL    HW212917   4.117   5.217   2.866
 4293SOL     OW12918   4.162   4.116   3.361
 4293SOL    HW112919   4.244   4.060   3.370
 4293SOL    HW212920   4.081   4.058   3.365
 4294SOL     OW12921   4.851   5.065   3.552
 4294SOL    HW112922   4.898   5.065   3.640
 4294SOL    HW212923   4.803   4.978   3.541
 4295SOL     OW12924   3.964   4.815   2.748
 4295SOL    HW112925   3.978   4.731   2.800
 4295SOL    HW212926   3.909   4.879   2.803
 4296SOL     OW12927   4.330   4.688   1.985
 4296SOL    HW112928   4.337   4.772   1.931
 4296SOL    HW212929   4.376   4.701   2.073
 4297SOL     OW12930   3.846   4.367   2.425
 4297SOL    HW112931   3.801   4.279   2.442
 4297SOL    HW212932   3.845   4.421   2.509
 4298SOL     OW12933   5.413   4.646   2.474
 4298SOL    HW112934   5.508   4.617   2.482
 4298SOL    HW212935   5.405   4.711   2.399
 4299SOL     OW12936   3.837   4.461   3.459
 4299SOL    HW112937   3.925   4.448   3.504
 4299SOL    HW212938   3.824   4.558   3.437
 4300SOL     OW12939   4.337   5.089   2.588
 4300SOL    HW112940   4.288   5.002   2.597
 4300SOL    HW212941   4.314   5.132   2.501
 4301SOL     OW12942   5.017   4.952   3.285
 4301SOL    HW112943   5.054   4.879   3.227
 4301SOL    HW212944   5.069   4.957   3.370
 4302SOL     OW12945   4.533   3.728   2.364
 4302SOL    HW112946   4.573   3.819   2.355
 4302SOL    HW212947   4.433   3.736   2.370
 4303SOL     OW12948   3.921   4.700   3.126
 4303SOL    HW112949   4.010   4.655   3.112
 4303SOL    HW212950   3.848   4.635   3.107
 4304SOL     OW12951   4.041   3.975   3.663
 4304SOL    HW112952   4.112   4.046   3.669
 4304SOL    HW212953   3.953   4.014   3.691
 4305SOL     OW12954   4.322   4.453   2.132
 4305SOL    HW112955   4.346   4.522   2.064
 4305SOL    HW212956   4.244   4.486   2.186
 4306SOL     OW12957   5.005   4.069   2.806
 4306SOL    HW112958   4.919   4.019   2.793
 4306SOL    HW212959   5.067   4.015   2.862
 4307SOL     OW12960   4.531   4.329   3.327
 4307SOL    HW112961   4.484   4.326   3.416
 4307SOL    HW212962   4.480   4.274   3.261
 4308SOL     OW12963   5.118   4.193   3.536
 4308SOL    HW112964   5.098   4.236   3.624
 4308SOL    HW212965   5.196   4.131   3.545
 4309SOL     OW12966   4.697   4.614   3.434
 4309SOL    HW112967   4.743   4.530   3.405
 4309SOL    HW212968   4.641   4.648   3.359
 4310SOL     OW12969   4.715   4.134   3.104
 4310SOL    HW112970   4.638   4.168   3.158
 4310SOL    HW212971   4.681   4.083   3.025
 4311SOL     OW12972   4.765   4.425   2.291
 4311SOL    HW112973   4.791   4.421   2.387
 4311SOL    HW212974   4.680   4.374   2.277
 4312SOL     OW12975   3.800   4.535   2.651
 4312SOL    HW112976   3.899   4.523   2.660
 4312SOL    HW212977   3.776   4.630   2.672
 4313SOL     OW12978   4.589   4.072   2.057
 4313SOL    HW112979   4.648   4.135   2.008
 4313SOL    HW212980   4.608   3.978   2.028
 4314SOL     OW12981   5.086   4.868   2.407
 4314SOL    HW112982   5.169   4.839   2.359
 4314SOL    HW212983   5.037   4.935   2.351
 4315SOL     OW12984   4.274   3.920   2.747
 4315SOL    HW112985   4.269   3.915   2.847
 4315SOL    HW212986   4.276   4.016   2.718
 4316SOL     OW12987   4.045   4.667   2.104
 4316SOL    HW112988   4.127   4.706   2.062
 4316SOL    HW212989   4.018   4.585   2.055
 4317SOL     OW12990   4.185   4.990   3.589
 4317SOL    HW112991   4.135   4.991   3.503
 4317SOL    HW212992   4.122   4.972   3.665
 4318SOL     OW12993   3.926   4.009   3.360
 4318SOL    HW112994   3.846   4.069   3.347
 4318SOL    HW212995   3.916   3.960   3.446
 4319SOL     OW12996   4.106   4.424   2.342
 4319SOL    HW112997   4.151   4.334   2.339
 4319SOL    HW212998   4.012   4.413   2.375
 4320SOL     OW12999   4.338   3.846   1.979
 4320SOL    HW113000   4.436   3.824   1.986
 4320SOL    HW213001   4.307   3.829   1.886
 4321SOL     OW13002   4.505   3.988   3.611
 4321SOL    HW113003   4.572   3.927   3.654
 4321SOL    HW213004   4.432   4.007   3.676
 4322SOL     OW13005   5.075   4.314   3.295
 4322SOL    HW113006   5.103   4.271   3.380
 4322SOL    HW213007   5.100   4.410   3.296
 4323SOL     OW13008   4.646   4.227   2.761
 4323SOL    HW113009   4.621   4.218   2.665
 4323SOL    HW213010   4.694   4.145   2.792
 4324SOL     OW13011   4.263   3.788   2.374
 4324SOL    HW113012   4.182   3.789   2.432
 4324SOL    HW213013   4.266   3.871   2.319
 4325SOL     OW13014   5.158   4.912   1.903
 4325SOL    HW113015   5.190   4.836   1.960
 4325SOL    HW213016   5.066   4.939   1.933
 4326SOL     OW13017   4.021   3.759   2.033
 4326SOL    HW113018   4.070   3.843   2.012
 4326SOL    HW213019   4.083   3.694   2.078
 4327SOL     OW13020   4.659   3.960   2.342
 4327SOL    HW113021   4.611   4.001   2.264
 4327SOL    HW213022   4.758   3.958   2.323
 4328SOL     OW13023   4.800   4.407   3.326
 4328SOL    HW113024   4.720   4.346   3.329
 4328SOL    HW213025   4.881   4.354   3.302
 4329SOL     OW13026   4.951   5.294   2.655
 4329SOL    HW113027   4.972   5.368   2.590
 4329SOL    HW213028   5.019   5.294   2.728
 4330SOL     OW13029   4.183   4.876   2.603
 4330SOL    HW113030   4.112   4.849   2.668
 4330SOL    HW213031   4.157   4.848   2.510
 4331SOL     OW13032   4.756   4.273   1.878
 4331SOL    HW113033   4.715   4.355   1.839
 4331SOL    HW213034   4.820   4.299   1.951
 4332SOL     OW13035   3.802   4.280   3.248
 4332SOL    HW113036   3.894   4.279   3.207
 4332SOL    HW213037   3.796   4.354   3.315
 4333SOL     OW13038   4.285   3.946   3.009
 4333SOL    HW113039   4.323   3.862   3.046
 4333SOL    HW213040   4.197   3.965   3.053
 4334SOL     OW13041   4.590   4.178   2.504
 4334SOL    HW113042   4.558   4.250   2.442
 4334SOL    HW213043   4.614   4.097   2.451
 4335SOL     OW13044   4.741   3.763   2.615
 4335SOL    HW113045   4.669   3.768   2.546
 4335SOL    HW213046   4.717   3.694   2.684
 4336SOL     OW13047   5.114   4.299   1.940
 4336SOL    HW113048   5.060   4.278   2.021
 4336SOL    HW213049   5.205   4.258   1.949
 4337SOL     OW13050   4.251   3.980   2.190
 4337SOL    HW113051   4.278   3.921   2.115
 4337SOL    HW213052   4.251   4.075   2.159
 4338SOL     OW13053   4.788   5.071   3.202
 4338SOL    HW113054   4.708   5.048   3.257
 4338SOL    HW213055   4.871   5.045   3.251
 4339SOL     OW13056   4.835   4.919   2.962
 4339SOL    HW113057   4.795   4.963   3.043
 4339SOL    HW213058   4.794   4.956   2.879
 4340SOL     OW13059   4.639   3.813   3.264
 4340SOL    HW113060   4.664   3.793   3.169
 4340SOL    HW213061   4.711   3.869   3.306
 4341SOL     OW13062   4.704   4.840   3.581
 4341SOL    HW113063   4.605   4.846   3.591
 4341SOL    HW213064   4.727   4.760   3.525
 4342SOL     OW13065   4.429   4.774   2.230
 4342SOL    HW113066   4.415   4.781   2.329
 4342SOL    HW213067   4.513   4.723   2.212
 4343SOL     OW13068   4.134   4.537   3.113
 4343SOL    HW113069   4.220   4.549   3.163
 4343SOL    HW213070   4.092   4.450   3.140
 4344SOL     OW13071   4.998   4.110   3.124
 4344SOL    HW113072   5.019   4.184   3.188
 4344SOL    HW213073   4.909   4.127   3.081
 4345SOL     OW13074   4.091   4.824   2.363
 4345SOL    HW113075   4.084   4.907   2.307
 4345SOL    HW213076   4.095   4.744   2.303
 4346SOL     OW13077   4.290   4.261   2.727
 4346SOL    HW113078   4.302   4.327   2.653
 4346SOL    HW213079   4.336   4.295   2.810
 4347SOL     OW13080   4.976   5.072   2.250
 4347SOL    HW113081   5.026   5.149   2.290
 4347SOL    HW213082   4.881   5.074   2.282
 4348SOL     OW13083   4.126   4.475   3.460
 4348SOL    HW113084   4.194   4.530   3.413
 4348SOL    HW213085   4.166   4.387   3.487
 4349SOL     OW13086   4.737   3.829   3.632
 4349SOL    HW113087   4.743   3.914   3.580
 4349SOL    HW213088   4.769   3.753   3.575
 4350SOL     OW13089   4.228   3.774   3.602
 4350SOL    HW113090   4.186   3.717   3.532
 4350SOL    HW213091   4.162   3.843   3.634
 4351SOL     OW13092   4.297   4.594   2.891
 4351SOL    HW113093   4.341   4.683   2.882
 4351SOL    HW213094   4.234   4.594   2.968
 4352SOL     OW13095   5.084   4.586   2.907
 4352SOL    HW113096   5.009   4.586   2.841
 4352SOL    HW213097   5.121   4.494   2.916
 4353SOL     OW13098   4.933   4.249   2.137
 4353SOL    HW113099   4.946   4.165   2.191
 4353SOL    HW213100   4.904   4.323   2.197
 4354SOL     OW13101   4.031   3.937   3.093
 4354SOL    HW113102   4.008   3.974   3.183
 4354SOL    HW213103   4.001   3.842   3.087
 4355SOL     OW13104   3.761   5.034   3.144
 4355SOL    HW113105   3.814   4.985   3.212
 4355SOL    HW213106   3.783   5.132   3.149
 4356SOL     OW13107   4.456   4.358   2.926
 4356SOL    HW113108   4.515   4.332   2.850
 4356SOL    HW213109   4.428   4.454   2.915
 4357SOL     OW13110   4.031   3.787   2.480
 4357SOL    HW113111   4.020   3.881   2.513
 4357SOL    HW213112   4.026   3.724   2.557
 4358SOL     OW13113   5.346   4.091   2.236
 4358SOL    HW113114   5.348   4.015   2.300
 4358SOL    HW213115   5.298   4.168   2.276
 4359SOL     OW13116   4.747   4.490   2.828
 4359SOL    HW113117   4.762   4.511   2.924
 4359SOL    HW213118   4.717   4.395   2.819
 4360SOL     OW13119   4.074   4.622   3.666
 4360SOL    HW113120   4.150   4.666   3.714
 4360SOL    HW213121   4.109   4.575   3.584
 4361SOL     OW13122   5.027   4.562   1.904
 4361SOL    HW113123   5.061   4.469   1.919
 4361SOL    HW213124   5.045   4.589   1.809
 4362SOL     OW13125   4.043   4.534   2.811
 4362SOL    HW113126   4.136   4.570   2.816
 4362SOL    HW213127   4.037   4.449   2.863
 4363SOL     OW13128   4.063   4.233   2.868
 4363SOL    HW113129   4.011   4.150   2.851
 4363SOL    HW213130   4.140   4.238   2.804
 4364SOL     OW13131   4.862   4.104   3.540
 4364SOL    HW113132   4.817   4.167   3.604
 4364SOL    HW213133   4.955   4.135   3.523
 4365SOL     OW13134   4.884   3.931   3.339
 4365SOL    HW113135   4.884   3.995   3.416
 4365SOL    HW213136   4.912   3.979   3.256
 4366SOL     OW13137   3.732   5.050   2.062
 4366SOL    HW113138   3.639   5.071   2.031
 4366SOL    HW213139   3.742   4.951   2.075
 4367SOL     OW13140   4.726   4.520   3.100
 4367SOL    HW113141   4.767   4.488   3.186
 4367SOL    HW213142   4.630   4.493   3.097
 4368SOL     OW13143   3.764   4.268   2.976
 4368SOL    HW113144   3.849   4.235   2.935
 4368SOL    HW213145   3.777   4.283   3.074
 4369SOL     OW13146   3.913   4.244   3.584
 4369SOL    HW113147   3.972   4.204   3.514
 4369SOL    HW213148   3.855   4.315   3.543
 4370SOL     OW13149   4.539   4.296   2.187
 4370SOL    HW113150   4.546   4.207   2.141
 4370SOL    HW213151   4.445   4.330   2.179
 4371SOL     OW13152   4.395   4.188   3.131
 4371SOL    HW113153   4.361   4.099   3.101
 4371SOL    HW213154   4.421   4.242   3.051
 4372SOL     OW13155   4.197   4.224   2.053
 4372SOL    HW113156   4.258   4.304   2.057
 4372SOL    HW213157   4.102   4.255   2.060
 4373SOL     OW13158   3.883   4.861   3.328
 4373SOL    HW113159   3.905   4.800   3.404
 4373SOL    HW213160   3.893   4.812   3.242
 4374SOL     OW13161   5.071   4.783   3.096
 4374SOL    HW113162   5.095   4.720   3.022
 4374SOL    HW213163   4.981   4.823   3.078
 4375SOL     OW13164   5.026   4.579   2.171
 4375SOL    HW113165   4.940   4.548   2.213
 4375SOL    HW213166   5.022   4.565   2.072
 4376SOL     OW13167   3.807   4.982   2.884
 4376SOL    HW113168   3.802   4.981   2.984
 4376SOL    HW213169   3.724   4.941   2.846
 4377SOL     OW13170   5.004   4.651   2.534
 4377SOL    HW113171   5.064   4.570   2.536
 4377SOL    HW213172   5.044   4.720   2.474
 4378SOL     OW13173   4.554   4.997   3.284
 4378SOL    HW113174   4.549   5.030   3.379
 4378SOL    HW213175   4.468   5.016   3.238
 4379SOL     OW13176   3.987   4.050   2.582
 4379SOL    HW113177   3.908   4.101   2.548
 4379SOL    HW213178   3.978   4.035   2.680
 4380SOL     OW13179   4.546   4.726   3.234
 4380SOL    HW113180   4.586   4.725   3.142
 4380SOL    HW213181   4.556   4.818   3.274
 4381SOL     OW13182   4.640   4.634   2.153
 4381SOL    HW113183   4.703   4.672   2.085
 4381SOL    HW213184   4.680   4.551   2.192
 4382SOL     OW13185   4.096   5.012   3.352
 4382SOL    HW113186   4.083   5.105   3.318
 4382SOL    HW213187   4.012   4.960   3.339
 4383SOL     OW13188   4.763   4.822   2.558
 4383SOL    HW113189   4.693   4.775   2.612
 4383SOL    HW213190   4.822   4.754   2.515
 4384SOL     OW13191   4.738   3.960   2.833
 4384SOL    HW113192   4.730   3.924   2.740
 4384SOL    HW213193   4.736   3.884   2.898
 4385SOL     OW13194   3.829   4.737   3.588
 4385SOL    HW113195   3.752   4.704   3.642
 4385SOL    HW213196   3.914   4.707   3.630
 4386SOL     OW13197   4.396   3.927   3.351
 4386SOL    HW113198   4.486   3.911   3.311
 4386SOL    HW213199   4.404   3.932   3.450
 4387SOL     OW13200   3.799   4.069   1.895
 4387SOL    HW113201   3.707   4.041   1.866
 4387SOL    HW213202   3.830   4.146   1.839
 4388SOL     OW13203   5.164   4.580   3.260
 4388SOL    HW113204   5.107   4.632   3.197
 4388SOL    HW213205   5.260   4.592   3.236
 4389SOL     OW13206   3.796   3.890   2.180
 4389SOL    HW113207   3.779   3.973   2.126
 4389SOL    HW213208   3.886   3.853   2.158
 4390SOL     OW13209   4.337   4.566   3.293
 4390SOL    HW113210   4.393   4.647   3.276
 4390SOL    HW213211   4.396   4.486   3.296
 4391SOL     OW13212   4.440   4.289   3.570
 4391SOL    HW113213   4.459   4.354   3.644
 4391SOL    HW213214   4.500   4.209   3.579
 4392SOL     OW13215   5.174   4.944   3.495
 4392SOL    HW113216   5.165   4.934   3.594
 4392SOL    HW213217   5.270   4.937   3.469
 4393SOL     OW13218   4.949   4.049   2.311
 4393SOL    HW113219   5.014   3.975   2.300
 4393SOL    HW213220   4.969   4.099   2.395
 4394SOL     OW13221   4.318   4.469   2.514
 4394SOL    HW113222   4.368   4.554   2.495
 4394SOL    HW213223   4.230   4.471   2.466
 4395SOL     OW13224   4.583   5.098   1.878
 4395SOL    HW113225   4.537   5.113   1.966
 4395SOL    HW213226   4.627   5.183   1.848
 4396SOL     OW13227   4.583   4.680   2.723
 4396SOL    HW113228   4.637   4.611   2.771
 4396SOL    HW213229   4.551   4.749   2.789
 4397SOL     OW13230   4.807   4.708   1.949
 4397SOL    HW113231   4.784   4.761   1.867
 4397SOL    HW213232   4.888   4.652   1.930
 4398SOL     OW13233   3.945   5.038   3.706
 4398SOL    HW113234   3.880   4.965   3.685
 4398SOL    HW213235   3.949   5.052   3.804
 4399SOL     OW13236   3.803   4.964   2.515
 4399SOL    HW113237   3.802   4.917   2.603
 4399SOL    HW213238   3.885   4.936   2.464
 4400SOL     OW13239   4.396   5.115   3.486
 4400SOL    HW113240   4.318   5.065   3.524
 4400SOL    HW213241   4.393   5.210   3.517
 4401SOL     OW13242   4.152   4.148   2.382
 4401SOL    HW113243   4.182   4.076   2.320
 4401SOL    HW213244   4.113   4.108   2.465
 4402SOL     OW13245   4.041   4.271   3.142
 4402SOL    HW113246   4.079   4.212   3.214
 4402SOL    HW213247   4.081   4.245   3.054
 4403SOL     OW13248   5.148   3.938   2.974
 4403SOL    HW113249   5.200   3.873   3.029
 4403SOL    HW213250   5.099   4.001   3.035
 4404SOL     OW13251   4.725   3.758   3.016
 4404SOL    HW113252   4.662   3.686   2.985
 4404SOL    HW213253   4.818   3.722   3.016
 4405SOL     OW13254   4.494   5.054   2.163
 4405SOL    HW113255   4.448   4.967   2.180
 4405SOL    HW213256   4.585   5.051   2.204
 4406SOL     OW13257   5.076   3.776   2.030
 4406SOL    HW113258   5.111   3.735   1.946
 4406SOL    HW213259   4.986   3.738   2.050
 4407SOL     OW13260   3.763   4.801   2.162
 4407SOL    HW113261   3.862   4.790   2.153
 4407SOL    HW213262   3.723   4.715   2.194
 4408SOL     OW13263   3.954   4.352   3.837
 4408SOL    HW113264   3.861   4.350   3.874
 4408SOL    HW213265   3.955   4.313   3.745
 4409SOL     OW13266   3.949   3.999   4.720
 4409SOL    HW113267   3.984   3.982   4.812
 4409SOL    HW213268   3.861   3.954   4.708
 4410SOL     OW13269   3.743   4.092   4.371
 4410SOL    HW113270   3.661   4.135   4.410
 4410SOL    HW213271   3.715   4.019   4.308
 4411SOL     OW13272   4.293   4.999   4.889
 4411SOL    HW113273   4.200   4.992   4.852
 4411SOL    HW213274   4.304   5.088   4.933
 4412SOL     OW13275   5.279   5.235   4.427
 4412SOL    HW113276   5.222   5.219   4.508
 4412SOL    HW213277   5.220   5.245   4.347
 4413SOL     OW13278   4.859   4.427   4.441
 4413SOL    HW113279   4.916   4.505   4.416
 4413SOL    HW213280   4.799   4.453   4.517
 4414SOL     OW13281   4.492   4.868   4.747
 4414SOL    HW113282   4.414   4.885   4.807
 4414SOL    HW213283   4.526   4.955   4.711
 4415SOL     OW13284   4.409   4.736   4.389
 4415SOL    HW113285   4.478   4.720   4.459
 4415SOL    HW213286   4.336   4.793   4.427
 4416SOL     OW13287   4.059   5.159   4.785
 4416SOL    HW113288   3.981   5.128   4.732
 4416SOL    HW213289   4.117   5.217   4.728
 4417SOL     OW13290   4.162   4.116   5.223
 4417SOL    HW113291   4.244   4.060   5.232
 4417SOL    HW213292   4.081   4.058   5.227
 4418SOL     OW13293   3.964   4.815   4.610
 4418SOL    HW113294   3.978   4.731   4.662
 4418SOL    HW213295   3.909   4.879   4.665
 4419SOL     OW13296   4.330   4.688   3.847
 4419SOL    HW113297   4.337   4.772   3.793
 4419SOL    HW213298   4.376   4.701   3.935
 4420SOL     OW13299   5.318   3.838   5.204
 4420SOL    HW113300   5.300   3.905   5.132
 4420SOL    HW213301   5.315   3.884   5.293
 4421SOL     OW13302   3.846   4.367   4.287
 4421SOL    HW113303   3.801   4.279   4.304
 4421SOL    HW213304   3.845   4.421   4.371
 4422SOL     OW13305   5.413   4.646   4.336
 4422SOL    HW113306   5.508   4.617   4.344
 4422SOL    HW213307   5.405   4.711   4.261
 4423SOL     OW13308   4.337   5.089   4.450
 4423SOL    HW113309   4.288   5.002   4.459
 4423SOL    HW213310   4.314   5.132   4.363
 4424SOL     OW13311   4.533   3.728   4.226
 4424SOL    HW113312   4.573   3.819   4.217
 4424SOL    HW213313   4.433   3.736   4.232
 4425SOL     OW13314   3.921   4.700   4.988
 4425SOL    HW113315   4.010   4.655   4.974
 4425SOL    HW213316   3.848   4.635   4.969
 4426SOL     OW13317   4.322   4.453   3.994
 4426SOL    HW113318   4.346   4.522   3.926
 4426SOL    HW213319   4.244   4.486   4.048
 4427SOL     OW13320   5.005   4.069   4.668
 4427SOL    HW113321   4.919   4.019   4.655
 4427SOL    HW213322   5.067   4.015   4.724
 4428SOL     OW13323   4.531   4.329   5.189
 4428SOL    HW113324   4.484   4.326   5.278
 4428SOL    HW213325   4.480   4.274   5.123
 4429SOL     OW13326   4.715   4.134   4.966
 4429SOL    HW113327   4.638   4.168   5.020
 4429SOL    HW213328   4.681   4.083   4.887
 4430SOL     OW13329   4.765   4.425   4.153
 4430SOL    HW113330   4.791   4.421   4.249
 4430SOL    HW213331   4.680   4.374   4.139
 4431SOL     OW13332   3.800   4.535   4.513
 4431SOL    HW113333   3.899   4.523   4.522
 4431SOL    HW213334   3.776   4.630   4.534
 4432SOL     OW13335   4.589   4.072   3.919
 4432SOL    HW113336   4.648   4.135   3.870
 4432SOL    HW213337   4.608   3.978   3.890
 4433SOL     OW13338   5.086   4.868   4.269
 4433SOL    HW113339   5.169   4.839   4.221
 4433SOL    HW213340   5.037   4.935   4.213
 4434SOL     OW13341   4.274   3.920   4.609
 4434SOL    HW113342   4.269   3.915   4.709
 4434SOL    HW213343   4.276   4.016   4.580
 4435SOL     OW13344   4.045   4.667   3.966
 4435SOL    HW113345   4.127   4.706   3.924
 4435SOL    HW213346   4.018   4.585   3.917
 4436SOL     OW13347   4.106   4.424   4.204
 4436SOL    HW113348   4.151   4.334   4.201
 4436SOL    HW213349   4.012   4.413   4.237
 4437SOL     OW13350   4.338   3.846   3.841
 4437SOL    HW113351   4.436   3.824   3.848
 4437SOL    HW213352   4.307   3.829   3.748
 4438SOL     OW13353   4.646   4.227   4.623
 4438SOL    HW113354   4.621   4.218   4.527
 4438SOL    HW213355   4.694   4.145   4.654
 4439SOL     OW13356   4.263   3.788   4.236
 4439SOL    HW113357   4.182   3.789   4.294
 4439SOL    HW213358   4.266   3.871   4.181
 4440SOL     OW13359   5.158   4.912   3.765
 4440SOL    HW113360   5.190   4.836   3.822
 4440SOL    HW213361   5.066   4.939   3.795
 4441SOL     OW13362   4.021   3.759   3.895
 4441SOL    HW113363   4.070   3.843   3.874
 4441SOL    HW213364   4.083   3.694   3.940
 4442SOL     OW13365   4.659   3.960   4.204
 4442SOL    HW113366   4.611   4.001   4.126
 4442SOL    HW213367   4.758   3.958   4.185
 4443SOL     OW13368   4.951   5.294   4.517
 4443SOL    HW113369   4.972   5.368   4.452
 4443SOL    HW213370   5.019   5.294   4.590
 4444SOL     OW13371   4.183   4.876   4.465
 4444SOL    HW113372   4.112   4.849   4.530
 4444SOL    HW213373   4.157   4.848   4.372
 4445SOL     OW13374   4.756   4.273   3.740
 4445SOL    HW113375   4.715   4.355   3.701
 4445SOL    HW213376   4.820   4.299   3.813
 4446SOL     OW13377   4.285   3.946   4.871
 4446SOL    HW113378   4.323   3.862   4.908
 4446SOL    HW213379   4.197   3.965   4.915
 4447SOL     OW13380   4.590   4.178   4.366
 4447SOL    HW113381   4.558   4.250   4.304
 4447SOL    HW213382   4.614   4.097   4.313
 4448SOL     OW13383   4.741   3.763   4.477
 4448SOL    HW113384   4.669   3.768   4.408
 4448SOL    HW213385   4.717   3.694   4.546
 4449SOL     OW13386   5.114   4.299   3.802
 4449SOL    HW113387   5.060   4.278   3.883
 4449SOL    HW213388   5.205   4.258   3.811
 4450SOL     OW13389   4.251   3.980   4.052
 4450SOL    HW113390   4.278   3.921   3.977
 4450SOL    HW213391   4.251   4.075   4.021
 4451SOL     OW13392   4.788   5.071   5.064
 4451SOL    HW113393   4.708   5.048   5.119
 4451SOL    HW213394   4.871   5.045   5.113
 4452SOL     OW13395   4.835   4.919   4.824
 4452SOL    HW113396   4.795   4.963   4.905
 4452SOL    HW213397   4.794   4.956   4.741
 4453SOL     OW13398   4.429   4.774   4.092
 4453SOL    HW113399   4.415   4.781   4.191
 4453SOL    HW213400   4.513   4.723   4.074
 4454SOL     OW13401   4.134   4.537   4.975
 4454SOL    HW113402   4.220   4.549   5.025
 4454SOL    HW213403   4.092   4.450   5.002
 4455SOL     OW13404   4.998   4.110   4.986
 4455SOL    HW113405   5.019   4.184   5.050
 4455SOL    HW213406   4.909   4.127   4.943
 4456SOL     OW13407   4.091   4.824   4.225
 4456SOL    HW113408   4.084   4.907   4.169
 4456SOL    HW213409   4.095   4.744   4.165
 4457SOL     OW13410   4.290   4.261   4.589
 4457SOL    HW113411   4.302   4.327   4.515
 4457SOL    HW213412   4.336   4.295   4.672
 4458SOL     OW13413   4.976   5.072   4.112
 4458SOL    HW113414   5.026   5.149   4.152
 4458SOL    HW213415   4.881   5.074   4.144
 4459SOL     OW13416   4.297   4.594   4.753
 4459SOL    HW113417   4.341   4.683   4.744
 4459SOL    HW213418   4.234   4.594   4.830
 4460SOL     OW13419   5.084   4.586   4.769
 4460SOL    HW113420   5.009   4.586   4.703
 4460SOL    HW213421   5.121   4.494   4.778
 4461SOL     OW13422   4.933   4.249   3.999
 4461SOL    HW113423   4.946   4.165   4.053
 4461SOL    HW213424   4.904   4.323   4.059
 4462SOL     OW13425   4.031   3.937   4.955
 4462SOL    HW113426   4.008   3.974   5.045
 4462SOL    HW213427   4.001   3.842   4.949
 4463SOL     OW13428   3.761   5.034   5.006
 4463SOL    HW113429   3.814   4.985   5.074
 4463SOL    HW213430   3.783   5.132   5.011
 4464SOL     OW13431   4.456   4.358   4.788
 4464SOL    HW113432   4.515   4.332   4.712
 4464SOL    HW213433   4.428   4.454   4.777
 4465SOL     OW13434   4.031   3.787   4.342
 4465SOL    HW113435   4.020   3.881   4.375
 4465SOL    HW213436   4.026   3.724   4.419
 4466SOL     OW13437   5.346   4.091   4.098
 4466SOL    HW113438   5.348   4.015   4.162
 4466SOL    HW213439   5.298   4.168   4.138
 4467SOL     OW13440   4.747   4.490   4.690
 4467SOL    HW113441   4.762   4.511   4.786
 4467SOL    HW213442   4.717   4.395   4.681
 4468SOL     OW13443   5.027   4.562   3.766
 4468SOL    HW113444   5.061   4.469   3.781
 4468SOL    HW213445   5.045   4.589   3.671
 4469SOL     OW13446   4.043   4.534   4.673
 4469SOL    HW113447   4.136   4.570   4.678
 4469SOL    HW213448   4.037   4.449   4.725
 4470SOL     OW13449   4.063   4.233   4.730
 4470SOL    HW113450   4.011   4.150   4.713
 4470SOL    HW213451   4.140   4.238   4.666
 4471SOL     OW13452   4.884   3.931   5.201
 4471SOL    HW113453   4.884   3.995   5.278
 4471SOL    HW213454   4.912   3.979   5.118
 4472SOL     OW13455   3.732   5.050   3.924
 4472SOL    HW113456   3.639   5.071   3.893
 4472SOL    HW213457   3.742   4.951   3.937
 4473SOL     OW13458   4.726   4.520   4.962
 4473SOL    HW113459   4.767   4.488   5.048
 4473SOL    HW213460   4.630   4.493   4.959
 4474SOL     OW13461   3.764   4.268   4.838
 4474SOL    HW113462   3.849   4.235   4.797
 4474SOL    HW213463   3.777   4.283   4.936
 4475SOL     OW13464   4.539   4.296   4.049
 4475SOL    HW113465   4.546   4.207   4.003
 4475SOL    HW213466   4.445   4.330   4.041
 4476SOL     OW13467   4.395   4.188   4.993
 4476SOL    HW113468   4.361   4.099   4.963
 4476SOL    HW213469   4.421   4.242   4.913
 4477SOL     OW13470   4.197   4.224   3.915
 4477SOL    HW113471   4.258   4.304   3.919
 4477SOL    HW213472   4.102   4.255   3.922
 4478SOL     OW13473   3.883   4.861   5.190
 4478SOL    HW113474   3.905   4.800   5.266
 4478SOL    HW213475   3.893   4.812   5.104
 4479SOL     OW13476   5.071   4.783   4.958
 4479SOL    HW113477   5.095   4.720   4.884
 4479SOL    HW213478   4.981   4.823   4.940
 4480SOL     OW13479   5.026   4.579   4.033
 4480SOL    HW113480   4.940   4.548   4.075
 4480SOL    HW213481   5.022   4.565   3.934
 4481SOL     OW13482   3.807   4.982   4.746
 4481SOL    HW113483   3.802   4.981   4.846
 4481SOL    HW213484   3.724   4.941   4.708
 4482SOL     OW13485   5.004   4.651   4.396
 4482SOL    HW113486   5.064   4.570   4.398
 4482SOL    HW213487   5.044   4.720   4.336
 4483SOL     OW13488   4.554   4.997   5.146
 4483SOL    HW113489   4.549   5.030   5.241
 4483SOL    HW213490   4.468   5.016   5.100
 4484SOL     OW13491   3.987   4.050   4.444
 4484SOL    HW113492   3.908   4.101   4.410
 4484SOL    HW213493   3.978   4.035   4.542
 4485SOL     OW13494   4.546   4.726   5.096
 4485SOL    HW113495   4.586   4.725   5.004
 4485SOL    HW213496   4.556   4.818   5.136
 4486SOL     OW13497   4.640   4.634   4.015
 4486SOL    HW113498   4.703   4.672   3.947
 4486SOL    HW213499   4.680   4.551   4.054
 4487SOL     OW13500   4.096   5.012   5.214
 4487SOL    HW113501   4.083   5.105   5.180
 4487SOL    HW213502   4.012   4.960   5.201
 4488SOL     OW13503   4.763   4.822   4.420
 4488SOL    HW113504   4.693   4.775   4.474
 4488SOL    HW213505   4.822   4.754   4.377
 4489SOL     OW13506   4.738   3.960   4.695
 4489SOL    HW113507   4.730   3.924   4.602
 4489SOL    HW213508   4.736   3.884   4.760
 4490SOL     OW13509   4.396   3.927   5.213
 4490SOL    HW113510   4.486   3.911   5.173
 4490SOL    HW213511   4.404   3.932   5.312
 4491SOL     OW13512   3.799   4.069   3.757
 4491SOL    HW113513   3.707   4.041   3.728
 4491SOL    HW213514   3.830   4.146   3.701
 4492SOL     OW13515   3.796   3.890   4.042
 4492SOL    HW113516   3.779   3.973   3.988
 4492SOL    HW213517   3.886   3.853   4.020
 4493SOL     OW13518   4.337   4.566   5.155
 4493SOL    HW113519   4.393   4.647   5.138
 4493SOL    HW213520   4.396   4.486   5.158
 4494SOL     OW13521   4.949   4.049   4.173
 4494SOL    HW113522   5.014   3.975   4.162
 4494SOL    HW213523   4.969   4.099   4.257
 4495SOL     OW13524   4.318   4.469   4.376
 4495SOL    HW113525   4.368   4.554   4.357
 4495SOL    HW213526   4.230   4.471   4.328
 4496SOL     OW13527   4.583   5.098   3.740
 4496SOL    HW113528   4.537   5.113   3.828
 4496SOL    HW213529   4.627   5.183   3.710
 4497SOL     OW13530   4.583   4.680   4.585
 4497SOL    HW113531   4.637   4.611   4.633
 4497SOL    HW213532   4.551   4.749   4.651
 4498SOL     OW13533   4.807   4.708   3.811
 4498SOL    HW113534   4.784   4.761   3.729
 4498SOL    HW213535   4.888   4.652   3.792
 4499SOL     OW13536   3.803   4.964   4.377
 4499SOL    HW113537   3.802   4.917   4.465
 4499SOL    HW213538   3.885   4.936   4.326
 4500SOL     OW13539   4.152   4.148   4.244
 4500SOL    HW113540   4.182   4.076   4.182
 4500SOL    HW213541   4.113   4.108   4.327
 4501SOL     OW13542   4.041   4.271   5.004
 4501SOL    HW113543   4.079   4.212   5.076
 4501SOL    HW213544   4.081   4.245   4.916
 4502SOL     OW13545   5.148   3.938   4.836
 4502SOL    HW113546   5.200   3.873   4.891
 4502SOL    HW213547   5.099   4.001   4.897
 4503SOL     OW13548   4.725   3.758   4.878
 4503SOL    HW113549   4.662   3.686   4.847
 4503SOL    HW213550   4.818   3.722   4.878
 4504SOL     OW13551   4.494   5.054   4.025
 4504SOL    HW113552   4.448   4.967   4.042
 4504SOL    HW213553   4.585   5.051   4.066
 4505SOL     OW13554   5.076   3.776   3.892
 4505SOL    HW113555   5.111   3.735   3.808
 4505SOL    HW213556   4.986   3.738   3.912
 4506SOL     OW13557   3.763   4.801   4.024
 4506SOL    HW113558   3.862   4.790   4.015
 4506SOL    HW213559   3.723   4.715   4.056
   5.17531   5.17531   5.17531
