mobley_5282042_GMX.gro created by acpype (v: 2023.10.27) on Thu May 21 00:00:17 2026
   44
    1MOL     C1    1   2.863   2.849   2.868
    1MOL     C2    2   2.573   2.699   2.246
    1MOL     C3    3   2.988   2.793   2.848
    1MOL     C4    4   2.654   2.599   2.193
    1MOL     C5    5   2.754   2.806   2.792
    1MOL     C6    6   2.570   2.721   2.384
    1MOL     C7    7   3.004   2.694   2.751
    1MOL     C8    8   2.733   2.521   2.278
    1MOL     C9    9   2.768   2.704   2.695
    1MOL    C10   10   2.650   2.643   2.470
    1MOL    C11   11   2.896   2.648   2.674
    1MOL    C12   12   2.732   2.543   2.416
    1MOL    C13   13   2.648   2.666   2.616
    1MOL    C14   14   2.532   2.640   2.679
    1MOL    C15   15   2.931   2.542   2.570
    1MOL    C16   16   2.819   2.459   2.507
    1MOL    C17   17   2.087   2.445   2.729
    1MOL    C18   18   2.212   2.373   2.537
    1MOL    C19   19   2.406   2.601   2.609
    1MOL    C20   20   2.314   2.518   2.699
    1MOL     N1   21   2.191   2.483   2.632
    1MOL     H1   22   2.849   2.926   2.944
    1MOL     H2   23   2.511   2.759   2.180
    1MOL     H3   24   3.073   2.826   2.908
    1MOL     H4   25   2.655   2.581   2.086
    1MOL     H5   26   2.657   2.852   2.811
    1MOL     H6   27   2.506   2.799   2.423
    1MOL     H7   28   3.104   2.652   2.736
    1MOL     H8   29   2.796   2.443   2.235
    1MOL     H9   30   2.530   2.650   2.787
    1MOL    H10   31   2.982   2.593   2.487
    1MOL    H11   32   3.004   2.474   2.615
    1MOL    H12   33   2.757   2.418   2.588
    1MOL    H13   34   2.858   2.373   2.453
    1MOL    H14   35   2.071   2.526   2.800
    1MOL    H15   36   2.117   2.355   2.784
    1MOL    H16   37   1.993   2.424   2.677
    1MOL    H17   38   2.290   2.400   2.464
    1MOL    H18   39   2.120   2.351   2.483
    1MOL    H19   40   2.244   2.282   2.590
    1MOL    H20   41   2.427   2.546   2.517
    1MOL    H21   42   2.354   2.693   2.580
    1MOL    H22   43   2.286   2.576   2.788
    1MOL    H23   44   2.362   2.426   2.731
   5.17531   5.17531   5.17531
