%VERSION  VERSION_STAMP = V0001.000  DATE = 05/20/26  23:44:49                  
%FLAG TITLE                                                                     
%FORMAT(20a4)                                                                   
di_n_butylamine                                                                 
%FLAG POINTERS                                                                  
%FORMAT(10I8)                                                                   
      28       5      19       8      44       7      60       6       0       0
     145       1       8       7       6       5       9      10       5       0
       0       0       0       0       0       0       0       0      28       0
       0
%FLAG ATOM_NAME                                                                 
%FORMAT(20a4)                                                                   
C1  C2  C3  C4  C5  C6  C7  C8  N1  H1  H2  H3  H4  H5  H6  H7  H8  H9  H10 H11 
H12 H13 H14 H15 H16 H17 H18 H19 
%FLAG CHARGE                                                                    
%FORMAT(5E16.8)                                                                 
 -1.69649613E+00 -1.69649613E+00 -1.44685062E+00 -1.44685062E+00 -1.53796212E+00
 -1.53796212E+00  3.00303504E+00  3.00303504E+00 -1.50370420E+01  6.14091510E-01
  6.14091510E-01  6.14091510E-01  6.14091510E-01  6.14091510E-01  6.14091510E-01
  7.14314160E-01  7.14314160E-01  7.14314160E-01  7.14314160E-01  8.41870260E-01
  8.41870260E-01  8.41870260E-01  8.41870260E-01  4.95646560E-01  4.95646560E-01
  4.95646560E-01  4.95646560E-01  6.46527204E+00
%FLAG ATOMIC_NUMBER                                                             
%FORMAT(10I8)                                                                   
       6       6       6       6       6       6       6       6       7       1
       1       1       1       1       1       1       1       1       1       1
       1       1       1       1       1       1       1       1
%FLAG MASS                                                                      
%FORMAT(5E16.8)                                                                 
  1.20100000E+01  1.20100000E+01  1.20100000E+01  1.20100000E+01  1.20100000E+01
  1.20100000E+01  1.20100000E+01  1.20100000E+01  1.40100000E+01  1.00800000E+00
  1.00800000E+00  1.00800000E+00  1.00800000E+00  1.00800000E+00  1.00800000E+00
  1.00800000E+00  1.00800000E+00  1.00800000E+00  1.00800000E+00  1.00800000E+00
  1.00800000E+00  1.00800000E+00  1.00800000E+00  1.00800000E+00  1.00800000E+00
  1.00800000E+00  1.00800000E+00  1.00800000E+00
%FLAG ATOM_TYPE_INDEX                                                           
%FORMAT(10I8)                                                                   
       1       1       1       1       1       1       1       1       2       3
       3       3       3       3       3       3       3       3       3       3
       3       3       3       4       4       4       4       5
%FLAG NUMBER_EXCLUDED_ATOMS                                                     
%FORMAT(10I8)                                                                   
      10      10      12      12      13      13      11      10       9       4
       3       2       4       3       2       3       2       3       2       3
       2       3       2       2       1       2       1       1
%FLAG NONBONDED_PARM_INDEX                                                      
%FORMAT(10I8)                                                                   
       1       2       4       7      11       2       3       5       8      12
       4       5       6       9      13       7       8       9      10      14
      11      12      13      14      15
%FLAG RESIDUE_LABEL                                                             
%FORMAT(20a4)                                                                   
MOL 
%FLAG RESIDUE_POINTER                                                           
%FORMAT(10I8)                                                                   
       1
%FLAG BOND_FORCE_CONSTANT                                                       
%FORMAT(5E16.8)                                                                 
  2.28890000E+02  3.45250000E+02  2.55520000E+02  3.44220000E+02  4.60050000E+02
%FLAG BOND_EQUIL_VALUE                                                          
%FORMAT(5E16.8)                                                                 
  1.53540000E+00  1.09620000E+00  1.46300000E+00  1.09690000E+00  1.01950000E+00
%FLAG ANGLE_FORCE_CONSTANT                                                      
%FORMAT(5E16.8)                                                                 
  5.98700000E+01  4.32700000E+01  6.57200000E+01  4.32800000E+01  7.69900000E+01
  5.64400000E+01  4.77900000E+01  3.58000000E+01  3.56400000E+01
%FLAG ANGLE_EQUIL_VALUE                                                         
%FORMAT(5E16.8)                                                                 
  1.96576518E+00  1.91427794E+00  1.92370273E+00  1.91270715E+00  1.99979911E+00
  1.89996624E+00  1.92492446E+00  1.88024401E+00  1.89455572E+00
%FLAG DIHEDRAL_FORCE_CONSTANT                                                   
%FORMAT(5E16.8)                                                                 
  5.20000000E-01  1.30000000E-01  2.10000000E-01  1.55555556E-01  1.40000000E-01
  2.17000000E-01  2.15000000E-01  1.00000000E-01  1.20000000E-01  3.00000000E-01
%FLAG DIHEDRAL_PERIODICITY                                                      
%FORMAT(5E16.8)                                                                 
  3.00000000E+00  3.00000000E+00  3.00000000E+00  3.00000000E+00  3.00000000E+00
  3.00000000E+00  3.00000000E+00  3.00000000E+00  3.00000000E+00  3.00000000E+00
%FLAG DIHEDRAL_PHASE                                                            
%FORMAT(5E16.8)                                                                 
  0.00000000E+00  0.00000000E+00  0.00000000E+00  0.00000000E+00  0.00000000E+00
  0.00000000E+00  0.00000000E+00  0.00000000E+00  0.00000000E+00  0.00000000E+00
%FLAG SCEE_SCALE_FACTOR                                                         
%FORMAT(5E16.8)                                                                 
  1.20000000E+00  1.20000000E+00  1.20000000E+00  1.20000000E+00  1.20000000E+00
  1.20000000E+00  1.20000000E+00  1.20000000E+00  1.20000000E+00  1.20000000E+00
%FLAG SCNB_SCALE_FACTOR                                                         
%FORMAT(5E16.8)                                                                 
  2.00000000E+00  2.00000000E+00  2.00000000E+00  2.00000000E+00  2.00000000E+00
  2.00000000E+00  2.00000000E+00  2.00000000E+00  2.00000000E+00  2.00000000E+00
%FLAG SOLTY                                                                     
%FORMAT(5E16.8)                                                                 
  0.00000000E+00  0.00000000E+00  0.00000000E+00  0.00000000E+00  0.00000000E+00
%FLAG LENNARD_JONES_ACOEF                                                       
%FORMAT(5E16.8)                                                                 
  1.02073671E+06  8.61147463E+05  7.24302894E+05  1.00235148E+05  8.67370500E+04
  7.94617769E+03  6.97998263E+04  6.08009173E+04  5.22955465E+03  3.39005767E+03
  2.23577481E+03  2.07791361E+03  9.47421632E+01  5.24570081E+01  1.34728399E-01
%FLAG LENNARD_JONES_BCOEF                                                       
%FORMAT(5E16.8)                                                                 
  6.63431737E+02  5.08324538E+02  3.88888730E+02  1.37787728E+02  1.06921681E+02
  2.57122925E+01  1.14981426E+02  8.95196800E+01  2.08590256E+01  1.67944276E+01
  1.71355763E+01  1.37803855E+01  2.33785449E+00  1.73959275E+00  7.34107347E-02
%FLAG BONDS_INC_HYDROGEN                                                        
%FORMAT(10I8)                                                                   
       0      27       2       0      30       2       0      33       2       3
      36       2       3      39       2       3      42       2       6      45
       2       6      48       2       9      51       2       9      54       2
      12      57       2      12      60       2      15      63       2      15
      66       2      18      69       4      18      72       4      21      75
       4      21      78       4      24      81       5
%FLAG BONDS_WITHOUT_HYDROGEN                                                    
%FORMAT(10I8)                                                                   
       0       6       1       3       9       1       6      12       1       9
      15       1      12      18       1      15      21       1      18      24
       3      21      24       3
%FLAG ANGLES_INC_HYDROGEN                                                       
%FORMAT(10I8)                                                                   
       0       6      45       2       0       6      48       2       3       9
      51       2       3       9      54       2       6       0      27       2
       6       0      30       2       6       0      33       2       6      12
      57       2       6      12      60       2       9       3      36       2
       9       3      39       2       9       3      42       2       9      15
      63       2       9      15      66       2      12       6      45       2
      12       6      48       2      12      18      69       4      12      18
      72       4      15       9      51       2      15       9      54       2
      15      21      75       4      15      21      78       4      18      12
      57       2      18      12      60       2      18      24      81       6
      21      15      63       2      21      15      66       2      21      24
      81       6      24      18      69       7      24      18      72       7
      24      21      75       7      24      21      78       7      27       0
      30       8      27       0      33       8      30       0      33       8
      36       3      39       8      36       3      42       8      39       3
      42       8      45       6      48       8      51       9      54       8
      57      12      60       8      63      15      66       8      69      18
      72       9      75      21      78       9
%FLAG ANGLES_WITHOUT_HYDROGEN                                                   
%FORMAT(10I8)                                                                   
       0       6      12       1       3       9      15       1       6      12
      18       1       9      15      21       1      12      18      24       3
      15      21      24       3      18      24      21       5
%FLAG DIHEDRALS_INC_HYDROGEN                                                    
%FORMAT(10I8)                                                                   
       0       6      12      57       2       0       6      12      60       2
       3       9      15      63       2       3       9      15      66       2
       6      12      18      69       4       6      12      18      72       4
       9      15      21      75       4       9      15      21      78       4
      27       0       6      12       2      30       0       6      12       2
      33       0       6      12       2      12      18      24      81       6
      15       9       3      36       2      15       9       3      39       2
      15       9       3      42       2      15      21      24      81       6
      18      12       6      45       2      18      12       6      48       2
      18      24      21      75       7      18      24      21      78       7
      21      15       9      51       2      21      15       9      54       2
      21      24      18      69       7      21      24      18      72       7
      24      18      12      57       8      24      18      12      60       8
      24      21      15      63       8      24      21      15      66       8
      27       0       6      45       9      27       0       6      48       9
      30       0       6      45       9      30       0       6      48       9
      33       0       6      45       9      33       0       6      48       9
      36       3       9      51       9      36       3       9      54       9
      39       3       9      51       9      39       3       9      54       9
      42       3       9      51       9      42       3       9      54       9
      45       6      12      57       9      45       6      12      60       9
      48       6      12      57       9      48       6      12      60       9
      51       9      15      63       9      51       9      15      66       9
      54       9      15      63       9      54       9      15      66       9
      57      12      18      69       4      57      12      18      72       4
      60      12      18      69       4      60      12      18      72       4
      63      15      21      75       4      63      15      21      78       4
      66      15      21      75       4      66      15      21      78       4
      69      18      24      81      10      72      18      24      81      10
      75      21      24      81      10      78      21      24      81      10
%FLAG DIHEDRALS_WITHOUT_HYDROGEN                                                
%FORMAT(10I8)                                                                   
       0       6      12      18       1       3       9      15      21       1
       6      12      18      24       3       9      15      21      24       3
      12      18      24      21       5      15      21      24      18       5
%FLAG EXCLUDED_ATOMS_LIST                                                       
%FORMAT(10I8)                                                                   
       3       5       7      10      11      12      16      17      20      21
       4       6       8      13      14      15      18      19      22      23
       5       7       9      10      11      12      16      17      20      21
      24      25       6       8       9      13      14      15      18      19
      22      23      26      27       7       8       9      10      11      12
      16      17      20      21      24      25      28       7       8       9
      13      14      15      18      19      22      23      26      27      28
       8       9      16      17      20      21      24      25      26      27
      28       9      18      19      22      23      24      25      26      27
      28      20      21      22      23      24      25      26      27      28
      11      12      16      17      12      16      17      16      17      14
      15      18      19      15      18      19      18      19      17      20
      21      20      21      19      22      23      22      23      21      24
      25      24      25      23      26      27      26      27      25      28
      28      27      28      28       0
%FLAG HBOND_ACOEF                                                               
%FORMAT(5E16.8)                                                                 

%FLAG HBOND_BCOEF                                                               
%FORMAT(5E16.8)                                                                 

%FLAG HBCUT                                                                     
%FORMAT(5E16.8)                                                                 

%FLAG AMBER_ATOM_TYPE                                                           
%FORMAT(20a4)                                                                   
c3  c3  c3  c3  c3  c3  c3  c3  n7  hc  hc  hc  hc  hc  hc  hc  hc  hc  hc  hc  
hc  hc  hc  h1  h1  h1  h1  hn  
%FLAG TREE_CHAIN_CLASSIFICATION                                                 
%FORMAT(20a4)                                                                   
BLA BLA BLA BLA BLA BLA BLA BLA BLA BLA BLA BLA BLA BLA BLA BLA BLA BLA BLA BLA 
BLA BLA BLA BLA BLA BLA BLA BLA 
%FLAG JOIN_ARRAY                                                                
%FORMAT(10I8)                                                                   
       0       0       0       0       0       0       0       0       0       0
       0       0       0       0       0       0       0       0       0       0
       0       0       0       0       0       0       0       0
%FLAG IROTAT                                                                    
%FORMAT(10I8)                                                                   
       0       0       0       0       0       0       0       0       0       0
       0       0       0       0       0       0       0       0       0       0
       0       0       0       0       0       0       0       0
%FLAG RADIUS_SET                                                                
%FORMAT(1a80)                                                                   
modified Bondi radii (mbondi)                                                   
%FLAG RADII                                                                     
%FORMAT(5E16.8)                                                                 
  1.70000000E+00  1.70000000E+00  1.70000000E+00  1.70000000E+00  1.70000000E+00
  1.70000000E+00  1.70000000E+00  1.70000000E+00  1.55000000E+00  1.30000000E+00
  1.30000000E+00  1.30000000E+00  1.30000000E+00  1.30000000E+00  1.30000000E+00
  1.30000000E+00  1.30000000E+00  1.30000000E+00  1.30000000E+00  1.30000000E+00
  1.30000000E+00  1.30000000E+00  1.30000000E+00  1.30000000E+00  1.30000000E+00
  1.30000000E+00  1.30000000E+00  1.30000000E+00
%FLAG SCREEN                                                                    
%FORMAT(5E16.8)                                                                 
  7.20000000E-01  7.20000000E-01  7.20000000E-01  7.20000000E-01  7.20000000E-01
  7.20000000E-01  7.20000000E-01  7.20000000E-01  7.90000000E-01  8.50000000E-01
  8.50000000E-01  8.50000000E-01  8.50000000E-01  8.50000000E-01  8.50000000E-01
  8.50000000E-01  8.50000000E-01  8.50000000E-01  8.50000000E-01  8.50000000E-01
  8.50000000E-01  8.50000000E-01  8.50000000E-01  8.50000000E-01  8.50000000E-01
  8.50000000E-01  8.50000000E-01  8.50000000E-01
%FLAG IPOL                                                                      
%FORMAT(1I8)                                                                    
       0
