; mobley_7860938_GMX_OPLS.top created by acpype (v: 2023.10.27) on Wed May 20 23:44:47 2026

; Include forcefield parameters
#include "ffoplsaa.itp"

; Include mobley_7860938_GMX.itp topology
#include "mobley_7860938_GMX.itp"

; Ligand position restraints
#ifdef POSRES_LIG
#include "posre_mobley_7860938.itp"
#endif

[ system ]
 mobley_7860938

[ molecules ]
; Compound        nmols
 mobley_7860938   1     
