di_n_butylamine
    28
   3.4280000   0.0980000  -2.2480000  -3.4350000   6.3890000  -5.7320000
   2.6490000   1.3740000  -1.9720000  -2.5370000   6.0480000  -4.5540000
   1.7010000   1.7130000  -3.1220000  -1.6920000   4.8050000  -4.8340000
   0.8960000   2.9760000  -2.8210000  -0.7660000   4.4900000  -3.6600000
   0.0140000   3.2930000  -3.9380000   4.0990000  -0.1240000  -1.4130000
   2.7520000  -0.7540000  -2.3770000   4.0340000   0.1970000  -3.1540000
  -4.0300000   7.2800000  -5.5100000  -2.8440000   6.5910000  -6.6310000
  -4.1240000   5.5670000  -5.9520000   2.0790000   1.2540000  -1.0430000
   3.3540000   2.1990000  -1.8150000  -1.8830000   6.9020000  -4.3410000
  -3.1570000   5.8840000  -3.6650000   2.2800000   1.8520000  -4.0440000
   1.0190000   0.8690000  -3.2940000  -2.3520000   3.9500000  -5.0270000
  -1.0980000   4.9650000  -5.7440000   0.2980000   2.8370000  -1.9140000
   1.5720000   3.8210000  -2.6500000  -0.0880000   5.3310000  -3.4760000
  -1.3540000   4.3300000  -2.7500000   0.5760000   3.4440000  -4.7750000
