mobley_7860938_GMX.gro created by acpype (v: 2023.10.27) on Wed May 20 23:44:47 2026
 28
    1  MOL   C1    1   0.343   0.010  -0.225
    1  MOL   C2    2  -0.344   0.639  -0.573
    1  MOL   C3    3   0.265   0.137  -0.197
    1  MOL   C4    4  -0.254   0.605  -0.455
    1  MOL   C5    5   0.170   0.171  -0.312
    1  MOL   C6    6  -0.169   0.480  -0.483
    1  MOL   C7    7   0.090   0.298  -0.282
    1  MOL   C8    8  -0.077   0.449  -0.366
    1  MOL   N1    9   0.001   0.329  -0.394
    1  MOL   H1   10   0.410  -0.012  -0.141
    1  MOL   H2   11   0.275  -0.075  -0.238
    1  MOL   H3   12   0.403   0.020  -0.315
    1  MOL   H4   13  -0.403   0.728  -0.551
    1  MOL   H5   14  -0.284   0.659  -0.663
    1  MOL   H6   15  -0.412   0.557  -0.595
    1  MOL   H7   16   0.208   0.125  -0.104
    1  MOL   H8   17   0.335   0.220  -0.181
    1  MOL   H9   18  -0.188   0.690  -0.434
    1  MOL  H10   19  -0.316   0.588  -0.367
    1  MOL  H11   20   0.228   0.185  -0.404
    1  MOL  H12   21   0.102   0.087  -0.329
    1  MOL  H13   22  -0.235   0.395  -0.503
    1  MOL  H14   23  -0.110   0.496  -0.574
    1  MOL  H15   24   0.030   0.284  -0.191
    1  MOL  H16   25   0.157   0.382  -0.265
    1  MOL  H17   26  -0.009   0.533  -0.348
    1  MOL  H18   27  -0.135   0.433  -0.275
    1  MOL  H19   28   0.058   0.344  -0.478
   16.44600    16.06800    11.17600
