mobley_5393242_GMX.gro created by acpype (v: 2023.10.27) on Wed May 20 23:55:13 2026
12652
    1MOL     C1    1   2.643   2.570   2.297
    1MOL     C2    2   2.550   2.555   2.196
    1MOL     C3    3   2.601   2.534   2.422
    1MOL     C4    4   2.394   2.477   2.347
    1MOL     C5    5   2.584   2.590   2.055
    1MOL     C6    6   2.396   2.738   2.862
    1MOL     C7    7   3.007   2.627   2.789
    1MOL     C8    8   2.182   2.512   2.476
    1MOL     C9    9   2.259   2.279   2.419
    1MOL    C10   10   2.486   2.616   2.846
    1MOL    C11   11   2.906   2.525   2.739
    1MOL    C12   12   2.255   2.425   2.373
    1MOL     N1   13   2.425   2.509   2.220
    1MOL     N2   14   2.478   2.488   2.450
    1MOL     O1   15   2.690   2.548   2.525
    1MOL     O2   16   2.534   2.613   2.713
    1MOL     O3   17   2.776   2.577   2.757
    1MOL     P1   18   2.652   2.508   2.677
    1MOL     S1   19   2.625   2.321   2.719
    1MOL     H1   20   2.742   2.607   2.278
    1MOL     H2   21   2.669   2.529   2.020
    1MOL     H3   22   2.500   2.572   1.988
    1MOL     H4   23   2.611   2.696   2.048
    1MOL     H5   24   2.452   2.830   2.841
    1MOL     H6   25   2.313   2.734   2.791
    1MOL     H7   26   2.356   2.744   2.964
    1MOL     H8   27   2.997   2.721   2.734
    1MOL     H9   28   2.989   2.650   2.894
    1MOL    H10   29   3.109   2.590   2.777
    1MOL    H11   30   2.232   2.510   2.574
    1MOL    H12   31   2.079   2.477   2.490
    1MOL    H13   32   2.178   2.616   2.443
    1MOL    H14   33   2.312   2.268   2.514
    1MOL    H15   34   2.310   2.216   2.345
    1MOL    H16   35   2.158   2.239   2.432
    1MOL    H17   36   2.428   2.525   2.866
    1MOL    H18   37   2.569   2.622   2.917
    1MOL    H19   38   2.916   2.432   2.796
    1MOL    H20   39   2.924   2.503   2.633
    1MOL    H21   40   2.198   2.429   2.280
    2SOL     OW   41   0.230   0.628   0.113
    2SOL    HW1   42   0.137   0.626   0.150
    2SOL    HW2   43   0.231   0.589   0.021
    3SOL     OW   44   0.225   0.275   0.996
    3SOL    HW1   45   0.260   0.258   1.088
    3SOL    HW2   46   0.137   0.230   0.984
    4SOL     OW   47   0.019   0.368   0.647
    4SOL    HW1   48  -0.063   0.411   0.686
    4SOL    HW2   49  -0.009   0.295   0.584
    5SOL     OW   50   0.569   1.275   1.165
    5SOL    HW1   51   0.476   1.268   1.128
    5SOL    HW2   52   0.580   1.364   1.209
    6SOL     OW   53   1.555   1.511   0.703
    6SOL    HW1   54   1.498   1.495   0.784
    6SOL    HW2   55   1.496   1.521   0.623
    7SOL     OW   56   1.135   0.703   0.717
    7SOL    HW1   57   1.192   0.781   0.692
    7SOL    HW2   58   1.075   0.729   0.793
    8SOL     OW   59   1.755   0.607   0.231
    8SOL    HW1   60   1.743   0.594   0.132
    8SOL    HW2   61   1.725   0.526   0.280
    9SOL     OW   62   0.768   1.144   1.023
    9SOL    HW1   63   0.690   1.161   1.083
    9SOL    HW2   64   0.802   1.231   0.987
   10SOL     OW   65   0.850   0.798   1.823
   10SOL    HW1   66   0.846   0.874   1.888
   10SOL    HW2   67   0.872   0.834   1.732
   11SOL     OW   68   0.685   1.012   0.665
   11SOL    HW1   69   0.754   0.996   0.735
   11SOL    HW2   70   0.612   1.069   0.703
   12SOL     OW   71   0.686   1.161   1.803
   12SOL    HW1   72   0.746   1.240   1.817
   12SOL    HW2   73   0.600   1.192   1.762
   13SOL     OW   74   0.335   1.435   1.061
   13SOL    HW1   75   0.257   1.404   1.008
   13SOL    HW2   76   0.393   1.493   1.004
   14SOL     OW   77   1.460   1.505   1.339
   14SOL    HW1   78   1.484   1.599   1.365
   14SOL    HW2   79   1.444   1.451   1.421
   15SOL     OW   80   0.438   0.392   1.499
   15SOL    HW1   81   0.520   0.336   1.508
   15SOL    HW2   82   0.357   0.334   1.503
   16SOL     OW   83   1.603   0.447   0.737
   16SOL    HW1   84   1.529   0.493   0.687
   16SOL    HW2   85   1.654   0.515   0.790
   17SOL     OW   86   0.231   1.713   0.483
   17SOL    HW1   87   0.265   1.790   0.537
   17SOL    HW2   88   0.275   1.713   0.393
   18SOL     OW   89   1.127   1.341   1.690
   18SOL    HW1   90   1.174   1.341   1.778
   18SOL    HW2   91   1.079   1.254   1.679
   19SOL     OW   92   0.230   1.434   0.538
   19SOL    HW1   93   0.204   1.530   0.538
   19SOL    HW2   94   0.159   1.380   0.583
   20SOL     OW   95   0.240   1.091   0.886
   20SOL    HW1   96   0.254   1.007   0.938
   20SOL    HW2   97   0.185   1.155   0.941
   21SOL     OW   98   0.620   1.786   1.439
   21SOL    HW1   99   0.528   1.769   1.474
   21SOL    HW2  100   0.648   1.878   1.465
   22SOL     OW  101   0.606   0.964   0.123
   22SOL    HW1  102   0.613   1.048   0.069
   22SOL    HW2  103   0.652   0.977   0.211
   23SOL     OW  104   1.594   0.114   1.480
   23SOL    HW1  105   1.576   0.181   1.408
   23SOL    HW2  106   1.591   0.160   1.569
   24SOL     OW  107   0.122   0.643   0.563
   24SOL    HW1  108   0.077   0.555   0.580
   24SOL    HW2  109   0.121   0.697   0.647
   25SOL     OW  110   1.842   1.767   0.359
   25SOL    HW1  111   1.896   1.738   0.439
   25SOL    HW2  112   1.872   1.857   0.330
   26SOL     OW  113   0.027   1.596   0.117
   26SOL    HW1  114   0.008   1.500   0.138
   26SOL    HW2  115  -0.006   1.654   0.192
   27SOL     OW  116   1.689   0.922   0.612
   27SOL    HW1  117   1.784   0.893   0.620
   27SOL    HW2  118   1.681   0.987   0.537
   28SOL     OW  119   1.641   1.108   0.432
   28SOL    HW1  120   1.727   1.110   0.380
   28SOL    HW2  121   1.655   1.155   0.520
   29SOL     OW  122   0.113   0.737   1.597
   29SOL    HW1  123   0.201   0.724   1.642
   29SOL    HW2  124   0.100   0.834   1.575
   30SOL     OW  125   0.613   1.365   0.726
   30SOL    HW1  126   0.564   1.278   0.735
   30SOL    HW2  127   0.590   1.408   0.639
   31SOL     OW  128   1.293   1.228   1.423
   31SOL    HW1  129   1.330   1.155   1.365
   31SOL    HW2  130   1.345   1.233   1.508
   32SOL     OW  131   0.809   0.004   0.502
   32SOL    HW1  132   0.849   0.095   0.493
   32SOL    HW2  133   0.709   0.012   0.508
   33SOL     OW  134   0.197   0.976   1.264
   33SOL    HW1  135   0.286   0.931   1.250
   33SOL    HW2  136   0.124   0.911   1.245
   34SOL     OW  137   1.525   0.999   0.190
   34SOL    HW1  138   1.462   0.923   0.203
   34SOL    HW2  139   1.573   1.017   0.276
   35SOL     OW  140   1.187   1.792   1.616
   35SOL    HW1  141   1.211   1.852   1.540
   35SOL    HW2  142   1.194   1.697   1.586
   36SOL     OW  143   0.317   0.251   1.801
   36SOL    HW1  144   0.388   0.322   1.807
   36SOL    HW2  145   0.229   0.290   1.829
   37SOL     OW  146   1.466   1.417   0.953
   37SOL    HW1  147   1.407   1.423   1.033
   37SOL    HW2  148   1.451   1.329   0.907
   38SOL     OW  149   1.667   1.714   0.572
   38SOL    HW1  150   1.626   1.691   0.484
   38SOL    HW2  151   1.649   1.640   0.637
   39SOL     OW  152   0.598   0.729   0.270
   39SOL    HW1  153   0.622   0.798   0.202
   39SOL    HW2  154   0.520   0.762   0.324
   40SOL     OW  155   1.281   0.345   0.944
   40SOL    HW1  156   1.195   0.295   0.931
   40SOL    HW2  157   1.343   0.291   1.000
   41SOL     OW  158   1.576   1.662   0.307
   41SOL    HW1  159   1.665   1.708   0.310
   41SOL    HW2  160   1.555   1.638   0.212
   42SOL     OW  161   0.807   0.605   1.465
   42SOL    HW1  162   0.760   0.602   1.554
   42SOL    HW2  163   0.756   0.550   1.399
   43SOL     OW  164   1.394   0.469   1.674
   43SOL    HW1  165   1.374   0.512   1.762
   43SOL    HW2  166   1.472   0.407   1.683
   44SOL     OW  167   0.973   0.890   1.572
   44SOL    HW1  168   1.019   0.806   1.543
   44SOL    HW2  169   0.917   0.924   1.497
   45SOL     OW  170   0.991   0.410   1.242
   45SOL    HW1  171   0.914   0.444   1.296
   45SOL    HW2  172   0.957   0.359   1.163
   46SOL     OW  173   1.041   0.701   0.429
   46SOL    HW1  174   1.067   0.697   0.525
   46SOL    HW2  175   0.956   0.650   0.415
   47SOL     OW  176   0.076   0.811   0.789
   47SOL    HW1  177   0.175   0.799   0.798
   47SOL    HW2  178   0.052   0.906   0.810
   48SOL     OW  179   0.130   1.821   1.571
   48SOL    HW1  180   0.120   1.806   1.670
   48SOL    HW2  181   0.044   1.857   1.535
   49SOL     OW  182   0.865   0.348   0.195
   49SOL    HW1  183   0.924   0.411   0.146
   49SOL    HW2  184   0.884   0.254   0.166
   50SOL     OW  185   1.719   0.585   1.831
   50SOL    HW1  186   1.693   0.674   1.795
   50SOL    HW2  187   1.717   0.517   1.758
   51SOL     OW  188   1.362   1.144   0.545
   51SOL    HW1  189   1.445   1.115   0.497
   51SOL    HW2  190   1.313   1.211   0.489
   52SOL     OW  191   0.550   0.196   0.885
   52SOL    HW1  192   0.545   0.191   0.985
   52SOL    HW2  193   0.552   0.292   0.856
   53SOL     OW  194   1.008   1.456   0.477
   53SOL    HW1  195   0.962   1.528   0.425
   53SOL    HW2  196   1.004   1.476   0.575
   54SOL     OW  197   0.351   1.801   0.853
   54SOL    HW1  198   0.401   1.715   0.859
   54SOL    HW2  199   0.416   1.878   0.850
   55SOL     OW  200   1.795   1.066   0.873
   55SOL    HW1  201   1.733   1.051   0.797
   55SOL    HW2  202   1.743   1.077   0.958
   56SOL     OW  203   1.227   1.550   1.506
   56SOL    HW1  204   1.233   1.473   1.570
   56SOL    HW2  205   1.175   1.524   1.426
   57SOL     OW  206   0.321   0.943   0.242
   57SOL    HW1  207   0.403   0.982   0.200
   57SOL    HW2  208   0.294   0.861   0.193
   58SOL     OW  209   1.458   0.735   0.728
   58SOL    HW1  210   1.453   0.670   0.803
   58SOL    HW2  211   1.538   0.794   0.741
   59SOL     OW  212   0.461   1.266   1.727
   59SOL    HW1  213   0.411   1.267   1.641
   59SOL    HW2  214   0.398   1.248   1.803
   60SOL     OW  215   1.111   1.776   0.237
   60SOL    HW1  216   1.051   1.714   0.287
   60SOL    HW2  217   1.142   1.732   0.152
   61SOL     OW  218   0.202   0.285   1.498
   61SOL    HW1  219   0.122   0.345   1.485
   61SOL    HW2  220   0.192   0.236   1.584
   62SOL     OW  221   1.632   1.377   0.081
   62SOL    HW1  222   1.600   1.471   0.071
   62SOL    HW2  223   1.556   1.314   0.069
   63SOL     OW  224   0.464   1.743   0.323
   63SOL    HW1  225   0.497   1.782   0.409
   63SOL    HW2  226   0.540   1.736   0.258
   64SOL     OW  227   1.400   0.107   0.426
   64SOL    HW1  228   1.376   0.070   0.336
   64SOL    HW2  229   1.499   0.123   0.430
   65SOL     OW  230   0.249   1.785   1.241
   65SOL    HW1  231   0.306   1.720   1.291
   65SOL    HW2  232   0.233   1.752   1.148
   66SOL     OW  233   0.940   1.698   0.904
   66SOL    HW1  234   1.020   1.641   0.925
   66SOL    HW2  235   0.891   1.658   0.827
   67SOL     OW  236   0.382   0.700   0.480
   67SOL    HW1  237   0.427   0.610   0.477
   67SOL    HW2  238   0.288   0.689   0.513
   68SOL     OW  239   1.547   0.222   1.729
   68SOL    HW1  240   1.542   0.259   1.821
   68SOL    HW2  241   1.475   0.153   1.717
   69SOL     OW  242   0.614   0.122   0.117
   69SOL    HW1  243   0.712   0.100   0.124
   69SOL    HW2  244   0.583   0.105   0.024
   70SOL     OW  245   0.781   0.264   1.749
   70SOL    HW1  246   0.848   0.203   1.792
   70SOL    HW2  247   0.708   0.283   1.814
   71SOL     OW  248   0.888   1.514   1.195
   71SOL    HW1  249   0.865   1.489   1.101
   71SOL    HW2  250   0.949   1.445   1.234
   72SOL     OW  251   1.351   0.590   1.433
   72SOL    HW1  252   1.379   0.547   1.518
   72SOL    HW2  253   1.376   0.686   1.434
   73SOL     OW  254   0.803   1.402   0.924
   73SOL    HW1  255   0.893   1.416   0.882
   73SOL    HW2  256   0.732   1.404   0.853
   74SOL     OW  257   0.922   0.503   0.899
   74SOL    HW1  258   0.897   0.494   0.803
   74SOL    HW2  259   0.970   0.421   0.930
   75SOL     OW  260   0.539   0.064   0.512
   75SOL    HW1  261   0.458   0.065   0.570
   75SOL    HW2  262   0.542   0.147   0.457
   76SOL     OW  263   1.434   1.188   0.041
   76SOL    HW1  264   1.466   1.112   0.098
   76SOL    HW2  265   1.342   1.215   0.071
   77SOL     OW  266   0.297   0.035   0.171
   77SOL    HW1  267   0.346   0.119   0.150
   77SOL    HW2  268   0.359  -0.030   0.216
   78SOL     OW  269   0.935   0.236   0.480
   78SOL    HW1  270   0.887   0.277   0.402
   78SOL    HW2  271   1.034   0.234   0.461
   79SOL     OW  272   1.076   0.683   1.464
   79SOL    HW1  273   0.996   0.622   1.467
   79SOL    HW2  274   1.157   0.630   1.440
   80SOL     OW  275   1.227   1.570   0.793
   80SOL    HW1  276   1.248   1.644   0.728
   80SOL    HW2  277   1.295   1.570   0.866
   81SOL     OW  278   0.459   1.152   0.741
   81SOL    HW1  279   0.388   1.125   0.806
   81SOL    HW2  280   0.433   1.124   0.648
   82SOL     OW  281   1.271   1.797   0.591
   82SOL    HW1  282   1.315   1.861   0.527
   82SOL    HW2  283   1.221   1.849   0.661
   83SOL     OW  284   1.032   0.549   0.016
   83SOL    HW1  285   0.991   0.631  -0.023
   83SOL    HW2  286   1.096   0.575   0.089
   84SOL     OW  287   0.078   0.556   1.386
   84SOL    HW1  288   0.170   0.555   1.345
   84SOL    HW2  289   0.072   0.630   1.453
   85SOL     OW  290   0.561   0.222   1.147
   85SOL    HW1  291   0.599   0.138   1.184
   85SOL    HW2  292   0.473   0.241   1.191
   86SOL     OW  293   0.866   0.454   0.642
   86SOL    HW1  294   0.834   0.526   0.580
   86SOL    HW2  295   0.890   0.373   0.589
   87SOL     OW  296   1.017   0.039   0.753
   87SOL    HW1  297   0.945   0.044   0.684
   87SOL    HW2  298   0.993  -0.030   0.822
   88SOL     OW  299   1.429   1.173   0.867
   88SOL    HW1  300   1.374   1.089   0.860
   88SOL    HW2  301   1.455   1.202   0.775
   89SOL     OW  302   1.466   0.590   0.992
   89SOL    HW1  303   1.436   0.495   0.999
   89SOL    HW2  304   1.539   0.606   1.058
   90SOL     OW  305   1.857   0.833   0.377
   90SOL    HW1  306   1.899   0.769   0.441
   90SOL    HW2  307   1.819   0.782   0.299
   91SOL     OW  308   0.488   1.385   0.174
   91SOL    HW1  309   0.401   1.370   0.221
   91SOL    HW2  310   0.471   1.411   0.079
   92SOL     OW  311   1.664   1.280   0.657
   92SOL    HW1  312   1.763   1.288   0.671
   92SOL    HW2  313   1.619   1.364   0.688
   93SOL     OW  314   1.390   0.575   0.078
   93SOL    HW1  315   1.336   0.554   0.159
   93SOL    HW2  316   1.481   0.534   0.087
   94SOL     OW  317   0.527   0.256   0.328
   94SOL    HW1  318   0.554   0.197   0.253
   94SOL    HW2  319   0.527   0.351   0.297
   95SOL     OW  320   1.754   1.223   1.588
   95SOL    HW1  321   1.845   1.184   1.575
   95SOL    HW2  322   1.762   1.319   1.612
   96SOL     OW  323   1.064   1.347   1.340
   96SOL    HW1  324   0.984   1.324   1.395
   96SOL    HW2  325   1.147   1.321   1.389
   97SOL     OW  326   1.592   1.629   1.625
   97SOL    HW1  327   1.619   1.663   1.535
   97SOL    HW2  328   1.671   1.591   1.671
   98SOL     OW  329   1.111   1.195   1.100
   98SOL    HW1  330   1.071   1.239   1.181
   98SOL    HW2  331   1.070   1.232   1.017
   99SOL     OW  332   1.638   1.099   1.079
   99SOL    HW1  333   1.643   1.180   1.138
   99SOL    HW2  334   1.552   1.101   1.028
  100SOL     OW  335   0.915   0.089   1.402
  100SOL    HW1  336   0.940   0.069   1.307
  100SOL    HW2  337   0.987   0.145   1.444
  101SOL     OW  338   0.980   1.116   1.719
  101SOL    HW1  339   0.881   1.122   1.729
  101SOL    HW2  340   1.003   1.036   1.663
  102SOL     OW  341   0.705   1.050   0.368
  102SOL    HW1  342   0.691   1.057   0.467
  102SOL    HW2  343   0.789   0.999   0.350
  103SOL     OW  344   0.410   0.813   1.251
  103SOL    HW1  345   0.496   0.825   1.301
  103SOL    HW2  346   0.368   0.726   1.278
  104SOL     OW  347   1.274   0.386   1.262
  104SOL    HW1  348   1.295   0.460   1.326
  104SOL    HW2  349   1.185   0.403   1.219
  105SOL     OW  350   0.064   1.564   1.331
  105SOL    HW1  351   0.018   1.646   1.297
  105SOL    HW2  352   0.162   1.583   1.340
  106SOL     OW  353   0.367   1.100   0.501
  106SOL    HW1  354   0.360   1.183   0.445
  106SOL    HW2  355   0.371   1.020   0.441
  107SOL     OW  356   0.566   0.537   0.865
  107SOL    HW1  357   0.578   0.603   0.791
  107SOL    HW2  358   0.612   0.571   0.948
  108SOL     OW  359   1.252   1.348   0.388
  108SOL    HW1  360   1.302   1.425   0.428
  108SOL    HW2  361   1.157   1.350   0.420
  109SOL     OW  362   1.272   1.445   1.142
  109SOL    HW1  363   1.319   1.458   1.229
  109SOL    HW2  364   1.206   1.371   1.151
  110SOL     OW  365   1.582   0.639   0.472
  110SOL    HW1  366   1.551   0.700   0.545
  110SOL    HW2  367   1.632   0.691   0.403
  111SOL     OW  368   0.354   1.510   1.329
  111SOL    HW1  369   0.333   1.466   1.242
  111SOL    HW2  370   0.451   1.536   1.332
  112SOL     OW  371   0.402   0.751   1.598
  112SOL    HW1  372   0.470   0.806   1.551
  112SOL    HW2  373   0.442   0.663   1.625
  113SOL     OW  374   1.587   0.779   1.670
  113SOL    HW1  375   1.495   0.817   1.665
  113SOL    HW2  376   1.647   0.826   1.605
  114SOL     OW  377   1.013   0.105   1.770
  114SOL    HW1  378   1.019   0.190   1.718
  114SOL    HW2  379   1.045   0.029   1.713
  115SOL     OW  380   0.504   0.050   1.740
  115SOL    HW1  381   0.462  -0.007   1.670
  115SOL    HW2  382   0.438   0.119   1.772
  116SOL     OW  383   0.573   0.870   1.029
  116SOL    HW1  384   0.617   0.959   1.020
  116SOL    HW2  385   0.510   0.870   1.106
  117SOL     OW  386   1.360   0.862   1.045
  117SOL    HW1  387   1.285   0.862   0.979
  117SOL    HW2  388   1.397   0.770   1.054
  118SOL     OW  389   1.209   0.525   0.275
  118SOL    HW1  390   1.222   0.441   0.329
  118SOL    HW2  391   1.180   0.599   0.335
  119SOL     OW  392   0.307   0.213   1.231
  119SOL    HW1  393   0.284   0.250   1.321
  119SOL    HW2  394   0.277   0.118   1.225
  120SOL     OW  395   0.037   1.310   1.282
  120SOL    HW1  396   0.090   1.261   1.350
  120SOL    HW2  397   0.059   1.408   1.287
  121SOL     OW  398   0.732   0.634   1.064
  121SOL    HW1  399   0.791   0.608   0.988
  121SOL    HW2  400   0.704   0.730   1.053
  122SOL     OW  401   1.728   0.935   1.854
  122SOL    HW1  402   1.682   0.928   1.765
  122SOL    HW2  403   1.666   0.979   1.920
  123SOL     OW  404   0.307   0.063   0.618
  123SOL    HW1  405   0.296   0.157   0.651
  123SOL    HW2  406   0.302   0.000   0.695
  124SOL     OW  407   1.622   0.367   0.374
  124SOL    HW1  408   1.624   0.291   0.438
  124SOL    HW2  409   1.574   0.444   0.414
  125SOL     OW  410   1.023   0.766   0.966
  125SOL    HW1  411   1.038   0.787   1.062
  125SOL    HW2  412   0.993   0.671   0.957
  126SOL     OW  413   0.980   1.573   1.700
  126SOL    HW1  414   0.960   1.617   1.612
  126SOL    HW2  415   1.019   1.482   1.684
  127SOL     OW  416   1.859   1.518   1.605
  127SOL    HW1  417   1.873   1.545   1.510
  127SOL    HW2  418   1.942   1.540   1.658
  128SOL     OW  419   0.350   0.898   1.804
  128SOL    HW1  420   0.426   0.942   1.852
  128SOL    HW2  421   0.385   0.851   1.722
  129SOL     OW  422   1.540   0.274   0.125
  129SOL    HW1  423   1.479   0.199   0.148
  129SOL    HW2  424   1.562   0.326   0.208
  130SOL     OW  425   1.303   0.838   0.042
  130SOL    HW1  426   1.337   0.745   0.057
  130SOL    HW2  427   1.321   0.865  -0.053
  131SOL     OW  428   1.068   1.333   0.849
  131SOL    HW1  429   1.075   1.249   0.794
  131SOL    HW2  430   1.130   1.402   0.813
  132SOL     OW  431   0.319   0.810   0.949
  132SOL    HW1  432   0.412   0.846   0.954
  132SOL    HW2  433   0.313   0.725   1.001
  133SOL     OW  434   0.339   0.509   1.006
  133SOL    HW1  435   0.287   0.426   0.989
  133SOL    HW2  436   0.416   0.514   0.942
  134SOL     OW  437   1.138   0.380   1.678
  134SOL    HW1  438   1.093   0.443   1.742
  134SOL    HW2  439   1.231   0.411   1.661
  135SOL     OW  440   1.160   0.207   1.477
  135SOL    HW1  441   1.160   0.271   1.554
  135SOL    HW2  442   1.188   0.255   1.394
  136SOL     OW  443   0.008   1.326   0.200
  136SOL    HW1  444  -0.085   1.347   0.169
  136SOL    HW2  445   0.018   1.227   0.213
  137SOL     OW  446   0.088   1.801   0.927
  137SOL    HW1  447   0.046   1.715   0.900
  137SOL    HW2  448   0.182   1.804   0.893
  138SOL     OW  449   0.504   1.568   0.910
  138SOL    HW1  450   0.570   1.642   0.919
  138SOL    HW2  451   0.548   1.489   0.868
  139SOL     OW  452   1.002   0.796   1.238
  139SOL    HW1  453   1.043   0.764   1.324
  139SOL    HW2  454   0.906   0.769   1.235
  140SOL     OW  455   0.040   0.544   1.114
  140SOL    HW1  456   0.125   0.511   1.073
  140SOL    HW2  457   0.053   0.559   1.212
  141SOL     OW  458   0.189   0.520   1.722
  141SOL    HW1  459   0.248   0.480   1.652
  141SOL    HW2  460   0.131   0.591   1.681
  142SOL     OW  461   1.369   0.950   1.660
  142SOL    HW1  462   1.408   1.039   1.680
  142SOL    HW2  463   1.379   0.930   1.563
  143SOL     OW  464   0.815   0.572   0.325
  143SOL    HW1  465   0.822   0.483   0.279
  143SOL    HW2  466   0.721   0.606   0.317
  144SOL     OW  467   1.657   0.604   1.206
  144SOL    HW1  468   1.619   0.535   1.268
  144SOL    HW2  469   1.739   0.568   1.162
  145SOL     OW  470   0.252   1.564   1.744
  145SOL    HW1  471   0.222   1.621   1.820
  145SOL    HW2  472   0.245   1.467   1.770
  146SOL     OW  473   0.671   0.464   1.269
  146SOL    HW1  474   0.637   0.375   1.239
  146SOL    HW2  475   0.697   0.518   1.189
  147SOL     OW  476   0.930   1.678   1.465
  147SOL    HW1  477   0.906   1.660   1.370
  147SOL    HW2  478   0.960   1.772   1.475
  148SOL     OW  479   0.473   0.500   0.191
  148SOL    HW1  480   0.534   0.580   0.195
  148SOL    HW2  481   0.378   0.531   0.198
  149SOL     OW  482   0.159   1.137   1.466
  149SOL    HW1  483   0.181   1.076   1.542
  149SOL    HW2  484   0.169   1.088   1.380
  150SOL     OW  485   1.347   1.059   1.234
  150SOL    HW1  486   1.371   0.996   1.160
  150SOL    HW2  487   1.257   1.099   1.216
  151SOL     OW  488   1.302   0.855   0.309
  151SOL    HW1  489   1.216   0.824   0.351
  151SOL    HW2  490   1.298   0.841   0.210
  152SOL     OW  491   1.759   1.747   1.154
  152SOL    HW1  492   1.820   1.777   1.081
  152SOL    HW2  493   1.721   1.658   1.132
  153SOL     OW  494   1.252   1.731   1.128
  153SOL    HW1  495   1.336   1.736   1.074
  153SOL    HW2  496   1.229   1.635   1.146
  154SOL     OW  497   0.083   1.258   1.022
  154SOL    HW1  498   0.078   1.257   1.122
  154SOL    HW2  499   0.000   1.217   0.984
  155SOL     OW  500   0.688   1.662   1.716
  155SOL    HW1  501   0.632   1.743   1.725
  155SOL    HW2  502   0.740   1.666   1.630
  156SOL     OW  503   0.903   0.086   0.133
  156SOL    HW1  504   0.954   0.087   0.047
  156SOL    HW2  505   0.959   0.044   0.204
  157SOL     OW  506   1.726   0.135   0.523
  157SOL    HW1  507   1.799   0.118   0.456
  157SOL    HW2  508   1.695   0.048   0.561
  158SOL     OW  509   1.388   1.573   0.477
  158SOL    HW1  510   1.455   1.585   0.403
  158SOL    HW2  511   1.348   1.662   0.500
  159SOL     OW  512   0.130   1.794   1.851
  159SOL    HW1  513   0.089   1.720   1.904
  159SOL    HW2  514   0.194   1.845   1.909
  160SOL     OW  515   1.280   0.927   0.672
  160SOL    HW1  516   1.340   0.846   0.674
  160SOL    HW2  517   1.320   0.996   0.612
  161SOL     OW  518   0.830   1.273   1.422
  161SOL    HW1  519   0.825   1.306   1.517
  161SOL    HW2  520   0.744   1.292   1.376
  162SOL     OW  521   0.672   1.616   0.154
  162SOL    HW1  522   0.681   1.626   0.055
  162SOL    HW2  523   0.632   1.527   0.175
  163SOL     OW  524   1.650   1.720   1.394
  163SOL    HW1  525   1.703   1.730   1.310
  163SOL    HW2  526   1.623   1.810   1.428
  164SOL     OW  527   1.841   0.175   0.963
  164SOL    HW1  528   1.880   0.090   0.927
  164SOL    HW2  529   1.743   0.177   0.944
  165SOL     OW  530   0.263   0.326   0.720
  165SOL    HW1  531   0.184   0.377   0.686
  165SOL    HW2  532   0.254   0.311   0.818
  166SOL     OW  533   1.194   1.612   0.031
  166SOL    HW1  534   1.200   1.519   0.068
  166SOL    HW2  535   1.135   1.612  -0.049
  167SOL     OW  536   0.822   1.002   1.372
  167SOL    HW1  537   0.862   1.001   1.280
  167SOL    HW2  538   0.832   1.094   1.412
  168SOL     OW  539   0.916   0.910   0.291
  168SOL    HW1  540   0.979   0.948   0.223
  168SOL    HW2  541   0.956   0.827   0.330
  169SOL     OW  542   1.504   1.607   0.044
  169SOL    HW1  543   1.412   1.644   0.051
  169SOL    HW2  544   1.542   1.627  -0.046
  170SOL     OW  545   0.372   1.288   1.490
  170SOL    HW1  546   0.359   1.381   1.456
  170SOL    HW2  547   0.288   1.236   1.477
  171SOL     OW  548   1.614   1.292   1.289
  171SOL    HW1  549   1.674   1.295   1.369
  171SOL    HW2  550   1.539   1.356   1.302
  172SOL     OW  551   1.039   1.098   0.696
  172SOL    HW1  552   0.969   1.051   0.750
  172SOL    HW2  553   1.098   1.030   0.653
  173SOL     OW  554   1.014   0.236   0.971
  173SOL    HW1  555   1.006   0.200   0.878
  173SOL    HW2  556   1.012   0.160   1.036
  174SOL     OW  557   0.590   1.487   0.491
  174SOL    HW1  558   0.632   1.429   0.421
  174SOL    HW2  559   0.546   1.566   0.447
  175SOL     OW  560   1.709   0.385   1.381
  175SOL    HW1  561   1.782   0.454   1.385
  175SOL    HW2  562   1.737   0.310   1.322
  176SOL     OW  563   0.255   1.348   0.290
  176SOL    HW1  564   0.159   1.349   0.263
  176SOL    HW2  565   0.267   1.401   0.374
  177SOL     OW  566   0.105   1.013   1.726
  177SOL    HW1  567   0.028   0.980   1.780
  177SOL    HW2  568   0.190   0.983   1.768
  178SOL     OW  569   0.672   0.203   1.489
  178SOL    HW1  570   0.762   0.187   1.449
  178SOL    HW2  571   0.680   0.208   1.588
  179SOL     OW  572   0.075   0.345   0.033
  179SOL    HW1  573  -0.017   0.317   0.004
  179SOL    HW2  574   0.106   0.422  -0.023
  180SOL     OW  575   1.440   0.856   1.398
  180SOL    HW1  576   1.383   0.908   1.335
  180SOL    HW2  577   1.536   0.868   1.374
  181SOL     OW  578   0.072   0.166   0.318
  181SOL    HW1  579   0.055   0.249   0.264
  181SOL    HW2  580   0.162   0.129   0.296
  182SOL     OW  581   1.183   1.335   0.119
  182SOL    HW1  582   1.084   1.324   0.121
  182SOL    HW2  583   1.217   1.350   0.212
  183SOL     OW  584   0.613   0.842   1.431
  183SOL    HW1  585   0.669   0.923   1.414
  183SOL    HW2  586   0.672   0.762   1.434
  184SOL     OW  587   1.493   1.767   0.959
  184SOL    HW1  588   1.526   1.831   0.890
  184SOL    HW2  589   1.559   1.761   1.034
  185SOL     OW  590   0.716   0.565   1.708
  185SOL    HW1  591   0.735   0.630   1.782
  185SOL    HW2  592   0.776   0.485   1.717
  186SOL     OW  593   1.450   1.220   1.633
  186SOL    HW1  594   1.441   1.210   1.732
  186SOL    HW2  595   1.546   1.213   1.607
  187SOL     OW  596   0.390   1.741   1.560
  187SOL    HW1  597   0.299   1.782   1.558
  187SOL    HW2  598   0.383   1.647   1.592
  188SOL     OW  599   1.674   0.883   1.254
  188SOL    HW1  600   1.647   0.794   1.217
  188SOL    HW2  601   1.675   0.951   1.181
  189SOL     OW  602   1.225   0.325   0.449
  189SOL    HW1  603   1.290   0.251   0.438
  189SOL    HW2  604   1.245   0.375   0.533
  190SOL     OW  605   0.594   0.745   0.652
  190SOL    HW1  606   0.644   0.830   0.633
  190SOL    HW2  607   0.506   0.747   0.604
  191SOL     OW  608   1.777   0.342   1.642
  191SOL    HW1  609   1.760   0.373   1.548
  191SOL    HW2  610   1.693   0.305   1.680
  192SOL     OW  611   1.730   0.934   1.517
  192SOL    HW1  612   1.768   1.025   1.532
  192SOL    HW2  613   1.722   0.917   1.418
  193SOL     OW  614   0.859   1.374   0.016
  193SOL    HW1  615   0.813   1.389   0.104
  193SOL    HW2  616   0.903   1.459  -0.014
  194SOL     OW  617   0.661   1.790   0.953
  194SOL    HW1  618   0.615   1.878   0.940
  194SOL    HW2  619   0.760   1.802   0.946
  195SOL     OW  620   0.859   0.956   0.861
  195SOL    HW1  621   0.913   0.887   0.909
  195SOL    HW2  622   0.827   1.025   0.927
  196SOL     OW  623   1.083   0.984   0.087
  196SOL    HW1  624   1.060   1.037   0.005
  196SOL    HW2  625   1.164   0.928   0.068
  197SOL     OW  626   1.861   1.569   0.851
  197SOL    HW1  627   1.790   1.557   0.781
  197SOL    HW2  628   1.862   1.490   0.911
  198SOL     OW  629   0.221   1.314   1.844
  198SOL    HW1  630   0.156   1.241   1.823
  198SOL    HW2  631   0.225   1.328   1.942
  199SOL     OW  632   0.079   1.240   0.653
  199SOL    HW1  633   0.078   1.193   0.741
  199SOL    HW2  634   0.161   1.212   0.602
  200SOL     OW  635   0.672   1.391   1.624
  200SOL    HW1  636   0.594   1.341   1.662
  200SOL    HW2  637   0.669   1.486   1.655
  201SOL     OW  638   1.824   0.192   1.227
  201SOL    HW1  639   1.820   0.102   1.271
  201SOL    HW2  640   1.827   0.181   1.128
  202SOL     OW  641   0.428   0.424   0.520
  202SOL    HW1  642   0.458   0.352   0.458
  202SOL    HW2  643   0.389   0.384   0.603
  203SOL     OW  644   1.705   1.487   1.104
  203SOL    HW1  645   1.612   1.462   1.077
  203SOL    HW2  646   1.731   1.437   1.186
  204SOL     OW  647   0.317   0.547   1.280
  204SOL    HW1  648   0.355   0.488   1.352
  204SOL    HW2  649   0.357   0.521   1.192
  205SOL     OW  650   0.812   1.586   0.687
  205SOL    HW1  651   0.844   1.596   0.593
  205SOL    HW2  652   0.733   1.524   0.689
  206SOL     OW  653   1.424   0.214   1.112
  206SOL    HW1  654   1.476   0.149   1.167
  206SOL    HW2  655   1.375   0.277   1.173
  207SOL     OW  656   1.001   0.034   1.154
  207SOL    HW1  657   0.938  -0.038   1.123
  207SOL    HW2  658   1.094  -0.002   1.154
  208SOL     OW  659   0.770   1.330   0.301
  208SOL    HW1  660   0.724   1.243   0.318
  208SOL    HW2  661   0.861   1.327   0.342
  209SOL     OW  662   0.618   1.567   1.284
  209SOL    HW1  663   0.613   1.649   1.341
  209SOL    HW2  664   0.707   1.564   1.239
  210SOL     OW  665   1.352   0.052   0.168
  210SOL    HW1  666   1.387   0.011   0.084
  210SOL    HW2  667   1.262   0.014   0.188
  211SOL     OW  668   1.300   0.453   0.691
  211SOL    HW1  669   1.241   0.533   0.695
  211SOL    HW2  670   1.315   0.418   0.784
  212SOL     OW  671   1.593   0.221   0.882
  212SOL    HW1  672   1.509   0.220   0.936
  212SOL    HW2  673   1.595   0.304   0.826
  213SOL     OW  674   0.039   1.077   0.300
  213SOL    HW1  675   0.138   1.066   0.291
  213SOL    HW2  676  -0.001   0.991   0.332
  214SOL     OW  677   0.875   1.646   0.337
  214SOL    HW1  678   0.798   1.611   0.283
  214SOL    HW2  679   0.843   1.717   0.399
  215SOL     OW  680   0.230   0.628   1.975
  215SOL    HW1  681   0.137   0.626   2.012
  215SOL    HW2  682   0.231   0.589   1.883
  216SOL     OW  683   0.225   0.275   2.858
  216SOL    HW1  684   0.260   0.258   2.950
  216SOL    HW2  685   0.137   0.230   2.846
  217SOL     OW  686   0.019   0.368   2.509
  217SOL    HW1  687  -0.063   0.411   2.548
  217SOL    HW2  688  -0.009   0.295   2.446
  218SOL     OW  689   0.569   1.275   3.027
  218SOL    HW1  690   0.476   1.268   2.990
  218SOL    HW2  691   0.580   1.364   3.071
  219SOL     OW  692   1.555   1.511   2.565
  219SOL    HW1  693   1.498   1.495   2.646
  219SOL    HW2  694   1.496   1.521   2.485
  220SOL     OW  695   1.135   0.703   2.579
  220SOL    HW1  696   1.192   0.781   2.554
  220SOL    HW2  697   1.075   0.729   2.655
  221SOL     OW  698   1.755   0.607   2.093
  221SOL    HW1  699   1.743   0.594   1.994
  221SOL    HW2  700   1.725   0.526   2.142
  222SOL     OW  701   0.768   1.144   2.885
  222SOL    HW1  702   0.690   1.161   2.945
  222SOL    HW2  703   0.802   1.231   2.849
  223SOL     OW  704   0.850   0.798   3.685
  223SOL    HW1  705   0.846   0.874   3.750
  223SOL    HW2  706   0.872   0.834   3.594
  224SOL     OW  707   0.685   1.012   2.527
  224SOL    HW1  708   0.754   0.996   2.597
  224SOL    HW2  709   0.612   1.069   2.565
  225SOL     OW  710   0.686   1.161   3.665
  225SOL    HW1  711   0.746   1.240   3.679
  225SOL    HW2  712   0.600   1.192   3.624
  226SOL     OW  713   0.335   1.435   2.923
  226SOL    HW1  714   0.257   1.404   2.870
  226SOL    HW2  715   0.393   1.493   2.866
  227SOL     OW  716   1.460   1.505   3.201
  227SOL    HW1  717   1.484   1.599   3.227
  227SOL    HW2  718   1.444   1.451   3.283
  228SOL     OW  719   0.438   0.392   3.361
  228SOL    HW1  720   0.520   0.336   3.370
  228SOL    HW2  721   0.357   0.334   3.365
  229SOL     OW  722   1.603   0.447   2.599
  229SOL    HW1  723   1.529   0.493   2.549
  229SOL    HW2  724   1.654   0.515   2.652
  230SOL     OW  725   0.231   1.713   2.345
  230SOL    HW1  726   0.265   1.790   2.399
  230SOL    HW2  727   0.275   1.713   2.255
  231SOL     OW  728   1.127   1.341   3.552
  231SOL    HW1  729   1.174   1.341   3.640
  231SOL    HW2  730   1.079   1.254   3.541
  232SOL     OW  731   0.230   1.434   2.400
  232SOL    HW1  732   0.204   1.530   2.400
  232SOL    HW2  733   0.159   1.380   2.445
  233SOL     OW  734   0.240   1.091   2.748
  233SOL    HW1  735   0.254   1.007   2.800
  233SOL    HW2  736   0.185   1.155   2.803
  234SOL     OW  737   0.620   1.786   3.301
  234SOL    HW1  738   0.528   1.769   3.336
  234SOL    HW2  739   0.648   1.878   3.327
  235SOL     OW  740   0.606   0.964   1.985
  235SOL    HW1  741   0.613   1.048   1.931
  235SOL    HW2  742   0.652   0.977   2.073
  236SOL     OW  743   1.594   0.114   3.342
  236SOL    HW1  744   1.576   0.181   3.270
  236SOL    HW2  745   1.591   0.160   3.431
  237SOL     OW  746   0.122   0.643   2.425
  237SOL    HW1  747   0.077   0.555   2.442
  237SOL    HW2  748   0.121   0.697   2.509
  238SOL     OW  749   1.842   1.767   2.221
  238SOL    HW1  750   1.896   1.738   2.301
  238SOL    HW2  751   1.872   1.857   2.192
  239SOL     OW  752   0.027   1.596   1.979
  239SOL    HW1  753   0.008   1.500   2.000
  239SOL    HW2  754  -0.006   1.654   2.054
  240SOL     OW  755   1.689   0.922   2.474
  240SOL    HW1  756   1.784   0.893   2.482
  240SOL    HW2  757   1.681   0.987   2.399
  241SOL     OW  758   1.641   1.108   2.294
  241SOL    HW1  759   1.727   1.110   2.242
  241SOL    HW2  760   1.655   1.155   2.382
  242SOL     OW  761   0.113   0.737   3.459
  242SOL    HW1  762   0.201   0.724   3.504
  242SOL    HW2  763   0.100   0.834   3.437
  243SOL     OW  764   0.613   1.365   2.588
  243SOL    HW1  765   0.564   1.278   2.597
  243SOL    HW2  766   0.590   1.408   2.501
  244SOL     OW  767   1.293   1.228   3.285
  244SOL    HW1  768   1.330   1.155   3.227
  244SOL    HW2  769   1.345   1.233   3.370
  245SOL     OW  770   0.809   0.004   2.364
  245SOL    HW1  771   0.849   0.095   2.355
  245SOL    HW2  772   0.709   0.012   2.370
  246SOL     OW  773   0.197   0.976   3.126
  246SOL    HW1  774   0.286   0.931   3.112
  246SOL    HW2  775   0.124   0.911   3.107
  247SOL     OW  776   1.525   0.999   2.052
  247SOL    HW1  777   1.462   0.923   2.065
  247SOL    HW2  778   1.573   1.017   2.138
  248SOL     OW  779   1.187   1.792   3.478
  248SOL    HW1  780   1.211   1.852   3.402
  248SOL    HW2  781   1.194   1.697   3.448
  249SOL     OW  782   0.317   0.251   3.663
  249SOL    HW1  783   0.388   0.322   3.669
  249SOL    HW2  784   0.229   0.290   3.691
  250SOL     OW  785   1.466   1.417   2.815
  250SOL    HW1  786   1.407   1.423   2.895
  250SOL    HW2  787   1.451   1.329   2.769
  251SOL     OW  788   1.667   1.714   2.434
  251SOL    HW1  789   1.626   1.691   2.346
  251SOL    HW2  790   1.649   1.640   2.499
  252SOL     OW  791   0.598   0.729   2.132
  252SOL    HW1  792   0.622   0.798   2.064
  252SOL    HW2  793   0.520   0.762   2.186
  253SOL     OW  794   1.281   0.345   2.806
  253SOL    HW1  795   1.195   0.295   2.793
  253SOL    HW2  796   1.343   0.291   2.862
  254SOL     OW  797   1.576   1.662   2.169
  254SOL    HW1  798   1.665   1.708   2.172
  254SOL    HW2  799   1.555   1.638   2.074
  255SOL     OW  800   0.807   0.605   3.327
  255SOL    HW1  801   0.760   0.602   3.416
  255SOL    HW2  802   0.756   0.550   3.261
  256SOL     OW  803   1.394   0.469   3.536
  256SOL    HW1  804   1.374   0.512   3.624
  256SOL    HW2  805   1.472   0.407   3.545
  257SOL     OW  806   0.973   0.890   3.434
  257SOL    HW1  807   1.019   0.806   3.405
  257SOL    HW2  808   0.917   0.924   3.359
  258SOL     OW  809   0.991   0.410   3.104
  258SOL    HW1  810   0.914   0.444   3.158
  258SOL    HW2  811   0.957   0.359   3.025
  259SOL     OW  812   1.041   0.701   2.291
  259SOL    HW1  813   1.067   0.697   2.387
  259SOL    HW2  814   0.956   0.650   2.277
  260SOL     OW  815   0.076   0.811   2.651
  260SOL    HW1  816   0.175   0.799   2.660
  260SOL    HW2  817   0.052   0.906   2.672
  261SOL     OW  818   0.130   1.821   3.433
  261SOL    HW1  819   0.120   1.806   3.532
  261SOL    HW2  820   0.044   1.857   3.397
  262SOL     OW  821   0.865   0.348   2.057
  262SOL    HW1  822   0.924   0.411   2.008
  262SOL    HW2  823   0.884   0.254   2.028
  263SOL     OW  824   1.719   0.585   3.693
  263SOL    HW1  825   1.693   0.674   3.657
  263SOL    HW2  826   1.717   0.517   3.620
  264SOL     OW  827   1.362   1.144   2.407
  264SOL    HW1  828   1.445   1.115   2.359
  264SOL    HW2  829   1.313   1.211   2.351
  265SOL     OW  830   0.550   0.196   2.747
  265SOL    HW1  831   0.545   0.191   2.847
  265SOL    HW2  832   0.552   0.292   2.718
  266SOL     OW  833   1.008   1.456   2.339
  266SOL    HW1  834   0.962   1.528   2.287
  266SOL    HW2  835   1.004   1.476   2.437
  267SOL     OW  836   0.351   1.801   2.715
  267SOL    HW1  837   0.401   1.715   2.721
  267SOL    HW2  838   0.416   1.878   2.712
  268SOL     OW  839   1.795   1.066   2.735
  268SOL    HW1  840   1.733   1.051   2.659
  268SOL    HW2  841   1.743   1.077   2.820
  269SOL     OW  842   1.227   1.550   3.368
  269SOL    HW1  843   1.233   1.473   3.432
  269SOL    HW2  844   1.175   1.524   3.288
  270SOL     OW  845   0.321   0.943   2.104
  270SOL    HW1  846   0.403   0.982   2.062
  270SOL    HW2  847   0.294   0.861   2.055
  271SOL     OW  848   1.458   0.735   2.590
  271SOL    HW1  849   1.453   0.670   2.665
  271SOL    HW2  850   1.538   0.794   2.603
  272SOL     OW  851   0.461   1.266   3.589
  272SOL    HW1  852   0.411   1.267   3.503
  272SOL    HW2  853   0.398   1.248   3.665
  273SOL     OW  854   1.111   1.776   2.099
  273SOL    HW1  855   1.051   1.714   2.149
  273SOL    HW2  856   1.142   1.732   2.014
  274SOL     OW  857   0.202   0.285   3.360
  274SOL    HW1  858   0.122   0.345   3.347
  274SOL    HW2  859   0.192   0.236   3.446
  275SOL     OW  860   1.632   1.377   1.943
  275SOL    HW1  861   1.600   1.471   1.933
  275SOL    HW2  862   1.556   1.314   1.931
  276SOL     OW  863   0.464   1.743   2.185
  276SOL    HW1  864   0.497   1.782   2.271
  276SOL    HW2  865   0.540   1.736   2.120
  277SOL     OW  866   1.400   0.107   2.288
  277SOL    HW1  867   1.376   0.070   2.198
  277SOL    HW2  868   1.499   0.123   2.292
  278SOL     OW  869   0.249   1.785   3.103
  278SOL    HW1  870   0.306   1.720   3.153
  278SOL    HW2  871   0.233   1.752   3.010
  279SOL     OW  872   0.940   1.698   2.766
  279SOL    HW1  873   1.020   1.641   2.787
  279SOL    HW2  874   0.891   1.658   2.689
  280SOL     OW  875   0.382   0.700   2.342
  280SOL    HW1  876   0.427   0.610   2.339
  280SOL    HW2  877   0.288   0.689   2.375
  281SOL     OW  878   1.547   0.222   3.591
  281SOL    HW1  879   1.542   0.259   3.683
  281SOL    HW2  880   1.475   0.153   3.579
  282SOL     OW  881   0.614   0.122   1.979
  282SOL    HW1  882   0.712   0.100   1.986
  282SOL    HW2  883   0.583   0.105   1.886
  283SOL     OW  884   0.781   0.264   3.611
  283SOL    HW1  885   0.848   0.203   3.654
  283SOL    HW2  886   0.708   0.283   3.676
  284SOL     OW  887   0.888   1.514   3.057
  284SOL    HW1  888   0.865   1.489   2.963
  284SOL    HW2  889   0.949   1.445   3.096
  285SOL     OW  890   1.351   0.590   3.295
  285SOL    HW1  891   1.379   0.547   3.380
  285SOL    HW2  892   1.376   0.686   3.296
  286SOL     OW  893   0.803   1.402   2.786
  286SOL    HW1  894   0.893   1.416   2.744
  286SOL    HW2  895   0.732   1.404   2.715
  287SOL     OW  896   0.922   0.503   2.761
  287SOL    HW1  897   0.897   0.494   2.665
  287SOL    HW2  898   0.970   0.421   2.792
  288SOL     OW  899   0.539   0.064   2.374
  288SOL    HW1  900   0.458   0.065   2.432
  288SOL    HW2  901   0.542   0.147   2.319
  289SOL     OW  902   1.434   1.188   1.903
  289SOL    HW1  903   1.466   1.112   1.960
  289SOL    HW2  904   1.342   1.215   1.933
  290SOL     OW  905   0.297   0.035   2.033
  290SOL    HW1  906   0.346   0.119   2.012
  290SOL    HW2  907   0.359  -0.030   2.078
  291SOL     OW  908   0.935   0.236   2.342
  291SOL    HW1  909   0.887   0.277   2.264
  291SOL    HW2  910   1.034   0.234   2.323
  292SOL     OW  911   1.076   0.683   3.326
  292SOL    HW1  912   0.996   0.622   3.329
  292SOL    HW2  913   1.157   0.630   3.302
  293SOL     OW  914   1.227   1.570   2.655
  293SOL    HW1  915   1.248   1.644   2.590
  293SOL    HW2  916   1.295   1.570   2.728
  294SOL     OW  917   0.459   1.152   2.603
  294SOL    HW1  918   0.388   1.125   2.668
  294SOL    HW2  919   0.433   1.124   2.510
  295SOL     OW  920   1.271   1.797   2.453
  295SOL    HW1  921   1.315   1.861   2.389
  295SOL    HW2  922   1.221   1.849   2.523
  296SOL     OW  923   1.032   0.549   1.878
  296SOL    HW1  924   0.991   0.631   1.839
  296SOL    HW2  925   1.096   0.575   1.951
  297SOL     OW  926   0.078   0.556   3.248
  297SOL    HW1  927   0.170   0.555   3.207
  297SOL    HW2  928   0.072   0.630   3.315
  298SOL     OW  929   0.561   0.222   3.009
  298SOL    HW1  930   0.599   0.138   3.046
  298SOL    HW2  931   0.473   0.241   3.053
  299SOL     OW  932   0.866   0.454   2.504
  299SOL    HW1  933   0.834   0.526   2.442
  299SOL    HW2  934   0.890   0.373   2.451
  300SOL     OW  935   1.017   0.039   2.615
  300SOL    HW1  936   0.945   0.044   2.546
  300SOL    HW2  937   0.993  -0.030   2.684
  301SOL     OW  938   1.429   1.173   2.729
  301SOL    HW1  939   1.374   1.089   2.722
  301SOL    HW2  940   1.455   1.202   2.637
  302SOL     OW  941   1.466   0.590   2.854
  302SOL    HW1  942   1.436   0.495   2.861
  302SOL    HW2  943   1.539   0.606   2.920
  303SOL     OW  944   1.857   0.833   2.239
  303SOL    HW1  945   1.899   0.769   2.303
  303SOL    HW2  946   1.819   0.782   2.161
  304SOL     OW  947   0.488   1.385   2.036
  304SOL    HW1  948   0.401   1.370   2.083
  304SOL    HW2  949   0.471   1.411   1.941
  305SOL     OW  950   1.664   1.280   2.519
  305SOL    HW1  951   1.763   1.288   2.533
  305SOL    HW2  952   1.619   1.364   2.550
  306SOL     OW  953   1.390   0.575   1.940
  306SOL    HW1  954   1.336   0.554   2.021
  306SOL    HW2  955   1.481   0.534   1.949
  307SOL     OW  956   0.527   0.256   2.190
  307SOL    HW1  957   0.554   0.197   2.115
  307SOL    HW2  958   0.527   0.351   2.159
  308SOL     OW  959   1.754   1.223   3.450
  308SOL    HW1  960   1.845   1.184   3.437
  308SOL    HW2  961   1.762   1.319   3.474
  309SOL     OW  962   1.064   1.347   3.202
  309SOL    HW1  963   0.984   1.324   3.257
  309SOL    HW2  964   1.147   1.321   3.251
  310SOL     OW  965   1.592   1.629   3.487
  310SOL    HW1  966   1.619   1.663   3.397
  310SOL    HW2  967   1.671   1.591   3.533
  311SOL     OW  968   1.111   1.195   2.962
  311SOL    HW1  969   1.071   1.239   3.043
  311SOL    HW2  970   1.070   1.232   2.879
  312SOL     OW  971   1.638   1.099   2.941
  312SOL    HW1  972   1.643   1.180   3.000
  312SOL    HW2  973   1.552   1.101   2.890
  313SOL     OW  974   0.915   0.089   3.264
  313SOL    HW1  975   0.940   0.069   3.169
  313SOL    HW2  976   0.987   0.145   3.306
  314SOL     OW  977   0.980   1.116   3.581
  314SOL    HW1  978   0.881   1.122   3.591
  314SOL    HW2  979   1.003   1.036   3.525
  315SOL     OW  980   0.705   1.050   2.230
  315SOL    HW1  981   0.691   1.057   2.329
  315SOL    HW2  982   0.789   0.999   2.212
  316SOL     OW  983   0.410   0.813   3.113
  316SOL    HW1  984   0.496   0.825   3.163
  316SOL    HW2  985   0.368   0.726   3.140
  317SOL     OW  986   1.274   0.386   3.124
  317SOL    HW1  987   1.295   0.460   3.188
  317SOL    HW2  988   1.185   0.403   3.081
  318SOL     OW  989   0.064   1.564   3.193
  318SOL    HW1  990   0.018   1.646   3.159
  318SOL    HW2  991   0.162   1.583   3.202
  319SOL     OW  992   0.367   1.100   2.363
  319SOL    HW1  993   0.360   1.183   2.307
  319SOL    HW2  994   0.371   1.020   2.303
  320SOL     OW  995   0.566   0.537   2.727
  320SOL    HW1  996   0.578   0.603   2.653
  320SOL    HW2  997   0.612   0.571   2.810
  321SOL     OW  998   1.252   1.348   2.250
  321SOL    HW1  999   1.302   1.425   2.290
  321SOL    HW2 1000   1.157   1.350   2.282
  322SOL     OW 1001   1.272   1.445   3.004
  322SOL    HW1 1002   1.319   1.458   3.091
  322SOL    HW2 1003   1.206   1.371   3.013
  323SOL     OW 1004   1.582   0.639   2.334
  323SOL    HW1 1005   1.551   0.700   2.407
  323SOL    HW2 1006   1.632   0.691   2.265
  324SOL     OW 1007   0.354   1.510   3.191
  324SOL    HW1 1008   0.333   1.466   3.104
  324SOL    HW2 1009   0.451   1.536   3.194
  325SOL     OW 1010   0.402   0.751   3.460
  325SOL    HW1 1011   0.470   0.806   3.413
  325SOL    HW2 1012   0.442   0.663   3.487
  326SOL     OW 1013   1.587   0.779   3.532
  326SOL    HW1 1014   1.495   0.817   3.527
  326SOL    HW2 1015   1.647   0.826   3.467
  327SOL     OW 1016   1.013   0.105   3.632
  327SOL    HW1 1017   1.019   0.190   3.580
  327SOL    HW2 1018   1.045   0.029   3.575
  328SOL     OW 1019   0.504   0.050   3.602
  328SOL    HW1 1020   0.462  -0.007   3.532
  328SOL    HW2 1021   0.438   0.119   3.634
  329SOL     OW 1022   0.573   0.870   2.891
  329SOL    HW1 1023   0.617   0.959   2.882
  329SOL    HW2 1024   0.510   0.870   2.968
  330SOL     OW 1025   1.360   0.862   2.907
  330SOL    HW1 1026   1.285   0.862   2.841
  330SOL    HW2 1027   1.397   0.770   2.916
  331SOL     OW 1028   1.209   0.525   2.137
  331SOL    HW1 1029   1.222   0.441   2.191
  331SOL    HW2 1030   1.180   0.599   2.197
  332SOL     OW 1031   0.307   0.213   3.093
  332SOL    HW1 1032   0.284   0.250   3.183
  332SOL    HW2 1033   0.277   0.118   3.087
  333SOL     OW 1034   0.037   1.310   3.144
  333SOL    HW1 1035   0.090   1.261   3.212
  333SOL    HW2 1036   0.059   1.408   3.149
  334SOL     OW 1037   0.732   0.634   2.926
  334SOL    HW1 1038   0.791   0.608   2.850
  334SOL    HW2 1039   0.704   0.730   2.915
  335SOL     OW 1040   1.728   0.935   3.716
  335SOL    HW1 1041   1.682   0.928   3.627
  335SOL    HW2 1042   1.666   0.979   3.782
  336SOL     OW 1043   0.307   0.063   2.480
  336SOL    HW1 1044   0.296   0.157   2.513
  336SOL    HW2 1045   0.302   0.000   2.557
  337SOL     OW 1046   1.622   0.367   2.236
  337SOL    HW1 1047   1.624   0.291   2.300
  337SOL    HW2 1048   1.574   0.444   2.276
  338SOL     OW 1049   1.023   0.766   2.828
  338SOL    HW1 1050   1.038   0.787   2.924
  338SOL    HW2 1051   0.993   0.671   2.819
  339SOL     OW 1052   0.980   1.573   3.562
  339SOL    HW1 1053   0.960   1.617   3.474
  339SOL    HW2 1054   1.019   1.482   3.546
  340SOL     OW 1055   1.859   1.518   3.467
  340SOL    HW1 1056   1.873   1.545   3.372
  340SOL    HW2 1057   1.942   1.540   3.520
  341SOL     OW 1058   0.350   0.898   3.666
  341SOL    HW1 1059   0.426   0.942   3.714
  341SOL    HW2 1060   0.385   0.851   3.584
  342SOL     OW 1061   1.540   0.274   1.987
  342SOL    HW1 1062   1.479   0.199   2.010
  342SOL    HW2 1063   1.562   0.326   2.070
  343SOL     OW 1064   1.303   0.838   1.904
  343SOL    HW1 1065   1.337   0.745   1.919
  343SOL    HW2 1066   1.321   0.865   1.809
  344SOL     OW 1067   1.068   1.333   2.711
  344SOL    HW1 1068   1.075   1.249   2.656
  344SOL    HW2 1069   1.130   1.402   2.675
  345SOL     OW 1070   0.319   0.810   2.811
  345SOL    HW1 1071   0.412   0.846   2.816
  345SOL    HW2 1072   0.313   0.725   2.863
  346SOL     OW 1073   0.339   0.509   2.868
  346SOL    HW1 1074   0.287   0.426   2.851
  346SOL    HW2 1075   0.416   0.514   2.804
  347SOL     OW 1076   1.138   0.380   3.540
  347SOL    HW1 1077   1.093   0.443   3.604
  347SOL    HW2 1078   1.231   0.411   3.523
  348SOL     OW 1079   1.160   0.207   3.339
  348SOL    HW1 1080   1.160   0.271   3.416
  348SOL    HW2 1081   1.188   0.255   3.256
  349SOL     OW 1082   0.008   1.326   2.062
  349SOL    HW1 1083  -0.085   1.347   2.031
  349SOL    HW2 1084   0.018   1.227   2.075
  350SOL     OW 1085   0.088   1.801   2.789
  350SOL    HW1 1086   0.046   1.715   2.762
  350SOL    HW2 1087   0.182   1.804   2.755
  351SOL     OW 1088   0.504   1.568   2.772
  351SOL    HW1 1089   0.570   1.642   2.781
  351SOL    HW2 1090   0.548   1.489   2.730
  352SOL     OW 1091   1.002   0.796   3.100
  352SOL    HW1 1092   1.043   0.764   3.186
  352SOL    HW2 1093   0.906   0.769   3.097
  353SOL     OW 1094   0.040   0.544   2.976
  353SOL    HW1 1095   0.125   0.511   2.935
  353SOL    HW2 1096   0.053   0.559   3.074
  354SOL     OW 1097   0.189   0.520   3.584
  354SOL    HW1 1098   0.248   0.480   3.514
  354SOL    HW2 1099   0.131   0.591   3.543
  355SOL     OW 1100   1.369   0.950   3.522
  355SOL    HW1 1101   1.408   1.039   3.542
  355SOL    HW2 1102   1.379   0.930   3.425
  356SOL     OW 1103   0.815   0.572   2.187
  356SOL    HW1 1104   0.822   0.483   2.141
  356SOL    HW2 1105   0.721   0.606   2.179
  357SOL     OW 1106   1.657   0.604   3.068
  357SOL    HW1 1107   1.619   0.535   3.130
  357SOL    HW2 1108   1.739   0.568   3.024
  358SOL     OW 1109   0.252   1.564   3.606
  358SOL    HW1 1110   0.222   1.621   3.682
  358SOL    HW2 1111   0.245   1.467   3.632
  359SOL     OW 1112   0.671   0.464   3.131
  359SOL    HW1 1113   0.637   0.375   3.101
  359SOL    HW2 1114   0.697   0.518   3.051
  360SOL     OW 1115   0.930   1.678   3.327
  360SOL    HW1 1116   0.906   1.660   3.232
  360SOL    HW2 1117   0.960   1.772   3.337
  361SOL     OW 1118   0.473   0.500   2.053
  361SOL    HW1 1119   0.534   0.580   2.057
  361SOL    HW2 1120   0.378   0.531   2.060
  362SOL     OW 1121   0.159   1.137   3.328
  362SOL    HW1 1122   0.181   1.076   3.404
  362SOL    HW2 1123   0.169   1.088   3.242
  363SOL     OW 1124   1.347   1.059   3.096
  363SOL    HW1 1125   1.371   0.996   3.022
  363SOL    HW2 1126   1.257   1.099   3.078
  364SOL     OW 1127   1.302   0.855   2.171
  364SOL    HW1 1128   1.216   0.824   2.213
  364SOL    HW2 1129   1.298   0.841   2.072
  365SOL     OW 1130   1.759   1.747   3.016
  365SOL    HW1 1131   1.820   1.777   2.943
  365SOL    HW2 1132   1.721   1.658   2.994
  366SOL     OW 1133   1.252   1.731   2.990
  366SOL    HW1 1134   1.336   1.736   2.936
  366SOL    HW2 1135   1.229   1.635   3.008
  367SOL     OW 1136   0.083   1.258   2.884
  367SOL    HW1 1137   0.078   1.257   2.984
  367SOL    HW2 1138   0.000   1.217   2.846
  368SOL     OW 1139   0.688   1.662   3.578
  368SOL    HW1 1140   0.632   1.743   3.587
  368SOL    HW2 1141   0.740   1.666   3.492
  369SOL     OW 1142   1.726   0.135   2.385
  369SOL    HW1 1143   1.799   0.118   2.318
  369SOL    HW2 1144   1.695   0.048   2.423
  370SOL     OW 1145   1.388   1.573   2.339
  370SOL    HW1 1146   1.455   1.585   2.265
  370SOL    HW2 1147   1.348   1.662   2.362
  371SOL     OW 1148   0.130   1.794   3.713
  371SOL    HW1 1149   0.089   1.720   3.766
  371SOL    HW2 1150   0.194   1.845   3.771
  372SOL     OW 1151   1.280   0.927   2.534
  372SOL    HW1 1152   1.340   0.846   2.536
  372SOL    HW2 1153   1.320   0.996   2.474
  373SOL     OW 1154   0.830   1.273   3.284
  373SOL    HW1 1155   0.825   1.306   3.379
  373SOL    HW2 1156   0.744   1.292   3.238
  374SOL     OW 1157   0.672   1.616   2.016
  374SOL    HW1 1158   0.681   1.626   1.917
  374SOL    HW2 1159   0.632   1.527   2.037
  375SOL     OW 1160   1.650   1.720   3.256
  375SOL    HW1 1161   1.703   1.730   3.172
  375SOL    HW2 1162   1.623   1.810   3.290
  376SOL     OW 1163   1.841   0.175   2.825
  376SOL    HW1 1164   1.880   0.090   2.789
  376SOL    HW2 1165   1.743   0.177   2.806
  377SOL     OW 1166   0.263   0.326   2.582
  377SOL    HW1 1167   0.184   0.377   2.548
  377SOL    HW2 1168   0.254   0.311   2.680
  378SOL     OW 1169   1.194   1.612   1.893
  378SOL    HW1 1170   1.200   1.519   1.930
  378SOL    HW2 1171   1.135   1.612   1.813
  379SOL     OW 1172   0.822   1.002   3.234
  379SOL    HW1 1173   0.862   1.001   3.142
  379SOL    HW2 1174   0.832   1.094   3.274
  380SOL     OW 1175   0.916   0.910   2.153
  380SOL    HW1 1176   0.979   0.948   2.085
  380SOL    HW2 1177   0.956   0.827   2.192
  381SOL     OW 1178   1.504   1.607   1.906
  381SOL    HW1 1179   1.412   1.644   1.913
  381SOL    HW2 1180   1.542   1.627   1.816
  382SOL     OW 1181   0.372   1.288   3.352
  382SOL    HW1 1182   0.359   1.381   3.318
  382SOL    HW2 1183   0.288   1.236   3.339
  383SOL     OW 1184   1.614   1.292   3.151
  383SOL    HW1 1185   1.674   1.295   3.231
  383SOL    HW2 1186   1.539   1.356   3.164
  384SOL     OW 1187   1.039   1.098   2.558
  384SOL    HW1 1188   0.969   1.051   2.612
  384SOL    HW2 1189   1.098   1.030   2.515
  385SOL     OW 1190   1.014   0.236   2.833
  385SOL    HW1 1191   1.006   0.200   2.740
  385SOL    HW2 1192   1.012   0.160   2.898
  386SOL     OW 1193   0.590   1.487   2.353
  386SOL    HW1 1194   0.632   1.429   2.283
  386SOL    HW2 1195   0.546   1.566   2.309
  387SOL     OW 1196   1.709   0.385   3.243
  387SOL    HW1 1197   1.782   0.454   3.247
  387SOL    HW2 1198   1.737   0.310   3.184
  388SOL     OW 1199   0.255   1.348   2.152
  388SOL    HW1 1200   0.159   1.349   2.125
  388SOL    HW2 1201   0.267   1.401   2.236
  389SOL     OW 1202   0.105   1.013   3.588
  389SOL    HW1 1203   0.028   0.980   3.642
  389SOL    HW2 1204   0.190   0.983   3.630
  390SOL     OW 1205   0.672   0.203   3.351
  390SOL    HW1 1206   0.762   0.187   3.311
  390SOL    HW2 1207   0.680   0.208   3.450
  391SOL     OW 1208   0.075   0.345   1.895
  391SOL    HW1 1209  -0.017   0.317   1.866
  391SOL    HW2 1210   0.106   0.422   1.839
  392SOL     OW 1211   1.440   0.856   3.260
  392SOL    HW1 1212   1.383   0.908   3.197
  392SOL    HW2 1213   1.536   0.868   3.236
  393SOL     OW 1214   0.072   0.166   2.180
  393SOL    HW1 1215   0.055   0.249   2.126
  393SOL    HW2 1216   0.162   0.129   2.158
  394SOL     OW 1217   1.183   1.335   1.981
  394SOL    HW1 1218   1.084   1.324   1.983
  394SOL    HW2 1219   1.217   1.350   2.074
  395SOL     OW 1220   0.613   0.842   3.293
  395SOL    HW1 1221   0.669   0.923   3.276
  395SOL    HW2 1222   0.672   0.762   3.296
  396SOL     OW 1223   1.493   1.767   2.821
  396SOL    HW1 1224   1.526   1.831   2.752
  396SOL    HW2 1225   1.559   1.761   2.896
  397SOL     OW 1226   0.716   0.565   3.570
  397SOL    HW1 1227   0.735   0.630   3.644
  397SOL    HW2 1228   0.776   0.485   3.579
  398SOL     OW 1229   1.450   1.220   3.495
  398SOL    HW1 1230   1.441   1.210   3.594
  398SOL    HW2 1231   1.546   1.213   3.469
  399SOL     OW 1232   0.390   1.741   3.422
  399SOL    HW1 1233   0.299   1.782   3.420
  399SOL    HW2 1234   0.383   1.647   3.454
  400SOL     OW 1235   1.674   0.883   3.116
  400SOL    HW1 1236   1.647   0.794   3.079
  400SOL    HW2 1237   1.675   0.951   3.043
  401SOL     OW 1238   1.225   0.325   2.311
  401SOL    HW1 1239   1.290   0.251   2.300
  401SOL    HW2 1240   1.245   0.375   2.395
  402SOL     OW 1241   0.594   0.745   2.514
  402SOL    HW1 1242   0.644   0.830   2.495
  402SOL    HW2 1243   0.506   0.747   2.466
  403SOL     OW 1244   1.777   0.342   3.504
  403SOL    HW1 1245   1.760   0.373   3.410
  403SOL    HW2 1246   1.693   0.305   3.542
  404SOL     OW 1247   1.730   0.934   3.379
  404SOL    HW1 1248   1.768   1.025   3.394
  404SOL    HW2 1249   1.722   0.917   3.280
  405SOL     OW 1250   0.859   1.374   1.878
  405SOL    HW1 1251   0.813   1.389   1.966
  405SOL    HW2 1252   0.903   1.459   1.848
  406SOL     OW 1253   0.661   1.790   2.815
  406SOL    HW1 1254   0.615   1.878   2.802
  406SOL    HW2 1255   0.760   1.802   2.808
  407SOL     OW 1256   0.859   0.956   2.723
  407SOL    HW1 1257   0.913   0.887   2.771
  407SOL    HW2 1258   0.827   1.025   2.789
  408SOL     OW 1259   1.083   0.984   1.949
  408SOL    HW1 1260   1.060   1.037   1.867
  408SOL    HW2 1261   1.164   0.928   1.930
  409SOL     OW 1262   1.861   1.569   2.713
  409SOL    HW1 1263   1.790   1.557   2.643
  409SOL    HW2 1264   1.862   1.490   2.773
  410SOL     OW 1265   0.221   1.314   3.706
  410SOL    HW1 1266   0.156   1.241   3.685
  410SOL    HW2 1267   0.225   1.328   3.804
  411SOL     OW 1268   0.079   1.240   2.515
  411SOL    HW1 1269   0.078   1.193   2.603
  411SOL    HW2 1270   0.161   1.212   2.464
  412SOL     OW 1271   0.672   1.391   3.486
  412SOL    HW1 1272   0.594   1.341   3.524
  412SOL    HW2 1273   0.669   1.486   3.517
  413SOL     OW 1274   1.824   0.192   3.089
  413SOL    HW1 1275   1.820   0.102   3.133
  413SOL    HW2 1276   1.827   0.181   2.990
  414SOL     OW 1277   0.428   0.424   2.382
  414SOL    HW1 1278   0.458   0.352   2.320
  414SOL    HW2 1279   0.389   0.384   2.465
  415SOL     OW 1280   1.705   1.487   2.966
  415SOL    HW1 1281   1.612   1.462   2.939
  415SOL    HW2 1282   1.731   1.437   3.048
  416SOL     OW 1283   0.317   0.547   3.142
  416SOL    HW1 1284   0.355   0.488   3.214
  416SOL    HW2 1285   0.357   0.521   3.054
  417SOL     OW 1286   0.812   1.586   2.549
  417SOL    HW1 1287   0.844   1.596   2.455
  417SOL    HW2 1288   0.733   1.524   2.551
  418SOL     OW 1289   1.424   0.214   2.974
  418SOL    HW1 1290   1.476   0.149   3.029
  418SOL    HW2 1291   1.375   0.277   3.035
  419SOL     OW 1292   1.001   0.034   3.016
  419SOL    HW1 1293   0.938  -0.038   2.985
  419SOL    HW2 1294   1.094  -0.002   3.016
  420SOL     OW 1295   0.770   1.330   2.163
  420SOL    HW1 1296   0.724   1.243   2.180
  420SOL    HW2 1297   0.861   1.327   2.204
  421SOL     OW 1298   0.618   1.567   3.146
  421SOL    HW1 1299   0.613   1.649   3.203
  421SOL    HW2 1300   0.707   1.564   3.101
  422SOL     OW 1301   1.352   0.052   2.030
  422SOL    HW1 1302   1.387   0.011   1.946
  422SOL    HW2 1303   1.262   0.014   2.050
  423SOL     OW 1304   1.300   0.453   2.553
  423SOL    HW1 1305   1.241   0.533   2.557
  423SOL    HW2 1306   1.315   0.418   2.646
  424SOL     OW 1307   1.593   0.221   2.744
  424SOL    HW1 1308   1.509   0.220   2.798
  424SOL    HW2 1309   1.595   0.304   2.688
  425SOL     OW 1310   0.039   1.077   2.162
  425SOL    HW1 1311   0.138   1.066   2.153
  425SOL    HW2 1312  -0.001   0.991   2.194
  426SOL     OW 1313   0.875   1.646   2.199
  426SOL    HW1 1314   0.798   1.611   2.145
  426SOL    HW2 1315   0.843   1.717   2.261
  427SOL     OW 1316   0.230   0.628   3.837
  427SOL    HW1 1317   0.137   0.626   3.874
  427SOL    HW2 1318   0.231   0.589   3.745
  428SOL     OW 1319   0.225   0.275   4.720
  428SOL    HW1 1320   0.260   0.258   4.812
  428SOL    HW2 1321   0.137   0.230   4.708
  429SOL     OW 1322   0.019   0.368   4.371
  429SOL    HW1 1323  -0.063   0.411   4.410
  429SOL    HW2 1324  -0.009   0.295   4.308
  430SOL     OW 1325   0.569   1.275   4.889
  430SOL    HW1 1326   0.476   1.268   4.852
  430SOL    HW2 1327   0.580   1.364   4.933
  431SOL     OW 1328   1.555   1.511   4.427
  431SOL    HW1 1329   1.498   1.495   4.508
  431SOL    HW2 1330   1.496   1.521   4.347
  432SOL     OW 1331   1.135   0.703   4.441
  432SOL    HW1 1332   1.192   0.781   4.416
  432SOL    HW2 1333   1.075   0.729   4.517
  433SOL     OW 1334   1.755   0.607   3.955
  433SOL    HW1 1335   1.743   0.594   3.856
  433SOL    HW2 1336   1.725   0.526   4.004
  434SOL     OW 1337   0.768   1.144   4.747
  434SOL    HW1 1338   0.690   1.161   4.807
  434SOL    HW2 1339   0.802   1.231   4.711
  435SOL     OW 1340   0.685   1.012   4.389
  435SOL    HW1 1341   0.754   0.996   4.459
  435SOL    HW2 1342   0.612   1.069   4.427
  436SOL     OW 1343   0.335   1.435   4.785
  436SOL    HW1 1344   0.257   1.404   4.732
  436SOL    HW2 1345   0.393   1.493   4.728
  437SOL     OW 1346   1.603   0.447   4.461
  437SOL    HW1 1347   1.529   0.493   4.411
  437SOL    HW2 1348   1.654   0.515   4.514
  438SOL     OW 1349   0.231   1.713   4.207
  438SOL    HW1 1350   0.265   1.790   4.261
  438SOL    HW2 1351   0.275   1.713   4.117
  439SOL     OW 1352   0.230   1.434   4.262
  439SOL    HW1 1353   0.204   1.530   4.262
  439SOL    HW2 1354   0.159   1.380   4.307
  440SOL     OW 1355   0.240   1.091   4.610
  440SOL    HW1 1356   0.254   1.007   4.662
  440SOL    HW2 1357   0.185   1.155   4.665
  441SOL     OW 1358   0.620   1.786   5.163
  441SOL    HW1 1359   0.528   1.769   5.198
  441SOL    HW2 1360   0.648   1.878   5.189
  442SOL     OW 1361   0.606   0.964   3.847
  442SOL    HW1 1362   0.613   1.048   3.793
  442SOL    HW2 1363   0.652   0.977   3.935
  443SOL     OW 1364   0.122   0.643   4.287
  443SOL    HW1 1365   0.077   0.555   4.304
  443SOL    HW2 1366   0.121   0.697   4.371
  444SOL     OW 1367   1.842   1.767   4.083
  444SOL    HW1 1368   1.896   1.738   4.163
  444SOL    HW2 1369   1.872   1.857   4.054
  445SOL     OW 1370   0.027   1.596   3.841
  445SOL    HW1 1371   0.008   1.500   3.862
  445SOL    HW2 1372  -0.006   1.654   3.916
  446SOL     OW 1373   1.689   0.922   4.336
  446SOL    HW1 1374   1.784   0.893   4.344
  446SOL    HW2 1375   1.681   0.987   4.261
  447SOL     OW 1376   1.641   1.108   4.156
  447SOL    HW1 1377   1.727   1.110   4.104
  447SOL    HW2 1378   1.655   1.155   4.244
  448SOL     OW 1379   0.613   1.365   4.450
  448SOL    HW1 1380   0.564   1.278   4.459
  448SOL    HW2 1381   0.590   1.408   4.363
  449SOL     OW 1382   0.809   0.004   4.226
  449SOL    HW1 1383   0.849   0.095   4.217
  449SOL    HW2 1384   0.709   0.012   4.232
  450SOL     OW 1385   0.197   0.976   4.988
  450SOL    HW1 1386   0.286   0.931   4.974
  450SOL    HW2 1387   0.124   0.911   4.969
  451SOL     OW 1388   1.525   0.999   3.914
  451SOL    HW1 1389   1.462   0.923   3.927
  451SOL    HW2 1390   1.573   1.017   4.000
  452SOL     OW 1391   1.466   1.417   4.677
  452SOL    HW1 1392   1.407   1.423   4.757
  452SOL    HW2 1393   1.451   1.329   4.631
  453SOL     OW 1394   1.667   1.714   4.296
  453SOL    HW1 1395   1.626   1.691   4.208
  453SOL    HW2 1396   1.649   1.640   4.361
  454SOL     OW 1397   0.598   0.729   3.994
  454SOL    HW1 1398   0.622   0.798   3.926
  454SOL    HW2 1399   0.520   0.762   4.048
  455SOL     OW 1400   1.281   0.345   4.668
  455SOL    HW1 1401   1.195   0.295   4.655
  455SOL    HW2 1402   1.343   0.291   4.724
  456SOL     OW 1403   1.576   1.662   4.031
  456SOL    HW1 1404   1.665   1.708   4.034
  456SOL    HW2 1405   1.555   1.638   3.936
  457SOL     OW 1406   0.991   0.410   4.966
  457SOL    HW1 1407   0.914   0.444   5.020
  457SOL    HW2 1408   0.957   0.359   4.887
  458SOL     OW 1409   1.041   0.701   4.153
  458SOL    HW1 1410   1.067   0.697   4.249
  458SOL    HW2 1411   0.956   0.650   4.139
  459SOL     OW 1412   0.076   0.811   4.513
  459SOL    HW1 1413   0.175   0.799   4.522
  459SOL    HW2 1414   0.052   0.906   4.534
  460SOL     OW 1415   0.130   1.821   5.295
  460SOL    HW1 1416   0.120   1.806   5.394
  460SOL    HW2 1417   0.044   1.857   5.259
  461SOL     OW 1418   0.865   0.348   3.919
  461SOL    HW1 1419   0.924   0.411   3.870
  461SOL    HW2 1420   0.884   0.254   3.890
  462SOL     OW 1421   1.362   1.144   4.269
  462SOL    HW1 1422   1.445   1.115   4.221
  462SOL    HW2 1423   1.313   1.211   4.213
  463SOL     OW 1424   0.550   0.196   4.609
  463SOL    HW1 1425   0.545   0.191   4.709
  463SOL    HW2 1426   0.552   0.292   4.580
  464SOL     OW 1427   1.008   1.456   4.201
  464SOL    HW1 1428   0.962   1.528   4.149
  464SOL    HW2 1429   1.004   1.476   4.299
  465SOL     OW 1430   0.351   1.801   4.577
  465SOL    HW1 1431   0.401   1.715   4.583
  465SOL    HW2 1432   0.416   1.878   4.574
  466SOL     OW 1433   1.795   1.066   4.597
  466SOL    HW1 1434   1.733   1.051   4.521
  466SOL    HW2 1435   1.743   1.077   4.682
  467SOL     OW 1436   0.321   0.943   3.966
  467SOL    HW1 1437   0.403   0.982   3.924
  467SOL    HW2 1438   0.294   0.861   3.917
  468SOL     OW 1439   1.458   0.735   4.452
  468SOL    HW1 1440   1.453   0.670   4.527
  468SOL    HW2 1441   1.538   0.794   4.465
  469SOL     OW 1442   1.111   1.776   3.961
  469SOL    HW1 1443   1.051   1.714   4.011
  469SOL    HW2 1444   1.142   1.732   3.876
  470SOL     OW 1445   1.632   1.377   3.805
  470SOL    HW1 1446   1.600   1.471   3.795
  470SOL    HW2 1447   1.556   1.314   3.793
  471SOL     OW 1448   0.464   1.743   4.047
  471SOL    HW1 1449   0.497   1.782   4.133
  471SOL    HW2 1450   0.540   1.736   3.982
  472SOL     OW 1451   1.400   0.107   4.150
  472SOL    HW1 1452   1.376   0.070   4.060
  472SOL    HW2 1453   1.499   0.123   4.154
  473SOL     OW 1454   0.249   1.785   4.965
  473SOL    HW1 1455   0.306   1.720   5.015
  473SOL    HW2 1456   0.233   1.752   4.872
  474SOL     OW 1457   0.940   1.698   4.628
  474SOL    HW1 1458   1.020   1.641   4.649
  474SOL    HW2 1459   0.891   1.658   4.551
  475SOL     OW 1460   0.382   0.700   4.204
  475SOL    HW1 1461   0.427   0.610   4.201
  475SOL    HW2 1462   0.288   0.689   4.237
  476SOL     OW 1463   0.614   0.122   3.841
  476SOL    HW1 1464   0.712   0.100   3.848
  476SOL    HW2 1465   0.583   0.105   3.748
  477SOL     OW 1466   0.803   1.402   4.648
  477SOL    HW1 1467   0.893   1.416   4.606
  477SOL    HW2 1468   0.732   1.404   4.577
  478SOL     OW 1469   0.922   0.503   4.623
  478SOL    HW1 1470   0.897   0.494   4.527
  478SOL    HW2 1471   0.970   0.421   4.654
  479SOL     OW 1472   0.539   0.064   4.236
  479SOL    HW1 1473   0.458   0.065   4.294
  479SOL    HW2 1474   0.542   0.147   4.181
  480SOL     OW 1475   1.434   1.188   3.765
  480SOL    HW1 1476   1.466   1.112   3.822
  480SOL    HW2 1477   1.342   1.215   3.795
  481SOL     OW 1478   0.297   0.035   3.895
  481SOL    HW1 1479   0.346   0.119   3.874
  481SOL    HW2 1480   0.359  -0.030   3.940
  482SOL     OW 1481   0.935   0.236   4.204
  482SOL    HW1 1482   0.887   0.277   4.126
  482SOL    HW2 1483   1.034   0.234   4.185
  483SOL     OW 1484   1.227   1.570   4.517
  483SOL    HW1 1485   1.248   1.644   4.452
  483SOL    HW2 1486   1.295   1.570   4.590
  484SOL     OW 1487   0.459   1.152   4.465
  484SOL    HW1 1488   0.388   1.125   4.530
  484SOL    HW2 1489   0.433   1.124   4.372
  485SOL     OW 1490   1.271   1.797   4.315
  485SOL    HW1 1491   1.315   1.861   4.251
  485SOL    HW2 1492   1.221   1.849   4.385
  486SOL     OW 1493   1.032   0.549   3.740
  486SOL    HW1 1494   0.991   0.631   3.701
  486SOL    HW2 1495   1.096   0.575   3.813
  487SOL     OW 1496   0.561   0.222   4.871
  487SOL    HW1 1497   0.599   0.138   4.908
  487SOL    HW2 1498   0.473   0.241   4.915
  488SOL     OW 1499   0.866   0.454   4.366
  488SOL    HW1 1500   0.834   0.526   4.304
  488SOL    HW2 1501   0.890   0.373   4.313
  489SOL     OW 1502   1.017   0.039   4.477
  489SOL    HW1 1503   0.945   0.044   4.408
  489SOL    HW2 1504   0.993  -0.030   4.546
  490SOL     OW 1505   1.429   1.173   4.591
  490SOL    HW1 1506   1.374   1.089   4.584
  490SOL    HW2 1507   1.455   1.202   4.499
  491SOL     OW 1508   1.466   0.590   4.716
  491SOL    HW1 1509   1.436   0.495   4.723
  491SOL    HW2 1510   1.539   0.606   4.782
  492SOL     OW 1511   1.857   0.833   4.101
  492SOL    HW1 1512   1.899   0.769   4.165
  492SOL    HW2 1513   1.819   0.782   4.023
  493SOL     OW 1514   0.488   1.385   3.898
  493SOL    HW1 1515   0.401   1.370   3.945
  493SOL    HW2 1516   0.471   1.411   3.803
  494SOL     OW 1517   1.664   1.280   4.381
  494SOL    HW1 1518   1.763   1.288   4.395
  494SOL    HW2 1519   1.619   1.364   4.412
  495SOL     OW 1520   1.390   0.575   3.802
  495SOL    HW1 1521   1.336   0.554   3.883
  495SOL    HW2 1522   1.481   0.534   3.811
  496SOL     OW 1523   0.527   0.256   4.052
  496SOL    HW1 1524   0.554   0.197   3.977
  496SOL    HW2 1525   0.527   0.351   4.021
  497SOL     OW 1526   1.111   1.195   4.824
  497SOL    HW1 1527   1.071   1.239   4.905
  497SOL    HW2 1528   1.070   1.232   4.741
  498SOL     OW 1529   1.638   1.099   4.803
  498SOL    HW1 1530   1.643   1.180   4.862
  498SOL    HW2 1531   1.552   1.101   4.752
  499SOL     OW 1532   0.705   1.050   4.092
  499SOL    HW1 1533   0.691   1.057   4.191
  499SOL    HW2 1534   0.789   0.999   4.074
  500SOL     OW 1535   0.410   0.813   4.975
  500SOL    HW1 1536   0.496   0.825   5.025
  500SOL    HW2 1537   0.368   0.726   5.002
  501SOL     OW 1538   1.274   0.386   4.986
  501SOL    HW1 1539   1.295   0.460   5.050
  501SOL    HW2 1540   1.185   0.403   4.943
  502SOL     OW 1541   0.367   1.100   4.225
  502SOL    HW1 1542   0.360   1.183   4.169
  502SOL    HW2 1543   0.371   1.020   4.165
  503SOL     OW 1544   0.566   0.537   4.589
  503SOL    HW1 1545   0.578   0.603   4.515
  503SOL    HW2 1546   0.612   0.571   4.672
  504SOL     OW 1547   1.252   1.348   4.112
  504SOL    HW1 1548   1.302   1.425   4.152
  504SOL    HW2 1549   1.157   1.350   4.144
  505SOL     OW 1550   1.272   1.445   4.866
  505SOL    HW1 1551   1.319   1.458   4.953
  505SOL    HW2 1552   1.206   1.371   4.875
  506SOL     OW 1553   1.582   0.639   4.196
  506SOL    HW1 1554   1.551   0.700   4.269
  506SOL    HW2 1555   1.632   0.691   4.127
  507SOL     OW 1556   0.354   1.510   5.053
  507SOL    HW1 1557   0.333   1.466   4.966
  507SOL    HW2 1558   0.451   1.536   5.056
  508SOL     OW 1559   0.573   0.870   4.753
  508SOL    HW1 1560   0.617   0.959   4.744
  508SOL    HW2 1561   0.510   0.870   4.830
  509SOL     OW 1562   1.360   0.862   4.769
  509SOL    HW1 1563   1.285   0.862   4.703
  509SOL    HW2 1564   1.397   0.770   4.778
  510SOL     OW 1565   1.209   0.525   3.999
  510SOL    HW1 1566   1.222   0.441   4.053
  510SOL    HW2 1567   1.180   0.599   4.059
  511SOL     OW 1568   0.307   0.213   4.955
  511SOL    HW1 1569   0.284   0.250   5.045
  511SOL    HW2 1570   0.277   0.118   4.949
  512SOL     OW 1571   0.037   1.310   5.006
  512SOL    HW1 1572   0.090   1.261   5.074
  512SOL    HW2 1573   0.059   1.408   5.011
  513SOL     OW 1574   0.732   0.634   4.788
  513SOL    HW1 1575   0.791   0.608   4.712
  513SOL    HW2 1576   0.704   0.730   4.777
  514SOL     OW 1577   0.307   0.063   4.342
  514SOL    HW1 1578   0.296   0.157   4.375
  514SOL    HW2 1579   0.302   0.000   4.419
  515SOL     OW 1580   1.622   0.367   4.098
  515SOL    HW1 1581   1.624   0.291   4.162
  515SOL    HW2 1582   1.574   0.444   4.138
  516SOL     OW 1583   1.023   0.766   4.690
  516SOL    HW1 1584   1.038   0.787   4.786
  516SOL    HW2 1585   0.993   0.671   4.681
  517SOL     OW 1586   1.540   0.274   3.849
  517SOL    HW1 1587   1.479   0.199   3.872
  517SOL    HW2 1588   1.562   0.326   3.932
  518SOL     OW 1589   1.303   0.838   3.766
  518SOL    HW1 1590   1.337   0.745   3.781
  518SOL    HW2 1591   1.321   0.865   3.671
  519SOL     OW 1592   1.068   1.333   4.573
  519SOL    HW1 1593   1.075   1.249   4.518
  519SOL    HW2 1594   1.130   1.402   4.537
  520SOL     OW 1595   0.319   0.810   4.673
  520SOL    HW1 1596   0.412   0.846   4.678
  520SOL    HW2 1597   0.313   0.725   4.725
  521SOL     OW 1598   0.339   0.509   4.730
  521SOL    HW1 1599   0.287   0.426   4.713
  521SOL    HW2 1600   0.416   0.514   4.666
  522SOL     OW 1601   1.160   0.207   5.201
  522SOL    HW1 1602   1.160   0.271   5.278
  522SOL    HW2 1603   1.188   0.255   5.118
  523SOL     OW 1604   0.008   1.326   3.924
  523SOL    HW1 1605  -0.085   1.347   3.893
  523SOL    HW2 1606   0.018   1.227   3.937
  524SOL     OW 1607   0.088   1.801   4.651
  524SOL    HW1 1608   0.046   1.715   4.624
  524SOL    HW2 1609   0.182   1.804   4.617
  525SOL     OW 1610   0.504   1.568   4.634
  525SOL    HW1 1611   0.570   1.642   4.643
  525SOL    HW2 1612   0.548   1.489   4.592
  526SOL     OW 1613   1.002   0.796   4.962
  526SOL    HW1 1614   1.043   0.764   5.048
  526SOL    HW2 1615   0.906   0.769   4.959
  527SOL     OW 1616   0.040   0.544   4.838
  527SOL    HW1 1617   0.125   0.511   4.797
  527SOL    HW2 1618   0.053   0.559   4.936
  528SOL     OW 1619   0.815   0.572   4.049
  528SOL    HW1 1620   0.822   0.483   4.003
  528SOL    HW2 1621   0.721   0.606   4.041
  529SOL     OW 1622   1.657   0.604   4.930
  529SOL    HW1 1623   1.619   0.535   4.992
  529SOL    HW2 1624   1.739   0.568   4.886
  530SOL     OW 1625   0.671   0.464   4.993
  530SOL    HW1 1626   0.637   0.375   4.963
  530SOL    HW2 1627   0.697   0.518   4.913
  531SOL     OW 1628   0.930   1.678   5.189
  531SOL    HW1 1629   0.906   1.660   5.094
  531SOL    HW2 1630   0.960   1.772   5.199
  532SOL     OW 1631   0.473   0.500   3.915
  532SOL    HW1 1632   0.534   0.580   3.919
  532SOL    HW2 1633   0.378   0.531   3.922
  533SOL     OW 1634   1.347   1.059   4.958
  533SOL    HW1 1635   1.371   0.996   4.884
  533SOL    HW2 1636   1.257   1.099   4.940
  534SOL     OW 1637   1.302   0.855   4.033
  534SOL    HW1 1638   1.216   0.824   4.075
  534SOL    HW2 1639   1.298   0.841   3.934
  535SOL     OW 1640   1.759   1.747   4.878
  535SOL    HW1 1641   1.820   1.777   4.805
  535SOL    HW2 1642   1.721   1.658   4.856
  536SOL     OW 1643   1.252   1.731   4.852
  536SOL    HW1 1644   1.336   1.736   4.798
  536SOL    HW2 1645   1.229   1.635   4.870
  537SOL     OW 1646   0.083   1.258   4.746
  537SOL    HW1 1647   0.078   1.257   4.846
  537SOL    HW2 1648   0.000   1.217   4.708
  538SOL     OW 1649   1.726   0.135   4.247
  538SOL    HW1 1650   1.799   0.118   4.180
  538SOL    HW2 1651   1.695   0.048   4.285
  539SOL     OW 1652   1.388   1.573   4.201
  539SOL    HW1 1653   1.455   1.585   4.127
  539SOL    HW2 1654   1.348   1.662   4.224
  540SOL     OW 1655   1.280   0.927   4.396
  540SOL    HW1 1656   1.340   0.846   4.398
  540SOL    HW2 1657   1.320   0.996   4.336
  541SOL     OW 1658   0.672   1.616   3.878
  541SOL    HW1 1659   0.681   1.626   3.779
  541SOL    HW2 1660   0.632   1.527   3.899
  542SOL     OW 1661   1.650   1.720   5.118
  542SOL    HW1 1662   1.703   1.730   5.034
  542SOL    HW2 1663   1.623   1.810   5.152
  543SOL     OW 1664   1.841   0.175   4.687
  543SOL    HW1 1665   1.880   0.090   4.651
  543SOL    HW2 1666   1.743   0.177   4.668
  544SOL     OW 1667   0.263   0.326   4.444
  544SOL    HW1 1668   0.184   0.377   4.410
  544SOL    HW2 1669   0.254   0.311   4.542
  545SOL     OW 1670   1.194   1.612   3.755
  545SOL    HW1 1671   1.200   1.519   3.792
  545SOL    HW2 1672   1.135   1.612   3.675
  546SOL     OW 1673   0.822   1.002   5.096
  546SOL    HW1 1674   0.862   1.001   5.004
  546SOL    HW2 1675   0.832   1.094   5.136
  547SOL     OW 1676   0.916   0.910   4.015
  547SOL    HW1 1677   0.979   0.948   3.947
  547SOL    HW2 1678   0.956   0.827   4.054
  548SOL     OW 1679   1.504   1.607   3.768
  548SOL    HW1 1680   1.412   1.644   3.775
  548SOL    HW2 1681   1.542   1.627   3.678
  549SOL     OW 1682   1.039   1.098   4.420
  549SOL    HW1 1683   0.969   1.051   4.474
  549SOL    HW2 1684   1.098   1.030   4.377
  550SOL     OW 1685   1.014   0.236   4.695
  550SOL    HW1 1686   1.006   0.200   4.602
  550SOL    HW2 1687   1.012   0.160   4.760
  551SOL     OW 1688   0.590   1.487   4.215
  551SOL    HW1 1689   0.632   1.429   4.145
  551SOL    HW2 1690   0.546   1.566   4.171
  552SOL     OW 1691   1.709   0.385   5.105
  552SOL    HW1 1692   1.782   0.454   5.109
  552SOL    HW2 1693   1.737   0.310   5.046
  553SOL     OW 1694   0.255   1.348   4.014
  553SOL    HW1 1695   0.159   1.349   3.987
  553SOL    HW2 1696   0.267   1.401   4.098
  554SOL     OW 1697   0.075   0.345   3.757
  554SOL    HW1 1698  -0.017   0.317   3.728
  554SOL    HW2 1699   0.106   0.422   3.701
  555SOL     OW 1700   0.072   0.166   4.042
  555SOL    HW1 1701   0.055   0.249   3.988
  555SOL    HW2 1702   0.162   0.129   4.020
  556SOL     OW 1703   1.183   1.335   3.843
  556SOL    HW1 1704   1.084   1.324   3.845
  556SOL    HW2 1705   1.217   1.350   3.936
  557SOL     OW 1706   1.493   1.767   4.683
  557SOL    HW1 1707   1.526   1.831   4.614
  557SOL    HW2 1708   1.559   1.761   4.758
  558SOL     OW 1709   1.450   1.220   5.357
  558SOL    HW1 1710   1.441   1.210   5.456
  558SOL    HW2 1711   1.546   1.213   5.331
  559SOL     OW 1712   1.674   0.883   4.978
  559SOL    HW1 1713   1.647   0.794   4.941
  559SOL    HW2 1714   1.675   0.951   4.905
  560SOL     OW 1715   1.225   0.325   4.173
  560SOL    HW1 1716   1.290   0.251   4.162
  560SOL    HW2 1717   1.245   0.375   4.257
  561SOL     OW 1718   0.594   0.745   4.376
  561SOL    HW1 1719   0.644   0.830   4.357
  561SOL    HW2 1720   0.506   0.747   4.328
  562SOL     OW 1721   1.730   0.934   5.241
  562SOL    HW1 1722   1.768   1.025   5.256
  562SOL    HW2 1723   1.722   0.917   5.142
  563SOL     OW 1724   0.859   1.374   3.740
  563SOL    HW1 1725   0.813   1.389   3.828
  563SOL    HW2 1726   0.903   1.459   3.710
  564SOL     OW 1727   0.661   1.790   4.677
  564SOL    HW1 1728   0.615   1.878   4.664
  564SOL    HW2 1729   0.760   1.802   4.670
  565SOL     OW 1730   0.859   0.956   4.585
  565SOL    HW1 1731   0.913   0.887   4.633
  565SOL    HW2 1732   0.827   1.025   4.651
  566SOL     OW 1733   1.083   0.984   3.811
  566SOL    HW1 1734   1.060   1.037   3.729
  566SOL    HW2 1735   1.164   0.928   3.792
  567SOL     OW 1736   1.861   1.569   4.575
  567SOL    HW1 1737   1.790   1.557   4.505
  567SOL    HW2 1738   1.862   1.490   4.635
  568SOL     OW 1739   0.079   1.240   4.377
  568SOL    HW1 1740   0.078   1.193   4.465
  568SOL    HW2 1741   0.161   1.212   4.326
  569SOL     OW 1742   1.824   0.192   4.951
  569SOL    HW1 1743   1.820   0.102   4.995
  569SOL    HW2 1744   1.827   0.181   4.852
  570SOL     OW 1745   0.428   0.424   4.244
  570SOL    HW1 1746   0.458   0.352   4.182
  570SOL    HW2 1747   0.389   0.384   4.327
  571SOL     OW 1748   1.705   1.487   4.828
  571SOL    HW1 1749   1.612   1.462   4.801
  571SOL    HW2 1750   1.731   1.437   4.910
  572SOL     OW 1751   0.812   1.586   4.411
  572SOL    HW1 1752   0.844   1.596   4.317
  572SOL    HW2 1753   0.733   1.524   4.413
  573SOL     OW 1754   1.424   0.214   4.836
  573SOL    HW1 1755   1.476   0.149   4.891
  573SOL    HW2 1756   1.375   0.277   4.897
  574SOL     OW 1757   1.001   0.034   4.878
  574SOL    HW1 1758   0.938  -0.038   4.847
  574SOL    HW2 1759   1.094  -0.002   4.878
  575SOL     OW 1760   0.770   1.330   4.025
  575SOL    HW1 1761   0.724   1.243   4.042
  575SOL    HW2 1762   0.861   1.327   4.066
  576SOL     OW 1763   1.352   0.052   3.892
  576SOL    HW1 1764   1.387   0.011   3.808
  576SOL    HW2 1765   1.262   0.014   3.912
  577SOL     OW 1766   1.300   0.453   4.415
  577SOL    HW1 1767   1.241   0.533   4.419
  577SOL    HW2 1768   1.315   0.418   4.508
  578SOL     OW 1769   1.593   0.221   4.606
  578SOL    HW1 1770   1.509   0.220   4.660
  578SOL    HW2 1771   1.595   0.304   4.550
  579SOL     OW 1772   0.039   1.077   4.024
  579SOL    HW1 1773   0.138   1.066   4.015
  579SOL    HW2 1774  -0.001   0.991   4.056
  580SOL     OW 1775   0.875   1.646   4.061
  580SOL    HW1 1776   0.798   1.611   4.007
  580SOL    HW2 1777   0.843   1.717   4.123
  581SOL     OW 1778   0.230   2.490   0.113
  581SOL    HW1 1779   0.137   2.488   0.150
  581SOL    HW2 1780   0.231   2.451   0.021
  582SOL     OW 1781   0.225   2.137   0.996
  582SOL    HW1 1782   0.260   2.120   1.088
  582SOL    HW2 1783   0.137   2.092   0.984
  583SOL     OW 1784   0.019   2.230   0.647
  583SOL    HW1 1785  -0.063   2.273   0.686
  583SOL    HW2 1786  -0.009   2.157   0.584
  584SOL     OW 1787   0.569   3.137   1.165
  584SOL    HW1 1788   0.476   3.130   1.128
  584SOL    HW2 1789   0.580   3.226   1.209
  585SOL     OW 1790   1.555   3.373   0.703
  585SOL    HW1 1791   1.498   3.357   0.784
  585SOL    HW2 1792   1.496   3.383   0.623
  586SOL     OW 1793   1.135   2.565   0.717
  586SOL    HW1 1794   1.192   2.643   0.692
  586SOL    HW2 1795   1.075   2.591   0.793
  587SOL     OW 1796   1.755   2.469   0.231
  587SOL    HW1 1797   1.743   2.456   0.132
  587SOL    HW2 1798   1.725   2.388   0.280
  588SOL     OW 1799   0.768   3.006   1.023
  588SOL    HW1 1800   0.690   3.023   1.083
  588SOL    HW2 1801   0.802   3.093   0.987
  589SOL     OW 1802   0.850   2.660   1.823
  589SOL    HW1 1803   0.846   2.736   1.888
  589SOL    HW2 1804   0.872   2.696   1.732
  590SOL     OW 1805   0.685   2.874   0.665
  590SOL    HW1 1806   0.754   2.858   0.735
  590SOL    HW2 1807   0.612   2.931   0.703
  591SOL     OW 1808   0.686   3.023   1.803
  591SOL    HW1 1809   0.746   3.102   1.817
  591SOL    HW2 1810   0.600   3.054   1.762
  592SOL     OW 1811   0.335   3.297   1.061
  592SOL    HW1 1812   0.257   3.266   1.008
  592SOL    HW2 1813   0.393   3.355   1.004
  593SOL     OW 1814   1.460   3.367   1.339
  593SOL    HW1 1815   1.484   3.461   1.365
  593SOL    HW2 1816   1.444   3.313   1.421
  594SOL     OW 1817   0.438   2.254   1.499
  594SOL    HW1 1818   0.520   2.198   1.508
  594SOL    HW2 1819   0.357   2.196   1.503
  595SOL     OW 1820   1.603   2.309   0.737
  595SOL    HW1 1821   1.529   2.355   0.687
  595SOL    HW2 1822   1.654   2.377   0.790
  596SOL     OW 1823   0.231   3.575   0.483
  596SOL    HW1 1824   0.265   3.652   0.537
  596SOL    HW2 1825   0.275   3.575   0.393
  597SOL     OW 1826   1.127   3.203   1.690
  597SOL    HW1 1827   1.174   3.203   1.778
  597SOL    HW2 1828   1.079   3.116   1.679
  598SOL     OW 1829   0.230   3.296   0.538
  598SOL    HW1 1830   0.204   3.392   0.538
  598SOL    HW2 1831   0.159   3.242   0.583
  599SOL     OW 1832   0.240   2.953   0.886
  599SOL    HW1 1833   0.254   2.869   0.938
  599SOL    HW2 1834   0.185   3.017   0.941
  600SOL     OW 1835   0.620   3.648   1.439
  600SOL    HW1 1836   0.528   3.631   1.474
  600SOL    HW2 1837   0.648   3.740   1.465
  601SOL     OW 1838   0.606   2.826   0.123
  601SOL    HW1 1839   0.613   2.910   0.069
  601SOL    HW2 1840   0.652   2.839   0.211
  602SOL     OW 1841   1.594   1.976   1.480
  602SOL    HW1 1842   1.576   2.043   1.408
  602SOL    HW2 1843   1.591   2.022   1.569
  603SOL     OW 1844   0.122   2.505   0.563
  603SOL    HW1 1845   0.077   2.417   0.580
  603SOL    HW2 1846   0.121   2.559   0.647
  604SOL     OW 1847   1.842   3.629   0.359
  604SOL    HW1 1848   1.896   3.600   0.439
  604SOL    HW2 1849   1.872   3.719   0.330
  605SOL     OW 1850   0.027   3.458   0.117
  605SOL    HW1 1851   0.008   3.362   0.138
  605SOL    HW2 1852  -0.006   3.516   0.192
  606SOL     OW 1853   1.689   2.784   0.612
  606SOL    HW1 1854   1.784   2.755   0.620
  606SOL    HW2 1855   1.681   2.849   0.537
  607SOL     OW 1856   1.641   2.970   0.432
  607SOL    HW1 1857   1.727   2.972   0.380
  607SOL    HW2 1858   1.655   3.017   0.520
  608SOL     OW 1859   0.113   2.599   1.597
  608SOL    HW1 1860   0.201   2.586   1.642
  608SOL    HW2 1861   0.100   2.696   1.575
  609SOL     OW 1862   0.613   3.227   0.726
  609SOL    HW1 1863   0.564   3.140   0.735
  609SOL    HW2 1864   0.590   3.270   0.639
  610SOL     OW 1865   1.293   3.090   1.423
  610SOL    HW1 1866   1.330   3.017   1.365
  610SOL    HW2 1867   1.345   3.095   1.508
  611SOL     OW 1868   0.809   1.866   0.502
  611SOL    HW1 1869   0.849   1.957   0.493
  611SOL    HW2 1870   0.709   1.874   0.508
  612SOL     OW 1871   0.197   2.838   1.264
  612SOL    HW1 1872   0.286   2.793   1.250
  612SOL    HW2 1873   0.124   2.773   1.245
  613SOL     OW 1874   1.525   2.861   0.190
  613SOL    HW1 1875   1.462   2.785   0.203
  613SOL    HW2 1876   1.573   2.879   0.276
  614SOL     OW 1877   1.187   3.654   1.616
  614SOL    HW1 1878   1.211   3.714   1.540
  614SOL    HW2 1879   1.194   3.559   1.586
  615SOL     OW 1880   0.317   2.113   1.801
  615SOL    HW1 1881   0.388   2.184   1.807
  615SOL    HW2 1882   0.229   2.152   1.829
  616SOL     OW 1883   1.466   3.279   0.953
  616SOL    HW1 1884   1.407   3.285   1.033
  616SOL    HW2 1885   1.451   3.191   0.907
  617SOL     OW 1886   1.667   3.576   0.572
  617SOL    HW1 1887   1.626   3.553   0.484
  617SOL    HW2 1888   1.649   3.502   0.637
  618SOL     OW 1889   0.598   2.591   0.270
  618SOL    HW1 1890   0.622   2.660   0.202
  618SOL    HW2 1891   0.520   2.624   0.324
  619SOL     OW 1892   1.281   2.207   0.944
  619SOL    HW1 1893   1.195   2.157   0.931
  619SOL    HW2 1894   1.343   2.153   1.000
  620SOL     OW 1895   1.576   3.524   0.307
  620SOL    HW1 1896   1.665   3.570   0.310
  620SOL    HW2 1897   1.555   3.500   0.212
  621SOL     OW 1898   0.807   2.467   1.465
  621SOL    HW1 1899   0.760   2.464   1.554
  621SOL    HW2 1900   0.756   2.412   1.399
  622SOL     OW 1901   1.394   2.331   1.674
  622SOL    HW1 1902   1.374   2.374   1.762
  622SOL    HW2 1903   1.472   2.269   1.683
  623SOL     OW 1904   0.973   2.752   1.572
  623SOL    HW1 1905   1.019   2.668   1.543
  623SOL    HW2 1906   0.917   2.786   1.497
  624SOL     OW 1907   0.991   2.272   1.242
  624SOL    HW1 1908   0.914   2.306   1.296
  624SOL    HW2 1909   0.957   2.221   1.163
  625SOL     OW 1910   1.041   2.563   0.429
  625SOL    HW1 1911   1.067   2.559   0.525
  625SOL    HW2 1912   0.956   2.512   0.415
  626SOL     OW 1913   0.076   2.673   0.789
  626SOL    HW1 1914   0.175   2.661   0.798
  626SOL    HW2 1915   0.052   2.768   0.810
  627SOL     OW 1916   0.130   3.683   1.571
  627SOL    HW1 1917   0.120   3.668   1.670
  627SOL    HW2 1918   0.044   3.719   1.535
  628SOL     OW 1919   0.865   2.210   0.195
  628SOL    HW1 1920   0.924   2.273   0.146
  628SOL    HW2 1921   0.884   2.116   0.166
  629SOL     OW 1922   1.719   2.447   1.831
  629SOL    HW1 1923   1.693   2.536   1.795
  629SOL    HW2 1924   1.717   2.379   1.758
  630SOL     OW 1925   1.362   3.006   0.545
  630SOL    HW1 1926   1.445   2.977   0.497
  630SOL    HW2 1927   1.313   3.073   0.489
  631SOL     OW 1928   0.550   2.058   0.885
  631SOL    HW1 1929   0.545   2.053   0.985
  631SOL    HW2 1930   0.552   2.154   0.856
  632SOL     OW 1931   1.008   3.318   0.477
  632SOL    HW1 1932   0.962   3.390   0.425
  632SOL    HW2 1933   1.004   3.338   0.575
  633SOL     OW 1934   0.351   3.663   0.853
  633SOL    HW1 1935   0.401   3.577   0.859
  633SOL    HW2 1936   0.416   3.740   0.850
  634SOL     OW 1937   1.795   2.928   0.873
  634SOL    HW1 1938   1.733   2.913   0.797
  634SOL    HW2 1939   1.743   2.939   0.958
  635SOL     OW 1940   1.227   3.412   1.506
  635SOL    HW1 1941   1.233   3.335   1.570
  635SOL    HW2 1942   1.175   3.386   1.426
  636SOL     OW 1943   0.321   2.805   0.242
  636SOL    HW1 1944   0.403   2.844   0.200
  636SOL    HW2 1945   0.294   2.723   0.193
  637SOL     OW 1946   1.458   2.597   0.728
  637SOL    HW1 1947   1.453   2.532   0.803
  637SOL    HW2 1948   1.538   2.656   0.741
  638SOL     OW 1949   0.461   3.128   1.727
  638SOL    HW1 1950   0.411   3.129   1.641
  638SOL    HW2 1951   0.398   3.110   1.803
  639SOL     OW 1952   1.111   3.638   0.237
  639SOL    HW1 1953   1.051   3.576   0.287
  639SOL    HW2 1954   1.142   3.594   0.152
  640SOL     OW 1955   0.202   2.147   1.498
  640SOL    HW1 1956   0.122   2.207   1.485
  640SOL    HW2 1957   0.192   2.098   1.584
  641SOL     OW 1958   1.632   3.239   0.081
  641SOL    HW1 1959   1.600   3.333   0.071
  641SOL    HW2 1960   1.556   3.176   0.069
  642SOL     OW 1961   0.464   3.605   0.323
  642SOL    HW1 1962   0.497   3.644   0.409
  642SOL    HW2 1963   0.540   3.598   0.258
  643SOL     OW 1964   1.400   1.969   0.426
  643SOL    HW1 1965   1.376   1.932   0.336
  643SOL    HW2 1966   1.499   1.985   0.430
  644SOL     OW 1967   0.249   3.647   1.241
  644SOL    HW1 1968   0.306   3.582   1.291
  644SOL    HW2 1969   0.233   3.614   1.148
  645SOL     OW 1970   0.940   3.560   0.904
  645SOL    HW1 1971   1.020   3.503   0.925
  645SOL    HW2 1972   0.891   3.520   0.827
  646SOL     OW 1973   0.382   2.562   0.480
  646SOL    HW1 1974   0.427   2.472   0.477
  646SOL    HW2 1975   0.288   2.551   0.513
  647SOL     OW 1976   1.547   2.084   1.729
  647SOL    HW1 1977   1.542   2.121   1.821
  647SOL    HW2 1978   1.475   2.015   1.717
  648SOL     OW 1979   0.781   2.126   1.749
  648SOL    HW1 1980   0.848   2.065   1.792
  648SOL    HW2 1981   0.708   2.145   1.814
  649SOL     OW 1982   0.888   3.376   1.195
  649SOL    HW1 1983   0.865   3.351   1.101
  649SOL    HW2 1984   0.949   3.307   1.234
  650SOL     OW 1985   1.351   2.452   1.433
  650SOL    HW1 1986   1.379   2.409   1.518
  650SOL    HW2 1987   1.376   2.548   1.434
  651SOL     OW 1988   0.803   3.264   0.924
  651SOL    HW1 1989   0.893   3.278   0.882
  651SOL    HW2 1990   0.732   3.266   0.853
  652SOL     OW 1991   0.922   2.365   0.899
  652SOL    HW1 1992   0.897   2.356   0.803
  652SOL    HW2 1993   0.970   2.283   0.930
  653SOL     OW 1994   0.539   1.926   0.512
  653SOL    HW1 1995   0.458   1.927   0.570
  653SOL    HW2 1996   0.542   2.009   0.457
  654SOL     OW 1997   1.434   3.050   0.041
  654SOL    HW1 1998   1.466   2.974   0.098
  654SOL    HW2 1999   1.342   3.077   0.071
  655SOL     OW 2000   0.297   1.897   0.171
  655SOL    HW1 2001   0.346   1.981   0.150
  655SOL    HW2 2002   0.359   1.832   0.216
  656SOL     OW 2003   0.935   2.098   0.480
  656SOL    HW1 2004   0.887   2.139   0.402
  656SOL    HW2 2005   1.034   2.096   0.461
  657SOL     OW 2006   1.076   2.545   1.464
  657SOL    HW1 2007   0.996   2.484   1.467
  657SOL    HW2 2008   1.157   2.492   1.440
  658SOL     OW 2009   1.227   3.432   0.793
  658SOL    HW1 2010   1.248   3.506   0.728
  658SOL    HW2 2011   1.295   3.432   0.866
  659SOL     OW 2012   0.459   3.014   0.741
  659SOL    HW1 2013   0.388   2.987   0.806
  659SOL    HW2 2014   0.433   2.986   0.648
  660SOL     OW 2015   1.271   3.659   0.591
  660SOL    HW1 2016   1.315   3.723   0.527
  660SOL    HW2 2017   1.221   3.711   0.661
  661SOL     OW 2018   1.032   2.411   0.016
  661SOL    HW1 2019   0.991   2.493  -0.023
  661SOL    HW2 2020   1.096   2.437   0.089
  662SOL     OW 2021   0.078   2.418   1.386
  662SOL    HW1 2022   0.170   2.417   1.345
  662SOL    HW2 2023   0.072   2.492   1.453
  663SOL     OW 2024   0.561   2.084   1.147
  663SOL    HW1 2025   0.599   2.000   1.184
  663SOL    HW2 2026   0.473   2.103   1.191
  664SOL     OW 2027   0.866   2.316   0.642
  664SOL    HW1 2028   0.834   2.388   0.580
  664SOL    HW2 2029   0.890   2.235   0.589
  665SOL     OW 2030   1.017   1.901   0.753
  665SOL    HW1 2031   0.945   1.906   0.684
  665SOL    HW2 2032   0.993   1.832   0.822
  666SOL     OW 2033   1.429   3.035   0.867
  666SOL    HW1 2034   1.374   2.951   0.860
  666SOL    HW2 2035   1.455   3.064   0.775
  667SOL     OW 2036   1.466   2.452   0.992
  667SOL    HW1 2037   1.436   2.357   0.999
  667SOL    HW2 2038   1.539   2.468   1.058
  668SOL     OW 2039   1.857   2.695   0.377
  668SOL    HW1 2040   1.899   2.631   0.441
  668SOL    HW2 2041   1.819   2.644   0.299
  669SOL     OW 2042   0.488   3.247   0.174
  669SOL    HW1 2043   0.401   3.232   0.221
  669SOL    HW2 2044   0.471   3.273   0.079
  670SOL     OW 2045   1.664   3.142   0.657
  670SOL    HW1 2046   1.763   3.150   0.671
  670SOL    HW2 2047   1.619   3.226   0.688
  671SOL     OW 2048   1.390   2.437   0.078
  671SOL    HW1 2049   1.336   2.416   0.159
  671SOL    HW2 2050   1.481   2.396   0.087
  672SOL     OW 2051   0.527   2.118   0.328
  672SOL    HW1 2052   0.554   2.059   0.253
  672SOL    HW2 2053   0.527   2.213   0.297
  673SOL     OW 2054   1.754   3.085   1.588
  673SOL    HW1 2055   1.845   3.046   1.575
  673SOL    HW2 2056   1.762   3.181   1.612
  674SOL     OW 2057   1.064   3.209   1.340
  674SOL    HW1 2058   0.984   3.186   1.395
  674SOL    HW2 2059   1.147   3.183   1.389
  675SOL     OW 2060   1.592   3.491   1.625
  675SOL    HW1 2061   1.619   3.525   1.535
  675SOL    HW2 2062   1.671   3.453   1.671
  676SOL     OW 2063   1.111   3.057   1.100
  676SOL    HW1 2064   1.071   3.101   1.181
  676SOL    HW2 2065   1.070   3.094   1.017
  677SOL     OW 2066   1.638   2.961   1.079
  677SOL    HW1 2067   1.643   3.042   1.138
  677SOL    HW2 2068   1.552   2.963   1.028
  678SOL     OW 2069   0.915   1.951   1.402
  678SOL    HW1 2070   0.940   1.931   1.307
  678SOL    HW2 2071   0.987   2.007   1.444
  679SOL     OW 2072   0.980   2.978   1.719
  679SOL    HW1 2073   0.881   2.984   1.729
  679SOL    HW2 2074   1.003   2.898   1.663
  680SOL     OW 2075   0.705   2.912   0.368
  680SOL    HW1 2076   0.691   2.919   0.467
  680SOL    HW2 2077   0.789   2.861   0.350
  681SOL     OW 2078   0.410   2.675   1.251
  681SOL    HW1 2079   0.496   2.687   1.301
  681SOL    HW2 2080   0.368   2.588   1.278
  682SOL     OW 2081   1.274   2.248   1.262
  682SOL    HW1 2082   1.295   2.322   1.326
  682SOL    HW2 2083   1.185   2.265   1.219
  683SOL     OW 2084   0.064   3.426   1.331
  683SOL    HW1 2085   0.018   3.508   1.297
  683SOL    HW2 2086   0.162   3.445   1.340
  684SOL     OW 2087   0.367   2.962   0.501
  684SOL    HW1 2088   0.360   3.045   0.445
  684SOL    HW2 2089   0.371   2.882   0.441
  685SOL     OW 2090   0.566   2.399   0.865
  685SOL    HW1 2091   0.578   2.465   0.791
  685SOL    HW2 2092   0.612   2.433   0.948
  686SOL     OW 2093   1.252   3.210   0.388
  686SOL    HW1 2094   1.302   3.287   0.428
  686SOL    HW2 2095   1.157   3.212   0.420
  687SOL     OW 2096   1.272   3.307   1.142
  687SOL    HW1 2097   1.319   3.320   1.229
  687SOL    HW2 2098   1.206   3.233   1.151
  688SOL     OW 2099   1.582   2.501   0.472
  688SOL    HW1 2100   1.551   2.562   0.545
  688SOL    HW2 2101   1.632   2.553   0.403
  689SOL     OW 2102   0.354   3.372   1.329
  689SOL    HW1 2103   0.333   3.328   1.242
  689SOL    HW2 2104   0.451   3.398   1.332
  690SOL     OW 2105   0.402   2.613   1.598
  690SOL    HW1 2106   0.470   2.668   1.551
  690SOL    HW2 2107   0.442   2.525   1.625
  691SOL     OW 2108   1.587   2.641   1.670
  691SOL    HW1 2109   1.495   2.679   1.665
  691SOL    HW2 2110   1.647   2.688   1.605
  692SOL     OW 2111   1.013   1.967   1.770
  692SOL    HW1 2112   1.019   2.052   1.718
  692SOL    HW2 2113   1.045   1.891   1.713
  693SOL     OW 2114   0.504   1.912   1.740
  693SOL    HW1 2115   0.462   1.855   1.670
  693SOL    HW2 2116   0.438   1.981   1.772
  694SOL     OW 2117   0.573   2.732   1.029
  694SOL    HW1 2118   0.617   2.821   1.020
  694SOL    HW2 2119   0.510   2.732   1.106
  695SOL     OW 2120   1.360   2.724   1.045
  695SOL    HW1 2121   1.285   2.724   0.979
  695SOL    HW2 2122   1.397   2.632   1.054
  696SOL     OW 2123   1.209   2.387   0.275
  696SOL    HW1 2124   1.222   2.303   0.329
  696SOL    HW2 2125   1.180   2.461   0.335
  697SOL     OW 2126   0.307   2.075   1.231
  697SOL    HW1 2127   0.284   2.112   1.321
  697SOL    HW2 2128   0.277   1.980   1.225
  698SOL     OW 2129   0.037   3.172   1.282
  698SOL    HW1 2130   0.090   3.123   1.350
  698SOL    HW2 2131   0.059   3.270   1.287
  699SOL     OW 2132   0.732   2.496   1.064
  699SOL    HW1 2133   0.791   2.470   0.988
  699SOL    HW2 2134   0.704   2.592   1.053
  700SOL     OW 2135   1.728   2.797   1.854
  700SOL    HW1 2136   1.682   2.790   1.765
  700SOL    HW2 2137   1.666   2.841   1.920
  701SOL     OW 2138   0.307   1.925   0.618
  701SOL    HW1 2139   0.296   2.019   0.651
  701SOL    HW2 2140   0.302   1.862   0.695
  702SOL     OW 2141   1.622   2.229   0.374
  702SOL    HW1 2142   1.624   2.153   0.438
  702SOL    HW2 2143   1.574   2.306   0.414
  703SOL     OW 2144   1.023   2.628   0.966
  703SOL    HW1 2145   1.038   2.649   1.062
  703SOL    HW2 2146   0.993   2.533   0.957
  704SOL     OW 2147   0.980   3.435   1.700
  704SOL    HW1 2148   0.960   3.479   1.612
  704SOL    HW2 2149   1.019   3.344   1.684
  705SOL     OW 2150   1.859   3.380   1.605
  705SOL    HW1 2151   1.873   3.407   1.510
  705SOL    HW2 2152   1.942   3.402   1.658
  706SOL     OW 2153   0.350   2.760   1.804
  706SOL    HW1 2154   0.426   2.804   1.852
  706SOL    HW2 2155   0.385   2.713   1.722
  707SOL     OW 2156   1.540   2.136   0.125
  707SOL    HW1 2157   1.479   2.061   0.148
  707SOL    HW2 2158   1.562   2.188   0.208
  708SOL     OW 2159   1.303   2.700   0.042
  708SOL    HW1 2160   1.337   2.607   0.057
  708SOL    HW2 2161   1.321   2.727  -0.053
  709SOL     OW 2162   1.068   3.195   0.849
  709SOL    HW1 2163   1.075   3.111   0.794
  709SOL    HW2 2164   1.130   3.264   0.813
  710SOL     OW 2165   0.319   2.672   0.949
  710SOL    HW1 2166   0.412   2.708   0.954
  710SOL    HW2 2167   0.313   2.587   1.001
  711SOL     OW 2168   0.339   2.371   1.006
  711SOL    HW1 2169   0.287   2.288   0.989
  711SOL    HW2 2170   0.416   2.376   0.942
  712SOL     OW 2171   1.138   2.242   1.678
  712SOL    HW1 2172   1.093   2.305   1.742
  712SOL    HW2 2173   1.231   2.273   1.661
  713SOL     OW 2174   1.160   2.069   1.477
  713SOL    HW1 2175   1.160   2.133   1.554
  713SOL    HW2 2176   1.188   2.117   1.394
  714SOL     OW 2177   0.008   3.188   0.200
  714SOL    HW1 2178  -0.085   3.209   0.169
  714SOL    HW2 2179   0.018   3.089   0.213
  715SOL     OW 2180   0.088   3.663   0.927
  715SOL    HW1 2181   0.046   3.577   0.900
  715SOL    HW2 2182   0.182   3.666   0.893
  716SOL     OW 2183   0.504   3.430   0.910
  716SOL    HW1 2184   0.570   3.504   0.919
  716SOL    HW2 2185   0.548   3.351   0.868
  717SOL     OW 2186   1.002   2.658   1.238
  717SOL    HW1 2187   1.043   2.626   1.324
  717SOL    HW2 2188   0.906   2.631   1.235
  718SOL     OW 2189   0.040   2.406   1.114
  718SOL    HW1 2190   0.125   2.373   1.073
  718SOL    HW2 2191   0.053   2.421   1.212
  719SOL     OW 2192   0.189   2.382   1.722
  719SOL    HW1 2193   0.248   2.342   1.652
  719SOL    HW2 2194   0.131   2.453   1.681
  720SOL     OW 2195   1.369   2.812   1.660
  720SOL    HW1 2196   1.408   2.901   1.680
  720SOL    HW2 2197   1.379   2.792   1.563
  721SOL     OW 2198   0.815   2.434   0.325
  721SOL    HW1 2199   0.822   2.345   0.279
  721SOL    HW2 2200   0.721   2.468   0.317
  722SOL     OW 2201   1.657   2.466   1.206
  722SOL    HW1 2202   1.619   2.397   1.268
  722SOL    HW2 2203   1.739   2.430   1.162
  723SOL     OW 2204   0.252   3.426   1.744
  723SOL    HW1 2205   0.222   3.483   1.820
  723SOL    HW2 2206   0.245   3.329   1.770
  724SOL     OW 2207   0.671   2.326   1.269
  724SOL    HW1 2208   0.637   2.237   1.239
  724SOL    HW2 2209   0.697   2.380   1.189
  725SOL     OW 2210   0.930   3.540   1.465
  725SOL    HW1 2211   0.906   3.522   1.370
  725SOL    HW2 2212   0.960   3.634   1.475
  726SOL     OW 2213   0.473   2.362   0.191
  726SOL    HW1 2214   0.534   2.442   0.195
  726SOL    HW2 2215   0.378   2.393   0.198
  727SOL     OW 2216   0.159   2.999   1.466
  727SOL    HW1 2217   0.181   2.938   1.542
  727SOL    HW2 2218   0.169   2.950   1.380
  728SOL     OW 2219   1.347   2.921   1.234
  728SOL    HW1 2220   1.371   2.858   1.160
  728SOL    HW2 2221   1.257   2.961   1.216
  729SOL     OW 2222   1.302   2.717   0.309
  729SOL    HW1 2223   1.216   2.686   0.351
  729SOL    HW2 2224   1.298   2.703   0.210
  730SOL     OW 2225   1.759   3.609   1.154
  730SOL    HW1 2226   1.820   3.639   1.081
  730SOL    HW2 2227   1.721   3.520   1.132
  731SOL     OW 2228   1.252   3.593   1.128
  731SOL    HW1 2229   1.336   3.598   1.074
  731SOL    HW2 2230   1.229   3.497   1.146
  732SOL     OW 2231   0.083   3.120   1.022
  732SOL    HW1 2232   0.078   3.119   1.122
  732SOL    HW2 2233   0.000   3.079   0.984
  733SOL     OW 2234   0.688   3.524   1.716
  733SOL    HW1 2235   0.632   3.605   1.725
  733SOL    HW2 2236   0.740   3.528   1.630
  734SOL     OW 2237   0.903   1.948   0.133
  734SOL    HW1 2238   0.954   1.949   0.047
  734SOL    HW2 2239   0.959   1.906   0.204
  735SOL     OW 2240   1.726   1.997   0.523
  735SOL    HW1 2241   1.799   1.980   0.456
  735SOL    HW2 2242   1.695   1.910   0.561
  736SOL     OW 2243   1.388   3.435   0.477
  736SOL    HW1 2244   1.455   3.447   0.403
  736SOL    HW2 2245   1.348   3.524   0.500
  737SOL     OW 2246   0.130   3.656   1.851
  737SOL    HW1 2247   0.089   3.582   1.904
  737SOL    HW2 2248   0.194   3.707   1.909
  738SOL     OW 2249   1.280   2.789   0.672
  738SOL    HW1 2250   1.340   2.708   0.674
  738SOL    HW2 2251   1.320   2.858   0.612
  739SOL     OW 2252   0.830   3.135   1.422
  739SOL    HW1 2253   0.825   3.168   1.517
  739SOL    HW2 2254   0.744   3.154   1.376
  740SOL     OW 2255   0.672   3.478   0.154
  740SOL    HW1 2256   0.681   3.488   0.055
  740SOL    HW2 2257   0.632   3.389   0.175
  741SOL     OW 2258   1.650   3.582   1.394
  741SOL    HW1 2259   1.703   3.592   1.310
  741SOL    HW2 2260   1.623   3.672   1.428
  742SOL     OW 2261   1.841   2.037   0.963
  742SOL    HW1 2262   1.880   1.952   0.927
  742SOL    HW2 2263   1.743   2.039   0.944
  743SOL     OW 2264   0.263   2.188   0.720
  743SOL    HW1 2265   0.184   2.239   0.686
  743SOL    HW2 2266   0.254   2.173   0.818
  744SOL     OW 2267   1.194   3.474   0.031
  744SOL    HW1 2268   1.200   3.381   0.068
  744SOL    HW2 2269   1.135   3.474  -0.049
  745SOL     OW 2270   0.822   2.864   1.372
  745SOL    HW1 2271   0.862   2.863   1.280
  745SOL    HW2 2272   0.832   2.956   1.412
  746SOL     OW 2273   0.916   2.772   0.291
  746SOL    HW1 2274   0.979   2.810   0.223
  746SOL    HW2 2275   0.956   2.689   0.330
  747SOL     OW 2276   1.504   3.469   0.044
  747SOL    HW1 2277   1.412   3.506   0.051
  747SOL    HW2 2278   1.542   3.489  -0.046
  748SOL     OW 2279   0.372   3.150   1.490
  748SOL    HW1 2280   0.359   3.243   1.456
  748SOL    HW2 2281   0.288   3.098   1.477
  749SOL     OW 2282   1.614   3.154   1.289
  749SOL    HW1 2283   1.674   3.157   1.369
  749SOL    HW2 2284   1.539   3.218   1.302
  750SOL     OW 2285   1.039   2.960   0.696
  750SOL    HW1 2286   0.969   2.913   0.750
  750SOL    HW2 2287   1.098   2.892   0.653
  751SOL     OW 2288   1.014   2.098   0.971
  751SOL    HW1 2289   1.006   2.062   0.878
  751SOL    HW2 2290   1.012   2.022   1.036
  752SOL     OW 2291   0.590   3.349   0.491
  752SOL    HW1 2292   0.632   3.291   0.421
  752SOL    HW2 2293   0.546   3.428   0.447
  753SOL     OW 2294   1.709   2.247   1.381
  753SOL    HW1 2295   1.782   2.316   1.385
  753SOL    HW2 2296   1.737   2.172   1.322
  754SOL     OW 2297   0.255   3.210   0.290
  754SOL    HW1 2298   0.159   3.211   0.263
  754SOL    HW2 2299   0.267   3.263   0.374
  755SOL     OW 2300   0.105   2.875   1.726
  755SOL    HW1 2301   0.028   2.842   1.780
  755SOL    HW2 2302   0.190   2.845   1.768
  756SOL     OW 2303   0.672   2.065   1.489
  756SOL    HW1 2304   0.762   2.049   1.449
  756SOL    HW2 2305   0.680   2.070   1.588
  757SOL     OW 2306   0.075   2.207   0.033
  757SOL    HW1 2307  -0.017   2.179   0.004
  757SOL    HW2 2308   0.106   2.284  -0.023
  758SOL     OW 2309   1.440   2.718   1.398
  758SOL    HW1 2310   1.383   2.770   1.335
  758SOL    HW2 2311   1.536   2.730   1.374
  759SOL     OW 2312   0.072   2.028   0.318
  759SOL    HW1 2313   0.055   2.111   0.264
  759SOL    HW2 2314   0.162   1.991   0.296
  760SOL     OW 2315   1.183   3.197   0.119
  760SOL    HW1 2316   1.084   3.186   0.121
  760SOL    HW2 2317   1.217   3.212   0.212
  761SOL     OW 2318   0.613   2.704   1.431
  761SOL    HW1 2319   0.669   2.785   1.414
  761SOL    HW2 2320   0.672   2.624   1.434
  762SOL     OW 2321   1.493   3.629   0.959
  762SOL    HW1 2322   1.526   3.693   0.890
  762SOL    HW2 2323   1.559   3.623   1.034
  763SOL     OW 2324   0.716   2.427   1.708
  763SOL    HW1 2325   0.735   2.492   1.782
  763SOL    HW2 2326   0.776   2.347   1.717
  764SOL     OW 2327   1.450   3.082   1.633
  764SOL    HW1 2328   1.441   3.072   1.732
  764SOL    HW2 2329   1.546   3.075   1.607
  765SOL     OW 2330   0.390   3.603   1.560
  765SOL    HW1 2331   0.299   3.644   1.558
  765SOL    HW2 2332   0.383   3.509   1.592
  766SOL     OW 2333   1.674   2.745   1.254
  766SOL    HW1 2334   1.647   2.656   1.217
  766SOL    HW2 2335   1.675   2.813   1.181
  767SOL     OW 2336   1.225   2.187   0.449
  767SOL    HW1 2337   1.290   2.113   0.438
  767SOL    HW2 2338   1.245   2.237   0.533
  768SOL     OW 2339   0.594   2.607   0.652
  768SOL    HW1 2340   0.644   2.692   0.633
  768SOL    HW2 2341   0.506   2.609   0.604
  769SOL     OW 2342   1.777   2.204   1.642
  769SOL    HW1 2343   1.760   2.235   1.548
  769SOL    HW2 2344   1.693   2.167   1.680
  770SOL     OW 2345   1.730   2.796   1.517
  770SOL    HW1 2346   1.768   2.887   1.532
  770SOL    HW2 2347   1.722   2.779   1.418
  771SOL     OW 2348   0.859   3.236   0.016
  771SOL    HW1 2349   0.813   3.251   0.104
  771SOL    HW2 2350   0.903   3.321  -0.014
  772SOL     OW 2351   0.661   3.652   0.953
  772SOL    HW1 2352   0.615   3.740   0.940
  772SOL    HW2 2353   0.760   3.664   0.946
  773SOL     OW 2354   0.859   2.818   0.861
  773SOL    HW1 2355   0.913   2.749   0.909
  773SOL    HW2 2356   0.827   2.887   0.927
  774SOL     OW 2357   1.083   2.846   0.087
  774SOL    HW1 2358   1.060   2.899   0.005
  774SOL    HW2 2359   1.164   2.790   0.068
  775SOL     OW 2360   1.861   3.431   0.851
  775SOL    HW1 2361   1.790   3.419   0.781
  775SOL    HW2 2362   1.862   3.352   0.911
  776SOL     OW 2363   0.221   3.176   1.844
  776SOL    HW1 2364   0.156   3.103   1.823
  776SOL    HW2 2365   0.225   3.190   1.942
  777SOL     OW 2366   0.079   3.102   0.653
  777SOL    HW1 2367   0.078   3.055   0.741
  777SOL    HW2 2368   0.161   3.074   0.602
  778SOL     OW 2369   0.672   3.253   1.624
  778SOL    HW1 2370   0.594   3.203   1.662
  778SOL    HW2 2371   0.669   3.348   1.655
  779SOL     OW 2372   1.824   2.054   1.227
  779SOL    HW1 2373   1.820   1.964   1.271
  779SOL    HW2 2374   1.827   2.043   1.128
  780SOL     OW 2375   0.428   2.286   0.520
  780SOL    HW1 2376   0.458   2.214   0.458
  780SOL    HW2 2377   0.389   2.246   0.603
  781SOL     OW 2378   1.705   3.349   1.104
  781SOL    HW1 2379   1.612   3.324   1.077
  781SOL    HW2 2380   1.731   3.299   1.186
  782SOL     OW 2381   0.317   2.409   1.280
  782SOL    HW1 2382   0.355   2.350   1.352
  782SOL    HW2 2383   0.357   2.383   1.192
  783SOL     OW 2384   0.812   3.448   0.687
  783SOL    HW1 2385   0.844   3.458   0.593
  783SOL    HW2 2386   0.733   3.386   0.689
  784SOL     OW 2387   1.424   2.076   1.112
  784SOL    HW1 2388   1.476   2.011   1.167
  784SOL    HW2 2389   1.375   2.139   1.173
  785SOL     OW 2390   1.001   1.896   1.154
  785SOL    HW1 2391   0.938   1.824   1.123
  785SOL    HW2 2392   1.094   1.860   1.154
  786SOL     OW 2393   0.770   3.192   0.301
  786SOL    HW1 2394   0.724   3.105   0.318
  786SOL    HW2 2395   0.861   3.189   0.342
  787SOL     OW 2396   0.618   3.429   1.284
  787SOL    HW1 2397   0.613   3.511   1.341
  787SOL    HW2 2398   0.707   3.426   1.239
  788SOL     OW 2399   1.352   1.914   0.168
  788SOL    HW1 2400   1.387   1.873   0.084
  788SOL    HW2 2401   1.262   1.876   0.188
  789SOL     OW 2402   1.300   2.315   0.691
  789SOL    HW1 2403   1.241   2.395   0.695
  789SOL    HW2 2404   1.315   2.280   0.784
  790SOL     OW 2405   1.593   2.083   0.882
  790SOL    HW1 2406   1.509   2.082   0.936
  790SOL    HW2 2407   1.595   2.166   0.826
  791SOL     OW 2408   0.039   2.939   0.300
  791SOL    HW1 2409   0.138   2.928   0.291
  791SOL    HW2 2410  -0.001   2.853   0.332
  792SOL     OW 2411   0.875   3.508   0.337
  792SOL    HW1 2412   0.798   3.473   0.283
  792SOL    HW2 2413   0.843   3.579   0.399
  793SOL     OW 2414   0.230   2.490   1.975
  793SOL    HW1 2415   0.137   2.488   2.012
  793SOL    HW2 2416   0.231   2.451   1.883
  794SOL     OW 2417   0.225   2.137   2.858
  794SOL    HW1 2418   0.260   2.120   2.950
  794SOL    HW2 2419   0.137   2.092   2.846
  795SOL     OW 2420   0.019   2.230   2.509
  795SOL    HW1 2421  -0.063   2.273   2.548
  795SOL    HW2 2422  -0.009   2.157   2.446
  796SOL     OW 2423   0.569   3.137   3.027
  796SOL    HW1 2424   0.476   3.130   2.990
  796SOL    HW2 2425   0.580   3.226   3.071
  797SOL     OW 2426   1.555   3.373   2.565
  797SOL    HW1 2427   1.498   3.357   2.646
  797SOL    HW2 2428   1.496   3.383   2.485
  798SOL     OW 2429   1.135   2.565   2.579
  798SOL    HW1 2430   1.192   2.643   2.554
  798SOL    HW2 2431   1.075   2.591   2.655
  799SOL     OW 2432   1.755   2.469   2.093
  799SOL    HW1 2433   1.743   2.456   1.994
  799SOL    HW2 2434   1.725   2.388   2.142
  800SOL     OW 2435   0.768   3.006   2.885
  800SOL    HW1 2436   0.690   3.023   2.945
  800SOL    HW2 2437   0.802   3.093   2.849
  801SOL     OW 2438   0.850   2.660   3.685
  801SOL    HW1 2439   0.846   2.736   3.750
  801SOL    HW2 2440   0.872   2.696   3.594
  802SOL     OW 2441   0.685   2.874   2.527
  802SOL    HW1 2442   0.754   2.858   2.597
  802SOL    HW2 2443   0.612   2.931   2.565
  803SOL     OW 2444   0.686   3.023   3.665
  803SOL    HW1 2445   0.746   3.102   3.679
  803SOL    HW2 2446   0.600   3.054   3.624
  804SOL     OW 2447   0.335   3.297   2.923
  804SOL    HW1 2448   0.257   3.266   2.870
  804SOL    HW2 2449   0.393   3.355   2.866
  805SOL     OW 2450   1.460   3.367   3.201
  805SOL    HW1 2451   1.484   3.461   3.227
  805SOL    HW2 2452   1.444   3.313   3.283
  806SOL     OW 2453   0.438   2.254   3.361
  806SOL    HW1 2454   0.520   2.198   3.370
  806SOL    HW2 2455   0.357   2.196   3.365
  807SOL     OW 2456   1.603   2.309   2.599
  807SOL    HW1 2457   1.529   2.355   2.549
  807SOL    HW2 2458   1.654   2.377   2.652
  808SOL     OW 2459   0.231   3.575   2.345
  808SOL    HW1 2460   0.265   3.652   2.399
  808SOL    HW2 2461   0.275   3.575   2.255
  809SOL     OW 2462   1.127   3.203   3.552
  809SOL    HW1 2463   1.174   3.203   3.640
  809SOL    HW2 2464   1.079   3.116   3.541
  810SOL     OW 2465   0.230   3.296   2.400
  810SOL    HW1 2466   0.204   3.392   2.400
  810SOL    HW2 2467   0.159   3.242   2.445
  811SOL     OW 2468   0.240   2.953   2.748
  811SOL    HW1 2469   0.254   2.869   2.800
  811SOL    HW2 2470   0.185   3.017   2.803
  812SOL     OW 2471   0.620   3.648   3.301
  812SOL    HW1 2472   0.528   3.631   3.336
  812SOL    HW2 2473   0.648   3.740   3.327
  813SOL     OW 2474   0.606   2.826   1.985
  813SOL    HW1 2475   0.613   2.910   1.931
  813SOL    HW2 2476   0.652   2.839   2.073
  814SOL     OW 2477   1.594   1.976   3.342
  814SOL    HW1 2478   1.576   2.043   3.270
  814SOL    HW2 2479   1.591   2.022   3.431
  815SOL     OW 2480   0.122   2.505   2.425
  815SOL    HW1 2481   0.077   2.417   2.442
  815SOL    HW2 2482   0.121   2.559   2.509
  816SOL     OW 2483   1.842   3.629   2.221
  816SOL    HW1 2484   1.896   3.600   2.301
  816SOL    HW2 2485   1.872   3.719   2.192
  817SOL     OW 2486   0.027   3.458   1.979
  817SOL    HW1 2487   0.008   3.362   2.000
  817SOL    HW2 2488  -0.006   3.516   2.054
  818SOL     OW 2489   1.689   2.784   2.474
  818SOL    HW1 2490   1.784   2.755   2.482
  818SOL    HW2 2491   1.681   2.849   2.399
  819SOL     OW 2492   1.641   2.970   2.294
  819SOL    HW1 2493   1.727   2.972   2.242
  819SOL    HW2 2494   1.655   3.017   2.382
  820SOL     OW 2495   0.113   2.599   3.459
  820SOL    HW1 2496   0.201   2.586   3.504
  820SOL    HW2 2497   0.100   2.696   3.437
  821SOL     OW 2498   0.613   3.227   2.588
  821SOL    HW1 2499   0.564   3.140   2.597
  821SOL    HW2 2500   0.590   3.270   2.501
  822SOL     OW 2501   1.293   3.090   3.285
  822SOL    HW1 2502   1.330   3.017   3.227
  822SOL    HW2 2503   1.345   3.095   3.370
  823SOL     OW 2504   0.809   1.866   2.364
  823SOL    HW1 2505   0.849   1.957   2.355
  823SOL    HW2 2506   0.709   1.874   2.370
  824SOL     OW 2507   0.197   2.838   3.126
  824SOL    HW1 2508   0.286   2.793   3.112
  824SOL    HW2 2509   0.124   2.773   3.107
  825SOL     OW 2510   1.525   2.861   2.052
  825SOL    HW1 2511   1.462   2.785   2.065
  825SOL    HW2 2512   1.573   2.879   2.138
  826SOL     OW 2513   1.187   3.654   3.478
  826SOL    HW1 2514   1.211   3.714   3.402
  826SOL    HW2 2515   1.194   3.559   3.448
  827SOL     OW 2516   0.317   2.113   3.663
  827SOL    HW1 2517   0.388   2.184   3.669
  827SOL    HW2 2518   0.229   2.152   3.691
  828SOL     OW 2519   1.466   3.279   2.815
  828SOL    HW1 2520   1.407   3.285   2.895
  828SOL    HW2 2521   1.451   3.191   2.769
  829SOL     OW 2522   1.667   3.576   2.434
  829SOL    HW1 2523   1.626   3.553   2.346
  829SOL    HW2 2524   1.649   3.502   2.499
  830SOL     OW 2525   0.598   2.591   2.132
  830SOL    HW1 2526   0.622   2.660   2.064
  830SOL    HW2 2527   0.520   2.624   2.186
  831SOL     OW 2528   1.281   2.207   2.806
  831SOL    HW1 2529   1.195   2.157   2.793
  831SOL    HW2 2530   1.343   2.153   2.862
  832SOL     OW 2531   1.576   3.524   2.169
  832SOL    HW1 2532   1.665   3.570   2.172
  832SOL    HW2 2533   1.555   3.500   2.074
  833SOL     OW 2534   0.807   2.467   3.327
  833SOL    HW1 2535   0.760   2.464   3.416
  833SOL    HW2 2536   0.756   2.412   3.261
  834SOL     OW 2537   1.394   2.331   3.536
  834SOL    HW1 2538   1.374   2.374   3.624
  834SOL    HW2 2539   1.472   2.269   3.545
  835SOL     OW 2540   0.973   2.752   3.434
  835SOL    HW1 2541   1.019   2.668   3.405
  835SOL    HW2 2542   0.917   2.786   3.359
  836SOL     OW 2543   0.991   2.272   3.104
  836SOL    HW1 2544   0.914   2.306   3.158
  836SOL    HW2 2545   0.957   2.221   3.025
  837SOL     OW 2546   1.041   2.563   2.291
  837SOL    HW1 2547   1.067   2.559   2.387
  837SOL    HW2 2548   0.956   2.512   2.277
  838SOL     OW 2549   0.076   2.673   2.651
  838SOL    HW1 2550   0.175   2.661   2.660
  838SOL    HW2 2551   0.052   2.768   2.672
  839SOL     OW 2552   0.130   3.683   3.433
  839SOL    HW1 2553   0.120   3.668   3.532
  839SOL    HW2 2554   0.044   3.719   3.397
  840SOL     OW 2555   0.865   2.210   2.057
  840SOL    HW1 2556   0.924   2.273   2.008
  840SOL    HW2 2557   0.884   2.116   2.028
  841SOL     OW 2558   1.719   2.447   3.693
  841SOL    HW1 2559   1.693   2.536   3.657
  841SOL    HW2 2560   1.717   2.379   3.620
  842SOL     OW 2561   1.362   3.006   2.407
  842SOL    HW1 2562   1.445   2.977   2.359
  842SOL    HW2 2563   1.313   3.073   2.351
  843SOL     OW 2564   0.550   2.058   2.747
  843SOL    HW1 2565   0.545   2.053   2.847
  843SOL    HW2 2566   0.552   2.154   2.718
  844SOL     OW 2567   1.008   3.318   2.339
  844SOL    HW1 2568   0.962   3.390   2.287
  844SOL    HW2 2569   1.004   3.338   2.437
  845SOL     OW 2570   0.351   3.663   2.715
  845SOL    HW1 2571   0.401   3.577   2.721
  845SOL    HW2 2572   0.416   3.740   2.712
  846SOL     OW 2573   1.795   2.928   2.735
  846SOL    HW1 2574   1.733   2.913   2.659
  846SOL    HW2 2575   1.743   2.939   2.820
  847SOL     OW 2576   1.227   3.412   3.368
  847SOL    HW1 2577   1.233   3.335   3.432
  847SOL    HW2 2578   1.175   3.386   3.288
  848SOL     OW 2579   0.321   2.805   2.104
  848SOL    HW1 2580   0.403   2.844   2.062
  848SOL    HW2 2581   0.294   2.723   2.055
  849SOL     OW 2582   1.458   2.597   2.590
  849SOL    HW1 2583   1.453   2.532   2.665
  849SOL    HW2 2584   1.538   2.656   2.603
  850SOL     OW 2585   0.461   3.128   3.589
  850SOL    HW1 2586   0.411   3.129   3.503
  850SOL    HW2 2587   0.398   3.110   3.665
  851SOL     OW 2588   1.111   3.638   2.099
  851SOL    HW1 2589   1.051   3.576   2.149
  851SOL    HW2 2590   1.142   3.594   2.014
  852SOL     OW 2591   0.202   2.147   3.360
  852SOL    HW1 2592   0.122   2.207   3.347
  852SOL    HW2 2593   0.192   2.098   3.446
  853SOL     OW 2594   1.632   3.239   1.943
  853SOL    HW1 2595   1.600   3.333   1.933
  853SOL    HW2 2596   1.556   3.176   1.931
  854SOL     OW 2597   0.464   3.605   2.185
  854SOL    HW1 2598   0.497   3.644   2.271
  854SOL    HW2 2599   0.540   3.598   2.120
  855SOL     OW 2600   1.400   1.969   2.288
  855SOL    HW1 2601   1.376   1.932   2.198
  855SOL    HW2 2602   1.499   1.985   2.292
  856SOL     OW 2603   0.249   3.647   3.103
  856SOL    HW1 2604   0.306   3.582   3.153
  856SOL    HW2 2605   0.233   3.614   3.010
  857SOL     OW 2606   0.940   3.560   2.766
  857SOL    HW1 2607   1.020   3.503   2.787
  857SOL    HW2 2608   0.891   3.520   2.689
  858SOL     OW 2609   0.382   2.562   2.342
  858SOL    HW1 2610   0.427   2.472   2.339
  858SOL    HW2 2611   0.288   2.551   2.375
  859SOL     OW 2612   1.547   2.084   3.591
  859SOL    HW1 2613   1.542   2.121   3.683
  859SOL    HW2 2614   1.475   2.015   3.579
  860SOL     OW 2615   0.614   1.984   1.979
  860SOL    HW1 2616   0.712   1.962   1.986
  860SOL    HW2 2617   0.583   1.967   1.886
  861SOL     OW 2618   0.781   2.126   3.611
  861SOL    HW1 2619   0.848   2.065   3.654
  861SOL    HW2 2620   0.708   2.145   3.676
  862SOL     OW 2621   0.888   3.376   3.057
  862SOL    HW1 2622   0.865   3.351   2.963
  862SOL    HW2 2623   0.949   3.307   3.096
  863SOL     OW 2624   1.351   2.452   3.295
  863SOL    HW1 2625   1.379   2.409   3.380
  863SOL    HW2 2626   1.376   2.548   3.296
  864SOL     OW 2627   0.803   3.264   2.786
  864SOL    HW1 2628   0.893   3.278   2.744
  864SOL    HW2 2629   0.732   3.266   2.715
  865SOL     OW 2630   0.922   2.365   2.761
  865SOL    HW1 2631   0.897   2.356   2.665
  865SOL    HW2 2632   0.970   2.283   2.792
  866SOL     OW 2633   0.539   1.926   2.374
  866SOL    HW1 2634   0.458   1.927   2.432
  866SOL    HW2 2635   0.542   2.009   2.319
  867SOL     OW 2636   1.434   3.050   1.903
  867SOL    HW1 2637   1.466   2.974   1.960
  867SOL    HW2 2638   1.342   3.077   1.933
  868SOL     OW 2639   0.297   1.897   2.033
  868SOL    HW1 2640   0.346   1.981   2.012
  868SOL    HW2 2641   0.359   1.832   2.078
  869SOL     OW 2642   0.935   2.098   2.342
  869SOL    HW1 2643   0.887   2.139   2.264
  869SOL    HW2 2644   1.034   2.096   2.323
  870SOL     OW 2645   1.076   2.545   3.326
  870SOL    HW1 2646   0.996   2.484   3.329
  870SOL    HW2 2647   1.157   2.492   3.302
  871SOL     OW 2648   1.227   3.432   2.655
  871SOL    HW1 2649   1.248   3.506   2.590
  871SOL    HW2 2650   1.295   3.432   2.728
  872SOL     OW 2651   0.459   3.014   2.603
  872SOL    HW1 2652   0.388   2.987   2.668
  872SOL    HW2 2653   0.433   2.986   2.510
  873SOL     OW 2654   1.271   3.659   2.453
  873SOL    HW1 2655   1.315   3.723   2.389
  873SOL    HW2 2656   1.221   3.711   2.523
  874SOL     OW 2657   1.032   2.411   1.878
  874SOL    HW1 2658   0.991   2.493   1.839
  874SOL    HW2 2659   1.096   2.437   1.951
  875SOL     OW 2660   0.078   2.418   3.248
  875SOL    HW1 2661   0.170   2.417   3.207
  875SOL    HW2 2662   0.072   2.492   3.315
  876SOL     OW 2663   0.561   2.084   3.009
  876SOL    HW1 2664   0.599   2.000   3.046
  876SOL    HW2 2665   0.473   2.103   3.053
  877SOL     OW 2666   0.866   2.316   2.504
  877SOL    HW1 2667   0.834   2.388   2.442
  877SOL    HW2 2668   0.890   2.235   2.451
  878SOL     OW 2669   1.017   1.901   2.615
  878SOL    HW1 2670   0.945   1.906   2.546
  878SOL    HW2 2671   0.993   1.832   2.684
  879SOL     OW 2672   1.429   3.035   2.729
  879SOL    HW1 2673   1.374   2.951   2.722
  879SOL    HW2 2674   1.455   3.064   2.637
  880SOL     OW 2675   1.466   2.452   2.854
  880SOL    HW1 2676   1.436   2.357   2.861
  880SOL    HW2 2677   1.539   2.468   2.920
  881SOL     OW 2678   1.857   2.695   2.239
  881SOL    HW1 2679   1.899   2.631   2.303
  881SOL    HW2 2680   1.819   2.644   2.161
  882SOL     OW 2681   0.488   3.247   2.036
  882SOL    HW1 2682   0.401   3.232   2.083
  882SOL    HW2 2683   0.471   3.273   1.941
  883SOL     OW 2684   1.664   3.142   2.519
  883SOL    HW1 2685   1.763   3.150   2.533
  883SOL    HW2 2686   1.619   3.226   2.550
  884SOL     OW 2687   1.390   2.437   1.940
  884SOL    HW1 2688   1.336   2.416   2.021
  884SOL    HW2 2689   1.481   2.396   1.949
  885SOL     OW 2690   0.527   2.118   2.190
  885SOL    HW1 2691   0.554   2.059   2.115
  885SOL    HW2 2692   0.527   2.213   2.159
  886SOL     OW 2693   1.754   3.085   3.450
  886SOL    HW1 2694   1.845   3.046   3.437
  886SOL    HW2 2695   1.762   3.181   3.474
  887SOL     OW 2696   1.064   3.209   3.202
  887SOL    HW1 2697   0.984   3.186   3.257
  887SOL    HW2 2698   1.147   3.183   3.251
  888SOL     OW 2699   1.592   3.491   3.487
  888SOL    HW1 2700   1.619   3.525   3.397
  888SOL    HW2 2701   1.671   3.453   3.533
  889SOL     OW 2702   1.111   3.057   2.962
  889SOL    HW1 2703   1.071   3.101   3.043
  889SOL    HW2 2704   1.070   3.094   2.879
  890SOL     OW 2705   1.638   2.961   2.941
  890SOL    HW1 2706   1.643   3.042   3.000
  890SOL    HW2 2707   1.552   2.963   2.890
  891SOL     OW 2708   0.915   1.951   3.264
  891SOL    HW1 2709   0.940   1.931   3.169
  891SOL    HW2 2710   0.987   2.007   3.306
  892SOL     OW 2711   0.980   2.978   3.581
  892SOL    HW1 2712   0.881   2.984   3.591
  892SOL    HW2 2713   1.003   2.898   3.525
  893SOL     OW 2714   0.705   2.912   2.230
  893SOL    HW1 2715   0.691   2.919   2.329
  893SOL    HW2 2716   0.789   2.861   2.212
  894SOL     OW 2717   0.410   2.675   3.113
  894SOL    HW1 2718   0.496   2.687   3.163
  894SOL    HW2 2719   0.368   2.588   3.140
  895SOL     OW 2720   1.274   2.248   3.124
  895SOL    HW1 2721   1.295   2.322   3.188
  895SOL    HW2 2722   1.185   2.265   3.081
  896SOL     OW 2723   0.064   3.426   3.193
  896SOL    HW1 2724   0.018   3.508   3.159
  896SOL    HW2 2725   0.162   3.445   3.202
  897SOL     OW 2726   0.367   2.962   2.363
  897SOL    HW1 2727   0.360   3.045   2.307
  897SOL    HW2 2728   0.371   2.882   2.303
  898SOL     OW 2729   0.566   2.399   2.727
  898SOL    HW1 2730   0.578   2.465   2.653
  898SOL    HW2 2731   0.612   2.433   2.810
  899SOL     OW 2732   1.252   3.210   2.250
  899SOL    HW1 2733   1.302   3.287   2.290
  899SOL    HW2 2734   1.157   3.212   2.282
  900SOL     OW 2735   1.272   3.307   3.004
  900SOL    HW1 2736   1.319   3.320   3.091
  900SOL    HW2 2737   1.206   3.233   3.013
  901SOL     OW 2738   1.582   2.501   2.334
  901SOL    HW1 2739   1.551   2.562   2.407
  901SOL    HW2 2740   1.632   2.553   2.265
  902SOL     OW 2741   0.354   3.372   3.191
  902SOL    HW1 2742   0.333   3.328   3.104
  902SOL    HW2 2743   0.451   3.398   3.194
  903SOL     OW 2744   0.402   2.613   3.460
  903SOL    HW1 2745   0.470   2.668   3.413
  903SOL    HW2 2746   0.442   2.525   3.487
  904SOL     OW 2747   1.587   2.641   3.532
  904SOL    HW1 2748   1.495   2.679   3.527
  904SOL    HW2 2749   1.647   2.688   3.467
  905SOL     OW 2750   1.013   1.967   3.632
  905SOL    HW1 2751   1.019   2.052   3.580
  905SOL    HW2 2752   1.045   1.891   3.575
  906SOL     OW 2753   0.504   1.912   3.602
  906SOL    HW1 2754   0.462   1.855   3.532
  906SOL    HW2 2755   0.438   1.981   3.634
  907SOL     OW 2756   0.573   2.732   2.891
  907SOL    HW1 2757   0.617   2.821   2.882
  907SOL    HW2 2758   0.510   2.732   2.968
  908SOL     OW 2759   1.360   2.724   2.907
  908SOL    HW1 2760   1.285   2.724   2.841
  908SOL    HW2 2761   1.397   2.632   2.916
  909SOL     OW 2762   1.209   2.387   2.137
  909SOL    HW1 2763   1.222   2.303   2.191
  909SOL    HW2 2764   1.180   2.461   2.197
  910SOL     OW 2765   0.307   2.075   3.093
  910SOL    HW1 2766   0.284   2.112   3.183
  910SOL    HW2 2767   0.277   1.980   3.087
  911SOL     OW 2768   0.037   3.172   3.144
  911SOL    HW1 2769   0.090   3.123   3.212
  911SOL    HW2 2770   0.059   3.270   3.149
  912SOL     OW 2771   0.732   2.496   2.926
  912SOL    HW1 2772   0.791   2.470   2.850
  912SOL    HW2 2773   0.704   2.592   2.915
  913SOL     OW 2774   1.728   2.797   3.716
  913SOL    HW1 2775   1.682   2.790   3.627
  913SOL    HW2 2776   1.666   2.841   3.782
  914SOL     OW 2777   0.307   1.925   2.480
  914SOL    HW1 2778   0.296   2.019   2.513
  914SOL    HW2 2779   0.302   1.862   2.557
  915SOL     OW 2780   1.622   2.229   2.236
  915SOL    HW1 2781   1.624   2.153   2.300
  915SOL    HW2 2782   1.574   2.306   2.276
  916SOL     OW 2783   1.023   2.628   2.828
  916SOL    HW1 2784   1.038   2.649   2.924
  916SOL    HW2 2785   0.993   2.533   2.819
  917SOL     OW 2786   0.980   3.435   3.562
  917SOL    HW1 2787   0.960   3.479   3.474
  917SOL    HW2 2788   1.019   3.344   3.546
  918SOL     OW 2789   1.859   3.380   3.467
  918SOL    HW1 2790   1.873   3.407   3.372
  918SOL    HW2 2791   1.942   3.402   3.520
  919SOL     OW 2792   0.350   2.760   3.666
  919SOL    HW1 2793   0.426   2.804   3.714
  919SOL    HW2 2794   0.385   2.713   3.584
  920SOL     OW 2795   1.540   2.136   1.987
  920SOL    HW1 2796   1.479   2.061   2.010
  920SOL    HW2 2797   1.562   2.188   2.070
  921SOL     OW 2798   1.303   2.700   1.904
  921SOL    HW1 2799   1.337   2.607   1.919
  921SOL    HW2 2800   1.321   2.727   1.809
  922SOL     OW 2801   1.068   3.195   2.711
  922SOL    HW1 2802   1.075   3.111   2.656
  922SOL    HW2 2803   1.130   3.264   2.675
  923SOL     OW 2804   0.319   2.672   2.811
  923SOL    HW1 2805   0.412   2.708   2.816
  923SOL    HW2 2806   0.313   2.587   2.863
  924SOL     OW 2807   0.339   2.371   2.868
  924SOL    HW1 2808   0.287   2.288   2.851
  924SOL    HW2 2809   0.416   2.376   2.804
  925SOL     OW 2810   1.138   2.242   3.540
  925SOL    HW1 2811   1.093   2.305   3.604
  925SOL    HW2 2812   1.231   2.273   3.523
  926SOL     OW 2813   1.160   2.069   3.339
  926SOL    HW1 2814   1.160   2.133   3.416
  926SOL    HW2 2815   1.188   2.117   3.256
  927SOL     OW 2816   0.008   3.188   2.062
  927SOL    HW1 2817  -0.085   3.209   2.031
  927SOL    HW2 2818   0.018   3.089   2.075
  928SOL     OW 2819   0.088   3.663   2.789
  928SOL    HW1 2820   0.046   3.577   2.762
  928SOL    HW2 2821   0.182   3.666   2.755
  929SOL     OW 2822   0.504   3.430   2.772
  929SOL    HW1 2823   0.570   3.504   2.781
  929SOL    HW2 2824   0.548   3.351   2.730
  930SOL     OW 2825   1.002   2.658   3.100
  930SOL    HW1 2826   1.043   2.626   3.186
  930SOL    HW2 2827   0.906   2.631   3.097
  931SOL     OW 2828   0.040   2.406   2.976
  931SOL    HW1 2829   0.125   2.373   2.935
  931SOL    HW2 2830   0.053   2.421   3.074
  932SOL     OW 2831   0.189   2.382   3.584
  932SOL    HW1 2832   0.248   2.342   3.514
  932SOL    HW2 2833   0.131   2.453   3.543
  933SOL     OW 2834   1.369   2.812   3.522
  933SOL    HW1 2835   1.408   2.901   3.542
  933SOL    HW2 2836   1.379   2.792   3.425
  934SOL     OW 2837   0.815   2.434   2.187
  934SOL    HW1 2838   0.822   2.345   2.141
  934SOL    HW2 2839   0.721   2.468   2.179
  935SOL     OW 2840   1.657   2.466   3.068
  935SOL    HW1 2841   1.619   2.397   3.130
  935SOL    HW2 2842   1.739   2.430   3.024
  936SOL     OW 2843   0.252   3.426   3.606
  936SOL    HW1 2844   0.222   3.483   3.682
  936SOL    HW2 2845   0.245   3.329   3.632
  937SOL     OW 2846   0.671   2.326   3.131
  937SOL    HW1 2847   0.637   2.237   3.101
  937SOL    HW2 2848   0.697   2.380   3.051
  938SOL     OW 2849   0.930   3.540   3.327
  938SOL    HW1 2850   0.906   3.522   3.232
  938SOL    HW2 2851   0.960   3.634   3.337
  939SOL     OW 2852   0.473   2.362   2.053
  939SOL    HW1 2853   0.534   2.442   2.057
  939SOL    HW2 2854   0.378   2.393   2.060
  940SOL     OW 2855   0.159   2.999   3.328
  940SOL    HW1 2856   0.181   2.938   3.404
  940SOL    HW2 2857   0.169   2.950   3.242
  941SOL     OW 2858   1.347   2.921   3.096
  941SOL    HW1 2859   1.371   2.858   3.022
  941SOL    HW2 2860   1.257   2.961   3.078
  942SOL     OW 2861   1.302   2.717   2.171
  942SOL    HW1 2862   1.216   2.686   2.213
  942SOL    HW2 2863   1.298   2.703   2.072
  943SOL     OW 2864   1.759   3.609   3.016
  943SOL    HW1 2865   1.820   3.639   2.943
  943SOL    HW2 2866   1.721   3.520   2.994
  944SOL     OW 2867   1.252   3.593   2.990
  944SOL    HW1 2868   1.336   3.598   2.936
  944SOL    HW2 2869   1.229   3.497   3.008
  945SOL     OW 2870   0.083   3.120   2.884
  945SOL    HW1 2871   0.078   3.119   2.984
  945SOL    HW2 2872   0.000   3.079   2.846
  946SOL     OW 2873   0.688   3.524   3.578
  946SOL    HW1 2874   0.632   3.605   3.587
  946SOL    HW2 2875   0.740   3.528   3.492
  947SOL     OW 2876   1.726   1.997   2.385
  947SOL    HW1 2877   1.799   1.980   2.318
  947SOL    HW2 2878   1.695   1.910   2.423
  948SOL     OW 2879   1.388   3.435   2.339
  948SOL    HW1 2880   1.455   3.447   2.265
  948SOL    HW2 2881   1.348   3.524   2.362
  949SOL     OW 2882   0.130   3.656   3.713
  949SOL    HW1 2883   0.089   3.582   3.766
  949SOL    HW2 2884   0.194   3.707   3.771
  950SOL     OW 2885   1.280   2.789   2.534
  950SOL    HW1 2886   1.340   2.708   2.536
  950SOL    HW2 2887   1.320   2.858   2.474
  951SOL     OW 2888   0.830   3.135   3.284
  951SOL    HW1 2889   0.825   3.168   3.379
  951SOL    HW2 2890   0.744   3.154   3.238
  952SOL     OW 2891   0.672   3.478   2.016
  952SOL    HW1 2892   0.681   3.488   1.917
  952SOL    HW2 2893   0.632   3.389   2.037
  953SOL     OW 2894   1.650   3.582   3.256
  953SOL    HW1 2895   1.703   3.592   3.172
  953SOL    HW2 2896   1.623   3.672   3.290
  954SOL     OW 2897   1.841   2.037   2.825
  954SOL    HW1 2898   1.880   1.952   2.789
  954SOL    HW2 2899   1.743   2.039   2.806
  955SOL     OW 2900   0.263   2.188   2.582
  955SOL    HW1 2901   0.184   2.239   2.548
  955SOL    HW2 2902   0.254   2.173   2.680
  956SOL     OW 2903   1.194   3.474   1.893
  956SOL    HW1 2904   1.200   3.381   1.930
  956SOL    HW2 2905   1.135   3.474   1.813
  957SOL     OW 2906   0.822   2.864   3.234
  957SOL    HW1 2907   0.862   2.863   3.142
  957SOL    HW2 2908   0.832   2.956   3.274
  958SOL     OW 2909   0.916   2.772   2.153
  958SOL    HW1 2910   0.979   2.810   2.085
  958SOL    HW2 2911   0.956   2.689   2.192
  959SOL     OW 2912   1.504   3.469   1.906
  959SOL    HW1 2913   1.412   3.506   1.913
  959SOL    HW2 2914   1.542   3.489   1.816
  960SOL     OW 2915   0.372   3.150   3.352
  960SOL    HW1 2916   0.359   3.243   3.318
  960SOL    HW2 2917   0.288   3.098   3.339
  961SOL     OW 2918   1.614   3.154   3.151
  961SOL    HW1 2919   1.674   3.157   3.231
  961SOL    HW2 2920   1.539   3.218   3.164
  962SOL     OW 2921   1.039   2.960   2.558
  962SOL    HW1 2922   0.969   2.913   2.612
  962SOL    HW2 2923   1.098   2.892   2.515
  963SOL     OW 2924   1.014   2.098   2.833
  963SOL    HW1 2925   1.006   2.062   2.740
  963SOL    HW2 2926   1.012   2.022   2.898
  964SOL     OW 2927   0.590   3.349   2.353
  964SOL    HW1 2928   0.632   3.291   2.283
  964SOL    HW2 2929   0.546   3.428   2.309
  965SOL     OW 2930   1.709   2.247   3.243
  965SOL    HW1 2931   1.782   2.316   3.247
  965SOL    HW2 2932   1.737   2.172   3.184
  966SOL     OW 2933   0.255   3.210   2.152
  966SOL    HW1 2934   0.159   3.211   2.125
  966SOL    HW2 2935   0.267   3.263   2.236
  967SOL     OW 2936   0.105   2.875   3.588
  967SOL    HW1 2937   0.028   2.842   3.642
  967SOL    HW2 2938   0.190   2.845   3.630
  968SOL     OW 2939   0.672   2.065   3.351
  968SOL    HW1 2940   0.762   2.049   3.311
  968SOL    HW2 2941   0.680   2.070   3.450
  969SOL     OW 2942   0.075   2.207   1.895
  969SOL    HW1 2943  -0.017   2.179   1.866
  969SOL    HW2 2944   0.106   2.284   1.839
  970SOL     OW 2945   1.440   2.718   3.260
  970SOL    HW1 2946   1.383   2.770   3.197
  970SOL    HW2 2947   1.536   2.730   3.236
  971SOL     OW 2948   0.072   2.028   2.180
  971SOL    HW1 2949   0.055   2.111   2.126
  971SOL    HW2 2950   0.162   1.991   2.158
  972SOL     OW 2951   1.183   3.197   1.981
  972SOL    HW1 2952   1.084   3.186   1.983
  972SOL    HW2 2953   1.217   3.212   2.074
  973SOL     OW 2954   0.613   2.704   3.293
  973SOL    HW1 2955   0.669   2.785   3.276
  973SOL    HW2 2956   0.672   2.624   3.296
  974SOL     OW 2957   1.493   3.629   2.821
  974SOL    HW1 2958   1.526   3.693   2.752
  974SOL    HW2 2959   1.559   3.623   2.896
  975SOL     OW 2960   0.716   2.427   3.570
  975SOL    HW1 2961   0.735   2.492   3.644
  975SOL    HW2 2962   0.776   2.347   3.579
  976SOL     OW 2963   1.450   3.082   3.495
  976SOL    HW1 2964   1.441   3.072   3.594
  976SOL    HW2 2965   1.546   3.075   3.469
  977SOL     OW 2966   0.390   3.603   3.422
  977SOL    HW1 2967   0.299   3.644   3.420
  977SOL    HW2 2968   0.383   3.509   3.454
  978SOL     OW 2969   1.674   2.745   3.116
  978SOL    HW1 2970   1.647   2.656   3.079
  978SOL    HW2 2971   1.675   2.813   3.043
  979SOL     OW 2972   1.225   2.187   2.311
  979SOL    HW1 2973   1.290   2.113   2.300
  979SOL    HW2 2974   1.245   2.237   2.395
  980SOL     OW 2975   0.594   2.607   2.514
  980SOL    HW1 2976   0.644   2.692   2.495
  980SOL    HW2 2977   0.506   2.609   2.466
  981SOL     OW 2978   1.777   2.204   3.504
  981SOL    HW1 2979   1.760   2.235   3.410
  981SOL    HW2 2980   1.693   2.167   3.542
  982SOL     OW 2981   1.730   2.796   3.379
  982SOL    HW1 2982   1.768   2.887   3.394
  982SOL    HW2 2983   1.722   2.779   3.280
  983SOL     OW 2984   0.859   3.236   1.878
  983SOL    HW1 2985   0.813   3.251   1.966
  983SOL    HW2 2986   0.903   3.321   1.848
  984SOL     OW 2987   0.661   3.652   2.815
  984SOL    HW1 2988   0.615   3.740   2.802
  984SOL    HW2 2989   0.760   3.664   2.808
  985SOL     OW 2990   0.859   2.818   2.723
  985SOL    HW1 2991   0.913   2.749   2.771
  985SOL    HW2 2992   0.827   2.887   2.789
  986SOL     OW 2993   1.083   2.846   1.949
  986SOL    HW1 2994   1.060   2.899   1.867
  986SOL    HW2 2995   1.164   2.790   1.930
  987SOL     OW 2996   1.861   3.431   2.713
  987SOL    HW1 2997   1.790   3.419   2.643
  987SOL    HW2 2998   1.862   3.352   2.773
  988SOL     OW 2999   0.221   3.176   3.706
  988SOL    HW1 3000   0.156   3.103   3.685
  988SOL    HW2 3001   0.225   3.190   3.804
  989SOL     OW 3002   0.079   3.102   2.515
  989SOL    HW1 3003   0.078   3.055   2.603
  989SOL    HW2 3004   0.161   3.074   2.464
  990SOL     OW 3005   0.672   3.253   3.486
  990SOL    HW1 3006   0.594   3.203   3.524
  990SOL    HW2 3007   0.669   3.348   3.517
  991SOL     OW 3008   1.824   2.054   3.089
  991SOL    HW1 3009   1.820   1.964   3.133
  991SOL    HW2 3010   1.827   2.043   2.990
  992SOL     OW 3011   0.428   2.286   2.382
  992SOL    HW1 3012   0.458   2.214   2.320
  992SOL    HW2 3013   0.389   2.246   2.465
  993SOL     OW 3014   1.705   3.349   2.966
  993SOL    HW1 3015   1.612   3.324   2.939
  993SOL    HW2 3016   1.731   3.299   3.048
  994SOL     OW 3017   0.317   2.409   3.142
  994SOL    HW1 3018   0.355   2.350   3.214
  994SOL    HW2 3019   0.357   2.383   3.054
  995SOL     OW 3020   0.812   3.448   2.549
  995SOL    HW1 3021   0.844   3.458   2.455
  995SOL    HW2 3022   0.733   3.386   2.551
  996SOL     OW 3023   1.424   2.076   2.974
  996SOL    HW1 3024   1.476   2.011   3.029
  996SOL    HW2 3025   1.375   2.139   3.035
  997SOL     OW 3026   1.001   1.896   3.016
  997SOL    HW1 3027   0.938   1.824   2.985
  997SOL    HW2 3028   1.094   1.860   3.016
  998SOL     OW 3029   0.770   3.192   2.163
  998SOL    HW1 3030   0.724   3.105   2.180
  998SOL    HW2 3031   0.861   3.189   2.204
  999SOL     OW 3032   0.618   3.429   3.146
  999SOL    HW1 3033   0.613   3.511   3.203
  999SOL    HW2 3034   0.707   3.426   3.101
 1000SOL     OW 3035   1.352   1.914   2.030
 1000SOL    HW1 3036   1.387   1.873   1.946
 1000SOL    HW2 3037   1.262   1.876   2.050
 1001SOL     OW 3038   1.300   2.315   2.553
 1001SOL    HW1 3039   1.241   2.395   2.557
 1001SOL    HW2 3040   1.315   2.280   2.646
 1002SOL     OW 3041   1.593   2.083   2.744
 1002SOL    HW1 3042   1.509   2.082   2.798
 1002SOL    HW2 3043   1.595   2.166   2.688
 1003SOL     OW 3044   0.039   2.939   2.162
 1003SOL    HW1 3045   0.138   2.928   2.153
 1003SOL    HW2 3046  -0.001   2.853   2.194
 1004SOL     OW 3047   0.875   3.508   2.199
 1004SOL    HW1 3048   0.798   3.473   2.145
 1004SOL    HW2 3049   0.843   3.579   2.261
 1005SOL     OW 3050   0.230   2.490   3.837
 1005SOL    HW1 3051   0.137   2.488   3.874
 1005SOL    HW2 3052   0.231   2.451   3.745
 1006SOL     OW 3053   0.225   2.137   4.720
 1006SOL    HW1 3054   0.260   2.120   4.812
 1006SOL    HW2 3055   0.137   2.092   4.708
 1007SOL     OW 3056   0.019   2.230   4.371
 1007SOL    HW1 3057  -0.063   2.273   4.410
 1007SOL    HW2 3058  -0.009   2.157   4.308
 1008SOL     OW 3059   0.569   3.137   4.889
 1008SOL    HW1 3060   0.476   3.130   4.852
 1008SOL    HW2 3061   0.580   3.226   4.933
 1009SOL     OW 3062   1.555   3.373   4.427
 1009SOL    HW1 3063   1.498   3.357   4.508
 1009SOL    HW2 3064   1.496   3.383   4.347
 1010SOL     OW 3065   1.135   2.565   4.441
 1010SOL    HW1 3066   1.192   2.643   4.416
 1010SOL    HW2 3067   1.075   2.591   4.517
 1011SOL     OW 3068   1.755   2.469   3.955
 1011SOL    HW1 3069   1.743   2.456   3.856
 1011SOL    HW2 3070   1.725   2.388   4.004
 1012SOL     OW 3071   0.768   3.006   4.747
 1012SOL    HW1 3072   0.690   3.023   4.807
 1012SOL    HW2 3073   0.802   3.093   4.711
 1013SOL     OW 3074   0.685   2.874   4.389
 1013SOL    HW1 3075   0.754   2.858   4.459
 1013SOL    HW2 3076   0.612   2.931   4.427
 1014SOL     OW 3077   0.335   3.297   4.785
 1014SOL    HW1 3078   0.257   3.266   4.732
 1014SOL    HW2 3079   0.393   3.355   4.728
 1015SOL     OW 3080   1.603   2.309   4.461
 1015SOL    HW1 3081   1.529   2.355   4.411
 1015SOL    HW2 3082   1.654   2.377   4.514
 1016SOL     OW 3083   0.231   3.575   4.207
 1016SOL    HW1 3084   0.265   3.652   4.261
 1016SOL    HW2 3085   0.275   3.575   4.117
 1017SOL     OW 3086   0.230   3.296   4.262
 1017SOL    HW1 3087   0.204   3.392   4.262
 1017SOL    HW2 3088   0.159   3.242   4.307
 1018SOL     OW 3089   0.240   2.953   4.610
 1018SOL    HW1 3090   0.254   2.869   4.662
 1018SOL    HW2 3091   0.185   3.017   4.665
 1019SOL     OW 3092   0.620   3.648   5.163
 1019SOL    HW1 3093   0.528   3.631   5.198
 1019SOL    HW2 3094   0.648   3.740   5.189
 1020SOL     OW 3095   0.606   2.826   3.847
 1020SOL    HW1 3096   0.613   2.910   3.793
 1020SOL    HW2 3097   0.652   2.839   3.935
 1021SOL     OW 3098   0.122   2.505   4.287
 1021SOL    HW1 3099   0.077   2.417   4.304
 1021SOL    HW2 3100   0.121   2.559   4.371
 1022SOL     OW 3101   1.842   3.629   4.083
 1022SOL    HW1 3102   1.896   3.600   4.163
 1022SOL    HW2 3103   1.872   3.719   4.054
 1023SOL     OW 3104   0.027   3.458   3.841
 1023SOL    HW1 3105   0.008   3.362   3.862
 1023SOL    HW2 3106  -0.006   3.516   3.916
 1024SOL     OW 3107   1.689   2.784   4.336
 1024SOL    HW1 3108   1.784   2.755   4.344
 1024SOL    HW2 3109   1.681   2.849   4.261
 1025SOL     OW 3110   1.641   2.970   4.156
 1025SOL    HW1 3111   1.727   2.972   4.104
 1025SOL    HW2 3112   1.655   3.017   4.244
 1026SOL     OW 3113   0.613   3.227   4.450
 1026SOL    HW1 3114   0.564   3.140   4.459
 1026SOL    HW2 3115   0.590   3.270   4.363
 1027SOL     OW 3116   0.809   1.866   4.226
 1027SOL    HW1 3117   0.849   1.957   4.217
 1027SOL    HW2 3118   0.709   1.874   4.232
 1028SOL     OW 3119   0.197   2.838   4.988
 1028SOL    HW1 3120   0.286   2.793   4.974
 1028SOL    HW2 3121   0.124   2.773   4.969
 1029SOL     OW 3122   1.525   2.861   3.914
 1029SOL    HW1 3123   1.462   2.785   3.927
 1029SOL    HW2 3124   1.573   2.879   4.000
 1030SOL     OW 3125   1.466   3.279   4.677
 1030SOL    HW1 3126   1.407   3.285   4.757
 1030SOL    HW2 3127   1.451   3.191   4.631
 1031SOL     OW 3128   1.667   3.576   4.296
 1031SOL    HW1 3129   1.626   3.553   4.208
 1031SOL    HW2 3130   1.649   3.502   4.361
 1032SOL     OW 3131   0.598   2.591   3.994
 1032SOL    HW1 3132   0.622   2.660   3.926
 1032SOL    HW2 3133   0.520   2.624   4.048
 1033SOL     OW 3134   1.281   2.207   4.668
 1033SOL    HW1 3135   1.195   2.157   4.655
 1033SOL    HW2 3136   1.343   2.153   4.724
 1034SOL     OW 3137   1.576   3.524   4.031
 1034SOL    HW1 3138   1.665   3.570   4.034
 1034SOL    HW2 3139   1.555   3.500   3.936
 1035SOL     OW 3140   0.991   2.272   4.966
 1035SOL    HW1 3141   0.914   2.306   5.020
 1035SOL    HW2 3142   0.957   2.221   4.887
 1036SOL     OW 3143   1.041   2.563   4.153
 1036SOL    HW1 3144   1.067   2.559   4.249
 1036SOL    HW2 3145   0.956   2.512   4.139
 1037SOL     OW 3146   0.076   2.673   4.513
 1037SOL    HW1 3147   0.175   2.661   4.522
 1037SOL    HW2 3148   0.052   2.768   4.534
 1038SOL     OW 3149   0.130   3.683   5.295
 1038SOL    HW1 3150   0.120   3.668   5.394
 1038SOL    HW2 3151   0.044   3.719   5.259
 1039SOL     OW 3152   0.865   2.210   3.919
 1039SOL    HW1 3153   0.924   2.273   3.870
 1039SOL    HW2 3154   0.884   2.116   3.890
 1040SOL     OW 3155   1.362   3.006   4.269
 1040SOL    HW1 3156   1.445   2.977   4.221
 1040SOL    HW2 3157   1.313   3.073   4.213
 1041SOL     OW 3158   0.550   2.058   4.609
 1041SOL    HW1 3159   0.545   2.053   4.709
 1041SOL    HW2 3160   0.552   2.154   4.580
 1042SOL     OW 3161   1.008   3.318   4.201
 1042SOL    HW1 3162   0.962   3.390   4.149
 1042SOL    HW2 3163   1.004   3.338   4.299
 1043SOL     OW 3164   0.351   3.663   4.577
 1043SOL    HW1 3165   0.401   3.577   4.583
 1043SOL    HW2 3166   0.416   3.740   4.574
 1044SOL     OW 3167   1.795   2.928   4.597
 1044SOL    HW1 3168   1.733   2.913   4.521
 1044SOL    HW2 3169   1.743   2.939   4.682
 1045SOL     OW 3170   0.321   2.805   3.966
 1045SOL    HW1 3171   0.403   2.844   3.924
 1045SOL    HW2 3172   0.294   2.723   3.917
 1046SOL     OW 3173   1.458   2.597   4.452
 1046SOL    HW1 3174   1.453   2.532   4.527
 1046SOL    HW2 3175   1.538   2.656   4.465
 1047SOL     OW 3176   1.111   3.638   3.961
 1047SOL    HW1 3177   1.051   3.576   4.011
 1047SOL    HW2 3178   1.142   3.594   3.876
 1048SOL     OW 3179   1.632   3.239   3.805
 1048SOL    HW1 3180   1.600   3.333   3.795
 1048SOL    HW2 3181   1.556   3.176   3.793
 1049SOL     OW 3182   0.464   3.605   4.047
 1049SOL    HW1 3183   0.497   3.644   4.133
 1049SOL    HW2 3184   0.540   3.598   3.982
 1050SOL     OW 3185   1.400   1.969   4.150
 1050SOL    HW1 3186   1.376   1.932   4.060
 1050SOL    HW2 3187   1.499   1.985   4.154
 1051SOL     OW 3188   0.249   3.647   4.965
 1051SOL    HW1 3189   0.306   3.582   5.015
 1051SOL    HW2 3190   0.233   3.614   4.872
 1052SOL     OW 3191   0.940   3.560   4.628
 1052SOL    HW1 3192   1.020   3.503   4.649
 1052SOL    HW2 3193   0.891   3.520   4.551
 1053SOL     OW 3194   0.382   2.562   4.204
 1053SOL    HW1 3195   0.427   2.472   4.201
 1053SOL    HW2 3196   0.288   2.551   4.237
 1054SOL     OW 3197   0.614   1.984   3.841
 1054SOL    HW1 3198   0.712   1.962   3.848
 1054SOL    HW2 3199   0.583   1.967   3.748
 1055SOL     OW 3200   0.803   3.264   4.648
 1055SOL    HW1 3201   0.893   3.278   4.606
 1055SOL    HW2 3202   0.732   3.266   4.577
 1056SOL     OW 3203   0.922   2.365   4.623
 1056SOL    HW1 3204   0.897   2.356   4.527
 1056SOL    HW2 3205   0.970   2.283   4.654
 1057SOL     OW 3206   0.539   1.926   4.236
 1057SOL    HW1 3207   0.458   1.927   4.294
 1057SOL    HW2 3208   0.542   2.009   4.181
 1058SOL     OW 3209   1.434   3.050   3.765
 1058SOL    HW1 3210   1.466   2.974   3.822
 1058SOL    HW2 3211   1.342   3.077   3.795
 1059SOL     OW 3212   0.297   1.897   3.895
 1059SOL    HW1 3213   0.346   1.981   3.874
 1059SOL    HW2 3214   0.359   1.832   3.940
 1060SOL     OW 3215   0.935   2.098   4.204
 1060SOL    HW1 3216   0.887   2.139   4.126
 1060SOL    HW2 3217   1.034   2.096   4.185
 1061SOL     OW 3218   1.227   3.432   4.517
 1061SOL    HW1 3219   1.248   3.506   4.452
 1061SOL    HW2 3220   1.295   3.432   4.590
 1062SOL     OW 3221   0.459   3.014   4.465
 1062SOL    HW1 3222   0.388   2.987   4.530
 1062SOL    HW2 3223   0.433   2.986   4.372
 1063SOL     OW 3224   1.271   3.659   4.315
 1063SOL    HW1 3225   1.315   3.723   4.251
 1063SOL    HW2 3226   1.221   3.711   4.385
 1064SOL     OW 3227   1.032   2.411   3.740
 1064SOL    HW1 3228   0.991   2.493   3.701
 1064SOL    HW2 3229   1.096   2.437   3.813
 1065SOL     OW 3230   0.561   2.084   4.871
 1065SOL    HW1 3231   0.599   2.000   4.908
 1065SOL    HW2 3232   0.473   2.103   4.915
 1066SOL     OW 3233   0.866   2.316   4.366
 1066SOL    HW1 3234   0.834   2.388   4.304
 1066SOL    HW2 3235   0.890   2.235   4.313
 1067SOL     OW 3236   1.017   1.901   4.477
 1067SOL    HW1 3237   0.945   1.906   4.408
 1067SOL    HW2 3238   0.993   1.832   4.546
 1068SOL     OW 3239   1.429   3.035   4.591
 1068SOL    HW1 3240   1.374   2.951   4.584
 1068SOL    HW2 3241   1.455   3.064   4.499
 1069SOL     OW 3242   1.466   2.452   4.716
 1069SOL    HW1 3243   1.436   2.357   4.723
 1069SOL    HW2 3244   1.539   2.468   4.782
 1070SOL     OW 3245   1.857   2.695   4.101
 1070SOL    HW1 3246   1.899   2.631   4.165
 1070SOL    HW2 3247   1.819   2.644   4.023
 1071SOL     OW 3248   0.488   3.247   3.898
 1071SOL    HW1 3249   0.401   3.232   3.945
 1071SOL    HW2 3250   0.471   3.273   3.803
 1072SOL     OW 3251   1.664   3.142   4.381
 1072SOL    HW1 3252   1.763   3.150   4.395
 1072SOL    HW2 3253   1.619   3.226   4.412
 1073SOL     OW 3254   1.390   2.437   3.802
 1073SOL    HW1 3255   1.336   2.416   3.883
 1073SOL    HW2 3256   1.481   2.396   3.811
 1074SOL     OW 3257   0.527   2.118   4.052
 1074SOL    HW1 3258   0.554   2.059   3.977
 1074SOL    HW2 3259   0.527   2.213   4.021
 1075SOL     OW 3260   1.111   3.057   4.824
 1075SOL    HW1 3261   1.071   3.101   4.905
 1075SOL    HW2 3262   1.070   3.094   4.741
 1076SOL     OW 3263   1.638   2.961   4.803
 1076SOL    HW1 3264   1.643   3.042   4.862
 1076SOL    HW2 3265   1.552   2.963   4.752
 1077SOL     OW 3266   0.705   2.912   4.092
 1077SOL    HW1 3267   0.691   2.919   4.191
 1077SOL    HW2 3268   0.789   2.861   4.074
 1078SOL     OW 3269   0.410   2.675   4.975
 1078SOL    HW1 3270   0.496   2.687   5.025
 1078SOL    HW2 3271   0.368   2.588   5.002
 1079SOL     OW 3272   1.274   2.248   4.986
 1079SOL    HW1 3273   1.295   2.322   5.050
 1079SOL    HW2 3274   1.185   2.265   4.943
 1080SOL     OW 3275   0.367   2.962   4.225
 1080SOL    HW1 3276   0.360   3.045   4.169
 1080SOL    HW2 3277   0.371   2.882   4.165
 1081SOL     OW 3278   0.566   2.399   4.589
 1081SOL    HW1 3279   0.578   2.465   4.515
 1081SOL    HW2 3280   0.612   2.433   4.672
 1082SOL     OW 3281   1.252   3.210   4.112
 1082SOL    HW1 3282   1.302   3.287   4.152
 1082SOL    HW2 3283   1.157   3.212   4.144
 1083SOL     OW 3284   1.272   3.307   4.866
 1083SOL    HW1 3285   1.319   3.320   4.953
 1083SOL    HW2 3286   1.206   3.233   4.875
 1084SOL     OW 3287   1.582   2.501   4.196
 1084SOL    HW1 3288   1.551   2.562   4.269
 1084SOL    HW2 3289   1.632   2.553   4.127
 1085SOL     OW 3290   0.354   3.372   5.053
 1085SOL    HW1 3291   0.333   3.328   4.966
 1085SOL    HW2 3292   0.451   3.398   5.056
 1086SOL     OW 3293   0.573   2.732   4.753
 1086SOL    HW1 3294   0.617   2.821   4.744
 1086SOL    HW2 3295   0.510   2.732   4.830
 1087SOL     OW 3296   1.360   2.724   4.769
 1087SOL    HW1 3297   1.285   2.724   4.703
 1087SOL    HW2 3298   1.397   2.632   4.778
 1088SOL     OW 3299   1.209   2.387   3.999
 1088SOL    HW1 3300   1.222   2.303   4.053
 1088SOL    HW2 3301   1.180   2.461   4.059
 1089SOL     OW 3302   0.307   2.075   4.955
 1089SOL    HW1 3303   0.284   2.112   5.045
 1089SOL    HW2 3304   0.277   1.980   4.949
 1090SOL     OW 3305   0.037   3.172   5.006
 1090SOL    HW1 3306   0.090   3.123   5.074
 1090SOL    HW2 3307   0.059   3.270   5.011
 1091SOL     OW 3308   0.732   2.496   4.788
 1091SOL    HW1 3309   0.791   2.470   4.712
 1091SOL    HW2 3310   0.704   2.592   4.777
 1092SOL     OW 3311   0.307   1.925   4.342
 1092SOL    HW1 3312   0.296   2.019   4.375
 1092SOL    HW2 3313   0.302   1.862   4.419
 1093SOL     OW 3314   1.622   2.229   4.098
 1093SOL    HW1 3315   1.624   2.153   4.162
 1093SOL    HW2 3316   1.574   2.306   4.138
 1094SOL     OW 3317   1.023   2.628   4.690
 1094SOL    HW1 3318   1.038   2.649   4.786
 1094SOL    HW2 3319   0.993   2.533   4.681
 1095SOL     OW 3320   1.540   2.136   3.849
 1095SOL    HW1 3321   1.479   2.061   3.872
 1095SOL    HW2 3322   1.562   2.188   3.932
 1096SOL     OW 3323   1.303   2.700   3.766
 1096SOL    HW1 3324   1.337   2.607   3.781
 1096SOL    HW2 3325   1.321   2.727   3.671
 1097SOL     OW 3326   1.068   3.195   4.573
 1097SOL    HW1 3327   1.075   3.111   4.518
 1097SOL    HW2 3328   1.130   3.264   4.537
 1098SOL     OW 3329   0.319   2.672   4.673
 1098SOL    HW1 3330   0.412   2.708   4.678
 1098SOL    HW2 3331   0.313   2.587   4.725
 1099SOL     OW 3332   0.339   2.371   4.730
 1099SOL    HW1 3333   0.287   2.288   4.713
 1099SOL    HW2 3334   0.416   2.376   4.666
 1100SOL     OW 3335   1.160   2.069   5.201
 1100SOL    HW1 3336   1.160   2.133   5.278
 1100SOL    HW2 3337   1.188   2.117   5.118
 1101SOL     OW 3338   0.008   3.188   3.924
 1101SOL    HW1 3339  -0.085   3.209   3.893
 1101SOL    HW2 3340   0.018   3.089   3.937
 1102SOL     OW 3341   0.088   3.663   4.651
 1102SOL    HW1 3342   0.046   3.577   4.624
 1102SOL    HW2 3343   0.182   3.666   4.617
 1103SOL     OW 3344   0.504   3.430   4.634
 1103SOL    HW1 3345   0.570   3.504   4.643
 1103SOL    HW2 3346   0.548   3.351   4.592
 1104SOL     OW 3347   1.002   2.658   4.962
 1104SOL    HW1 3348   1.043   2.626   5.048
 1104SOL    HW2 3349   0.906   2.631   4.959
 1105SOL     OW 3350   0.040   2.406   4.838
 1105SOL    HW1 3351   0.125   2.373   4.797
 1105SOL    HW2 3352   0.053   2.421   4.936
 1106SOL     OW 3353   0.815   2.434   4.049
 1106SOL    HW1 3354   0.822   2.345   4.003
 1106SOL    HW2 3355   0.721   2.468   4.041
 1107SOL     OW 3356   1.657   2.466   4.930
 1107SOL    HW1 3357   1.619   2.397   4.992
 1107SOL    HW2 3358   1.739   2.430   4.886
 1108SOL     OW 3359   0.671   2.326   4.993
 1108SOL    HW1 3360   0.637   2.237   4.963
 1108SOL    HW2 3361   0.697   2.380   4.913
 1109SOL     OW 3362   0.930   3.540   5.189
 1109SOL    HW1 3363   0.906   3.522   5.094
 1109SOL    HW2 3364   0.960   3.634   5.199
 1110SOL     OW 3365   0.473   2.362   3.915
 1110SOL    HW1 3366   0.534   2.442   3.919
 1110SOL    HW2 3367   0.378   2.393   3.922
 1111SOL     OW 3368   1.347   2.921   4.958
 1111SOL    HW1 3369   1.371   2.858   4.884
 1111SOL    HW2 3370   1.257   2.961   4.940
 1112SOL     OW 3371   1.302   2.717   4.033
 1112SOL    HW1 3372   1.216   2.686   4.075
 1112SOL    HW2 3373   1.298   2.703   3.934
 1113SOL     OW 3374   1.759   3.609   4.878
 1113SOL    HW1 3375   1.820   3.639   4.805
 1113SOL    HW2 3376   1.721   3.520   4.856
 1114SOL     OW 3377   1.252   3.593   4.852
 1114SOL    HW1 3378   1.336   3.598   4.798
 1114SOL    HW2 3379   1.229   3.497   4.870
 1115SOL     OW 3380   0.083   3.120   4.746
 1115SOL    HW1 3381   0.078   3.119   4.846
 1115SOL    HW2 3382   0.000   3.079   4.708
 1116SOL     OW 3383   1.726   1.997   4.247
 1116SOL    HW1 3384   1.799   1.980   4.180
 1116SOL    HW2 3385   1.695   1.910   4.285
 1117SOL     OW 3386   1.388   3.435   4.201
 1117SOL    HW1 3387   1.455   3.447   4.127
 1117SOL    HW2 3388   1.348   3.524   4.224
 1118SOL     OW 3389   1.280   2.789   4.396
 1118SOL    HW1 3390   1.340   2.708   4.398
 1118SOL    HW2 3391   1.320   2.858   4.336
 1119SOL     OW 3392   0.672   3.478   3.878
 1119SOL    HW1 3393   0.681   3.488   3.779
 1119SOL    HW2 3394   0.632   3.389   3.899
 1120SOL     OW 3395   1.650   3.582   5.118
 1120SOL    HW1 3396   1.703   3.592   5.034
 1120SOL    HW2 3397   1.623   3.672   5.152
 1121SOL     OW 3398   1.841   2.037   4.687
 1121SOL    HW1 3399   1.880   1.952   4.651
 1121SOL    HW2 3400   1.743   2.039   4.668
 1122SOL     OW 3401   0.263   2.188   4.444
 1122SOL    HW1 3402   0.184   2.239   4.410
 1122SOL    HW2 3403   0.254   2.173   4.542
 1123SOL     OW 3404   1.194   3.474   3.755
 1123SOL    HW1 3405   1.200   3.381   3.792
 1123SOL    HW2 3406   1.135   3.474   3.675
 1124SOL     OW 3407   0.822   2.864   5.096
 1124SOL    HW1 3408   0.862   2.863   5.004
 1124SOL    HW2 3409   0.832   2.956   5.136
 1125SOL     OW 3410   0.916   2.772   4.015
 1125SOL    HW1 3411   0.979   2.810   3.947
 1125SOL    HW2 3412   0.956   2.689   4.054
 1126SOL     OW 3413   1.504   3.469   3.768
 1126SOL    HW1 3414   1.412   3.506   3.775
 1126SOL    HW2 3415   1.542   3.489   3.678
 1127SOL     OW 3416   1.039   2.960   4.420
 1127SOL    HW1 3417   0.969   2.913   4.474
 1127SOL    HW2 3418   1.098   2.892   4.377
 1128SOL     OW 3419   1.014   2.098   4.695
 1128SOL    HW1 3420   1.006   2.062   4.602
 1128SOL    HW2 3421   1.012   2.022   4.760
 1129SOL     OW 3422   0.590   3.349   4.215
 1129SOL    HW1 3423   0.632   3.291   4.145
 1129SOL    HW2 3424   0.546   3.428   4.171
 1130SOL     OW 3425   1.709   2.247   5.105
 1130SOL    HW1 3426   1.782   2.316   5.109
 1130SOL    HW2 3427   1.737   2.172   5.046
 1131SOL     OW 3428   0.255   3.210   4.014
 1131SOL    HW1 3429   0.159   3.211   3.987
 1131SOL    HW2 3430   0.267   3.263   4.098
 1132SOL     OW 3431   0.075   2.207   3.757
 1132SOL    HW1 3432  -0.017   2.179   3.728
 1132SOL    HW2 3433   0.106   2.284   3.701
 1133SOL     OW 3434   0.072   2.028   4.042
 1133SOL    HW1 3435   0.055   2.111   3.988
 1133SOL    HW2 3436   0.162   1.991   4.020
 1134SOL     OW 3437   1.183   3.197   3.843
 1134SOL    HW1 3438   1.084   3.186   3.845
 1134SOL    HW2 3439   1.217   3.212   3.936
 1135SOL     OW 3440   1.493   3.629   4.683
 1135SOL    HW1 3441   1.526   3.693   4.614
 1135SOL    HW2 3442   1.559   3.623   4.758
 1136SOL     OW 3443   1.450   3.082   5.357
 1136SOL    HW1 3444   1.441   3.072   5.456
 1136SOL    HW2 3445   1.546   3.075   5.331
 1137SOL     OW 3446   1.674   2.745   4.978
 1137SOL    HW1 3447   1.647   2.656   4.941
 1137SOL    HW2 3448   1.675   2.813   4.905
 1138SOL     OW 3449   1.225   2.187   4.173
 1138SOL    HW1 3450   1.290   2.113   4.162
 1138SOL    HW2 3451   1.245   2.237   4.257
 1139SOL     OW 3452   0.594   2.607   4.376
 1139SOL    HW1 3453   0.644   2.692   4.357
 1139SOL    HW2 3454   0.506   2.609   4.328
 1140SOL     OW 3455   1.730   2.796   5.241
 1140SOL    HW1 3456   1.768   2.887   5.256
 1140SOL    HW2 3457   1.722   2.779   5.142
 1141SOL     OW 3458   0.859   3.236   3.740
 1141SOL    HW1 3459   0.813   3.251   3.828
 1141SOL    HW2 3460   0.903   3.321   3.710
 1142SOL     OW 3461   0.661   3.652   4.677
 1142SOL    HW1 3462   0.615   3.740   4.664
 1142SOL    HW2 3463   0.760   3.664   4.670
 1143SOL     OW 3464   0.859   2.818   4.585
 1143SOL    HW1 3465   0.913   2.749   4.633
 1143SOL    HW2 3466   0.827   2.887   4.651
 1144SOL     OW 3467   1.083   2.846   3.811
 1144SOL    HW1 3468   1.060   2.899   3.729
 1144SOL    HW2 3469   1.164   2.790   3.792
 1145SOL     OW 3470   1.861   3.431   4.575
 1145SOL    HW1 3471   1.790   3.419   4.505
 1145SOL    HW2 3472   1.862   3.352   4.635
 1146SOL     OW 3473   0.079   3.102   4.377
 1146SOL    HW1 3474   0.078   3.055   4.465
 1146SOL    HW2 3475   0.161   3.074   4.326
 1147SOL     OW 3476   1.824   2.054   4.951
 1147SOL    HW1 3477   1.820   1.964   4.995
 1147SOL    HW2 3478   1.827   2.043   4.852
 1148SOL     OW 3479   0.428   2.286   4.244
 1148SOL    HW1 3480   0.458   2.214   4.182
 1148SOL    HW2 3481   0.389   2.246   4.327
 1149SOL     OW 3482   1.705   3.349   4.828
 1149SOL    HW1 3483   1.612   3.324   4.801
 1149SOL    HW2 3484   1.731   3.299   4.910
 1150SOL     OW 3485   0.812   3.448   4.411
 1150SOL    HW1 3486   0.844   3.458   4.317
 1150SOL    HW2 3487   0.733   3.386   4.413
 1151SOL     OW 3488   1.424   2.076   4.836
 1151SOL    HW1 3489   1.476   2.011   4.891
 1151SOL    HW2 3490   1.375   2.139   4.897
 1152SOL     OW 3491   1.001   1.896   4.878
 1152SOL    HW1 3492   0.938   1.824   4.847
 1152SOL    HW2 3493   1.094   1.860   4.878
 1153SOL     OW 3494   0.770   3.192   4.025
 1153SOL    HW1 3495   0.724   3.105   4.042
 1153SOL    HW2 3496   0.861   3.189   4.066
 1154SOL     OW 3497   1.352   1.914   3.892
 1154SOL    HW1 3498   1.387   1.873   3.808
 1154SOL    HW2 3499   1.262   1.876   3.912
 1155SOL     OW 3500   1.300   2.315   4.415
 1155SOL    HW1 3501   1.241   2.395   4.419
 1155SOL    HW2 3502   1.315   2.280   4.508
 1156SOL     OW 3503   1.593   2.083   4.606
 1156SOL    HW1 3504   1.509   2.082   4.660
 1156SOL    HW2 3505   1.595   2.166   4.550
 1157SOL     OW 3506   0.039   2.939   4.024
 1157SOL    HW1 3507   0.138   2.928   4.015
 1157SOL    HW2 3508  -0.001   2.853   4.056
 1158SOL     OW 3509   0.875   3.508   4.061
 1158SOL    HW1 3510   0.798   3.473   4.007
 1158SOL    HW2 3511   0.843   3.579   4.123
 1159SOL     OW 3512   0.230   4.352   0.113
 1159SOL    HW1 3513   0.137   4.350   0.150
 1159SOL    HW2 3514   0.231   4.313   0.021
 1160SOL     OW 3515   0.225   3.999   0.996
 1160SOL    HW1 3516   0.260   3.982   1.088
 1160SOL    HW2 3517   0.137   3.954   0.984
 1161SOL     OW 3518   0.019   4.092   0.647
 1161SOL    HW1 3519  -0.063   4.135   0.686
 1161SOL    HW2 3520  -0.009   4.019   0.584
 1162SOL     OW 3521   1.555   5.235   0.703
 1162SOL    HW1 3522   1.498   5.219   0.784
 1162SOL    HW2 3523   1.496   5.245   0.623
 1163SOL     OW 3524   1.135   4.427   0.717
 1163SOL    HW1 3525   1.192   4.505   0.692
 1163SOL    HW2 3526   1.075   4.453   0.793
 1164SOL     OW 3527   1.755   4.331   0.231
 1164SOL    HW1 3528   1.743   4.318   0.132
 1164SOL    HW2 3529   1.725   4.250   0.280
 1165SOL     OW 3530   0.768   4.868   1.023
 1165SOL    HW1 3531   0.690   4.885   1.083
 1165SOL    HW2 3532   0.802   4.955   0.987
 1166SOL     OW 3533   0.850   4.522   1.823
 1166SOL    HW1 3534   0.846   4.598   1.888
 1166SOL    HW2 3535   0.872   4.558   1.732
 1167SOL     OW 3536   0.685   4.736   0.665
 1167SOL    HW1 3537   0.754   4.720   0.735
 1167SOL    HW2 3538   0.612   4.793   0.703
 1168SOL     OW 3539   0.686   4.885   1.803
 1168SOL    HW1 3540   0.746   4.964   1.817
 1168SOL    HW2 3541   0.600   4.916   1.762
 1169SOL     OW 3542   0.335   5.159   1.061
 1169SOL    HW1 3543   0.257   5.128   1.008
 1169SOL    HW2 3544   0.393   5.217   1.004
 1170SOL     OW 3545   0.438   4.116   1.499
 1170SOL    HW1 3546   0.520   4.060   1.508
 1170SOL    HW2 3547   0.357   4.058   1.503
 1171SOL     OW 3548   1.603   4.171   0.737
 1171SOL    HW1 3549   1.529   4.217   0.687
 1171SOL    HW2 3550   1.654   4.239   0.790
 1172SOL     OW 3551   0.240   4.815   0.886
 1172SOL    HW1 3552   0.254   4.731   0.938
 1172SOL    HW2 3553   0.185   4.879   0.941
 1173SOL     OW 3554   0.606   4.688   0.123
 1173SOL    HW1 3555   0.613   4.772   0.069
 1173SOL    HW2 3556   0.652   4.701   0.211
 1174SOL     OW 3557   1.594   3.838   1.480
 1174SOL    HW1 3558   1.576   3.905   1.408
 1174SOL    HW2 3559   1.591   3.884   1.569
 1175SOL     OW 3560   0.122   4.367   0.563
 1175SOL    HW1 3561   0.077   4.279   0.580
 1175SOL    HW2 3562   0.121   4.421   0.647
 1176SOL     OW 3563   1.689   4.646   0.612
 1176SOL    HW1 3564   1.784   4.617   0.620
 1176SOL    HW2 3565   1.681   4.711   0.537
 1177SOL     OW 3566   1.641   4.832   0.432
 1177SOL    HW1 3567   1.727   4.834   0.380
 1177SOL    HW2 3568   1.655   4.879   0.520
 1178SOL     OW 3569   0.113   4.461   1.597
 1178SOL    HW1 3570   0.201   4.448   1.642
 1178SOL    HW2 3571   0.100   4.558   1.575
 1179SOL     OW 3572   1.293   4.952   1.423
 1179SOL    HW1 3573   1.330   4.879   1.365
 1179SOL    HW2 3574   1.345   4.957   1.508
 1180SOL     OW 3575   0.809   3.728   0.502
 1180SOL    HW1 3576   0.849   3.819   0.493
 1180SOL    HW2 3577   0.709   3.736   0.508
 1181SOL     OW 3578   0.197   4.700   1.264
 1181SOL    HW1 3579   0.286   4.655   1.250
 1181SOL    HW2 3580   0.124   4.635   1.245
 1182SOL     OW 3581   1.525   4.723   0.190
 1182SOL    HW1 3582   1.462   4.647   0.203
 1182SOL    HW2 3583   1.573   4.741   0.276
 1183SOL     OW 3584   0.317   3.975   1.801
 1183SOL    HW1 3585   0.388   4.046   1.807
 1183SOL    HW2 3586   0.229   4.014   1.829
 1184SOL     OW 3587   1.466   5.141   0.953
 1184SOL    HW1 3588   1.407   5.147   1.033
 1184SOL    HW2 3589   1.451   5.053   0.907
 1185SOL     OW 3590   0.598   4.453   0.270
 1185SOL    HW1 3591   0.622   4.522   0.202
 1185SOL    HW2 3592   0.520   4.486   0.324
 1186SOL     OW 3593   1.281   4.069   0.944
 1186SOL    HW1 3594   1.195   4.019   0.931
 1186SOL    HW2 3595   1.343   4.015   1.000
 1187SOL     OW 3596   0.807   4.329   1.465
 1187SOL    HW1 3597   0.760   4.326   1.554
 1187SOL    HW2 3598   0.756   4.274   1.399
 1188SOL     OW 3599   1.394   4.193   1.674
 1188SOL    HW1 3600   1.374   4.236   1.762
 1188SOL    HW2 3601   1.472   4.131   1.683
 1189SOL     OW 3602   0.973   4.614   1.572
 1189SOL    HW1 3603   1.019   4.530   1.543
 1189SOL    HW2 3604   0.917   4.648   1.497
 1190SOL     OW 3605   0.991   4.134   1.242
 1190SOL    HW1 3606   0.914   4.168   1.296
 1190SOL    HW2 3607   0.957   4.083   1.163
 1191SOL     OW 3608   1.041   4.425   0.429
 1191SOL    HW1 3609   1.067   4.421   0.525
 1191SOL    HW2 3610   0.956   4.374   0.415
 1192SOL     OW 3611   0.076   4.535   0.789
 1192SOL    HW1 3612   0.175   4.523   0.798
 1192SOL    HW2 3613   0.052   4.630   0.810
 1193SOL     OW 3614   0.865   4.072   0.195
 1193SOL    HW1 3615   0.924   4.135   0.146
 1193SOL    HW2 3616   0.884   3.978   0.166
 1194SOL     OW 3617   1.719   4.309   1.831
 1194SOL    HW1 3618   1.693   4.398   1.795
 1194SOL    HW2 3619   1.717   4.241   1.758
 1195SOL     OW 3620   1.362   4.868   0.545
 1195SOL    HW1 3621   1.445   4.839   0.497
 1195SOL    HW2 3622   1.313   4.935   0.489
 1196SOL     OW 3623   0.550   3.920   0.885
 1196SOL    HW1 3624   0.545   3.915   0.985
 1196SOL    HW2 3625   0.552   4.016   0.856
 1197SOL     OW 3626   1.795   4.790   0.873
 1197SOL    HW1 3627   1.733   4.775   0.797
 1197SOL    HW2 3628   1.743   4.801   0.958
 1198SOL     OW 3629   0.321   4.667   0.242
 1198SOL    HW1 3630   0.403   4.706   0.200
 1198SOL    HW2 3631   0.294   4.585   0.193
 1199SOL     OW 3632   1.458   4.459   0.728
 1199SOL    HW1 3633   1.453   4.394   0.803
 1199SOL    HW2 3634   1.538   4.518   0.741
 1200SOL     OW 3635   0.202   4.009   1.498
 1200SOL    HW1 3636   0.122   4.069   1.485
 1200SOL    HW2 3637   0.192   3.960   1.584
 1201SOL     OW 3638   1.632   5.101   0.081
 1201SOL    HW1 3639   1.600   5.195   0.071
 1201SOL    HW2 3640   1.556   5.038   0.069
 1202SOL     OW 3641   1.400   3.831   0.426
 1202SOL    HW1 3642   1.376   3.794   0.336
 1202SOL    HW2 3643   1.499   3.847   0.430
 1203SOL     OW 3644   0.382   4.424   0.480
 1203SOL    HW1 3645   0.427   4.334   0.477
 1203SOL    HW2 3646   0.288   4.413   0.513
 1204SOL     OW 3647   1.547   3.946   1.729
 1204SOL    HW1 3648   1.542   3.983   1.821
 1204SOL    HW2 3649   1.475   3.877   1.717
 1205SOL     OW 3650   0.781   3.988   1.749
 1205SOL    HW1 3651   0.848   3.927   1.792
 1205SOL    HW2 3652   0.708   4.007   1.814
 1206SOL     OW 3653   1.351   4.314   1.433
 1206SOL    HW1 3654   1.379   4.271   1.518
 1206SOL    HW2 3655   1.376   4.410   1.434
 1207SOL     OW 3656   0.803   5.126   0.924
 1207SOL    HW1 3657   0.893   5.140   0.882
 1207SOL    HW2 3658   0.732   5.128   0.853
 1208SOL     OW 3659   0.922   4.227   0.899
 1208SOL    HW1 3660   0.897   4.218   0.803
 1208SOL    HW2 3661   0.970   4.145   0.930
 1209SOL     OW 3662   0.539   3.788   0.512
 1209SOL    HW1 3663   0.458   3.789   0.570
 1209SOL    HW2 3664   0.542   3.871   0.457
 1210SOL     OW 3665   1.434   4.912   0.041
 1210SOL    HW1 3666   1.466   4.836   0.098
 1210SOL    HW2 3667   1.342   4.939   0.071
 1211SOL     OW 3668   0.297   3.759   0.171
 1211SOL    HW1 3669   0.346   3.843   0.150
 1211SOL    HW2 3670   0.359   3.694   0.216
 1212SOL     OW 3671   0.935   3.960   0.480
 1212SOL    HW1 3672   0.887   4.001   0.402
 1212SOL    HW2 3673   1.034   3.958   0.461
 1213SOL     OW 3674   1.076   4.407   1.464
 1213SOL    HW1 3675   0.996   4.346   1.467
 1213SOL    HW2 3676   1.157   4.354   1.440
 1214SOL     OW 3677   0.459   4.876   0.741
 1214SOL    HW1 3678   0.388   4.849   0.806
 1214SOL    HW2 3679   0.433   4.848   0.648
 1215SOL     OW 3680   1.032   4.273   0.016
 1215SOL    HW1 3681   0.991   4.355  -0.023
 1215SOL    HW2 3682   1.096   4.299   0.089
 1216SOL     OW 3683   0.078   4.280   1.386
 1216SOL    HW1 3684   0.170   4.279   1.345
 1216SOL    HW2 3685   0.072   4.354   1.453
 1217SOL     OW 3686   0.561   3.946   1.147
 1217SOL    HW1 3687   0.599   3.862   1.184
 1217SOL    HW2 3688   0.473   3.965   1.191
 1218SOL     OW 3689   0.866   4.178   0.642
 1218SOL    HW1 3690   0.834   4.250   0.580
 1218SOL    HW2 3691   0.890   4.097   0.589
 1219SOL     OW 3692   1.017   3.763   0.753
 1219SOL    HW1 3693   0.945   3.768   0.684
 1219SOL    HW2 3694   0.993   3.694   0.822
 1220SOL     OW 3695   1.429   4.897   0.867
 1220SOL    HW1 3696   1.374   4.813   0.860
 1220SOL    HW2 3697   1.455   4.926   0.775
 1221SOL     OW 3698   1.466   4.314   0.992
 1221SOL    HW1 3699   1.436   4.219   0.999
 1221SOL    HW2 3700   1.539   4.330   1.058
 1222SOL     OW 3701   1.857   4.557   0.377
 1222SOL    HW1 3702   1.899   4.493   0.441
 1222SOL    HW2 3703   1.819   4.506   0.299
 1223SOL     OW 3704   1.664   5.004   0.657
 1223SOL    HW1 3705   1.763   5.012   0.671
 1223SOL    HW2 3706   1.619   5.088   0.688
 1224SOL     OW 3707   1.390   4.299   0.078
 1224SOL    HW1 3708   1.336   4.278   0.159
 1224SOL    HW2 3709   1.481   4.258   0.087
 1225SOL     OW 3710   0.527   3.980   0.328
 1225SOL    HW1 3711   0.554   3.921   0.253
 1225SOL    HW2 3712   0.527   4.075   0.297
 1226SOL     OW 3713   1.754   4.947   1.588
 1226SOL    HW1 3714   1.845   4.908   1.575
 1226SOL    HW2 3715   1.762   5.043   1.612
 1227SOL     OW 3716   1.638   4.823   1.079
 1227SOL    HW1 3717   1.643   4.904   1.138
 1227SOL    HW2 3718   1.552   4.825   1.028
 1228SOL     OW 3719   0.915   3.813   1.402
 1228SOL    HW1 3720   0.940   3.793   1.307
 1228SOL    HW2 3721   0.987   3.869   1.444
 1229SOL     OW 3722   0.980   4.840   1.719
 1229SOL    HW1 3723   0.881   4.846   1.729
 1229SOL    HW2 3724   1.003   4.760   1.663
 1230SOL     OW 3725   0.705   4.774   0.368
 1230SOL    HW1 3726   0.691   4.781   0.467
 1230SOL    HW2 3727   0.789   4.723   0.350
 1231SOL     OW 3728   0.410   4.537   1.251
 1231SOL    HW1 3729   0.496   4.549   1.301
 1231SOL    HW2 3730   0.368   4.450   1.278
 1232SOL     OW 3731   1.274   4.110   1.262
 1232SOL    HW1 3732   1.295   4.184   1.326
 1232SOL    HW2 3733   1.185   4.127   1.219
 1233SOL     OW 3734   0.367   4.824   0.501
 1233SOL    HW1 3735   0.360   4.907   0.445
 1233SOL    HW2 3736   0.371   4.744   0.441
 1234SOL     OW 3737   0.566   4.261   0.865
 1234SOL    HW1 3738   0.578   4.327   0.791
 1234SOL    HW2 3739   0.612   4.295   0.948
 1235SOL     OW 3740   1.582   4.363   0.472
 1235SOL    HW1 3741   1.551   4.424   0.545
 1235SOL    HW2 3742   1.632   4.415   0.403
 1236SOL     OW 3743   0.402   4.475   1.598
 1236SOL    HW1 3744   0.470   4.530   1.551
 1236SOL    HW2 3745   0.442   4.387   1.625
 1237SOL     OW 3746   1.587   4.503   1.670
 1237SOL    HW1 3747   1.495   4.541   1.665
 1237SOL    HW2 3748   1.647   4.550   1.605
 1238SOL     OW 3749   1.013   3.829   1.770
 1238SOL    HW1 3750   1.019   3.914   1.718
 1238SOL    HW2 3751   1.045   3.753   1.713
 1239SOL     OW 3752   0.504   3.774   1.740
 1239SOL    HW1 3753   0.462   3.717   1.670
 1239SOL    HW2 3754   0.438   3.843   1.772
 1240SOL     OW 3755   0.573   4.594   1.029
 1240SOL    HW1 3756   0.617   4.683   1.020
 1240SOL    HW2 3757   0.510   4.594   1.106
 1241SOL     OW 3758   1.360   4.586   1.045
 1241SOL    HW1 3759   1.285   4.586   0.979
 1241SOL    HW2 3760   1.397   4.494   1.054
 1242SOL     OW 3761   1.209   4.249   0.275
 1242SOL    HW1 3762   1.222   4.165   0.329
 1242SOL    HW2 3763   1.180   4.323   0.335
 1243SOL     OW 3764   0.307   3.937   1.231
 1243SOL    HW1 3765   0.284   3.974   1.321
 1243SOL    HW2 3766   0.277   3.842   1.225
 1244SOL     OW 3767   0.037   5.034   1.282
 1244SOL    HW1 3768   0.090   4.985   1.350
 1244SOL    HW2 3769   0.059   5.132   1.287
 1245SOL     OW 3770   0.732   4.358   1.064
 1245SOL    HW1 3771   0.791   4.332   0.988
 1245SOL    HW2 3772   0.704   4.454   1.053
 1246SOL     OW 3773   1.728   4.659   1.854
 1246SOL    HW1 3774   1.682   4.652   1.765
 1246SOL    HW2 3775   1.666   4.703   1.920
 1247SOL     OW 3776   0.307   3.787   0.618
 1247SOL    HW1 3777   0.296   3.881   0.651
 1247SOL    HW2 3778   0.302   3.724   0.695
 1248SOL     OW 3779   1.622   4.091   0.374
 1248SOL    HW1 3780   1.624   4.015   0.438
 1248SOL    HW2 3781   1.574   4.168   0.414
 1249SOL     OW 3782   1.023   4.490   0.966
 1249SOL    HW1 3783   1.038   4.511   1.062
 1249SOL    HW2 3784   0.993   4.395   0.957
 1250SOL     OW 3785   1.859   5.242   1.605
 1250SOL    HW1 3786   1.873   5.269   1.510
 1250SOL    HW2 3787   1.942   5.264   1.658
 1251SOL     OW 3788   0.350   4.622   1.804
 1251SOL    HW1 3789   0.426   4.666   1.852
 1251SOL    HW2 3790   0.385   4.575   1.722
 1252SOL     OW 3791   1.540   3.998   0.125
 1252SOL    HW1 3792   1.479   3.923   0.148
 1252SOL    HW2 3793   1.562   4.050   0.208
 1253SOL     OW 3794   1.303   4.562   0.042
 1253SOL    HW1 3795   1.337   4.469   0.057
 1253SOL    HW2 3796   1.321   4.589  -0.053
 1254SOL     OW 3797   0.319   4.534   0.949
 1254SOL    HW1 3798   0.412   4.570   0.954
 1254SOL    HW2 3799   0.313   4.449   1.001
 1255SOL     OW 3800   0.339   4.233   1.006
 1255SOL    HW1 3801   0.287   4.150   0.989
 1255SOL    HW2 3802   0.416   4.238   0.942
 1256SOL     OW 3803   1.138   4.104   1.678
 1256SOL    HW1 3804   1.093   4.167   1.742
 1256SOL    HW2 3805   1.231   4.135   1.661
 1257SOL     OW 3806   1.160   3.931   1.477
 1257SOL    HW1 3807   1.160   3.995   1.554
 1257SOL    HW2 3808   1.188   3.979   1.394
 1258SOL     OW 3809   0.008   5.050   0.200
 1258SOL    HW1 3810  -0.085   5.071   0.169
 1258SOL    HW2 3811   0.018   4.951   0.213
 1259SOL     OW 3812   1.002   4.520   1.238
 1259SOL    HW1 3813   1.043   4.488   1.324
 1259SOL    HW2 3814   0.906   4.493   1.235
 1260SOL     OW 3815   0.040   4.268   1.114
 1260SOL    HW1 3816   0.125   4.235   1.073
 1260SOL    HW2 3817   0.053   4.283   1.212
 1261SOL     OW 3818   0.189   4.244   1.722
 1261SOL    HW1 3819   0.248   4.204   1.652
 1261SOL    HW2 3820   0.131   4.315   1.681
 1262SOL     OW 3821   1.369   4.674   1.660
 1262SOL    HW1 3822   1.408   4.763   1.680
 1262SOL    HW2 3823   1.379   4.654   1.563
 1263SOL     OW 3824   0.815   4.296   0.325
 1263SOL    HW1 3825   0.822   4.207   0.279
 1263SOL    HW2 3826   0.721   4.330   0.317
 1264SOL     OW 3827   1.657   4.328   1.206
 1264SOL    HW1 3828   1.619   4.259   1.268
 1264SOL    HW2 3829   1.739   4.292   1.162
 1265SOL     OW 3830   0.671   4.188   1.269
 1265SOL    HW1 3831   0.637   4.099   1.239
 1265SOL    HW2 3832   0.697   4.242   1.189
 1266SOL     OW 3833   0.473   4.224   0.191
 1266SOL    HW1 3834   0.534   4.304   0.195
 1266SOL    HW2 3835   0.378   4.255   0.198
 1267SOL     OW 3836   0.159   4.861   1.466
 1267SOL    HW1 3837   0.181   4.800   1.542
 1267SOL    HW2 3838   0.169   4.812   1.380
 1268SOL     OW 3839   1.347   4.783   1.234
 1268SOL    HW1 3840   1.371   4.720   1.160
 1268SOL    HW2 3841   1.257   4.823   1.216
 1269SOL     OW 3842   1.302   4.579   0.309
 1269SOL    HW1 3843   1.216   4.548   0.351
 1269SOL    HW2 3844   1.298   4.565   0.210
 1270SOL     OW 3845   0.083   4.982   1.022
 1270SOL    HW1 3846   0.078   4.981   1.122
 1270SOL    HW2 3847   0.000   4.941   0.984
 1271SOL     OW 3848   0.903   3.810   0.133
 1271SOL    HW1 3849   0.954   3.811   0.047
 1271SOL    HW2 3850   0.959   3.768   0.204
 1272SOL     OW 3851   1.726   3.859   0.523
 1272SOL    HW1 3852   1.799   3.842   0.456
 1272SOL    HW2 3853   1.695   3.772   0.561
 1273SOL     OW 3854   1.280   4.651   0.672
 1273SOL    HW1 3855   1.340   4.570   0.674
 1273SOL    HW2 3856   1.320   4.720   0.612
 1274SOL     OW 3857   0.830   4.997   1.422
 1274SOL    HW1 3858   0.825   5.030   1.517
 1274SOL    HW2 3859   0.744   5.016   1.376
 1275SOL     OW 3860   1.841   3.899   0.963
 1275SOL    HW1 3861   1.880   3.814   0.927
 1275SOL    HW2 3862   1.743   3.901   0.944
 1276SOL     OW 3863   0.263   4.050   0.720
 1276SOL    HW1 3864   0.184   4.101   0.686
 1276SOL    HW2 3865   0.254   4.035   0.818
 1277SOL     OW 3866   0.822   4.726   1.372
 1277SOL    HW1 3867   0.862   4.725   1.280
 1277SOL    HW2 3868   0.832   4.818   1.412
 1278SOL     OW 3869   0.916   4.634   0.291
 1278SOL    HW1 3870   0.979   4.672   0.223
 1278SOL    HW2 3871   0.956   4.551   0.330
 1279SOL     OW 3872   0.372   5.012   1.490
 1279SOL    HW1 3873   0.359   5.105   1.456
 1279SOL    HW2 3874   0.288   4.960   1.477
 1280SOL     OW 3875   1.614   5.016   1.289
 1280SOL    HW1 3876   1.674   5.019   1.369
 1280SOL    HW2 3877   1.539   5.080   1.302
 1281SOL     OW 3878   1.039   4.822   0.696
 1281SOL    HW1 3879   0.969   4.775   0.750
 1281SOL    HW2 3880   1.098   4.754   0.653
 1282SOL     OW 3881   1.014   3.960   0.971
 1282SOL    HW1 3882   1.006   3.924   0.878
 1282SOL    HW2 3883   1.012   3.884   1.036
 1283SOL     OW 3884   1.709   4.109   1.381
 1283SOL    HW1 3885   1.782   4.178   1.385
 1283SOL    HW2 3886   1.737   4.034   1.322
 1284SOL     OW 3887   0.105   4.737   1.726
 1284SOL    HW1 3888   0.028   4.704   1.780
 1284SOL    HW2 3889   0.190   4.707   1.768
 1285SOL     OW 3890   0.672   3.927   1.489
 1285SOL    HW1 3891   0.762   3.911   1.449
 1285SOL    HW2 3892   0.680   3.932   1.588
 1286SOL     OW 3893   0.075   4.069   0.033
 1286SOL    HW1 3894  -0.017   4.041   0.004
 1286SOL    HW2 3895   0.106   4.146  -0.023
 1287SOL     OW 3896   1.440   4.580   1.398
 1287SOL    HW1 3897   1.383   4.632   1.335
 1287SOL    HW2 3898   1.536   4.592   1.374
 1288SOL     OW 3899   0.072   3.890   0.318
 1288SOL    HW1 3900   0.055   3.973   0.264
 1288SOL    HW2 3901   0.162   3.853   0.296
 1289SOL     OW 3902   0.613   4.566   1.431
 1289SOL    HW1 3903   0.669   4.647   1.414
 1289SOL    HW2 3904   0.672   4.486   1.434
 1290SOL     OW 3905   0.716   4.289   1.708
 1290SOL    HW1 3906   0.735   4.354   1.782
 1290SOL    HW2 3907   0.776   4.209   1.717
 1291SOL     OW 3908   1.450   4.944   1.633
 1291SOL    HW1 3909   1.441   4.934   1.732
 1291SOL    HW2 3910   1.546   4.937   1.607
 1292SOL     OW 3911   1.674   4.607   1.254
 1292SOL    HW1 3912   1.647   4.518   1.217
 1292SOL    HW2 3913   1.675   4.675   1.181
 1293SOL     OW 3914   1.225   4.049   0.449
 1293SOL    HW1 3915   1.290   3.975   0.438
 1293SOL    HW2 3916   1.245   4.099   0.533
 1294SOL     OW 3917   0.594   4.469   0.652
 1294SOL    HW1 3918   0.644   4.554   0.633
 1294SOL    HW2 3919   0.506   4.471   0.604
 1295SOL     OW 3920   1.777   4.066   1.642
 1295SOL    HW1 3921   1.760   4.097   1.548
 1295SOL    HW2 3922   1.693   4.029   1.680
 1296SOL     OW 3923   1.730   4.658   1.517
 1296SOL    HW1 3924   1.768   4.749   1.532
 1296SOL    HW2 3925   1.722   4.641   1.418
 1297SOL     OW 3926   0.859   4.680   0.861
 1297SOL    HW1 3927   0.913   4.611   0.909
 1297SOL    HW2 3928   0.827   4.749   0.927
 1298SOL     OW 3929   1.083   4.708   0.087
 1298SOL    HW1 3930   1.060   4.761   0.005
 1298SOL    HW2 3931   1.164   4.652   0.068
 1299SOL     OW 3932   0.079   4.964   0.653
 1299SOL    HW1 3933   0.078   4.917   0.741
 1299SOL    HW2 3934   0.161   4.936   0.602
 1300SOL     OW 3935   1.824   3.916   1.227
 1300SOL    HW1 3936   1.820   3.826   1.271
 1300SOL    HW2 3937   1.827   3.905   1.128
 1301SOL     OW 3938   0.428   4.148   0.520
 1301SOL    HW1 3939   0.458   4.076   0.458
 1301SOL    HW2 3940   0.389   4.108   0.603
 1302SOL     OW 3941   0.317   4.271   1.280
 1302SOL    HW1 3942   0.355   4.212   1.352
 1302SOL    HW2 3943   0.357   4.245   1.192
 1303SOL     OW 3944   1.424   3.938   1.112
 1303SOL    HW1 3945   1.476   3.873   1.167
 1303SOL    HW2 3946   1.375   4.001   1.173
 1304SOL     OW 3947   1.001   3.758   1.154
 1304SOL    HW1 3948   0.938   3.686   1.123
 1304SOL    HW2 3949   1.094   3.722   1.154
 1305SOL     OW 3950   0.770   5.054   0.301
 1305SOL    HW1 3951   0.724   4.967   0.318
 1305SOL    HW2 3952   0.861   5.051   0.342
 1306SOL     OW 3953   1.352   3.776   0.168
 1306SOL    HW1 3954   1.387   3.735   0.084
 1306SOL    HW2 3955   1.262   3.738   0.188
 1307SOL     OW 3956   1.300   4.177   0.691
 1307SOL    HW1 3957   1.241   4.257   0.695
 1307SOL    HW2 3958   1.315   4.142   0.784
 1308SOL     OW 3959   1.593   3.945   0.882
 1308SOL    HW1 3960   1.509   3.944   0.936
 1308SOL    HW2 3961   1.595   4.028   0.826
 1309SOL     OW 3962   0.039   4.801   0.300
 1309SOL    HW1 3963   0.138   4.790   0.291
 1309SOL    HW2 3964  -0.001   4.715   0.332
 1310SOL     OW 3965   0.230   4.352   1.975
 1310SOL    HW1 3966   0.137   4.350   2.012
 1310SOL    HW2 3967   0.231   4.313   1.883
 1311SOL     OW 3968   0.225   3.999   2.858
 1311SOL    HW1 3969   0.260   3.982   2.950
 1311SOL    HW2 3970   0.137   3.954   2.846
 1312SOL     OW 3971   0.019   4.092   2.509
 1312SOL    HW1 3972  -0.063   4.135   2.548
 1312SOL    HW2 3973  -0.009   4.019   2.446
 1313SOL     OW 3974   1.555   5.235   2.565
 1313SOL    HW1 3975   1.498   5.219   2.646
 1313SOL    HW2 3976   1.496   5.245   2.485
 1314SOL     OW 3977   1.135   4.427   2.579
 1314SOL    HW1 3978   1.192   4.505   2.554
 1314SOL    HW2 3979   1.075   4.453   2.655
 1315SOL     OW 3980   1.755   4.331   2.093
 1315SOL    HW1 3981   1.743   4.318   1.994
 1315SOL    HW2 3982   1.725   4.250   2.142
 1316SOL     OW 3983   0.768   4.868   2.885
 1316SOL    HW1 3984   0.690   4.885   2.945
 1316SOL    HW2 3985   0.802   4.955   2.849
 1317SOL     OW 3986   0.850   4.522   3.685
 1317SOL    HW1 3987   0.846   4.598   3.750
 1317SOL    HW2 3988   0.872   4.558   3.594
 1318SOL     OW 3989   0.685   4.736   2.527
 1318SOL    HW1 3990   0.754   4.720   2.597
 1318SOL    HW2 3991   0.612   4.793   2.565
 1319SOL     OW 3992   0.686   4.885   3.665
 1319SOL    HW1 3993   0.746   4.964   3.679
 1319SOL    HW2 3994   0.600   4.916   3.624
 1320SOL     OW 3995   0.335   5.159   2.923
 1320SOL    HW1 3996   0.257   5.128   2.870
 1320SOL    HW2 3997   0.393   5.217   2.866
 1321SOL     OW 3998   0.438   4.116   3.361
 1321SOL    HW1 3999   0.520   4.060   3.370
 1321SOL    HW2 4000   0.357   4.058   3.365
 1322SOL     OW 4001   1.603   4.171   2.599
 1322SOL    HW1 4002   1.529   4.217   2.549
 1322SOL    HW2 4003   1.654   4.239   2.652
 1323SOL     OW 4004   0.240   4.815   2.748
 1323SOL    HW1 4005   0.254   4.731   2.800
 1323SOL    HW2 4006   0.185   4.879   2.803
 1324SOL     OW 4007   0.606   4.688   1.985
 1324SOL    HW1 4008   0.613   4.772   1.931
 1324SOL    HW2 4009   0.652   4.701   2.073
 1325SOL     OW 4010   1.594   3.838   3.342
 1325SOL    HW1 4011   1.576   3.905   3.270
 1325SOL    HW2 4012   1.591   3.884   3.431
 1326SOL     OW 4013   0.122   4.367   2.425
 1326SOL    HW1 4014   0.077   4.279   2.442
 1326SOL    HW2 4015   0.121   4.421   2.509
 1327SOL     OW 4016   1.689   4.646   2.474
 1327SOL    HW1 4017   1.784   4.617   2.482
 1327SOL    HW2 4018   1.681   4.711   2.399
 1328SOL     OW 4019   1.641   4.832   2.294
 1328SOL    HW1 4020   1.727   4.834   2.242
 1328SOL    HW2 4021   1.655   4.879   2.382
 1329SOL     OW 4022   0.113   4.461   3.459
 1329SOL    HW1 4023   0.201   4.448   3.504
 1329SOL    HW2 4024   0.100   4.558   3.437
 1330SOL     OW 4025   1.293   4.952   3.285
 1330SOL    HW1 4026   1.330   4.879   3.227
 1330SOL    HW2 4027   1.345   4.957   3.370
 1331SOL     OW 4028   0.809   3.728   2.364
 1331SOL    HW1 4029   0.849   3.819   2.355
 1331SOL    HW2 4030   0.709   3.736   2.370
 1332SOL     OW 4031   0.197   4.700   3.126
 1332SOL    HW1 4032   0.286   4.655   3.112
 1332SOL    HW2 4033   0.124   4.635   3.107
 1333SOL     OW 4034   1.525   4.723   2.052
 1333SOL    HW1 4035   1.462   4.647   2.065
 1333SOL    HW2 4036   1.573   4.741   2.138
 1334SOL     OW 4037   0.317   3.975   3.663
 1334SOL    HW1 4038   0.388   4.046   3.669
 1334SOL    HW2 4039   0.229   4.014   3.691
 1335SOL     OW 4040   1.466   5.141   2.815
 1335SOL    HW1 4041   1.407   5.147   2.895
 1335SOL    HW2 4042   1.451   5.053   2.769
 1336SOL     OW 4043   0.598   4.453   2.132
 1336SOL    HW1 4044   0.622   4.522   2.064
 1336SOL    HW2 4045   0.520   4.486   2.186
 1337SOL     OW 4046   1.281   4.069   2.806
 1337SOL    HW1 4047   1.195   4.019   2.793
 1337SOL    HW2 4048   1.343   4.015   2.862
 1338SOL     OW 4049   0.807   4.329   3.327
 1338SOL    HW1 4050   0.760   4.326   3.416
 1338SOL    HW2 4051   0.756   4.274   3.261
 1339SOL     OW 4052   1.394   4.193   3.536
 1339SOL    HW1 4053   1.374   4.236   3.624
 1339SOL    HW2 4054   1.472   4.131   3.545
 1340SOL     OW 4055   0.973   4.614   3.434
 1340SOL    HW1 4056   1.019   4.530   3.405
 1340SOL    HW2 4057   0.917   4.648   3.359
 1341SOL     OW 4058   0.991   4.134   3.104
 1341SOL    HW1 4059   0.914   4.168   3.158
 1341SOL    HW2 4060   0.957   4.083   3.025
 1342SOL     OW 4061   1.041   4.425   2.291
 1342SOL    HW1 4062   1.067   4.421   2.387
 1342SOL    HW2 4063   0.956   4.374   2.277
 1343SOL     OW 4064   0.076   4.535   2.651
 1343SOL    HW1 4065   0.175   4.523   2.660
 1343SOL    HW2 4066   0.052   4.630   2.672
 1344SOL     OW 4067   0.865   4.072   2.057
 1344SOL    HW1 4068   0.924   4.135   2.008
 1344SOL    HW2 4069   0.884   3.978   2.028
 1345SOL     OW 4070   1.719   4.309   3.693
 1345SOL    HW1 4071   1.693   4.398   3.657
 1345SOL    HW2 4072   1.717   4.241   3.620
 1346SOL     OW 4073   1.362   4.868   2.407
 1346SOL    HW1 4074   1.445   4.839   2.359
 1346SOL    HW2 4075   1.313   4.935   2.351
 1347SOL     OW 4076   0.550   3.920   2.747
 1347SOL    HW1 4077   0.545   3.915   2.847
 1347SOL    HW2 4078   0.552   4.016   2.718
 1348SOL     OW 4079   1.795   4.790   2.735
 1348SOL    HW1 4080   1.733   4.775   2.659
 1348SOL    HW2 4081   1.743   4.801   2.820
 1349SOL     OW 4082   0.321   4.667   2.104
 1349SOL    HW1 4083   0.403   4.706   2.062
 1349SOL    HW2 4084   0.294   4.585   2.055
 1350SOL     OW 4085   1.458   4.459   2.590
 1350SOL    HW1 4086   1.453   4.394   2.665
 1350SOL    HW2 4087   1.538   4.518   2.603
 1351SOL     OW 4088   0.202   4.009   3.360
 1351SOL    HW1 4089   0.122   4.069   3.347
 1351SOL    HW2 4090   0.192   3.960   3.446
 1352SOL     OW 4091   1.632   5.101   1.943
 1352SOL    HW1 4092   1.600   5.195   1.933
 1352SOL    HW2 4093   1.556   5.038   1.931
 1353SOL     OW 4094   1.400   3.831   2.288
 1353SOL    HW1 4095   1.376   3.794   2.198
 1353SOL    HW2 4096   1.499   3.847   2.292
 1354SOL     OW 4097   0.382   4.424   2.342
 1354SOL    HW1 4098   0.427   4.334   2.339
 1354SOL    HW2 4099   0.288   4.413   2.375
 1355SOL     OW 4100   1.547   3.946   3.591
 1355SOL    HW1 4101   1.542   3.983   3.683
 1355SOL    HW2 4102   1.475   3.877   3.579
 1356SOL     OW 4103   0.614   3.846   1.979
 1356SOL    HW1 4104   0.712   3.824   1.986
 1356SOL    HW2 4105   0.583   3.829   1.886
 1357SOL     OW 4106   0.781   3.988   3.611
 1357SOL    HW1 4107   0.848   3.927   3.654
 1357SOL    HW2 4108   0.708   4.007   3.676
 1358SOL     OW 4109   1.351   4.314   3.295
 1358SOL    HW1 4110   1.379   4.271   3.380
 1358SOL    HW2 4111   1.376   4.410   3.296
 1359SOL     OW 4112   0.803   5.126   2.786
 1359SOL    HW1 4113   0.893   5.140   2.744
 1359SOL    HW2 4114   0.732   5.128   2.715
 1360SOL     OW 4115   0.922   4.227   2.761
 1360SOL    HW1 4116   0.897   4.218   2.665
 1360SOL    HW2 4117   0.970   4.145   2.792
 1361SOL     OW 4118   0.539   3.788   2.374
 1361SOL    HW1 4119   0.458   3.789   2.432
 1361SOL    HW2 4120   0.542   3.871   2.319
 1362SOL     OW 4121   1.434   4.912   1.903
 1362SOL    HW1 4122   1.466   4.836   1.960
 1362SOL    HW2 4123   1.342   4.939   1.933
 1363SOL     OW 4124   0.297   3.759   2.033
 1363SOL    HW1 4125   0.346   3.843   2.012
 1363SOL    HW2 4126   0.359   3.694   2.078
 1364SOL     OW 4127   0.935   3.960   2.342
 1364SOL    HW1 4128   0.887   4.001   2.264
 1364SOL    HW2 4129   1.034   3.958   2.323
 1365SOL     OW 4130   1.076   4.407   3.326
 1365SOL    HW1 4131   0.996   4.346   3.329
 1365SOL    HW2 4132   1.157   4.354   3.302
 1366SOL     OW 4133   0.459   4.876   2.603
 1366SOL    HW1 4134   0.388   4.849   2.668
 1366SOL    HW2 4135   0.433   4.848   2.510
 1367SOL     OW 4136   1.032   4.273   1.878
 1367SOL    HW1 4137   0.991   4.355   1.839
 1367SOL    HW2 4138   1.096   4.299   1.951
 1368SOL     OW 4139   0.078   4.280   3.248
 1368SOL    HW1 4140   0.170   4.279   3.207
 1368SOL    HW2 4141   0.072   4.354   3.315
 1369SOL     OW 4142   0.561   3.946   3.009
 1369SOL    HW1 4143   0.599   3.862   3.046
 1369SOL    HW2 4144   0.473   3.965   3.053
 1370SOL     OW 4145   0.866   4.178   2.504
 1370SOL    HW1 4146   0.834   4.250   2.442
 1370SOL    HW2 4147   0.890   4.097   2.451
 1371SOL     OW 4148   1.017   3.763   2.615
 1371SOL    HW1 4149   0.945   3.768   2.546
 1371SOL    HW2 4150   0.993   3.694   2.684
 1372SOL     OW 4151   1.429   4.897   2.729
 1372SOL    HW1 4152   1.374   4.813   2.722
 1372SOL    HW2 4153   1.455   4.926   2.637
 1373SOL     OW 4154   1.466   4.314   2.854
 1373SOL    HW1 4155   1.436   4.219   2.861
 1373SOL    HW2 4156   1.539   4.330   2.920
 1374SOL     OW 4157   1.857   4.557   2.239
 1374SOL    HW1 4158   1.899   4.493   2.303
 1374SOL    HW2 4159   1.819   4.506   2.161
 1375SOL     OW 4160   1.664   5.004   2.519
 1375SOL    HW1 4161   1.763   5.012   2.533
 1375SOL    HW2 4162   1.619   5.088   2.550
 1376SOL     OW 4163   1.390   4.299   1.940
 1376SOL    HW1 4164   1.336   4.278   2.021
 1376SOL    HW2 4165   1.481   4.258   1.949
 1377SOL     OW 4166   0.527   3.980   2.190
 1377SOL    HW1 4167   0.554   3.921   2.115
 1377SOL    HW2 4168   0.527   4.075   2.159
 1378SOL     OW 4169   1.754   4.947   3.450
 1378SOL    HW1 4170   1.845   4.908   3.437
 1378SOL    HW2 4171   1.762   5.043   3.474
 1379SOL     OW 4172   1.638   4.823   2.941
 1379SOL    HW1 4173   1.643   4.904   3.000
 1379SOL    HW2 4174   1.552   4.825   2.890
 1380SOL     OW 4175   0.915   3.813   3.264
 1380SOL    HW1 4176   0.940   3.793   3.169
 1380SOL    HW2 4177   0.987   3.869   3.306
 1381SOL     OW 4178   0.980   4.840   3.581
 1381SOL    HW1 4179   0.881   4.846   3.591
 1381SOL    HW2 4180   1.003   4.760   3.525
 1382SOL     OW 4181   0.705   4.774   2.230
 1382SOL    HW1 4182   0.691   4.781   2.329
 1382SOL    HW2 4183   0.789   4.723   2.212
 1383SOL     OW 4184   0.410   4.537   3.113
 1383SOL    HW1 4185   0.496   4.549   3.163
 1383SOL    HW2 4186   0.368   4.450   3.140
 1384SOL     OW 4187   1.274   4.110   3.124
 1384SOL    HW1 4188   1.295   4.184   3.188
 1384SOL    HW2 4189   1.185   4.127   3.081
 1385SOL     OW 4190   0.367   4.824   2.363
 1385SOL    HW1 4191   0.360   4.907   2.307
 1385SOL    HW2 4192   0.371   4.744   2.303
 1386SOL     OW 4193   0.566   4.261   2.727
 1386SOL    HW1 4194   0.578   4.327   2.653
 1386SOL    HW2 4195   0.612   4.295   2.810
 1387SOL     OW 4196   1.582   4.363   2.334
 1387SOL    HW1 4197   1.551   4.424   2.407
 1387SOL    HW2 4198   1.632   4.415   2.265
 1388SOL     OW 4199   0.402   4.475   3.460
 1388SOL    HW1 4200   0.470   4.530   3.413
 1388SOL    HW2 4201   0.442   4.387   3.487
 1389SOL     OW 4202   1.587   4.503   3.532
 1389SOL    HW1 4203   1.495   4.541   3.527
 1389SOL    HW2 4204   1.647   4.550   3.467
 1390SOL     OW 4205   1.013   3.829   3.632
 1390SOL    HW1 4206   1.019   3.914   3.580
 1390SOL    HW2 4207   1.045   3.753   3.575
 1391SOL     OW 4208   0.504   3.774   3.602
 1391SOL    HW1 4209   0.462   3.717   3.532
 1391SOL    HW2 4210   0.438   3.843   3.634
 1392SOL     OW 4211   0.573   4.594   2.891
 1392SOL    HW1 4212   0.617   4.683   2.882
 1392SOL    HW2 4213   0.510   4.594   2.968
 1393SOL     OW 4214   1.360   4.586   2.907
 1393SOL    HW1 4215   1.285   4.586   2.841
 1393SOL    HW2 4216   1.397   4.494   2.916
 1394SOL     OW 4217   1.209   4.249   2.137
 1394SOL    HW1 4218   1.222   4.165   2.191
 1394SOL    HW2 4219   1.180   4.323   2.197
 1395SOL     OW 4220   0.307   3.937   3.093
 1395SOL    HW1 4221   0.284   3.974   3.183
 1395SOL    HW2 4222   0.277   3.842   3.087
 1396SOL     OW 4223   0.037   5.034   3.144
 1396SOL    HW1 4224   0.090   4.985   3.212
 1396SOL    HW2 4225   0.059   5.132   3.149
 1397SOL     OW 4226   0.732   4.358   2.926
 1397SOL    HW1 4227   0.791   4.332   2.850
 1397SOL    HW2 4228   0.704   4.454   2.915
 1398SOL     OW 4229   1.728   4.659   3.716
 1398SOL    HW1 4230   1.682   4.652   3.627
 1398SOL    HW2 4231   1.666   4.703   3.782
 1399SOL     OW 4232   0.307   3.787   2.480
 1399SOL    HW1 4233   0.296   3.881   2.513
 1399SOL    HW2 4234   0.302   3.724   2.557
 1400SOL     OW 4235   1.622   4.091   2.236
 1400SOL    HW1 4236   1.624   4.015   2.300
 1400SOL    HW2 4237   1.574   4.168   2.276
 1401SOL     OW 4238   1.023   4.490   2.828
 1401SOL    HW1 4239   1.038   4.511   2.924
 1401SOL    HW2 4240   0.993   4.395   2.819
 1402SOL     OW 4241   1.859   5.242   3.467
 1402SOL    HW1 4242   1.873   5.269   3.372
 1402SOL    HW2 4243   1.942   5.264   3.520
 1403SOL     OW 4244   0.350   4.622   3.666
 1403SOL    HW1 4245   0.426   4.666   3.714
 1403SOL    HW2 4246   0.385   4.575   3.584
 1404SOL     OW 4247   1.540   3.998   1.987
 1404SOL    HW1 4248   1.479   3.923   2.010
 1404SOL    HW2 4249   1.562   4.050   2.070
 1405SOL     OW 4250   1.303   4.562   1.904
 1405SOL    HW1 4251   1.337   4.469   1.919
 1405SOL    HW2 4252   1.321   4.589   1.809
 1406SOL     OW 4253   0.319   4.534   2.811
 1406SOL    HW1 4254   0.412   4.570   2.816
 1406SOL    HW2 4255   0.313   4.449   2.863
 1407SOL     OW 4256   0.339   4.233   2.868
 1407SOL    HW1 4257   0.287   4.150   2.851
 1407SOL    HW2 4258   0.416   4.238   2.804
 1408SOL     OW 4259   1.138   4.104   3.540
 1408SOL    HW1 4260   1.093   4.167   3.604
 1408SOL    HW2 4261   1.231   4.135   3.523
 1409SOL     OW 4262   1.160   3.931   3.339
 1409SOL    HW1 4263   1.160   3.995   3.416
 1409SOL    HW2 4264   1.188   3.979   3.256
 1410SOL     OW 4265   0.008   5.050   2.062
 1410SOL    HW1 4266  -0.085   5.071   2.031
 1410SOL    HW2 4267   0.018   4.951   2.075
 1411SOL     OW 4268   1.002   4.520   3.100
 1411SOL    HW1 4269   1.043   4.488   3.186
 1411SOL    HW2 4270   0.906   4.493   3.097
 1412SOL     OW 4271   0.040   4.268   2.976
 1412SOL    HW1 4272   0.125   4.235   2.935
 1412SOL    HW2 4273   0.053   4.283   3.074
 1413SOL     OW 4274   0.189   4.244   3.584
 1413SOL    HW1 4275   0.248   4.204   3.514
 1413SOL    HW2 4276   0.131   4.315   3.543
 1414SOL     OW 4277   1.369   4.674   3.522
 1414SOL    HW1 4278   1.408   4.763   3.542
 1414SOL    HW2 4279   1.379   4.654   3.425
 1415SOL     OW 4280   0.815   4.296   2.187
 1415SOL    HW1 4281   0.822   4.207   2.141
 1415SOL    HW2 4282   0.721   4.330   2.179
 1416SOL     OW 4283   1.657   4.328   3.068
 1416SOL    HW1 4284   1.619   4.259   3.130
 1416SOL    HW2 4285   1.739   4.292   3.024
 1417SOL     OW 4286   0.671   4.188   3.131
 1417SOL    HW1 4287   0.637   4.099   3.101
 1417SOL    HW2 4288   0.697   4.242   3.051
 1418SOL     OW 4289   0.473   4.224   2.053
 1418SOL    HW1 4290   0.534   4.304   2.057
 1418SOL    HW2 4291   0.378   4.255   2.060
 1419SOL     OW 4292   0.159   4.861   3.328
 1419SOL    HW1 4293   0.181   4.800   3.404
 1419SOL    HW2 4294   0.169   4.812   3.242
 1420SOL     OW 4295   1.347   4.783   3.096
 1420SOL    HW1 4296   1.371   4.720   3.022
 1420SOL    HW2 4297   1.257   4.823   3.078
 1421SOL     OW 4298   1.302   4.579   2.171
 1421SOL    HW1 4299   1.216   4.548   2.213
 1421SOL    HW2 4300   1.298   4.565   2.072
 1422SOL     OW 4301   0.083   4.982   2.884
 1422SOL    HW1 4302   0.078   4.981   2.984
 1422SOL    HW2 4303   0.000   4.941   2.846
 1423SOL     OW 4304   1.726   3.859   2.385
 1423SOL    HW1 4305   1.799   3.842   2.318
 1423SOL    HW2 4306   1.695   3.772   2.423
 1424SOL     OW 4307   1.280   4.651   2.534
 1424SOL    HW1 4308   1.340   4.570   2.536
 1424SOL    HW2 4309   1.320   4.720   2.474
 1425SOL     OW 4310   0.830   4.997   3.284
 1425SOL    HW1 4311   0.825   5.030   3.379
 1425SOL    HW2 4312   0.744   5.016   3.238
 1426SOL     OW 4313   1.841   3.899   2.825
 1426SOL    HW1 4314   1.880   3.814   2.789
 1426SOL    HW2 4315   1.743   3.901   2.806
 1427SOL     OW 4316   0.263   4.050   2.582
 1427SOL    HW1 4317   0.184   4.101   2.548
 1427SOL    HW2 4318   0.254   4.035   2.680
 1428SOL     OW 4319   1.194   5.336   1.893
 1428SOL    HW1 4320   1.200   5.243   1.930
 1428SOL    HW2 4321   1.135   5.336   1.813
 1429SOL     OW 4322   0.822   4.726   3.234
 1429SOL    HW1 4323   0.862   4.725   3.142
 1429SOL    HW2 4324   0.832   4.818   3.274
 1430SOL     OW 4325   0.916   4.634   2.153
 1430SOL    HW1 4326   0.979   4.672   2.085
 1430SOL    HW2 4327   0.956   4.551   2.192
 1431SOL     OW 4328   0.372   5.012   3.352
 1431SOL    HW1 4329   0.359   5.105   3.318
 1431SOL    HW2 4330   0.288   4.960   3.339
 1432SOL     OW 4331   1.614   5.016   3.151
 1432SOL    HW1 4332   1.674   5.019   3.231
 1432SOL    HW2 4333   1.539   5.080   3.164
 1433SOL     OW 4334   1.039   4.822   2.558
 1433SOL    HW1 4335   0.969   4.775   2.612
 1433SOL    HW2 4336   1.098   4.754   2.515
 1434SOL     OW 4337   1.014   3.960   2.833
 1434SOL    HW1 4338   1.006   3.924   2.740
 1434SOL    HW2 4339   1.012   3.884   2.898
 1435SOL     OW 4340   1.709   4.109   3.243
 1435SOL    HW1 4341   1.782   4.178   3.247
 1435SOL    HW2 4342   1.737   4.034   3.184
 1436SOL     OW 4343   0.105   4.737   3.588
 1436SOL    HW1 4344   0.028   4.704   3.642
 1436SOL    HW2 4345   0.190   4.707   3.630
 1437SOL     OW 4346   0.672   3.927   3.351
 1437SOL    HW1 4347   0.762   3.911   3.311
 1437SOL    HW2 4348   0.680   3.932   3.450
 1438SOL     OW 4349   0.075   4.069   1.895
 1438SOL    HW1 4350  -0.017   4.041   1.866
 1438SOL    HW2 4351   0.106   4.146   1.839
 1439SOL     OW 4352   1.440   4.580   3.260
 1439SOL    HW1 4353   1.383   4.632   3.197
 1439SOL    HW2 4354   1.536   4.592   3.236
 1440SOL     OW 4355   0.072   3.890   2.180
 1440SOL    HW1 4356   0.055   3.973   2.126
 1440SOL    HW2 4357   0.162   3.853   2.158
 1441SOL     OW 4358   0.613   4.566   3.293
 1441SOL    HW1 4359   0.669   4.647   3.276
 1441SOL    HW2 4360   0.672   4.486   3.296
 1442SOL     OW 4361   0.716   4.289   3.570
 1442SOL    HW1 4362   0.735   4.354   3.644
 1442SOL    HW2 4363   0.776   4.209   3.579
 1443SOL     OW 4364   1.450   4.944   3.495
 1443SOL    HW1 4365   1.441   4.934   3.594
 1443SOL    HW2 4366   1.546   4.937   3.469
 1444SOL     OW 4367   1.674   4.607   3.116
 1444SOL    HW1 4368   1.647   4.518   3.079
 1444SOL    HW2 4369   1.675   4.675   3.043
 1445SOL     OW 4370   1.225   4.049   2.311
 1445SOL    HW1 4371   1.290   3.975   2.300
 1445SOL    HW2 4372   1.245   4.099   2.395
 1446SOL     OW 4373   0.594   4.469   2.514
 1446SOL    HW1 4374   0.644   4.554   2.495
 1446SOL    HW2 4375   0.506   4.471   2.466
 1447SOL     OW 4376   1.777   4.066   3.504
 1447SOL    HW1 4377   1.760   4.097   3.410
 1447SOL    HW2 4378   1.693   4.029   3.542
 1448SOL     OW 4379   1.730   4.658   3.379
 1448SOL    HW1 4380   1.768   4.749   3.394
 1448SOL    HW2 4381   1.722   4.641   3.280
 1449SOL     OW 4382   0.859   4.680   2.723
 1449SOL    HW1 4383   0.913   4.611   2.771
 1449SOL    HW2 4384   0.827   4.749   2.789
 1450SOL     OW 4385   1.083   4.708   1.949
 1450SOL    HW1 4386   1.060   4.761   1.867
 1450SOL    HW2 4387   1.164   4.652   1.930
 1451SOL     OW 4388   0.079   4.964   2.515
 1451SOL    HW1 4389   0.078   4.917   2.603
 1451SOL    HW2 4390   0.161   4.936   2.464
 1452SOL     OW 4391   1.824   3.916   3.089
 1452SOL    HW1 4392   1.820   3.826   3.133
 1452SOL    HW2 4393   1.827   3.905   2.990
 1453SOL     OW 4394   0.428   4.148   2.382
 1453SOL    HW1 4395   0.458   4.076   2.320
 1453SOL    HW2 4396   0.389   4.108   2.465
 1454SOL     OW 4397   0.317   4.271   3.142
 1454SOL    HW1 4398   0.355   4.212   3.214
 1454SOL    HW2 4399   0.357   4.245   3.054
 1455SOL     OW 4400   1.424   3.938   2.974
 1455SOL    HW1 4401   1.476   3.873   3.029
 1455SOL    HW2 4402   1.375   4.001   3.035
 1456SOL     OW 4403   1.001   3.758   3.016
 1456SOL    HW1 4404   0.938   3.686   2.985
 1456SOL    HW2 4405   1.094   3.722   3.016
 1457SOL     OW 4406   0.770   5.054   2.163
 1457SOL    HW1 4407   0.724   4.967   2.180
 1457SOL    HW2 4408   0.861   5.051   2.204
 1458SOL     OW 4409   1.352   3.776   2.030
 1458SOL    HW1 4410   1.387   3.735   1.946
 1458SOL    HW2 4411   1.262   3.738   2.050
 1459SOL     OW 4412   1.300   4.177   2.553
 1459SOL    HW1 4413   1.241   4.257   2.557
 1459SOL    HW2 4414   1.315   4.142   2.646
 1460SOL     OW 4415   1.593   3.945   2.744
 1460SOL    HW1 4416   1.509   3.944   2.798
 1460SOL    HW2 4417   1.595   4.028   2.688
 1461SOL     OW 4418   0.039   4.801   2.162
 1461SOL    HW1 4419   0.138   4.790   2.153
 1461SOL    HW2 4420  -0.001   4.715   2.194
 1462SOL     OW 4421   0.230   4.352   3.837
 1462SOL    HW1 4422   0.137   4.350   3.874
 1462SOL    HW2 4423   0.231   4.313   3.745
 1463SOL     OW 4424   0.225   3.999   4.720
 1463SOL    HW1 4425   0.260   3.982   4.812
 1463SOL    HW2 4426   0.137   3.954   4.708
 1464SOL     OW 4427   0.019   4.092   4.371
 1464SOL    HW1 4428  -0.063   4.135   4.410
 1464SOL    HW2 4429  -0.009   4.019   4.308
 1465SOL     OW 4430   1.555   5.235   4.427
 1465SOL    HW1 4431   1.498   5.219   4.508
 1465SOL    HW2 4432   1.496   5.245   4.347
 1466SOL     OW 4433   1.135   4.427   4.441
 1466SOL    HW1 4434   1.192   4.505   4.416
 1466SOL    HW2 4435   1.075   4.453   4.517
 1467SOL     OW 4436   1.755   4.331   3.955
 1467SOL    HW1 4437   1.743   4.318   3.856
 1467SOL    HW2 4438   1.725   4.250   4.004
 1468SOL     OW 4439   0.768   4.868   4.747
 1468SOL    HW1 4440   0.690   4.885   4.807
 1468SOL    HW2 4441   0.802   4.955   4.711
 1469SOL     OW 4442   0.685   4.736   4.389
 1469SOL    HW1 4443   0.754   4.720   4.459
 1469SOL    HW2 4444   0.612   4.793   4.427
 1470SOL     OW 4445   0.335   5.159   4.785
 1470SOL    HW1 4446   0.257   5.128   4.732
 1470SOL    HW2 4447   0.393   5.217   4.728
 1471SOL     OW 4448   1.603   4.171   4.461
 1471SOL    HW1 4449   1.529   4.217   4.411
 1471SOL    HW2 4450   1.654   4.239   4.514
 1472SOL     OW 4451   0.240   4.815   4.610
 1472SOL    HW1 4452   0.254   4.731   4.662
 1472SOL    HW2 4453   0.185   4.879   4.665
 1473SOL     OW 4454   0.606   4.688   3.847
 1473SOL    HW1 4455   0.613   4.772   3.793
 1473SOL    HW2 4456   0.652   4.701   3.935
 1474SOL     OW 4457   0.122   4.367   4.287
 1474SOL    HW1 4458   0.077   4.279   4.304
 1474SOL    HW2 4459   0.121   4.421   4.371
 1475SOL     OW 4460   1.689   4.646   4.336
 1475SOL    HW1 4461   1.784   4.617   4.344
 1475SOL    HW2 4462   1.681   4.711   4.261
 1476SOL     OW 4463   1.641   4.832   4.156
 1476SOL    HW1 4464   1.727   4.834   4.104
 1476SOL    HW2 4465   1.655   4.879   4.244
 1477SOL     OW 4466   0.809   3.728   4.226
 1477SOL    HW1 4467   0.849   3.819   4.217
 1477SOL    HW2 4468   0.709   3.736   4.232
 1478SOL     OW 4469   0.197   4.700   4.988
 1478SOL    HW1 4470   0.286   4.655   4.974
 1478SOL    HW2 4471   0.124   4.635   4.969
 1479SOL     OW 4472   1.525   4.723   3.914
 1479SOL    HW1 4473   1.462   4.647   3.927
 1479SOL    HW2 4474   1.573   4.741   4.000
 1480SOL     OW 4475   1.466   5.141   4.677
 1480SOL    HW1 4476   1.407   5.147   4.757
 1480SOL    HW2 4477   1.451   5.053   4.631
 1481SOL     OW 4478   0.598   4.453   3.994
 1481SOL    HW1 4479   0.622   4.522   3.926
 1481SOL    HW2 4480   0.520   4.486   4.048
 1482SOL     OW 4481   1.281   4.069   4.668
 1482SOL    HW1 4482   1.195   4.019   4.655
 1482SOL    HW2 4483   1.343   4.015   4.724
 1483SOL     OW 4484   0.991   4.134   4.966
 1483SOL    HW1 4485   0.914   4.168   5.020
 1483SOL    HW2 4486   0.957   4.083   4.887
 1484SOL     OW 4487   1.041   4.425   4.153
 1484SOL    HW1 4488   1.067   4.421   4.249
 1484SOL    HW2 4489   0.956   4.374   4.139
 1485SOL     OW 4490   0.076   4.535   4.513
 1485SOL    HW1 4491   0.175   4.523   4.522
 1485SOL    HW2 4492   0.052   4.630   4.534
 1486SOL     OW 4493   0.865   4.072   3.919
 1486SOL    HW1 4494   0.924   4.135   3.870
 1486SOL    HW2 4495   0.884   3.978   3.890
 1487SOL     OW 4496   1.362   4.868   4.269
 1487SOL    HW1 4497   1.445   4.839   4.221
 1487SOL    HW2 4498   1.313   4.935   4.213
 1488SOL     OW 4499   0.550   3.920   4.609
 1488SOL    HW1 4500   0.545   3.915   4.709
 1488SOL    HW2 4501   0.552   4.016   4.580
 1489SOL     OW 4502   1.795   4.790   4.597
 1489SOL    HW1 4503   1.733   4.775   4.521
 1489SOL    HW2 4504   1.743   4.801   4.682
 1490SOL     OW 4505   0.321   4.667   3.966
 1490SOL    HW1 4506   0.403   4.706   3.924
 1490SOL    HW2 4507   0.294   4.585   3.917
 1491SOL     OW 4508   1.458   4.459   4.452
 1491SOL    HW1 4509   1.453   4.394   4.527
 1491SOL    HW2 4510   1.538   4.518   4.465
 1492SOL     OW 4511   1.632   5.101   3.805
 1492SOL    HW1 4512   1.600   5.195   3.795
 1492SOL    HW2 4513   1.556   5.038   3.793
 1493SOL     OW 4514   1.400   3.831   4.150
 1493SOL    HW1 4515   1.376   3.794   4.060
 1493SOL    HW2 4516   1.499   3.847   4.154
 1494SOL     OW 4517   0.382   4.424   4.204
 1494SOL    HW1 4518   0.427   4.334   4.201
 1494SOL    HW2 4519   0.288   4.413   4.237
 1495SOL     OW 4520   0.614   3.846   3.841
 1495SOL    HW1 4521   0.712   3.824   3.848
 1495SOL    HW2 4522   0.583   3.829   3.748
 1496SOL     OW 4523   0.803   5.126   4.648
 1496SOL    HW1 4524   0.893   5.140   4.606
 1496SOL    HW2 4525   0.732   5.128   4.577
 1497SOL     OW 4526   0.922   4.227   4.623
 1497SOL    HW1 4527   0.897   4.218   4.527
 1497SOL    HW2 4528   0.970   4.145   4.654
 1498SOL     OW 4529   0.539   3.788   4.236
 1498SOL    HW1 4530   0.458   3.789   4.294
 1498SOL    HW2 4531   0.542   3.871   4.181
 1499SOL     OW 4532   1.434   4.912   3.765
 1499SOL    HW1 4533   1.466   4.836   3.822
 1499SOL    HW2 4534   1.342   4.939   3.795
 1500SOL     OW 4535   0.297   3.759   3.895
 1500SOL    HW1 4536   0.346   3.843   3.874
 1500SOL    HW2 4537   0.359   3.694   3.940
 1501SOL     OW 4538   0.935   3.960   4.204
 1501SOL    HW1 4539   0.887   4.001   4.126
 1501SOL    HW2 4540   1.034   3.958   4.185
 1502SOL     OW 4541   0.459   4.876   4.465
 1502SOL    HW1 4542   0.388   4.849   4.530
 1502SOL    HW2 4543   0.433   4.848   4.372
 1503SOL     OW 4544   1.032   4.273   3.740
 1503SOL    HW1 4545   0.991   4.355   3.701
 1503SOL    HW2 4546   1.096   4.299   3.813
 1504SOL     OW 4547   0.561   3.946   4.871
 1504SOL    HW1 4548   0.599   3.862   4.908
 1504SOL    HW2 4549   0.473   3.965   4.915
 1505SOL     OW 4550   0.866   4.178   4.366
 1505SOL    HW1 4551   0.834   4.250   4.304
 1505SOL    HW2 4552   0.890   4.097   4.313
 1506SOL     OW 4553   1.017   3.763   4.477
 1506SOL    HW1 4554   0.945   3.768   4.408
 1506SOL    HW2 4555   0.993   3.694   4.546
 1507SOL     OW 4556   1.429   4.897   4.591
 1507SOL    HW1 4557   1.374   4.813   4.584
 1507SOL    HW2 4558   1.455   4.926   4.499
 1508SOL     OW 4559   1.466   4.314   4.716
 1508SOL    HW1 4560   1.436   4.219   4.723
 1508SOL    HW2 4561   1.539   4.330   4.782
 1509SOL     OW 4562   1.857   4.557   4.101
 1509SOL    HW1 4563   1.899   4.493   4.165
 1509SOL    HW2 4564   1.819   4.506   4.023
 1510SOL     OW 4565   1.664   5.004   4.381
 1510SOL    HW1 4566   1.763   5.012   4.395
 1510SOL    HW2 4567   1.619   5.088   4.412
 1511SOL     OW 4568   1.390   4.299   3.802
 1511SOL    HW1 4569   1.336   4.278   3.883
 1511SOL    HW2 4570   1.481   4.258   3.811
 1512SOL     OW 4571   0.527   3.980   4.052
 1512SOL    HW1 4572   0.554   3.921   3.977
 1512SOL    HW2 4573   0.527   4.075   4.021
 1513SOL     OW 4574   1.638   4.823   4.803
 1513SOL    HW1 4575   1.643   4.904   4.862
 1513SOL    HW2 4576   1.552   4.825   4.752
 1514SOL     OW 4577   0.705   4.774   4.092
 1514SOL    HW1 4578   0.691   4.781   4.191
 1514SOL    HW2 4579   0.789   4.723   4.074
 1515SOL     OW 4580   0.410   4.537   4.975
 1515SOL    HW1 4581   0.496   4.549   5.025
 1515SOL    HW2 4582   0.368   4.450   5.002
 1516SOL     OW 4583   1.274   4.110   4.986
 1516SOL    HW1 4584   1.295   4.184   5.050
 1516SOL    HW2 4585   1.185   4.127   4.943
 1517SOL     OW 4586   0.367   4.824   4.225
 1517SOL    HW1 4587   0.360   4.907   4.169
 1517SOL    HW2 4588   0.371   4.744   4.165
 1518SOL     OW 4589   0.566   4.261   4.589
 1518SOL    HW1 4590   0.578   4.327   4.515
 1518SOL    HW2 4591   0.612   4.295   4.672
 1519SOL     OW 4592   1.582   4.363   4.196
 1519SOL    HW1 4593   1.551   4.424   4.269
 1519SOL    HW2 4594   1.632   4.415   4.127
 1520SOL     OW 4595   0.573   4.594   4.753
 1520SOL    HW1 4596   0.617   4.683   4.744
 1520SOL    HW2 4597   0.510   4.594   4.830
 1521SOL     OW 4598   1.360   4.586   4.769
 1521SOL    HW1 4599   1.285   4.586   4.703
 1521SOL    HW2 4600   1.397   4.494   4.778
 1522SOL     OW 4601   1.209   4.249   3.999
 1522SOL    HW1 4602   1.222   4.165   4.053
 1522SOL    HW2 4603   1.180   4.323   4.059
 1523SOL     OW 4604   0.307   3.937   4.955
 1523SOL    HW1 4605   0.284   3.974   5.045
 1523SOL    HW2 4606   0.277   3.842   4.949
 1524SOL     OW 4607   0.037   5.034   5.006
 1524SOL    HW1 4608   0.090   4.985   5.074
 1524SOL    HW2 4609   0.059   5.132   5.011
 1525SOL     OW 4610   0.732   4.358   4.788
 1525SOL    HW1 4611   0.791   4.332   4.712
 1525SOL    HW2 4612   0.704   4.454   4.777
 1526SOL     OW 4613   0.307   3.787   4.342
 1526SOL    HW1 4614   0.296   3.881   4.375
 1526SOL    HW2 4615   0.302   3.724   4.419
 1527SOL     OW 4616   1.622   4.091   4.098
 1527SOL    HW1 4617   1.624   4.015   4.162
 1527SOL    HW2 4618   1.574   4.168   4.138
 1528SOL     OW 4619   1.023   4.490   4.690
 1528SOL    HW1 4620   1.038   4.511   4.786
 1528SOL    HW2 4621   0.993   4.395   4.681
 1529SOL     OW 4622   1.540   3.998   3.849
 1529SOL    HW1 4623   1.479   3.923   3.872
 1529SOL    HW2 4624   1.562   4.050   3.932
 1530SOL     OW 4625   1.303   4.562   3.766
 1530SOL    HW1 4626   1.337   4.469   3.781
 1530SOL    HW2 4627   1.321   4.589   3.671
 1531SOL     OW 4628   0.319   4.534   4.673
 1531SOL    HW1 4629   0.412   4.570   4.678
 1531SOL    HW2 4630   0.313   4.449   4.725
 1532SOL     OW 4631   0.339   4.233   4.730
 1532SOL    HW1 4632   0.287   4.150   4.713
 1532SOL    HW2 4633   0.416   4.238   4.666
 1533SOL     OW 4634   1.160   3.931   5.201
 1533SOL    HW1 4635   1.160   3.995   5.278
 1533SOL    HW2 4636   1.188   3.979   5.118
 1534SOL     OW 4637   0.008   5.050   3.924
 1534SOL    HW1 4638  -0.085   5.071   3.893
 1534SOL    HW2 4639   0.018   4.951   3.937
 1535SOL     OW 4640   1.002   4.520   4.962
 1535SOL    HW1 4641   1.043   4.488   5.048
 1535SOL    HW2 4642   0.906   4.493   4.959
 1536SOL     OW 4643   0.040   4.268   4.838
 1536SOL    HW1 4644   0.125   4.235   4.797
 1536SOL    HW2 4645   0.053   4.283   4.936
 1537SOL     OW 4646   0.815   4.296   4.049
 1537SOL    HW1 4647   0.822   4.207   4.003
 1537SOL    HW2 4648   0.721   4.330   4.041
 1538SOL     OW 4649   1.657   4.328   4.930
 1538SOL    HW1 4650   1.619   4.259   4.992
 1538SOL    HW2 4651   1.739   4.292   4.886
 1539SOL     OW 4652   0.671   4.188   4.993
 1539SOL    HW1 4653   0.637   4.099   4.963
 1539SOL    HW2 4654   0.697   4.242   4.913
 1540SOL     OW 4655   0.473   4.224   3.915
 1540SOL    HW1 4656   0.534   4.304   3.919
 1540SOL    HW2 4657   0.378   4.255   3.922
 1541SOL     OW 4658   1.347   4.783   4.958
 1541SOL    HW1 4659   1.371   4.720   4.884
 1541SOL    HW2 4660   1.257   4.823   4.940
 1542SOL     OW 4661   1.302   4.579   4.033
 1542SOL    HW1 4662   1.216   4.548   4.075
 1542SOL    HW2 4663   1.298   4.565   3.934
 1543SOL     OW 4664   0.083   4.982   4.746
 1543SOL    HW1 4665   0.078   4.981   4.846
 1543SOL    HW2 4666   0.000   4.941   4.708
 1544SOL     OW 4667   1.726   3.859   4.247
 1544SOL    HW1 4668   1.799   3.842   4.180
 1544SOL    HW2 4669   1.695   3.772   4.285
 1545SOL     OW 4670   1.280   4.651   4.396
 1545SOL    HW1 4671   1.340   4.570   4.398
 1545SOL    HW2 4672   1.320   4.720   4.336
 1546SOL     OW 4673   1.841   3.899   4.687
 1546SOL    HW1 4674   1.880   3.814   4.651
 1546SOL    HW2 4675   1.743   3.901   4.668
 1547SOL     OW 4676   0.263   4.050   4.444
 1547SOL    HW1 4677   0.184   4.101   4.410
 1547SOL    HW2 4678   0.254   4.035   4.542
 1548SOL     OW 4679   1.194   5.336   3.755
 1548SOL    HW1 4680   1.200   5.243   3.792
 1548SOL    HW2 4681   1.135   5.336   3.675
 1549SOL     OW 4682   0.822   4.726   5.096
 1549SOL    HW1 4683   0.862   4.725   5.004
 1549SOL    HW2 4684   0.832   4.818   5.136
 1550SOL     OW 4685   0.916   4.634   4.015
 1550SOL    HW1 4686   0.979   4.672   3.947
 1550SOL    HW2 4687   0.956   4.551   4.054
 1551SOL     OW 4688   1.039   4.822   4.420
 1551SOL    HW1 4689   0.969   4.775   4.474
 1551SOL    HW2 4690   1.098   4.754   4.377
 1552SOL     OW 4691   1.014   3.960   4.695
 1552SOL    HW1 4692   1.006   3.924   4.602
 1552SOL    HW2 4693   1.012   3.884   4.760
 1553SOL     OW 4694   1.709   4.109   5.105
 1553SOL    HW1 4695   1.782   4.178   5.109
 1553SOL    HW2 4696   1.737   4.034   5.046
 1554SOL     OW 4697   0.075   4.069   3.757
 1554SOL    HW1 4698  -0.017   4.041   3.728
 1554SOL    HW2 4699   0.106   4.146   3.701
 1555SOL     OW 4700   0.072   3.890   4.042
 1555SOL    HW1 4701   0.055   3.973   3.988
 1555SOL    HW2 4702   0.162   3.853   4.020
 1556SOL     OW 4703   1.450   4.944   5.357
 1556SOL    HW1 4704   1.441   4.934   5.456
 1556SOL    HW2 4705   1.546   4.937   5.331
 1557SOL     OW 4706   1.674   4.607   4.978
 1557SOL    HW1 4707   1.647   4.518   4.941
 1557SOL    HW2 4708   1.675   4.675   4.905
 1558SOL     OW 4709   1.225   4.049   4.173
 1558SOL    HW1 4710   1.290   3.975   4.162
 1558SOL    HW2 4711   1.245   4.099   4.257
 1559SOL     OW 4712   0.594   4.469   4.376
 1559SOL    HW1 4713   0.644   4.554   4.357
 1559SOL    HW2 4714   0.506   4.471   4.328
 1560SOL     OW 4715   1.730   4.658   5.241
 1560SOL    HW1 4716   1.768   4.749   5.256
 1560SOL    HW2 4717   1.722   4.641   5.142
 1561SOL     OW 4718   0.859   4.680   4.585
 1561SOL    HW1 4719   0.913   4.611   4.633
 1561SOL    HW2 4720   0.827   4.749   4.651
 1562SOL     OW 4721   1.083   4.708   3.811
 1562SOL    HW1 4722   1.060   4.761   3.729
 1562SOL    HW2 4723   1.164   4.652   3.792
 1563SOL     OW 4724   0.079   4.964   4.377
 1563SOL    HW1 4725   0.078   4.917   4.465
 1563SOL    HW2 4726   0.161   4.936   4.326
 1564SOL     OW 4727   1.824   3.916   4.951
 1564SOL    HW1 4728   1.820   3.826   4.995
 1564SOL    HW2 4729   1.827   3.905   4.852
 1565SOL     OW 4730   0.428   4.148   4.244
 1565SOL    HW1 4731   0.458   4.076   4.182
 1565SOL    HW2 4732   0.389   4.108   4.327
 1566SOL     OW 4733   1.424   3.938   4.836
 1566SOL    HW1 4734   1.476   3.873   4.891
 1566SOL    HW2 4735   1.375   4.001   4.897
 1567SOL     OW 4736   1.001   3.758   4.878
 1567SOL    HW1 4737   0.938   3.686   4.847
 1567SOL    HW2 4738   1.094   3.722   4.878
 1568SOL     OW 4739   0.770   5.054   4.025
 1568SOL    HW1 4740   0.724   4.967   4.042
 1568SOL    HW2 4741   0.861   5.051   4.066
 1569SOL     OW 4742   1.352   3.776   3.892
 1569SOL    HW1 4743   1.387   3.735   3.808
 1569SOL    HW2 4744   1.262   3.738   3.912
 1570SOL     OW 4745   1.300   4.177   4.415
 1570SOL    HW1 4746   1.241   4.257   4.419
 1570SOL    HW2 4747   1.315   4.142   4.508
 1571SOL     OW 4748   1.593   3.945   4.606
 1571SOL    HW1 4749   1.509   3.944   4.660
 1571SOL    HW2 4750   1.595   4.028   4.550
 1572SOL     OW 4751   0.039   4.801   4.024
 1572SOL    HW1 4752   0.138   4.790   4.015
 1572SOL    HW2 4753  -0.001   4.715   4.056
 1573SOL     OW 4754   2.092   0.628   0.113
 1573SOL    HW1 4755   1.999   0.626   0.150
 1573SOL    HW2 4756   2.093   0.589   0.021
 1574SOL     OW 4757   2.087   0.275   0.996
 1574SOL    HW1 4758   2.122   0.258   1.088
 1574SOL    HW2 4759   1.999   0.230   0.984
 1575SOL     OW 4760   1.881   0.368   0.647
 1575SOL    HW1 4761   1.799   0.411   0.686
 1575SOL    HW2 4762   1.853   0.295   0.584
 1576SOL     OW 4763   2.431   1.275   1.165
 1576SOL    HW1 4764   2.338   1.268   1.128
 1576SOL    HW2 4765   2.442   1.364   1.209
 1577SOL     OW 4766   3.417   1.511   0.703
 1577SOL    HW1 4767   3.360   1.495   0.784
 1577SOL    HW2 4768   3.358   1.521   0.623
 1578SOL     OW 4769   2.997   0.703   0.717
 1578SOL    HW1 4770   3.054   0.781   0.692
 1578SOL    HW2 4771   2.937   0.729   0.793
 1579SOL     OW 4772   3.617   0.607   0.231
 1579SOL    HW1 4773   3.605   0.594   0.132
 1579SOL    HW2 4774   3.587   0.526   0.280
 1580SOL     OW 4775   2.630   1.144   1.023
 1580SOL    HW1 4776   2.552   1.161   1.083
 1580SOL    HW2 4777   2.664   1.231   0.987
 1581SOL     OW 4778   2.712   0.798   1.823
 1581SOL    HW1 4779   2.708   0.874   1.888
 1581SOL    HW2 4780   2.734   0.834   1.732
 1582SOL     OW 4781   2.547   1.012   0.665
 1582SOL    HW1 4782   2.616   0.996   0.735
 1582SOL    HW2 4783   2.474   1.069   0.703
 1583SOL     OW 4784   2.548   1.161   1.803
 1583SOL    HW1 4785   2.608   1.240   1.817
 1583SOL    HW2 4786   2.462   1.192   1.762
 1584SOL     OW 4787   2.197   1.435   1.061
 1584SOL    HW1 4788   2.119   1.404   1.008
 1584SOL    HW2 4789   2.255   1.493   1.004
 1585SOL     OW 4790   3.322   1.505   1.339
 1585SOL    HW1 4791   3.346   1.599   1.365
 1585SOL    HW2 4792   3.306   1.451   1.421
 1586SOL     OW 4793   2.300   0.392   1.499
 1586SOL    HW1 4794   2.382   0.336   1.508
 1586SOL    HW2 4795   2.219   0.334   1.503
 1587SOL     OW 4796   3.465   0.447   0.737
 1587SOL    HW1 4797   3.391   0.493   0.687
 1587SOL    HW2 4798   3.516   0.515   0.790
 1588SOL     OW 4799   2.093   1.713   0.483
 1588SOL    HW1 4800   2.127   1.790   0.537
 1588SOL    HW2 4801   2.137   1.713   0.393
 1589SOL     OW 4802   2.989   1.341   1.690
 1589SOL    HW1 4803   3.036   1.341   1.778
 1589SOL    HW2 4804   2.941   1.254   1.679
 1590SOL     OW 4805   2.092   1.434   0.538
 1590SOL    HW1 4806   2.066   1.530   0.538
 1590SOL    HW2 4807   2.021   1.380   0.583
 1591SOL     OW 4808   2.102   1.091   0.886
 1591SOL    HW1 4809   2.116   1.007   0.938
 1591SOL    HW2 4810   2.047   1.155   0.941
 1592SOL     OW 4811   2.482   1.786   1.439
 1592SOL    HW1 4812   2.390   1.769   1.474
 1592SOL    HW2 4813   2.510   1.878   1.465
 1593SOL     OW 4814   2.468   0.964   0.123
 1593SOL    HW1 4815   2.475   1.048   0.069
 1593SOL    HW2 4816   2.514   0.977   0.211
 1594SOL     OW 4817   3.456   0.114   1.480
 1594SOL    HW1 4818   3.438   0.181   1.408
 1594SOL    HW2 4819   3.453   0.160   1.569
 1595SOL     OW 4820   1.984   0.643   0.563
 1595SOL    HW1 4821   1.939   0.555   0.580
 1595SOL    HW2 4822   1.983   0.697   0.647
 1596SOL     OW 4823   3.704   1.767   0.359
 1596SOL    HW1 4824   3.758   1.738   0.439
 1596SOL    HW2 4825   3.734   1.857   0.330
 1597SOL     OW 4826   1.889   1.596   0.117
 1597SOL    HW1 4827   1.870   1.500   0.138
 1597SOL    HW2 4828   1.856   1.654   0.192
 1598SOL     OW 4829   3.551   0.922   0.612
 1598SOL    HW1 4830   3.646   0.893   0.620
 1598SOL    HW2 4831   3.543   0.987   0.537
 1599SOL     OW 4832   3.503   1.108   0.432
 1599SOL    HW1 4833   3.589   1.110   0.380
 1599SOL    HW2 4834   3.517   1.155   0.520
 1600SOL     OW 4835   1.975   0.737   1.597
 1600SOL    HW1 4836   2.063   0.724   1.642
 1600SOL    HW2 4837   1.962   0.834   1.575
 1601SOL     OW 4838   2.475   1.365   0.726
 1601SOL    HW1 4839   2.426   1.278   0.735
 1601SOL    HW2 4840   2.452   1.408   0.639
 1602SOL     OW 4841   3.155   1.228   1.423
 1602SOL    HW1 4842   3.192   1.155   1.365
 1602SOL    HW2 4843   3.207   1.233   1.508
 1603SOL     OW 4844   2.671   0.004   0.502
 1603SOL    HW1 4845   2.711   0.095   0.493
 1603SOL    HW2 4846   2.571   0.012   0.508
 1604SOL     OW 4847   2.059   0.976   1.264
 1604SOL    HW1 4848   2.148   0.931   1.250
 1604SOL    HW2 4849   1.986   0.911   1.245
 1605SOL     OW 4850   3.387   0.999   0.190
 1605SOL    HW1 4851   3.324   0.923   0.203
 1605SOL    HW2 4852   3.435   1.017   0.276
 1606SOL     OW 4853   3.049   1.792   1.616
 1606SOL    HW1 4854   3.073   1.852   1.540
 1606SOL    HW2 4855   3.056   1.697   1.586
 1607SOL     OW 4856   2.179   0.251   1.801
 1607SOL    HW1 4857   2.250   0.322   1.807
 1607SOL    HW2 4858   2.091   0.290   1.829
 1608SOL     OW 4859   3.328   1.417   0.953
 1608SOL    HW1 4860   3.269   1.423   1.033
 1608SOL    HW2 4861   3.313   1.329   0.907
 1609SOL     OW 4862   3.529   1.714   0.572
 1609SOL    HW1 4863   3.488   1.691   0.484
 1609SOL    HW2 4864   3.511   1.640   0.637
 1610SOL     OW 4865   2.460   0.729   0.270
 1610SOL    HW1 4866   2.484   0.798   0.202
 1610SOL    HW2 4867   2.382   0.762   0.324
 1611SOL     OW 4868   3.143   0.345   0.944
 1611SOL    HW1 4869   3.057   0.295   0.931
 1611SOL    HW2 4870   3.205   0.291   1.000
 1612SOL     OW 4871   3.438   1.662   0.307
 1612SOL    HW1 4872   3.527   1.708   0.310
 1612SOL    HW2 4873   3.417   1.638   0.212
 1613SOL     OW 4874   2.669   0.605   1.465
 1613SOL    HW1 4875   2.622   0.602   1.554
 1613SOL    HW2 4876   2.618   0.550   1.399
 1614SOL     OW 4877   3.256   0.469   1.674
 1614SOL    HW1 4878   3.236   0.512   1.762
 1614SOL    HW2 4879   3.334   0.407   1.683
 1615SOL     OW 4880   2.835   0.890   1.572
 1615SOL    HW1 4881   2.881   0.806   1.543
 1615SOL    HW2 4882   2.779   0.924   1.497
 1616SOL     OW 4883   2.853   0.410   1.242
 1616SOL    HW1 4884   2.776   0.444   1.296
 1616SOL    HW2 4885   2.819   0.359   1.163
 1617SOL     OW 4886   2.903   0.701   0.429
 1617SOL    HW1 4887   2.929   0.697   0.525
 1617SOL    HW2 4888   2.818   0.650   0.415
 1618SOL     OW 4889   1.938   0.811   0.789
 1618SOL    HW1 4890   2.037   0.799   0.798
 1618SOL    HW2 4891   1.914   0.906   0.810
 1619SOL     OW 4892   1.992   1.821   1.571
 1619SOL    HW1 4893   1.982   1.806   1.670
 1619SOL    HW2 4894   1.906   1.857   1.535
 1620SOL     OW 4895   2.727   0.348   0.195
 1620SOL    HW1 4896   2.786   0.411   0.146
 1620SOL    HW2 4897   2.746   0.254   0.166
 1621SOL     OW 4898   3.581   0.585   1.831
 1621SOL    HW1 4899   3.555   0.674   1.795
 1621SOL    HW2 4900   3.579   0.517   1.758
 1622SOL     OW 4901   3.224   1.144   0.545
 1622SOL    HW1 4902   3.307   1.115   0.497
 1622SOL    HW2 4903   3.175   1.211   0.489
 1623SOL     OW 4904   2.412   0.196   0.885
 1623SOL    HW1 4905   2.407   0.191   0.985
 1623SOL    HW2 4906   2.414   0.292   0.856
 1624SOL     OW 4907   2.870   1.456   0.477
 1624SOL    HW1 4908   2.824   1.528   0.425
 1624SOL    HW2 4909   2.866   1.476   0.575
 1625SOL     OW 4910   2.213   1.801   0.853
 1625SOL    HW1 4911   2.263   1.715   0.859
 1625SOL    HW2 4912   2.278   1.878   0.850
 1626SOL     OW 4913   3.657   1.066   0.873
 1626SOL    HW1 4914   3.595   1.051   0.797
 1626SOL    HW2 4915   3.605   1.077   0.958
 1627SOL     OW 4916   3.089   1.550   1.506
 1627SOL    HW1 4917   3.095   1.473   1.570
 1627SOL    HW2 4918   3.037   1.524   1.426
 1628SOL     OW 4919   2.183   0.943   0.242
 1628SOL    HW1 4920   2.265   0.982   0.200
 1628SOL    HW2 4921   2.156   0.861   0.193
 1629SOL     OW 4922   3.320   0.735   0.728
 1629SOL    HW1 4923   3.315   0.670   0.803
 1629SOL    HW2 4924   3.400   0.794   0.741
 1630SOL     OW 4925   2.323   1.266   1.727
 1630SOL    HW1 4926   2.273   1.267   1.641
 1630SOL    HW2 4927   2.260   1.248   1.803
 1631SOL     OW 4928   2.973   1.776   0.237
 1631SOL    HW1 4929   2.913   1.714   0.287
 1631SOL    HW2 4930   3.004   1.732   0.152
 1632SOL     OW 4931   2.064   0.285   1.498
 1632SOL    HW1 4932   1.984   0.345   1.485
 1632SOL    HW2 4933   2.054   0.236   1.584
 1633SOL     OW 4934   3.494   1.377   0.081
 1633SOL    HW1 4935   3.462   1.471   0.071
 1633SOL    HW2 4936   3.418   1.314   0.069
 1634SOL     OW 4937   2.326   1.743   0.323
 1634SOL    HW1 4938   2.359   1.782   0.409
 1634SOL    HW2 4939   2.402   1.736   0.258
 1635SOL     OW 4940   3.262   0.107   0.426
 1635SOL    HW1 4941   3.238   0.070   0.336
 1635SOL    HW2 4942   3.361   0.123   0.430
 1636SOL     OW 4943   2.111   1.785   1.241
 1636SOL    HW1 4944   2.168   1.720   1.291
 1636SOL    HW2 4945   2.095   1.752   1.148
 1637SOL     OW 4946   2.802   1.698   0.904
 1637SOL    HW1 4947   2.882   1.641   0.925
 1637SOL    HW2 4948   2.753   1.658   0.827
 1638SOL     OW 4949   2.244   0.700   0.480
 1638SOL    HW1 4950   2.289   0.610   0.477
 1638SOL    HW2 4951   2.150   0.689   0.513
 1639SOL     OW 4952   3.409   0.222   1.729
 1639SOL    HW1 4953   3.404   0.259   1.821
 1639SOL    HW2 4954   3.337   0.153   1.717
 1640SOL     OW 4955   2.476   0.122   0.117
 1640SOL    HW1 4956   2.574   0.100   0.124
 1640SOL    HW2 4957   2.445   0.105   0.024
 1641SOL     OW 4958   2.643   0.264   1.749
 1641SOL    HW1 4959   2.710   0.203   1.792
 1641SOL    HW2 4960   2.570   0.283   1.814
 1642SOL     OW 4961   2.750   1.514   1.195
 1642SOL    HW1 4962   2.727   1.489   1.101
 1642SOL    HW2 4963   2.811   1.445   1.234
 1643SOL     OW 4964   3.213   0.590   1.433
 1643SOL    HW1 4965   3.241   0.547   1.518
 1643SOL    HW2 4966   3.238   0.686   1.434
 1644SOL     OW 4967   2.665   1.402   0.924
 1644SOL    HW1 4968   2.755   1.416   0.882
 1644SOL    HW2 4969   2.594   1.404   0.853
 1645SOL     OW 4970   2.784   0.503   0.899
 1645SOL    HW1 4971   2.759   0.494   0.803
 1645SOL    HW2 4972   2.832   0.421   0.930
 1646SOL     OW 4973   2.401   0.064   0.512
 1646SOL    HW1 4974   2.320   0.065   0.570
 1646SOL    HW2 4975   2.404   0.147   0.457
 1647SOL     OW 4976   3.296   1.188   0.041
 1647SOL    HW1 4977   3.328   1.112   0.098
 1647SOL    HW2 4978   3.204   1.215   0.071
 1648SOL     OW 4979   2.159   0.035   0.171
 1648SOL    HW1 4980   2.208   0.119   0.150
 1648SOL    HW2 4981   2.221  -0.030   0.216
 1649SOL     OW 4982   2.797   0.236   0.480
 1649SOL    HW1 4983   2.749   0.277   0.402
 1649SOL    HW2 4984   2.896   0.234   0.461
 1650SOL     OW 4985   2.938   0.683   1.464
 1650SOL    HW1 4986   2.858   0.622   1.467
 1650SOL    HW2 4987   3.019   0.630   1.440
 1651SOL     OW 4988   3.089   1.570   0.793
 1651SOL    HW1 4989   3.110   1.644   0.728
 1651SOL    HW2 4990   3.157   1.570   0.866
 1652SOL     OW 4991   2.321   1.152   0.741
 1652SOL    HW1 4992   2.250   1.125   0.806
 1652SOL    HW2 4993   2.295   1.124   0.648
 1653SOL     OW 4994   3.133   1.797   0.591
 1653SOL    HW1 4995   3.177   1.861   0.527
 1653SOL    HW2 4996   3.083   1.849   0.661
 1654SOL     OW 4997   2.894   0.549   0.016
 1654SOL    HW1 4998   2.853   0.631  -0.023
 1654SOL    HW2 4999   2.958   0.575   0.089
 1655SOL     OW 5000   1.940   0.556   1.386
 1655SOL    HW1 5001   2.032   0.555   1.345
 1655SOL    HW2 5002   1.934   0.630   1.453
 1656SOL     OW 5003   2.423   0.222   1.147
 1656SOL    HW1 5004   2.461   0.138   1.184
 1656SOL    HW2 5005   2.335   0.241   1.191
 1657SOL     OW 5006   2.728   0.454   0.642
 1657SOL    HW1 5007   2.696   0.526   0.580
 1657SOL    HW2 5008   2.752   0.373   0.589
 1658SOL     OW 5009   2.879   0.039   0.753
 1658SOL    HW1 5010   2.807   0.044   0.684
 1658SOL    HW2 5011   2.855  -0.030   0.822
 1659SOL     OW 5012   3.291   1.173   0.867
 1659SOL    HW1 5013   3.236   1.089   0.860
 1659SOL    HW2 5014   3.317   1.202   0.775
 1660SOL     OW 5015   3.328   0.590   0.992
 1660SOL    HW1 5016   3.298   0.495   0.999
 1660SOL    HW2 5017   3.401   0.606   1.058
 1661SOL     OW 5018   3.719   0.833   0.377
 1661SOL    HW1 5019   3.761   0.769   0.441
 1661SOL    HW2 5020   3.681   0.782   0.299
 1662SOL     OW 5021   2.350   1.385   0.174
 1662SOL    HW1 5022   2.263   1.370   0.221
 1662SOL    HW2 5023   2.333   1.411   0.079
 1663SOL     OW 5024   3.526   1.280   0.657
 1663SOL    HW1 5025   3.625   1.288   0.671
 1663SOL    HW2 5026   3.481   1.364   0.688
 1664SOL     OW 5027   3.252   0.575   0.078
 1664SOL    HW1 5028   3.198   0.554   0.159
 1664SOL    HW2 5029   3.343   0.534   0.087
 1665SOL     OW 5030   2.389   0.256   0.328
 1665SOL    HW1 5031   2.416   0.197   0.253
 1665SOL    HW2 5032   2.389   0.351   0.297
 1666SOL     OW 5033   3.616   1.223   1.588
 1666SOL    HW1 5034   3.707   1.184   1.575
 1666SOL    HW2 5035   3.624   1.319   1.612
 1667SOL     OW 5036   2.926   1.347   1.340
 1667SOL    HW1 5037   2.846   1.324   1.395
 1667SOL    HW2 5038   3.009   1.321   1.389
 1668SOL     OW 5039   3.454   1.629   1.625
 1668SOL    HW1 5040   3.481   1.663   1.535
 1668SOL    HW2 5041   3.533   1.591   1.671
 1669SOL     OW 5042   2.973   1.195   1.100
 1669SOL    HW1 5043   2.933   1.239   1.181
 1669SOL    HW2 5044   2.932   1.232   1.017
 1670SOL     OW 5045   3.500   1.099   1.079
 1670SOL    HW1 5046   3.505   1.180   1.138
 1670SOL    HW2 5047   3.414   1.101   1.028
 1671SOL     OW 5048   2.777   0.089   1.402
 1671SOL    HW1 5049   2.802   0.069   1.307
 1671SOL    HW2 5050   2.849   0.145   1.444
 1672SOL     OW 5051   2.842   1.116   1.719
 1672SOL    HW1 5052   2.743   1.122   1.729
 1672SOL    HW2 5053   2.865   1.036   1.663
 1673SOL     OW 5054   2.567   1.050   0.368
 1673SOL    HW1 5055   2.553   1.057   0.467
 1673SOL    HW2 5056   2.651   0.999   0.350
 1674SOL     OW 5057   2.272   0.813   1.251
 1674SOL    HW1 5058   2.358   0.825   1.301
 1674SOL    HW2 5059   2.230   0.726   1.278
 1675SOL     OW 5060   3.136   0.386   1.262
 1675SOL    HW1 5061   3.157   0.460   1.326
 1675SOL    HW2 5062   3.047   0.403   1.219
 1676SOL     OW 5063   1.926   1.564   1.331
 1676SOL    HW1 5064   1.880   1.646   1.297
 1676SOL    HW2 5065   2.024   1.583   1.340
 1677SOL     OW 5066   2.229   1.100   0.501
 1677SOL    HW1 5067   2.222   1.183   0.445
 1677SOL    HW2 5068   2.233   1.020   0.441
 1678SOL     OW 5069   2.428   0.537   0.865
 1678SOL    HW1 5070   2.440   0.603   0.791
 1678SOL    HW2 5071   2.474   0.571   0.948
 1679SOL     OW 5072   3.114   1.348   0.388
 1679SOL    HW1 5073   3.164   1.425   0.428
 1679SOL    HW2 5074   3.019   1.350   0.420
 1680SOL     OW 5075   3.134   1.445   1.142
 1680SOL    HW1 5076   3.181   1.458   1.229
 1680SOL    HW2 5077   3.068   1.371   1.151
 1681SOL     OW 5078   3.444   0.639   0.472
 1681SOL    HW1 5079   3.413   0.700   0.545
 1681SOL    HW2 5080   3.494   0.691   0.403
 1682SOL     OW 5081   2.216   1.510   1.329
 1682SOL    HW1 5082   2.195   1.466   1.242
 1682SOL    HW2 5083   2.313   1.536   1.332
 1683SOL     OW 5084   2.264   0.751   1.598
 1683SOL    HW1 5085   2.332   0.806   1.551
 1683SOL    HW2 5086   2.304   0.663   1.625
 1684SOL     OW 5087   3.449   0.779   1.670
 1684SOL    HW1 5088   3.357   0.817   1.665
 1684SOL    HW2 5089   3.509   0.826   1.605
 1685SOL     OW 5090   2.875   0.105   1.770
 1685SOL    HW1 5091   2.881   0.190   1.718
 1685SOL    HW2 5092   2.907   0.029   1.713
 1686SOL     OW 5093   2.366   0.050   1.740
 1686SOL    HW1 5094   2.324  -0.007   1.670
 1686SOL    HW2 5095   2.300   0.119   1.772
 1687SOL     OW 5096   2.435   0.870   1.029
 1687SOL    HW1 5097   2.479   0.959   1.020
 1687SOL    HW2 5098   2.372   0.870   1.106
 1688SOL     OW 5099   3.222   0.862   1.045
 1688SOL    HW1 5100   3.147   0.862   0.979
 1688SOL    HW2 5101   3.259   0.770   1.054
 1689SOL     OW 5102   3.071   0.525   0.275
 1689SOL    HW1 5103   3.084   0.441   0.329
 1689SOL    HW2 5104   3.042   0.599   0.335
 1690SOL     OW 5105   2.169   0.213   1.231
 1690SOL    HW1 5106   2.146   0.250   1.321
 1690SOL    HW2 5107   2.139   0.118   1.225
 1691SOL     OW 5108   1.899   1.310   1.282
 1691SOL    HW1 5109   1.952   1.261   1.350
 1691SOL    HW2 5110   1.921   1.408   1.287
 1692SOL     OW 5111   2.594   0.634   1.064
 1692SOL    HW1 5112   2.653   0.608   0.988
 1692SOL    HW2 5113   2.566   0.730   1.053
 1693SOL     OW 5114   3.590   0.935   1.854
 1693SOL    HW1 5115   3.544   0.928   1.765
 1693SOL    HW2 5116   3.528   0.979   1.920
 1694SOL     OW 5117   2.169   0.063   0.618
 1694SOL    HW1 5118   2.158   0.157   0.651
 1694SOL    HW2 5119   2.164   0.000   0.695
 1695SOL     OW 5120   3.484   0.367   0.374
 1695SOL    HW1 5121   3.486   0.291   0.438
 1695SOL    HW2 5122   3.436   0.444   0.414
 1696SOL     OW 5123   2.885   0.766   0.966
 1696SOL    HW1 5124   2.900   0.787   1.062
 1696SOL    HW2 5125   2.855   0.671   0.957
 1697SOL     OW 5126   2.842   1.573   1.700
 1697SOL    HW1 5127   2.822   1.617   1.612
 1697SOL    HW2 5128   2.881   1.482   1.684
 1698SOL     OW 5129   3.721   1.518   1.605
 1698SOL    HW1 5130   3.735   1.545   1.510
 1698SOL    HW2 5131   3.804   1.540   1.658
 1699SOL     OW 5132   2.212   0.898   1.804
 1699SOL    HW1 5133   2.288   0.942   1.852
 1699SOL    HW2 5134   2.247   0.851   1.722
 1700SOL     OW 5135   3.402   0.274   0.125
 1700SOL    HW1 5136   3.341   0.199   0.148
 1700SOL    HW2 5137   3.424   0.326   0.208
 1701SOL     OW 5138   3.165   0.838   0.042
 1701SOL    HW1 5139   3.199   0.745   0.057
 1701SOL    HW2 5140   3.183   0.865  -0.053
 1702SOL     OW 5141   2.930   1.333   0.849
 1702SOL    HW1 5142   2.937   1.249   0.794
 1702SOL    HW2 5143   2.992   1.402   0.813
 1703SOL     OW 5144   2.181   0.810   0.949
 1703SOL    HW1 5145   2.274   0.846   0.954
 1703SOL    HW2 5146   2.175   0.725   1.001
 1704SOL     OW 5147   2.201   0.509   1.006
 1704SOL    HW1 5148   2.149   0.426   0.989
 1704SOL    HW2 5149   2.278   0.514   0.942
 1705SOL     OW 5150   3.000   0.380   1.678
 1705SOL    HW1 5151   2.955   0.443   1.742
 1705SOL    HW2 5152   3.093   0.411   1.661
 1706SOL     OW 5153   3.022   0.207   1.477
 1706SOL    HW1 5154   3.022   0.271   1.554
 1706SOL    HW2 5155   3.050   0.255   1.394
 1707SOL     OW 5156   1.950   1.801   0.927
 1707SOL    HW1 5157   1.908   1.715   0.900
 1707SOL    HW2 5158   2.044   1.804   0.893
 1708SOL     OW 5159   2.366   1.568   0.910
 1708SOL    HW1 5160   2.432   1.642   0.919
 1708SOL    HW2 5161   2.410   1.489   0.868
 1709SOL     OW 5162   2.864   0.796   1.238
 1709SOL    HW1 5163   2.905   0.764   1.324
 1709SOL    HW2 5164   2.768   0.769   1.235
 1710SOL     OW 5165   1.902   0.544   1.114
 1710SOL    HW1 5166   1.987   0.511   1.073
 1710SOL    HW2 5167   1.915   0.559   1.212
 1711SOL     OW 5168   2.051   0.520   1.722
 1711SOL    HW1 5169   2.110   0.480   1.652
 1711SOL    HW2 5170   1.993   0.591   1.681
 1712SOL     OW 5171   3.231   0.950   1.660
 1712SOL    HW1 5172   3.270   1.039   1.680
 1712SOL    HW2 5173   3.241   0.930   1.563
 1713SOL     OW 5174   2.677   0.572   0.325
 1713SOL    HW1 5175   2.684   0.483   0.279
 1713SOL    HW2 5176   2.583   0.606   0.317
 1714SOL     OW 5177   3.519   0.604   1.206
 1714SOL    HW1 5178   3.481   0.535   1.268
 1714SOL    HW2 5179   3.601   0.568   1.162
 1715SOL     OW 5180   2.114   1.564   1.744
 1715SOL    HW1 5181   2.084   1.621   1.820
 1715SOL    HW2 5182   2.107   1.467   1.770
 1716SOL     OW 5183   2.533   0.464   1.269
 1716SOL    HW1 5184   2.499   0.375   1.239
 1716SOL    HW2 5185   2.559   0.518   1.189
 1717SOL     OW 5186   2.792   1.678   1.465
 1717SOL    HW1 5187   2.768   1.660   1.370
 1717SOL    HW2 5188   2.822   1.772   1.475
 1718SOL     OW 5189   2.335   0.500   0.191
 1718SOL    HW1 5190   2.396   0.580   0.195
 1718SOL    HW2 5191   2.240   0.531   0.198
 1719SOL     OW 5192   2.021   1.137   1.466
 1719SOL    HW1 5193   2.043   1.076   1.542
 1719SOL    HW2 5194   2.031   1.088   1.380
 1720SOL     OW 5195   3.209   1.059   1.234
 1720SOL    HW1 5196   3.233   0.996   1.160
 1720SOL    HW2 5197   3.119   1.099   1.216
 1721SOL     OW 5198   3.164   0.855   0.309
 1721SOL    HW1 5199   3.078   0.824   0.351
 1721SOL    HW2 5200   3.160   0.841   0.210
 1722SOL     OW 5201   3.621   1.747   1.154
 1722SOL    HW1 5202   3.682   1.777   1.081
 1722SOL    HW2 5203   3.583   1.658   1.132
 1723SOL     OW 5204   3.114   1.731   1.128
 1723SOL    HW1 5205   3.198   1.736   1.074
 1723SOL    HW2 5206   3.091   1.635   1.146
 1724SOL     OW 5207   1.945   1.258   1.022
 1724SOL    HW1 5208   1.940   1.257   1.122
 1724SOL    HW2 5209   1.862   1.217   0.984
 1725SOL     OW 5210   2.550   1.662   1.716
 1725SOL    HW1 5211   2.494   1.743   1.725
 1725SOL    HW2 5212   2.602   1.666   1.630
 1726SOL     OW 5213   2.765   0.086   0.133
 1726SOL    HW1 5214   2.816   0.087   0.047
 1726SOL    HW2 5215   2.821   0.044   0.204
 1727SOL     OW 5216   3.588   0.135   0.523
 1727SOL    HW1 5217   3.661   0.118   0.456
 1727SOL    HW2 5218   3.557   0.048   0.561
 1728SOL     OW 5219   3.250   1.573   0.477
 1728SOL    HW1 5220   3.317   1.585   0.403
 1728SOL    HW2 5221   3.210   1.662   0.500
 1729SOL     OW 5222   1.992   1.794   1.851
 1729SOL    HW1 5223   1.951   1.720   1.904
 1729SOL    HW2 5224   2.056   1.845   1.909
 1730SOL     OW 5225   3.142   0.927   0.672
 1730SOL    HW1 5226   3.202   0.846   0.674
 1730SOL    HW2 5227   3.182   0.996   0.612
 1731SOL     OW 5228   2.692   1.273   1.422
 1731SOL    HW1 5229   2.687   1.306   1.517
 1731SOL    HW2 5230   2.606   1.292   1.376
 1732SOL     OW 5231   2.534   1.616   0.154
 1732SOL    HW1 5232   2.543   1.626   0.055
 1732SOL    HW2 5233   2.494   1.527   0.175
 1733SOL     OW 5234   3.512   1.720   1.394
 1733SOL    HW1 5235   3.565   1.730   1.310
 1733SOL    HW2 5236   3.485   1.810   1.428
 1734SOL     OW 5237   3.703   0.175   0.963
 1734SOL    HW1 5238   3.742   0.090   0.927
 1734SOL    HW2 5239   3.605   0.177   0.944
 1735SOL     OW 5240   2.125   0.326   0.720
 1735SOL    HW1 5241   2.046   0.377   0.686
 1735SOL    HW2 5242   2.116   0.311   0.818
 1736SOL     OW 5243   3.056   1.612   0.031
 1736SOL    HW1 5244   3.062   1.519   0.068
 1736SOL    HW2 5245   2.997   1.612  -0.049
 1737SOL     OW 5246   2.684   1.002   1.372
 1737SOL    HW1 5247   2.724   1.001   1.280
 1737SOL    HW2 5248   2.694   1.094   1.412
 1738SOL     OW 5249   2.778   0.910   0.291
 1738SOL    HW1 5250   2.841   0.948   0.223
 1738SOL    HW2 5251   2.818   0.827   0.330
 1739SOL     OW 5252   3.366   1.607   0.044
 1739SOL    HW1 5253   3.274   1.644   0.051
 1739SOL    HW2 5254   3.404   1.627  -0.046
 1740SOL     OW 5255   2.234   1.288   1.490
 1740SOL    HW1 5256   2.221   1.381   1.456
 1740SOL    HW2 5257   2.150   1.236   1.477
 1741SOL     OW 5258   3.476   1.292   1.289
 1741SOL    HW1 5259   3.536   1.295   1.369
 1741SOL    HW2 5260   3.401   1.356   1.302
 1742SOL     OW 5261   2.901   1.098   0.696
 1742SOL    HW1 5262   2.831   1.051   0.750
 1742SOL    HW2 5263   2.960   1.030   0.653
 1743SOL     OW 5264   2.876   0.236   0.971
 1743SOL    HW1 5265   2.868   0.200   0.878
 1743SOL    HW2 5266   2.874   0.160   1.036
 1744SOL     OW 5267   2.452   1.487   0.491
 1744SOL    HW1 5268   2.494   1.429   0.421
 1744SOL    HW2 5269   2.408   1.566   0.447
 1745SOL     OW 5270   3.571   0.385   1.381
 1745SOL    HW1 5271   3.644   0.454   1.385
 1745SOL    HW2 5272   3.599   0.310   1.322
 1746SOL     OW 5273   2.117   1.348   0.290
 1746SOL    HW1 5274   2.021   1.349   0.263
 1746SOL    HW2 5275   2.129   1.401   0.374
 1747SOL     OW 5276   1.967   1.013   1.726
 1747SOL    HW1 5277   1.890   0.980   1.780
 1747SOL    HW2 5278   2.052   0.983   1.768
 1748SOL     OW 5279   2.534   0.203   1.489
 1748SOL    HW1 5280   2.624   0.187   1.449
 1748SOL    HW2 5281   2.542   0.208   1.588
 1749SOL     OW 5282   3.302   0.856   1.398
 1749SOL    HW1 5283   3.245   0.908   1.335
 1749SOL    HW2 5284   3.398   0.868   1.374
 1750SOL     OW 5285   1.934   0.166   0.318
 1750SOL    HW1 5286   1.917   0.249   0.264
 1750SOL    HW2 5287   2.024   0.129   0.296
 1751SOL     OW 5288   3.045   1.335   0.119
 1751SOL    HW1 5289   2.946   1.324   0.121
 1751SOL    HW2 5290   3.079   1.350   0.212
 1752SOL     OW 5291   2.475   0.842   1.431
 1752SOL    HW1 5292   2.531   0.923   1.414
 1752SOL    HW2 5293   2.534   0.762   1.434
 1753SOL     OW 5294   3.355   1.767   0.959
 1753SOL    HW1 5295   3.388   1.831   0.890
 1753SOL    HW2 5296   3.421   1.761   1.034
 1754SOL     OW 5297   2.578   0.565   1.708
 1754SOL    HW1 5298   2.597   0.630   1.782
 1754SOL    HW2 5299   2.638   0.485   1.717
 1755SOL     OW 5300   3.312   1.220   1.633
 1755SOL    HW1 5301   3.303   1.210   1.732
 1755SOL    HW2 5302   3.408   1.213   1.607
 1756SOL     OW 5303   2.252   1.741   1.560
 1756SOL    HW1 5304   2.161   1.782   1.558
 1756SOL    HW2 5305   2.245   1.647   1.592
 1757SOL     OW 5306   3.536   0.883   1.254
 1757SOL    HW1 5307   3.509   0.794   1.217
 1757SOL    HW2 5308   3.537   0.951   1.181
 1758SOL     OW 5309   3.087   0.325   0.449
 1758SOL    HW1 5310   3.152   0.251   0.438
 1758SOL    HW2 5311   3.107   0.375   0.533
 1759SOL     OW 5312   2.456   0.745   0.652
 1759SOL    HW1 5313   2.506   0.830   0.633
 1759SOL    HW2 5314   2.368   0.747   0.604
 1760SOL     OW 5315   3.639   0.342   1.642
 1760SOL    HW1 5316   3.622   0.373   1.548
 1760SOL    HW2 5317   3.555   0.305   1.680
 1761SOL     OW 5318   3.592   0.934   1.517
 1761SOL    HW1 5319   3.630   1.025   1.532
 1761SOL    HW2 5320   3.584   0.917   1.418
 1762SOL     OW 5321   2.721   1.374   0.016
 1762SOL    HW1 5322   2.675   1.389   0.104
 1762SOL    HW2 5323   2.765   1.459  -0.014
 1763SOL     OW 5324   2.523   1.790   0.953
 1763SOL    HW1 5325   2.477   1.878   0.940
 1763SOL    HW2 5326   2.622   1.802   0.946
 1764SOL     OW 5327   2.721   0.956   0.861
 1764SOL    HW1 5328   2.775   0.887   0.909
 1764SOL    HW2 5329   2.689   1.025   0.927
 1765SOL     OW 5330   2.945   0.984   0.087
 1765SOL    HW1 5331   2.922   1.037   0.005
 1765SOL    HW2 5332   3.026   0.928   0.068
 1766SOL     OW 5333   3.723   1.569   0.851
 1766SOL    HW1 5334   3.652   1.557   0.781
 1766SOL    HW2 5335   3.724   1.490   0.911
 1767SOL     OW 5336   2.083   1.314   1.844
 1767SOL    HW1 5337   2.018   1.241   1.823
 1767SOL    HW2 5338   2.087   1.328   1.942
 1768SOL     OW 5339   1.941   1.240   0.653
 1768SOL    HW1 5340   1.940   1.193   0.741
 1768SOL    HW2 5341   2.023   1.212   0.602
 1769SOL     OW 5342   2.534   1.391   1.624
 1769SOL    HW1 5343   2.456   1.341   1.662
 1769SOL    HW2 5344   2.531   1.486   1.655
 1770SOL     OW 5345   3.686   0.192   1.227
 1770SOL    HW1 5346   3.682   0.102   1.271
 1770SOL    HW2 5347   3.689   0.181   1.128
 1771SOL     OW 5348   2.290   0.424   0.520
 1771SOL    HW1 5349   2.320   0.352   0.458
 1771SOL    HW2 5350   2.251   0.384   0.603
 1772SOL     OW 5351   3.567   1.487   1.104
 1772SOL    HW1 5352   3.474   1.462   1.077
 1772SOL    HW2 5353   3.593   1.437   1.186
 1773SOL     OW 5354   2.179   0.547   1.280
 1773SOL    HW1 5355   2.217   0.488   1.352
 1773SOL    HW2 5356   2.219   0.521   1.192
 1774SOL     OW 5357   2.674   1.586   0.687
 1774SOL    HW1 5358   2.706   1.596   0.593
 1774SOL    HW2 5359   2.595   1.524   0.689
 1775SOL     OW 5360   3.286   0.214   1.112
 1775SOL    HW1 5361   3.338   0.149   1.167
 1775SOL    HW2 5362   3.237   0.277   1.173
 1776SOL     OW 5363   2.863   0.034   1.154
 1776SOL    HW1 5364   2.800  -0.038   1.123
 1776SOL    HW2 5365   2.956  -0.002   1.154
 1777SOL     OW 5366   2.632   1.330   0.301
 1777SOL    HW1 5367   2.586   1.243   0.318
 1777SOL    HW2 5368   2.723   1.327   0.342
 1778SOL     OW 5369   2.480   1.567   1.284
 1778SOL    HW1 5370   2.475   1.649   1.341
 1778SOL    HW2 5371   2.569   1.564   1.239
 1779SOL     OW 5372   3.214   0.052   0.168
 1779SOL    HW1 5373   3.249   0.011   0.084
 1779SOL    HW2 5374   3.124   0.014   0.188
 1780SOL     OW 5375   3.162   0.453   0.691
 1780SOL    HW1 5376   3.103   0.533   0.695
 1780SOL    HW2 5377   3.177   0.418   0.784
 1781SOL     OW 5378   3.455   0.221   0.882
 1781SOL    HW1 5379   3.371   0.220   0.936
 1781SOL    HW2 5380   3.457   0.304   0.826
 1782SOL     OW 5381   1.901   1.077   0.300
 1782SOL    HW1 5382   2.000   1.066   0.291
 1782SOL    HW2 5383   1.861   0.991   0.332
 1783SOL     OW 5384   2.737   1.646   0.337
 1783SOL    HW1 5385   2.660   1.611   0.283
 1783SOL    HW2 5386   2.705   1.717   0.399
 1784SOL     OW 5387   2.092   0.628   1.975
 1784SOL    HW1 5388   1.999   0.626   2.012
 1784SOL    HW2 5389   2.093   0.589   1.883
 1785SOL     OW 5390   2.087   0.275   2.858
 1785SOL    HW1 5391   2.122   0.258   2.950
 1785SOL    HW2 5392   1.999   0.230   2.846
 1786SOL     OW 5393   1.881   0.368   2.509
 1786SOL    HW1 5394   1.799   0.411   2.548
 1786SOL    HW2 5395   1.853   0.295   2.446
 1787SOL     OW 5396   2.431   1.275   3.027
 1787SOL    HW1 5397   2.338   1.268   2.990
 1787SOL    HW2 5398   2.442   1.364   3.071
 1788SOL     OW 5399   3.417   1.511   2.565
 1788SOL    HW1 5400   3.360   1.495   2.646
 1788SOL    HW2 5401   3.358   1.521   2.485
 1789SOL     OW 5402   2.997   0.703   2.579
 1789SOL    HW1 5403   3.054   0.781   2.554
 1789SOL    HW2 5404   2.937   0.729   2.655
 1790SOL     OW 5405   3.617   0.607   2.093
 1790SOL    HW1 5406   3.605   0.594   1.994
 1790SOL    HW2 5407   3.587   0.526   2.142
 1791SOL     OW 5408   2.630   1.144   2.885
 1791SOL    HW1 5409   2.552   1.161   2.945
 1791SOL    HW2 5410   2.664   1.231   2.849
 1792SOL     OW 5411   2.712   0.798   3.685
 1792SOL    HW1 5412   2.708   0.874   3.750
 1792SOL    HW2 5413   2.734   0.834   3.594
 1793SOL     OW 5414   2.547   1.012   2.527
 1793SOL    HW1 5415   2.616   0.996   2.597
 1793SOL    HW2 5416   2.474   1.069   2.565
 1794SOL     OW 5417   2.548   1.161   3.665
 1794SOL    HW1 5418   2.608   1.240   3.679
 1794SOL    HW2 5419   2.462   1.192   3.624
 1795SOL     OW 5420   2.197   1.435   2.923
 1795SOL    HW1 5421   2.119   1.404   2.870
 1795SOL    HW2 5422   2.255   1.493   2.866
 1796SOL     OW 5423   3.322   1.505   3.201
 1796SOL    HW1 5424   3.346   1.599   3.227
 1796SOL    HW2 5425   3.306   1.451   3.283
 1797SOL     OW 5426   2.300   0.392   3.361
 1797SOL    HW1 5427   2.382   0.336   3.370
 1797SOL    HW2 5428   2.219   0.334   3.365
 1798SOL     OW 5429   3.465   0.447   2.599
 1798SOL    HW1 5430   3.391   0.493   2.549
 1798SOL    HW2 5431   3.516   0.515   2.652
 1799SOL     OW 5432   2.093   1.713   2.345
 1799SOL    HW1 5433   2.127   1.790   2.399
 1799SOL    HW2 5434   2.137   1.713   2.255
 1800SOL     OW 5435   2.989   1.341   3.552
 1800SOL    HW1 5436   3.036   1.341   3.640
 1800SOL    HW2 5437   2.941   1.254   3.541
 1801SOL     OW 5438   2.092   1.434   2.400
 1801SOL    HW1 5439   2.066   1.530   2.400
 1801SOL    HW2 5440   2.021   1.380   2.445
 1802SOL     OW 5441   2.102   1.091   2.748
 1802SOL    HW1 5442   2.116   1.007   2.800
 1802SOL    HW2 5443   2.047   1.155   2.803
 1803SOL     OW 5444   2.482   1.786   3.301
 1803SOL    HW1 5445   2.390   1.769   3.336
 1803SOL    HW2 5446   2.510   1.878   3.327
 1804SOL     OW 5447   2.468   0.964   1.985
 1804SOL    HW1 5448   2.475   1.048   1.931
 1804SOL    HW2 5449   2.514   0.977   2.073
 1805SOL     OW 5450   3.456   0.114   3.342
 1805SOL    HW1 5451   3.438   0.181   3.270
 1805SOL    HW2 5452   3.453   0.160   3.431
 1806SOL     OW 5453   1.984   0.643   2.425
 1806SOL    HW1 5454   1.939   0.555   2.442
 1806SOL    HW2 5455   1.983   0.697   2.509
 1807SOL     OW 5456   3.704   1.767   2.221
 1807SOL    HW1 5457   3.758   1.738   2.301
 1807SOL    HW2 5458   3.734   1.857   2.192
 1808SOL     OW 5459   1.889   1.596   1.979
 1808SOL    HW1 5460   1.870   1.500   2.000
 1808SOL    HW2 5461   1.856   1.654   2.054
 1809SOL     OW 5462   3.551   0.922   2.474
 1809SOL    HW1 5463   3.646   0.893   2.482
 1809SOL    HW2 5464   3.543   0.987   2.399
 1810SOL     OW 5465   3.503   1.108   2.294
 1810SOL    HW1 5466   3.589   1.110   2.242
 1810SOL    HW2 5467   3.517   1.155   2.382
 1811SOL     OW 5468   1.975   0.737   3.459
 1811SOL    HW1 5469   2.063   0.724   3.504
 1811SOL    HW2 5470   1.962   0.834   3.437
 1812SOL     OW 5471   2.475   1.365   2.588
 1812SOL    HW1 5472   2.426   1.278   2.597
 1812SOL    HW2 5473   2.452   1.408   2.501
 1813SOL     OW 5474   3.155   1.228   3.285
 1813SOL    HW1 5475   3.192   1.155   3.227
 1813SOL    HW2 5476   3.207   1.233   3.370
 1814SOL     OW 5477   2.671   0.004   2.364
 1814SOL    HW1 5478   2.711   0.095   2.355
 1814SOL    HW2 5479   2.571   0.012   2.370
 1815SOL     OW 5480   2.059   0.976   3.126
 1815SOL    HW1 5481   2.148   0.931   3.112
 1815SOL    HW2 5482   1.986   0.911   3.107
 1816SOL     OW 5483   3.387   0.999   2.052
 1816SOL    HW1 5484   3.324   0.923   2.065
 1816SOL    HW2 5485   3.435   1.017   2.138
 1817SOL     OW 5486   3.049   1.792   3.478
 1817SOL    HW1 5487   3.073   1.852   3.402
 1817SOL    HW2 5488   3.056   1.697   3.448
 1818SOL     OW 5489   2.179   0.251   3.663
 1818SOL    HW1 5490   2.250   0.322   3.669
 1818SOL    HW2 5491   2.091   0.290   3.691
 1819SOL     OW 5492   3.328   1.417   2.815
 1819SOL    HW1 5493   3.269   1.423   2.895
 1819SOL    HW2 5494   3.313   1.329   2.769
 1820SOL     OW 5495   3.529   1.714   2.434
 1820SOL    HW1 5496   3.488   1.691   2.346
 1820SOL    HW2 5497   3.511   1.640   2.499
 1821SOL     OW 5498   2.460   0.729   2.132
 1821SOL    HW1 5499   2.484   0.798   2.064
 1821SOL    HW2 5500   2.382   0.762   2.186
 1822SOL     OW 5501   3.143   0.345   2.806
 1822SOL    HW1 5502   3.057   0.295   2.793
 1822SOL    HW2 5503   3.205   0.291   2.862
 1823SOL     OW 5504   3.438   1.662   2.169
 1823SOL    HW1 5505   3.527   1.708   2.172
 1823SOL    HW2 5506   3.417   1.638   2.074
 1824SOL     OW 5507   2.669   0.605   3.327
 1824SOL    HW1 5508   2.622   0.602   3.416
 1824SOL    HW2 5509   2.618   0.550   3.261
 1825SOL     OW 5510   3.256   0.469   3.536
 1825SOL    HW1 5511   3.236   0.512   3.624
 1825SOL    HW2 5512   3.334   0.407   3.545
 1826SOL     OW 5513   2.835   0.890   3.434
 1826SOL    HW1 5514   2.881   0.806   3.405
 1826SOL    HW2 5515   2.779   0.924   3.359
 1827SOL     OW 5516   2.853   0.410   3.104
 1827SOL    HW1 5517   2.776   0.444   3.158
 1827SOL    HW2 5518   2.819   0.359   3.025
 1828SOL     OW 5519   2.903   0.701   2.291
 1828SOL    HW1 5520   2.929   0.697   2.387
 1828SOL    HW2 5521   2.818   0.650   2.277
 1829SOL     OW 5522   1.938   0.811   2.651
 1829SOL    HW1 5523   2.037   0.799   2.660
 1829SOL    HW2 5524   1.914   0.906   2.672
 1830SOL     OW 5525   1.992   1.821   3.433
 1830SOL    HW1 5526   1.982   1.806   3.532
 1830SOL    HW2 5527   1.906   1.857   3.397
 1831SOL     OW 5528   2.727   0.348   2.057
 1831SOL    HW1 5529   2.786   0.411   2.008
 1831SOL    HW2 5530   2.746   0.254   2.028
 1832SOL     OW 5531   3.581   0.585   3.693
 1832SOL    HW1 5532   3.555   0.674   3.657
 1832SOL    HW2 5533   3.579   0.517   3.620
 1833SOL     OW 5534   3.224   1.144   2.407
 1833SOL    HW1 5535   3.307   1.115   2.359
 1833SOL    HW2 5536   3.175   1.211   2.351
 1834SOL     OW 5537   2.412   0.196   2.747
 1834SOL    HW1 5538   2.407   0.191   2.847
 1834SOL    HW2 5539   2.414   0.292   2.718
 1835SOL     OW 5540   2.870   1.456   2.339
 1835SOL    HW1 5541   2.824   1.528   2.287
 1835SOL    HW2 5542   2.866   1.476   2.437
 1836SOL     OW 5543   2.213   1.801   2.715
 1836SOL    HW1 5544   2.263   1.715   2.721
 1836SOL    HW2 5545   2.278   1.878   2.712
 1837SOL     OW 5546   3.657   1.066   2.735
 1837SOL    HW1 5547   3.595   1.051   2.659
 1837SOL    HW2 5548   3.605   1.077   2.820
 1838SOL     OW 5549   3.089   1.550   3.368
 1838SOL    HW1 5550   3.095   1.473   3.432
 1838SOL    HW2 5551   3.037   1.524   3.288
 1839SOL     OW 5552   2.183   0.943   2.104
 1839SOL    HW1 5553   2.265   0.982   2.062
 1839SOL    HW2 5554   2.156   0.861   2.055
 1840SOL     OW 5555   3.320   0.735   2.590
 1840SOL    HW1 5556   3.315   0.670   2.665
 1840SOL    HW2 5557   3.400   0.794   2.603
 1841SOL     OW 5558   2.323   1.266   3.589
 1841SOL    HW1 5559   2.273   1.267   3.503
 1841SOL    HW2 5560   2.260   1.248   3.665
 1842SOL     OW 5561   2.973   1.776   2.099
 1842SOL    HW1 5562   2.913   1.714   2.149
 1842SOL    HW2 5563   3.004   1.732   2.014
 1843SOL     OW 5564   2.064   0.285   3.360
 1843SOL    HW1 5565   1.984   0.345   3.347
 1843SOL    HW2 5566   2.054   0.236   3.446
 1844SOL     OW 5567   3.494   1.377   1.943
 1844SOL    HW1 5568   3.462   1.471   1.933
 1844SOL    HW2 5569   3.418   1.314   1.931
 1845SOL     OW 5570   2.326   1.743   2.185
 1845SOL    HW1 5571   2.359   1.782   2.271
 1845SOL    HW2 5572   2.402   1.736   2.120
 1846SOL     OW 5573   3.262   0.107   2.288
 1846SOL    HW1 5574   3.238   0.070   2.198
 1846SOL    HW2 5575   3.361   0.123   2.292
 1847SOL     OW 5576   2.111   1.785   3.103
 1847SOL    HW1 5577   2.168   1.720   3.153
 1847SOL    HW2 5578   2.095   1.752   3.010
 1848SOL     OW 5579   2.802   1.698   2.766
 1848SOL    HW1 5580   2.882   1.641   2.787
 1848SOL    HW2 5581   2.753   1.658   2.689
 1849SOL     OW 5582   2.244   0.700   2.342
 1849SOL    HW1 5583   2.289   0.610   2.339
 1849SOL    HW2 5584   2.150   0.689   2.375
 1850SOL     OW 5585   3.409   0.222   3.591
 1850SOL    HW1 5586   3.404   0.259   3.683
 1850SOL    HW2 5587   3.337   0.153   3.579
 1851SOL     OW 5588   2.476   0.122   1.979
 1851SOL    HW1 5589   2.574   0.100   1.986
 1851SOL    HW2 5590   2.445   0.105   1.886
 1852SOL     OW 5591   2.643   0.264   3.611
 1852SOL    HW1 5592   2.710   0.203   3.654
 1852SOL    HW2 5593   2.570   0.283   3.676
 1853SOL     OW 5594   2.750   1.514   3.057
 1853SOL    HW1 5595   2.727   1.489   2.963
 1853SOL    HW2 5596   2.811   1.445   3.096
 1854SOL     OW 5597   3.213   0.590   3.295
 1854SOL    HW1 5598   3.241   0.547   3.380
 1854SOL    HW2 5599   3.238   0.686   3.296
 1855SOL     OW 5600   2.665   1.402   2.786
 1855SOL    HW1 5601   2.755   1.416   2.744
 1855SOL    HW2 5602   2.594   1.404   2.715
 1856SOL     OW 5603   2.784   0.503   2.761
 1856SOL    HW1 5604   2.759   0.494   2.665
 1856SOL    HW2 5605   2.832   0.421   2.792
 1857SOL     OW 5606   2.401   0.064   2.374
 1857SOL    HW1 5607   2.320   0.065   2.432
 1857SOL    HW2 5608   2.404   0.147   2.319
 1858SOL     OW 5609   3.296   1.188   1.903
 1858SOL    HW1 5610   3.328   1.112   1.960
 1858SOL    HW2 5611   3.204   1.215   1.933
 1859SOL     OW 5612   2.159   0.035   2.033
 1859SOL    HW1 5613   2.208   0.119   2.012
 1859SOL    HW2 5614   2.221  -0.030   2.078
 1860SOL     OW 5615   2.797   0.236   2.342
 1860SOL    HW1 5616   2.749   0.277   2.264
 1860SOL    HW2 5617   2.896   0.234   2.323
 1861SOL     OW 5618   2.938   0.683   3.326
 1861SOL    HW1 5619   2.858   0.622   3.329
 1861SOL    HW2 5620   3.019   0.630   3.302
 1862SOL     OW 5621   3.089   1.570   2.655
 1862SOL    HW1 5622   3.110   1.644   2.590
 1862SOL    HW2 5623   3.157   1.570   2.728
 1863SOL     OW 5624   2.321   1.152   2.603
 1863SOL    HW1 5625   2.250   1.125   2.668
 1863SOL    HW2 5626   2.295   1.124   2.510
 1864SOL     OW 5627   3.133   1.797   2.453
 1864SOL    HW1 5628   3.177   1.861   2.389
 1864SOL    HW2 5629   3.083   1.849   2.523
 1865SOL     OW 5630   2.894   0.549   1.878
 1865SOL    HW1 5631   2.853   0.631   1.839
 1865SOL    HW2 5632   2.958   0.575   1.951
 1866SOL     OW 5633   1.940   0.556   3.248
 1866SOL    HW1 5634   2.032   0.555   3.207
 1866SOL    HW2 5635   1.934   0.630   3.315
 1867SOL     OW 5636   2.423   0.222   3.009
 1867SOL    HW1 5637   2.461   0.138   3.046
 1867SOL    HW2 5638   2.335   0.241   3.053
 1868SOL     OW 5639   2.728   0.454   2.504
 1868SOL    HW1 5640   2.696   0.526   2.442
 1868SOL    HW2 5641   2.752   0.373   2.451
 1869SOL     OW 5642   2.879   0.039   2.615
 1869SOL    HW1 5643   2.807   0.044   2.546
 1869SOL    HW2 5644   2.855  -0.030   2.684
 1870SOL     OW 5645   3.291   1.173   2.729
 1870SOL    HW1 5646   3.236   1.089   2.722
 1870SOL    HW2 5647   3.317   1.202   2.637
 1871SOL     OW 5648   3.328   0.590   2.854
 1871SOL    HW1 5649   3.298   0.495   2.861
 1871SOL    HW2 5650   3.401   0.606   2.920
 1872SOL     OW 5651   3.719   0.833   2.239
 1872SOL    HW1 5652   3.761   0.769   2.303
 1872SOL    HW2 5653   3.681   0.782   2.161
 1873SOL     OW 5654   2.350   1.385   2.036
 1873SOL    HW1 5655   2.263   1.370   2.083
 1873SOL    HW2 5656   2.333   1.411   1.941
 1874SOL     OW 5657   3.526   1.280   2.519
 1874SOL    HW1 5658   3.625   1.288   2.533
 1874SOL    HW2 5659   3.481   1.364   2.550
 1875SOL     OW 5660   3.252   0.575   1.940
 1875SOL    HW1 5661   3.198   0.554   2.021
 1875SOL    HW2 5662   3.343   0.534   1.949
 1876SOL     OW 5663   2.389   0.256   2.190
 1876SOL    HW1 5664   2.416   0.197   2.115
 1876SOL    HW2 5665   2.389   0.351   2.159
 1877SOL     OW 5666   3.616   1.223   3.450
 1877SOL    HW1 5667   3.707   1.184   3.437
 1877SOL    HW2 5668   3.624   1.319   3.474
 1878SOL     OW 5669   2.926   1.347   3.202
 1878SOL    HW1 5670   2.846   1.324   3.257
 1878SOL    HW2 5671   3.009   1.321   3.251
 1879SOL     OW 5672   3.454   1.629   3.487
 1879SOL    HW1 5673   3.481   1.663   3.397
 1879SOL    HW2 5674   3.533   1.591   3.533
 1880SOL     OW 5675   2.973   1.195   2.962
 1880SOL    HW1 5676   2.933   1.239   3.043
 1880SOL    HW2 5677   2.932   1.232   2.879
 1881SOL     OW 5678   3.500   1.099   2.941
 1881SOL    HW1 5679   3.505   1.180   3.000
 1881SOL    HW2 5680   3.414   1.101   2.890
 1882SOL     OW 5681   2.777   0.089   3.264
 1882SOL    HW1 5682   2.802   0.069   3.169
 1882SOL    HW2 5683   2.849   0.145   3.306
 1883SOL     OW 5684   2.842   1.116   3.581
 1883SOL    HW1 5685   2.743   1.122   3.591
 1883SOL    HW2 5686   2.865   1.036   3.525
 1884SOL     OW 5687   2.567   1.050   2.230
 1884SOL    HW1 5688   2.553   1.057   2.329
 1884SOL    HW2 5689   2.651   0.999   2.212
 1885SOL     OW 5690   2.272   0.813   3.113
 1885SOL    HW1 5691   2.358   0.825   3.163
 1885SOL    HW2 5692   2.230   0.726   3.140
 1886SOL     OW 5693   3.136   0.386   3.124
 1886SOL    HW1 5694   3.157   0.460   3.188
 1886SOL    HW2 5695   3.047   0.403   3.081
 1887SOL     OW 5696   1.926   1.564   3.193
 1887SOL    HW1 5697   1.880   1.646   3.159
 1887SOL    HW2 5698   2.024   1.583   3.202
 1888SOL     OW 5699   2.229   1.100   2.363
 1888SOL    HW1 5700   2.222   1.183   2.307
 1888SOL    HW2 5701   2.233   1.020   2.303
 1889SOL     OW 5702   2.428   0.537   2.727
 1889SOL    HW1 5703   2.440   0.603   2.653
 1889SOL    HW2 5704   2.474   0.571   2.810
 1890SOL     OW 5705   3.114   1.348   2.250
 1890SOL    HW1 5706   3.164   1.425   2.290
 1890SOL    HW2 5707   3.019   1.350   2.282
 1891SOL     OW 5708   3.134   1.445   3.004
 1891SOL    HW1 5709   3.181   1.458   3.091
 1891SOL    HW2 5710   3.068   1.371   3.013
 1892SOL     OW 5711   3.444   0.639   2.334
 1892SOL    HW1 5712   3.413   0.700   2.407
 1892SOL    HW2 5713   3.494   0.691   2.265
 1893SOL     OW 5714   2.216   1.510   3.191
 1893SOL    HW1 5715   2.195   1.466   3.104
 1893SOL    HW2 5716   2.313   1.536   3.194
 1894SOL     OW 5717   2.264   0.751   3.460
 1894SOL    HW1 5718   2.332   0.806   3.413
 1894SOL    HW2 5719   2.304   0.663   3.487
 1895SOL     OW 5720   3.449   0.779   3.532
 1895SOL    HW1 5721   3.357   0.817   3.527
 1895SOL    HW2 5722   3.509   0.826   3.467
 1896SOL     OW 5723   2.875   0.105   3.632
 1896SOL    HW1 5724   2.881   0.190   3.580
 1896SOL    HW2 5725   2.907   0.029   3.575
 1897SOL     OW 5726   2.366   0.050   3.602
 1897SOL    HW1 5727   2.324  -0.007   3.532
 1897SOL    HW2 5728   2.300   0.119   3.634
 1898SOL     OW 5729   2.435   0.870   2.891
 1898SOL    HW1 5730   2.479   0.959   2.882
 1898SOL    HW2 5731   2.372   0.870   2.968
 1899SOL     OW 5732   3.222   0.862   2.907
 1899SOL    HW1 5733   3.147   0.862   2.841
 1899SOL    HW2 5734   3.259   0.770   2.916
 1900SOL     OW 5735   3.071   0.525   2.137
 1900SOL    HW1 5736   3.084   0.441   2.191
 1900SOL    HW2 5737   3.042   0.599   2.197
 1901SOL     OW 5738   2.169   0.213   3.093
 1901SOL    HW1 5739   2.146   0.250   3.183
 1901SOL    HW2 5740   2.139   0.118   3.087
 1902SOL     OW 5741   1.899   1.310   3.144
 1902SOL    HW1 5742   1.952   1.261   3.212
 1902SOL    HW2 5743   1.921   1.408   3.149
 1903SOL     OW 5744   2.594   0.634   2.926
 1903SOL    HW1 5745   2.653   0.608   2.850
 1903SOL    HW2 5746   2.566   0.730   2.915
 1904SOL     OW 5747   3.590   0.935   3.716
 1904SOL    HW1 5748   3.544   0.928   3.627
 1904SOL    HW2 5749   3.528   0.979   3.782
 1905SOL     OW 5750   2.169   0.063   2.480
 1905SOL    HW1 5751   2.158   0.157   2.513
 1905SOL    HW2 5752   2.164   0.000   2.557
 1906SOL     OW 5753   3.484   0.367   2.236
 1906SOL    HW1 5754   3.486   0.291   2.300
 1906SOL    HW2 5755   3.436   0.444   2.276
 1907SOL     OW 5756   2.885   0.766   2.828
 1907SOL    HW1 5757   2.900   0.787   2.924
 1907SOL    HW2 5758   2.855   0.671   2.819
 1908SOL     OW 5759   2.842   1.573   3.562
 1908SOL    HW1 5760   2.822   1.617   3.474
 1908SOL    HW2 5761   2.881   1.482   3.546
 1909SOL     OW 5762   3.721   1.518   3.467
 1909SOL    HW1 5763   3.735   1.545   3.372
 1909SOL    HW2 5764   3.804   1.540   3.520
 1910SOL     OW 5765   2.212   0.898   3.666
 1910SOL    HW1 5766   2.288   0.942   3.714
 1910SOL    HW2 5767   2.247   0.851   3.584
 1911SOL     OW 5768   3.402   0.274   1.987
 1911SOL    HW1 5769   3.341   0.199   2.010
 1911SOL    HW2 5770   3.424   0.326   2.070
 1912SOL     OW 5771   3.165   0.838   1.904
 1912SOL    HW1 5772   3.199   0.745   1.919
 1912SOL    HW2 5773   3.183   0.865   1.809
 1913SOL     OW 5774   2.930   1.333   2.711
 1913SOL    HW1 5775   2.937   1.249   2.656
 1913SOL    HW2 5776   2.992   1.402   2.675
 1914SOL     OW 5777   2.181   0.810   2.811
 1914SOL    HW1 5778   2.274   0.846   2.816
 1914SOL    HW2 5779   2.175   0.725   2.863
 1915SOL     OW 5780   2.201   0.509   2.868
 1915SOL    HW1 5781   2.149   0.426   2.851
 1915SOL    HW2 5782   2.278   0.514   2.804
 1916SOL     OW 5783   3.000   0.380   3.540
 1916SOL    HW1 5784   2.955   0.443   3.604
 1916SOL    HW2 5785   3.093   0.411   3.523
 1917SOL     OW 5786   3.022   0.207   3.339
 1917SOL    HW1 5787   3.022   0.271   3.416
 1917SOL    HW2 5788   3.050   0.255   3.256
 1918SOL     OW 5789   1.870   1.326   2.062
 1918SOL    HW1 5790   1.777   1.347   2.031
 1918SOL    HW2 5791   1.880   1.227   2.075
 1919SOL     OW 5792   1.950   1.801   2.789
 1919SOL    HW1 5793   1.908   1.715   2.762
 1919SOL    HW2 5794   2.044   1.804   2.755
 1920SOL     OW 5795   2.366   1.568   2.772
 1920SOL    HW1 5796   2.432   1.642   2.781
 1920SOL    HW2 5797   2.410   1.489   2.730
 1921SOL     OW 5798   2.864   0.796   3.100
 1921SOL    HW1 5799   2.905   0.764   3.186
 1921SOL    HW2 5800   2.768   0.769   3.097
 1922SOL     OW 5801   1.902   0.544   2.976
 1922SOL    HW1 5802   1.987   0.511   2.935
 1922SOL    HW2 5803   1.915   0.559   3.074
 1923SOL     OW 5804   2.051   0.520   3.584
 1923SOL    HW1 5805   2.110   0.480   3.514
 1923SOL    HW2 5806   1.993   0.591   3.543
 1924SOL     OW 5807   3.231   0.950   3.522
 1924SOL    HW1 5808   3.270   1.039   3.542
 1924SOL    HW2 5809   3.241   0.930   3.425
 1925SOL     OW 5810   2.677   0.572   2.187
 1925SOL    HW1 5811   2.684   0.483   2.141
 1925SOL    HW2 5812   2.583   0.606   2.179
 1926SOL     OW 5813   3.519   0.604   3.068
 1926SOL    HW1 5814   3.481   0.535   3.130
 1926SOL    HW2 5815   3.601   0.568   3.024
 1927SOL     OW 5816   2.114   1.564   3.606
 1927SOL    HW1 5817   2.084   1.621   3.682
 1927SOL    HW2 5818   2.107   1.467   3.632
 1928SOL     OW 5819   2.533   0.464   3.131
 1928SOL    HW1 5820   2.499   0.375   3.101
 1928SOL    HW2 5821   2.559   0.518   3.051
 1929SOL     OW 5822   2.792   1.678   3.327
 1929SOL    HW1 5823   2.768   1.660   3.232
 1929SOL    HW2 5824   2.822   1.772   3.337
 1930SOL     OW 5825   2.335   0.500   2.053
 1930SOL    HW1 5826   2.396   0.580   2.057
 1930SOL    HW2 5827   2.240   0.531   2.060
 1931SOL     OW 5828   2.021   1.137   3.328
 1931SOL    HW1 5829   2.043   1.076   3.404
 1931SOL    HW2 5830   2.031   1.088   3.242
 1932SOL     OW 5831   3.209   1.059   3.096
 1932SOL    HW1 5832   3.233   0.996   3.022
 1932SOL    HW2 5833   3.119   1.099   3.078
 1933SOL     OW 5834   3.164   0.855   2.171
 1933SOL    HW1 5835   3.078   0.824   2.213
 1933SOL    HW2 5836   3.160   0.841   2.072
 1934SOL     OW 5837   3.621   1.747   3.016
 1934SOL    HW1 5838   3.682   1.777   2.943
 1934SOL    HW2 5839   3.583   1.658   2.994
 1935SOL     OW 5840   3.114   1.731   2.990
 1935SOL    HW1 5841   3.198   1.736   2.936
 1935SOL    HW2 5842   3.091   1.635   3.008
 1936SOL     OW 5843   1.945   1.258   2.884
 1936SOL    HW1 5844   1.940   1.257   2.984
 1936SOL    HW2 5845   1.862   1.217   2.846
 1937SOL     OW 5846   2.550   1.662   3.578
 1937SOL    HW1 5847   2.494   1.743   3.587
 1937SOL    HW2 5848   2.602   1.666   3.492
 1938SOL     OW 5849   3.588   0.135   2.385
 1938SOL    HW1 5850   3.661   0.118   2.318
 1938SOL    HW2 5851   3.557   0.048   2.423
 1939SOL     OW 5852   3.250   1.573   2.339
 1939SOL    HW1 5853   3.317   1.585   2.265
 1939SOL    HW2 5854   3.210   1.662   2.362
 1940SOL     OW 5855   1.992   1.794   3.713
 1940SOL    HW1 5856   1.951   1.720   3.766
 1940SOL    HW2 5857   2.056   1.845   3.771
 1941SOL     OW 5858   3.142   0.927   2.534
 1941SOL    HW1 5859   3.202   0.846   2.536
 1941SOL    HW2 5860   3.182   0.996   2.474
 1942SOL     OW 5861   2.692   1.273   3.284
 1942SOL    HW1 5862   2.687   1.306   3.379
 1942SOL    HW2 5863   2.606   1.292   3.238
 1943SOL     OW 5864   2.534   1.616   2.016
 1943SOL    HW1 5865   2.543   1.626   1.917
 1943SOL    HW2 5866   2.494   1.527   2.037
 1944SOL     OW 5867   3.512   1.720   3.256
 1944SOL    HW1 5868   3.565   1.730   3.172
 1944SOL    HW2 5869   3.485   1.810   3.290
 1945SOL     OW 5870   3.703   0.175   2.825
 1945SOL    HW1 5871   3.742   0.090   2.789
 1945SOL    HW2 5872   3.605   0.177   2.806
 1946SOL     OW 5873   2.125   0.326   2.582
 1946SOL    HW1 5874   2.046   0.377   2.548
 1946SOL    HW2 5875   2.116   0.311   2.680
 1947SOL     OW 5876   3.056   1.612   1.893
 1947SOL    HW1 5877   3.062   1.519   1.930
 1947SOL    HW2 5878   2.997   1.612   1.813
 1948SOL     OW 5879   2.684   1.002   3.234
 1948SOL    HW1 5880   2.724   1.001   3.142
 1948SOL    HW2 5881   2.694   1.094   3.274
 1949SOL     OW 5882   2.778   0.910   2.153
 1949SOL    HW1 5883   2.841   0.948   2.085
 1949SOL    HW2 5884   2.818   0.827   2.192
 1950SOL     OW 5885   3.366   1.607   1.906
 1950SOL    HW1 5886   3.274   1.644   1.913
 1950SOL    HW2 5887   3.404   1.627   1.816
 1951SOL     OW 5888   2.234   1.288   3.352
 1951SOL    HW1 5889   2.221   1.381   3.318
 1951SOL    HW2 5890   2.150   1.236   3.339
 1952SOL     OW 5891   3.476   1.292   3.151
 1952SOL    HW1 5892   3.536   1.295   3.231
 1952SOL    HW2 5893   3.401   1.356   3.164
 1953SOL     OW 5894   2.901   1.098   2.558
 1953SOL    HW1 5895   2.831   1.051   2.612
 1953SOL    HW2 5896   2.960   1.030   2.515
 1954SOL     OW 5897   2.876   0.236   2.833
 1954SOL    HW1 5898   2.868   0.200   2.740
 1954SOL    HW2 5899   2.874   0.160   2.898
 1955SOL     OW 5900   2.452   1.487   2.353
 1955SOL    HW1 5901   2.494   1.429   2.283
 1955SOL    HW2 5902   2.408   1.566   2.309
 1956SOL     OW 5903   3.571   0.385   3.243
 1956SOL    HW1 5904   3.644   0.454   3.247
 1956SOL    HW2 5905   3.599   0.310   3.184
 1957SOL     OW 5906   2.117   1.348   2.152
 1957SOL    HW1 5907   2.021   1.349   2.125
 1957SOL    HW2 5908   2.129   1.401   2.236
 1958SOL     OW 5909   1.967   1.013   3.588
 1958SOL    HW1 5910   1.890   0.980   3.642
 1958SOL    HW2 5911   2.052   0.983   3.630
 1959SOL     OW 5912   2.534   0.203   3.351
 1959SOL    HW1 5913   2.624   0.187   3.311
 1959SOL    HW2 5914   2.542   0.208   3.450
 1960SOL     OW 5915   1.937   0.345   1.895
 1960SOL    HW1 5916   1.845   0.317   1.866
 1960SOL    HW2 5917   1.968   0.422   1.839
 1961SOL     OW 5918   3.302   0.856   3.260
 1961SOL    HW1 5919   3.245   0.908   3.197
 1961SOL    HW2 5920   3.398   0.868   3.236
 1962SOL     OW 5921   1.934   0.166   2.180
 1962SOL    HW1 5922   1.917   0.249   2.126
 1962SOL    HW2 5923   2.024   0.129   2.158
 1963SOL     OW 5924   3.045   1.335   1.981
 1963SOL    HW1 5925   2.946   1.324   1.983
 1963SOL    HW2 5926   3.079   1.350   2.074
 1964SOL     OW 5927   2.475   0.842   3.293
 1964SOL    HW1 5928   2.531   0.923   3.276
 1964SOL    HW2 5929   2.534   0.762   3.296
 1965SOL     OW 5930   3.355   1.767   2.821
 1965SOL    HW1 5931   3.388   1.831   2.752
 1965SOL    HW2 5932   3.421   1.761   2.896
 1966SOL     OW 5933   2.578   0.565   3.570
 1966SOL    HW1 5934   2.597   0.630   3.644
 1966SOL    HW2 5935   2.638   0.485   3.579
 1967SOL     OW 5936   3.312   1.220   3.495
 1967SOL    HW1 5937   3.303   1.210   3.594
 1967SOL    HW2 5938   3.408   1.213   3.469
 1968SOL     OW 5939   2.252   1.741   3.422
 1968SOL    HW1 5940   2.161   1.782   3.420
 1968SOL    HW2 5941   2.245   1.647   3.454
 1969SOL     OW 5942   3.536   0.883   3.116
 1969SOL    HW1 5943   3.509   0.794   3.079
 1969SOL    HW2 5944   3.537   0.951   3.043
 1970SOL     OW 5945   3.087   0.325   2.311
 1970SOL    HW1 5946   3.152   0.251   2.300
 1970SOL    HW2 5947   3.107   0.375   2.395
 1971SOL     OW 5948   2.456   0.745   2.514
 1971SOL    HW1 5949   2.506   0.830   2.495
 1971SOL    HW2 5950   2.368   0.747   2.466
 1972SOL     OW 5951   3.639   0.342   3.504
 1972SOL    HW1 5952   3.622   0.373   3.410
 1972SOL    HW2 5953   3.555   0.305   3.542
 1973SOL     OW 5954   3.592   0.934   3.379
 1973SOL    HW1 5955   3.630   1.025   3.394
 1973SOL    HW2 5956   3.584   0.917   3.280
 1974SOL     OW 5957   2.721   1.374   1.878
 1974SOL    HW1 5958   2.675   1.389   1.966
 1974SOL    HW2 5959   2.765   1.459   1.848
 1975SOL     OW 5960   2.523   1.790   2.815
 1975SOL    HW1 5961   2.477   1.878   2.802
 1975SOL    HW2 5962   2.622   1.802   2.808
 1976SOL     OW 5963   2.721   0.956   2.723
 1976SOL    HW1 5964   2.775   0.887   2.771
 1976SOL    HW2 5965   2.689   1.025   2.789
 1977SOL     OW 5966   2.945   0.984   1.949
 1977SOL    HW1 5967   2.922   1.037   1.867
 1977SOL    HW2 5968   3.026   0.928   1.930
 1978SOL     OW 5969   3.723   1.569   2.713
 1978SOL    HW1 5970   3.652   1.557   2.643
 1978SOL    HW2 5971   3.724   1.490   2.773
 1979SOL     OW 5972   2.083   1.314   3.706
 1979SOL    HW1 5973   2.018   1.241   3.685
 1979SOL    HW2 5974   2.087   1.328   3.804
 1980SOL     OW 5975   1.941   1.240   2.515
 1980SOL    HW1 5976   1.940   1.193   2.603
 1980SOL    HW2 5977   2.023   1.212   2.464
 1981SOL     OW 5978   2.534   1.391   3.486
 1981SOL    HW1 5979   2.456   1.341   3.524
 1981SOL    HW2 5980   2.531   1.486   3.517
 1982SOL     OW 5981   3.686   0.192   3.089
 1982SOL    HW1 5982   3.682   0.102   3.133
 1982SOL    HW2 5983   3.689   0.181   2.990
 1983SOL     OW 5984   2.290   0.424   2.382
 1983SOL    HW1 5985   2.320   0.352   2.320
 1983SOL    HW2 5986   2.251   0.384   2.465
 1984SOL     OW 5987   3.567   1.487   2.966
 1984SOL    HW1 5988   3.474   1.462   2.939
 1984SOL    HW2 5989   3.593   1.437   3.048
 1985SOL     OW 5990   2.179   0.547   3.142
 1985SOL    HW1 5991   2.217   0.488   3.214
 1985SOL    HW2 5992   2.219   0.521   3.054
 1986SOL     OW 5993   2.674   1.586   2.549
 1986SOL    HW1 5994   2.706   1.596   2.455
 1986SOL    HW2 5995   2.595   1.524   2.551
 1987SOL     OW 5996   3.286   0.214   2.974
 1987SOL    HW1 5997   3.338   0.149   3.029
 1987SOL    HW2 5998   3.237   0.277   3.035
 1988SOL     OW 5999   2.863   0.034   3.016
 1988SOL    HW1 6000   2.800  -0.038   2.985
 1988SOL    HW2 6001   2.956  -0.002   3.016
 1989SOL     OW 6002   2.632   1.330   2.163
 1989SOL    HW1 6003   2.586   1.243   2.180
 1989SOL    HW2 6004   2.723   1.327   2.204
 1990SOL     OW 6005   2.480   1.567   3.146
 1990SOL    HW1 6006   2.475   1.649   3.203
 1990SOL    HW2 6007   2.569   1.564   3.101
 1991SOL     OW 6008   3.214   0.052   2.030
 1991SOL    HW1 6009   3.249   0.011   1.946
 1991SOL    HW2 6010   3.124   0.014   2.050
 1992SOL     OW 6011   3.162   0.453   2.553
 1992SOL    HW1 6012   3.103   0.533   2.557
 1992SOL    HW2 6013   3.177   0.418   2.646
 1993SOL     OW 6014   3.455   0.221   2.744
 1993SOL    HW1 6015   3.371   0.220   2.798
 1993SOL    HW2 6016   3.457   0.304   2.688
 1994SOL     OW 6017   1.901   1.077   2.162
 1994SOL    HW1 6018   2.000   1.066   2.153
 1994SOL    HW2 6019   1.861   0.991   2.194
 1995SOL     OW 6020   2.737   1.646   2.199
 1995SOL    HW1 6021   2.660   1.611   2.145
 1995SOL    HW2 6022   2.705   1.717   2.261
 1996SOL     OW 6023   2.092   0.628   3.837
 1996SOL    HW1 6024   1.999   0.626   3.874
 1996SOL    HW2 6025   2.093   0.589   3.745
 1997SOL     OW 6026   2.087   0.275   4.720
 1997SOL    HW1 6027   2.122   0.258   4.812
 1997SOL    HW2 6028   1.999   0.230   4.708
 1998SOL     OW 6029   1.881   0.368   4.371
 1998SOL    HW1 6030   1.799   0.411   4.410
 1998SOL    HW2 6031   1.853   0.295   4.308
 1999SOL     OW 6032   2.431   1.275   4.889
 1999SOL    HW1 6033   2.338   1.268   4.852
 1999SOL    HW2 6034   2.442   1.364   4.933
 2000SOL     OW 6035   3.417   1.511   4.427
 2000SOL    HW1 6036   3.360   1.495   4.508
 2000SOL    HW2 6037   3.358   1.521   4.347
 2001SOL     OW 6038   2.997   0.703   4.441
 2001SOL    HW1 6039   3.054   0.781   4.416
 2001SOL    HW2 6040   2.937   0.729   4.517
 2002SOL     OW 6041   3.617   0.607   3.955
 2002SOL    HW1 6042   3.605   0.594   3.856
 2002SOL    HW2 6043   3.587   0.526   4.004
 2003SOL     OW 6044   2.630   1.144   4.747
 2003SOL    HW1 6045   2.552   1.161   4.807
 2003SOL    HW2 6046   2.664   1.231   4.711
 2004SOL     OW 6047   2.547   1.012   4.389
 2004SOL    HW1 6048   2.616   0.996   4.459
 2004SOL    HW2 6049   2.474   1.069   4.427
 2005SOL     OW 6050   2.197   1.435   4.785
 2005SOL    HW1 6051   2.119   1.404   4.732
 2005SOL    HW2 6052   2.255   1.493   4.728
 2006SOL     OW 6053   3.465   0.447   4.461
 2006SOL    HW1 6054   3.391   0.493   4.411
 2006SOL    HW2 6055   3.516   0.515   4.514
 2007SOL     OW 6056   2.093   1.713   4.207
 2007SOL    HW1 6057   2.127   1.790   4.261
 2007SOL    HW2 6058   2.137   1.713   4.117
 2008SOL     OW 6059   2.092   1.434   4.262
 2008SOL    HW1 6060   2.066   1.530   4.262
 2008SOL    HW2 6061   2.021   1.380   4.307
 2009SOL     OW 6062   2.102   1.091   4.610
 2009SOL    HW1 6063   2.116   1.007   4.662
 2009SOL    HW2 6064   2.047   1.155   4.665
 2010SOL     OW 6065   2.482   1.786   5.163
 2010SOL    HW1 6066   2.390   1.769   5.198
 2010SOL    HW2 6067   2.510   1.878   5.189
 2011SOL     OW 6068   2.468   0.964   3.847
 2011SOL    HW1 6069   2.475   1.048   3.793
 2011SOL    HW2 6070   2.514   0.977   3.935
 2012SOL     OW 6071   1.984   0.643   4.287
 2012SOL    HW1 6072   1.939   0.555   4.304
 2012SOL    HW2 6073   1.983   0.697   4.371
 2013SOL     OW 6074   3.704   1.767   4.083
 2013SOL    HW1 6075   3.758   1.738   4.163
 2013SOL    HW2 6076   3.734   1.857   4.054
 2014SOL     OW 6077   1.889   1.596   3.841
 2014SOL    HW1 6078   1.870   1.500   3.862
 2014SOL    HW2 6079   1.856   1.654   3.916
 2015SOL     OW 6080   3.551   0.922   4.336
 2015SOL    HW1 6081   3.646   0.893   4.344
 2015SOL    HW2 6082   3.543   0.987   4.261
 2016SOL     OW 6083   3.503   1.108   4.156
 2016SOL    HW1 6084   3.589   1.110   4.104
 2016SOL    HW2 6085   3.517   1.155   4.244
 2017SOL     OW 6086   2.475   1.365   4.450
 2017SOL    HW1 6087   2.426   1.278   4.459
 2017SOL    HW2 6088   2.452   1.408   4.363
 2018SOL     OW 6089   2.671   0.004   4.226
 2018SOL    HW1 6090   2.711   0.095   4.217
 2018SOL    HW2 6091   2.571   0.012   4.232
 2019SOL     OW 6092   2.059   0.976   4.988
 2019SOL    HW1 6093   2.148   0.931   4.974
 2019SOL    HW2 6094   1.986   0.911   4.969
 2020SOL     OW 6095   3.387   0.999   3.914
 2020SOL    HW1 6096   3.324   0.923   3.927
 2020SOL    HW2 6097   3.435   1.017   4.000
 2021SOL     OW 6098   3.328   1.417   4.677
 2021SOL    HW1 6099   3.269   1.423   4.757
 2021SOL    HW2 6100   3.313   1.329   4.631
 2022SOL     OW 6101   3.529   1.714   4.296
 2022SOL    HW1 6102   3.488   1.691   4.208
 2022SOL    HW2 6103   3.511   1.640   4.361
 2023SOL     OW 6104   2.460   0.729   3.994
 2023SOL    HW1 6105   2.484   0.798   3.926
 2023SOL    HW2 6106   2.382   0.762   4.048
 2024SOL     OW 6107   3.143   0.345   4.668
 2024SOL    HW1 6108   3.057   0.295   4.655
 2024SOL    HW2 6109   3.205   0.291   4.724
 2025SOL     OW 6110   3.438   1.662   4.031
 2025SOL    HW1 6111   3.527   1.708   4.034
 2025SOL    HW2 6112   3.417   1.638   3.936
 2026SOL     OW 6113   2.853   0.410   4.966
 2026SOL    HW1 6114   2.776   0.444   5.020
 2026SOL    HW2 6115   2.819   0.359   4.887
 2027SOL     OW 6116   2.903   0.701   4.153
 2027SOL    HW1 6117   2.929   0.697   4.249
 2027SOL    HW2 6118   2.818   0.650   4.139
 2028SOL     OW 6119   1.938   0.811   4.513
 2028SOL    HW1 6120   2.037   0.799   4.522
 2028SOL    HW2 6121   1.914   0.906   4.534
 2029SOL     OW 6122   2.727   0.348   3.919
 2029SOL    HW1 6123   2.786   0.411   3.870
 2029SOL    HW2 6124   2.746   0.254   3.890
 2030SOL     OW 6125   3.224   1.144   4.269
 2030SOL    HW1 6126   3.307   1.115   4.221
 2030SOL    HW2 6127   3.175   1.211   4.213
 2031SOL     OW 6128   2.412   0.196   4.609
 2031SOL    HW1 6129   2.407   0.191   4.709
 2031SOL    HW2 6130   2.414   0.292   4.580
 2032SOL     OW 6131   2.870   1.456   4.201
 2032SOL    HW1 6132   2.824   1.528   4.149
 2032SOL    HW2 6133   2.866   1.476   4.299
 2033SOL     OW 6134   2.213   1.801   4.577
 2033SOL    HW1 6135   2.263   1.715   4.583
 2033SOL    HW2 6136   2.278   1.878   4.574
 2034SOL     OW 6137   3.657   1.066   4.597
 2034SOL    HW1 6138   3.595   1.051   4.521
 2034SOL    HW2 6139   3.605   1.077   4.682
 2035SOL     OW 6140   2.183   0.943   3.966
 2035SOL    HW1 6141   2.265   0.982   3.924
 2035SOL    HW2 6142   2.156   0.861   3.917
 2036SOL     OW 6143   3.320   0.735   4.452
 2036SOL    HW1 6144   3.315   0.670   4.527
 2036SOL    HW2 6145   3.400   0.794   4.465
 2037SOL     OW 6146   2.973   1.776   3.961
 2037SOL    HW1 6147   2.913   1.714   4.011
 2037SOL    HW2 6148   3.004   1.732   3.876
 2038SOL     OW 6149   3.494   1.377   3.805
 2038SOL    HW1 6150   3.462   1.471   3.795
 2038SOL    HW2 6151   3.418   1.314   3.793
 2039SOL     OW 6152   2.326   1.743   4.047
 2039SOL    HW1 6153   2.359   1.782   4.133
 2039SOL    HW2 6154   2.402   1.736   3.982
 2040SOL     OW 6155   3.262   0.107   4.150
 2040SOL    HW1 6156   3.238   0.070   4.060
 2040SOL    HW2 6157   3.361   0.123   4.154
 2041SOL     OW 6158   2.111   1.785   4.965
 2041SOL    HW1 6159   2.168   1.720   5.015
 2041SOL    HW2 6160   2.095   1.752   4.872
 2042SOL     OW 6161   2.802   1.698   4.628
 2042SOL    HW1 6162   2.882   1.641   4.649
 2042SOL    HW2 6163   2.753   1.658   4.551
 2043SOL     OW 6164   2.244   0.700   4.204
 2043SOL    HW1 6165   2.289   0.610   4.201
 2043SOL    HW2 6166   2.150   0.689   4.237
 2044SOL     OW 6167   2.476   0.122   3.841
 2044SOL    HW1 6168   2.574   0.100   3.848
 2044SOL    HW2 6169   2.445   0.105   3.748
 2045SOL     OW 6170   2.665   1.402   4.648
 2045SOL    HW1 6171   2.755   1.416   4.606
 2045SOL    HW2 6172   2.594   1.404   4.577
 2046SOL     OW 6173   2.784   0.503   4.623
 2046SOL    HW1 6174   2.759   0.494   4.527
 2046SOL    HW2 6175   2.832   0.421   4.654
 2047SOL     OW 6176   2.401   0.064   4.236
 2047SOL    HW1 6177   2.320   0.065   4.294
 2047SOL    HW2 6178   2.404   0.147   4.181
 2048SOL     OW 6179   3.296   1.188   3.765
 2048SOL    HW1 6180   3.328   1.112   3.822
 2048SOL    HW2 6181   3.204   1.215   3.795
 2049SOL     OW 6182   2.159   0.035   3.895
 2049SOL    HW1 6183   2.208   0.119   3.874
 2049SOL    HW2 6184   2.221  -0.030   3.940
 2050SOL     OW 6185   2.797   0.236   4.204
 2050SOL    HW1 6186   2.749   0.277   4.126
 2050SOL    HW2 6187   2.896   0.234   4.185
 2051SOL     OW 6188   3.089   1.570   4.517
 2051SOL    HW1 6189   3.110   1.644   4.452
 2051SOL    HW2 6190   3.157   1.570   4.590
 2052SOL     OW 6191   2.321   1.152   4.465
 2052SOL    HW1 6192   2.250   1.125   4.530
 2052SOL    HW2 6193   2.295   1.124   4.372
 2053SOL     OW 6194   3.133   1.797   4.315
 2053SOL    HW1 6195   3.177   1.861   4.251
 2053SOL    HW2 6196   3.083   1.849   4.385
 2054SOL     OW 6197   2.894   0.549   3.740
 2054SOL    HW1 6198   2.853   0.631   3.701
 2054SOL    HW2 6199   2.958   0.575   3.813
 2055SOL     OW 6200   2.423   0.222   4.871
 2055SOL    HW1 6201   2.461   0.138   4.908
 2055SOL    HW2 6202   2.335   0.241   4.915
 2056SOL     OW 6203   2.728   0.454   4.366
 2056SOL    HW1 6204   2.696   0.526   4.304
 2056SOL    HW2 6205   2.752   0.373   4.313
 2057SOL     OW 6206   2.879   0.039   4.477
 2057SOL    HW1 6207   2.807   0.044   4.408
 2057SOL    HW2 6208   2.855  -0.030   4.546
 2058SOL     OW 6209   3.291   1.173   4.591
 2058SOL    HW1 6210   3.236   1.089   4.584
 2058SOL    HW2 6211   3.317   1.202   4.499
 2059SOL     OW 6212   3.328   0.590   4.716
 2059SOL    HW1 6213   3.298   0.495   4.723
 2059SOL    HW2 6214   3.401   0.606   4.782
 2060SOL     OW 6215   3.719   0.833   4.101
 2060SOL    HW1 6216   3.761   0.769   4.165
 2060SOL    HW2 6217   3.681   0.782   4.023
 2061SOL     OW 6218   2.350   1.385   3.898
 2061SOL    HW1 6219   2.263   1.370   3.945
 2061SOL    HW2 6220   2.333   1.411   3.803
 2062SOL     OW 6221   3.526   1.280   4.381
 2062SOL    HW1 6222   3.625   1.288   4.395
 2062SOL    HW2 6223   3.481   1.364   4.412
 2063SOL     OW 6224   3.252   0.575   3.802
 2063SOL    HW1 6225   3.198   0.554   3.883
 2063SOL    HW2 6226   3.343   0.534   3.811
 2064SOL     OW 6227   2.389   0.256   4.052
 2064SOL    HW1 6228   2.416   0.197   3.977
 2064SOL    HW2 6229   2.389   0.351   4.021
 2065SOL     OW 6230   2.973   1.195   4.824
 2065SOL    HW1 6231   2.933   1.239   4.905
 2065SOL    HW2 6232   2.932   1.232   4.741
 2066SOL     OW 6233   3.500   1.099   4.803
 2066SOL    HW1 6234   3.505   1.180   4.862
 2066SOL    HW2 6235   3.414   1.101   4.752
 2067SOL     OW 6236   2.567   1.050   4.092
 2067SOL    HW1 6237   2.553   1.057   4.191
 2067SOL    HW2 6238   2.651   0.999   4.074
 2068SOL     OW 6239   2.272   0.813   4.975
 2068SOL    HW1 6240   2.358   0.825   5.025
 2068SOL    HW2 6241   2.230   0.726   5.002
 2069SOL     OW 6242   3.136   0.386   4.986
 2069SOL    HW1 6243   3.157   0.460   5.050
 2069SOL    HW2 6244   3.047   0.403   4.943
 2070SOL     OW 6245   2.229   1.100   4.225
 2070SOL    HW1 6246   2.222   1.183   4.169
 2070SOL    HW2 6247   2.233   1.020   4.165
 2071SOL     OW 6248   2.428   0.537   4.589
 2071SOL    HW1 6249   2.440   0.603   4.515
 2071SOL    HW2 6250   2.474   0.571   4.672
 2072SOL     OW 6251   3.114   1.348   4.112
 2072SOL    HW1 6252   3.164   1.425   4.152
 2072SOL    HW2 6253   3.019   1.350   4.144
 2073SOL     OW 6254   3.134   1.445   4.866
 2073SOL    HW1 6255   3.181   1.458   4.953
 2073SOL    HW2 6256   3.068   1.371   4.875
 2074SOL     OW 6257   3.444   0.639   4.196
 2074SOL    HW1 6258   3.413   0.700   4.269
 2074SOL    HW2 6259   3.494   0.691   4.127
 2075SOL     OW 6260   2.216   1.510   5.053
 2075SOL    HW1 6261   2.195   1.466   4.966
 2075SOL    HW2 6262   2.313   1.536   5.056
 2076SOL     OW 6263   2.435   0.870   4.753
 2076SOL    HW1 6264   2.479   0.959   4.744
 2076SOL    HW2 6265   2.372   0.870   4.830
 2077SOL     OW 6266   3.222   0.862   4.769
 2077SOL    HW1 6267   3.147   0.862   4.703
 2077SOL    HW2 6268   3.259   0.770   4.778
 2078SOL     OW 6269   3.071   0.525   3.999
 2078SOL    HW1 6270   3.084   0.441   4.053
 2078SOL    HW2 6271   3.042   0.599   4.059
 2079SOL     OW 6272   2.169   0.213   4.955
 2079SOL    HW1 6273   2.146   0.250   5.045
 2079SOL    HW2 6274   2.139   0.118   4.949
 2080SOL     OW 6275   1.899   1.310   5.006
 2080SOL    HW1 6276   1.952   1.261   5.074
 2080SOL    HW2 6277   1.921   1.408   5.011
 2081SOL     OW 6278   2.594   0.634   4.788
 2081SOL    HW1 6279   2.653   0.608   4.712
 2081SOL    HW2 6280   2.566   0.730   4.777
 2082SOL     OW 6281   2.169   0.063   4.342
 2082SOL    HW1 6282   2.158   0.157   4.375
 2082SOL    HW2 6283   2.164   0.000   4.419
 2083SOL     OW 6284   3.484   0.367   4.098
 2083SOL    HW1 6285   3.486   0.291   4.162
 2083SOL    HW2 6286   3.436   0.444   4.138
 2084SOL     OW 6287   2.885   0.766   4.690
 2084SOL    HW1 6288   2.900   0.787   4.786
 2084SOL    HW2 6289   2.855   0.671   4.681
 2085SOL     OW 6290   3.402   0.274   3.849
 2085SOL    HW1 6291   3.341   0.199   3.872
 2085SOL    HW2 6292   3.424   0.326   3.932
 2086SOL     OW 6293   3.165   0.838   3.766
 2086SOL    HW1 6294   3.199   0.745   3.781
 2086SOL    HW2 6295   3.183   0.865   3.671
 2087SOL     OW 6296   2.930   1.333   4.573
 2087SOL    HW1 6297   2.937   1.249   4.518
 2087SOL    HW2 6298   2.992   1.402   4.537
 2088SOL     OW 6299   2.181   0.810   4.673
 2088SOL    HW1 6300   2.274   0.846   4.678
 2088SOL    HW2 6301   2.175   0.725   4.725
 2089SOL     OW 6302   2.201   0.509   4.730
 2089SOL    HW1 6303   2.149   0.426   4.713
 2089SOL    HW2 6304   2.278   0.514   4.666
 2090SOL     OW 6305   3.022   0.207   5.201
 2090SOL    HW1 6306   3.022   0.271   5.278
 2090SOL    HW2 6307   3.050   0.255   5.118
 2091SOL     OW 6308   1.870   1.326   3.924
 2091SOL    HW1 6309   1.777   1.347   3.893
 2091SOL    HW2 6310   1.880   1.227   3.937
 2092SOL     OW 6311   1.950   1.801   4.651
 2092SOL    HW1 6312   1.908   1.715   4.624
 2092SOL    HW2 6313   2.044   1.804   4.617
 2093SOL     OW 6314   2.366   1.568   4.634
 2093SOL    HW1 6315   2.432   1.642   4.643
 2093SOL    HW2 6316   2.410   1.489   4.592
 2094SOL     OW 6317   2.864   0.796   4.962
 2094SOL    HW1 6318   2.905   0.764   5.048
 2094SOL    HW2 6319   2.768   0.769   4.959
 2095SOL     OW 6320   1.902   0.544   4.838
 2095SOL    HW1 6321   1.987   0.511   4.797
 2095SOL    HW2 6322   1.915   0.559   4.936
 2096SOL     OW 6323   2.677   0.572   4.049
 2096SOL    HW1 6324   2.684   0.483   4.003
 2096SOL    HW2 6325   2.583   0.606   4.041
 2097SOL     OW 6326   3.519   0.604   4.930
 2097SOL    HW1 6327   3.481   0.535   4.992
 2097SOL    HW2 6328   3.601   0.568   4.886
 2098SOL     OW 6329   2.533   0.464   4.993
 2098SOL    HW1 6330   2.499   0.375   4.963
 2098SOL    HW2 6331   2.559   0.518   4.913
 2099SOL     OW 6332   2.792   1.678   5.189
 2099SOL    HW1 6333   2.768   1.660   5.094
 2099SOL    HW2 6334   2.822   1.772   5.199
 2100SOL     OW 6335   2.335   0.500   3.915
 2100SOL    HW1 6336   2.396   0.580   3.919
 2100SOL    HW2 6337   2.240   0.531   3.922
 2101SOL     OW 6338   3.209   1.059   4.958
 2101SOL    HW1 6339   3.233   0.996   4.884
 2101SOL    HW2 6340   3.119   1.099   4.940
 2102SOL     OW 6341   3.164   0.855   4.033
 2102SOL    HW1 6342   3.078   0.824   4.075
 2102SOL    HW2 6343   3.160   0.841   3.934
 2103SOL     OW 6344   3.621   1.747   4.878
 2103SOL    HW1 6345   3.682   1.777   4.805
 2103SOL    HW2 6346   3.583   1.658   4.856
 2104SOL     OW 6347   3.114   1.731   4.852
 2104SOL    HW1 6348   3.198   1.736   4.798
 2104SOL    HW2 6349   3.091   1.635   4.870
 2105SOL     OW 6350   1.945   1.258   4.746
 2105SOL    HW1 6351   1.940   1.257   4.846
 2105SOL    HW2 6352   1.862   1.217   4.708
 2106SOL     OW 6353   3.588   0.135   4.247
 2106SOL    HW1 6354   3.661   0.118   4.180
 2106SOL    HW2 6355   3.557   0.048   4.285
 2107SOL     OW 6356   3.250   1.573   4.201
 2107SOL    HW1 6357   3.317   1.585   4.127
 2107SOL    HW2 6358   3.210   1.662   4.224
 2108SOL     OW 6359   3.142   0.927   4.396
 2108SOL    HW1 6360   3.202   0.846   4.398
 2108SOL    HW2 6361   3.182   0.996   4.336
 2109SOL     OW 6362   2.534   1.616   3.878
 2109SOL    HW1 6363   2.543   1.626   3.779
 2109SOL    HW2 6364   2.494   1.527   3.899
 2110SOL     OW 6365   3.512   1.720   5.118
 2110SOL    HW1 6366   3.565   1.730   5.034
 2110SOL    HW2 6367   3.485   1.810   5.152
 2111SOL     OW 6368   3.703   0.175   4.687
 2111SOL    HW1 6369   3.742   0.090   4.651
 2111SOL    HW2 6370   3.605   0.177   4.668
 2112SOL     OW 6371   2.125   0.326   4.444
 2112SOL    HW1 6372   2.046   0.377   4.410
 2112SOL    HW2 6373   2.116   0.311   4.542
 2113SOL     OW 6374   3.056   1.612   3.755
 2113SOL    HW1 6375   3.062   1.519   3.792
 2113SOL    HW2 6376   2.997   1.612   3.675
 2114SOL     OW 6377   2.684   1.002   5.096
 2114SOL    HW1 6378   2.724   1.001   5.004
 2114SOL    HW2 6379   2.694   1.094   5.136
 2115SOL     OW 6380   2.778   0.910   4.015
 2115SOL    HW1 6381   2.841   0.948   3.947
 2115SOL    HW2 6382   2.818   0.827   4.054
 2116SOL     OW 6383   3.366   1.607   3.768
 2116SOL    HW1 6384   3.274   1.644   3.775
 2116SOL    HW2 6385   3.404   1.627   3.678
 2117SOL     OW 6386   2.901   1.098   4.420
 2117SOL    HW1 6387   2.831   1.051   4.474
 2117SOL    HW2 6388   2.960   1.030   4.377
 2118SOL     OW 6389   2.876   0.236   4.695
 2118SOL    HW1 6390   2.868   0.200   4.602
 2118SOL    HW2 6391   2.874   0.160   4.760
 2119SOL     OW 6392   2.452   1.487   4.215
 2119SOL    HW1 6393   2.494   1.429   4.145
 2119SOL    HW2 6394   2.408   1.566   4.171
 2120SOL     OW 6395   3.571   0.385   5.105
 2120SOL    HW1 6396   3.644   0.454   5.109
 2120SOL    HW2 6397   3.599   0.310   5.046
 2121SOL     OW 6398   2.117   1.348   4.014
 2121SOL    HW1 6399   2.021   1.349   3.987
 2121SOL    HW2 6400   2.129   1.401   4.098
 2122SOL     OW 6401   1.937   0.345   3.757
 2122SOL    HW1 6402   1.845   0.317   3.728
 2122SOL    HW2 6403   1.968   0.422   3.701
 2123SOL     OW 6404   1.934   0.166   4.042
 2123SOL    HW1 6405   1.917   0.249   3.988
 2123SOL    HW2 6406   2.024   0.129   4.020
 2124SOL     OW 6407   3.045   1.335   3.843
 2124SOL    HW1 6408   2.946   1.324   3.845
 2124SOL    HW2 6409   3.079   1.350   3.936
 2125SOL     OW 6410   3.355   1.767   4.683
 2125SOL    HW1 6411   3.388   1.831   4.614
 2125SOL    HW2 6412   3.421   1.761   4.758
 2126SOL     OW 6413   3.312   1.220   5.357
 2126SOL    HW1 6414   3.303   1.210   5.456
 2126SOL    HW2 6415   3.408   1.213   5.331
 2127SOL     OW 6416   3.536   0.883   4.978
 2127SOL    HW1 6417   3.509   0.794   4.941
 2127SOL    HW2 6418   3.537   0.951   4.905
 2128SOL     OW 6419   3.087   0.325   4.173
 2128SOL    HW1 6420   3.152   0.251   4.162
 2128SOL    HW2 6421   3.107   0.375   4.257
 2129SOL     OW 6422   2.456   0.745   4.376
 2129SOL    HW1 6423   2.506   0.830   4.357
 2129SOL    HW2 6424   2.368   0.747   4.328
 2130SOL     OW 6425   3.592   0.934   5.241
 2130SOL    HW1 6426   3.630   1.025   5.256
 2130SOL    HW2 6427   3.584   0.917   5.142
 2131SOL     OW 6428   2.721   1.374   3.740
 2131SOL    HW1 6429   2.675   1.389   3.828
 2131SOL    HW2 6430   2.765   1.459   3.710
 2132SOL     OW 6431   2.523   1.790   4.677
 2132SOL    HW1 6432   2.477   1.878   4.664
 2132SOL    HW2 6433   2.622   1.802   4.670
 2133SOL     OW 6434   2.721   0.956   4.585
 2133SOL    HW1 6435   2.775   0.887   4.633
 2133SOL    HW2 6436   2.689   1.025   4.651
 2134SOL     OW 6437   2.945   0.984   3.811
 2134SOL    HW1 6438   2.922   1.037   3.729
 2134SOL    HW2 6439   3.026   0.928   3.792
 2135SOL     OW 6440   3.723   1.569   4.575
 2135SOL    HW1 6441   3.652   1.557   4.505
 2135SOL    HW2 6442   3.724   1.490   4.635
 2136SOL     OW 6443   1.941   1.240   4.377
 2136SOL    HW1 6444   1.940   1.193   4.465
 2136SOL    HW2 6445   2.023   1.212   4.326
 2137SOL     OW 6446   3.686   0.192   4.951
 2137SOL    HW1 6447   3.682   0.102   4.995
 2137SOL    HW2 6448   3.689   0.181   4.852
 2138SOL     OW 6449   2.290   0.424   4.244
 2138SOL    HW1 6450   2.320   0.352   4.182
 2138SOL    HW2 6451   2.251   0.384   4.327
 2139SOL     OW 6452   3.567   1.487   4.828
 2139SOL    HW1 6453   3.474   1.462   4.801
 2139SOL    HW2 6454   3.593   1.437   4.910
 2140SOL     OW 6455   2.674   1.586   4.411
 2140SOL    HW1 6456   2.706   1.596   4.317
 2140SOL    HW2 6457   2.595   1.524   4.413
 2141SOL     OW 6458   3.286   0.214   4.836
 2141SOL    HW1 6459   3.338   0.149   4.891
 2141SOL    HW2 6460   3.237   0.277   4.897
 2142SOL     OW 6461   2.863   0.034   4.878
 2142SOL    HW1 6462   2.800  -0.038   4.847
 2142SOL    HW2 6463   2.956  -0.002   4.878
 2143SOL     OW 6464   2.632   1.330   4.025
 2143SOL    HW1 6465   2.586   1.243   4.042
 2143SOL    HW2 6466   2.723   1.327   4.066
 2144SOL     OW 6467   3.214   0.052   3.892
 2144SOL    HW1 6468   3.249   0.011   3.808
 2144SOL    HW2 6469   3.124   0.014   3.912
 2145SOL     OW 6470   3.162   0.453   4.415
 2145SOL    HW1 6471   3.103   0.533   4.419
 2145SOL    HW2 6472   3.177   0.418   4.508
 2146SOL     OW 6473   3.455   0.221   4.606
 2146SOL    HW1 6474   3.371   0.220   4.660
 2146SOL    HW2 6475   3.457   0.304   4.550
 2147SOL     OW 6476   1.901   1.077   4.024
 2147SOL    HW1 6477   2.000   1.066   4.015
 2147SOL    HW2 6478   1.861   0.991   4.056
 2148SOL     OW 6479   2.737   1.646   4.061
 2148SOL    HW1 6480   2.660   1.611   4.007
 2148SOL    HW2 6481   2.705   1.717   4.123
 2149SOL     OW 6482   2.092   2.490   0.113
 2149SOL    HW1 6483   1.999   2.488   0.150
 2149SOL    HW2 6484   2.093   2.451   0.021
 2150SOL     OW 6485   2.087   2.137   0.996
 2150SOL    HW1 6486   2.122   2.120   1.088
 2150SOL    HW2 6487   1.999   2.092   0.984
 2151SOL     OW 6488   1.881   2.230   0.647
 2151SOL    HW1 6489   1.799   2.273   0.686
 2151SOL    HW2 6490   1.853   2.157   0.584
 2152SOL     OW 6491   2.431   3.137   1.165
 2152SOL    HW1 6492   2.338   3.130   1.128
 2152SOL    HW2 6493   2.442   3.226   1.209
 2153SOL     OW 6494   3.417   3.373   0.703
 2153SOL    HW1 6495   3.360   3.357   0.784
 2153SOL    HW2 6496   3.358   3.383   0.623
 2154SOL     OW 6497   2.997   2.565   0.717
 2154SOL    HW1 6498   3.054   2.643   0.692
 2154SOL    HW2 6499   2.937   2.591   0.793
 2155SOL     OW 6500   3.617   2.469   0.231
 2155SOL    HW1 6501   3.605   2.456   0.132
 2155SOL    HW2 6502   3.587   2.388   0.280
 2156SOL     OW 6503   2.630   3.006   1.023
 2156SOL    HW1 6504   2.552   3.023   1.083
 2156SOL    HW2 6505   2.664   3.093   0.987
 2157SOL     OW 6506   2.712   2.660   1.823
 2157SOL    HW1 6507   2.708   2.736   1.888
 2157SOL    HW2 6508   2.734   2.696   1.732
 2158SOL     OW 6509   2.547   2.874   0.665
 2158SOL    HW1 6510   2.616   2.858   0.735
 2158SOL    HW2 6511   2.474   2.931   0.703
 2159SOL     OW 6512   2.548   3.023   1.803
 2159SOL    HW1 6513   2.608   3.102   1.817
 2159SOL    HW2 6514   2.462   3.054   1.762
 2160SOL     OW 6515   2.197   3.297   1.061
 2160SOL    HW1 6516   2.119   3.266   1.008
 2160SOL    HW2 6517   2.255   3.355   1.004
 2161SOL     OW 6518   3.322   3.367   1.339
 2161SOL    HW1 6519   3.346   3.461   1.365
 2161SOL    HW2 6520   3.306   3.313   1.421
 2162SOL     OW 6521   2.300   2.254   1.499
 2162SOL    HW1 6522   2.382   2.198   1.508
 2162SOL    HW2 6523   2.219   2.196   1.503
 2163SOL     OW 6524   3.465   2.309   0.737
 2163SOL    HW1 6525   3.391   2.355   0.687
 2163SOL    HW2 6526   3.516   2.377   0.790
 2164SOL     OW 6527   2.093   3.575   0.483
 2164SOL    HW1 6528   2.127   3.652   0.537
 2164SOL    HW2 6529   2.137   3.575   0.393
 2165SOL     OW 6530   2.989   3.203   1.690
 2165SOL    HW1 6531   3.036   3.203   1.778
 2165SOL    HW2 6532   2.941   3.116   1.679
 2166SOL     OW 6533   2.092   3.296   0.538
 2166SOL    HW1 6534   2.066   3.392   0.538
 2166SOL    HW2 6535   2.021   3.242   0.583
 2167SOL     OW 6536   2.102   2.953   0.886
 2167SOL    HW1 6537   2.116   2.869   0.938
 2167SOL    HW2 6538   2.047   3.017   0.941
 2168SOL     OW 6539   2.482   3.648   1.439
 2168SOL    HW1 6540   2.390   3.631   1.474
 2168SOL    HW2 6541   2.510   3.740   1.465
 2169SOL     OW 6542   2.468   2.826   0.123
 2169SOL    HW1 6543   2.475   2.910   0.069
 2169SOL    HW2 6544   2.514   2.839   0.211
 2170SOL     OW 6545   3.456   1.976   1.480
 2170SOL    HW1 6546   3.438   2.043   1.408
 2170SOL    HW2 6547   3.453   2.022   1.569
 2171SOL     OW 6548   1.984   2.505   0.563
 2171SOL    HW1 6549   1.939   2.417   0.580
 2171SOL    HW2 6550   1.983   2.559   0.647
 2172SOL     OW 6551   3.704   3.629   0.359
 2172SOL    HW1 6552   3.758   3.600   0.439
 2172SOL    HW2 6553   3.734   3.719   0.330
 2173SOL     OW 6554   1.889   3.458   0.117
 2173SOL    HW1 6555   1.870   3.362   0.138
 2173SOL    HW2 6556   1.856   3.516   0.192
 2174SOL     OW 6557   3.551   2.784   0.612
 2174SOL    HW1 6558   3.646   2.755   0.620
 2174SOL    HW2 6559   3.543   2.849   0.537
 2175SOL     OW 6560   3.503   2.970   0.432
 2175SOL    HW1 6561   3.589   2.972   0.380
 2175SOL    HW2 6562   3.517   3.017   0.520
 2176SOL     OW 6563   1.975   2.599   1.597
 2176SOL    HW1 6564   2.063   2.586   1.642
 2176SOL    HW2 6565   1.962   2.696   1.575
 2177SOL     OW 6566   2.475   3.227   0.726
 2177SOL    HW1 6567   2.426   3.140   0.735
 2177SOL    HW2 6568   2.452   3.270   0.639
 2178SOL     OW 6569   3.155   3.090   1.423
 2178SOL    HW1 6570   3.192   3.017   1.365
 2178SOL    HW2 6571   3.207   3.095   1.508
 2179SOL     OW 6572   2.671   1.866   0.502
 2179SOL    HW1 6573   2.711   1.957   0.493
 2179SOL    HW2 6574   2.571   1.874   0.508
 2180SOL     OW 6575   2.059   2.838   1.264
 2180SOL    HW1 6576   2.148   2.793   1.250
 2180SOL    HW2 6577   1.986   2.773   1.245
 2181SOL     OW 6578   3.387   2.861   0.190
 2181SOL    HW1 6579   3.324   2.785   0.203
 2181SOL    HW2 6580   3.435   2.879   0.276
 2182SOL     OW 6581   3.049   3.654   1.616
 2182SOL    HW1 6582   3.073   3.714   1.540
 2182SOL    HW2 6583   3.056   3.559   1.586
 2183SOL     OW 6584   2.179   2.113   1.801
 2183SOL    HW1 6585   2.250   2.184   1.807
 2183SOL    HW2 6586   2.091   2.152   1.829
 2184SOL     OW 6587   3.328   3.279   0.953
 2184SOL    HW1 6588   3.269   3.285   1.033
 2184SOL    HW2 6589   3.313   3.191   0.907
 2185SOL     OW 6590   3.529   3.576   0.572
 2185SOL    HW1 6591   3.488   3.553   0.484
 2185SOL    HW2 6592   3.511   3.502   0.637
 2186SOL     OW 6593   2.460   2.591   0.270
 2186SOL    HW1 6594   2.484   2.660   0.202
 2186SOL    HW2 6595   2.382   2.624   0.324
 2187SOL     OW 6596   3.143   2.207   0.944
 2187SOL    HW1 6597   3.057   2.157   0.931
 2187SOL    HW2 6598   3.205   2.153   1.000
 2188SOL     OW 6599   3.438   3.524   0.307
 2188SOL    HW1 6600   3.527   3.570   0.310
 2188SOL    HW2 6601   3.417   3.500   0.212
 2189SOL     OW 6602   2.669   2.467   1.465
 2189SOL    HW1 6603   2.622   2.464   1.554
 2189SOL    HW2 6604   2.618   2.412   1.399
 2190SOL     OW 6605   3.256   2.331   1.674
 2190SOL    HW1 6606   3.236   2.374   1.762
 2190SOL    HW2 6607   3.334   2.269   1.683
 2191SOL     OW 6608   2.835   2.752   1.572
 2191SOL    HW1 6609   2.881   2.668   1.543
 2191SOL    HW2 6610   2.779   2.786   1.497
 2192SOL     OW 6611   2.853   2.272   1.242
 2192SOL    HW1 6612   2.776   2.306   1.296
 2192SOL    HW2 6613   2.819   2.221   1.163
 2193SOL     OW 6614   2.903   2.563   0.429
 2193SOL    HW1 6615   2.929   2.559   0.525
 2193SOL    HW2 6616   2.818   2.512   0.415
 2194SOL     OW 6617   1.938   2.673   0.789
 2194SOL    HW1 6618   2.037   2.661   0.798
 2194SOL    HW2 6619   1.914   2.768   0.810
 2195SOL     OW 6620   1.992   3.683   1.571
 2195SOL    HW1 6621   1.982   3.668   1.670
 2195SOL    HW2 6622   1.906   3.719   1.535
 2196SOL     OW 6623   2.727   2.210   0.195
 2196SOL    HW1 6624   2.786   2.273   0.146
 2196SOL    HW2 6625   2.746   2.116   0.166
 2197SOL     OW 6626   3.581   2.447   1.831
 2197SOL    HW1 6627   3.555   2.536   1.795
 2197SOL    HW2 6628   3.579   2.379   1.758
 2198SOL     OW 6629   3.224   3.006   0.545
 2198SOL    HW1 6630   3.307   2.977   0.497
 2198SOL    HW2 6631   3.175   3.073   0.489
 2199SOL     OW 6632   2.412   2.058   0.885
 2199SOL    HW1 6633   2.407   2.053   0.985
 2199SOL    HW2 6634   2.414   2.154   0.856
 2200SOL     OW 6635   2.870   3.318   0.477
 2200SOL    HW1 6636   2.824   3.390   0.425
 2200SOL    HW2 6637   2.866   3.338   0.575
 2201SOL     OW 6638   2.213   3.663   0.853
 2201SOL    HW1 6639   2.263   3.577   0.859
 2201SOL    HW2 6640   2.278   3.740   0.850
 2202SOL     OW 6641   3.657   2.928   0.873
 2202SOL    HW1 6642   3.595   2.913   0.797
 2202SOL    HW2 6643   3.605   2.939   0.958
 2203SOL     OW 6644   3.089   3.412   1.506
 2203SOL    HW1 6645   3.095   3.335   1.570
 2203SOL    HW2 6646   3.037   3.386   1.426
 2204SOL     OW 6647   2.183   2.805   0.242
 2204SOL    HW1 6648   2.265   2.844   0.200
 2204SOL    HW2 6649   2.156   2.723   0.193
 2205SOL     OW 6650   3.320   2.597   0.728
 2205SOL    HW1 6651   3.315   2.532   0.803
 2205SOL    HW2 6652   3.400   2.656   0.741
 2206SOL     OW 6653   2.323   3.128   1.727
 2206SOL    HW1 6654   2.273   3.129   1.641
 2206SOL    HW2 6655   2.260   3.110   1.803
 2207SOL     OW 6656   2.973   3.638   0.237
 2207SOL    HW1 6657   2.913   3.576   0.287
 2207SOL    HW2 6658   3.004   3.594   0.152
 2208SOL     OW 6659   2.064   2.147   1.498
 2208SOL    HW1 6660   1.984   2.207   1.485
 2208SOL    HW2 6661   2.054   2.098   1.584
 2209SOL     OW 6662   3.494   3.239   0.081
 2209SOL    HW1 6663   3.462   3.333   0.071
 2209SOL    HW2 6664   3.418   3.176   0.069
 2210SOL     OW 6665   2.326   3.605   0.323
 2210SOL    HW1 6666   2.359   3.644   0.409
 2210SOL    HW2 6667   2.402   3.598   0.258
 2211SOL     OW 6668   3.262   1.969   0.426
 2211SOL    HW1 6669   3.238   1.932   0.336
 2211SOL    HW2 6670   3.361   1.985   0.430
 2212SOL     OW 6671   2.111   3.647   1.241
 2212SOL    HW1 6672   2.168   3.582   1.291
 2212SOL    HW2 6673   2.095   3.614   1.148
 2213SOL     OW 6674   2.802   3.560   0.904
 2213SOL    HW1 6675   2.882   3.503   0.925
 2213SOL    HW2 6676   2.753   3.520   0.827
 2214SOL     OW 6677   2.244   2.562   0.480
 2214SOL    HW1 6678   2.289   2.472   0.477
 2214SOL    HW2 6679   2.150   2.551   0.513
 2215SOL     OW 6680   3.409   2.084   1.729
 2215SOL    HW1 6681   3.404   2.121   1.821
 2215SOL    HW2 6682   3.337   2.015   1.717
 2216SOL     OW 6683   2.643   2.126   1.749
 2216SOL    HW1 6684   2.710   2.065   1.792
 2216SOL    HW2 6685   2.570   2.145   1.814
 2217SOL     OW 6686   2.750   3.376   1.195
 2217SOL    HW1 6687   2.727   3.351   1.101
 2217SOL    HW2 6688   2.811   3.307   1.234
 2218SOL     OW 6689   3.213   2.452   1.433
 2218SOL    HW1 6690   3.241   2.409   1.518
 2218SOL    HW2 6691   3.238   2.548   1.434
 2219SOL     OW 6692   2.665   3.264   0.924
 2219SOL    HW1 6693   2.755   3.278   0.882
 2219SOL    HW2 6694   2.594   3.266   0.853
 2220SOL     OW 6695   2.784   2.365   0.899
 2220SOL    HW1 6696   2.759   2.356   0.803
 2220SOL    HW2 6697   2.832   2.283   0.930
 2221SOL     OW 6698   2.401   1.926   0.512
 2221SOL    HW1 6699   2.320   1.927   0.570
 2221SOL    HW2 6700   2.404   2.009   0.457
 2222SOL     OW 6701   3.296   3.050   0.041
 2222SOL    HW1 6702   3.328   2.974   0.098
 2222SOL    HW2 6703   3.204   3.077   0.071
 2223SOL     OW 6704   2.159   1.897   0.171
 2223SOL    HW1 6705   2.208   1.981   0.150
 2223SOL    HW2 6706   2.221   1.832   0.216
 2224SOL     OW 6707   2.797   2.098   0.480
 2224SOL    HW1 6708   2.749   2.139   0.402
 2224SOL    HW2 6709   2.896   2.096   0.461
 2225SOL     OW 6710   2.938   2.545   1.464
 2225SOL    HW1 6711   2.858   2.484   1.467
 2225SOL    HW2 6712   3.019   2.492   1.440
 2226SOL     OW 6713   3.089   3.432   0.793
 2226SOL    HW1 6714   3.110   3.506   0.728
 2226SOL    HW2 6715   3.157   3.432   0.866
 2227SOL     OW 6716   2.321   3.014   0.741
 2227SOL    HW1 6717   2.250   2.987   0.806
 2227SOL    HW2 6718   2.295   2.986   0.648
 2228SOL     OW 6719   3.133   3.659   0.591
 2228SOL    HW1 6720   3.177   3.723   0.527
 2228SOL    HW2 6721   3.083   3.711   0.661
 2229SOL     OW 6722   2.894   2.411   0.016
 2229SOL    HW1 6723   2.853   2.493  -0.023
 2229SOL    HW2 6724   2.958   2.437   0.089
 2230SOL     OW 6725   1.940   2.418   1.386
 2230SOL    HW1 6726   2.032   2.417   1.345
 2230SOL    HW2 6727   1.934   2.492   1.453
 2231SOL     OW 6728   2.423   2.084   1.147
 2231SOL    HW1 6729   2.461   2.000   1.184
 2231SOL    HW2 6730   2.335   2.103   1.191
 2232SOL     OW 6731   2.728   2.316   0.642
 2232SOL    HW1 6732   2.696   2.388   0.580
 2232SOL    HW2 6733   2.752   2.235   0.589
 2233SOL     OW 6734   2.879   1.901   0.753
 2233SOL    HW1 6735   2.807   1.906   0.684
 2233SOL    HW2 6736   2.855   1.832   0.822
 2234SOL     OW 6737   3.291   3.035   0.867
 2234SOL    HW1 6738   3.236   2.951   0.860
 2234SOL    HW2 6739   3.317   3.064   0.775
 2235SOL     OW 6740   3.328   2.452   0.992
 2235SOL    HW1 6741   3.298   2.357   0.999
 2235SOL    HW2 6742   3.401   2.468   1.058
 2236SOL     OW 6743   3.719   2.695   0.377
 2236SOL    HW1 6744   3.761   2.631   0.441
 2236SOL    HW2 6745   3.681   2.644   0.299
 2237SOL     OW 6746   2.350   3.247   0.174
 2237SOL    HW1 6747   2.263   3.232   0.221
 2237SOL    HW2 6748   2.333   3.273   0.079
 2238SOL     OW 6749   3.526   3.142   0.657
 2238SOL    HW1 6750   3.625   3.150   0.671
 2238SOL    HW2 6751   3.481   3.226   0.688
 2239SOL     OW 6752   3.252   2.437   0.078
 2239SOL    HW1 6753   3.198   2.416   0.159
 2239SOL    HW2 6754   3.343   2.396   0.087
 2240SOL     OW 6755   2.389   2.118   0.328
 2240SOL    HW1 6756   2.416   2.059   0.253
 2240SOL    HW2 6757   2.389   2.213   0.297
 2241SOL     OW 6758   3.616   3.085   1.588
 2241SOL    HW1 6759   3.707   3.046   1.575
 2241SOL    HW2 6760   3.624   3.181   1.612
 2242SOL     OW 6761   2.926   3.209   1.340
 2242SOL    HW1 6762   2.846   3.186   1.395
 2242SOL    HW2 6763   3.009   3.183   1.389
 2243SOL     OW 6764   3.454   3.491   1.625
 2243SOL    HW1 6765   3.481   3.525   1.535
 2243SOL    HW2 6766   3.533   3.453   1.671
 2244SOL     OW 6767   2.973   3.057   1.100
 2244SOL    HW1 6768   2.933   3.101   1.181
 2244SOL    HW2 6769   2.932   3.094   1.017
 2245SOL     OW 6770   3.500   2.961   1.079
 2245SOL    HW1 6771   3.505   3.042   1.138
 2245SOL    HW2 6772   3.414   2.963   1.028
 2246SOL     OW 6773   2.777   1.951   1.402
 2246SOL    HW1 6774   2.802   1.931   1.307
 2246SOL    HW2 6775   2.849   2.007   1.444
 2247SOL     OW 6776   2.842   2.978   1.719
 2247SOL    HW1 6777   2.743   2.984   1.729
 2247SOL    HW2 6778   2.865   2.898   1.663
 2248SOL     OW 6779   2.567   2.912   0.368
 2248SOL    HW1 6780   2.553   2.919   0.467
 2248SOL    HW2 6781   2.651   2.861   0.350
 2249SOL     OW 6782   2.272   2.675   1.251
 2249SOL    HW1 6783   2.358   2.687   1.301
 2249SOL    HW2 6784   2.230   2.588   1.278
 2250SOL     OW 6785   3.136   2.248   1.262
 2250SOL    HW1 6786   3.157   2.322   1.326
 2250SOL    HW2 6787   3.047   2.265   1.219
 2251SOL     OW 6788   1.926   3.426   1.331
 2251SOL    HW1 6789   1.880   3.508   1.297
 2251SOL    HW2 6790   2.024   3.445   1.340
 2252SOL     OW 6791   2.229   2.962   0.501
 2252SOL    HW1 6792   2.222   3.045   0.445
 2252SOL    HW2 6793   2.233   2.882   0.441
 2253SOL     OW 6794   2.428   2.399   0.865
 2253SOL    HW1 6795   2.440   2.465   0.791
 2253SOL    HW2 6796   2.474   2.433   0.948
 2254SOL     OW 6797   3.114   3.210   0.388
 2254SOL    HW1 6798   3.164   3.287   0.428
 2254SOL    HW2 6799   3.019   3.212   0.420
 2255SOL     OW 6800   3.134   3.307   1.142
 2255SOL    HW1 6801   3.181   3.320   1.229
 2255SOL    HW2 6802   3.068   3.233   1.151
 2256SOL     OW 6803   3.444   2.501   0.472
 2256SOL    HW1 6804   3.413   2.562   0.545
 2256SOL    HW2 6805   3.494   2.553   0.403
 2257SOL     OW 6806   2.216   3.372   1.329
 2257SOL    HW1 6807   2.195   3.328   1.242
 2257SOL    HW2 6808   2.313   3.398   1.332
 2258SOL     OW 6809   2.264   2.613   1.598
 2258SOL    HW1 6810   2.332   2.668   1.551
 2258SOL    HW2 6811   2.304   2.525   1.625
 2259SOL     OW 6812   3.449   2.641   1.670
 2259SOL    HW1 6813   3.357   2.679   1.665
 2259SOL    HW2 6814   3.509   2.688   1.605
 2260SOL     OW 6815   2.875   1.967   1.770
 2260SOL    HW1 6816   2.881   2.052   1.718
 2260SOL    HW2 6817   2.907   1.891   1.713
 2261SOL     OW 6818   2.366   1.912   1.740
 2261SOL    HW1 6819   2.324   1.855   1.670
 2261SOL    HW2 6820   2.300   1.981   1.772
 2262SOL     OW 6821   2.435   2.732   1.029
 2262SOL    HW1 6822   2.479   2.821   1.020
 2262SOL    HW2 6823   2.372   2.732   1.106
 2263SOL     OW 6824   3.222   2.724   1.045
 2263SOL    HW1 6825   3.147   2.724   0.979
 2263SOL    HW2 6826   3.259   2.632   1.054
 2264SOL     OW 6827   3.071   2.387   0.275
 2264SOL    HW1 6828   3.084   2.303   0.329
 2264SOL    HW2 6829   3.042   2.461   0.335
 2265SOL     OW 6830   2.169   2.075   1.231
 2265SOL    HW1 6831   2.146   2.112   1.321
 2265SOL    HW2 6832   2.139   1.980   1.225
 2266SOL     OW 6833   1.899   3.172   1.282
 2266SOL    HW1 6834   1.952   3.123   1.350
 2266SOL    HW2 6835   1.921   3.270   1.287
 2267SOL     OW 6836   2.594   2.496   1.064
 2267SOL    HW1 6837   2.653   2.470   0.988
 2267SOL    HW2 6838   2.566   2.592   1.053
 2268SOL     OW 6839   3.590   2.797   1.854
 2268SOL    HW1 6840   3.544   2.790   1.765
 2268SOL    HW2 6841   3.528   2.841   1.920
 2269SOL     OW 6842   2.169   1.925   0.618
 2269SOL    HW1 6843   2.158   2.019   0.651
 2269SOL    HW2 6844   2.164   1.862   0.695
 2270SOL     OW 6845   3.484   2.229   0.374
 2270SOL    HW1 6846   3.486   2.153   0.438
 2270SOL    HW2 6847   3.436   2.306   0.414
 2271SOL     OW 6848   2.885   2.628   0.966
 2271SOL    HW1 6849   2.900   2.649   1.062
 2271SOL    HW2 6850   2.855   2.533   0.957
 2272SOL     OW 6851   2.842   3.435   1.700
 2272SOL    HW1 6852   2.822   3.479   1.612
 2272SOL    HW2 6853   2.881   3.344   1.684
 2273SOL     OW 6854   3.721   3.380   1.605
 2273SOL    HW1 6855   3.735   3.407   1.510
 2273SOL    HW2 6856   3.804   3.402   1.658
 2274SOL     OW 6857   2.212   2.760   1.804
 2274SOL    HW1 6858   2.288   2.804   1.852
 2274SOL    HW2 6859   2.247   2.713   1.722
 2275SOL     OW 6860   3.402   2.136   0.125
 2275SOL    HW1 6861   3.341   2.061   0.148
 2275SOL    HW2 6862   3.424   2.188   0.208
 2276SOL     OW 6863   3.165   2.700   0.042
 2276SOL    HW1 6864   3.199   2.607   0.057
 2276SOL    HW2 6865   3.183   2.727  -0.053
 2277SOL     OW 6866   2.930   3.195   0.849
 2277SOL    HW1 6867   2.937   3.111   0.794
 2277SOL    HW2 6868   2.992   3.264   0.813
 2278SOL     OW 6869   2.181   2.672   0.949
 2278SOL    HW1 6870   2.274   2.708   0.954
 2278SOL    HW2 6871   2.175   2.587   1.001
 2279SOL     OW 6872   2.201   2.371   1.006
 2279SOL    HW1 6873   2.149   2.288   0.989
 2279SOL    HW2 6874   2.278   2.376   0.942
 2280SOL     OW 6875   3.000   2.242   1.678
 2280SOL    HW1 6876   2.955   2.305   1.742
 2280SOL    HW2 6877   3.093   2.273   1.661
 2281SOL     OW 6878   3.022   2.069   1.477
 2281SOL    HW1 6879   3.022   2.133   1.554
 2281SOL    HW2 6880   3.050   2.117   1.394
 2282SOL     OW 6881   1.950   3.663   0.927
 2282SOL    HW1 6882   1.908   3.577   0.900
 2282SOL    HW2 6883   2.044   3.666   0.893
 2283SOL     OW 6884   2.366   3.430   0.910
 2283SOL    HW1 6885   2.432   3.504   0.919
 2283SOL    HW2 6886   2.410   3.351   0.868
 2284SOL     OW 6887   2.864   2.658   1.238
 2284SOL    HW1 6888   2.905   2.626   1.324
 2284SOL    HW2 6889   2.768   2.631   1.235
 2285SOL     OW 6890   1.902   2.406   1.114
 2285SOL    HW1 6891   1.987   2.373   1.073
 2285SOL    HW2 6892   1.915   2.421   1.212
 2286SOL     OW 6893   2.051   2.382   1.722
 2286SOL    HW1 6894   2.110   2.342   1.652
 2286SOL    HW2 6895   1.993   2.453   1.681
 2287SOL     OW 6896   3.231   2.812   1.660
 2287SOL    HW1 6897   3.270   2.901   1.680
 2287SOL    HW2 6898   3.241   2.792   1.563
 2288SOL     OW 6899   2.677   2.434   0.325
 2288SOL    HW1 6900   2.684   2.345   0.279
 2288SOL    HW2 6901   2.583   2.468   0.317
 2289SOL     OW 6902   3.519   2.466   1.206
 2289SOL    HW1 6903   3.481   2.397   1.268
 2289SOL    HW2 6904   3.601   2.430   1.162
 2290SOL     OW 6905   2.114   3.426   1.744
 2290SOL    HW1 6906   2.084   3.483   1.820
 2290SOL    HW2 6907   2.107   3.329   1.770
 2291SOL     OW 6908   2.533   2.326   1.269
 2291SOL    HW1 6909   2.499   2.237   1.239
 2291SOL    HW2 6910   2.559   2.380   1.189
 2292SOL     OW 6911   2.792   3.540   1.465
 2292SOL    HW1 6912   2.768   3.522   1.370
 2292SOL    HW2 6913   2.822   3.634   1.475
 2293SOL     OW 6914   2.335   2.362   0.191
 2293SOL    HW1 6915   2.396   2.442   0.195
 2293SOL    HW2 6916   2.240   2.393   0.198
 2294SOL     OW 6917   2.021   2.999   1.466
 2294SOL    HW1 6918   2.043   2.938   1.542
 2294SOL    HW2 6919   2.031   2.950   1.380
 2295SOL     OW 6920   3.209   2.921   1.234
 2295SOL    HW1 6921   3.233   2.858   1.160
 2295SOL    HW2 6922   3.119   2.961   1.216
 2296SOL     OW 6923   3.164   2.717   0.309
 2296SOL    HW1 6924   3.078   2.686   0.351
 2296SOL    HW2 6925   3.160   2.703   0.210
 2297SOL     OW 6926   3.621   3.609   1.154
 2297SOL    HW1 6927   3.682   3.639   1.081
 2297SOL    HW2 6928   3.583   3.520   1.132
 2298SOL     OW 6929   3.114   3.593   1.128
 2298SOL    HW1 6930   3.198   3.598   1.074
 2298SOL    HW2 6931   3.091   3.497   1.146
 2299SOL     OW 6932   1.945   3.120   1.022
 2299SOL    HW1 6933   1.940   3.119   1.122
 2299SOL    HW2 6934   1.862   3.079   0.984
 2300SOL     OW 6935   2.550   3.524   1.716
 2300SOL    HW1 6936   2.494   3.605   1.725
 2300SOL    HW2 6937   2.602   3.528   1.630
 2301SOL     OW 6938   2.765   1.948   0.133
 2301SOL    HW1 6939   2.816   1.949   0.047
 2301SOL    HW2 6940   2.821   1.906   0.204
 2302SOL     OW 6941   3.588   1.997   0.523
 2302SOL    HW1 6942   3.661   1.980   0.456
 2302SOL    HW2 6943   3.557   1.910   0.561
 2303SOL     OW 6944   3.250   3.435   0.477
 2303SOL    HW1 6945   3.317   3.447   0.403
 2303SOL    HW2 6946   3.210   3.524   0.500
 2304SOL     OW 6947   1.992   3.656   1.851
 2304SOL    HW1 6948   1.951   3.582   1.904
 2304SOL    HW2 6949   2.056   3.707   1.909
 2305SOL     OW 6950   3.142   2.789   0.672
 2305SOL    HW1 6951   3.202   2.708   0.674
 2305SOL    HW2 6952   3.182   2.858   0.612
 2306SOL     OW 6953   2.692   3.135   1.422
 2306SOL    HW1 6954   2.687   3.168   1.517
 2306SOL    HW2 6955   2.606   3.154   1.376
 2307SOL     OW 6956   2.534   3.478   0.154
 2307SOL    HW1 6957   2.543   3.488   0.055
 2307SOL    HW2 6958   2.494   3.389   0.175
 2308SOL     OW 6959   3.512   3.582   1.394
 2308SOL    HW1 6960   3.565   3.592   1.310
 2308SOL    HW2 6961   3.485   3.672   1.428
 2309SOL     OW 6962   3.703   2.037   0.963
 2309SOL    HW1 6963   3.742   1.952   0.927
 2309SOL    HW2 6964   3.605   2.039   0.944
 2310SOL     OW 6965   2.125   2.188   0.720
 2310SOL    HW1 6966   2.046   2.239   0.686
 2310SOL    HW2 6967   2.116   2.173   0.818
 2311SOL     OW 6968   3.056   3.474   0.031
 2311SOL    HW1 6969   3.062   3.381   0.068
 2311SOL    HW2 6970   2.997   3.474  -0.049
 2312SOL     OW 6971   2.684   2.864   1.372
 2312SOL    HW1 6972   2.724   2.863   1.280
 2312SOL    HW2 6973   2.694   2.956   1.412
 2313SOL     OW 6974   2.778   2.772   0.291
 2313SOL    HW1 6975   2.841   2.810   0.223
 2313SOL    HW2 6976   2.818   2.689   0.330
 2314SOL     OW 6977   3.366   3.469   0.044
 2314SOL    HW1 6978   3.274   3.506   0.051
 2314SOL    HW2 6979   3.404   3.489  -0.046
 2315SOL     OW 6980   2.234   3.150   1.490
 2315SOL    HW1 6981   2.221   3.243   1.456
 2315SOL    HW2 6982   2.150   3.098   1.477
 2316SOL     OW 6983   3.476   3.154   1.289
 2316SOL    HW1 6984   3.536   3.157   1.369
 2316SOL    HW2 6985   3.401   3.218   1.302
 2317SOL     OW 6986   2.901   2.960   0.696
 2317SOL    HW1 6987   2.831   2.913   0.750
 2317SOL    HW2 6988   2.960   2.892   0.653
 2318SOL     OW 6989   2.876   2.098   0.971
 2318SOL    HW1 6990   2.868   2.062   0.878
 2318SOL    HW2 6991   2.874   2.022   1.036
 2319SOL     OW 6992   2.452   3.349   0.491
 2319SOL    HW1 6993   2.494   3.291   0.421
 2319SOL    HW2 6994   2.408   3.428   0.447
 2320SOL     OW 6995   3.571   2.247   1.381
 2320SOL    HW1 6996   3.644   2.316   1.385
 2320SOL    HW2 6997   3.599   2.172   1.322
 2321SOL     OW 6998   2.117   3.210   0.290
 2321SOL    HW1 6999   2.021   3.211   0.263
 2321SOL    HW2 7000   2.129   3.263   0.374
 2322SOL     OW 7001   1.967   2.875   1.726
 2322SOL    HW1 7002   1.890   2.842   1.780
 2322SOL    HW2 7003   2.052   2.845   1.768
 2323SOL     OW 7004   2.534   2.065   1.489
 2323SOL    HW1 7005   2.624   2.049   1.449
 2323SOL    HW2 7006   2.542   2.070   1.588
 2324SOL     OW 7007   3.302   2.718   1.398
 2324SOL    HW1 7008   3.245   2.770   1.335
 2324SOL    HW2 7009   3.398   2.730   1.374
 2325SOL     OW 7010   1.934   2.028   0.318
 2325SOL    HW1 7011   1.917   2.111   0.264
 2325SOL    HW2 7012   2.024   1.991   0.296
 2326SOL     OW 7013   3.045   3.197   0.119
 2326SOL    HW1 7014   2.946   3.186   0.121
 2326SOL    HW2 7015   3.079   3.212   0.212
 2327SOL     OW 7016   2.475   2.704   1.431
 2327SOL    HW1 7017   2.531   2.785   1.414
 2327SOL    HW2 7018   2.534   2.624   1.434
 2328SOL     OW 7019   3.355   3.629   0.959
 2328SOL    HW1 7020   3.388   3.693   0.890
 2328SOL    HW2 7021   3.421   3.623   1.034
 2329SOL     OW 7022   2.578   2.427   1.708
 2329SOL    HW1 7023   2.597   2.492   1.782
 2329SOL    HW2 7024   2.638   2.347   1.717
 2330SOL     OW 7025   3.312   3.082   1.633
 2330SOL    HW1 7026   3.303   3.072   1.732
 2330SOL    HW2 7027   3.408   3.075   1.607
 2331SOL     OW 7028   2.252   3.603   1.560
 2331SOL    HW1 7029   2.161   3.644   1.558
 2331SOL    HW2 7030   2.245   3.509   1.592
 2332SOL     OW 7031   3.536   2.745   1.254
 2332SOL    HW1 7032   3.509   2.656   1.217
 2332SOL    HW2 7033   3.537   2.813   1.181
 2333SOL     OW 7034   3.087   2.187   0.449
 2333SOL    HW1 7035   3.152   2.113   0.438
 2333SOL    HW2 7036   3.107   2.237   0.533
 2334SOL     OW 7037   2.456   2.607   0.652
 2334SOL    HW1 7038   2.506   2.692   0.633
 2334SOL    HW2 7039   2.368   2.609   0.604
 2335SOL     OW 7040   3.639   2.204   1.642
 2335SOL    HW1 7041   3.622   2.235   1.548
 2335SOL    HW2 7042   3.555   2.167   1.680
 2336SOL     OW 7043   3.592   2.796   1.517
 2336SOL    HW1 7044   3.630   2.887   1.532
 2336SOL    HW2 7045   3.584   2.779   1.418
 2337SOL     OW 7046   2.721   3.236   0.016
 2337SOL    HW1 7047   2.675   3.251   0.104
 2337SOL    HW2 7048   2.765   3.321  -0.014
 2338SOL     OW 7049   2.523   3.652   0.953
 2338SOL    HW1 7050   2.477   3.740   0.940
 2338SOL    HW2 7051   2.622   3.664   0.946
 2339SOL     OW 7052   2.721   2.818   0.861
 2339SOL    HW1 7053   2.775   2.749   0.909
 2339SOL    HW2 7054   2.689   2.887   0.927
 2340SOL     OW 7055   2.945   2.846   0.087
 2340SOL    HW1 7056   2.922   2.899   0.005
 2340SOL    HW2 7057   3.026   2.790   0.068
 2341SOL     OW 7058   3.723   3.431   0.851
 2341SOL    HW1 7059   3.652   3.419   0.781
 2341SOL    HW2 7060   3.724   3.352   0.911
 2342SOL     OW 7061   2.083   3.176   1.844
 2342SOL    HW1 7062   2.018   3.103   1.823
 2342SOL    HW2 7063   2.087   3.190   1.942
 2343SOL     OW 7064   1.941   3.102   0.653
 2343SOL    HW1 7065   1.940   3.055   0.741
 2343SOL    HW2 7066   2.023   3.074   0.602
 2344SOL     OW 7067   2.534   3.253   1.624
 2344SOL    HW1 7068   2.456   3.203   1.662
 2344SOL    HW2 7069   2.531   3.348   1.655
 2345SOL     OW 7070   3.686   2.054   1.227
 2345SOL    HW1 7071   3.682   1.964   1.271
 2345SOL    HW2 7072   3.689   2.043   1.128
 2346SOL     OW 7073   2.290   2.286   0.520
 2346SOL    HW1 7074   2.320   2.214   0.458
 2346SOL    HW2 7075   2.251   2.246   0.603
 2347SOL     OW 7076   3.567   3.349   1.104
 2347SOL    HW1 7077   3.474   3.324   1.077
 2347SOL    HW2 7078   3.593   3.299   1.186
 2348SOL     OW 7079   2.179   2.409   1.280
 2348SOL    HW1 7080   2.217   2.350   1.352
 2348SOL    HW2 7081   2.219   2.383   1.192
 2349SOL     OW 7082   2.674   3.448   0.687
 2349SOL    HW1 7083   2.706   3.458   0.593
 2349SOL    HW2 7084   2.595   3.386   0.689
 2350SOL     OW 7085   3.286   2.076   1.112
 2350SOL    HW1 7086   3.338   2.011   1.167
 2350SOL    HW2 7087   3.237   2.139   1.173
 2351SOL     OW 7088   2.863   1.896   1.154
 2351SOL    HW1 7089   2.800   1.824   1.123
 2351SOL    HW2 7090   2.956   1.860   1.154
 2352SOL     OW 7091   2.632   3.192   0.301
 2352SOL    HW1 7092   2.586   3.105   0.318
 2352SOL    HW2 7093   2.723   3.189   0.342
 2353SOL     OW 7094   2.480   3.429   1.284
 2353SOL    HW1 7095   2.475   3.511   1.341
 2353SOL    HW2 7096   2.569   3.426   1.239
 2354SOL     OW 7097   3.214   1.914   0.168
 2354SOL    HW1 7098   3.249   1.873   0.084
 2354SOL    HW2 7099   3.124   1.876   0.188
 2355SOL     OW 7100   3.162   2.315   0.691
 2355SOL    HW1 7101   3.103   2.395   0.695
 2355SOL    HW2 7102   3.177   2.280   0.784
 2356SOL     OW 7103   3.455   2.083   0.882
 2356SOL    HW1 7104   3.371   2.082   0.936
 2356SOL    HW2 7105   3.457   2.166   0.826
 2357SOL     OW 7106   1.901   2.939   0.300
 2357SOL    HW1 7107   2.000   2.928   0.291
 2357SOL    HW2 7108   1.861   2.853   0.332
 2358SOL     OW 7109   2.737   3.508   0.337
 2358SOL    HW1 7110   2.660   3.473   0.283
 2358SOL    HW2 7111   2.705   3.579   0.399
 2359SOL     OW 7112   2.092   2.490   1.975
 2359SOL    HW1 7113   1.999   2.488   2.012
 2359SOL    HW2 7114   2.093   2.451   1.883
 2360SOL     OW 7115   2.087   2.137   2.858
 2360SOL    HW1 7116   2.122   2.120   2.950
 2360SOL    HW2 7117   1.999   2.092   2.846
 2361SOL     OW 7118   1.881   2.230   2.509
 2361SOL    HW1 7119   1.799   2.273   2.548
 2361SOL    HW2 7120   1.853   2.157   2.446
 2362SOL     OW 7121   2.431   3.137   3.027
 2362SOL    HW1 7122   2.338   3.130   2.990
 2362SOL    HW2 7123   2.442   3.226   3.071
 2363SOL     OW 7124   3.417   3.373   2.565
 2363SOL    HW1 7125   3.360   3.357   2.646
 2363SOL    HW2 7126   3.358   3.383   2.485
 2364SOL     OW 7127   3.617   2.469   2.093
 2364SOL    HW1 7128   3.605   2.456   1.994
 2364SOL    HW2 7129   3.587   2.388   2.142
 2365SOL     OW 7130   2.630   3.006   2.885
 2365SOL    HW1 7131   2.552   3.023   2.945
 2365SOL    HW2 7132   2.664   3.093   2.849
 2366SOL     OW 7133   2.712   2.660   3.685
 2366SOL    HW1 7134   2.708   2.736   3.750
 2366SOL    HW2 7135   2.734   2.696   3.594
 2367SOL     OW 7136   2.547   2.874   2.527
 2367SOL    HW1 7137   2.616   2.858   2.597
 2367SOL    HW2 7138   2.474   2.931   2.565
 2368SOL     OW 7139   2.548   3.023   3.665
 2368SOL    HW1 7140   2.608   3.102   3.679
 2368SOL    HW2 7141   2.462   3.054   3.624
 2369SOL     OW 7142   2.197   3.297   2.923
 2369SOL    HW1 7143   2.119   3.266   2.870
 2369SOL    HW2 7144   2.255   3.355   2.866
 2370SOL     OW 7145   3.322   3.367   3.201
 2370SOL    HW1 7146   3.346   3.461   3.227
 2370SOL    HW2 7147   3.306   3.313   3.283
 2371SOL     OW 7148   2.300   2.254   3.361
 2371SOL    HW1 7149   2.382   2.198   3.370
 2371SOL    HW2 7150   2.219   2.196   3.365
 2372SOL     OW 7151   3.465   2.309   2.599
 2372SOL    HW1 7152   3.391   2.355   2.549
 2372SOL    HW2 7153   3.516   2.377   2.652
 2373SOL     OW 7154   2.093   3.575   2.345
 2373SOL    HW1 7155   2.127   3.652   2.399
 2373SOL    HW2 7156   2.137   3.575   2.255
 2374SOL     OW 7157   2.989   3.203   3.552
 2374SOL    HW1 7158   3.036   3.203   3.640
 2374SOL    HW2 7159   2.941   3.116   3.541
 2375SOL     OW 7160   2.092   3.296   2.400
 2375SOL    HW1 7161   2.066   3.392   2.400
 2375SOL    HW2 7162   2.021   3.242   2.445
 2376SOL     OW 7163   2.102   2.953   2.748
 2376SOL    HW1 7164   2.116   2.869   2.800
 2376SOL    HW2 7165   2.047   3.017   2.803
 2377SOL     OW 7166   2.482   3.648   3.301
 2377SOL    HW1 7167   2.390   3.631   3.336
 2377SOL    HW2 7168   2.510   3.740   3.327
 2378SOL     OW 7169   2.468   2.826   1.985
 2378SOL    HW1 7170   2.475   2.910   1.931
 2378SOL    HW2 7171   2.514   2.839   2.073
 2379SOL     OW 7172   3.456   1.976   3.342
 2379SOL    HW1 7173   3.438   2.043   3.270
 2379SOL    HW2 7174   3.453   2.022   3.431
 2380SOL     OW 7175   3.704   3.629   2.221
 2380SOL    HW1 7176   3.758   3.600   2.301
 2380SOL    HW2 7177   3.734   3.719   2.192
 2381SOL     OW 7178   1.889   3.458   1.979
 2381SOL    HW1 7179   1.870   3.362   2.000
 2381SOL    HW2 7180   1.856   3.516   2.054
 2382SOL     OW 7181   3.551   2.784   2.474
 2382SOL    HW1 7182   3.646   2.755   2.482
 2382SOL    HW2 7183   3.543   2.849   2.399
 2383SOL     OW 7184   3.503   2.970   2.294
 2383SOL    HW1 7185   3.589   2.972   2.242
 2383SOL    HW2 7186   3.517   3.017   2.382
 2384SOL     OW 7187   1.975   2.599   3.459
 2384SOL    HW1 7188   2.063   2.586   3.504
 2384SOL    HW2 7189   1.962   2.696   3.437
 2385SOL     OW 7190   2.475   3.227   2.588
 2385SOL    HW1 7191   2.426   3.140   2.597
 2385SOL    HW2 7192   2.452   3.270   2.501
 2386SOL     OW 7193   3.155   3.090   3.285
 2386SOL    HW1 7194   3.192   3.017   3.227
 2386SOL    HW2 7195   3.207   3.095   3.370
 2387SOL     OW 7196   2.671   1.866   2.364
 2387SOL    HW1 7197   2.711   1.957   2.355
 2387SOL    HW2 7198   2.571   1.874   2.370
 2388SOL     OW 7199   2.059   2.838   3.126
 2388SOL    HW1 7200   2.148   2.793   3.112
 2388SOL    HW2 7201   1.986   2.773   3.107
 2389SOL     OW 7202   3.387   2.861   2.052
 2389SOL    HW1 7203   3.324   2.785   2.065
 2389SOL    HW2 7204   3.435   2.879   2.138
 2390SOL     OW 7205   3.049   3.654   3.478
 2390SOL    HW1 7206   3.073   3.714   3.402
 2390SOL    HW2 7207   3.056   3.559   3.448
 2391SOL     OW 7208   2.179   2.113   3.663
 2391SOL    HW1 7209   2.250   2.184   3.669
 2391SOL    HW2 7210   2.091   2.152   3.691
 2392SOL     OW 7211   3.328   3.279   2.815
 2392SOL    HW1 7212   3.269   3.285   2.895
 2392SOL    HW2 7213   3.313   3.191   2.769
 2393SOL     OW 7214   3.529   3.576   2.434
 2393SOL    HW1 7215   3.488   3.553   2.346
 2393SOL    HW2 7216   3.511   3.502   2.499
 2394SOL     OW 7217   3.143   2.207   2.806
 2394SOL    HW1 7218   3.057   2.157   2.793
 2394SOL    HW2 7219   3.205   2.153   2.862
 2395SOL     OW 7220   3.438   3.524   2.169
 2395SOL    HW1 7221   3.527   3.570   2.172
 2395SOL    HW2 7222   3.417   3.500   2.074
 2396SOL     OW 7223   2.669   2.467   3.327
 2396SOL    HW1 7224   2.622   2.464   3.416
 2396SOL    HW2 7225   2.618   2.412   3.261
 2397SOL     OW 7226   3.256   2.331   3.536
 2397SOL    HW1 7227   3.236   2.374   3.624
 2397SOL    HW2 7228   3.334   2.269   3.545
 2398SOL     OW 7229   2.835   2.752   3.434
 2398SOL    HW1 7230   2.881   2.668   3.405
 2398SOL    HW2 7231   2.779   2.786   3.359
 2399SOL     OW 7232   2.853   2.272   3.104
 2399SOL    HW1 7233   2.776   2.306   3.158
 2399SOL    HW2 7234   2.819   2.221   3.025
 2400SOL     OW 7235   1.938   2.673   2.651
 2400SOL    HW1 7236   2.037   2.661   2.660
 2400SOL    HW2 7237   1.914   2.768   2.672
 2401SOL     OW 7238   1.992   3.683   3.433
 2401SOL    HW1 7239   1.982   3.668   3.532
 2401SOL    HW2 7240   1.906   3.719   3.397
 2402SOL     OW 7241   2.727   2.210   2.057
 2402SOL    HW1 7242   2.786   2.273   2.008
 2402SOL    HW2 7243   2.746   2.116   2.028
 2403SOL     OW 7244   3.581   2.447   3.693
 2403SOL    HW1 7245   3.555   2.536   3.657
 2403SOL    HW2 7246   3.579   2.379   3.620
 2404SOL     OW 7247   3.224   3.006   2.407
 2404SOL    HW1 7248   3.307   2.977   2.359
 2404SOL    HW2 7249   3.175   3.073   2.351
 2405SOL     OW 7250   2.412   2.058   2.747
 2405SOL    HW1 7251   2.407   2.053   2.847
 2405SOL    HW2 7252   2.414   2.154   2.718
 2406SOL     OW 7253   2.870   3.318   2.339
 2406SOL    HW1 7254   2.824   3.390   2.287
 2406SOL    HW2 7255   2.866   3.338   2.437
 2407SOL     OW 7256   2.213   3.663   2.715
 2407SOL    HW1 7257   2.263   3.577   2.721
 2407SOL    HW2 7258   2.278   3.740   2.712
 2408SOL     OW 7259   3.657   2.928   2.735
 2408SOL    HW1 7260   3.595   2.913   2.659
 2408SOL    HW2 7261   3.605   2.939   2.820
 2409SOL     OW 7262   3.089   3.412   3.368
 2409SOL    HW1 7263   3.095   3.335   3.432
 2409SOL    HW2 7264   3.037   3.386   3.288
 2410SOL     OW 7265   2.183   2.805   2.104
 2410SOL    HW1 7266   2.265   2.844   2.062
 2410SOL    HW2 7267   2.156   2.723   2.055
 2411SOL     OW 7268   3.320   2.597   2.590
 2411SOL    HW1 7269   3.315   2.532   2.665
 2411SOL    HW2 7270   3.400   2.656   2.603
 2412SOL     OW 7271   2.323   3.128   3.589
 2412SOL    HW1 7272   2.273   3.129   3.503
 2412SOL    HW2 7273   2.260   3.110   3.665
 2413SOL     OW 7274   2.973   3.638   2.099
 2413SOL    HW1 7275   2.913   3.576   2.149
 2413SOL    HW2 7276   3.004   3.594   2.014
 2414SOL     OW 7277   2.064   2.147   3.360
 2414SOL    HW1 7278   1.984   2.207   3.347
 2414SOL    HW2 7279   2.054   2.098   3.446
 2415SOL     OW 7280   3.494   3.239   1.943
 2415SOL    HW1 7281   3.462   3.333   1.933
 2415SOL    HW2 7282   3.418   3.176   1.931
 2416SOL     OW 7283   2.326   3.605   2.185
 2416SOL    HW1 7284   2.359   3.644   2.271
 2416SOL    HW2 7285   2.402   3.598   2.120
 2417SOL     OW 7286   3.262   1.969   2.288
 2417SOL    HW1 7287   3.238   1.932   2.198
 2417SOL    HW2 7288   3.361   1.985   2.292
 2418SOL     OW 7289   2.111   3.647   3.103
 2418SOL    HW1 7290   2.168   3.582   3.153
 2418SOL    HW2 7291   2.095   3.614   3.010
 2419SOL     OW 7292   2.802   3.560   2.766
 2419SOL    HW1 7293   2.882   3.503   2.787
 2419SOL    HW2 7294   2.753   3.520   2.689
 2420SOL     OW 7295   3.409   2.084   3.591
 2420SOL    HW1 7296   3.404   2.121   3.683
 2420SOL    HW2 7297   3.337   2.015   3.579
 2421SOL     OW 7298   2.476   1.984   1.979
 2421SOL    HW1 7299   2.574   1.962   1.986
 2421SOL    HW2 7300   2.445   1.967   1.886
 2422SOL     OW 7301   2.643   2.126   3.611
 2422SOL    HW1 7302   2.710   2.065   3.654
 2422SOL    HW2 7303   2.570   2.145   3.676
 2423SOL     OW 7304   2.750   3.376   3.057
 2423SOL    HW1 7305   2.727   3.351   2.963
 2423SOL    HW2 7306   2.811   3.307   3.096
 2424SOL     OW 7307   3.213   2.452   3.295
 2424SOL    HW1 7308   3.241   2.409   3.380
 2424SOL    HW2 7309   3.238   2.548   3.296
 2425SOL     OW 7310   2.665   3.264   2.786
 2425SOL    HW1 7311   2.755   3.278   2.744
 2425SOL    HW2 7312   2.594   3.266   2.715
 2426SOL     OW 7313   2.401   1.926   2.374
 2426SOL    HW1 7314   2.320   1.927   2.432
 2426SOL    HW2 7315   2.404   2.009   2.319
 2427SOL     OW 7316   3.296   3.050   1.903
 2427SOL    HW1 7317   3.328   2.974   1.960
 2427SOL    HW2 7318   3.204   3.077   1.933
 2428SOL     OW 7319   2.159   1.897   2.033
 2428SOL    HW1 7320   2.208   1.981   2.012
 2428SOL    HW2 7321   2.221   1.832   2.078
 2429SOL     OW 7322   2.797   2.098   2.342
 2429SOL    HW1 7323   2.749   2.139   2.264
 2429SOL    HW2 7324   2.896   2.096   2.323
 2430SOL     OW 7325   2.938   2.545   3.326
 2430SOL    HW1 7326   2.858   2.484   3.329
 2430SOL    HW2 7327   3.019   2.492   3.302
 2431SOL     OW 7328   3.089   3.432   2.655
 2431SOL    HW1 7329   3.110   3.506   2.590
 2431SOL    HW2 7330   3.157   3.432   2.728
 2432SOL     OW 7331   2.321   3.014   2.603
 2432SOL    HW1 7332   2.250   2.987   2.668
 2432SOL    HW2 7333   2.295   2.986   2.510
 2433SOL     OW 7334   3.133   3.659   2.453
 2433SOL    HW1 7335   3.177   3.723   2.389
 2433SOL    HW2 7336   3.083   3.711   2.523
 2434SOL     OW 7337   2.894   2.411   1.878
 2434SOL    HW1 7338   2.853   2.493   1.839
 2434SOL    HW2 7339   2.958   2.437   1.951
 2435SOL     OW 7340   1.940   2.418   3.248
 2435SOL    HW1 7341   2.032   2.417   3.207
 2435SOL    HW2 7342   1.934   2.492   3.315
 2436SOL     OW 7343   2.423   2.084   3.009
 2436SOL    HW1 7344   2.461   2.000   3.046
 2436SOL    HW2 7345   2.335   2.103   3.053
 2437SOL     OW 7346   2.728   2.316   2.504
 2437SOL    HW1 7347   2.696   2.388   2.442
 2437SOL    HW2 7348   2.752   2.235   2.451
 2438SOL     OW 7349   2.879   1.901   2.615
 2438SOL    HW1 7350   2.807   1.906   2.546
 2438SOL    HW2 7351   2.855   1.832   2.684
 2439SOL     OW 7352   3.291   3.035   2.729
 2439SOL    HW1 7353   3.236   2.951   2.722
 2439SOL    HW2 7354   3.317   3.064   2.637
 2440SOL     OW 7355   3.328   2.452   2.854
 2440SOL    HW1 7356   3.298   2.357   2.861
 2440SOL    HW2 7357   3.401   2.468   2.920
 2441SOL     OW 7358   3.719   2.695   2.239
 2441SOL    HW1 7359   3.761   2.631   2.303
 2441SOL    HW2 7360   3.681   2.644   2.161
 2442SOL     OW 7361   2.350   3.247   2.036
 2442SOL    HW1 7362   2.263   3.232   2.083
 2442SOL    HW2 7363   2.333   3.273   1.941
 2443SOL     OW 7364   3.526   3.142   2.519
 2443SOL    HW1 7365   3.625   3.150   2.533
 2443SOL    HW2 7366   3.481   3.226   2.550
 2444SOL     OW 7367   3.252   2.437   1.940
 2444SOL    HW1 7368   3.198   2.416   2.021
 2444SOL    HW2 7369   3.343   2.396   1.949
 2445SOL     OW 7370   2.389   2.118   2.190
 2445SOL    HW1 7371   2.416   2.059   2.115
 2445SOL    HW2 7372   2.389   2.213   2.159
 2446SOL     OW 7373   3.616   3.085   3.450
 2446SOL    HW1 7374   3.707   3.046   3.437
 2446SOL    HW2 7375   3.624   3.181   3.474
 2447SOL     OW 7376   2.926   3.209   3.202
 2447SOL    HW1 7377   2.846   3.186   3.257
 2447SOL    HW2 7378   3.009   3.183   3.251
 2448SOL     OW 7379   3.454   3.491   3.487
 2448SOL    HW1 7380   3.481   3.525   3.397
 2448SOL    HW2 7381   3.533   3.453   3.533
 2449SOL     OW 7382   2.973   3.057   2.962
 2449SOL    HW1 7383   2.933   3.101   3.043
 2449SOL    HW2 7384   2.932   3.094   2.879
 2450SOL     OW 7385   3.500   2.961   2.941
 2450SOL    HW1 7386   3.505   3.042   3.000
 2450SOL    HW2 7387   3.414   2.963   2.890
 2451SOL     OW 7388   2.777   1.951   3.264
 2451SOL    HW1 7389   2.802   1.931   3.169
 2451SOL    HW2 7390   2.849   2.007   3.306
 2452SOL     OW 7391   2.842   2.978   3.581
 2452SOL    HW1 7392   2.743   2.984   3.591
 2452SOL    HW2 7393   2.865   2.898   3.525
 2453SOL     OW 7394   2.567   2.912   2.230
 2453SOL    HW1 7395   2.553   2.919   2.329
 2453SOL    HW2 7396   2.651   2.861   2.212
 2454SOL     OW 7397   2.272   2.675   3.113
 2454SOL    HW1 7398   2.358   2.687   3.163
 2454SOL    HW2 7399   2.230   2.588   3.140
 2455SOL     OW 7400   3.136   2.248   3.124
 2455SOL    HW1 7401   3.157   2.322   3.188
 2455SOL    HW2 7402   3.047   2.265   3.081
 2456SOL     OW 7403   1.926   3.426   3.193
 2456SOL    HW1 7404   1.880   3.508   3.159
 2456SOL    HW2 7405   2.024   3.445   3.202
 2457SOL     OW 7406   2.229   2.962   2.363
 2457SOL    HW1 7407   2.222   3.045   2.307
 2457SOL    HW2 7408   2.233   2.882   2.303
 2458SOL     OW 7409   3.114   3.210   2.250
 2458SOL    HW1 7410   3.164   3.287   2.290
 2458SOL    HW2 7411   3.019   3.212   2.282
 2459SOL     OW 7412   3.134   3.307   3.004
 2459SOL    HW1 7413   3.181   3.320   3.091
 2459SOL    HW2 7414   3.068   3.233   3.013
 2460SOL     OW 7415   3.444   2.501   2.334
 2460SOL    HW1 7416   3.413   2.562   2.407
 2460SOL    HW2 7417   3.494   2.553   2.265
 2461SOL     OW 7418   2.216   3.372   3.191
 2461SOL    HW1 7419   2.195   3.328   3.104
 2461SOL    HW2 7420   2.313   3.398   3.194
 2462SOL     OW 7421   2.264   2.613   3.460
 2462SOL    HW1 7422   2.332   2.668   3.413
 2462SOL    HW2 7423   2.304   2.525   3.487
 2463SOL     OW 7424   3.449   2.641   3.532
 2463SOL    HW1 7425   3.357   2.679   3.527
 2463SOL    HW2 7426   3.509   2.688   3.467
 2464SOL     OW 7427   2.875   1.967   3.632
 2464SOL    HW1 7428   2.881   2.052   3.580
 2464SOL    HW2 7429   2.907   1.891   3.575
 2465SOL     OW 7430   2.366   1.912   3.602
 2465SOL    HW1 7431   2.324   1.855   3.532
 2465SOL    HW2 7432   2.300   1.981   3.634
 2466SOL     OW 7433   3.222   2.724   2.907
 2466SOL    HW1 7434   3.147   2.724   2.841
 2466SOL    HW2 7435   3.259   2.632   2.916
 2467SOL     OW 7436   3.071   2.387   2.137
 2467SOL    HW1 7437   3.084   2.303   2.191
 2467SOL    HW2 7438   3.042   2.461   2.197
 2468SOL     OW 7439   2.169   2.075   3.093
 2468SOL    HW1 7440   2.146   2.112   3.183
 2468SOL    HW2 7441   2.139   1.980   3.087
 2469SOL     OW 7442   1.899   3.172   3.144
 2469SOL    HW1 7443   1.952   3.123   3.212
 2469SOL    HW2 7444   1.921   3.270   3.149
 2470SOL     OW 7445   3.590   2.797   3.716
 2470SOL    HW1 7446   3.544   2.790   3.627
 2470SOL    HW2 7447   3.528   2.841   3.782
 2471SOL     OW 7448   2.169   1.925   2.480
 2471SOL    HW1 7449   2.158   2.019   2.513
 2471SOL    HW2 7450   2.164   1.862   2.557
 2472SOL     OW 7451   3.484   2.229   2.236
 2472SOL    HW1 7452   3.486   2.153   2.300
 2472SOL    HW2 7453   3.436   2.306   2.276
 2473SOL     OW 7454   2.842   3.435   3.562
 2473SOL    HW1 7455   2.822   3.479   3.474
 2473SOL    HW2 7456   2.881   3.344   3.546
 2474SOL     OW 7457   3.721   3.380   3.467
 2474SOL    HW1 7458   3.735   3.407   3.372
 2474SOL    HW2 7459   3.804   3.402   3.520
 2475SOL     OW 7460   2.212   2.760   3.666
 2475SOL    HW1 7461   2.288   2.804   3.714
 2475SOL    HW2 7462   2.247   2.713   3.584
 2476SOL     OW 7463   3.402   2.136   1.987
 2476SOL    HW1 7464   3.341   2.061   2.010
 2476SOL    HW2 7465   3.424   2.188   2.070
 2477SOL     OW 7466   3.165   2.700   1.904
 2477SOL    HW1 7467   3.199   2.607   1.919
 2477SOL    HW2 7468   3.183   2.727   1.809
 2478SOL     OW 7469   2.930   3.195   2.711
 2478SOL    HW1 7470   2.937   3.111   2.656
 2478SOL    HW2 7471   2.992   3.264   2.675
 2479SOL     OW 7472   2.201   2.371   2.868
 2479SOL    HW1 7473   2.149   2.288   2.851
 2479SOL    HW2 7474   2.278   2.376   2.804
 2480SOL     OW 7475   3.000   2.242   3.540
 2480SOL    HW1 7476   2.955   2.305   3.604
 2480SOL    HW2 7477   3.093   2.273   3.523
 2481SOL     OW 7478   3.022   2.069   3.339
 2481SOL    HW1 7479   3.022   2.133   3.416
 2481SOL    HW2 7480   3.050   2.117   3.256
 2482SOL     OW 7481   1.870   3.188   2.062
 2482SOL    HW1 7482   1.777   3.209   2.031
 2482SOL    HW2 7483   1.880   3.089   2.075
 2483SOL     OW 7484   1.950   3.663   2.789
 2483SOL    HW1 7485   1.908   3.577   2.762
 2483SOL    HW2 7486   2.044   3.666   2.755
 2484SOL     OW 7487   2.366   3.430   2.772
 2484SOL    HW1 7488   2.432   3.504   2.781
 2484SOL    HW2 7489   2.410   3.351   2.730
 2485SOL     OW 7490   2.864   2.658   3.100
 2485SOL    HW1 7491   2.905   2.626   3.186
 2485SOL    HW2 7492   2.768   2.631   3.097
 2486SOL     OW 7493   1.902   2.406   2.976
 2486SOL    HW1 7494   1.987   2.373   2.935
 2486SOL    HW2 7495   1.915   2.421   3.074
 2487SOL     OW 7496   2.051   2.382   3.584
 2487SOL    HW1 7497   2.110   2.342   3.514
 2487SOL    HW2 7498   1.993   2.453   3.543
 2488SOL     OW 7499   3.231   2.812   3.522
 2488SOL    HW1 7500   3.270   2.901   3.542
 2488SOL    HW2 7501   3.241   2.792   3.425
 2489SOL     OW 7502   3.519   2.466   3.068
 2489SOL    HW1 7503   3.481   2.397   3.130
 2489SOL    HW2 7504   3.601   2.430   3.024
 2490SOL     OW 7505   2.114   3.426   3.606
 2490SOL    HW1 7506   2.084   3.483   3.682
 2490SOL    HW2 7507   2.107   3.329   3.632
 2491SOL     OW 7508   2.533   2.326   3.131
 2491SOL    HW1 7509   2.499   2.237   3.101
 2491SOL    HW2 7510   2.559   2.380   3.051
 2492SOL     OW 7511   2.792   3.540   3.327
 2492SOL    HW1 7512   2.768   3.522   3.232
 2492SOL    HW2 7513   2.822   3.634   3.337
 2493SOL     OW 7514   2.335   2.362   2.053
 2493SOL    HW1 7515   2.396   2.442   2.057
 2493SOL    HW2 7516   2.240   2.393   2.060
 2494SOL     OW 7517   2.021   2.999   3.328
 2494SOL    HW1 7518   2.043   2.938   3.404
 2494SOL    HW2 7519   2.031   2.950   3.242
 2495SOL     OW 7520   3.209   2.921   3.096
 2495SOL    HW1 7521   3.233   2.858   3.022
 2495SOL    HW2 7522   3.119   2.961   3.078
 2496SOL     OW 7523   3.164   2.717   2.171
 2496SOL    HW1 7524   3.078   2.686   2.213
 2496SOL    HW2 7525   3.160   2.703   2.072
 2497SOL     OW 7526   3.621   3.609   3.016
 2497SOL    HW1 7527   3.682   3.639   2.943
 2497SOL    HW2 7528   3.583   3.520   2.994
 2498SOL     OW 7529   3.114   3.593   2.990
 2498SOL    HW1 7530   3.198   3.598   2.936
 2498SOL    HW2 7531   3.091   3.497   3.008
 2499SOL     OW 7532   1.945   3.120   2.884
 2499SOL    HW1 7533   1.940   3.119   2.984
 2499SOL    HW2 7534   1.862   3.079   2.846
 2500SOL     OW 7535   2.550   3.524   3.578
 2500SOL    HW1 7536   2.494   3.605   3.587
 2500SOL    HW2 7537   2.602   3.528   3.492
 2501SOL     OW 7538   3.588   1.997   2.385
 2501SOL    HW1 7539   3.661   1.980   2.318
 2501SOL    HW2 7540   3.557   1.910   2.423
 2502SOL     OW 7541   3.250   3.435   2.339
 2502SOL    HW1 7542   3.317   3.447   2.265
 2502SOL    HW2 7543   3.210   3.524   2.362
 2503SOL     OW 7544   1.992   3.656   3.713
 2503SOL    HW1 7545   1.951   3.582   3.766
 2503SOL    HW2 7546   2.056   3.707   3.771
 2504SOL     OW 7547   3.142   2.789   2.534
 2504SOL    HW1 7548   3.202   2.708   2.536
 2504SOL    HW2 7549   3.182   2.858   2.474
 2505SOL     OW 7550   2.692   3.135   3.284
 2505SOL    HW1 7551   2.687   3.168   3.379
 2505SOL    HW2 7552   2.606   3.154   3.238
 2506SOL     OW 7553   2.534   3.478   2.016
 2506SOL    HW1 7554   2.543   3.488   1.917
 2506SOL    HW2 7555   2.494   3.389   2.037
 2507SOL     OW 7556   3.512   3.582   3.256
 2507SOL    HW1 7557   3.565   3.592   3.172
 2507SOL    HW2 7558   3.485   3.672   3.290
 2508SOL     OW 7559   3.703   2.037   2.825
 2508SOL    HW1 7560   3.742   1.952   2.789
 2508SOL    HW2 7561   3.605   2.039   2.806
 2509SOL     OW 7562   2.125   2.188   2.582
 2509SOL    HW1 7563   2.046   2.239   2.548
 2509SOL    HW2 7564   2.116   2.173   2.680
 2510SOL     OW 7565   3.056   3.474   1.893
 2510SOL    HW1 7566   3.062   3.381   1.930
 2510SOL    HW2 7567   2.997   3.474   1.813
 2511SOL     OW 7568   2.684   2.864   3.234
 2511SOL    HW1 7569   2.724   2.863   3.142
 2511SOL    HW2 7570   2.694   2.956   3.274
 2512SOL     OW 7571   2.778   2.772   2.153
 2512SOL    HW1 7572   2.841   2.810   2.085
 2512SOL    HW2 7573   2.818   2.689   2.192
 2513SOL     OW 7574   3.366   3.469   1.906
 2513SOL    HW1 7575   3.274   3.506   1.913
 2513SOL    HW2 7576   3.404   3.489   1.816
 2514SOL     OW 7577   2.234   3.150   3.352
 2514SOL    HW1 7578   2.221   3.243   3.318
 2514SOL    HW2 7579   2.150   3.098   3.339
 2515SOL     OW 7580   3.476   3.154   3.151
 2515SOL    HW1 7581   3.536   3.157   3.231
 2515SOL    HW2 7582   3.401   3.218   3.164
 2516SOL     OW 7583   2.901   2.960   2.558
 2516SOL    HW1 7584   2.831   2.913   2.612
 2516SOL    HW2 7585   2.960   2.892   2.515
 2517SOL     OW 7586   2.876   2.098   2.833
 2517SOL    HW1 7587   2.868   2.062   2.740
 2517SOL    HW2 7588   2.874   2.022   2.898
 2518SOL     OW 7589   2.452   3.349   2.353
 2518SOL    HW1 7590   2.494   3.291   2.283
 2518SOL    HW2 7591   2.408   3.428   2.309
 2519SOL     OW 7592   3.571   2.247   3.243
 2519SOL    HW1 7593   3.644   2.316   3.247
 2519SOL    HW2 7594   3.599   2.172   3.184
 2520SOL     OW 7595   2.117   3.210   2.152
 2520SOL    HW1 7596   2.021   3.211   2.125
 2520SOL    HW2 7597   2.129   3.263   2.236
 2521SOL     OW 7598   1.967   2.875   3.588
 2521SOL    HW1 7599   1.890   2.842   3.642
 2521SOL    HW2 7600   2.052   2.845   3.630
 2522SOL     OW 7601   2.534   2.065   3.351
 2522SOL    HW1 7602   2.624   2.049   3.311
 2522SOL    HW2 7603   2.542   2.070   3.450
 2523SOL     OW 7604   1.937   2.207   1.895
 2523SOL    HW1 7605   1.845   2.179   1.866
 2523SOL    HW2 7606   1.968   2.284   1.839
 2524SOL     OW 7607   3.302   2.718   3.260
 2524SOL    HW1 7608   3.245   2.770   3.197
 2524SOL    HW2 7609   3.398   2.730   3.236
 2525SOL     OW 7610   1.934   2.028   2.180
 2525SOL    HW1 7611   1.917   2.111   2.126
 2525SOL    HW2 7612   2.024   1.991   2.158
 2526SOL     OW 7613   3.045   3.197   1.981
 2526SOL    HW1 7614   2.946   3.186   1.983
 2526SOL    HW2 7615   3.079   3.212   2.074
 2527SOL     OW 7616   2.475   2.704   3.293
 2527SOL    HW1 7617   2.531   2.785   3.276
 2527SOL    HW2 7618   2.534   2.624   3.296
 2528SOL     OW 7619   3.355   3.629   2.821
 2528SOL    HW1 7620   3.388   3.693   2.752
 2528SOL    HW2 7621   3.421   3.623   2.896
 2529SOL     OW 7622   2.578   2.427   3.570
 2529SOL    HW1 7623   2.597   2.492   3.644
 2529SOL    HW2 7624   2.638   2.347   3.579
 2530SOL     OW 7625   3.312   3.082   3.495
 2530SOL    HW1 7626   3.303   3.072   3.594
 2530SOL    HW2 7627   3.408   3.075   3.469
 2531SOL     OW 7628   2.252   3.603   3.422
 2531SOL    HW1 7629   2.161   3.644   3.420
 2531SOL    HW2 7630   2.245   3.509   3.454
 2532SOL     OW 7631   3.536   2.745   3.116
 2532SOL    HW1 7632   3.509   2.656   3.079
 2532SOL    HW2 7633   3.537   2.813   3.043
 2533SOL     OW 7634   3.087   2.187   2.311
 2533SOL    HW1 7635   3.152   2.113   2.300
 2533SOL    HW2 7636   3.107   2.237   2.395
 2534SOL     OW 7637   3.639   2.204   3.504
 2534SOL    HW1 7638   3.622   2.235   3.410
 2534SOL    HW2 7639   3.555   2.167   3.542
 2535SOL     OW 7640   3.592   2.796   3.379
 2535SOL    HW1 7641   3.630   2.887   3.394
 2535SOL    HW2 7642   3.584   2.779   3.280
 2536SOL     OW 7643   2.721   3.236   1.878
 2536SOL    HW1 7644   2.675   3.251   1.966
 2536SOL    HW2 7645   2.765   3.321   1.848
 2537SOL     OW 7646   2.523   3.652   2.815
 2537SOL    HW1 7647   2.477   3.740   2.802
 2537SOL    HW2 7648   2.622   3.664   2.808
 2538SOL     OW 7649   2.721   2.818   2.723
 2538SOL    HW1 7650   2.775   2.749   2.771
 2538SOL    HW2 7651   2.689   2.887   2.789
 2539SOL     OW 7652   2.945   2.846   1.949
 2539SOL    HW1 7653   2.922   2.899   1.867
 2539SOL    HW2 7654   3.026   2.790   1.930
 2540SOL     OW 7655   3.723   3.431   2.713
 2540SOL    HW1 7656   3.652   3.419   2.643
 2540SOL    HW2 7657   3.724   3.352   2.773
 2541SOL     OW 7658   2.083   3.176   3.706
 2541SOL    HW1 7659   2.018   3.103   3.685
 2541SOL    HW2 7660   2.087   3.190   3.804
 2542SOL     OW 7661   1.941   3.102   2.515
 2542SOL    HW1 7662   1.940   3.055   2.603
 2542SOL    HW2 7663   2.023   3.074   2.464
 2543SOL     OW 7664   2.534   3.253   3.486
 2543SOL    HW1 7665   2.456   3.203   3.524
 2543SOL    HW2 7666   2.531   3.348   3.517
 2544SOL     OW 7667   3.686   2.054   3.089
 2544SOL    HW1 7668   3.682   1.964   3.133
 2544SOL    HW2 7669   3.689   2.043   2.990
 2545SOL     OW 7670   3.567   3.349   2.966
 2545SOL    HW1 7671   3.474   3.324   2.939
 2545SOL    HW2 7672   3.593   3.299   3.048
 2546SOL     OW 7673   2.179   2.409   3.142
 2546SOL    HW1 7674   2.217   2.350   3.214
 2546SOL    HW2 7675   2.219   2.383   3.054
 2547SOL     OW 7676   2.674   3.448   2.549
 2547SOL    HW1 7677   2.706   3.458   2.455
 2547SOL    HW2 7678   2.595   3.386   2.551
 2548SOL     OW 7679   3.286   2.076   2.974
 2548SOL    HW1 7680   3.338   2.011   3.029
 2548SOL    HW2 7681   3.237   2.139   3.035
 2549SOL     OW 7682   2.863   1.896   3.016
 2549SOL    HW1 7683   2.800   1.824   2.985
 2549SOL    HW2 7684   2.956   1.860   3.016
 2550SOL     OW 7685   2.632   3.192   2.163
 2550SOL    HW1 7686   2.586   3.105   2.180
 2550SOL    HW2 7687   2.723   3.189   2.204
 2551SOL     OW 7688   2.480   3.429   3.146
 2551SOL    HW1 7689   2.475   3.511   3.203
 2551SOL    HW2 7690   2.569   3.426   3.101
 2552SOL     OW 7691   3.214   1.914   2.030
 2552SOL    HW1 7692   3.249   1.873   1.946
 2552SOL    HW2 7693   3.124   1.876   2.050
 2553SOL     OW 7694   3.162   2.315   2.553
 2553SOL    HW1 7695   3.103   2.395   2.557
 2553SOL    HW2 7696   3.177   2.280   2.646
 2554SOL     OW 7697   3.455   2.083   2.744
 2554SOL    HW1 7698   3.371   2.082   2.798
 2554SOL    HW2 7699   3.457   2.166   2.688
 2555SOL     OW 7700   1.901   2.939   2.162
 2555SOL    HW1 7701   2.000   2.928   2.153
 2555SOL    HW2 7702   1.861   2.853   2.194
 2556SOL     OW 7703   2.737   3.508   2.199
 2556SOL    HW1 7704   2.660   3.473   2.145
 2556SOL    HW2 7705   2.705   3.579   2.261
 2557SOL     OW 7706   2.092   2.490   3.837
 2557SOL    HW1 7707   1.999   2.488   3.874
 2557SOL    HW2 7708   2.093   2.451   3.745
 2558SOL     OW 7709   2.087   2.137   4.720
 2558SOL    HW1 7710   2.122   2.120   4.812
 2558SOL    HW2 7711   1.999   2.092   4.708
 2559SOL     OW 7712   1.881   2.230   4.371
 2559SOL    HW1 7713   1.799   2.273   4.410
 2559SOL    HW2 7714   1.853   2.157   4.308
 2560SOL     OW 7715   2.431   3.137   4.889
 2560SOL    HW1 7716   2.338   3.130   4.852
 2560SOL    HW2 7717   2.442   3.226   4.933
 2561SOL     OW 7718   3.417   3.373   4.427
 2561SOL    HW1 7719   3.360   3.357   4.508
 2561SOL    HW2 7720   3.358   3.383   4.347
 2562SOL     OW 7721   2.997   2.565   4.441
 2562SOL    HW1 7722   3.054   2.643   4.416
 2562SOL    HW2 7723   2.937   2.591   4.517
 2563SOL     OW 7724   3.617   2.469   3.955
 2563SOL    HW1 7725   3.605   2.456   3.856
 2563SOL    HW2 7726   3.587   2.388   4.004
 2564SOL     OW 7727   2.630   3.006   4.747
 2564SOL    HW1 7728   2.552   3.023   4.807
 2564SOL    HW2 7729   2.664   3.093   4.711
 2565SOL     OW 7730   2.547   2.874   4.389
 2565SOL    HW1 7731   2.616   2.858   4.459
 2565SOL    HW2 7732   2.474   2.931   4.427
 2566SOL     OW 7733   2.197   3.297   4.785
 2566SOL    HW1 7734   2.119   3.266   4.732
 2566SOL    HW2 7735   2.255   3.355   4.728
 2567SOL     OW 7736   3.465   2.309   4.461
 2567SOL    HW1 7737   3.391   2.355   4.411
 2567SOL    HW2 7738   3.516   2.377   4.514
 2568SOL     OW 7739   2.093   3.575   4.207
 2568SOL    HW1 7740   2.127   3.652   4.261
 2568SOL    HW2 7741   2.137   3.575   4.117
 2569SOL     OW 7742   2.092   3.296   4.262
 2569SOL    HW1 7743   2.066   3.392   4.262
 2569SOL    HW2 7744   2.021   3.242   4.307
 2570SOL     OW 7745   2.102   2.953   4.610
 2570SOL    HW1 7746   2.116   2.869   4.662
 2570SOL    HW2 7747   2.047   3.017   4.665
 2571SOL     OW 7748   2.482   3.648   5.163
 2571SOL    HW1 7749   2.390   3.631   5.198
 2571SOL    HW2 7750   2.510   3.740   5.189
 2572SOL     OW 7751   2.468   2.826   3.847
 2572SOL    HW1 7752   2.475   2.910   3.793
 2572SOL    HW2 7753   2.514   2.839   3.935
 2573SOL     OW 7754   1.984   2.505   4.287
 2573SOL    HW1 7755   1.939   2.417   4.304
 2573SOL    HW2 7756   1.983   2.559   4.371
 2574SOL     OW 7757   3.704   3.629   4.083
 2574SOL    HW1 7758   3.758   3.600   4.163
 2574SOL    HW2 7759   3.734   3.719   4.054
 2575SOL     OW 7760   1.889   3.458   3.841
 2575SOL    HW1 7761   1.870   3.362   3.862
 2575SOL    HW2 7762   1.856   3.516   3.916
 2576SOL     OW 7763   3.551   2.784   4.336
 2576SOL    HW1 7764   3.646   2.755   4.344
 2576SOL    HW2 7765   3.543   2.849   4.261
 2577SOL     OW 7766   3.503   2.970   4.156
 2577SOL    HW1 7767   3.589   2.972   4.104
 2577SOL    HW2 7768   3.517   3.017   4.244
 2578SOL     OW 7769   2.475   3.227   4.450
 2578SOL    HW1 7770   2.426   3.140   4.459
 2578SOL    HW2 7771   2.452   3.270   4.363
 2579SOL     OW 7772   2.671   1.866   4.226
 2579SOL    HW1 7773   2.711   1.957   4.217
 2579SOL    HW2 7774   2.571   1.874   4.232
 2580SOL     OW 7775   2.059   2.838   4.988
 2580SOL    HW1 7776   2.148   2.793   4.974
 2580SOL    HW2 7777   1.986   2.773   4.969
 2581SOL     OW 7778   3.387   2.861   3.914
 2581SOL    HW1 7779   3.324   2.785   3.927
 2581SOL    HW2 7780   3.435   2.879   4.000
 2582SOL     OW 7781   3.328   3.279   4.677
 2582SOL    HW1 7782   3.269   3.285   4.757
 2582SOL    HW2 7783   3.313   3.191   4.631
 2583SOL     OW 7784   3.529   3.576   4.296
 2583SOL    HW1 7785   3.488   3.553   4.208
 2583SOL    HW2 7786   3.511   3.502   4.361
 2584SOL     OW 7787   2.460   2.591   3.994
 2584SOL    HW1 7788   2.484   2.660   3.926
 2584SOL    HW2 7789   2.382   2.624   4.048
 2585SOL     OW 7790   3.143   2.207   4.668
 2585SOL    HW1 7791   3.057   2.157   4.655
 2585SOL    HW2 7792   3.205   2.153   4.724
 2586SOL     OW 7793   3.438   3.524   4.031
 2586SOL    HW1 7794   3.527   3.570   4.034
 2586SOL    HW2 7795   3.417   3.500   3.936
 2587SOL     OW 7796   2.853   2.272   4.966
 2587SOL    HW1 7797   2.776   2.306   5.020
 2587SOL    HW2 7798   2.819   2.221   4.887
 2588SOL     OW 7799   2.903   2.563   4.153
 2588SOL    HW1 7800   2.929   2.559   4.249
 2588SOL    HW2 7801   2.818   2.512   4.139
 2589SOL     OW 7802   1.938   2.673   4.513
 2589SOL    HW1 7803   2.037   2.661   4.522
 2589SOL    HW2 7804   1.914   2.768   4.534
 2590SOL     OW 7805   2.727   2.210   3.919
 2590SOL    HW1 7806   2.786   2.273   3.870
 2590SOL    HW2 7807   2.746   2.116   3.890
 2591SOL     OW 7808   3.224   3.006   4.269
 2591SOL    HW1 7809   3.307   2.977   4.221
 2591SOL    HW2 7810   3.175   3.073   4.213
 2592SOL     OW 7811   2.412   2.058   4.609
 2592SOL    HW1 7812   2.407   2.053   4.709
 2592SOL    HW2 7813   2.414   2.154   4.580
 2593SOL     OW 7814   2.870   3.318   4.201
 2593SOL    HW1 7815   2.824   3.390   4.149
 2593SOL    HW2 7816   2.866   3.338   4.299
 2594SOL     OW 7817   2.213   3.663   4.577
 2594SOL    HW1 7818   2.263   3.577   4.583
 2594SOL    HW2 7819   2.278   3.740   4.574
 2595SOL     OW 7820   3.657   2.928   4.597
 2595SOL    HW1 7821   3.595   2.913   4.521
 2595SOL    HW2 7822   3.605   2.939   4.682
 2596SOL     OW 7823   2.183   2.805   3.966
 2596SOL    HW1 7824   2.265   2.844   3.924
 2596SOL    HW2 7825   2.156   2.723   3.917
 2597SOL     OW 7826   3.320   2.597   4.452
 2597SOL    HW1 7827   3.315   2.532   4.527
 2597SOL    HW2 7828   3.400   2.656   4.465
 2598SOL     OW 7829   2.973   3.638   3.961
 2598SOL    HW1 7830   2.913   3.576   4.011
 2598SOL    HW2 7831   3.004   3.594   3.876
 2599SOL     OW 7832   3.494   3.239   3.805
 2599SOL    HW1 7833   3.462   3.333   3.795
 2599SOL    HW2 7834   3.418   3.176   3.793
 2600SOL     OW 7835   2.326   3.605   4.047
 2600SOL    HW1 7836   2.359   3.644   4.133
 2600SOL    HW2 7837   2.402   3.598   3.982
 2601SOL     OW 7838   3.262   1.969   4.150
 2601SOL    HW1 7839   3.238   1.932   4.060
 2601SOL    HW2 7840   3.361   1.985   4.154
 2602SOL     OW 7841   2.111   3.647   4.965
 2602SOL    HW1 7842   2.168   3.582   5.015
 2602SOL    HW2 7843   2.095   3.614   4.872
 2603SOL     OW 7844   2.802   3.560   4.628
 2603SOL    HW1 7845   2.882   3.503   4.649
 2603SOL    HW2 7846   2.753   3.520   4.551
 2604SOL     OW 7847   2.244   2.562   4.204
 2604SOL    HW1 7848   2.289   2.472   4.201
 2604SOL    HW2 7849   2.150   2.551   4.237
 2605SOL     OW 7850   2.476   1.984   3.841
 2605SOL    HW1 7851   2.574   1.962   3.848
 2605SOL    HW2 7852   2.445   1.967   3.748
 2606SOL     OW 7853   2.665   3.264   4.648
 2606SOL    HW1 7854   2.755   3.278   4.606
 2606SOL    HW2 7855   2.594   3.266   4.577
 2607SOL     OW 7856   2.784   2.365   4.623
 2607SOL    HW1 7857   2.759   2.356   4.527
 2607SOL    HW2 7858   2.832   2.283   4.654
 2608SOL     OW 7859   2.401   1.926   4.236
 2608SOL    HW1 7860   2.320   1.927   4.294
 2608SOL    HW2 7861   2.404   2.009   4.181
 2609SOL     OW 7862   3.296   3.050   3.765
 2609SOL    HW1 7863   3.328   2.974   3.822
 2609SOL    HW2 7864   3.204   3.077   3.795
 2610SOL     OW 7865   2.159   1.897   3.895
 2610SOL    HW1 7866   2.208   1.981   3.874
 2610SOL    HW2 7867   2.221   1.832   3.940
 2611SOL     OW 7868   2.797   2.098   4.204
 2611SOL    HW1 7869   2.749   2.139   4.126
 2611SOL    HW2 7870   2.896   2.096   4.185
 2612SOL     OW 7871   3.089   3.432   4.517
 2612SOL    HW1 7872   3.110   3.506   4.452
 2612SOL    HW2 7873   3.157   3.432   4.590
 2613SOL     OW 7874   2.321   3.014   4.465
 2613SOL    HW1 7875   2.250   2.987   4.530
 2613SOL    HW2 7876   2.295   2.986   4.372
 2614SOL     OW 7877   3.133   3.659   4.315
 2614SOL    HW1 7878   3.177   3.723   4.251
 2614SOL    HW2 7879   3.083   3.711   4.385
 2615SOL     OW 7880   2.894   2.411   3.740
 2615SOL    HW1 7881   2.853   2.493   3.701
 2615SOL    HW2 7882   2.958   2.437   3.813
 2616SOL     OW 7883   2.423   2.084   4.871
 2616SOL    HW1 7884   2.461   2.000   4.908
 2616SOL    HW2 7885   2.335   2.103   4.915
 2617SOL     OW 7886   2.728   2.316   4.366
 2617SOL    HW1 7887   2.696   2.388   4.304
 2617SOL    HW2 7888   2.752   2.235   4.313
 2618SOL     OW 7889   2.879   1.901   4.477
 2618SOL    HW1 7890   2.807   1.906   4.408
 2618SOL    HW2 7891   2.855   1.832   4.546
 2619SOL     OW 7892   3.291   3.035   4.591
 2619SOL    HW1 7893   3.236   2.951   4.584
 2619SOL    HW2 7894   3.317   3.064   4.499
 2620SOL     OW 7895   3.328   2.452   4.716
 2620SOL    HW1 7896   3.298   2.357   4.723
 2620SOL    HW2 7897   3.401   2.468   4.782
 2621SOL     OW 7898   3.719   2.695   4.101
 2621SOL    HW1 7899   3.761   2.631   4.165
 2621SOL    HW2 7900   3.681   2.644   4.023
 2622SOL     OW 7901   2.350   3.247   3.898
 2622SOL    HW1 7902   2.263   3.232   3.945
 2622SOL    HW2 7903   2.333   3.273   3.803
 2623SOL     OW 7904   3.526   3.142   4.381
 2623SOL    HW1 7905   3.625   3.150   4.395
 2623SOL    HW2 7906   3.481   3.226   4.412
 2624SOL     OW 7907   3.252   2.437   3.802
 2624SOL    HW1 7908   3.198   2.416   3.883
 2624SOL    HW2 7909   3.343   2.396   3.811
 2625SOL     OW 7910   2.389   2.118   4.052
 2625SOL    HW1 7911   2.416   2.059   3.977
 2625SOL    HW2 7912   2.389   2.213   4.021
 2626SOL     OW 7913   2.973   3.057   4.824
 2626SOL    HW1 7914   2.933   3.101   4.905
 2626SOL    HW2 7915   2.932   3.094   4.741
 2627SOL     OW 7916   3.500   2.961   4.803
 2627SOL    HW1 7917   3.505   3.042   4.862
 2627SOL    HW2 7918   3.414   2.963   4.752
 2628SOL     OW 7919   2.567   2.912   4.092
 2628SOL    HW1 7920   2.553   2.919   4.191
 2628SOL    HW2 7921   2.651   2.861   4.074
 2629SOL     OW 7922   2.272   2.675   4.975
 2629SOL    HW1 7923   2.358   2.687   5.025
 2629SOL    HW2 7924   2.230   2.588   5.002
 2630SOL     OW 7925   3.136   2.248   4.986
 2630SOL    HW1 7926   3.157   2.322   5.050
 2630SOL    HW2 7927   3.047   2.265   4.943
 2631SOL     OW 7928   2.229   2.962   4.225
 2631SOL    HW1 7929   2.222   3.045   4.169
 2631SOL    HW2 7930   2.233   2.882   4.165
 2632SOL     OW 7931   2.428   2.399   4.589
 2632SOL    HW1 7932   2.440   2.465   4.515
 2632SOL    HW2 7933   2.474   2.433   4.672
 2633SOL     OW 7934   3.114   3.210   4.112
 2633SOL    HW1 7935   3.164   3.287   4.152
 2633SOL    HW2 7936   3.019   3.212   4.144
 2634SOL     OW 7937   3.134   3.307   4.866
 2634SOL    HW1 7938   3.181   3.320   4.953
 2634SOL    HW2 7939   3.068   3.233   4.875
 2635SOL     OW 7940   3.444   2.501   4.196
 2635SOL    HW1 7941   3.413   2.562   4.269
 2635SOL    HW2 7942   3.494   2.553   4.127
 2636SOL     OW 7943   2.216   3.372   5.053
 2636SOL    HW1 7944   2.195   3.328   4.966
 2636SOL    HW2 7945   2.313   3.398   5.056
 2637SOL     OW 7946   2.435   2.732   4.753
 2637SOL    HW1 7947   2.479   2.821   4.744
 2637SOL    HW2 7948   2.372   2.732   4.830
 2638SOL     OW 7949   3.222   2.724   4.769
 2638SOL    HW1 7950   3.147   2.724   4.703
 2638SOL    HW2 7951   3.259   2.632   4.778
 2639SOL     OW 7952   3.071   2.387   3.999
 2639SOL    HW1 7953   3.084   2.303   4.053
 2639SOL    HW2 7954   3.042   2.461   4.059
 2640SOL     OW 7955   2.169   2.075   4.955
 2640SOL    HW1 7956   2.146   2.112   5.045
 2640SOL    HW2 7957   2.139   1.980   4.949
 2641SOL     OW 7958   1.899   3.172   5.006
 2641SOL    HW1 7959   1.952   3.123   5.074
 2641SOL    HW2 7960   1.921   3.270   5.011
 2642SOL     OW 7961   2.594   2.496   4.788
 2642SOL    HW1 7962   2.653   2.470   4.712
 2642SOL    HW2 7963   2.566   2.592   4.777
 2643SOL     OW 7964   2.169   1.925   4.342
 2643SOL    HW1 7965   2.158   2.019   4.375
 2643SOL    HW2 7966   2.164   1.862   4.419
 2644SOL     OW 7967   3.484   2.229   4.098
 2644SOL    HW1 7968   3.486   2.153   4.162
 2644SOL    HW2 7969   3.436   2.306   4.138
 2645SOL     OW 7970   2.885   2.628   4.690
 2645SOL    HW1 7971   2.900   2.649   4.786
 2645SOL    HW2 7972   2.855   2.533   4.681
 2646SOL     OW 7973   3.402   2.136   3.849
 2646SOL    HW1 7974   3.341   2.061   3.872
 2646SOL    HW2 7975   3.424   2.188   3.932
 2647SOL     OW 7976   3.165   2.700   3.766
 2647SOL    HW1 7977   3.199   2.607   3.781
 2647SOL    HW2 7978   3.183   2.727   3.671
 2648SOL     OW 7979   2.930   3.195   4.573
 2648SOL    HW1 7980   2.937   3.111   4.518
 2648SOL    HW2 7981   2.992   3.264   4.537
 2649SOL     OW 7982   2.181   2.672   4.673
 2649SOL    HW1 7983   2.274   2.708   4.678
 2649SOL    HW2 7984   2.175   2.587   4.725
 2650SOL     OW 7985   2.201   2.371   4.730
 2650SOL    HW1 7986   2.149   2.288   4.713
 2650SOL    HW2 7987   2.278   2.376   4.666
 2651SOL     OW 7988   3.022   2.069   5.201
 2651SOL    HW1 7989   3.022   2.133   5.278
 2651SOL    HW2 7990   3.050   2.117   5.118
 2652SOL     OW 7991   1.870   3.188   3.924
 2652SOL    HW1 7992   1.777   3.209   3.893
 2652SOL    HW2 7993   1.880   3.089   3.937
 2653SOL     OW 7994   1.950   3.663   4.651
 2653SOL    HW1 7995   1.908   3.577   4.624
 2653SOL    HW2 7996   2.044   3.666   4.617
 2654SOL     OW 7997   2.366   3.430   4.634
 2654SOL    HW1 7998   2.432   3.504   4.643
 2654SOL    HW2 7999   2.410   3.351   4.592
 2655SOL     OW 8000   2.864   2.658   4.962
 2655SOL    HW1 8001   2.905   2.626   5.048
 2655SOL    HW2 8002   2.768   2.631   4.959
 2656SOL     OW 8003   1.902   2.406   4.838
 2656SOL    HW1 8004   1.987   2.373   4.797
 2656SOL    HW2 8005   1.915   2.421   4.936
 2657SOL     OW 8006   2.677   2.434   4.049
 2657SOL    HW1 8007   2.684   2.345   4.003
 2657SOL    HW2 8008   2.583   2.468   4.041
 2658SOL     OW 8009   3.519   2.466   4.930
 2658SOL    HW1 8010   3.481   2.397   4.992
 2658SOL    HW2 8011   3.601   2.430   4.886
 2659SOL     OW 8012   2.533   2.326   4.993
 2659SOL    HW1 8013   2.499   2.237   4.963
 2659SOL    HW2 8014   2.559   2.380   4.913
 2660SOL     OW 8015   2.792   3.540   5.189
 2660SOL    HW1 8016   2.768   3.522   5.094
 2660SOL    HW2 8017   2.822   3.634   5.199
 2661SOL     OW 8018   2.335   2.362   3.915
 2661SOL    HW1 8019   2.396   2.442   3.919
 2661SOL    HW2 8020   2.240   2.393   3.922
 2662SOL     OW 8021   3.209   2.921   4.958
 2662SOL    HW1 8022   3.233   2.858   4.884
 2662SOL    HW2 8023   3.119   2.961   4.940
 2663SOL     OW 8024   3.164   2.717   4.033
 2663SOL    HW1 8025   3.078   2.686   4.075
 2663SOL    HW2 8026   3.160   2.703   3.934
 2664SOL     OW 8027   3.621   3.609   4.878
 2664SOL    HW1 8028   3.682   3.639   4.805
 2664SOL    HW2 8029   3.583   3.520   4.856
 2665SOL     OW 8030   3.114   3.593   4.852
 2665SOL    HW1 8031   3.198   3.598   4.798
 2665SOL    HW2 8032   3.091   3.497   4.870
 2666SOL     OW 8033   1.945   3.120   4.746
 2666SOL    HW1 8034   1.940   3.119   4.846
 2666SOL    HW2 8035   1.862   3.079   4.708
 2667SOL     OW 8036   3.588   1.997   4.247
 2667SOL    HW1 8037   3.661   1.980   4.180
 2667SOL    HW2 8038   3.557   1.910   4.285
 2668SOL     OW 8039   3.250   3.435   4.201
 2668SOL    HW1 8040   3.317   3.447   4.127
 2668SOL    HW2 8041   3.210   3.524   4.224
 2669SOL     OW 8042   3.142   2.789   4.396
 2669SOL    HW1 8043   3.202   2.708   4.398
 2669SOL    HW2 8044   3.182   2.858   4.336
 2670SOL     OW 8045   2.534   3.478   3.878
 2670SOL    HW1 8046   2.543   3.488   3.779
 2670SOL    HW2 8047   2.494   3.389   3.899
 2671SOL     OW 8048   3.512   3.582   5.118
 2671SOL    HW1 8049   3.565   3.592   5.034
 2671SOL    HW2 8050   3.485   3.672   5.152
 2672SOL     OW 8051   3.703   2.037   4.687
 2672SOL    HW1 8052   3.742   1.952   4.651
 2672SOL    HW2 8053   3.605   2.039   4.668
 2673SOL     OW 8054   2.125   2.188   4.444
 2673SOL    HW1 8055   2.046   2.239   4.410
 2673SOL    HW2 8056   2.116   2.173   4.542
 2674SOL     OW 8057   3.056   3.474   3.755
 2674SOL    HW1 8058   3.062   3.381   3.792
 2674SOL    HW2 8059   2.997   3.474   3.675
 2675SOL     OW 8060   2.684   2.864   5.096
 2675SOL    HW1 8061   2.724   2.863   5.004
 2675SOL    HW2 8062   2.694   2.956   5.136
 2676SOL     OW 8063   2.778   2.772   4.015
 2676SOL    HW1 8064   2.841   2.810   3.947
 2676SOL    HW2 8065   2.818   2.689   4.054
 2677SOL     OW 8066   3.366   3.469   3.768
 2677SOL    HW1 8067   3.274   3.506   3.775
 2677SOL    HW2 8068   3.404   3.489   3.678
 2678SOL     OW 8069   2.901   2.960   4.420
 2678SOL    HW1 8070   2.831   2.913   4.474
 2678SOL    HW2 8071   2.960   2.892   4.377
 2679SOL     OW 8072   2.876   2.098   4.695
 2679SOL    HW1 8073   2.868   2.062   4.602
 2679SOL    HW2 8074   2.874   2.022   4.760
 2680SOL     OW 8075   2.452   3.349   4.215
 2680SOL    HW1 8076   2.494   3.291   4.145
 2680SOL    HW2 8077   2.408   3.428   4.171
 2681SOL     OW 8078   3.571   2.247   5.105
 2681SOL    HW1 8079   3.644   2.316   5.109
 2681SOL    HW2 8080   3.599   2.172   5.046
 2682SOL     OW 8081   2.117   3.210   4.014
 2682SOL    HW1 8082   2.021   3.211   3.987
 2682SOL    HW2 8083   2.129   3.263   4.098
 2683SOL     OW 8084   1.937   2.207   3.757
 2683SOL    HW1 8085   1.845   2.179   3.728
 2683SOL    HW2 8086   1.968   2.284   3.701
 2684SOL     OW 8087   1.934   2.028   4.042
 2684SOL    HW1 8088   1.917   2.111   3.988
 2684SOL    HW2 8089   2.024   1.991   4.020
 2685SOL     OW 8090   3.045   3.197   3.843
 2685SOL    HW1 8091   2.946   3.186   3.845
 2685SOL    HW2 8092   3.079   3.212   3.936
 2686SOL     OW 8093   3.355   3.629   4.683
 2686SOL    HW1 8094   3.388   3.693   4.614
 2686SOL    HW2 8095   3.421   3.623   4.758
 2687SOL     OW 8096   3.312   3.082   5.357
 2687SOL    HW1 8097   3.303   3.072   5.456
 2687SOL    HW2 8098   3.408   3.075   5.331
 2688SOL     OW 8099   3.536   2.745   4.978
 2688SOL    HW1 8100   3.509   2.656   4.941
 2688SOL    HW2 8101   3.537   2.813   4.905
 2689SOL     OW 8102   3.087   2.187   4.173
 2689SOL    HW1 8103   3.152   2.113   4.162
 2689SOL    HW2 8104   3.107   2.237   4.257
 2690SOL     OW 8105   2.456   2.607   4.376
 2690SOL    HW1 8106   2.506   2.692   4.357
 2690SOL    HW2 8107   2.368   2.609   4.328
 2691SOL     OW 8108   3.592   2.796   5.241
 2691SOL    HW1 8109   3.630   2.887   5.256
 2691SOL    HW2 8110   3.584   2.779   5.142
 2692SOL     OW 8111   2.721   3.236   3.740
 2692SOL    HW1 8112   2.675   3.251   3.828
 2692SOL    HW2 8113   2.765   3.321   3.710
 2693SOL     OW 8114   2.523   3.652   4.677
 2693SOL    HW1 8115   2.477   3.740   4.664
 2693SOL    HW2 8116   2.622   3.664   4.670
 2694SOL     OW 8117   2.721   2.818   4.585
 2694SOL    HW1 8118   2.775   2.749   4.633
 2694SOL    HW2 8119   2.689   2.887   4.651
 2695SOL     OW 8120   2.945   2.846   3.811
 2695SOL    HW1 8121   2.922   2.899   3.729
 2695SOL    HW2 8122   3.026   2.790   3.792
 2696SOL     OW 8123   3.723   3.431   4.575
 2696SOL    HW1 8124   3.652   3.419   4.505
 2696SOL    HW2 8125   3.724   3.352   4.635
 2697SOL     OW 8126   1.941   3.102   4.377
 2697SOL    HW1 8127   1.940   3.055   4.465
 2697SOL    HW2 8128   2.023   3.074   4.326
 2698SOL     OW 8129   3.686   2.054   4.951
 2698SOL    HW1 8130   3.682   1.964   4.995
 2698SOL    HW2 8131   3.689   2.043   4.852
 2699SOL     OW 8132   2.290   2.286   4.244
 2699SOL    HW1 8133   2.320   2.214   4.182
 2699SOL    HW2 8134   2.251   2.246   4.327
 2700SOL     OW 8135   3.567   3.349   4.828
 2700SOL    HW1 8136   3.474   3.324   4.801
 2700SOL    HW2 8137   3.593   3.299   4.910
 2701SOL     OW 8138   2.674   3.448   4.411
 2701SOL    HW1 8139   2.706   3.458   4.317
 2701SOL    HW2 8140   2.595   3.386   4.413
 2702SOL     OW 8141   3.286   2.076   4.836
 2702SOL    HW1 8142   3.338   2.011   4.891
 2702SOL    HW2 8143   3.237   2.139   4.897
 2703SOL     OW 8144   2.863   1.896   4.878
 2703SOL    HW1 8145   2.800   1.824   4.847
 2703SOL    HW2 8146   2.956   1.860   4.878
 2704SOL     OW 8147   2.632   3.192   4.025
 2704SOL    HW1 8148   2.586   3.105   4.042
 2704SOL    HW2 8149   2.723   3.189   4.066
 2705SOL     OW 8150   3.214   1.914   3.892
 2705SOL    HW1 8151   3.249   1.873   3.808
 2705SOL    HW2 8152   3.124   1.876   3.912
 2706SOL     OW 8153   3.162   2.315   4.415
 2706SOL    HW1 8154   3.103   2.395   4.419
 2706SOL    HW2 8155   3.177   2.280   4.508
 2707SOL     OW 8156   3.455   2.083   4.606
 2707SOL    HW1 8157   3.371   2.082   4.660
 2707SOL    HW2 8158   3.457   2.166   4.550
 2708SOL     OW 8159   1.901   2.939   4.024
 2708SOL    HW1 8160   2.000   2.928   4.015
 2708SOL    HW2 8161   1.861   2.853   4.056
 2709SOL     OW 8162   2.737   3.508   4.061
 2709SOL    HW1 8163   2.660   3.473   4.007
 2709SOL    HW2 8164   2.705   3.579   4.123
 2710SOL     OW 8165   2.092   4.352   0.113
 2710SOL    HW1 8166   1.999   4.350   0.150
 2710SOL    HW2 8167   2.093   4.313   0.021
 2711SOL     OW 8168   2.087   3.999   0.996
 2711SOL    HW1 8169   2.122   3.982   1.088
 2711SOL    HW2 8170   1.999   3.954   0.984
 2712SOL     OW 8171   1.881   4.092   0.647
 2712SOL    HW1 8172   1.799   4.135   0.686
 2712SOL    HW2 8173   1.853   4.019   0.584
 2713SOL     OW 8174   3.417   5.235   0.703
 2713SOL    HW1 8175   3.360   5.219   0.784
 2713SOL    HW2 8176   3.358   5.245   0.623
 2714SOL     OW 8177   2.997   4.427   0.717
 2714SOL    HW1 8178   3.054   4.505   0.692
 2714SOL    HW2 8179   2.937   4.453   0.793
 2715SOL     OW 8180   3.617   4.331   0.231
 2715SOL    HW1 8181   3.605   4.318   0.132
 2715SOL    HW2 8182   3.587   4.250   0.280
 2716SOL     OW 8183   2.630   4.868   1.023
 2716SOL    HW1 8184   2.552   4.885   1.083
 2716SOL    HW2 8185   2.664   4.955   0.987
 2717SOL     OW 8186   2.712   4.522   1.823
 2717SOL    HW1 8187   2.708   4.598   1.888
 2717SOL    HW2 8188   2.734   4.558   1.732
 2718SOL     OW 8189   2.547   4.736   0.665
 2718SOL    HW1 8190   2.616   4.720   0.735
 2718SOL    HW2 8191   2.474   4.793   0.703
 2719SOL     OW 8192   2.548   4.885   1.803
 2719SOL    HW1 8193   2.608   4.964   1.817
 2719SOL    HW2 8194   2.462   4.916   1.762
 2720SOL     OW 8195   2.197   5.159   1.061
 2720SOL    HW1 8196   2.119   5.128   1.008
 2720SOL    HW2 8197   2.255   5.217   1.004
 2721SOL     OW 8198   2.300   4.116   1.499
 2721SOL    HW1 8199   2.382   4.060   1.508
 2721SOL    HW2 8200   2.219   4.058   1.503
 2722SOL     OW 8201   3.465   4.171   0.737
 2722SOL    HW1 8202   3.391   4.217   0.687
 2722SOL    HW2 8203   3.516   4.239   0.790
 2723SOL     OW 8204   2.102   4.815   0.886
 2723SOL    HW1 8205   2.116   4.731   0.938
 2723SOL    HW2 8206   2.047   4.879   0.941
 2724SOL     OW 8207   2.468   4.688   0.123
 2724SOL    HW1 8208   2.475   4.772   0.069
 2724SOL    HW2 8209   2.514   4.701   0.211
 2725SOL     OW 8210   3.456   3.838   1.480
 2725SOL    HW1 8211   3.438   3.905   1.408
 2725SOL    HW2 8212   3.453   3.884   1.569
 2726SOL     OW 8213   1.984   4.367   0.563
 2726SOL    HW1 8214   1.939   4.279   0.580
 2726SOL    HW2 8215   1.983   4.421   0.647
 2727SOL     OW 8216   3.551   4.646   0.612
 2727SOL    HW1 8217   3.646   4.617   0.620
 2727SOL    HW2 8218   3.543   4.711   0.537
 2728SOL     OW 8219   3.503   4.832   0.432
 2728SOL    HW1 8220   3.589   4.834   0.380
 2728SOL    HW2 8221   3.517   4.879   0.520
 2729SOL     OW 8222   1.975   4.461   1.597
 2729SOL    HW1 8223   2.063   4.448   1.642
 2729SOL    HW2 8224   1.962   4.558   1.575
 2730SOL     OW 8225   3.155   4.952   1.423
 2730SOL    HW1 8226   3.192   4.879   1.365
 2730SOL    HW2 8227   3.207   4.957   1.508
 2731SOL     OW 8228   2.671   3.728   0.502
 2731SOL    HW1 8229   2.711   3.819   0.493
 2731SOL    HW2 8230   2.571   3.736   0.508
 2732SOL     OW 8231   2.059   4.700   1.264
 2732SOL    HW1 8232   2.148   4.655   1.250
 2732SOL    HW2 8233   1.986   4.635   1.245
 2733SOL     OW 8234   3.387   4.723   0.190
 2733SOL    HW1 8235   3.324   4.647   0.203
 2733SOL    HW2 8236   3.435   4.741   0.276
 2734SOL     OW 8237   2.179   3.975   1.801
 2734SOL    HW1 8238   2.250   4.046   1.807
 2734SOL    HW2 8239   2.091   4.014   1.829
 2735SOL     OW 8240   3.328   5.141   0.953
 2735SOL    HW1 8241   3.269   5.147   1.033
 2735SOL    HW2 8242   3.313   5.053   0.907
 2736SOL     OW 8243   2.460   4.453   0.270
 2736SOL    HW1 8244   2.484   4.522   0.202
 2736SOL    HW2 8245   2.382   4.486   0.324
 2737SOL     OW 8246   3.143   4.069   0.944
 2737SOL    HW1 8247   3.057   4.019   0.931
 2737SOL    HW2 8248   3.205   4.015   1.000
 2738SOL     OW 8249   2.669   4.329   1.465
 2738SOL    HW1 8250   2.622   4.326   1.554
 2738SOL    HW2 8251   2.618   4.274   1.399
 2739SOL     OW 8252   3.256   4.193   1.674
 2739SOL    HW1 8253   3.236   4.236   1.762
 2739SOL    HW2 8254   3.334   4.131   1.683
 2740SOL     OW 8255   2.835   4.614   1.572
 2740SOL    HW1 8256   2.881   4.530   1.543
 2740SOL    HW2 8257   2.779   4.648   1.497
 2741SOL     OW 8258   2.853   4.134   1.242
 2741SOL    HW1 8259   2.776   4.168   1.296
 2741SOL    HW2 8260   2.819   4.083   1.163
 2742SOL     OW 8261   2.903   4.425   0.429
 2742SOL    HW1 8262   2.929   4.421   0.525
 2742SOL    HW2 8263   2.818   4.374   0.415
 2743SOL     OW 8264   1.938   4.535   0.789
 2743SOL    HW1 8265   2.037   4.523   0.798
 2743SOL    HW2 8266   1.914   4.630   0.810
 2744SOL     OW 8267   2.727   4.072   0.195
 2744SOL    HW1 8268   2.786   4.135   0.146
 2744SOL    HW2 8269   2.746   3.978   0.166
 2745SOL     OW 8270   3.581   4.309   1.831
 2745SOL    HW1 8271   3.555   4.398   1.795
 2745SOL    HW2 8272   3.579   4.241   1.758
 2746SOL     OW 8273   3.224   4.868   0.545
 2746SOL    HW1 8274   3.307   4.839   0.497
 2746SOL    HW2 8275   3.175   4.935   0.489
 2747SOL     OW 8276   2.412   3.920   0.885
 2747SOL    HW1 8277   2.407   3.915   0.985
 2747SOL    HW2 8278   2.414   4.016   0.856
 2748SOL     OW 8279   3.657   4.790   0.873
 2748SOL    HW1 8280   3.595   4.775   0.797
 2748SOL    HW2 8281   3.605   4.801   0.958
 2749SOL     OW 8282   2.183   4.667   0.242
 2749SOL    HW1 8283   2.265   4.706   0.200
 2749SOL    HW2 8284   2.156   4.585   0.193
 2750SOL     OW 8285   3.320   4.459   0.728
 2750SOL    HW1 8286   3.315   4.394   0.803
 2750SOL    HW2 8287   3.400   4.518   0.741
 2751SOL     OW 8288   2.064   4.009   1.498
 2751SOL    HW1 8289   1.984   4.069   1.485
 2751SOL    HW2 8290   2.054   3.960   1.584
 2752SOL     OW 8291   3.494   5.101   0.081
 2752SOL    HW1 8292   3.462   5.195   0.071
 2752SOL    HW2 8293   3.418   5.038   0.069
 2753SOL     OW 8294   3.262   3.831   0.426
 2753SOL    HW1 8295   3.238   3.794   0.336
 2753SOL    HW2 8296   3.361   3.847   0.430
 2754SOL     OW 8297   2.244   4.424   0.480
 2754SOL    HW1 8298   2.289   4.334   0.477
 2754SOL    HW2 8299   2.150   4.413   0.513
 2755SOL     OW 8300   3.409   3.946   1.729
 2755SOL    HW1 8301   3.404   3.983   1.821
 2755SOL    HW2 8302   3.337   3.877   1.717
 2756SOL     OW 8303   2.643   3.988   1.749
 2756SOL    HW1 8304   2.710   3.927   1.792
 2756SOL    HW2 8305   2.570   4.007   1.814
 2757SOL     OW 8306   3.213   4.314   1.433
 2757SOL    HW1 8307   3.241   4.271   1.518
 2757SOL    HW2 8308   3.238   4.410   1.434
 2758SOL     OW 8309   2.665   5.126   0.924
 2758SOL    HW1 8310   2.755   5.140   0.882
 2758SOL    HW2 8311   2.594   5.128   0.853
 2759SOL     OW 8312   2.784   4.227   0.899
 2759SOL    HW1 8313   2.759   4.218   0.803
 2759SOL    HW2 8314   2.832   4.145   0.930
 2760SOL     OW 8315   2.401   3.788   0.512
 2760SOL    HW1 8316   2.320   3.789   0.570
 2760SOL    HW2 8317   2.404   3.871   0.457
 2761SOL     OW 8318   3.296   4.912   0.041
 2761SOL    HW1 8319   3.328   4.836   0.098
 2761SOL    HW2 8320   3.204   4.939   0.071
 2762SOL     OW 8321   2.159   3.759   0.171
 2762SOL    HW1 8322   2.208   3.843   0.150
 2762SOL    HW2 8323   2.221   3.694   0.216
 2763SOL     OW 8324   2.797   3.960   0.480
 2763SOL    HW1 8325   2.749   4.001   0.402
 2763SOL    HW2 8326   2.896   3.958   0.461
 2764SOL     OW 8327   2.938   4.407   1.464
 2764SOL    HW1 8328   2.858   4.346   1.467
 2764SOL    HW2 8329   3.019   4.354   1.440
 2765SOL     OW 8330   2.321   4.876   0.741
 2765SOL    HW1 8331   2.250   4.849   0.806
 2765SOL    HW2 8332   2.295   4.848   0.648
 2766SOL     OW 8333   2.894   4.273   0.016
 2766SOL    HW1 8334   2.853   4.355  -0.023
 2766SOL    HW2 8335   2.958   4.299   0.089
 2767SOL     OW 8336   1.940   4.280   1.386
 2767SOL    HW1 8337   2.032   4.279   1.345
 2767SOL    HW2 8338   1.934   4.354   1.453
 2768SOL     OW 8339   2.423   3.946   1.147
 2768SOL    HW1 8340   2.461   3.862   1.184
 2768SOL    HW2 8341   2.335   3.965   1.191
 2769SOL     OW 8342   2.728   4.178   0.642
 2769SOL    HW1 8343   2.696   4.250   0.580
 2769SOL    HW2 8344   2.752   4.097   0.589
 2770SOL     OW 8345   2.879   3.763   0.753
 2770SOL    HW1 8346   2.807   3.768   0.684
 2770SOL    HW2 8347   2.855   3.694   0.822
 2771SOL     OW 8348   3.291   4.897   0.867
 2771SOL    HW1 8349   3.236   4.813   0.860
 2771SOL    HW2 8350   3.317   4.926   0.775
 2772SOL     OW 8351   3.328   4.314   0.992
 2772SOL    HW1 8352   3.298   4.219   0.999
 2772SOL    HW2 8353   3.401   4.330   1.058
 2773SOL     OW 8354   3.719   4.557   0.377
 2773SOL    HW1 8355   3.761   4.493   0.441
 2773SOL    HW2 8356   3.681   4.506   0.299
 2774SOL     OW 8357   3.526   5.004   0.657
 2774SOL    HW1 8358   3.625   5.012   0.671
 2774SOL    HW2 8359   3.481   5.088   0.688
 2775SOL     OW 8360   3.252   4.299   0.078
 2775SOL    HW1 8361   3.198   4.278   0.159
 2775SOL    HW2 8362   3.343   4.258   0.087
 2776SOL     OW 8363   2.389   3.980   0.328
 2776SOL    HW1 8364   2.416   3.921   0.253
 2776SOL    HW2 8365   2.389   4.075   0.297
 2777SOL     OW 8366   3.616   4.947   1.588
 2777SOL    HW1 8367   3.707   4.908   1.575
 2777SOL    HW2 8368   3.624   5.043   1.612
 2778SOL     OW 8369   3.500   4.823   1.079
 2778SOL    HW1 8370   3.505   4.904   1.138
 2778SOL    HW2 8371   3.414   4.825   1.028
 2779SOL     OW 8372   2.777   3.813   1.402
 2779SOL    HW1 8373   2.802   3.793   1.307
 2779SOL    HW2 8374   2.849   3.869   1.444
 2780SOL     OW 8375   2.842   4.840   1.719
 2780SOL    HW1 8376   2.743   4.846   1.729
 2780SOL    HW2 8377   2.865   4.760   1.663
 2781SOL     OW 8378   2.567   4.774   0.368
 2781SOL    HW1 8379   2.553   4.781   0.467
 2781SOL    HW2 8380   2.651   4.723   0.350
 2782SOL     OW 8381   2.272   4.537   1.251
 2782SOL    HW1 8382   2.358   4.549   1.301
 2782SOL    HW2 8383   2.230   4.450   1.278
 2783SOL     OW 8384   3.136   4.110   1.262
 2783SOL    HW1 8385   3.157   4.184   1.326
 2783SOL    HW2 8386   3.047   4.127   1.219
 2784SOL     OW 8387   2.229   4.824   0.501
 2784SOL    HW1 8388   2.222   4.907   0.445
 2784SOL    HW2 8389   2.233   4.744   0.441
 2785SOL     OW 8390   2.428   4.261   0.865
 2785SOL    HW1 8391   2.440   4.327   0.791
 2785SOL    HW2 8392   2.474   4.295   0.948
 2786SOL     OW 8393   3.444   4.363   0.472
 2786SOL    HW1 8394   3.413   4.424   0.545
 2786SOL    HW2 8395   3.494   4.415   0.403
 2787SOL     OW 8396   2.264   4.475   1.598
 2787SOL    HW1 8397   2.332   4.530   1.551
 2787SOL    HW2 8398   2.304   4.387   1.625
 2788SOL     OW 8399   3.449   4.503   1.670
 2788SOL    HW1 8400   3.357   4.541   1.665
 2788SOL    HW2 8401   3.509   4.550   1.605
 2789SOL     OW 8402   2.875   3.829   1.770
 2789SOL    HW1 8403   2.881   3.914   1.718
 2789SOL    HW2 8404   2.907   3.753   1.713
 2790SOL     OW 8405   2.366   3.774   1.740
 2790SOL    HW1 8406   2.324   3.717   1.670
 2790SOL    HW2 8407   2.300   3.843   1.772
 2791SOL     OW 8408   2.435   4.594   1.029
 2791SOL    HW1 8409   2.479   4.683   1.020
 2791SOL    HW2 8410   2.372   4.594   1.106
 2792SOL     OW 8411   3.222   4.586   1.045
 2792SOL    HW1 8412   3.147   4.586   0.979
 2792SOL    HW2 8413   3.259   4.494   1.054
 2793SOL     OW 8414   3.071   4.249   0.275
 2793SOL    HW1 8415   3.084   4.165   0.329
 2793SOL    HW2 8416   3.042   4.323   0.335
 2794SOL     OW 8417   2.169   3.937   1.231
 2794SOL    HW1 8418   2.146   3.974   1.321
 2794SOL    HW2 8419   2.139   3.842   1.225
 2795SOL     OW 8420   2.594   4.358   1.064
 2795SOL    HW1 8421   2.653   4.332   0.988
 2795SOL    HW2 8422   2.566   4.454   1.053
 2796SOL     OW 8423   3.590   4.659   1.854
 2796SOL    HW1 8424   3.544   4.652   1.765
 2796SOL    HW2 8425   3.528   4.703   1.920
 2797SOL     OW 8426   2.169   3.787   0.618
 2797SOL    HW1 8427   2.158   3.881   0.651
 2797SOL    HW2 8428   2.164   3.724   0.695
 2798SOL     OW 8429   3.484   4.091   0.374
 2798SOL    HW1 8430   3.486   4.015   0.438
 2798SOL    HW2 8431   3.436   4.168   0.414
 2799SOL     OW 8432   2.885   4.490   0.966
 2799SOL    HW1 8433   2.900   4.511   1.062
 2799SOL    HW2 8434   2.855   4.395   0.957
 2800SOL     OW 8435   3.721   5.242   1.605
 2800SOL    HW1 8436   3.735   5.269   1.510
 2800SOL    HW2 8437   3.804   5.264   1.658
 2801SOL     OW 8438   2.212   4.622   1.804
 2801SOL    HW1 8439   2.288   4.666   1.852
 2801SOL    HW2 8440   2.247   4.575   1.722
 2802SOL     OW 8441   3.402   3.998   0.125
 2802SOL    HW1 8442   3.341   3.923   0.148
 2802SOL    HW2 8443   3.424   4.050   0.208
 2803SOL     OW 8444   3.165   4.562   0.042
 2803SOL    HW1 8445   3.199   4.469   0.057
 2803SOL    HW2 8446   3.183   4.589  -0.053
 2804SOL     OW 8447   2.181   4.534   0.949
 2804SOL    HW1 8448   2.274   4.570   0.954
 2804SOL    HW2 8449   2.175   4.449   1.001
 2805SOL     OW 8450   2.201   4.233   1.006
 2805SOL    HW1 8451   2.149   4.150   0.989
 2805SOL    HW2 8452   2.278   4.238   0.942
 2806SOL     OW 8453   3.000   4.104   1.678
 2806SOL    HW1 8454   2.955   4.167   1.742
 2806SOL    HW2 8455   3.093   4.135   1.661
 2807SOL     OW 8456   3.022   3.931   1.477
 2807SOL    HW1 8457   3.022   3.995   1.554
 2807SOL    HW2 8458   3.050   3.979   1.394
 2808SOL     OW 8459   2.864   4.520   1.238
 2808SOL    HW1 8460   2.905   4.488   1.324
 2808SOL    HW2 8461   2.768   4.493   1.235
 2809SOL     OW 8462   1.902   4.268   1.114
 2809SOL    HW1 8463   1.987   4.235   1.073
 2809SOL    HW2 8464   1.915   4.283   1.212
 2810SOL     OW 8465   2.051   4.244   1.722
 2810SOL    HW1 8466   2.110   4.204   1.652
 2810SOL    HW2 8467   1.993   4.315   1.681
 2811SOL     OW 8468   3.231   4.674   1.660
 2811SOL    HW1 8469   3.270   4.763   1.680
 2811SOL    HW2 8470   3.241   4.654   1.563
 2812SOL     OW 8471   2.677   4.296   0.325
 2812SOL    HW1 8472   2.684   4.207   0.279
 2812SOL    HW2 8473   2.583   4.330   0.317
 2813SOL     OW 8474   3.519   4.328   1.206
 2813SOL    HW1 8475   3.481   4.259   1.268
 2813SOL    HW2 8476   3.601   4.292   1.162
 2814SOL     OW 8477   2.533   4.188   1.269
 2814SOL    HW1 8478   2.499   4.099   1.239
 2814SOL    HW2 8479   2.559   4.242   1.189
 2815SOL     OW 8480   2.335   4.224   0.191
 2815SOL    HW1 8481   2.396   4.304   0.195
 2815SOL    HW2 8482   2.240   4.255   0.198
 2816SOL     OW 8483   2.021   4.861   1.466
 2816SOL    HW1 8484   2.043   4.800   1.542
 2816SOL    HW2 8485   2.031   4.812   1.380
 2817SOL     OW 8486   3.209   4.783   1.234
 2817SOL    HW1 8487   3.233   4.720   1.160
 2817SOL    HW2 8488   3.119   4.823   1.216
 2818SOL     OW 8489   3.164   4.579   0.309
 2818SOL    HW1 8490   3.078   4.548   0.351
 2818SOL    HW2 8491   3.160   4.565   0.210
 2819SOL     OW 8492   1.945   4.982   1.022
 2819SOL    HW1 8493   1.940   4.981   1.122
 2819SOL    HW2 8494   1.862   4.941   0.984
 2820SOL     OW 8495   2.765   3.810   0.133
 2820SOL    HW1 8496   2.816   3.811   0.047
 2820SOL    HW2 8497   2.821   3.768   0.204
 2821SOL     OW 8498   3.588   3.859   0.523
 2821SOL    HW1 8499   3.661   3.842   0.456
 2821SOL    HW2 8500   3.557   3.772   0.561
 2822SOL     OW 8501   3.142   4.651   0.672
 2822SOL    HW1 8502   3.202   4.570   0.674
 2822SOL    HW2 8503   3.182   4.720   0.612
 2823SOL     OW 8504   2.692   4.997   1.422
 2823SOL    HW1 8505   2.687   5.030   1.517
 2823SOL    HW2 8506   2.606   5.016   1.376
 2824SOL     OW 8507   3.703   3.899   0.963
 2824SOL    HW1 8508   3.742   3.814   0.927
 2824SOL    HW2 8509   3.605   3.901   0.944
 2825SOL     OW 8510   2.125   4.050   0.720
 2825SOL    HW1 8511   2.046   4.101   0.686
 2825SOL    HW2 8512   2.116   4.035   0.818
 2826SOL     OW 8513   2.684   4.726   1.372
 2826SOL    HW1 8514   2.724   4.725   1.280
 2826SOL    HW2 8515   2.694   4.818   1.412
 2827SOL     OW 8516   2.778   4.634   0.291
 2827SOL    HW1 8517   2.841   4.672   0.223
 2827SOL    HW2 8518   2.818   4.551   0.330
 2828SOL     OW 8519   2.234   5.012   1.490
 2828SOL    HW1 8520   2.221   5.105   1.456
 2828SOL    HW2 8521   2.150   4.960   1.477
 2829SOL     OW 8522   3.476   5.016   1.289
 2829SOL    HW1 8523   3.536   5.019   1.369
 2829SOL    HW2 8524   3.401   5.080   1.302
 2830SOL     OW 8525   2.901   4.822   0.696
 2830SOL    HW1 8526   2.831   4.775   0.750
 2830SOL    HW2 8527   2.960   4.754   0.653
 2831SOL     OW 8528   2.876   3.960   0.971
 2831SOL    HW1 8529   2.868   3.924   0.878
 2831SOL    HW2 8530   2.874   3.884   1.036
 2832SOL     OW 8531   3.571   4.109   1.381
 2832SOL    HW1 8532   3.644   4.178   1.385
 2832SOL    HW2 8533   3.599   4.034   1.322
 2833SOL     OW 8534   1.967   4.737   1.726
 2833SOL    HW1 8535   1.890   4.704   1.780
 2833SOL    HW2 8536   2.052   4.707   1.768
 2834SOL     OW 8537   2.534   3.927   1.489
 2834SOL    HW1 8538   2.624   3.911   1.449
 2834SOL    HW2 8539   2.542   3.932   1.588
 2835SOL     OW 8540   3.302   4.580   1.398
 2835SOL    HW1 8541   3.245   4.632   1.335
 2835SOL    HW2 8542   3.398   4.592   1.374
 2836SOL     OW 8543   1.934   3.890   0.318
 2836SOL    HW1 8544   1.917   3.973   0.264
 2836SOL    HW2 8545   2.024   3.853   0.296
 2837SOL     OW 8546   2.475   4.566   1.431
 2837SOL    HW1 8547   2.531   4.647   1.414
 2837SOL    HW2 8548   2.534   4.486   1.434
 2838SOL     OW 8549   2.578   4.289   1.708
 2838SOL    HW1 8550   2.597   4.354   1.782
 2838SOL    HW2 8551   2.638   4.209   1.717
 2839SOL     OW 8552   3.312   4.944   1.633
 2839SOL    HW1 8553   3.303   4.934   1.732
 2839SOL    HW2 8554   3.408   4.937   1.607
 2840SOL     OW 8555   3.536   4.607   1.254
 2840SOL    HW1 8556   3.509   4.518   1.217
 2840SOL    HW2 8557   3.537   4.675   1.181
 2841SOL     OW 8558   3.087   4.049   0.449
 2841SOL    HW1 8559   3.152   3.975   0.438
 2841SOL    HW2 8560   3.107   4.099   0.533
 2842SOL     OW 8561   2.456   4.469   0.652
 2842SOL    HW1 8562   2.506   4.554   0.633
 2842SOL    HW2 8563   2.368   4.471   0.604
 2843SOL     OW 8564   3.639   4.066   1.642
 2843SOL    HW1 8565   3.622   4.097   1.548
 2843SOL    HW2 8566   3.555   4.029   1.680
 2844SOL     OW 8567   3.592   4.658   1.517
 2844SOL    HW1 8568   3.630   4.749   1.532
 2844SOL    HW2 8569   3.584   4.641   1.418
 2845SOL     OW 8570   2.721   4.680   0.861
 2845SOL    HW1 8571   2.775   4.611   0.909
 2845SOL    HW2 8572   2.689   4.749   0.927
 2846SOL     OW 8573   2.945   4.708   0.087
 2846SOL    HW1 8574   2.922   4.761   0.005
 2846SOL    HW2 8575   3.026   4.652   0.068
 2847SOL     OW 8576   1.941   4.964   0.653
 2847SOL    HW1 8577   1.940   4.917   0.741
 2847SOL    HW2 8578   2.023   4.936   0.602
 2848SOL     OW 8579   3.686   3.916   1.227
 2848SOL    HW1 8580   3.682   3.826   1.271
 2848SOL    HW2 8581   3.689   3.905   1.128
 2849SOL     OW 8582   2.290   4.148   0.520
 2849SOL    HW1 8583   2.320   4.076   0.458
 2849SOL    HW2 8584   2.251   4.108   0.603
 2850SOL     OW 8585   2.179   4.271   1.280
 2850SOL    HW1 8586   2.217   4.212   1.352
 2850SOL    HW2 8587   2.219   4.245   1.192
 2851SOL     OW 8588   3.286   3.938   1.112
 2851SOL    HW1 8589   3.338   3.873   1.167
 2851SOL    HW2 8590   3.237   4.001   1.173
 2852SOL     OW 8591   2.863   3.758   1.154
 2852SOL    HW1 8592   2.800   3.686   1.123
 2852SOL    HW2 8593   2.956   3.722   1.154
 2853SOL     OW 8594   2.632   5.054   0.301
 2853SOL    HW1 8595   2.586   4.967   0.318
 2853SOL    HW2 8596   2.723   5.051   0.342
 2854SOL     OW 8597   3.214   3.776   0.168
 2854SOL    HW1 8598   3.249   3.735   0.084
 2854SOL    HW2 8599   3.124   3.738   0.188
 2855SOL     OW 8600   3.162   4.177   0.691
 2855SOL    HW1 8601   3.103   4.257   0.695
 2855SOL    HW2 8602   3.177   4.142   0.784
 2856SOL     OW 8603   3.455   3.945   0.882
 2856SOL    HW1 8604   3.371   3.944   0.936
 2856SOL    HW2 8605   3.457   4.028   0.826
 2857SOL     OW 8606   1.901   4.801   0.300
 2857SOL    HW1 8607   2.000   4.790   0.291
 2857SOL    HW2 8608   1.861   4.715   0.332
 2858SOL     OW 8609   2.092   4.352   1.975
 2858SOL    HW1 8610   1.999   4.350   2.012
 2858SOL    HW2 8611   2.093   4.313   1.883
 2859SOL     OW 8612   2.087   3.999   2.858
 2859SOL    HW1 8613   2.122   3.982   2.950
 2859SOL    HW2 8614   1.999   3.954   2.846
 2860SOL     OW 8615   1.881   4.092   2.509
 2860SOL    HW1 8616   1.799   4.135   2.548
 2860SOL    HW2 8617   1.853   4.019   2.446
 2861SOL     OW 8618   3.417   5.235   2.565
 2861SOL    HW1 8619   3.360   5.219   2.646
 2861SOL    HW2 8620   3.358   5.245   2.485
 2862SOL     OW 8621   2.997   4.427   2.579
 2862SOL    HW1 8622   3.054   4.505   2.554
 2862SOL    HW2 8623   2.937   4.453   2.655
 2863SOL     OW 8624   3.617   4.331   2.093
 2863SOL    HW1 8625   3.605   4.318   1.994
 2863SOL    HW2 8626   3.587   4.250   2.142
 2864SOL     OW 8627   2.630   4.868   2.885
 2864SOL    HW1 8628   2.552   4.885   2.945
 2864SOL    HW2 8629   2.664   4.955   2.849
 2865SOL     OW 8630   2.712   4.522   3.685
 2865SOL    HW1 8631   2.708   4.598   3.750
 2865SOL    HW2 8632   2.734   4.558   3.594
 2866SOL     OW 8633   2.547   4.736   2.527
 2866SOL    HW1 8634   2.616   4.720   2.597
 2866SOL    HW2 8635   2.474   4.793   2.565
 2867SOL     OW 8636   2.548   4.885   3.665
 2867SOL    HW1 8637   2.608   4.964   3.679
 2867SOL    HW2 8638   2.462   4.916   3.624
 2868SOL     OW 8639   2.197   5.159   2.923
 2868SOL    HW1 8640   2.119   5.128   2.870
 2868SOL    HW2 8641   2.255   5.217   2.866
 2869SOL     OW 8642   2.300   4.116   3.361
 2869SOL    HW1 8643   2.382   4.060   3.370
 2869SOL    HW2 8644   2.219   4.058   3.365
 2870SOL     OW 8645   3.465   4.171   2.599
 2870SOL    HW1 8646   3.391   4.217   2.549
 2870SOL    HW2 8647   3.516   4.239   2.652
 2871SOL     OW 8648   2.102   4.815   2.748
 2871SOL    HW1 8649   2.116   4.731   2.800
 2871SOL    HW2 8650   2.047   4.879   2.803
 2872SOL     OW 8651   2.468   4.688   1.985
 2872SOL    HW1 8652   2.475   4.772   1.931
 2872SOL    HW2 8653   2.514   4.701   2.073
 2873SOL     OW 8654   3.456   3.838   3.342
 2873SOL    HW1 8655   3.438   3.905   3.270
 2873SOL    HW2 8656   3.453   3.884   3.431
 2874SOL     OW 8657   1.984   4.367   2.425
 2874SOL    HW1 8658   1.939   4.279   2.442
 2874SOL    HW2 8659   1.983   4.421   2.509
 2875SOL     OW 8660   3.551   4.646   2.474
 2875SOL    HW1 8661   3.646   4.617   2.482
 2875SOL    HW2 8662   3.543   4.711   2.399
 2876SOL     OW 8663   3.503   4.832   2.294
 2876SOL    HW1 8664   3.589   4.834   2.242
 2876SOL    HW2 8665   3.517   4.879   2.382
 2877SOL     OW 8666   1.975   4.461   3.459
 2877SOL    HW1 8667   2.063   4.448   3.504
 2877SOL    HW2 8668   1.962   4.558   3.437
 2878SOL     OW 8669   3.155   4.952   3.285
 2878SOL    HW1 8670   3.192   4.879   3.227
 2878SOL    HW2 8671   3.207   4.957   3.370
 2879SOL     OW 8672   2.671   3.728   2.364
 2879SOL    HW1 8673   2.711   3.819   2.355
 2879SOL    HW2 8674   2.571   3.736   2.370
 2880SOL     OW 8675   2.059   4.700   3.126
 2880SOL    HW1 8676   2.148   4.655   3.112
 2880SOL    HW2 8677   1.986   4.635   3.107
 2881SOL     OW 8678   3.387   4.723   2.052
 2881SOL    HW1 8679   3.324   4.647   2.065
 2881SOL    HW2 8680   3.435   4.741   2.138
 2882SOL     OW 8681   2.179   3.975   3.663
 2882SOL    HW1 8682   2.250   4.046   3.669
 2882SOL    HW2 8683   2.091   4.014   3.691
 2883SOL     OW 8684   3.328   5.141   2.815
 2883SOL    HW1 8685   3.269   5.147   2.895
 2883SOL    HW2 8686   3.313   5.053   2.769
 2884SOL     OW 8687   2.460   4.453   2.132
 2884SOL    HW1 8688   2.484   4.522   2.064
 2884SOL    HW2 8689   2.382   4.486   2.186
 2885SOL     OW 8690   3.143   4.069   2.806
 2885SOL    HW1 8691   3.057   4.019   2.793
 2885SOL    HW2 8692   3.205   4.015   2.862
 2886SOL     OW 8693   2.669   4.329   3.327
 2886SOL    HW1 8694   2.622   4.326   3.416
 2886SOL    HW2 8695   2.618   4.274   3.261
 2887SOL     OW 8696   3.256   4.193   3.536
 2887SOL    HW1 8697   3.236   4.236   3.624
 2887SOL    HW2 8698   3.334   4.131   3.545
 2888SOL     OW 8699   2.835   4.614   3.434
 2888SOL    HW1 8700   2.881   4.530   3.405
 2888SOL    HW2 8701   2.779   4.648   3.359
 2889SOL     OW 8702   2.853   4.134   3.104
 2889SOL    HW1 8703   2.776   4.168   3.158
 2889SOL    HW2 8704   2.819   4.083   3.025
 2890SOL     OW 8705   2.903   4.425   2.291
 2890SOL    HW1 8706   2.929   4.421   2.387
 2890SOL    HW2 8707   2.818   4.374   2.277
 2891SOL     OW 8708   1.938   4.535   2.651
 2891SOL    HW1 8709   2.037   4.523   2.660
 2891SOL    HW2 8710   1.914   4.630   2.672
 2892SOL     OW 8711   2.727   4.072   2.057
 2892SOL    HW1 8712   2.786   4.135   2.008
 2892SOL    HW2 8713   2.746   3.978   2.028
 2893SOL     OW 8714   3.581   4.309   3.693
 2893SOL    HW1 8715   3.555   4.398   3.657
 2893SOL    HW2 8716   3.579   4.241   3.620
 2894SOL     OW 8717   3.224   4.868   2.407
 2894SOL    HW1 8718   3.307   4.839   2.359
 2894SOL    HW2 8719   3.175   4.935   2.351
 2895SOL     OW 8720   2.412   3.920   2.747
 2895SOL    HW1 8721   2.407   3.915   2.847
 2895SOL    HW2 8722   2.414   4.016   2.718
 2896SOL     OW 8723   3.657   4.790   2.735
 2896SOL    HW1 8724   3.595   4.775   2.659
 2896SOL    HW2 8725   3.605   4.801   2.820
 2897SOL     OW 8726   2.183   4.667   2.104
 2897SOL    HW1 8727   2.265   4.706   2.062
 2897SOL    HW2 8728   2.156   4.585   2.055
 2898SOL     OW 8729   3.320   4.459   2.590
 2898SOL    HW1 8730   3.315   4.394   2.665
 2898SOL    HW2 8731   3.400   4.518   2.603
 2899SOL     OW 8732   2.064   4.009   3.360
 2899SOL    HW1 8733   1.984   4.069   3.347
 2899SOL    HW2 8734   2.054   3.960   3.446
 2900SOL     OW 8735   3.494   5.101   1.943
 2900SOL    HW1 8736   3.462   5.195   1.933
 2900SOL    HW2 8737   3.418   5.038   1.931
 2901SOL     OW 8738   3.262   3.831   2.288
 2901SOL    HW1 8739   3.238   3.794   2.198
 2901SOL    HW2 8740   3.361   3.847   2.292
 2902SOL     OW 8741   2.244   4.424   2.342
 2902SOL    HW1 8742   2.289   4.334   2.339
 2902SOL    HW2 8743   2.150   4.413   2.375
 2903SOL     OW 8744   3.409   3.946   3.591
 2903SOL    HW1 8745   3.404   3.983   3.683
 2903SOL    HW2 8746   3.337   3.877   3.579
 2904SOL     OW 8747   2.476   3.846   1.979
 2904SOL    HW1 8748   2.574   3.824   1.986
 2904SOL    HW2 8749   2.445   3.829   1.886
 2905SOL     OW 8750   2.643   3.988   3.611
 2905SOL    HW1 8751   2.710   3.927   3.654
 2905SOL    HW2 8752   2.570   4.007   3.676
 2906SOL     OW 8753   3.213   4.314   3.295
 2906SOL    HW1 8754   3.241   4.271   3.380
 2906SOL    HW2 8755   3.238   4.410   3.296
 2907SOL     OW 8756   2.665   5.126   2.786
 2907SOL    HW1 8757   2.755   5.140   2.744
 2907SOL    HW2 8758   2.594   5.128   2.715
 2908SOL     OW 8759   2.784   4.227   2.761
 2908SOL    HW1 8760   2.759   4.218   2.665
 2908SOL    HW2 8761   2.832   4.145   2.792
 2909SOL     OW 8762   2.401   3.788   2.374
 2909SOL    HW1 8763   2.320   3.789   2.432
 2909SOL    HW2 8764   2.404   3.871   2.319
 2910SOL     OW 8765   3.296   4.912   1.903
 2910SOL    HW1 8766   3.328   4.836   1.960
 2910SOL    HW2 8767   3.204   4.939   1.933
 2911SOL     OW 8768   2.159   3.759   2.033
 2911SOL    HW1 8769   2.208   3.843   2.012
 2911SOL    HW2 8770   2.221   3.694   2.078
 2912SOL     OW 8771   2.797   3.960   2.342
 2912SOL    HW1 8772   2.749   4.001   2.264
 2912SOL    HW2 8773   2.896   3.958   2.323
 2913SOL     OW 8774   2.938   4.407   3.326
 2913SOL    HW1 8775   2.858   4.346   3.329
 2913SOL    HW2 8776   3.019   4.354   3.302
 2914SOL     OW 8777   2.321   4.876   2.603
 2914SOL    HW1 8778   2.250   4.849   2.668
 2914SOL    HW2 8779   2.295   4.848   2.510
 2915SOL     OW 8780   2.894   4.273   1.878
 2915SOL    HW1 8781   2.853   4.355   1.839
 2915SOL    HW2 8782   2.958   4.299   1.951
 2916SOL     OW 8783   1.940   4.280   3.248
 2916SOL    HW1 8784   2.032   4.279   3.207
 2916SOL    HW2 8785   1.934   4.354   3.315
 2917SOL     OW 8786   2.423   3.946   3.009
 2917SOL    HW1 8787   2.461   3.862   3.046
 2917SOL    HW2 8788   2.335   3.965   3.053
 2918SOL     OW 8789   2.728   4.178   2.504
 2918SOL    HW1 8790   2.696   4.250   2.442
 2918SOL    HW2 8791   2.752   4.097   2.451
 2919SOL     OW 8792   2.879   3.763   2.615
 2919SOL    HW1 8793   2.807   3.768   2.546
 2919SOL    HW2 8794   2.855   3.694   2.684
 2920SOL     OW 8795   3.291   4.897   2.729
 2920SOL    HW1 8796   3.236   4.813   2.722
 2920SOL    HW2 8797   3.317   4.926   2.637
 2921SOL     OW 8798   3.328   4.314   2.854
 2921SOL    HW1 8799   3.298   4.219   2.861
 2921SOL    HW2 8800   3.401   4.330   2.920
 2922SOL     OW 8801   3.719   4.557   2.239
 2922SOL    HW1 8802   3.761   4.493   2.303
 2922SOL    HW2 8803   3.681   4.506   2.161
 2923SOL     OW 8804   3.526   5.004   2.519
 2923SOL    HW1 8805   3.625   5.012   2.533
 2923SOL    HW2 8806   3.481   5.088   2.550
 2924SOL     OW 8807   3.252   4.299   1.940
 2924SOL    HW1 8808   3.198   4.278   2.021
 2924SOL    HW2 8809   3.343   4.258   1.949
 2925SOL     OW 8810   2.389   3.980   2.190
 2925SOL    HW1 8811   2.416   3.921   2.115
 2925SOL    HW2 8812   2.389   4.075   2.159
 2926SOL     OW 8813   3.616   4.947   3.450
 2926SOL    HW1 8814   3.707   4.908   3.437
 2926SOL    HW2 8815   3.624   5.043   3.474
 2927SOL     OW 8816   3.500   4.823   2.941
 2927SOL    HW1 8817   3.505   4.904   3.000
 2927SOL    HW2 8818   3.414   4.825   2.890
 2928SOL     OW 8819   2.777   3.813   3.264
 2928SOL    HW1 8820   2.802   3.793   3.169
 2928SOL    HW2 8821   2.849   3.869   3.306
 2929SOL     OW 8822   2.842   4.840   3.581
 2929SOL    HW1 8823   2.743   4.846   3.591
 2929SOL    HW2 8824   2.865   4.760   3.525
 2930SOL     OW 8825   2.567   4.774   2.230
 2930SOL    HW1 8826   2.553   4.781   2.329
 2930SOL    HW2 8827   2.651   4.723   2.212
 2931SOL     OW 8828   2.272   4.537   3.113
 2931SOL    HW1 8829   2.358   4.549   3.163
 2931SOL    HW2 8830   2.230   4.450   3.140
 2932SOL     OW 8831   3.136   4.110   3.124
 2932SOL    HW1 8832   3.157   4.184   3.188
 2932SOL    HW2 8833   3.047   4.127   3.081
 2933SOL     OW 8834   2.229   4.824   2.363
 2933SOL    HW1 8835   2.222   4.907   2.307
 2933SOL    HW2 8836   2.233   4.744   2.303
 2934SOL     OW 8837   2.428   4.261   2.727
 2934SOL    HW1 8838   2.440   4.327   2.653
 2934SOL    HW2 8839   2.474   4.295   2.810
 2935SOL     OW 8840   3.444   4.363   2.334
 2935SOL    HW1 8841   3.413   4.424   2.407
 2935SOL    HW2 8842   3.494   4.415   2.265
 2936SOL     OW 8843   2.264   4.475   3.460
 2936SOL    HW1 8844   2.332   4.530   3.413
 2936SOL    HW2 8845   2.304   4.387   3.487
 2937SOL     OW 8846   3.449   4.503   3.532
 2937SOL    HW1 8847   3.357   4.541   3.527
 2937SOL    HW2 8848   3.509   4.550   3.467
 2938SOL     OW 8849   2.875   3.829   3.632
 2938SOL    HW1 8850   2.881   3.914   3.580
 2938SOL    HW2 8851   2.907   3.753   3.575
 2939SOL     OW 8852   2.366   3.774   3.602
 2939SOL    HW1 8853   2.324   3.717   3.532
 2939SOL    HW2 8854   2.300   3.843   3.634
 2940SOL     OW 8855   2.435   4.594   2.891
 2940SOL    HW1 8856   2.479   4.683   2.882
 2940SOL    HW2 8857   2.372   4.594   2.968
 2941SOL     OW 8858   3.222   4.586   2.907
 2941SOL    HW1 8859   3.147   4.586   2.841
 2941SOL    HW2 8860   3.259   4.494   2.916
 2942SOL     OW 8861   3.071   4.249   2.137
 2942SOL    HW1 8862   3.084   4.165   2.191
 2942SOL    HW2 8863   3.042   4.323   2.197
 2943SOL     OW 8864   2.169   3.937   3.093
 2943SOL    HW1 8865   2.146   3.974   3.183
 2943SOL    HW2 8866   2.139   3.842   3.087
 2944SOL     OW 8867   2.594   4.358   2.926
 2944SOL    HW1 8868   2.653   4.332   2.850
 2944SOL    HW2 8869   2.566   4.454   2.915
 2945SOL     OW 8870   3.590   4.659   3.716
 2945SOL    HW1 8871   3.544   4.652   3.627
 2945SOL    HW2 8872   3.528   4.703   3.782
 2946SOL     OW 8873   2.169   3.787   2.480
 2946SOL    HW1 8874   2.158   3.881   2.513
 2946SOL    HW2 8875   2.164   3.724   2.557
 2947SOL     OW 8876   3.484   4.091   2.236
 2947SOL    HW1 8877   3.486   4.015   2.300
 2947SOL    HW2 8878   3.436   4.168   2.276
 2948SOL     OW 8879   2.885   4.490   2.828
 2948SOL    HW1 8880   2.900   4.511   2.924
 2948SOL    HW2 8881   2.855   4.395   2.819
 2949SOL     OW 8882   3.721   5.242   3.467
 2949SOL    HW1 8883   3.735   5.269   3.372
 2949SOL    HW2 8884   3.804   5.264   3.520
 2950SOL     OW 8885   2.212   4.622   3.666
 2950SOL    HW1 8886   2.288   4.666   3.714
 2950SOL    HW2 8887   2.247   4.575   3.584
 2951SOL     OW 8888   3.402   3.998   1.987
 2951SOL    HW1 8889   3.341   3.923   2.010
 2951SOL    HW2 8890   3.424   4.050   2.070
 2952SOL     OW 8891   3.165   4.562   1.904
 2952SOL    HW1 8892   3.199   4.469   1.919
 2952SOL    HW2 8893   3.183   4.589   1.809
 2953SOL     OW 8894   2.181   4.534   2.811
 2953SOL    HW1 8895   2.274   4.570   2.816
 2953SOL    HW2 8896   2.175   4.449   2.863
 2954SOL     OW 8897   2.201   4.233   2.868
 2954SOL    HW1 8898   2.149   4.150   2.851
 2954SOL    HW2 8899   2.278   4.238   2.804
 2955SOL     OW 8900   3.000   4.104   3.540
 2955SOL    HW1 8901   2.955   4.167   3.604
 2955SOL    HW2 8902   3.093   4.135   3.523
 2956SOL     OW 8903   3.022   3.931   3.339
 2956SOL    HW1 8904   3.022   3.995   3.416
 2956SOL    HW2 8905   3.050   3.979   3.256
 2957SOL     OW 8906   1.870   5.050   2.062
 2957SOL    HW1 8907   1.777   5.071   2.031
 2957SOL    HW2 8908   1.880   4.951   2.075
 2958SOL     OW 8909   2.864   4.520   3.100
 2958SOL    HW1 8910   2.905   4.488   3.186
 2958SOL    HW2 8911   2.768   4.493   3.097
 2959SOL     OW 8912   1.902   4.268   2.976
 2959SOL    HW1 8913   1.987   4.235   2.935
 2959SOL    HW2 8914   1.915   4.283   3.074
 2960SOL     OW 8915   2.051   4.244   3.584
 2960SOL    HW1 8916   2.110   4.204   3.514
 2960SOL    HW2 8917   1.993   4.315   3.543
 2961SOL     OW 8918   3.231   4.674   3.522
 2961SOL    HW1 8919   3.270   4.763   3.542
 2961SOL    HW2 8920   3.241   4.654   3.425
 2962SOL     OW 8921   2.677   4.296   2.187
 2962SOL    HW1 8922   2.684   4.207   2.141
 2962SOL    HW2 8923   2.583   4.330   2.179
 2963SOL     OW 8924   3.519   4.328   3.068
 2963SOL    HW1 8925   3.481   4.259   3.130
 2963SOL    HW2 8926   3.601   4.292   3.024
 2964SOL     OW 8927   2.533   4.188   3.131
 2964SOL    HW1 8928   2.499   4.099   3.101
 2964SOL    HW2 8929   2.559   4.242   3.051
 2965SOL     OW 8930   2.335   4.224   2.053
 2965SOL    HW1 8931   2.396   4.304   2.057
 2965SOL    HW2 8932   2.240   4.255   2.060
 2966SOL     OW 8933   2.021   4.861   3.328
 2966SOL    HW1 8934   2.043   4.800   3.404
 2966SOL    HW2 8935   2.031   4.812   3.242
 2967SOL     OW 8936   3.209   4.783   3.096
 2967SOL    HW1 8937   3.233   4.720   3.022
 2967SOL    HW2 8938   3.119   4.823   3.078
 2968SOL     OW 8939   3.164   4.579   2.171
 2968SOL    HW1 8940   3.078   4.548   2.213
 2968SOL    HW2 8941   3.160   4.565   2.072
 2969SOL     OW 8942   1.945   4.982   2.884
 2969SOL    HW1 8943   1.940   4.981   2.984
 2969SOL    HW2 8944   1.862   4.941   2.846
 2970SOL     OW 8945   3.588   3.859   2.385
 2970SOL    HW1 8946   3.661   3.842   2.318
 2970SOL    HW2 8947   3.557   3.772   2.423
 2971SOL     OW 8948   3.142   4.651   2.534
 2971SOL    HW1 8949   3.202   4.570   2.536
 2971SOL    HW2 8950   3.182   4.720   2.474
 2972SOL     OW 8951   2.692   4.997   3.284
 2972SOL    HW1 8952   2.687   5.030   3.379
 2972SOL    HW2 8953   2.606   5.016   3.238
 2973SOL     OW 8954   3.703   3.899   2.825
 2973SOL    HW1 8955   3.742   3.814   2.789
 2973SOL    HW2 8956   3.605   3.901   2.806
 2974SOL     OW 8957   2.125   4.050   2.582
 2974SOL    HW1 8958   2.046   4.101   2.548
 2974SOL    HW2 8959   2.116   4.035   2.680
 2975SOL     OW 8960   3.056   5.336   1.893
 2975SOL    HW1 8961   3.062   5.243   1.930
 2975SOL    HW2 8962   2.997   5.336   1.813
 2976SOL     OW 8963   2.684   4.726   3.234
 2976SOL    HW1 8964   2.724   4.725   3.142
 2976SOL    HW2 8965   2.694   4.818   3.274
 2977SOL     OW 8966   2.778   4.634   2.153
 2977SOL    HW1 8967   2.841   4.672   2.085
 2977SOL    HW2 8968   2.818   4.551   2.192
 2978SOL     OW 8969   2.234   5.012   3.352
 2978SOL    HW1 8970   2.221   5.105   3.318
 2978SOL    HW2 8971   2.150   4.960   3.339
 2979SOL     OW 8972   3.476   5.016   3.151
 2979SOL    HW1 8973   3.536   5.019   3.231
 2979SOL    HW2 8974   3.401   5.080   3.164
 2980SOL     OW 8975   2.901   4.822   2.558
 2980SOL    HW1 8976   2.831   4.775   2.612
 2980SOL    HW2 8977   2.960   4.754   2.515
 2981SOL     OW 8978   2.876   3.960   2.833
 2981SOL    HW1 8979   2.868   3.924   2.740
 2981SOL    HW2 8980   2.874   3.884   2.898
 2982SOL     OW 8981   3.571   4.109   3.243
 2982SOL    HW1 8982   3.644   4.178   3.247
 2982SOL    HW2 8983   3.599   4.034   3.184
 2983SOL     OW 8984   1.967   4.737   3.588
 2983SOL    HW1 8985   1.890   4.704   3.642
 2983SOL    HW2 8986   2.052   4.707   3.630
 2984SOL     OW 8987   2.534   3.927   3.351
 2984SOL    HW1 8988   2.624   3.911   3.311
 2984SOL    HW2 8989   2.542   3.932   3.450
 2985SOL     OW 8990   1.937   4.069   1.895
 2985SOL    HW1 8991   1.845   4.041   1.866
 2985SOL    HW2 8992   1.968   4.146   1.839
 2986SOL     OW 8993   3.302   4.580   3.260
 2986SOL    HW1 8994   3.245   4.632   3.197
 2986SOL    HW2 8995   3.398   4.592   3.236
 2987SOL     OW 8996   1.934   3.890   2.180
 2987SOL    HW1 8997   1.917   3.973   2.126
 2987SOL    HW2 8998   2.024   3.853   2.158
 2988SOL     OW 8999   2.475   4.566   3.293
 2988SOL    HW1 9000   2.531   4.647   3.276
 2988SOL    HW2 9001   2.534   4.486   3.296
 2989SOL     OW 9002   2.578   4.289   3.570
 2989SOL    HW1 9003   2.597   4.354   3.644
 2989SOL    HW2 9004   2.638   4.209   3.579
 2990SOL     OW 9005   3.312   4.944   3.495
 2990SOL    HW1 9006   3.303   4.934   3.594
 2990SOL    HW2 9007   3.408   4.937   3.469
 2991SOL     OW 9008   3.536   4.607   3.116
 2991SOL    HW1 9009   3.509   4.518   3.079
 2991SOL    HW2 9010   3.537   4.675   3.043
 2992SOL     OW 9011   3.087   4.049   2.311
 2992SOL    HW1 9012   3.152   3.975   2.300
 2992SOL    HW2 9013   3.107   4.099   2.395
 2993SOL     OW 9014   2.456   4.469   2.514
 2993SOL    HW1 9015   2.506   4.554   2.495
 2993SOL    HW2 9016   2.368   4.471   2.466
 2994SOL     OW 9017   3.639   4.066   3.504
 2994SOL    HW1 9018   3.622   4.097   3.410
 2994SOL    HW2 9019   3.555   4.029   3.542
 2995SOL     OW 9020   3.592   4.658   3.379
 2995SOL    HW1 9021   3.630   4.749   3.394
 2995SOL    HW2 9022   3.584   4.641   3.280
 2996SOL     OW 9023   2.721   4.680   2.723
 2996SOL    HW1 9024   2.775   4.611   2.771
 2996SOL    HW2 9025   2.689   4.749   2.789
 2997SOL     OW 9026   2.945   4.708   1.949
 2997SOL    HW1 9027   2.922   4.761   1.867
 2997SOL    HW2 9028   3.026   4.652   1.930
 2998SOL     OW 9029   1.941   4.964   2.515
 2998SOL    HW1 9030   1.940   4.917   2.603
 2998SOL    HW2 9031   2.023   4.936   2.464
 2999SOL     OW 9032   3.686   3.916   3.089
 2999SOL    HW1 9033   3.682   3.826   3.133
 2999SOL    HW2 9034   3.689   3.905   2.990
 3000SOL     OW 9035   2.290   4.148   2.382
 3000SOL    HW1 9036   2.320   4.076   2.320
 3000SOL    HW2 9037   2.251   4.108   2.465
 3001SOL     OW 9038   2.179   4.271   3.142
 3001SOL    HW1 9039   2.217   4.212   3.214
 3001SOL    HW2 9040   2.219   4.245   3.054
 3002SOL     OW 9041   3.286   3.938   2.974
 3002SOL    HW1 9042   3.338   3.873   3.029
 3002SOL    HW2 9043   3.237   4.001   3.035
 3003SOL     OW 9044   2.863   3.758   3.016
 3003SOL    HW1 9045   2.800   3.686   2.985
 3003SOL    HW2 9046   2.956   3.722   3.016
 3004SOL     OW 9047   2.632   5.054   2.163
 3004SOL    HW1 9048   2.586   4.967   2.180
 3004SOL    HW2 9049   2.723   5.051   2.204
 3005SOL     OW 9050   3.214   3.776   2.030
 3005SOL    HW1 9051   3.249   3.735   1.946
 3005SOL    HW2 9052   3.124   3.738   2.050
 3006SOL     OW 9053   3.162   4.177   2.553
 3006SOL    HW1 9054   3.103   4.257   2.557
 3006SOL    HW2 9055   3.177   4.142   2.646
 3007SOL     OW 9056   3.455   3.945   2.744
 3007SOL    HW1 9057   3.371   3.944   2.798
 3007SOL    HW2 9058   3.457   4.028   2.688
 3008SOL     OW 9059   1.901   4.801   2.162
 3008SOL    HW1 9060   2.000   4.790   2.153
 3008SOL    HW2 9061   1.861   4.715   2.194
 3009SOL     OW 9062   2.092   4.352   3.837
 3009SOL    HW1 9063   1.999   4.350   3.874
 3009SOL    HW2 9064   2.093   4.313   3.745
 3010SOL     OW 9065   2.087   3.999   4.720
 3010SOL    HW1 9066   2.122   3.982   4.812
 3010SOL    HW2 9067   1.999   3.954   4.708
 3011SOL     OW 9068   1.881   4.092   4.371
 3011SOL    HW1 9069   1.799   4.135   4.410
 3011SOL    HW2 9070   1.853   4.019   4.308
 3012SOL     OW 9071   3.417   5.235   4.427
 3012SOL    HW1 9072   3.360   5.219   4.508
 3012SOL    HW2 9073   3.358   5.245   4.347
 3013SOL     OW 9074   2.997   4.427   4.441
 3013SOL    HW1 9075   3.054   4.505   4.416
 3013SOL    HW2 9076   2.937   4.453   4.517
 3014SOL     OW 9077   3.617   4.331   3.955
 3014SOL    HW1 9078   3.605   4.318   3.856
 3014SOL    HW2 9079   3.587   4.250   4.004
 3015SOL     OW 9080   2.630   4.868   4.747
 3015SOL    HW1 9081   2.552   4.885   4.807
 3015SOL    HW2 9082   2.664   4.955   4.711
 3016SOL     OW 9083   2.547   4.736   4.389
 3016SOL    HW1 9084   2.616   4.720   4.459
 3016SOL    HW2 9085   2.474   4.793   4.427
 3017SOL     OW 9086   2.197   5.159   4.785
 3017SOL    HW1 9087   2.119   5.128   4.732
 3017SOL    HW2 9088   2.255   5.217   4.728
 3018SOL     OW 9089   3.465   4.171   4.461
 3018SOL    HW1 9090   3.391   4.217   4.411
 3018SOL    HW2 9091   3.516   4.239   4.514
 3019SOL     OW 9092   2.102   4.815   4.610
 3019SOL    HW1 9093   2.116   4.731   4.662
 3019SOL    HW2 9094   2.047   4.879   4.665
 3020SOL     OW 9095   2.468   4.688   3.847
 3020SOL    HW1 9096   2.475   4.772   3.793
 3020SOL    HW2 9097   2.514   4.701   3.935
 3021SOL     OW 9098   1.984   4.367   4.287
 3021SOL    HW1 9099   1.939   4.279   4.304
 3021SOL    HW2 9100   1.983   4.421   4.371
 3022SOL     OW 9101   3.551   4.646   4.336
 3022SOL    HW1 9102   3.646   4.617   4.344
 3022SOL    HW2 9103   3.543   4.711   4.261
 3023SOL     OW 9104   3.503   4.832   4.156
 3023SOL    HW1 9105   3.589   4.834   4.104
 3023SOL    HW2 9106   3.517   4.879   4.244
 3024SOL     OW 9107   2.671   3.728   4.226
 3024SOL    HW1 9108   2.711   3.819   4.217
 3024SOL    HW2 9109   2.571   3.736   4.232
 3025SOL     OW 9110   2.059   4.700   4.988
 3025SOL    HW1 9111   2.148   4.655   4.974
 3025SOL    HW2 9112   1.986   4.635   4.969
 3026SOL     OW 9113   3.387   4.723   3.914
 3026SOL    HW1 9114   3.324   4.647   3.927
 3026SOL    HW2 9115   3.435   4.741   4.000
 3027SOL     OW 9116   3.328   5.141   4.677
 3027SOL    HW1 9117   3.269   5.147   4.757
 3027SOL    HW2 9118   3.313   5.053   4.631
 3028SOL     OW 9119   2.460   4.453   3.994
 3028SOL    HW1 9120   2.484   4.522   3.926
 3028SOL    HW2 9121   2.382   4.486   4.048
 3029SOL     OW 9122   3.143   4.069   4.668
 3029SOL    HW1 9123   3.057   4.019   4.655
 3029SOL    HW2 9124   3.205   4.015   4.724
 3030SOL     OW 9125   2.853   4.134   4.966
 3030SOL    HW1 9126   2.776   4.168   5.020
 3030SOL    HW2 9127   2.819   4.083   4.887
 3031SOL     OW 9128   2.903   4.425   4.153
 3031SOL    HW1 9129   2.929   4.421   4.249
 3031SOL    HW2 9130   2.818   4.374   4.139
 3032SOL     OW 9131   1.938   4.535   4.513
 3032SOL    HW1 9132   2.037   4.523   4.522
 3032SOL    HW2 9133   1.914   4.630   4.534
 3033SOL     OW 9134   2.727   4.072   3.919
 3033SOL    HW1 9135   2.786   4.135   3.870
 3033SOL    HW2 9136   2.746   3.978   3.890
 3034SOL     OW 9137   3.224   4.868   4.269
 3034SOL    HW1 9138   3.307   4.839   4.221
 3034SOL    HW2 9139   3.175   4.935   4.213
 3035SOL     OW 9140   2.412   3.920   4.609
 3035SOL    HW1 9141   2.407   3.915   4.709
 3035SOL    HW2 9142   2.414   4.016   4.580
 3036SOL     OW 9143   3.657   4.790   4.597
 3036SOL    HW1 9144   3.595   4.775   4.521
 3036SOL    HW2 9145   3.605   4.801   4.682
 3037SOL     OW 9146   2.183   4.667   3.966
 3037SOL    HW1 9147   2.265   4.706   3.924
 3037SOL    HW2 9148   2.156   4.585   3.917
 3038SOL     OW 9149   3.320   4.459   4.452
 3038SOL    HW1 9150   3.315   4.394   4.527
 3038SOL    HW2 9151   3.400   4.518   4.465
 3039SOL     OW 9152   3.494   5.101   3.805
 3039SOL    HW1 9153   3.462   5.195   3.795
 3039SOL    HW2 9154   3.418   5.038   3.793
 3040SOL     OW 9155   3.262   3.831   4.150
 3040SOL    HW1 9156   3.238   3.794   4.060
 3040SOL    HW2 9157   3.361   3.847   4.154
 3041SOL     OW 9158   2.244   4.424   4.204
 3041SOL    HW1 9159   2.289   4.334   4.201
 3041SOL    HW2 9160   2.150   4.413   4.237
 3042SOL     OW 9161   2.476   3.846   3.841
 3042SOL    HW1 9162   2.574   3.824   3.848
 3042SOL    HW2 9163   2.445   3.829   3.748
 3043SOL     OW 9164   2.665   5.126   4.648
 3043SOL    HW1 9165   2.755   5.140   4.606
 3043SOL    HW2 9166   2.594   5.128   4.577
 3044SOL     OW 9167   2.784   4.227   4.623
 3044SOL    HW1 9168   2.759   4.218   4.527
 3044SOL    HW2 9169   2.832   4.145   4.654
 3045SOL     OW 9170   2.401   3.788   4.236
 3045SOL    HW1 9171   2.320   3.789   4.294
 3045SOL    HW2 9172   2.404   3.871   4.181
 3046SOL     OW 9173   3.296   4.912   3.765
 3046SOL    HW1 9174   3.328   4.836   3.822
 3046SOL    HW2 9175   3.204   4.939   3.795
 3047SOL     OW 9176   2.159   3.759   3.895
 3047SOL    HW1 9177   2.208   3.843   3.874
 3047SOL    HW2 9178   2.221   3.694   3.940
 3048SOL     OW 9179   2.797   3.960   4.204
 3048SOL    HW1 9180   2.749   4.001   4.126
 3048SOL    HW2 9181   2.896   3.958   4.185
 3049SOL     OW 9182   2.321   4.876   4.465
 3049SOL    HW1 9183   2.250   4.849   4.530
 3049SOL    HW2 9184   2.295   4.848   4.372
 3050SOL     OW 9185   2.894   4.273   3.740
 3050SOL    HW1 9186   2.853   4.355   3.701
 3050SOL    HW2 9187   2.958   4.299   3.813
 3051SOL     OW 9188   2.423   3.946   4.871
 3051SOL    HW1 9189   2.461   3.862   4.908
 3051SOL    HW2 9190   2.335   3.965   4.915
 3052SOL     OW 9191   2.728   4.178   4.366
 3052SOL    HW1 9192   2.696   4.250   4.304
 3052SOL    HW2 9193   2.752   4.097   4.313
 3053SOL     OW 9194   2.879   3.763   4.477
 3053SOL    HW1 9195   2.807   3.768   4.408
 3053SOL    HW2 9196   2.855   3.694   4.546
 3054SOL     OW 9197   3.291   4.897   4.591
 3054SOL    HW1 9198   3.236   4.813   4.584
 3054SOL    HW2 9199   3.317   4.926   4.499
 3055SOL     OW 9200   3.328   4.314   4.716
 3055SOL    HW1 9201   3.298   4.219   4.723
 3055SOL    HW2 9202   3.401   4.330   4.782
 3056SOL     OW 9203   3.719   4.557   4.101
 3056SOL    HW1 9204   3.761   4.493   4.165
 3056SOL    HW2 9205   3.681   4.506   4.023
 3057SOL     OW 9206   3.526   5.004   4.381
 3057SOL    HW1 9207   3.625   5.012   4.395
 3057SOL    HW2 9208   3.481   5.088   4.412
 3058SOL     OW 9209   3.252   4.299   3.802
 3058SOL    HW1 9210   3.198   4.278   3.883
 3058SOL    HW2 9211   3.343   4.258   3.811
 3059SOL     OW 9212   2.389   3.980   4.052
 3059SOL    HW1 9213   2.416   3.921   3.977
 3059SOL    HW2 9214   2.389   4.075   4.021
 3060SOL     OW 9215   3.500   4.823   4.803
 3060SOL    HW1 9216   3.505   4.904   4.862
 3060SOL    HW2 9217   3.414   4.825   4.752
 3061SOL     OW 9218   2.567   4.774   4.092
 3061SOL    HW1 9219   2.553   4.781   4.191
 3061SOL    HW2 9220   2.651   4.723   4.074
 3062SOL     OW 9221   2.272   4.537   4.975
 3062SOL    HW1 9222   2.358   4.549   5.025
 3062SOL    HW2 9223   2.230   4.450   5.002
 3063SOL     OW 9224   3.136   4.110   4.986
 3063SOL    HW1 9225   3.157   4.184   5.050
 3063SOL    HW2 9226   3.047   4.127   4.943
 3064SOL     OW 9227   2.229   4.824   4.225
 3064SOL    HW1 9228   2.222   4.907   4.169
 3064SOL    HW2 9229   2.233   4.744   4.165
 3065SOL     OW 9230   2.428   4.261   4.589
 3065SOL    HW1 9231   2.440   4.327   4.515
 3065SOL    HW2 9232   2.474   4.295   4.672
 3066SOL     OW 9233   3.444   4.363   4.196
 3066SOL    HW1 9234   3.413   4.424   4.269
 3066SOL    HW2 9235   3.494   4.415   4.127
 3067SOL     OW 9236   2.435   4.594   4.753
 3067SOL    HW1 9237   2.479   4.683   4.744
 3067SOL    HW2 9238   2.372   4.594   4.830
 3068SOL     OW 9239   3.222   4.586   4.769
 3068SOL    HW1 9240   3.147   4.586   4.703
 3068SOL    HW2 9241   3.259   4.494   4.778
 3069SOL     OW 9242   3.071   4.249   3.999
 3069SOL    HW1 9243   3.084   4.165   4.053
 3069SOL    HW2 9244   3.042   4.323   4.059
 3070SOL     OW 9245   2.169   3.937   4.955
 3070SOL    HW1 9246   2.146   3.974   5.045
 3070SOL    HW2 9247   2.139   3.842   4.949
 3071SOL     OW 9248   2.594   4.358   4.788
 3071SOL    HW1 9249   2.653   4.332   4.712
 3071SOL    HW2 9250   2.566   4.454   4.777
 3072SOL     OW 9251   2.169   3.787   4.342
 3072SOL    HW1 9252   2.158   3.881   4.375
 3072SOL    HW2 9253   2.164   3.724   4.419
 3073SOL     OW 9254   3.484   4.091   4.098
 3073SOL    HW1 9255   3.486   4.015   4.162
 3073SOL    HW2 9256   3.436   4.168   4.138
 3074SOL     OW 9257   2.885   4.490   4.690
 3074SOL    HW1 9258   2.900   4.511   4.786
 3074SOL    HW2 9259   2.855   4.395   4.681
 3075SOL     OW 9260   3.402   3.998   3.849
 3075SOL    HW1 9261   3.341   3.923   3.872
 3075SOL    HW2 9262   3.424   4.050   3.932
 3076SOL     OW 9263   3.165   4.562   3.766
 3076SOL    HW1 9264   3.199   4.469   3.781
 3076SOL    HW2 9265   3.183   4.589   3.671
 3077SOL     OW 9266   2.181   4.534   4.673
 3077SOL    HW1 9267   2.274   4.570   4.678
 3077SOL    HW2 9268   2.175   4.449   4.725
 3078SOL     OW 9269   2.201   4.233   4.730
 3078SOL    HW1 9270   2.149   4.150   4.713
 3078SOL    HW2 9271   2.278   4.238   4.666
 3079SOL     OW 9272   3.022   3.931   5.201
 3079SOL    HW1 9273   3.022   3.995   5.278
 3079SOL    HW2 9274   3.050   3.979   5.118
 3080SOL     OW 9275   1.870   5.050   3.924
 3080SOL    HW1 9276   1.777   5.071   3.893
 3080SOL    HW2 9277   1.880   4.951   3.937
 3081SOL     OW 9278   2.864   4.520   4.962
 3081SOL    HW1 9279   2.905   4.488   5.048
 3081SOL    HW2 9280   2.768   4.493   4.959
 3082SOL     OW 9281   1.902   4.268   4.838
 3082SOL    HW1 9282   1.987   4.235   4.797
 3082SOL    HW2 9283   1.915   4.283   4.936
 3083SOL     OW 9284   2.677   4.296   4.049
 3083SOL    HW1 9285   2.684   4.207   4.003
 3083SOL    HW2 9286   2.583   4.330   4.041
 3084SOL     OW 9287   3.519   4.328   4.930
 3084SOL    HW1 9288   3.481   4.259   4.992
 3084SOL    HW2 9289   3.601   4.292   4.886
 3085SOL     OW 9290   2.533   4.188   4.993
 3085SOL    HW1 9291   2.499   4.099   4.963
 3085SOL    HW2 9292   2.559   4.242   4.913
 3086SOL     OW 9293   2.335   4.224   3.915
 3086SOL    HW1 9294   2.396   4.304   3.919
 3086SOL    HW2 9295   2.240   4.255   3.922
 3087SOL     OW 9296   3.209   4.783   4.958
 3087SOL    HW1 9297   3.233   4.720   4.884
 3087SOL    HW2 9298   3.119   4.823   4.940
 3088SOL     OW 9299   3.164   4.579   4.033
 3088SOL    HW1 9300   3.078   4.548   4.075
 3088SOL    HW2 9301   3.160   4.565   3.934
 3089SOL     OW 9302   1.945   4.982   4.746
 3089SOL    HW1 9303   1.940   4.981   4.846
 3089SOL    HW2 9304   1.862   4.941   4.708
 3090SOL     OW 9305   3.588   3.859   4.247
 3090SOL    HW1 9306   3.661   3.842   4.180
 3090SOL    HW2 9307   3.557   3.772   4.285
 3091SOL     OW 9308   3.142   4.651   4.396
 3091SOL    HW1 9309   3.202   4.570   4.398
 3091SOL    HW2 9310   3.182   4.720   4.336
 3092SOL     OW 9311   3.703   3.899   4.687
 3092SOL    HW1 9312   3.742   3.814   4.651
 3092SOL    HW2 9313   3.605   3.901   4.668
 3093SOL     OW 9314   2.125   4.050   4.444
 3093SOL    HW1 9315   2.046   4.101   4.410
 3093SOL    HW2 9316   2.116   4.035   4.542
 3094SOL     OW 9317   3.056   5.336   3.755
 3094SOL    HW1 9318   3.062   5.243   3.792
 3094SOL    HW2 9319   2.997   5.336   3.675
 3095SOL     OW 9320   2.684   4.726   5.096
 3095SOL    HW1 9321   2.724   4.725   5.004
 3095SOL    HW2 9322   2.694   4.818   5.136
 3096SOL     OW 9323   2.778   4.634   4.015
 3096SOL    HW1 9324   2.841   4.672   3.947
 3096SOL    HW2 9325   2.818   4.551   4.054
 3097SOL     OW 9326   2.901   4.822   4.420
 3097SOL    HW1 9327   2.831   4.775   4.474
 3097SOL    HW2 9328   2.960   4.754   4.377
 3098SOL     OW 9329   2.876   3.960   4.695
 3098SOL    HW1 9330   2.868   3.924   4.602
 3098SOL    HW2 9331   2.874   3.884   4.760
 3099SOL     OW 9332   3.571   4.109   5.105
 3099SOL    HW1 9333   3.644   4.178   5.109
 3099SOL    HW2 9334   3.599   4.034   5.046
 3100SOL     OW 9335   1.937   4.069   3.757
 3100SOL    HW1 9336   1.845   4.041   3.728
 3100SOL    HW2 9337   1.968   4.146   3.701
 3101SOL     OW 9338   1.934   3.890   4.042
 3101SOL    HW1 9339   1.917   3.973   3.988
 3101SOL    HW2 9340   2.024   3.853   4.020
 3102SOL     OW 9341   3.312   4.944   5.357
 3102SOL    HW1 9342   3.303   4.934   5.456
 3102SOL    HW2 9343   3.408   4.937   5.331
 3103SOL     OW 9344   3.536   4.607   4.978
 3103SOL    HW1 9345   3.509   4.518   4.941
 3103SOL    HW2 9346   3.537   4.675   4.905
 3104SOL     OW 9347   3.087   4.049   4.173
 3104SOL    HW1 9348   3.152   3.975   4.162
 3104SOL    HW2 9349   3.107   4.099   4.257
 3105SOL     OW 9350   2.456   4.469   4.376
 3105SOL    HW1 9351   2.506   4.554   4.357
 3105SOL    HW2 9352   2.368   4.471   4.328
 3106SOL     OW 9353   3.592   4.658   5.241
 3106SOL    HW1 9354   3.630   4.749   5.256
 3106SOL    HW2 9355   3.584   4.641   5.142
 3107SOL     OW 9356   2.721   4.680   4.585
 3107SOL    HW1 9357   2.775   4.611   4.633
 3107SOL    HW2 9358   2.689   4.749   4.651
 3108SOL     OW 9359   2.945   4.708   3.811
 3108SOL    HW1 9360   2.922   4.761   3.729
 3108SOL    HW2 9361   3.026   4.652   3.792
 3109SOL     OW 9362   1.941   4.964   4.377
 3109SOL    HW1 9363   1.940   4.917   4.465
 3109SOL    HW2 9364   2.023   4.936   4.326
 3110SOL     OW 9365   3.686   3.916   4.951
 3110SOL    HW1 9366   3.682   3.826   4.995
 3110SOL    HW2 9367   3.689   3.905   4.852
 3111SOL     OW 9368   2.290   4.148   4.244
 3111SOL    HW1 9369   2.320   4.076   4.182
 3111SOL    HW2 9370   2.251   4.108   4.327
 3112SOL     OW 9371   3.286   3.938   4.836
 3112SOL    HW1 9372   3.338   3.873   4.891
 3112SOL    HW2 9373   3.237   4.001   4.897
 3113SOL     OW 9374   2.863   3.758   4.878
 3113SOL    HW1 9375   2.800   3.686   4.847
 3113SOL    HW2 9376   2.956   3.722   4.878
 3114SOL     OW 9377   2.632   5.054   4.025
 3114SOL    HW1 9378   2.586   4.967   4.042
 3114SOL    HW2 9379   2.723   5.051   4.066
 3115SOL     OW 9380   3.214   3.776   3.892
 3115SOL    HW1 9381   3.249   3.735   3.808
 3115SOL    HW2 9382   3.124   3.738   3.912
 3116SOL     OW 9383   3.162   4.177   4.415
 3116SOL    HW1 9384   3.103   4.257   4.419
 3116SOL    HW2 9385   3.177   4.142   4.508
 3117SOL     OW 9386   3.455   3.945   4.606
 3117SOL    HW1 9387   3.371   3.944   4.660
 3117SOL    HW2 9388   3.457   4.028   4.550
 3118SOL     OW 9389   1.901   4.801   4.024
 3118SOL    HW1 9390   2.000   4.790   4.015
 3118SOL    HW2 9391   1.861   4.715   4.056
 3119SOL     OW 9392   3.954   0.628   0.113
 3119SOL    HW1 9393   3.861   0.626   0.150
 3119SOL    HW2 9394   3.955   0.589   0.021
 3120SOL     OW 9395   3.949   0.275   0.996
 3120SOL    HW1 9396   3.984   0.258   1.088
 3120SOL    HW2 9397   3.861   0.230   0.984
 3121SOL     OW 9398   3.743   0.368   0.647
 3121SOL    HW1 9399   3.661   0.411   0.686
 3121SOL    HW2 9400   3.715   0.295   0.584
 3122SOL     OW 9401   4.293   1.275   1.165
 3122SOL    HW1 9402   4.200   1.268   1.128
 3122SOL    HW2 9403   4.304   1.364   1.209
 3123SOL     OW 9404   4.859   0.703   0.717
 3123SOL    HW1 9405   4.916   0.781   0.692
 3123SOL    HW2 9406   4.799   0.729   0.793
 3124SOL     OW 9407   4.492   1.144   1.023
 3124SOL    HW1 9408   4.414   1.161   1.083
 3124SOL    HW2 9409   4.526   1.231   0.987
 3125SOL     OW 9410   4.574   0.798   1.823
 3125SOL    HW1 9411   4.570   0.874   1.888
 3125SOL    HW2 9412   4.596   0.834   1.732
 3126SOL     OW 9413   4.409   1.012   0.665
 3126SOL    HW1 9414   4.478   0.996   0.735
 3126SOL    HW2 9415   4.336   1.069   0.703
 3127SOL     OW 9416   4.410   1.161   1.803
 3127SOL    HW1 9417   4.470   1.240   1.817
 3127SOL    HW2 9418   4.324   1.192   1.762
 3128SOL     OW 9419   4.059   1.435   1.061
 3128SOL    HW1 9420   3.981   1.404   1.008
 3128SOL    HW2 9421   4.117   1.493   1.004
 3129SOL     OW 9422   4.162   0.392   1.499
 3129SOL    HW1 9423   4.244   0.336   1.508
 3129SOL    HW2 9424   4.081   0.334   1.503
 3130SOL     OW 9425   3.955   1.713   0.483
 3130SOL    HW1 9426   3.989   1.790   0.537
 3130SOL    HW2 9427   3.999   1.713   0.393
 3131SOL     OW 9428   4.851   1.341   1.690
 3131SOL    HW1 9429   4.898   1.341   1.778
 3131SOL    HW2 9430   4.803   1.254   1.679
 3132SOL     OW 9431   3.954   1.434   0.538
 3132SOL    HW1 9432   3.928   1.530   0.538
 3132SOL    HW2 9433   3.883   1.380   0.583
 3133SOL     OW 9434   3.964   1.091   0.886
 3133SOL    HW1 9435   3.978   1.007   0.938
 3133SOL    HW2 9436   3.909   1.155   0.941
 3134SOL     OW 9437   4.344   1.786   1.439
 3134SOL    HW1 9438   4.252   1.769   1.474
 3134SOL    HW2 9439   4.372   1.878   1.465
 3135SOL     OW 9440   4.330   0.964   0.123
 3135SOL    HW1 9441   4.337   1.048   0.069
 3135SOL    HW2 9442   4.376   0.977   0.211
 3136SOL     OW 9443   3.846   0.643   0.563
 3136SOL    HW1 9444   3.801   0.555   0.580
 3136SOL    HW2 9445   3.845   0.697   0.647
 3137SOL     OW 9446   3.751   1.596   0.117
 3137SOL    HW1 9447   3.732   1.500   0.138
 3137SOL    HW2 9448   3.718   1.654   0.192
 3138SOL     OW 9449   3.837   0.737   1.597
 3138SOL    HW1 9450   3.925   0.724   1.642
 3138SOL    HW2 9451   3.824   0.834   1.575
 3139SOL     OW 9452   4.337   1.365   0.726
 3139SOL    HW1 9453   4.288   1.278   0.735
 3139SOL    HW2 9454   4.314   1.408   0.639
 3140SOL     OW 9455   5.017   1.228   1.423
 3140SOL    HW1 9456   5.054   1.155   1.365
 3140SOL    HW2 9457   5.069   1.233   1.508
 3141SOL     OW 9458   4.533   0.004   0.502
 3141SOL    HW1 9459   4.573   0.095   0.493
 3141SOL    HW2 9460   4.433   0.012   0.508
 3142SOL     OW 9461   3.921   0.976   1.264
 3142SOL    HW1 9462   4.010   0.931   1.250
 3142SOL    HW2 9463   3.848   0.911   1.245
 3143SOL     OW 9464   4.911   1.792   1.616
 3143SOL    HW1 9465   4.935   1.852   1.540
 3143SOL    HW2 9466   4.918   1.697   1.586
 3144SOL     OW 9467   4.041   0.251   1.801
 3144SOL    HW1 9468   4.112   0.322   1.807
 3144SOL    HW2 9469   3.953   0.290   1.829
 3145SOL     OW 9470   4.322   0.729   0.270
 3145SOL    HW1 9471   4.346   0.798   0.202
 3145SOL    HW2 9472   4.244   0.762   0.324
 3146SOL     OW 9473   5.005   0.345   0.944
 3146SOL    HW1 9474   4.919   0.295   0.931
 3146SOL    HW2 9475   5.067   0.291   1.000
 3147SOL     OW 9476   4.531   0.605   1.465
 3147SOL    HW1 9477   4.484   0.602   1.554
 3147SOL    HW2 9478   4.480   0.550   1.399
 3148SOL     OW 9479   4.697   0.890   1.572
 3148SOL    HW1 9480   4.743   0.806   1.543
 3148SOL    HW2 9481   4.641   0.924   1.497
 3149SOL     OW 9482   4.715   0.410   1.242
 3149SOL    HW1 9483   4.638   0.444   1.296
 3149SOL    HW2 9484   4.681   0.359   1.163
 3150SOL     OW 9485   4.765   0.701   0.429
 3150SOL    HW1 9486   4.791   0.697   0.525
 3150SOL    HW2 9487   4.680   0.650   0.415
 3151SOL     OW 9488   3.800   0.811   0.789
 3151SOL    HW1 9489   3.899   0.799   0.798
 3151SOL    HW2 9490   3.776   0.906   0.810
 3152SOL     OW 9491   3.854   1.821   1.571
 3152SOL    HW1 9492   3.844   1.806   1.670
 3152SOL    HW2 9493   3.768   1.857   1.535
 3153SOL     OW 9494   4.589   0.348   0.195
 3153SOL    HW1 9495   4.648   0.411   0.146
 3153SOL    HW2 9496   4.608   0.254   0.166
 3154SOL     OW 9497   4.274   0.196   0.885
 3154SOL    HW1 9498   4.269   0.191   0.985
 3154SOL    HW2 9499   4.276   0.292   0.856
 3155SOL     OW 9500   4.732   1.456   0.477
 3155SOL    HW1 9501   4.686   1.528   0.425
 3155SOL    HW2 9502   4.728   1.476   0.575
 3156SOL     OW 9503   4.075   1.801   0.853
 3156SOL    HW1 9504   4.125   1.715   0.859
 3156SOL    HW2 9505   4.140   1.878   0.850
 3157SOL     OW 9506   4.951   1.550   1.506
 3157SOL    HW1 9507   4.957   1.473   1.570
 3157SOL    HW2 9508   4.899   1.524   1.426
 3158SOL     OW 9509   4.045   0.943   0.242
 3158SOL    HW1 9510   4.127   0.982   0.200
 3158SOL    HW2 9511   4.018   0.861   0.193
 3159SOL     OW 9512   4.185   1.266   1.727
 3159SOL    HW1 9513   4.135   1.267   1.641
 3159SOL    HW2 9514   4.122   1.248   1.803
 3160SOL     OW 9515   4.835   1.776   0.237
 3160SOL    HW1 9516   4.775   1.714   0.287
 3160SOL    HW2 9517   4.866   1.732   0.152
 3161SOL     OW 9518   3.926   0.285   1.498
 3161SOL    HW1 9519   3.846   0.345   1.485
 3161SOL    HW2 9520   3.916   0.236   1.584
 3162SOL     OW 9521   4.188   1.743   0.323
 3162SOL    HW1 9522   4.221   1.782   0.409
 3162SOL    HW2 9523   4.264   1.736   0.258
 3163SOL     OW 9524   3.973   1.785   1.241
 3163SOL    HW1 9525   4.030   1.720   1.291
 3163SOL    HW2 9526   3.957   1.752   1.148
 3164SOL     OW 9527   4.664   1.698   0.904
 3164SOL    HW1 9528   4.744   1.641   0.925
 3164SOL    HW2 9529   4.615   1.658   0.827
 3165SOL     OW 9530   4.106   0.700   0.480
 3165SOL    HW1 9531   4.151   0.610   0.477
 3165SOL    HW2 9532   4.012   0.689   0.513
 3166SOL     OW 9533   4.338   0.122   0.117
 3166SOL    HW1 9534   4.436   0.100   0.124
 3166SOL    HW2 9535   4.307   0.105   0.024
 3167SOL     OW 9536   4.505   0.264   1.749
 3167SOL    HW1 9537   4.572   0.203   1.792
 3167SOL    HW2 9538   4.432   0.283   1.814
 3168SOL     OW 9539   4.612   1.514   1.195
 3168SOL    HW1 9540   4.589   1.489   1.101
 3168SOL    HW2 9541   4.673   1.445   1.234
 3169SOL     OW 9542   4.527   1.402   0.924
 3169SOL    HW1 9543   4.617   1.416   0.882
 3169SOL    HW2 9544   4.456   1.404   0.853
 3170SOL     OW 9545   4.646   0.503   0.899
 3170SOL    HW1 9546   4.621   0.494   0.803
 3170SOL    HW2 9547   4.694   0.421   0.930
 3171SOL     OW 9548   4.263   0.064   0.512
 3171SOL    HW1 9549   4.182   0.065   0.570
 3171SOL    HW2 9550   4.266   0.147   0.457
 3172SOL     OW 9551   4.021   0.035   0.171
 3172SOL    HW1 9552   4.070   0.119   0.150
 3172SOL    HW2 9553   4.083  -0.030   0.216
 3173SOL     OW 9554   4.659   0.236   0.480
 3173SOL    HW1 9555   4.611   0.277   0.402
 3173SOL    HW2 9556   4.758   0.234   0.461
 3174SOL     OW 9557   4.800   0.683   1.464
 3174SOL    HW1 9558   4.720   0.622   1.467
 3174SOL    HW2 9559   4.881   0.630   1.440
 3175SOL     OW 9560   4.951   1.570   0.793
 3175SOL    HW1 9561   4.972   1.644   0.728
 3175SOL    HW2 9562   5.019   1.570   0.866
 3176SOL     OW 9563   4.183   1.152   0.741
 3176SOL    HW1 9564   4.112   1.125   0.806
 3176SOL    HW2 9565   4.157   1.124   0.648
 3177SOL     OW 9566   4.995   1.797   0.591
 3177SOL    HW1 9567   5.039   1.861   0.527
 3177SOL    HW2 9568   4.945   1.849   0.661
 3178SOL     OW 9569   4.756   0.549   0.016
 3178SOL    HW1 9570   4.715   0.631  -0.023
 3178SOL    HW2 9571   4.820   0.575   0.089
 3179SOL     OW 9572   3.802   0.556   1.386
 3179SOL    HW1 9573   3.894   0.555   1.345
 3179SOL    HW2 9574   3.796   0.630   1.453
 3180SOL     OW 9575   4.285   0.222   1.147
 3180SOL    HW1 9576   4.323   0.138   1.184
 3180SOL    HW2 9577   4.197   0.241   1.191
 3181SOL     OW 9578   4.590   0.454   0.642
 3181SOL    HW1 9579   4.558   0.526   0.580
 3181SOL    HW2 9580   4.614   0.373   0.589
 3182SOL     OW 9581   4.741   0.039   0.753
 3182SOL    HW1 9582   4.669   0.044   0.684
 3182SOL    HW2 9583   4.717  -0.030   0.822
 3183SOL     OW 9584   4.212   1.385   0.174
 3183SOL    HW1 9585   4.125   1.370   0.221
 3183SOL    HW2 9586   4.195   1.411   0.079
 3184SOL     OW 9587   4.251   0.256   0.328
 3184SOL    HW1 9588   4.278   0.197   0.253
 3184SOL    HW2 9589   4.251   0.351   0.297
 3185SOL     OW 9590   4.788   1.347   1.340
 3185SOL    HW1 9591   4.708   1.324   1.395
 3185SOL    HW2 9592   4.871   1.321   1.389
 3186SOL     OW 9593   4.835   1.195   1.100
 3186SOL    HW1 9594   4.795   1.239   1.181
 3186SOL    HW2 9595   4.794   1.232   1.017
 3187SOL     OW 9596   4.639   0.089   1.402
 3187SOL    HW1 9597   4.664   0.069   1.307
 3187SOL    HW2 9598   4.711   0.145   1.444
 3188SOL     OW 9599   4.704   1.116   1.719
 3188SOL    HW1 9600   4.605   1.122   1.729
 3188SOL    HW2 9601   4.727   1.036   1.663
 3189SOL     OW 9602   4.429   1.050   0.368
 3189SOL    HW1 9603   4.415   1.057   0.467
 3189SOL    HW2 9604   4.513   0.999   0.350
 3190SOL     OW 9605   4.134   0.813   1.251
 3190SOL    HW1 9606   4.220   0.825   1.301
 3190SOL    HW2 9607   4.092   0.726   1.278
 3191SOL     OW 9608   4.998   0.386   1.262
 3191SOL    HW1 9609   5.019   0.460   1.326
 3191SOL    HW2 9610   4.909   0.403   1.219
 3192SOL     OW 9611   3.788   1.564   1.331
 3192SOL    HW1 9612   3.742   1.646   1.297
 3192SOL    HW2 9613   3.886   1.583   1.340
 3193SOL     OW 9614   4.091   1.100   0.501
 3193SOL    HW1 9615   4.084   1.183   0.445
 3193SOL    HW2 9616   4.095   1.020   0.441
 3194SOL     OW 9617   4.290   0.537   0.865
 3194SOL    HW1 9618   4.302   0.603   0.791
 3194SOL    HW2 9619   4.336   0.571   0.948
 3195SOL     OW 9620   4.976   1.348   0.388
 3195SOL    HW1 9621   5.026   1.425   0.428
 3195SOL    HW2 9622   4.881   1.350   0.420
 3196SOL     OW 9623   4.078   1.510   1.329
 3196SOL    HW1 9624   4.057   1.466   1.242
 3196SOL    HW2 9625   4.175   1.536   1.332
 3197SOL     OW 9626   4.126   0.751   1.598
 3197SOL    HW1 9627   4.194   0.806   1.551
 3197SOL    HW2 9628   4.166   0.663   1.625
 3198SOL     OW 9629   4.737   0.105   1.770
 3198SOL    HW1 9630   4.743   0.190   1.718
 3198SOL    HW2 9631   4.769   0.029   1.713
 3199SOL     OW 9632   4.228   0.050   1.740
 3199SOL    HW1 9633   4.186  -0.007   1.670
 3199SOL    HW2 9634   4.162   0.119   1.772
 3200SOL     OW 9635   4.297   0.870   1.029
 3200SOL    HW1 9636   4.341   0.959   1.020
 3200SOL    HW2 9637   4.234   0.870   1.106
 3201SOL     OW 9638   5.084   0.862   1.045
 3201SOL    HW1 9639   5.009   0.862   0.979
 3201SOL    HW2 9640   5.121   0.770   1.054
 3202SOL     OW 9641   4.933   0.525   0.275
 3202SOL    HW1 9642   4.946   0.441   0.329
 3202SOL    HW2 9643   4.904   0.599   0.335
 3203SOL     OW 9644   4.031   0.213   1.231
 3203SOL    HW1 9645   4.008   0.250   1.321
 3203SOL    HW2 9646   4.001   0.118   1.225
 3204SOL     OW 9647   3.761   1.310   1.282
 3204SOL    HW1 9648   3.814   1.261   1.350
 3204SOL    HW2 9649   3.783   1.408   1.287
 3205SOL     OW 9650   4.456   0.634   1.064
 3205SOL    HW1 9651   4.515   0.608   0.988
 3205SOL    HW2 9652   4.428   0.730   1.053
 3206SOL     OW 9653   4.031   0.063   0.618
 3206SOL    HW1 9654   4.020   0.157   0.651
 3206SOL    HW2 9655   4.026   0.000   0.695
 3207SOL     OW 9656   5.346   0.367   0.374
 3207SOL    HW1 9657   5.348   0.291   0.438
 3207SOL    HW2 9658   5.298   0.444   0.414
 3208SOL     OW 9659   4.747   0.766   0.966
 3208SOL    HW1 9660   4.762   0.787   1.062
 3208SOL    HW2 9661   4.717   0.671   0.957
 3209SOL     OW 9662   4.704   1.573   1.700
 3209SOL    HW1 9663   4.684   1.617   1.612
 3209SOL    HW2 9664   4.743   1.482   1.684
 3210SOL     OW 9665   4.074   0.898   1.804
 3210SOL    HW1 9666   4.150   0.942   1.852
 3210SOL    HW2 9667   4.109   0.851   1.722
 3211SOL     OW 9668   5.027   0.838   0.042
 3211SOL    HW1 9669   5.061   0.745   0.057
 3211SOL    HW2 9670   5.045   0.865  -0.053
 3212SOL     OW 9671   4.792   1.333   0.849
 3212SOL    HW1 9672   4.799   1.249   0.794
 3212SOL    HW2 9673   4.854   1.402   0.813
 3213SOL     OW 9674   4.043   0.810   0.949
 3213SOL    HW1 9675   4.136   0.846   0.954
 3213SOL    HW2 9676   4.037   0.725   1.001
 3214SOL     OW 9677   4.063   0.509   1.006
 3214SOL    HW1 9678   4.011   0.426   0.989
 3214SOL    HW2 9679   4.140   0.514   0.942
 3215SOL     OW 9680   4.862   0.380   1.678
 3215SOL    HW1 9681   4.817   0.443   1.742
 3215SOL    HW2 9682   4.955   0.411   1.661
 3216SOL     OW 9683   4.884   0.207   1.477
 3216SOL    HW1 9684   4.884   0.271   1.554
 3216SOL    HW2 9685   4.912   0.255   1.394
 3217SOL     OW 9686   3.812   1.801   0.927
 3217SOL    HW1 9687   3.770   1.715   0.900
 3217SOL    HW2 9688   3.906   1.804   0.893
 3218SOL     OW 9689   4.228   1.568   0.910
 3218SOL    HW1 9690   4.294   1.642   0.919
 3218SOL    HW2 9691   4.272   1.489   0.868
 3219SOL     OW 9692   4.726   0.796   1.238
 3219SOL    HW1 9693   4.767   0.764   1.324
 3219SOL    HW2 9694   4.630   0.769   1.235
 3220SOL     OW 9695   3.764   0.544   1.114
 3220SOL    HW1 9696   3.849   0.511   1.073
 3220SOL    HW2 9697   3.777   0.559   1.212
 3221SOL     OW 9698   3.913   0.520   1.722
 3221SOL    HW1 9699   3.972   0.480   1.652
 3221SOL    HW2 9700   3.855   0.591   1.681
 3222SOL     OW 9701   4.539   0.572   0.325
 3222SOL    HW1 9702   4.546   0.483   0.279
 3222SOL    HW2 9703   4.445   0.606   0.317
 3223SOL     OW 9704   3.976   1.564   1.744
 3223SOL    HW1 9705   3.946   1.621   1.820
 3223SOL    HW2 9706   3.969   1.467   1.770
 3224SOL     OW 9707   4.395   0.464   1.269
 3224SOL    HW1 9708   4.361   0.375   1.239
 3224SOL    HW2 9709   4.421   0.518   1.189
 3225SOL     OW 9710   4.654   1.678   1.465
 3225SOL    HW1 9711   4.630   1.660   1.370
 3225SOL    HW2 9712   4.684   1.772   1.475
 3226SOL     OW 9713   4.197   0.500   0.191
 3226SOL    HW1 9714   4.258   0.580   0.195
 3226SOL    HW2 9715   4.102   0.531   0.198
 3227SOL     OW 9716   3.883   1.137   1.466
 3227SOL    HW1 9717   3.905   1.076   1.542
 3227SOL    HW2 9718   3.893   1.088   1.380
 3228SOL     OW 9719   5.071   1.059   1.234
 3228SOL    HW1 9720   5.095   0.996   1.160
 3228SOL    HW2 9721   4.981   1.099   1.216
 3229SOL     OW 9722   4.976   1.731   1.128
 3229SOL    HW1 9723   5.060   1.736   1.074
 3229SOL    HW2 9724   4.953   1.635   1.146
 3230SOL     OW 9725   3.807   1.258   1.022
 3230SOL    HW1 9726   3.802   1.257   1.122
 3230SOL    HW2 9727   3.724   1.217   0.984
 3231SOL     OW 9728   4.412   1.662   1.716
 3231SOL    HW1 9729   4.356   1.743   1.725
 3231SOL    HW2 9730   4.464   1.666   1.630
 3232SOL     OW 9731   4.627   0.086   0.133
 3232SOL    HW1 9732   4.678   0.087   0.047
 3232SOL    HW2 9733   4.683   0.044   0.204
 3233SOL     OW 9734   5.112   1.573   0.477
 3233SOL    HW1 9735   5.179   1.585   0.403
 3233SOL    HW2 9736   5.072   1.662   0.500
 3234SOL     OW 9737   3.854   1.794   1.851
 3234SOL    HW1 9738   3.813   1.720   1.904
 3234SOL    HW2 9739   3.918   1.845   1.909
 3235SOL     OW 9740   4.554   1.273   1.422
 3235SOL    HW1 9741   4.549   1.306   1.517
 3235SOL    HW2 9742   4.468   1.292   1.376
 3236SOL     OW 9743   4.396   1.616   0.154
 3236SOL    HW1 9744   4.405   1.626   0.055
 3236SOL    HW2 9745   4.356   1.527   0.175
 3237SOL     OW 9746   3.987   0.326   0.720
 3237SOL    HW1 9747   3.908   0.377   0.686
 3237SOL    HW2 9748   3.978   0.311   0.818
 3238SOL     OW 9749   4.918   1.612   0.031
 3238SOL    HW1 9750   4.924   1.519   0.068
 3238SOL    HW2 9751   4.859   1.612  -0.049
 3239SOL     OW 9752   4.546   1.002   1.372
 3239SOL    HW1 9753   4.586   1.001   1.280
 3239SOL    HW2 9754   4.556   1.094   1.412
 3240SOL     OW 9755   4.640   0.910   0.291
 3240SOL    HW1 9756   4.703   0.948   0.223
 3240SOL    HW2 9757   4.680   0.827   0.330
 3241SOL     OW 9758   4.096   1.288   1.490
 3241SOL    HW1 9759   4.083   1.381   1.456
 3241SOL    HW2 9760   4.012   1.236   1.477
 3242SOL     OW 9761   4.763   1.098   0.696
 3242SOL    HW1 9762   4.693   1.051   0.750
 3242SOL    HW2 9763   4.822   1.030   0.653
 3243SOL     OW 9764   4.738   0.236   0.971
 3243SOL    HW1 9765   4.730   0.200   0.878
 3243SOL    HW2 9766   4.736   0.160   1.036
 3244SOL     OW 9767   4.314   1.487   0.491
 3244SOL    HW1 9768   4.356   1.429   0.421
 3244SOL    HW2 9769   4.270   1.566   0.447
 3245SOL     OW 9770   3.979   1.348   0.290
 3245SOL    HW1 9771   3.883   1.349   0.263
 3245SOL    HW2 9772   3.991   1.401   0.374
 3246SOL     OW 9773   3.829   1.013   1.726
 3246SOL    HW1 9774   3.752   0.980   1.780
 3246SOL    HW2 9775   3.914   0.983   1.768
 3247SOL     OW 9776   4.396   0.203   1.489
 3247SOL    HW1 9777   4.486   0.187   1.449
 3247SOL    HW2 9778   4.404   0.208   1.588
 3248SOL     OW 9779   3.796   0.166   0.318
 3248SOL    HW1 9780   3.779   0.249   0.264
 3248SOL    HW2 9781   3.886   0.129   0.296
 3249SOL     OW 9782   4.337   0.842   1.431
 3249SOL    HW1 9783   4.393   0.923   1.414
 3249SOL    HW2 9784   4.396   0.762   1.434
 3250SOL     OW 9785   4.440   0.565   1.708
 3250SOL    HW1 9786   4.459   0.630   1.782
 3250SOL    HW2 9787   4.500   0.485   1.717
 3251SOL     OW 9788   4.114   1.741   1.560
 3251SOL    HW1 9789   4.023   1.782   1.558
 3251SOL    HW2 9790   4.107   1.647   1.592
 3252SOL     OW 9791   4.318   0.745   0.652
 3252SOL    HW1 9792   4.368   0.830   0.633
 3252SOL    HW2 9793   4.230   0.747   0.604
 3253SOL     OW 9794   4.583   1.374   0.016
 3253SOL    HW1 9795   4.537   1.389   0.104
 3253SOL    HW2 9796   4.627   1.459  -0.014
 3254SOL     OW 9797   4.385   1.790   0.953
 3254SOL    HW1 9798   4.339   1.878   0.940
 3254SOL    HW2 9799   4.484   1.802   0.946
 3255SOL     OW 9800   4.583   0.956   0.861
 3255SOL    HW1 9801   4.637   0.887   0.909
 3255SOL    HW2 9802   4.551   1.025   0.927
 3256SOL     OW 9803   4.807   0.984   0.087
 3256SOL    HW1 9804   4.784   1.037   0.005
 3256SOL    HW2 9805   4.888   0.928   0.068
 3257SOL     OW 9806   3.945   1.314   1.844
 3257SOL    HW1 9807   3.880   1.241   1.823
 3257SOL    HW2 9808   3.949   1.328   1.942
 3258SOL     OW 9809   3.803   1.240   0.653
 3258SOL    HW1 9810   3.802   1.193   0.741
 3258SOL    HW2 9811   3.885   1.212   0.602
 3259SOL     OW 9812   4.396   1.391   1.624
 3259SOL    HW1 9813   4.318   1.341   1.662
 3259SOL    HW2 9814   4.393   1.486   1.655
 3260SOL     OW 9815   4.152   0.424   0.520
 3260SOL    HW1 9816   4.182   0.352   0.458
 3260SOL    HW2 9817   4.113   0.384   0.603
 3261SOL     OW 9818   4.041   0.547   1.280
 3261SOL    HW1 9819   4.079   0.488   1.352
 3261SOL    HW2 9820   4.081   0.521   1.192
 3262SOL     OW 9821   4.536   1.586   0.687
 3262SOL    HW1 9822   4.568   1.596   0.593
 3262SOL    HW2 9823   4.457   1.524   0.689
 3263SOL     OW 9824   4.725   0.034   1.154
 3263SOL    HW1 9825   4.662  -0.038   1.123
 3263SOL    HW2 9826   4.818  -0.002   1.154
 3264SOL     OW 9827   4.494   1.330   0.301
 3264SOL    HW1 9828   4.448   1.243   0.318
 3264SOL    HW2 9829   4.585   1.327   0.342
 3265SOL     OW 9830   4.342   1.567   1.284
 3265SOL    HW1 9831   4.337   1.649   1.341
 3265SOL    HW2 9832   4.431   1.564   1.239
 3266SOL     OW 9833   3.763   1.077   0.300
 3266SOL    HW1 9834   3.862   1.066   0.291
 3266SOL    HW2 9835   3.723   0.991   0.332
 3267SOL     OW 9836   4.599   1.646   0.337
 3267SOL    HW1 9837   4.522   1.611   0.283
 3267SOL    HW2 9838   4.567   1.717   0.399
 3268SOL     OW 9839   3.954   0.628   1.975
 3268SOL    HW1 9840   3.861   0.626   2.012
 3268SOL    HW2 9841   3.955   0.589   1.883
 3269SOL     OW 9842   3.949   0.275   2.858
 3269SOL    HW1 9843   3.984   0.258   2.950
 3269SOL    HW2 9844   3.861   0.230   2.846
 3270SOL     OW 9845   3.743   0.368   2.509
 3270SOL    HW1 9846   3.661   0.411   2.548
 3270SOL    HW2 9847   3.715   0.295   2.446
 3271SOL     OW 9848   4.293   1.275   3.027
 3271SOL    HW1 9849   4.200   1.268   2.990
 3271SOL    HW2 9850   4.304   1.364   3.071
 3272SOL     OW 9851   4.859   0.703   2.579
 3272SOL    HW1 9852   4.916   0.781   2.554
 3272SOL    HW2 9853   4.799   0.729   2.655
 3273SOL     OW 9854   4.492   1.144   2.885
 3273SOL    HW1 9855   4.414   1.161   2.945
 3273SOL    HW2 9856   4.526   1.231   2.849
 3274SOL     OW 9857   4.574   0.798   3.685
 3274SOL    HW1 9858   4.570   0.874   3.750
 3274SOL    HW2 9859   4.596   0.834   3.594
 3275SOL     OW 9860   4.409   1.012   2.527
 3275SOL    HW1 9861   4.478   0.996   2.597
 3275SOL    HW2 9862   4.336   1.069   2.565
 3276SOL     OW 9863   4.410   1.161   3.665
 3276SOL    HW1 9864   4.470   1.240   3.679
 3276SOL    HW2 9865   4.324   1.192   3.624
 3277SOL     OW 9866   4.059   1.435   2.923
 3277SOL    HW1 9867   3.981   1.404   2.870
 3277SOL    HW2 9868   4.117   1.493   2.866
 3278SOL     OW 9869   4.162   0.392   3.361
 3278SOL    HW1 9870   4.244   0.336   3.370
 3278SOL    HW2 9871   4.081   0.334   3.365
 3279SOL     OW 9872   3.955   1.713   2.345
 3279SOL    HW1 9873   3.989   1.790   2.399
 3279SOL    HW2 9874   3.999   1.713   2.255
 3280SOL     OW 9875   4.851   1.341   3.552
 3280SOL    HW1 9876   4.898   1.341   3.640
 3280SOL    HW2 9877   4.803   1.254   3.541
 3281SOL     OW 9878   3.954   1.434   2.400
 3281SOL    HW1 9879   3.928   1.530   2.400
 3281SOL    HW2 9880   3.883   1.380   2.445
 3282SOL     OW 9881   3.964   1.091   2.748
 3282SOL    HW1 9882   3.978   1.007   2.800
 3282SOL    HW2 9883   3.909   1.155   2.803
 3283SOL     OW 9884   4.344   1.786   3.301
 3283SOL    HW1 9885   4.252   1.769   3.336
 3283SOL    HW2 9886   4.372   1.878   3.327
 3284SOL     OW 9887   4.330   0.964   1.985
 3284SOL    HW1 9888   4.337   1.048   1.931
 3284SOL    HW2 9889   4.376   0.977   2.073
 3285SOL     OW 9890   3.846   0.643   2.425
 3285SOL    HW1 9891   3.801   0.555   2.442
 3285SOL    HW2 9892   3.845   0.697   2.509
 3286SOL     OW 9893   3.751   1.596   1.979
 3286SOL    HW1 9894   3.732   1.500   2.000
 3286SOL    HW2 9895   3.718   1.654   2.054
 3287SOL     OW 9896   3.837   0.737   3.459
 3287SOL    HW1 9897   3.925   0.724   3.504
 3287SOL    HW2 9898   3.824   0.834   3.437
 3288SOL     OW 9899   4.337   1.365   2.588
 3288SOL    HW1 9900   4.288   1.278   2.597
 3288SOL    HW2 9901   4.314   1.408   2.501
 3289SOL     OW 9902   5.017   1.228   3.285
 3289SOL    HW1 9903   5.054   1.155   3.227
 3289SOL    HW2 9904   5.069   1.233   3.370
 3290SOL     OW 9905   4.533   0.004   2.364
 3290SOL    HW1 9906   4.573   0.095   2.355
 3290SOL    HW2 9907   4.433   0.012   2.370
 3291SOL     OW 9908   3.921   0.976   3.126
 3291SOL    HW1 9909   4.010   0.931   3.112
 3291SOL    HW2 9910   3.848   0.911   3.107
 3292SOL     OW 9911   4.911   1.792   3.478
 3292SOL    HW1 9912   4.935   1.852   3.402
 3292SOL    HW2 9913   4.918   1.697   3.448
 3293SOL     OW 9914   4.041   0.251   3.663
 3293SOL    HW1 9915   4.112   0.322   3.669
 3293SOL    HW2 9916   3.953   0.290   3.691
 3294SOL     OW 9917   4.322   0.729   2.132
 3294SOL    HW1 9918   4.346   0.798   2.064
 3294SOL    HW2 9919   4.244   0.762   2.186
 3295SOL     OW 9920   5.005   0.345   2.806
 3295SOL    HW1 9921   4.919   0.295   2.793
 3295SOL    HW2 9922   5.067   0.291   2.862
 3296SOL     OW 9923   4.531   0.605   3.327
 3296SOL    HW1 9924   4.484   0.602   3.416
 3296SOL    HW2 9925   4.480   0.550   3.261
 3297SOL     OW 9926   4.697   0.890   3.434
 3297SOL    HW1 9927   4.743   0.806   3.405
 3297SOL    HW2 9928   4.641   0.924   3.359
 3298SOL     OW 9929   4.715   0.410   3.104
 3298SOL    HW1 9930   4.638   0.444   3.158
 3298SOL    HW2 9931   4.681   0.359   3.025
 3299SOL     OW 9932   4.765   0.701   2.291
 3299SOL    HW1 9933   4.791   0.697   2.387
 3299SOL    HW2 9934   4.680   0.650   2.277
 3300SOL     OW 9935   3.800   0.811   2.651
 3300SOL    HW1 9936   3.899   0.799   2.660
 3300SOL    HW2 9937   3.776   0.906   2.672
 3301SOL     OW 9938   3.854   1.821   3.433
 3301SOL    HW1 9939   3.844   1.806   3.532
 3301SOL    HW2 9940   3.768   1.857   3.397
 3302SOL     OW 9941   4.589   0.348   2.057
 3302SOL    HW1 9942   4.648   0.411   2.008
 3302SOL    HW2 9943   4.608   0.254   2.028
 3303SOL     OW 9944   4.274   0.196   2.747
 3303SOL    HW1 9945   4.269   0.191   2.847
 3303SOL    HW2 9946   4.276   0.292   2.718
 3304SOL     OW 9947   4.732   1.456   2.339
 3304SOL    HW1 9948   4.686   1.528   2.287
 3304SOL    HW2 9949   4.728   1.476   2.437
 3305SOL     OW 9950   4.075   1.801   2.715
 3305SOL    HW1 9951   4.125   1.715   2.721
 3305SOL    HW2 9952   4.140   1.878   2.712
 3306SOL     OW 9953   4.951   1.550   3.368
 3306SOL    HW1 9954   4.957   1.473   3.432
 3306SOL    HW2 9955   4.899   1.524   3.288
 3307SOL     OW 9956   4.045   0.943   2.104
 3307SOL    HW1 9957   4.127   0.982   2.062
 3307SOL    HW2 9958   4.018   0.861   2.055
 3308SOL     OW 9959   4.185   1.266   3.589
 3308SOL    HW1 9960   4.135   1.267   3.503
 3308SOL    HW2 9961   4.122   1.248   3.665
 3309SOL     OW 9962   4.835   1.776   2.099
 3309SOL    HW1 9963   4.775   1.714   2.149
 3309SOL    HW2 9964   4.866   1.732   2.014
 3310SOL     OW 9965   3.926   0.285   3.360
 3310SOL    HW1 9966   3.846   0.345   3.347
 3310SOL    HW2 9967   3.916   0.236   3.446
 3311SOL     OW 9968   4.188   1.743   2.185
 3311SOL    HW1 9969   4.221   1.782   2.271
 3311SOL    HW2 9970   4.264   1.736   2.120
 3312SOL     OW 9971   3.973   1.785   3.103
 3312SOL    HW1 9972   4.030   1.720   3.153
 3312SOL    HW2 9973   3.957   1.752   3.010
 3313SOL     OW 9974   4.664   1.698   2.766
 3313SOL    HW1 9975   4.744   1.641   2.787
 3313SOL    HW2 9976   4.615   1.658   2.689
 3314SOL     OW 9977   4.106   0.700   2.342
 3314SOL    HW1 9978   4.151   0.610   2.339
 3314SOL    HW2 9979   4.012   0.689   2.375
 3315SOL     OW 9980   4.338   0.122   1.979
 3315SOL    HW1 9981   4.436   0.100   1.986
 3315SOL    HW2 9982   4.307   0.105   1.886
 3316SOL     OW 9983   4.505   0.264   3.611
 3316SOL    HW1 9984   4.572   0.203   3.654
 3316SOL    HW2 9985   4.432   0.283   3.676
 3317SOL     OW 9986   4.612   1.514   3.057
 3317SOL    HW1 9987   4.589   1.489   2.963
 3317SOL    HW2 9988   4.673   1.445   3.096
 3318SOL     OW 9989   4.527   1.402   2.786
 3318SOL    HW1 9990   4.617   1.416   2.744
 3318SOL    HW2 9991   4.456   1.404   2.715
 3319SOL     OW 9992   4.646   0.503   2.761
 3319SOL    HW1 9993   4.621   0.494   2.665
 3319SOL    HW2 9994   4.694   0.421   2.792
 3320SOL     OW 9995   4.263   0.064   2.374
 3320SOL    HW1 9996   4.182   0.065   2.432
 3320SOL    HW2 9997   4.266   0.147   2.319
 3321SOL     OW 9998   4.021   0.035   2.033
 3321SOL    HW1 9999   4.070   0.119   2.012
 3321SOL    HW210000   4.083  -0.030   2.078
 3322SOL     OW10001   4.659   0.236   2.342
 3322SOL    HW110002   4.611   0.277   2.264
 3322SOL    HW210003   4.758   0.234   2.323
 3323SOL     OW10004   4.800   0.683   3.326
 3323SOL    HW110005   4.720   0.622   3.329
 3323SOL    HW210006   4.881   0.630   3.302
 3324SOL     OW10007   4.951   1.570   2.655
 3324SOL    HW110008   4.972   1.644   2.590
 3324SOL    HW210009   5.019   1.570   2.728
 3325SOL     OW10010   4.183   1.152   2.603
 3325SOL    HW110011   4.112   1.125   2.668
 3325SOL    HW210012   4.157   1.124   2.510
 3326SOL     OW10013   4.995   1.797   2.453
 3326SOL    HW110014   5.039   1.861   2.389
 3326SOL    HW210015   4.945   1.849   2.523
 3327SOL     OW10016   4.756   0.549   1.878
 3327SOL    HW110017   4.715   0.631   1.839
 3327SOL    HW210018   4.820   0.575   1.951
 3328SOL     OW10019   3.802   0.556   3.248
 3328SOL    HW110020   3.894   0.555   3.207
 3328SOL    HW210021   3.796   0.630   3.315
 3329SOL     OW10022   4.285   0.222   3.009
 3329SOL    HW110023   4.323   0.138   3.046
 3329SOL    HW210024   4.197   0.241   3.053
 3330SOL     OW10025   4.590   0.454   2.504
 3330SOL    HW110026   4.558   0.526   2.442
 3330SOL    HW210027   4.614   0.373   2.451
 3331SOL     OW10028   4.741   0.039   2.615
 3331SOL    HW110029   4.669   0.044   2.546
 3331SOL    HW210030   4.717  -0.030   2.684
 3332SOL     OW10031   4.212   1.385   2.036
 3332SOL    HW110032   4.125   1.370   2.083
 3332SOL    HW210033   4.195   1.411   1.941
 3333SOL     OW10034   4.251   0.256   2.190
 3333SOL    HW110035   4.278   0.197   2.115
 3333SOL    HW210036   4.251   0.351   2.159
 3334SOL     OW10037   4.788   1.347   3.202
 3334SOL    HW110038   4.708   1.324   3.257
 3334SOL    HW210039   4.871   1.321   3.251
 3335SOL     OW10040   4.835   1.195   2.962
 3335SOL    HW110041   4.795   1.239   3.043
 3335SOL    HW210042   4.794   1.232   2.879
 3336SOL     OW10043   4.639   0.089   3.264
 3336SOL    HW110044   4.664   0.069   3.169
 3336SOL    HW210045   4.711   0.145   3.306
 3337SOL     OW10046   4.704   1.116   3.581
 3337SOL    HW110047   4.605   1.122   3.591
 3337SOL    HW210048   4.727   1.036   3.525
 3338SOL     OW10049   4.429   1.050   2.230
 3338SOL    HW110050   4.415   1.057   2.329
 3338SOL    HW210051   4.513   0.999   2.212
 3339SOL     OW10052   4.134   0.813   3.113
 3339SOL    HW110053   4.220   0.825   3.163
 3339SOL    HW210054   4.092   0.726   3.140
 3340SOL     OW10055   4.998   0.386   3.124
 3340SOL    HW110056   5.019   0.460   3.188
 3340SOL    HW210057   4.909   0.403   3.081
 3341SOL     OW10058   3.788   1.564   3.193
 3341SOL    HW110059   3.742   1.646   3.159
 3341SOL    HW210060   3.886   1.583   3.202
 3342SOL     OW10061   4.091   1.100   2.363
 3342SOL    HW110062   4.084   1.183   2.307
 3342SOL    HW210063   4.095   1.020   2.303
 3343SOL     OW10064   4.290   0.537   2.727
 3343SOL    HW110065   4.302   0.603   2.653
 3343SOL    HW210066   4.336   0.571   2.810
 3344SOL     OW10067   4.976   1.348   2.250
 3344SOL    HW110068   5.026   1.425   2.290
 3344SOL    HW210069   4.881   1.350   2.282
 3345SOL     OW10070   4.078   1.510   3.191
 3345SOL    HW110071   4.057   1.466   3.104
 3345SOL    HW210072   4.175   1.536   3.194
 3346SOL     OW10073   4.126   0.751   3.460
 3346SOL    HW110074   4.194   0.806   3.413
 3346SOL    HW210075   4.166   0.663   3.487
 3347SOL     OW10076   4.737   0.105   3.632
 3347SOL    HW110077   4.743   0.190   3.580
 3347SOL    HW210078   4.769   0.029   3.575
 3348SOL     OW10079   4.228   0.050   3.602
 3348SOL    HW110080   4.186  -0.007   3.532
 3348SOL    HW210081   4.162   0.119   3.634
 3349SOL     OW10082   4.297   0.870   2.891
 3349SOL    HW110083   4.341   0.959   2.882
 3349SOL    HW210084   4.234   0.870   2.968
 3350SOL     OW10085   5.084   0.862   2.907
 3350SOL    HW110086   5.009   0.862   2.841
 3350SOL    HW210087   5.121   0.770   2.916
 3351SOL     OW10088   4.933   0.525   2.137
 3351SOL    HW110089   4.946   0.441   2.191
 3351SOL    HW210090   4.904   0.599   2.197
 3352SOL     OW10091   4.031   0.213   3.093
 3352SOL    HW110092   4.008   0.250   3.183
 3352SOL    HW210093   4.001   0.118   3.087
 3353SOL     OW10094   3.761   1.310   3.144
 3353SOL    HW110095   3.814   1.261   3.212
 3353SOL    HW210096   3.783   1.408   3.149
 3354SOL     OW10097   4.456   0.634   2.926
 3354SOL    HW110098   4.515   0.608   2.850
 3354SOL    HW210099   4.428   0.730   2.915
 3355SOL     OW10100   4.031   0.063   2.480
 3355SOL    HW110101   4.020   0.157   2.513
 3355SOL    HW210102   4.026   0.000   2.557
 3356SOL     OW10103   5.346   0.367   2.236
 3356SOL    HW110104   5.348   0.291   2.300
 3356SOL    HW210105   5.298   0.444   2.276
 3357SOL     OW10106   4.747   0.766   2.828
 3357SOL    HW110107   4.762   0.787   2.924
 3357SOL    HW210108   4.717   0.671   2.819
 3358SOL     OW10109   4.704   1.573   3.562
 3358SOL    HW110110   4.684   1.617   3.474
 3358SOL    HW210111   4.743   1.482   3.546
 3359SOL     OW10112   4.074   0.898   3.666
 3359SOL    HW110113   4.150   0.942   3.714
 3359SOL    HW210114   4.109   0.851   3.584
 3360SOL     OW10115   4.792   1.333   2.711
 3360SOL    HW110116   4.799   1.249   2.656
 3360SOL    HW210117   4.854   1.402   2.675
 3361SOL     OW10118   4.043   0.810   2.811
 3361SOL    HW110119   4.136   0.846   2.816
 3361SOL    HW210120   4.037   0.725   2.863
 3362SOL     OW10121   4.063   0.509   2.868
 3362SOL    HW110122   4.011   0.426   2.851
 3362SOL    HW210123   4.140   0.514   2.804
 3363SOL     OW10124   4.862   0.380   3.540
 3363SOL    HW110125   4.817   0.443   3.604
 3363SOL    HW210126   4.955   0.411   3.523
 3364SOL     OW10127   4.884   0.207   3.339
 3364SOL    HW110128   4.884   0.271   3.416
 3364SOL    HW210129   4.912   0.255   3.256
 3365SOL     OW10130   3.732   1.326   2.062
 3365SOL    HW110131   3.639   1.347   2.031
 3365SOL    HW210132   3.742   1.227   2.075
 3366SOL     OW10133   3.812   1.801   2.789
 3366SOL    HW110134   3.770   1.715   2.762
 3366SOL    HW210135   3.906   1.804   2.755
 3367SOL     OW10136   4.228   1.568   2.772
 3367SOL    HW110137   4.294   1.642   2.781
 3367SOL    HW210138   4.272   1.489   2.730
 3368SOL     OW10139   4.726   0.796   3.100
 3368SOL    HW110140   4.767   0.764   3.186
 3368SOL    HW210141   4.630   0.769   3.097
 3369SOL     OW10142   3.764   0.544   2.976
 3369SOL    HW110143   3.849   0.511   2.935
 3369SOL    HW210144   3.777   0.559   3.074
 3370SOL     OW10145   3.913   0.520   3.584
 3370SOL    HW110146   3.972   0.480   3.514
 3370SOL    HW210147   3.855   0.591   3.543
 3371SOL     OW10148   4.539   0.572   2.187
 3371SOL    HW110149   4.546   0.483   2.141
 3371SOL    HW210150   4.445   0.606   2.179
 3372SOL     OW10151   3.976   1.564   3.606
 3372SOL    HW110152   3.946   1.621   3.682
 3372SOL    HW210153   3.969   1.467   3.632
 3373SOL     OW10154   4.395   0.464   3.131
 3373SOL    HW110155   4.361   0.375   3.101
 3373SOL    HW210156   4.421   0.518   3.051
 3374SOL     OW10157   4.654   1.678   3.327
 3374SOL    HW110158   4.630   1.660   3.232
 3374SOL    HW210159   4.684   1.772   3.337
 3375SOL     OW10160   4.197   0.500   2.053
 3375SOL    HW110161   4.258   0.580   2.057
 3375SOL    HW210162   4.102   0.531   2.060
 3376SOL     OW10163   3.883   1.137   3.328
 3376SOL    HW110164   3.905   1.076   3.404
 3376SOL    HW210165   3.893   1.088   3.242
 3377SOL     OW10166   5.071   1.059   3.096
 3377SOL    HW110167   5.095   0.996   3.022
 3377SOL    HW210168   4.981   1.099   3.078
 3378SOL     OW10169   4.976   1.731   2.990
 3378SOL    HW110170   5.060   1.736   2.936
 3378SOL    HW210171   4.953   1.635   3.008
 3379SOL     OW10172   3.807   1.258   2.884
 3379SOL    HW110173   3.802   1.257   2.984
 3379SOL    HW210174   3.724   1.217   2.846
 3380SOL     OW10175   4.412   1.662   3.578
 3380SOL    HW110176   4.356   1.743   3.587
 3380SOL    HW210177   4.464   1.666   3.492
 3381SOL     OW10178   5.112   1.573   2.339
 3381SOL    HW110179   5.179   1.585   2.265
 3381SOL    HW210180   5.072   1.662   2.362
 3382SOL     OW10181   3.854   1.794   3.713
 3382SOL    HW110182   3.813   1.720   3.766
 3382SOL    HW210183   3.918   1.845   3.771
 3383SOL     OW10184   4.554   1.273   3.284
 3383SOL    HW110185   4.549   1.306   3.379
 3383SOL    HW210186   4.468   1.292   3.238
 3384SOL     OW10187   4.396   1.616   2.016
 3384SOL    HW110188   4.405   1.626   1.917
 3384SOL    HW210189   4.356   1.527   2.037
 3385SOL     OW10190   3.987   0.326   2.582
 3385SOL    HW110191   3.908   0.377   2.548
 3385SOL    HW210192   3.978   0.311   2.680
 3386SOL     OW10193   4.918   1.612   1.893
 3386SOL    HW110194   4.924   1.519   1.930
 3386SOL    HW210195   4.859   1.612   1.813
 3387SOL     OW10196   4.546   1.002   3.234
 3387SOL    HW110197   4.586   1.001   3.142
 3387SOL    HW210198   4.556   1.094   3.274
 3388SOL     OW10199   4.640   0.910   2.153
 3388SOL    HW110200   4.703   0.948   2.085
 3388SOL    HW210201   4.680   0.827   2.192
 3389SOL     OW10202   4.096   1.288   3.352
 3389SOL    HW110203   4.083   1.381   3.318
 3389SOL    HW210204   4.012   1.236   3.339
 3390SOL     OW10205   4.763   1.098   2.558
 3390SOL    HW110206   4.693   1.051   2.612
 3390SOL    HW210207   4.822   1.030   2.515
 3391SOL     OW10208   4.738   0.236   2.833
 3391SOL    HW110209   4.730   0.200   2.740
 3391SOL    HW210210   4.736   0.160   2.898
 3392SOL     OW10211   4.314   1.487   2.353
 3392SOL    HW110212   4.356   1.429   2.283
 3392SOL    HW210213   4.270   1.566   2.309
 3393SOL     OW10214   3.979   1.348   2.152
 3393SOL    HW110215   3.883   1.349   2.125
 3393SOL    HW210216   3.991   1.401   2.236
 3394SOL     OW10217   3.829   1.013   3.588
 3394SOL    HW110218   3.752   0.980   3.642
 3394SOL    HW210219   3.914   0.983   3.630
 3395SOL     OW10220   4.396   0.203   3.351
 3395SOL    HW110221   4.486   0.187   3.311
 3395SOL    HW210222   4.404   0.208   3.450
 3396SOL     OW10223   3.799   0.345   1.895
 3396SOL    HW110224   3.707   0.317   1.866
 3396SOL    HW210225   3.830   0.422   1.839
 3397SOL     OW10226   3.796   0.166   2.180
 3397SOL    HW110227   3.779   0.249   2.126
 3397SOL    HW210228   3.886   0.129   2.158
 3398SOL     OW10229   4.337   0.842   3.293
 3398SOL    HW110230   4.393   0.923   3.276
 3398SOL    HW210231   4.396   0.762   3.296
 3399SOL     OW10232   4.440   0.565   3.570
 3399SOL    HW110233   4.459   0.630   3.644
 3399SOL    HW210234   4.500   0.485   3.579
 3400SOL     OW10235   4.114   1.741   3.422
 3400SOL    HW110236   4.023   1.782   3.420
 3400SOL    HW210237   4.107   1.647   3.454
 3401SOL     OW10238   4.318   0.745   2.514
 3401SOL    HW110239   4.368   0.830   2.495
 3401SOL    HW210240   4.230   0.747   2.466
 3402SOL     OW10241   4.583   1.374   1.878
 3402SOL    HW110242   4.537   1.389   1.966
 3402SOL    HW210243   4.627   1.459   1.848
 3403SOL     OW10244   4.385   1.790   2.815
 3403SOL    HW110245   4.339   1.878   2.802
 3403SOL    HW210246   4.484   1.802   2.808
 3404SOL     OW10247   4.583   0.956   2.723
 3404SOL    HW110248   4.637   0.887   2.771
 3404SOL    HW210249   4.551   1.025   2.789
 3405SOL     OW10250   4.807   0.984   1.949
 3405SOL    HW110251   4.784   1.037   1.867
 3405SOL    HW210252   4.888   0.928   1.930
 3406SOL     OW10253   3.945   1.314   3.706
 3406SOL    HW110254   3.880   1.241   3.685
 3406SOL    HW210255   3.949   1.328   3.804
 3407SOL     OW10256   3.803   1.240   2.515
 3407SOL    HW110257   3.802   1.193   2.603
 3407SOL    HW210258   3.885   1.212   2.464
 3408SOL     OW10259   4.396   1.391   3.486
 3408SOL    HW110260   4.318   1.341   3.524
 3408SOL    HW210261   4.393   1.486   3.517
 3409SOL     OW10262   4.152   0.424   2.382
 3409SOL    HW110263   4.182   0.352   2.320
 3409SOL    HW210264   4.113   0.384   2.465
 3410SOL     OW10265   4.041   0.547   3.142
 3410SOL    HW110266   4.079   0.488   3.214
 3410SOL    HW210267   4.081   0.521   3.054
 3411SOL     OW10268   4.536   1.586   2.549
 3411SOL    HW110269   4.568   1.596   2.455
 3411SOL    HW210270   4.457   1.524   2.551
 3412SOL     OW10271   4.725   0.034   3.016
 3412SOL    HW110272   4.662  -0.038   2.985
 3412SOL    HW210273   4.818  -0.002   3.016
 3413SOL     OW10274   4.494   1.330   2.163
 3413SOL    HW110275   4.448   1.243   2.180
 3413SOL    HW210276   4.585   1.327   2.204
 3414SOL     OW10277   4.342   1.567   3.146
 3414SOL    HW110278   4.337   1.649   3.203
 3414SOL    HW210279   4.431   1.564   3.101
 3415SOL     OW10280   3.763   1.077   2.162
 3415SOL    HW110281   3.862   1.066   2.153
 3415SOL    HW210282   3.723   0.991   2.194
 3416SOL     OW10283   4.599   1.646   2.199
 3416SOL    HW110284   4.522   1.611   2.145
 3416SOL    HW210285   4.567   1.717   2.261
 3417SOL     OW10286   3.954   0.628   3.837
 3417SOL    HW110287   3.861   0.626   3.874
 3417SOL    HW210288   3.955   0.589   3.745
 3418SOL     OW10289   3.949   0.275   4.720
 3418SOL    HW110290   3.984   0.258   4.812
 3418SOL    HW210291   3.861   0.230   4.708
 3419SOL     OW10292   3.743   0.368   4.371
 3419SOL    HW110293   3.661   0.411   4.410
 3419SOL    HW210294   3.715   0.295   4.308
 3420SOL     OW10295   4.293   1.275   4.889
 3420SOL    HW110296   4.200   1.268   4.852
 3420SOL    HW210297   4.304   1.364   4.933
 3421SOL     OW10298   4.859   0.703   4.441
 3421SOL    HW110299   4.916   0.781   4.416
 3421SOL    HW210300   4.799   0.729   4.517
 3422SOL     OW10301   4.492   1.144   4.747
 3422SOL    HW110302   4.414   1.161   4.807
 3422SOL    HW210303   4.526   1.231   4.711
 3423SOL     OW10304   4.409   1.012   4.389
 3423SOL    HW110305   4.478   0.996   4.459
 3423SOL    HW210306   4.336   1.069   4.427
 3424SOL     OW10307   4.059   1.435   4.785
 3424SOL    HW110308   3.981   1.404   4.732
 3424SOL    HW210309   4.117   1.493   4.728
 3425SOL     OW10310   3.955   1.713   4.207
 3425SOL    HW110311   3.989   1.790   4.261
 3425SOL    HW210312   3.999   1.713   4.117
 3426SOL     OW10313   3.954   1.434   4.262
 3426SOL    HW110314   3.928   1.530   4.262
 3426SOL    HW210315   3.883   1.380   4.307
 3427SOL     OW10316   3.964   1.091   4.610
 3427SOL    HW110317   3.978   1.007   4.662
 3427SOL    HW210318   3.909   1.155   4.665
 3428SOL     OW10319   4.344   1.786   5.163
 3428SOL    HW110320   4.252   1.769   5.198
 3428SOL    HW210321   4.372   1.878   5.189
 3429SOL     OW10322   4.330   0.964   3.847
 3429SOL    HW110323   4.337   1.048   3.793
 3429SOL    HW210324   4.376   0.977   3.935
 3430SOL     OW10325   3.846   0.643   4.287
 3430SOL    HW110326   3.801   0.555   4.304
 3430SOL    HW210327   3.845   0.697   4.371
 3431SOL     OW10328   3.751   1.596   3.841
 3431SOL    HW110329   3.732   1.500   3.862
 3431SOL    HW210330   3.718   1.654   3.916
 3432SOL     OW10331   4.337   1.365   4.450
 3432SOL    HW110332   4.288   1.278   4.459
 3432SOL    HW210333   4.314   1.408   4.363
 3433SOL     OW10334   4.533   0.004   4.226
 3433SOL    HW110335   4.573   0.095   4.217
 3433SOL    HW210336   4.433   0.012   4.232
 3434SOL     OW10337   3.921   0.976   4.988
 3434SOL    HW110338   4.010   0.931   4.974
 3434SOL    HW210339   3.848   0.911   4.969
 3435SOL     OW10340   4.322   0.729   3.994
 3435SOL    HW110341   4.346   0.798   3.926
 3435SOL    HW210342   4.244   0.762   4.048
 3436SOL     OW10343   5.005   0.345   4.668
 3436SOL    HW110344   4.919   0.295   4.655
 3436SOL    HW210345   5.067   0.291   4.724
 3437SOL     OW10346   4.715   0.410   4.966
 3437SOL    HW110347   4.638   0.444   5.020
 3437SOL    HW210348   4.681   0.359   4.887
 3438SOL     OW10349   4.765   0.701   4.153
 3438SOL    HW110350   4.791   0.697   4.249
 3438SOL    HW210351   4.680   0.650   4.139
 3439SOL     OW10352   3.800   0.811   4.513
 3439SOL    HW110353   3.899   0.799   4.522
 3439SOL    HW210354   3.776   0.906   4.534
 3440SOL     OW10355   4.589   0.348   3.919
 3440SOL    HW110356   4.648   0.411   3.870
 3440SOL    HW210357   4.608   0.254   3.890
 3441SOL     OW10358   4.274   0.196   4.609
 3441SOL    HW110359   4.269   0.191   4.709
 3441SOL    HW210360   4.276   0.292   4.580
 3442SOL     OW10361   4.732   1.456   4.201
 3442SOL    HW110362   4.686   1.528   4.149
 3442SOL    HW210363   4.728   1.476   4.299
 3443SOL     OW10364   4.075   1.801   4.577
 3443SOL    HW110365   4.125   1.715   4.583
 3443SOL    HW210366   4.140   1.878   4.574
 3444SOL     OW10367   4.045   0.943   3.966
 3444SOL    HW110368   4.127   0.982   3.924
 3444SOL    HW210369   4.018   0.861   3.917
 3445SOL     OW10370   4.835   1.776   3.961
 3445SOL    HW110371   4.775   1.714   4.011
 3445SOL    HW210372   4.866   1.732   3.876
 3446SOL     OW10373   4.188   1.743   4.047
 3446SOL    HW110374   4.221   1.782   4.133
 3446SOL    HW210375   4.264   1.736   3.982
 3447SOL     OW10376   3.973   1.785   4.965
 3447SOL    HW110377   4.030   1.720   5.015
 3447SOL    HW210378   3.957   1.752   4.872
 3448SOL     OW10379   4.664   1.698   4.628
 3448SOL    HW110380   4.744   1.641   4.649
 3448SOL    HW210381   4.615   1.658   4.551
 3449SOL     OW10382   4.106   0.700   4.204
 3449SOL    HW110383   4.151   0.610   4.201
 3449SOL    HW210384   4.012   0.689   4.237
 3450SOL     OW10385   4.338   0.122   3.841
 3450SOL    HW110386   4.436   0.100   3.848
 3450SOL    HW210387   4.307   0.105   3.748
 3451SOL     OW10388   4.527   1.402   4.648
 3451SOL    HW110389   4.617   1.416   4.606
 3451SOL    HW210390   4.456   1.404   4.577
 3452SOL     OW10391   4.646   0.503   4.623
 3452SOL    HW110392   4.621   0.494   4.527
 3452SOL    HW210393   4.694   0.421   4.654
 3453SOL     OW10394   4.263   0.064   4.236
 3453SOL    HW110395   4.182   0.065   4.294
 3453SOL    HW210396   4.266   0.147   4.181
 3454SOL     OW10397   4.021   0.035   3.895
 3454SOL    HW110398   4.070   0.119   3.874
 3454SOL    HW210399   4.083  -0.030   3.940
 3455SOL     OW10400   4.659   0.236   4.204
 3455SOL    HW110401   4.611   0.277   4.126
 3455SOL    HW210402   4.758   0.234   4.185
 3456SOL     OW10403   4.951   1.570   4.517
 3456SOL    HW110404   4.972   1.644   4.452
 3456SOL    HW210405   5.019   1.570   4.590
 3457SOL     OW10406   4.183   1.152   4.465
 3457SOL    HW110407   4.112   1.125   4.530
 3457SOL    HW210408   4.157   1.124   4.372
 3458SOL     OW10409   4.995   1.797   4.315
 3458SOL    HW110410   5.039   1.861   4.251
 3458SOL    HW210411   4.945   1.849   4.385
 3459SOL     OW10412   4.756   0.549   3.740
 3459SOL    HW110413   4.715   0.631   3.701
 3459SOL    HW210414   4.820   0.575   3.813
 3460SOL     OW10415   4.285   0.222   4.871
 3460SOL    HW110416   4.323   0.138   4.908
 3460SOL    HW210417   4.197   0.241   4.915
 3461SOL     OW10418   4.590   0.454   4.366
 3461SOL    HW110419   4.558   0.526   4.304
 3461SOL    HW210420   4.614   0.373   4.313
 3462SOL     OW10421   4.741   0.039   4.477
 3462SOL    HW110422   4.669   0.044   4.408
 3462SOL    HW210423   4.717  -0.030   4.546
 3463SOL     OW10424   4.212   1.385   3.898
 3463SOL    HW110425   4.125   1.370   3.945
 3463SOL    HW210426   4.195   1.411   3.803
 3464SOL     OW10427   4.251   0.256   4.052
 3464SOL    HW110428   4.278   0.197   3.977
 3464SOL    HW210429   4.251   0.351   4.021
 3465SOL     OW10430   4.835   1.195   4.824
 3465SOL    HW110431   4.795   1.239   4.905
 3465SOL    HW210432   4.794   1.232   4.741
 3466SOL     OW10433   4.429   1.050   4.092
 3466SOL    HW110434   4.415   1.057   4.191
 3466SOL    HW210435   4.513   0.999   4.074
 3467SOL     OW10436   4.134   0.813   4.975
 3467SOL    HW110437   4.220   0.825   5.025
 3467SOL    HW210438   4.092   0.726   5.002
 3468SOL     OW10439   4.091   1.100   4.225
 3468SOL    HW110440   4.084   1.183   4.169
 3468SOL    HW210441   4.095   1.020   4.165
 3469SOL     OW10442   4.290   0.537   4.589
 3469SOL    HW110443   4.302   0.603   4.515
 3469SOL    HW210444   4.336   0.571   4.672
 3470SOL     OW10445   4.976   1.348   4.112
 3470SOL    HW110446   5.026   1.425   4.152
 3470SOL    HW210447   4.881   1.350   4.144
 3471SOL     OW10448   4.078   1.510   5.053
 3471SOL    HW110449   4.057   1.466   4.966
 3471SOL    HW210450   4.175   1.536   5.056
 3472SOL     OW10451   4.297   0.870   4.753
 3472SOL    HW110452   4.341   0.959   4.744
 3472SOL    HW210453   4.234   0.870   4.830
 3473SOL     OW10454   5.084   0.862   4.769
 3473SOL    HW110455   5.009   0.862   4.703
 3473SOL    HW210456   5.121   0.770   4.778
 3474SOL     OW10457   4.933   0.525   3.999
 3474SOL    HW110458   4.946   0.441   4.053
 3474SOL    HW210459   4.904   0.599   4.059
 3475SOL     OW10460   4.031   0.213   4.955
 3475SOL    HW110461   4.008   0.250   5.045
 3475SOL    HW210462   4.001   0.118   4.949
 3476SOL     OW10463   3.761   1.310   5.006
 3476SOL    HW110464   3.814   1.261   5.074
 3476SOL    HW210465   3.783   1.408   5.011
 3477SOL     OW10466   4.456   0.634   4.788
 3477SOL    HW110467   4.515   0.608   4.712
 3477SOL    HW210468   4.428   0.730   4.777
 3478SOL     OW10469   4.031   0.063   4.342
 3478SOL    HW110470   4.020   0.157   4.375
 3478SOL    HW210471   4.026   0.000   4.419
 3479SOL     OW10472   5.346   0.367   4.098
 3479SOL    HW110473   5.348   0.291   4.162
 3479SOL    HW210474   5.298   0.444   4.138
 3480SOL     OW10475   4.747   0.766   4.690
 3480SOL    HW110476   4.762   0.787   4.786
 3480SOL    HW210477   4.717   0.671   4.681
 3481SOL     OW10478   4.792   1.333   4.573
 3481SOL    HW110479   4.799   1.249   4.518
 3481SOL    HW210480   4.854   1.402   4.537
 3482SOL     OW10481   4.043   0.810   4.673
 3482SOL    HW110482   4.136   0.846   4.678
 3482SOL    HW210483   4.037   0.725   4.725
 3483SOL     OW10484   4.063   0.509   4.730
 3483SOL    HW110485   4.011   0.426   4.713
 3483SOL    HW210486   4.140   0.514   4.666
 3484SOL     OW10487   4.884   0.207   5.201
 3484SOL    HW110488   4.884   0.271   5.278
 3484SOL    HW210489   4.912   0.255   5.118
 3485SOL     OW10490   3.732   1.326   3.924
 3485SOL    HW110491   3.639   1.347   3.893
 3485SOL    HW210492   3.742   1.227   3.937
 3486SOL     OW10493   3.812   1.801   4.651
 3486SOL    HW110494   3.770   1.715   4.624
 3486SOL    HW210495   3.906   1.804   4.617
 3487SOL     OW10496   4.228   1.568   4.634
 3487SOL    HW110497   4.294   1.642   4.643
 3487SOL    HW210498   4.272   1.489   4.592
 3488SOL     OW10499   4.726   0.796   4.962
 3488SOL    HW110500   4.767   0.764   5.048
 3488SOL    HW210501   4.630   0.769   4.959
 3489SOL     OW10502   3.764   0.544   4.838
 3489SOL    HW110503   3.849   0.511   4.797
 3489SOL    HW210504   3.777   0.559   4.936
 3490SOL     OW10505   4.539   0.572   4.049
 3490SOL    HW110506   4.546   0.483   4.003
 3490SOL    HW210507   4.445   0.606   4.041
 3491SOL     OW10508   4.395   0.464   4.993
 3491SOL    HW110509   4.361   0.375   4.963
 3491SOL    HW210510   4.421   0.518   4.913
 3492SOL     OW10511   4.654   1.678   5.189
 3492SOL    HW110512   4.630   1.660   5.094
 3492SOL    HW210513   4.684   1.772   5.199
 3493SOL     OW10514   4.197   0.500   3.915
 3493SOL    HW110515   4.258   0.580   3.919
 3493SOL    HW210516   4.102   0.531   3.922
 3494SOL     OW10517   5.071   1.059   4.958
 3494SOL    HW110518   5.095   0.996   4.884
 3494SOL    HW210519   4.981   1.099   4.940
 3495SOL     OW10520   4.976   1.731   4.852
 3495SOL    HW110521   5.060   1.736   4.798
 3495SOL    HW210522   4.953   1.635   4.870
 3496SOL     OW10523   3.807   1.258   4.746
 3496SOL    HW110524   3.802   1.257   4.846
 3496SOL    HW210525   3.724   1.217   4.708
 3497SOL     OW10526   5.112   1.573   4.201
 3497SOL    HW110527   5.179   1.585   4.127
 3497SOL    HW210528   5.072   1.662   4.224
 3498SOL     OW10529   4.396   1.616   3.878
 3498SOL    HW110530   4.405   1.626   3.779
 3498SOL    HW210531   4.356   1.527   3.899
 3499SOL     OW10532   3.987   0.326   4.444
 3499SOL    HW110533   3.908   0.377   4.410
 3499SOL    HW210534   3.978   0.311   4.542
 3500SOL     OW10535   4.918   1.612   3.755
 3500SOL    HW110536   4.924   1.519   3.792
 3500SOL    HW210537   4.859   1.612   3.675
 3501SOL     OW10538   4.546   1.002   5.096
 3501SOL    HW110539   4.586   1.001   5.004
 3501SOL    HW210540   4.556   1.094   5.136
 3502SOL     OW10541   4.640   0.910   4.015
 3502SOL    HW110542   4.703   0.948   3.947
 3502SOL    HW210543   4.680   0.827   4.054
 3503SOL     OW10544   5.338   1.292   5.013
 3503SOL    HW110545   5.398   1.295   5.093
 3503SOL    HW210546   5.263   1.356   5.026
 3504SOL     OW10547   4.763   1.098   4.420
 3504SOL    HW110548   4.693   1.051   4.474
 3504SOL    HW210549   4.822   1.030   4.377
 3505SOL     OW10550   4.738   0.236   4.695
 3505SOL    HW110551   4.730   0.200   4.602
 3505SOL    HW210552   4.736   0.160   4.760
 3506SOL     OW10553   4.314   1.487   4.215
 3506SOL    HW110554   4.356   1.429   4.145
 3506SOL    HW210555   4.270   1.566   4.171
 3507SOL     OW10556   3.979   1.348   4.014
 3507SOL    HW110557   3.883   1.349   3.987
 3507SOL    HW210558   3.991   1.401   4.098
 3508SOL     OW10559   3.799   0.345   3.757
 3508SOL    HW110560   3.707   0.317   3.728
 3508SOL    HW210561   3.830   0.422   3.701
 3509SOL     OW10562   3.796   0.166   4.042
 3509SOL    HW110563   3.779   0.249   3.988
 3509SOL    HW210564   3.886   0.129   4.020
 3510SOL     OW10565   4.318   0.745   4.376
 3510SOL    HW110566   4.368   0.830   4.357
 3510SOL    HW210567   4.230   0.747   4.328
 3511SOL     OW10568   4.583   1.374   3.740
 3511SOL    HW110569   4.537   1.389   3.828
 3511SOL    HW210570   4.627   1.459   3.710
 3512SOL     OW10571   4.385   1.790   4.677
 3512SOL    HW110572   4.339   1.878   4.664
 3512SOL    HW210573   4.484   1.802   4.670
 3513SOL     OW10574   4.583   0.956   4.585
 3513SOL    HW110575   4.637   0.887   4.633
 3513SOL    HW210576   4.551   1.025   4.651
 3514SOL     OW10577   4.807   0.984   3.811
 3514SOL    HW110578   4.784   1.037   3.729
 3514SOL    HW210579   4.888   0.928   3.792
 3515SOL     OW10580   3.803   1.240   4.377
 3515SOL    HW110581   3.802   1.193   4.465
 3515SOL    HW210582   3.885   1.212   4.326
 3516SOL     OW10583   4.152   0.424   4.244
 3516SOL    HW110584   4.182   0.352   4.182
 3516SOL    HW210585   4.113   0.384   4.327
 3517SOL     OW10586   4.536   1.586   4.411
 3517SOL    HW110587   4.568   1.596   4.317
 3517SOL    HW210588   4.457   1.524   4.413
 3518SOL     OW10589   4.725   0.034   4.878
 3518SOL    HW110590   4.662  -0.038   4.847
 3518SOL    HW210591   4.818  -0.002   4.878
 3519SOL     OW10592   4.494   1.330   4.025
 3519SOL    HW110593   4.448   1.243   4.042
 3519SOL    HW210594   4.585   1.327   4.066
 3520SOL     OW10595   3.763   1.077   4.024
 3520SOL    HW110596   3.862   1.066   4.015
 3520SOL    HW210597   3.723   0.991   4.056
 3521SOL     OW10598   4.599   1.646   4.061
 3521SOL    HW110599   4.522   1.611   4.007
 3521SOL    HW210600   4.567   1.717   4.123
 3522SOL     OW10601   3.954   2.490   0.113
 3522SOL    HW110602   3.861   2.488   0.150
 3522SOL    HW210603   3.955   2.451   0.021
 3523SOL     OW10604   3.949   2.137   0.996
 3523SOL    HW110605   3.984   2.120   1.088
 3523SOL    HW210606   3.861   2.092   0.984
 3524SOL     OW10607   3.743   2.230   0.647
 3524SOL    HW110608   3.661   2.273   0.686
 3524SOL    HW210609   3.715   2.157   0.584
 3525SOL     OW10610   4.293   3.137   1.165
 3525SOL    HW110611   4.200   3.130   1.128
 3525SOL    HW210612   4.304   3.226   1.209
 3526SOL     OW10613   4.859   2.565   0.717
 3526SOL    HW110614   4.916   2.643   0.692
 3526SOL    HW210615   4.799   2.591   0.793
 3527SOL     OW10616   4.492   3.006   1.023
 3527SOL    HW110617   4.414   3.023   1.083
 3527SOL    HW210618   4.526   3.093   0.987
 3528SOL     OW10619   4.574   2.660   1.823
 3528SOL    HW110620   4.570   2.736   1.888
 3528SOL    HW210621   4.596   2.696   1.732
 3529SOL     OW10622   4.409   2.874   0.665
 3529SOL    HW110623   4.478   2.858   0.735
 3529SOL    HW210624   4.336   2.931   0.703
 3530SOL     OW10625   4.410   3.023   1.803
 3530SOL    HW110626   4.470   3.102   1.817
 3530SOL    HW210627   4.324   3.054   1.762
 3531SOL     OW10628   4.059   3.297   1.061
 3531SOL    HW110629   3.981   3.266   1.008
 3531SOL    HW210630   4.117   3.355   1.004
 3532SOL     OW10631   4.162   2.254   1.499
 3532SOL    HW110632   4.244   2.198   1.508
 3532SOL    HW210633   4.081   2.196   1.503
 3533SOL     OW10634   3.955   3.575   0.483
 3533SOL    HW110635   3.989   3.652   0.537
 3533SOL    HW210636   3.999   3.575   0.393
 3534SOL     OW10637   4.851   3.203   1.690
 3534SOL    HW110638   4.898   3.203   1.778
 3534SOL    HW210639   4.803   3.116   1.679
 3535SOL     OW10640   3.954   3.296   0.538
 3535SOL    HW110641   3.928   3.392   0.538
 3535SOL    HW210642   3.883   3.242   0.583
 3536SOL     OW10643   3.964   2.953   0.886
 3536SOL    HW110644   3.978   2.869   0.938
 3536SOL    HW210645   3.909   3.017   0.941
 3537SOL     OW10646   4.344   3.648   1.439
 3537SOL    HW110647   4.252   3.631   1.474
 3537SOL    HW210648   4.372   3.740   1.465
 3538SOL     OW10649   4.330   2.826   0.123
 3538SOL    HW110650   4.337   2.910   0.069
 3538SOL    HW210651   4.376   2.839   0.211
 3539SOL     OW10652   3.846   2.505   0.563
 3539SOL    HW110653   3.801   2.417   0.580
 3539SOL    HW210654   3.845   2.559   0.647
 3540SOL     OW10655   3.751   3.458   0.117
 3540SOL    HW110656   3.732   3.362   0.138
 3540SOL    HW210657   3.718   3.516   0.192
 3541SOL     OW10658   3.837   2.599   1.597
 3541SOL    HW110659   3.925   2.586   1.642
 3541SOL    HW210660   3.824   2.696   1.575
 3542SOL     OW10661   4.337   3.227   0.726
 3542SOL    HW110662   4.288   3.140   0.735
 3542SOL    HW210663   4.314   3.270   0.639
 3543SOL     OW10664   5.017   3.090   1.423
 3543SOL    HW110665   5.054   3.017   1.365
 3543SOL    HW210666   5.069   3.095   1.508
 3544SOL     OW10667   4.533   1.866   0.502
 3544SOL    HW110668   4.573   1.957   0.493
 3544SOL    HW210669   4.433   1.874   0.508
 3545SOL     OW10670   3.921   2.838   1.264
 3545SOL    HW110671   4.010   2.793   1.250
 3545SOL    HW210672   3.848   2.773   1.245
 3546SOL     OW10673   4.911   3.654   1.616
 3546SOL    HW110674   4.935   3.714   1.540
 3546SOL    HW210675   4.918   3.559   1.586
 3547SOL     OW10676   4.041   2.113   1.801
 3547SOL    HW110677   4.112   2.184   1.807
 3547SOL    HW210678   3.953   2.152   1.829
 3548SOL     OW10679   4.322   2.591   0.270
 3548SOL    HW110680   4.346   2.660   0.202
 3548SOL    HW210681   4.244   2.624   0.324
 3549SOL     OW10682   5.005   2.207   0.944
 3549SOL    HW110683   4.919   2.157   0.931
 3549SOL    HW210684   5.067   2.153   1.000
 3550SOL     OW10685   4.531   2.467   1.465
 3550SOL    HW110686   4.484   2.464   1.554
 3550SOL    HW210687   4.480   2.412   1.399
 3551SOL     OW10688   4.697   2.752   1.572
 3551SOL    HW110689   4.743   2.668   1.543
 3551SOL    HW210690   4.641   2.786   1.497
 3552SOL     OW10691   4.715   2.272   1.242
 3552SOL    HW110692   4.638   2.306   1.296
 3552SOL    HW210693   4.681   2.221   1.163
 3553SOL     OW10694   4.765   2.563   0.429
 3553SOL    HW110695   4.791   2.559   0.525
 3553SOL    HW210696   4.680   2.512   0.415
 3554SOL     OW10697   3.800   2.673   0.789
 3554SOL    HW110698   3.899   2.661   0.798
 3554SOL    HW210699   3.776   2.768   0.810
 3555SOL     OW10700   3.854   3.683   1.571
 3555SOL    HW110701   3.844   3.668   1.670
 3555SOL    HW210702   3.768   3.719   1.535
 3556SOL     OW10703   4.589   2.210   0.195
 3556SOL    HW110704   4.648   2.273   0.146
 3556SOL    HW210705   4.608   2.116   0.166
 3557SOL     OW10706   4.274   2.058   0.885
 3557SOL    HW110707   4.269   2.053   0.985
 3557SOL    HW210708   4.276   2.154   0.856
 3558SOL     OW10709   4.732   3.318   0.477
 3558SOL    HW110710   4.686   3.390   0.425
 3558SOL    HW210711   4.728   3.338   0.575
 3559SOL     OW10712   4.075   3.663   0.853
 3559SOL    HW110713   4.125   3.577   0.859
 3559SOL    HW210714   4.140   3.740   0.850
 3560SOL     OW10715   4.951   3.412   1.506
 3560SOL    HW110716   4.957   3.335   1.570
 3560SOL    HW210717   4.899   3.386   1.426
 3561SOL     OW10718   4.045   2.805   0.242
 3561SOL    HW110719   4.127   2.844   0.200
 3561SOL    HW210720   4.018   2.723   0.193
 3562SOL     OW10721   4.185   3.128   1.727
 3562SOL    HW110722   4.135   3.129   1.641
 3562SOL    HW210723   4.122   3.110   1.803
 3563SOL     OW10724   4.835   3.638   0.237
 3563SOL    HW110725   4.775   3.576   0.287
 3563SOL    HW210726   4.866   3.594   0.152
 3564SOL     OW10727   3.926   2.147   1.498
 3564SOL    HW110728   3.846   2.207   1.485
 3564SOL    HW210729   3.916   2.098   1.584
 3565SOL     OW10730   4.188   3.605   0.323
 3565SOL    HW110731   4.221   3.644   0.409
 3565SOL    HW210732   4.264   3.598   0.258
 3566SOL     OW10733   3.973   3.647   1.241
 3566SOL    HW110734   4.030   3.582   1.291
 3566SOL    HW210735   3.957   3.614   1.148
 3567SOL     OW10736   4.664   3.560   0.904
 3567SOL    HW110737   4.744   3.503   0.925
 3567SOL    HW210738   4.615   3.520   0.827
 3568SOL     OW10739   4.106   2.562   0.480
 3568SOL    HW110740   4.151   2.472   0.477
 3568SOL    HW210741   4.012   2.551   0.513
 3569SOL     OW10742   4.505   2.126   1.749
 3569SOL    HW110743   4.572   2.065   1.792
 3569SOL    HW210744   4.432   2.145   1.814
 3570SOL     OW10745   4.612   3.376   1.195
 3570SOL    HW110746   4.589   3.351   1.101
 3570SOL    HW210747   4.673   3.307   1.234
 3571SOL     OW10748   4.527   3.264   0.924
 3571SOL    HW110749   4.617   3.278   0.882
 3571SOL    HW210750   4.456   3.266   0.853
 3572SOL     OW10751   4.646   2.365   0.899
 3572SOL    HW110752   4.621   2.356   0.803
 3572SOL    HW210753   4.694   2.283   0.930
 3573SOL     OW10754   4.263   1.926   0.512
 3573SOL    HW110755   4.182   1.927   0.570
 3573SOL    HW210756   4.266   2.009   0.457
 3574SOL     OW10757   4.021   1.897   0.171
 3574SOL    HW110758   4.070   1.981   0.150
 3574SOL    HW210759   4.083   1.832   0.216
 3575SOL     OW10760   4.659   2.098   0.480
 3575SOL    HW110761   4.611   2.139   0.402
 3575SOL    HW210762   4.758   2.096   0.461
 3576SOL     OW10763   4.800   2.545   1.464
 3576SOL    HW110764   4.720   2.484   1.467
 3576SOL    HW210765   4.881   2.492   1.440
 3577SOL     OW10766   4.951   3.432   0.793
 3577SOL    HW110767   4.972   3.506   0.728
 3577SOL    HW210768   5.019   3.432   0.866
 3578SOL     OW10769   4.183   3.014   0.741
 3578SOL    HW110770   4.112   2.987   0.806
 3578SOL    HW210771   4.157   2.986   0.648
 3579SOL     OW10772   4.995   3.659   0.591
 3579SOL    HW110773   5.039   3.723   0.527
 3579SOL    HW210774   4.945   3.711   0.661
 3580SOL     OW10775   4.756   2.411   0.016
 3580SOL    HW110776   4.715   2.493  -0.023
 3580SOL    HW210777   4.820   2.437   0.089
 3581SOL     OW10778   3.802   2.418   1.386
 3581SOL    HW110779   3.894   2.417   1.345
 3581SOL    HW210780   3.796   2.492   1.453
 3582SOL     OW10781   4.285   2.084   1.147
 3582SOL    HW110782   4.323   2.000   1.184
 3582SOL    HW210783   4.197   2.103   1.191
 3583SOL     OW10784   4.590   2.316   0.642
 3583SOL    HW110785   4.558   2.388   0.580
 3583SOL    HW210786   4.614   2.235   0.589
 3584SOL     OW10787   4.741   1.901   0.753
 3584SOL    HW110788   4.669   1.906   0.684
 3584SOL    HW210789   4.717   1.832   0.822
 3585SOL     OW10790   4.212   3.247   0.174
 3585SOL    HW110791   4.125   3.232   0.221
 3585SOL    HW210792   4.195   3.273   0.079
 3586SOL     OW10793   4.251   2.118   0.328
 3586SOL    HW110794   4.278   2.059   0.253
 3586SOL    HW210795   4.251   2.213   0.297
 3587SOL     OW10796   4.788   3.209   1.340
 3587SOL    HW110797   4.708   3.186   1.395
 3587SOL    HW210798   4.871   3.183   1.389
 3588SOL     OW10799   4.835   3.057   1.100
 3588SOL    HW110800   4.795   3.101   1.181
 3588SOL    HW210801   4.794   3.094   1.017
 3589SOL     OW10802   4.639   1.951   1.402
 3589SOL    HW110803   4.664   1.931   1.307
 3589SOL    HW210804   4.711   2.007   1.444
 3590SOL     OW10805   4.704   2.978   1.719
 3590SOL    HW110806   4.605   2.984   1.729
 3590SOL    HW210807   4.727   2.898   1.663
 3591SOL     OW10808   4.429   2.912   0.368
 3591SOL    HW110809   4.415   2.919   0.467
 3591SOL    HW210810   4.513   2.861   0.350
 3592SOL     OW10811   4.134   2.675   1.251
 3592SOL    HW110812   4.220   2.687   1.301
 3592SOL    HW210813   4.092   2.588   1.278
 3593SOL     OW10814   4.998   2.248   1.262
 3593SOL    HW110815   5.019   2.322   1.326
 3593SOL    HW210816   4.909   2.265   1.219
 3594SOL     OW10817   3.788   3.426   1.331
 3594SOL    HW110818   3.742   3.508   1.297
 3594SOL    HW210819   3.886   3.445   1.340
 3595SOL     OW10820   4.091   2.962   0.501
 3595SOL    HW110821   4.084   3.045   0.445
 3595SOL    HW210822   4.095   2.882   0.441
 3596SOL     OW10823   4.290   2.399   0.865
 3596SOL    HW110824   4.302   2.465   0.791
 3596SOL    HW210825   4.336   2.433   0.948
 3597SOL     OW10826   4.976   3.210   0.388
 3597SOL    HW110827   5.026   3.287   0.428
 3597SOL    HW210828   4.881   3.212   0.420
 3598SOL     OW10829   4.078   3.372   1.329
 3598SOL    HW110830   4.057   3.328   1.242
 3598SOL    HW210831   4.175   3.398   1.332
 3599SOL     OW10832   4.126   2.613   1.598
 3599SOL    HW110833   4.194   2.668   1.551
 3599SOL    HW210834   4.166   2.525   1.625
 3600SOL     OW10835   4.737   1.967   1.770
 3600SOL    HW110836   4.743   2.052   1.718
 3600SOL    HW210837   4.769   1.891   1.713
 3601SOL     OW10838   4.228   1.912   1.740
 3601SOL    HW110839   4.186   1.855   1.670
 3601SOL    HW210840   4.162   1.981   1.772
 3602SOL     OW10841   4.297   2.732   1.029
 3602SOL    HW110842   4.341   2.821   1.020
 3602SOL    HW210843   4.234   2.732   1.106
 3603SOL     OW10844   5.084   2.724   1.045
 3603SOL    HW110845   5.009   2.724   0.979
 3603SOL    HW210846   5.121   2.632   1.054
 3604SOL     OW10847   4.933   2.387   0.275
 3604SOL    HW110848   4.946   2.303   0.329
 3604SOL    HW210849   4.904   2.461   0.335
 3605SOL     OW10850   4.031   2.075   1.231
 3605SOL    HW110851   4.008   2.112   1.321
 3605SOL    HW210852   4.001   1.980   1.225
 3606SOL     OW10853   3.761   3.172   1.282
 3606SOL    HW110854   3.814   3.123   1.350
 3606SOL    HW210855   3.783   3.270   1.287
 3607SOL     OW10856   4.456   2.496   1.064
 3607SOL    HW110857   4.515   2.470   0.988
 3607SOL    HW210858   4.428   2.592   1.053
 3608SOL     OW10859   4.031   1.925   0.618
 3608SOL    HW110860   4.020   2.019   0.651
 3608SOL    HW210861   4.026   1.862   0.695
 3609SOL     OW10862   5.346   2.229   0.374
 3609SOL    HW110863   5.348   2.153   0.438
 3609SOL    HW210864   5.298   2.306   0.414
 3610SOL     OW10865   4.747   2.628   0.966
 3610SOL    HW110866   4.762   2.649   1.062
 3610SOL    HW210867   4.717   2.533   0.957
 3611SOL     OW10868   4.704   3.435   1.700
 3611SOL    HW110869   4.684   3.479   1.612
 3611SOL    HW210870   4.743   3.344   1.684
 3612SOL     OW10871   4.074   2.760   1.804
 3612SOL    HW110872   4.150   2.804   1.852
 3612SOL    HW210873   4.109   2.713   1.722
 3613SOL     OW10874   5.027   2.700   0.042
 3613SOL    HW110875   5.061   2.607   0.057
 3613SOL    HW210876   5.045   2.727  -0.053
 3614SOL     OW10877   4.792   3.195   0.849
 3614SOL    HW110878   4.799   3.111   0.794
 3614SOL    HW210879   4.854   3.264   0.813
 3615SOL     OW10880   4.043   2.672   0.949
 3615SOL    HW110881   4.136   2.708   0.954
 3615SOL    HW210882   4.037   2.587   1.001
 3616SOL     OW10883   4.063   2.371   1.006
 3616SOL    HW110884   4.011   2.288   0.989
 3616SOL    HW210885   4.140   2.376   0.942
 3617SOL     OW10886   4.862   2.242   1.678
 3617SOL    HW110887   4.817   2.305   1.742
 3617SOL    HW210888   4.955   2.273   1.661
 3618SOL     OW10889   4.884   2.069   1.477
 3618SOL    HW110890   4.884   2.133   1.554
 3618SOL    HW210891   4.912   2.117   1.394
 3619SOL     OW10892   3.812   3.663   0.927
 3619SOL    HW110893   3.770   3.577   0.900
 3619SOL    HW210894   3.906   3.666   0.893
 3620SOL     OW10895   4.228   3.430   0.910
 3620SOL    HW110896   4.294   3.504   0.919
 3620SOL    HW210897   4.272   3.351   0.868
 3621SOL     OW10898   4.726   2.658   1.238
 3621SOL    HW110899   4.767   2.626   1.324
 3621SOL    HW210900   4.630   2.631   1.235
 3622SOL     OW10901   3.764   2.406   1.114
 3622SOL    HW110902   3.849   2.373   1.073
 3622SOL    HW210903   3.777   2.421   1.212
 3623SOL     OW10904   3.913   2.382   1.722
 3623SOL    HW110905   3.972   2.342   1.652
 3623SOL    HW210906   3.855   2.453   1.681
 3624SOL     OW10907   4.539   2.434   0.325
 3624SOL    HW110908   4.546   2.345   0.279
 3624SOL    HW210909   4.445   2.468   0.317
 3625SOL     OW10910   3.976   3.426   1.744
 3625SOL    HW110911   3.946   3.483   1.820
 3625SOL    HW210912   3.969   3.329   1.770
 3626SOL     OW10913   4.395   2.326   1.269
 3626SOL    HW110914   4.361   2.237   1.239
 3626SOL    HW210915   4.421   2.380   1.189
 3627SOL     OW10916   4.654   3.540   1.465
 3627SOL    HW110917   4.630   3.522   1.370
 3627SOL    HW210918   4.684   3.634   1.475
 3628SOL     OW10919   4.197   2.362   0.191
 3628SOL    HW110920   4.258   2.442   0.195
 3628SOL    HW210921   4.102   2.393   0.198
 3629SOL     OW10922   3.883   2.999   1.466
 3629SOL    HW110923   3.905   2.938   1.542
 3629SOL    HW210924   3.893   2.950   1.380
 3630SOL     OW10925   5.071   2.921   1.234
 3630SOL    HW110926   5.095   2.858   1.160
 3630SOL    HW210927   4.981   2.961   1.216
 3631SOL     OW10928   4.976   3.593   1.128
 3631SOL    HW110929   5.060   3.598   1.074
 3631SOL    HW210930   4.953   3.497   1.146
 3632SOL     OW10931   3.807   3.120   1.022
 3632SOL    HW110932   3.802   3.119   1.122
 3632SOL    HW210933   3.724   3.079   0.984
 3633SOL     OW10934   4.412   3.524   1.716
 3633SOL    HW110935   4.356   3.605   1.725
 3633SOL    HW210936   4.464   3.528   1.630
 3634SOL     OW10937   4.627   1.948   0.133
 3634SOL    HW110938   4.678   1.949   0.047
 3634SOL    HW210939   4.683   1.906   0.204
 3635SOL     OW10940   5.112   3.435   0.477
 3635SOL    HW110941   5.179   3.447   0.403
 3635SOL    HW210942   5.072   3.524   0.500
 3636SOL     OW10943   3.854   3.656   1.851
 3636SOL    HW110944   3.813   3.582   1.904
 3636SOL    HW210945   3.918   3.707   1.909
 3637SOL     OW10946   4.554   3.135   1.422
 3637SOL    HW110947   4.549   3.168   1.517
 3637SOL    HW210948   4.468   3.154   1.376
 3638SOL     OW10949   4.396   3.478   0.154
 3638SOL    HW110950   4.405   3.488   0.055
 3638SOL    HW210951   4.356   3.389   0.175
 3639SOL     OW10952   3.987   2.188   0.720
 3639SOL    HW110953   3.908   2.239   0.686
 3639SOL    HW210954   3.978   2.173   0.818
 3640SOL     OW10955   4.918   3.474   0.031
 3640SOL    HW110956   4.924   3.381   0.068
 3640SOL    HW210957   4.859   3.474  -0.049
 3641SOL     OW10958   4.546   2.864   1.372
 3641SOL    HW110959   4.586   2.863   1.280
 3641SOL    HW210960   4.556   2.956   1.412
 3642SOL     OW10961   4.640   2.772   0.291
 3642SOL    HW110962   4.703   2.810   0.223
 3642SOL    HW210963   4.680   2.689   0.330
 3643SOL     OW10964   4.096   3.150   1.490
 3643SOL    HW110965   4.083   3.243   1.456
 3643SOL    HW210966   4.012   3.098   1.477
 3644SOL     OW10967   4.763   2.960   0.696
 3644SOL    HW110968   4.693   2.913   0.750
 3644SOL    HW210969   4.822   2.892   0.653
 3645SOL     OW10970   4.738   2.098   0.971
 3645SOL    HW110971   4.730   2.062   0.878
 3645SOL    HW210972   4.736   2.022   1.036
 3646SOL     OW10973   4.314   3.349   0.491
 3646SOL    HW110974   4.356   3.291   0.421
 3646SOL    HW210975   4.270   3.428   0.447
 3647SOL     OW10976   3.979   3.210   0.290
 3647SOL    HW110977   3.883   3.211   0.263
 3647SOL    HW210978   3.991   3.263   0.374
 3648SOL     OW10979   3.829   2.875   1.726
 3648SOL    HW110980   3.752   2.842   1.780
 3648SOL    HW210981   3.914   2.845   1.768
 3649SOL     OW10982   4.396   2.065   1.489
 3649SOL    HW110983   4.486   2.049   1.449
 3649SOL    HW210984   4.404   2.070   1.588
 3650SOL     OW10985   3.796   2.028   0.318
 3650SOL    HW110986   3.779   2.111   0.264
 3650SOL    HW210987   3.886   1.991   0.296
 3651SOL     OW10988   4.337   2.704   1.431
 3651SOL    HW110989   4.393   2.785   1.414
 3651SOL    HW210990   4.396   2.624   1.434
 3652SOL     OW10991   4.440   2.427   1.708
 3652SOL    HW110992   4.459   2.492   1.782
 3652SOL    HW210993   4.500   2.347   1.717
 3653SOL     OW10994   4.114   3.603   1.560
 3653SOL    HW110995   4.023   3.644   1.558
 3653SOL    HW210996   4.107   3.509   1.592
 3654SOL     OW10997   4.318   2.607   0.652
 3654SOL    HW110998   4.368   2.692   0.633
 3654SOL    HW210999   4.230   2.609   0.604
 3655SOL     OW11000   4.583   3.236   0.016
 3655SOL    HW111001   4.537   3.251   0.104
 3655SOL    HW211002   4.627   3.321  -0.014
 3656SOL     OW11003   4.385   3.652   0.953
 3656SOL    HW111004   4.339   3.740   0.940
 3656SOL    HW211005   4.484   3.664   0.946
 3657SOL     OW11006   4.583   2.818   0.861
 3657SOL    HW111007   4.637   2.749   0.909
 3657SOL    HW211008   4.551   2.887   0.927
 3658SOL     OW11009   4.807   2.846   0.087
 3658SOL    HW111010   4.784   2.899   0.005
 3658SOL    HW211011   4.888   2.790   0.068
 3659SOL     OW11012   3.945   3.176   1.844
 3659SOL    HW111013   3.880   3.103   1.823
 3659SOL    HW211014   3.949   3.190   1.942
 3660SOL     OW11015   3.803   3.102   0.653
 3660SOL    HW111016   3.802   3.055   0.741
 3660SOL    HW211017   3.885   3.074   0.602
 3661SOL     OW11018   4.396   3.253   1.624
 3661SOL    HW111019   4.318   3.203   1.662
 3661SOL    HW211020   4.393   3.348   1.655
 3662SOL     OW11021   4.152   2.286   0.520
 3662SOL    HW111022   4.182   2.214   0.458
 3662SOL    HW211023   4.113   2.246   0.603
 3663SOL     OW11024   4.041   2.409   1.280
 3663SOL    HW111025   4.079   2.350   1.352
 3663SOL    HW211026   4.081   2.383   1.192
 3664SOL     OW11027   4.536   3.448   0.687
 3664SOL    HW111028   4.568   3.458   0.593
 3664SOL    HW211029   4.457   3.386   0.689
 3665SOL     OW11030   4.725   1.896   1.154
 3665SOL    HW111031   4.662   1.824   1.123
 3665SOL    HW211032   4.818   1.860   1.154
 3666SOL     OW11033   4.494   3.192   0.301
 3666SOL    HW111034   4.448   3.105   0.318
 3666SOL    HW211035   4.585   3.189   0.342
 3667SOL     OW11036   4.342   3.429   1.284
 3667SOL    HW111037   4.337   3.511   1.341
 3667SOL    HW211038   4.431   3.426   1.239
 3668SOL     OW11039   3.763   2.939   0.300
 3668SOL    HW111040   3.862   2.928   0.291
 3668SOL    HW211041   3.723   2.853   0.332
 3669SOL     OW11042   4.599   3.508   0.337
 3669SOL    HW111043   4.522   3.473   0.283
 3669SOL    HW211044   4.567   3.579   0.399
 3670SOL     OW11045   3.954   2.490   1.975
 3670SOL    HW111046   3.861   2.488   2.012
 3670SOL    HW211047   3.955   2.451   1.883
 3671SOL     OW11048   3.949   2.137   2.858
 3671SOL    HW111049   3.984   2.120   2.950
 3671SOL    HW211050   3.861   2.092   2.846
 3672SOL     OW11051   3.743   2.230   2.509
 3672SOL    HW111052   3.661   2.273   2.548
 3672SOL    HW211053   3.715   2.157   2.446
 3673SOL     OW11054   4.293   3.137   3.027
 3673SOL    HW111055   4.200   3.130   2.990
 3673SOL    HW211056   4.304   3.226   3.071
 3674SOL     OW11057   4.859   2.565   2.579
 3674SOL    HW111058   4.916   2.643   2.554
 3674SOL    HW211059   4.799   2.591   2.655
 3675SOL     OW11060   4.492   3.006   2.885
 3675SOL    HW111061   4.414   3.023   2.945
 3675SOL    HW211062   4.526   3.093   2.849
 3676SOL     OW11063   4.574   2.660   3.685
 3676SOL    HW111064   4.570   2.736   3.750
 3676SOL    HW211065   4.596   2.696   3.594
 3677SOL     OW11066   4.409   2.874   2.527
 3677SOL    HW111067   4.478   2.858   2.597
 3677SOL    HW211068   4.336   2.931   2.565
 3678SOL     OW11069   4.410   3.023   3.665
 3678SOL    HW111070   4.470   3.102   3.679
 3678SOL    HW211071   4.324   3.054   3.624
 3679SOL     OW11072   4.059   3.297   2.923
 3679SOL    HW111073   3.981   3.266   2.870
 3679SOL    HW211074   4.117   3.355   2.866
 3680SOL     OW11075   4.162   2.254   3.361
 3680SOL    HW111076   4.244   2.198   3.370
 3680SOL    HW211077   4.081   2.196   3.365
 3681SOL     OW11078   3.955   3.575   2.345
 3681SOL    HW111079   3.989   3.652   2.399
 3681SOL    HW211080   3.999   3.575   2.255
 3682SOL     OW11081   4.851   3.203   3.552
 3682SOL    HW111082   4.898   3.203   3.640
 3682SOL    HW211083   4.803   3.116   3.541
 3683SOL     OW11084   3.954   3.296   2.400
 3683SOL    HW111085   3.928   3.392   2.400
 3683SOL    HW211086   3.883   3.242   2.445
 3684SOL     OW11087   3.964   2.953   2.748
 3684SOL    HW111088   3.978   2.869   2.800
 3684SOL    HW211089   3.909   3.017   2.803
 3685SOL     OW11090   4.344   3.648   3.301
 3685SOL    HW111091   4.252   3.631   3.336
 3685SOL    HW211092   4.372   3.740   3.327
 3686SOL     OW11093   4.330   2.826   1.985
 3686SOL    HW111094   4.337   2.910   1.931
 3686SOL    HW211095   4.376   2.839   2.073
 3687SOL     OW11096   3.846   2.505   2.425
 3687SOL    HW111097   3.801   2.417   2.442
 3687SOL    HW211098   3.845   2.559   2.509
 3688SOL     OW11099   3.751   3.458   1.979
 3688SOL    HW111100   3.732   3.362   2.000
 3688SOL    HW211101   3.718   3.516   2.054
 3689SOL     OW11102   3.837   2.599   3.459
 3689SOL    HW111103   3.925   2.586   3.504
 3689SOL    HW211104   3.824   2.696   3.437
 3690SOL     OW11105   4.337   3.227   2.588
 3690SOL    HW111106   4.288   3.140   2.597
 3690SOL    HW211107   4.314   3.270   2.501
 3691SOL     OW11108   5.017   3.090   3.285
 3691SOL    HW111109   5.054   3.017   3.227
 3691SOL    HW211110   5.069   3.095   3.370
 3692SOL     OW11111   4.533   1.866   2.364
 3692SOL    HW111112   4.573   1.957   2.355
 3692SOL    HW211113   4.433   1.874   2.370
 3693SOL     OW11114   3.921   2.838   3.126
 3693SOL    HW111115   4.010   2.793   3.112
 3693SOL    HW211116   3.848   2.773   3.107
 3694SOL     OW11117   4.911   3.654   3.478
 3694SOL    HW111118   4.935   3.714   3.402
 3694SOL    HW211119   4.918   3.559   3.448
 3695SOL     OW11120   4.041   2.113   3.663
 3695SOL    HW111121   4.112   2.184   3.669
 3695SOL    HW211122   3.953   2.152   3.691
 3696SOL     OW11123   4.322   2.591   2.132
 3696SOL    HW111124   4.346   2.660   2.064
 3696SOL    HW211125   4.244   2.624   2.186
 3697SOL     OW11126   5.005   2.207   2.806
 3697SOL    HW111127   4.919   2.157   2.793
 3697SOL    HW211128   5.067   2.153   2.862
 3698SOL     OW11129   4.531   2.467   3.327
 3698SOL    HW111130   4.484   2.464   3.416
 3698SOL    HW211131   4.480   2.412   3.261
 3699SOL     OW11132   4.697   2.752   3.434
 3699SOL    HW111133   4.743   2.668   3.405
 3699SOL    HW211134   4.641   2.786   3.359
 3700SOL     OW11135   4.715   2.272   3.104
 3700SOL    HW111136   4.638   2.306   3.158
 3700SOL    HW211137   4.681   2.221   3.025
 3701SOL     OW11138   4.765   2.563   2.291
 3701SOL    HW111139   4.791   2.559   2.387
 3701SOL    HW211140   4.680   2.512   2.277
 3702SOL     OW11141   3.800   2.673   2.651
 3702SOL    HW111142   3.899   2.661   2.660
 3702SOL    HW211143   3.776   2.768   2.672
 3703SOL     OW11144   3.854   3.683   3.433
 3703SOL    HW111145   3.844   3.668   3.532
 3703SOL    HW211146   3.768   3.719   3.397
 3704SOL     OW11147   4.589   2.210   2.057
 3704SOL    HW111148   4.648   2.273   2.008
 3704SOL    HW211149   4.608   2.116   2.028
 3705SOL     OW11150   4.274   2.058   2.747
 3705SOL    HW111151   4.269   2.053   2.847
 3705SOL    HW211152   4.276   2.154   2.718
 3706SOL     OW11153   4.732   3.318   2.339
 3706SOL    HW111154   4.686   3.390   2.287
 3706SOL    HW211155   4.728   3.338   2.437
 3707SOL     OW11156   4.075   3.663   2.715
 3707SOL    HW111157   4.125   3.577   2.721
 3707SOL    HW211158   4.140   3.740   2.712
 3708SOL     OW11159   4.951   3.412   3.368
 3708SOL    HW111160   4.957   3.335   3.432
 3708SOL    HW211161   4.899   3.386   3.288
 3709SOL     OW11162   4.045   2.805   2.104
 3709SOL    HW111163   4.127   2.844   2.062
 3709SOL    HW211164   4.018   2.723   2.055
 3710SOL     OW11165   4.185   3.128   3.589
 3710SOL    HW111166   4.135   3.129   3.503
 3710SOL    HW211167   4.122   3.110   3.665
 3711SOL     OW11168   4.835   3.638   2.099
 3711SOL    HW111169   4.775   3.576   2.149
 3711SOL    HW211170   4.866   3.594   2.014
 3712SOL     OW11171   3.926   2.147   3.360
 3712SOL    HW111172   3.846   2.207   3.347
 3712SOL    HW211173   3.916   2.098   3.446
 3713SOL     OW11174   4.188   3.605   2.185
 3713SOL    HW111175   4.221   3.644   2.271
 3713SOL    HW211176   4.264   3.598   2.120
 3714SOL     OW11177   3.973   3.647   3.103
 3714SOL    HW111178   4.030   3.582   3.153
 3714SOL    HW211179   3.957   3.614   3.010
 3715SOL     OW11180   4.664   3.560   2.766
 3715SOL    HW111181   4.744   3.503   2.787
 3715SOL    HW211182   4.615   3.520   2.689
 3716SOL     OW11183   4.106   2.562   2.342
 3716SOL    HW111184   4.151   2.472   2.339
 3716SOL    HW211185   4.012   2.551   2.375
 3717SOL     OW11186   4.338   1.984   1.979
 3717SOL    HW111187   4.436   1.962   1.986
 3717SOL    HW211188   4.307   1.967   1.886
 3718SOL     OW11189   4.505   2.126   3.611
 3718SOL    HW111190   4.572   2.065   3.654
 3718SOL    HW211191   4.432   2.145   3.676
 3719SOL     OW11192   4.612   3.376   3.057
 3719SOL    HW111193   4.589   3.351   2.963
 3719SOL    HW211194   4.673   3.307   3.096
 3720SOL     OW11195   4.527   3.264   2.786
 3720SOL    HW111196   4.617   3.278   2.744
 3720SOL    HW211197   4.456   3.266   2.715
 3721SOL     OW11198   4.646   2.365   2.761
 3721SOL    HW111199   4.621   2.356   2.665
 3721SOL    HW211200   4.694   2.283   2.792
 3722SOL     OW11201   4.263   1.926   2.374
 3722SOL    HW111202   4.182   1.927   2.432
 3722SOL    HW211203   4.266   2.009   2.319
 3723SOL     OW11204   4.021   1.897   2.033
 3723SOL    HW111205   4.070   1.981   2.012
 3723SOL    HW211206   4.083   1.832   2.078
 3724SOL     OW11207   4.659   2.098   2.342
 3724SOL    HW111208   4.611   2.139   2.264
 3724SOL    HW211209   4.758   2.096   2.323
 3725SOL     OW11210   4.800   2.545   3.326
 3725SOL    HW111211   4.720   2.484   3.329
 3725SOL    HW211212   4.881   2.492   3.302
 3726SOL     OW11213   4.951   3.432   2.655
 3726SOL    HW111214   4.972   3.506   2.590
 3726SOL    HW211215   5.019   3.432   2.728
 3727SOL     OW11216   4.183   3.014   2.603
 3727SOL    HW111217   4.112   2.987   2.668
 3727SOL    HW211218   4.157   2.986   2.510
 3728SOL     OW11219   4.995   3.659   2.453
 3728SOL    HW111220   5.039   3.723   2.389
 3728SOL    HW211221   4.945   3.711   2.523
 3729SOL     OW11222   4.756   2.411   1.878
 3729SOL    HW111223   4.715   2.493   1.839
 3729SOL    HW211224   4.820   2.437   1.951
 3730SOL     OW11225   3.802   2.418   3.248
 3730SOL    HW111226   3.894   2.417   3.207
 3730SOL    HW211227   3.796   2.492   3.315
 3731SOL     OW11228   4.285   2.084   3.009
 3731SOL    HW111229   4.323   2.000   3.046
 3731SOL    HW211230   4.197   2.103   3.053
 3732SOL     OW11231   4.590   2.316   2.504
 3732SOL    HW111232   4.558   2.388   2.442
 3732SOL    HW211233   4.614   2.235   2.451
 3733SOL     OW11234   4.741   1.901   2.615
 3733SOL    HW111235   4.669   1.906   2.546
 3733SOL    HW211236   4.717   1.832   2.684
 3734SOL     OW11237   4.212   3.247   2.036
 3734SOL    HW111238   4.125   3.232   2.083
 3734SOL    HW211239   4.195   3.273   1.941
 3735SOL     OW11240   4.251   2.118   2.190
 3735SOL    HW111241   4.278   2.059   2.115
 3735SOL    HW211242   4.251   2.213   2.159
 3736SOL     OW11243   4.788   3.209   3.202
 3736SOL    HW111244   4.708   3.186   3.257
 3736SOL    HW211245   4.871   3.183   3.251
 3737SOL     OW11246   4.835   3.057   2.962
 3737SOL    HW111247   4.795   3.101   3.043
 3737SOL    HW211248   4.794   3.094   2.879
 3738SOL     OW11249   4.639   1.951   3.264
 3738SOL    HW111250   4.664   1.931   3.169
 3738SOL    HW211251   4.711   2.007   3.306
 3739SOL     OW11252   4.704   2.978   3.581
 3739SOL    HW111253   4.605   2.984   3.591
 3739SOL    HW211254   4.727   2.898   3.525
 3740SOL     OW11255   4.429   2.912   2.230
 3740SOL    HW111256   4.415   2.919   2.329
 3740SOL    HW211257   4.513   2.861   2.212
 3741SOL     OW11258   4.134   2.675   3.113
 3741SOL    HW111259   4.220   2.687   3.163
 3741SOL    HW211260   4.092   2.588   3.140
 3742SOL     OW11261   4.998   2.248   3.124
 3742SOL    HW111262   5.019   2.322   3.188
 3742SOL    HW211263   4.909   2.265   3.081
 3743SOL     OW11264   3.788   3.426   3.193
 3743SOL    HW111265   3.742   3.508   3.159
 3743SOL    HW211266   3.886   3.445   3.202
 3744SOL     OW11267   4.091   2.962   2.363
 3744SOL    HW111268   4.084   3.045   2.307
 3744SOL    HW211269   4.095   2.882   2.303
 3745SOL     OW11270   4.290   2.399   2.727
 3745SOL    HW111271   4.302   2.465   2.653
 3745SOL    HW211272   4.336   2.433   2.810
 3746SOL     OW11273   4.976   3.210   2.250
 3746SOL    HW111274   5.026   3.287   2.290
 3746SOL    HW211275   4.881   3.212   2.282
 3747SOL     OW11276   4.078   3.372   3.191
 3747SOL    HW111277   4.057   3.328   3.104
 3747SOL    HW211278   4.175   3.398   3.194
 3748SOL     OW11279   4.126   2.613   3.460
 3748SOL    HW111280   4.194   2.668   3.413
 3748SOL    HW211281   4.166   2.525   3.487
 3749SOL     OW11282   4.737   1.967   3.632
 3749SOL    HW111283   4.743   2.052   3.580
 3749SOL    HW211284   4.769   1.891   3.575
 3750SOL     OW11285   4.228   1.912   3.602
 3750SOL    HW111286   4.186   1.855   3.532
 3750SOL    HW211287   4.162   1.981   3.634
 3751SOL     OW11288   4.297   2.732   2.891
 3751SOL    HW111289   4.341   2.821   2.882
 3751SOL    HW211290   4.234   2.732   2.968
 3752SOL     OW11291   5.084   2.724   2.907
 3752SOL    HW111292   5.009   2.724   2.841
 3752SOL    HW211293   5.121   2.632   2.916
 3753SOL     OW11294   4.933   2.387   2.137
 3753SOL    HW111295   4.946   2.303   2.191
 3753SOL    HW211296   4.904   2.461   2.197
 3754SOL     OW11297   4.031   2.075   3.093
 3754SOL    HW111298   4.008   2.112   3.183
 3754SOL    HW211299   4.001   1.980   3.087
 3755SOL     OW11300   3.761   3.172   3.144
 3755SOL    HW111301   3.814   3.123   3.212
 3755SOL    HW211302   3.783   3.270   3.149
 3756SOL     OW11303   4.456   2.496   2.926
 3756SOL    HW111304   4.515   2.470   2.850
 3756SOL    HW211305   4.428   2.592   2.915
 3757SOL     OW11306   4.031   1.925   2.480
 3757SOL    HW111307   4.020   2.019   2.513
 3757SOL    HW211308   4.026   1.862   2.557
 3758SOL     OW11309   5.346   2.229   2.236
 3758SOL    HW111310   5.348   2.153   2.300
 3758SOL    HW211311   5.298   2.306   2.276
 3759SOL     OW11312   4.747   2.628   2.828
 3759SOL    HW111313   4.762   2.649   2.924
 3759SOL    HW211314   4.717   2.533   2.819
 3760SOL     OW11315   4.704   3.435   3.562
 3760SOL    HW111316   4.684   3.479   3.474
 3760SOL    HW211317   4.743   3.344   3.546
 3761SOL     OW11318   4.074   2.760   3.666
 3761SOL    HW111319   4.150   2.804   3.714
 3761SOL    HW211320   4.109   2.713   3.584
 3762SOL     OW11321   4.792   3.195   2.711
 3762SOL    HW111322   4.799   3.111   2.656
 3762SOL    HW211323   4.854   3.264   2.675
 3763SOL     OW11324   4.043   2.672   2.811
 3763SOL    HW111325   4.136   2.708   2.816
 3763SOL    HW211326   4.037   2.587   2.863
 3764SOL     OW11327   4.063   2.371   2.868
 3764SOL    HW111328   4.011   2.288   2.851
 3764SOL    HW211329   4.140   2.376   2.804
 3765SOL     OW11330   4.862   2.242   3.540
 3765SOL    HW111331   4.817   2.305   3.604
 3765SOL    HW211332   4.955   2.273   3.523
 3766SOL     OW11333   4.884   2.069   3.339
 3766SOL    HW111334   4.884   2.133   3.416
 3766SOL    HW211335   4.912   2.117   3.256
 3767SOL     OW11336   3.732   3.188   2.062
 3767SOL    HW111337   3.639   3.209   2.031
 3767SOL    HW211338   3.742   3.089   2.075
 3768SOL     OW11339   3.812   3.663   2.789
 3768SOL    HW111340   3.770   3.577   2.762
 3768SOL    HW211341   3.906   3.666   2.755
 3769SOL     OW11342   4.228   3.430   2.772
 3769SOL    HW111343   4.294   3.504   2.781
 3769SOL    HW211344   4.272   3.351   2.730
 3770SOL     OW11345   4.726   2.658   3.100
 3770SOL    HW111346   4.767   2.626   3.186
 3770SOL    HW211347   4.630   2.631   3.097
 3771SOL     OW11348   3.764   2.406   2.976
 3771SOL    HW111349   3.849   2.373   2.935
 3771SOL    HW211350   3.777   2.421   3.074
 3772SOL     OW11351   3.913   2.382   3.584
 3772SOL    HW111352   3.972   2.342   3.514
 3772SOL    HW211353   3.855   2.453   3.543
 3773SOL     OW11354   4.539   2.434   2.187
 3773SOL    HW111355   4.546   2.345   2.141
 3773SOL    HW211356   4.445   2.468   2.179
 3774SOL     OW11357   3.976   3.426   3.606
 3774SOL    HW111358   3.946   3.483   3.682
 3774SOL    HW211359   3.969   3.329   3.632
 3775SOL     OW11360   4.395   2.326   3.131
 3775SOL    HW111361   4.361   2.237   3.101
 3775SOL    HW211362   4.421   2.380   3.051
 3776SOL     OW11363   4.654   3.540   3.327
 3776SOL    HW111364   4.630   3.522   3.232
 3776SOL    HW211365   4.684   3.634   3.337
 3777SOL     OW11366   4.197   2.362   2.053
 3777SOL    HW111367   4.258   2.442   2.057
 3777SOL    HW211368   4.102   2.393   2.060
 3778SOL     OW11369   3.883   2.999   3.328
 3778SOL    HW111370   3.905   2.938   3.404
 3778SOL    HW211371   3.893   2.950   3.242
 3779SOL     OW11372   5.071   2.921   3.096
 3779SOL    HW111373   5.095   2.858   3.022
 3779SOL    HW211374   4.981   2.961   3.078
 3780SOL     OW11375   4.976   3.593   2.990
 3780SOL    HW111376   5.060   3.598   2.936
 3780SOL    HW211377   4.953   3.497   3.008
 3781SOL     OW11378   3.807   3.120   2.884
 3781SOL    HW111379   3.802   3.119   2.984
 3781SOL    HW211380   3.724   3.079   2.846
 3782SOL     OW11381   4.412   3.524   3.578
 3782SOL    HW111382   4.356   3.605   3.587
 3782SOL    HW211383   4.464   3.528   3.492
 3783SOL     OW11384   5.112   3.435   2.339
 3783SOL    HW111385   5.179   3.447   2.265
 3783SOL    HW211386   5.072   3.524   2.362
 3784SOL     OW11387   3.854   3.656   3.713
 3784SOL    HW111388   3.813   3.582   3.766
 3784SOL    HW211389   3.918   3.707   3.771
 3785SOL     OW11390   4.554   3.135   3.284
 3785SOL    HW111391   4.549   3.168   3.379
 3785SOL    HW211392   4.468   3.154   3.238
 3786SOL     OW11393   4.396   3.478   2.016
 3786SOL    HW111394   4.405   3.488   1.917
 3786SOL    HW211395   4.356   3.389   2.037
 3787SOL     OW11396   3.987   2.188   2.582
 3787SOL    HW111397   3.908   2.239   2.548
 3787SOL    HW211398   3.978   2.173   2.680
 3788SOL     OW11399   4.918   3.474   1.893
 3788SOL    HW111400   4.924   3.381   1.930
 3788SOL    HW211401   4.859   3.474   1.813
 3789SOL     OW11402   4.546   2.864   3.234
 3789SOL    HW111403   4.586   2.863   3.142
 3789SOL    HW211404   4.556   2.956   3.274
 3790SOL     OW11405   4.640   2.772   2.153
 3790SOL    HW111406   4.703   2.810   2.085
 3790SOL    HW211407   4.680   2.689   2.192
 3791SOL     OW11408   4.096   3.150   3.352
 3791SOL    HW111409   4.083   3.243   3.318
 3791SOL    HW211410   4.012   3.098   3.339
 3792SOL     OW11411   4.763   2.960   2.558
 3792SOL    HW111412   4.693   2.913   2.612
 3792SOL    HW211413   4.822   2.892   2.515
 3793SOL     OW11414   4.738   2.098   2.833
 3793SOL    HW111415   4.730   2.062   2.740
 3793SOL    HW211416   4.736   2.022   2.898
 3794SOL     OW11417   4.314   3.349   2.353
 3794SOL    HW111418   4.356   3.291   2.283
 3794SOL    HW211419   4.270   3.428   2.309
 3795SOL     OW11420   3.979   3.210   2.152
 3795SOL    HW111421   3.883   3.211   2.125
 3795SOL    HW211422   3.991   3.263   2.236
 3796SOL     OW11423   3.829   2.875   3.588
 3796SOL    HW111424   3.752   2.842   3.642
 3796SOL    HW211425   3.914   2.845   3.630
 3797SOL     OW11426   4.396   2.065   3.351
 3797SOL    HW111427   4.486   2.049   3.311
 3797SOL    HW211428   4.404   2.070   3.450
 3798SOL     OW11429   3.799   2.207   1.895
 3798SOL    HW111430   3.707   2.179   1.866
 3798SOL    HW211431   3.830   2.284   1.839
 3799SOL     OW11432   3.796   2.028   2.180
 3799SOL    HW111433   3.779   2.111   2.126
 3799SOL    HW211434   3.886   1.991   2.158
 3800SOL     OW11435   4.337   2.704   3.293
 3800SOL    HW111436   4.393   2.785   3.276
 3800SOL    HW211437   4.396   2.624   3.296
 3801SOL     OW11438   4.440   2.427   3.570
 3801SOL    HW111439   4.459   2.492   3.644
 3801SOL    HW211440   4.500   2.347   3.579
 3802SOL     OW11441   4.114   3.603   3.422
 3802SOL    HW111442   4.023   3.644   3.420
 3802SOL    HW211443   4.107   3.509   3.454
 3803SOL     OW11444   4.318   2.607   2.514
 3803SOL    HW111445   4.368   2.692   2.495
 3803SOL    HW211446   4.230   2.609   2.466
 3804SOL     OW11447   4.583   3.236   1.878
 3804SOL    HW111448   4.537   3.251   1.966
 3804SOL    HW211449   4.627   3.321   1.848
 3805SOL     OW11450   4.385   3.652   2.815
 3805SOL    HW111451   4.339   3.740   2.802
 3805SOL    HW211452   4.484   3.664   2.808
 3806SOL     OW11453   4.583   2.818   2.723
 3806SOL    HW111454   4.637   2.749   2.771
 3806SOL    HW211455   4.551   2.887   2.789
 3807SOL     OW11456   4.807   2.846   1.949
 3807SOL    HW111457   4.784   2.899   1.867
 3807SOL    HW211458   4.888   2.790   1.930
 3808SOL     OW11459   3.945   3.176   3.706
 3808SOL    HW111460   3.880   3.103   3.685
 3808SOL    HW211461   3.949   3.190   3.804
 3809SOL     OW11462   3.803   3.102   2.515
 3809SOL    HW111463   3.802   3.055   2.603
 3809SOL    HW211464   3.885   3.074   2.464
 3810SOL     OW11465   4.396   3.253   3.486
 3810SOL    HW111466   4.318   3.203   3.524
 3810SOL    HW211467   4.393   3.348   3.517
 3811SOL     OW11468   4.152   2.286   2.382
 3811SOL    HW111469   4.182   2.214   2.320
 3811SOL    HW211470   4.113   2.246   2.465
 3812SOL     OW11471   4.041   2.409   3.142
 3812SOL    HW111472   4.079   2.350   3.214
 3812SOL    HW211473   4.081   2.383   3.054
 3813SOL     OW11474   4.536   3.448   2.549
 3813SOL    HW111475   4.568   3.458   2.455
 3813SOL    HW211476   4.457   3.386   2.551
 3814SOL     OW11477   4.725   1.896   3.016
 3814SOL    HW111478   4.662   1.824   2.985
 3814SOL    HW211479   4.818   1.860   3.016
 3815SOL     OW11480   4.494   3.192   2.163
 3815SOL    HW111481   4.448   3.105   2.180
 3815SOL    HW211482   4.585   3.189   2.204
 3816SOL     OW11483   4.342   3.429   3.146
 3816SOL    HW111484   4.337   3.511   3.203
 3816SOL    HW211485   4.431   3.426   3.101
 3817SOL     OW11486   5.076   1.914   2.030
 3817SOL    HW111487   5.111   1.873   1.946
 3817SOL    HW211488   4.986   1.876   2.050
 3818SOL     OW11489   3.763   2.939   2.162
 3818SOL    HW111490   3.862   2.928   2.153
 3818SOL    HW211491   3.723   2.853   2.194
 3819SOL     OW11492   4.599   3.508   2.199
 3819SOL    HW111493   4.522   3.473   2.145
 3819SOL    HW211494   4.567   3.579   2.261
 3820SOL     OW11495   3.954   2.490   3.837
 3820SOL    HW111496   3.861   2.488   3.874
 3820SOL    HW211497   3.955   2.451   3.745
 3821SOL     OW11498   3.949   2.137   4.720
 3821SOL    HW111499   3.984   2.120   4.812
 3821SOL    HW211500   3.861   2.092   4.708
 3822SOL     OW11501   3.743   2.230   4.371
 3822SOL    HW111502   3.661   2.273   4.410
 3822SOL    HW211503   3.715   2.157   4.308
 3823SOL     OW11504   4.293   3.137   4.889
 3823SOL    HW111505   4.200   3.130   4.852
 3823SOL    HW211506   4.304   3.226   4.933
 3824SOL     OW11507   4.859   2.565   4.441
 3824SOL    HW111508   4.916   2.643   4.416
 3824SOL    HW211509   4.799   2.591   4.517
 3825SOL     OW11510   4.492   3.006   4.747
 3825SOL    HW111511   4.414   3.023   4.807
 3825SOL    HW211512   4.526   3.093   4.711
 3826SOL     OW11513   4.409   2.874   4.389
 3826SOL    HW111514   4.478   2.858   4.459
 3826SOL    HW211515   4.336   2.931   4.427
 3827SOL     OW11516   4.059   3.297   4.785
 3827SOL    HW111517   3.981   3.266   4.732
 3827SOL    HW211518   4.117   3.355   4.728
 3828SOL     OW11519   3.955   3.575   4.207
 3828SOL    HW111520   3.989   3.652   4.261
 3828SOL    HW211521   3.999   3.575   4.117
 3829SOL     OW11522   3.954   3.296   4.262
 3829SOL    HW111523   3.928   3.392   4.262
 3829SOL    HW211524   3.883   3.242   4.307
 3830SOL     OW11525   3.964   2.953   4.610
 3830SOL    HW111526   3.978   2.869   4.662
 3830SOL    HW211527   3.909   3.017   4.665
 3831SOL     OW11528   4.344   3.648   5.163
 3831SOL    HW111529   4.252   3.631   5.198
 3831SOL    HW211530   4.372   3.740   5.189
 3832SOL     OW11531   4.330   2.826   3.847
 3832SOL    HW111532   4.337   2.910   3.793
 3832SOL    HW211533   4.376   2.839   3.935
 3833SOL     OW11534   3.846   2.505   4.287
 3833SOL    HW111535   3.801   2.417   4.304
 3833SOL    HW211536   3.845   2.559   4.371
 3834SOL     OW11537   3.751   3.458   3.841
 3834SOL    HW111538   3.732   3.362   3.862
 3834SOL    HW211539   3.718   3.516   3.916
 3835SOL     OW11540   4.337   3.227   4.450
 3835SOL    HW111541   4.288   3.140   4.459
 3835SOL    HW211542   4.314   3.270   4.363
 3836SOL     OW11543   4.533   1.866   4.226
 3836SOL    HW111544   4.573   1.957   4.217
 3836SOL    HW211545   4.433   1.874   4.232
 3837SOL     OW11546   3.921   2.838   4.988
 3837SOL    HW111547   4.010   2.793   4.974
 3837SOL    HW211548   3.848   2.773   4.969
 3838SOL     OW11549   4.322   2.591   3.994
 3838SOL    HW111550   4.346   2.660   3.926
 3838SOL    HW211551   4.244   2.624   4.048
 3839SOL     OW11552   5.005   2.207   4.668
 3839SOL    HW111553   4.919   2.157   4.655
 3839SOL    HW211554   5.067   2.153   4.724
 3840SOL     OW11555   4.715   2.272   4.966
 3840SOL    HW111556   4.638   2.306   5.020
 3840SOL    HW211557   4.681   2.221   4.887
 3841SOL     OW11558   4.765   2.563   4.153
 3841SOL    HW111559   4.791   2.559   4.249
 3841SOL    HW211560   4.680   2.512   4.139
 3842SOL     OW11561   3.800   2.673   4.513
 3842SOL    HW111562   3.899   2.661   4.522
 3842SOL    HW211563   3.776   2.768   4.534
 3843SOL     OW11564   4.589   2.210   3.919
 3843SOL    HW111565   4.648   2.273   3.870
 3843SOL    HW211566   4.608   2.116   3.890
 3844SOL     OW11567   4.274   2.058   4.609
 3844SOL    HW111568   4.269   2.053   4.709
 3844SOL    HW211569   4.276   2.154   4.580
 3845SOL     OW11570   4.732   3.318   4.201
 3845SOL    HW111571   4.686   3.390   4.149
 3845SOL    HW211572   4.728   3.338   4.299
 3846SOL     OW11573   4.075   3.663   4.577
 3846SOL    HW111574   4.125   3.577   4.583
 3846SOL    HW211575   4.140   3.740   4.574
 3847SOL     OW11576   4.045   2.805   3.966
 3847SOL    HW111577   4.127   2.844   3.924
 3847SOL    HW211578   4.018   2.723   3.917
 3848SOL     OW11579   4.835   3.638   3.961
 3848SOL    HW111580   4.775   3.576   4.011
 3848SOL    HW211581   4.866   3.594   3.876
 3849SOL     OW11582   4.188   3.605   4.047
 3849SOL    HW111583   4.221   3.644   4.133
 3849SOL    HW211584   4.264   3.598   3.982
 3850SOL     OW11585   3.973   3.647   4.965
 3850SOL    HW111586   4.030   3.582   5.015
 3850SOL    HW211587   3.957   3.614   4.872
 3851SOL     OW11588   4.664   3.560   4.628
 3851SOL    HW111589   4.744   3.503   4.649
 3851SOL    HW211590   4.615   3.520   4.551
 3852SOL     OW11591   4.106   2.562   4.204
 3852SOL    HW111592   4.151   2.472   4.201
 3852SOL    HW211593   4.012   2.551   4.237
 3853SOL     OW11594   4.338   1.984   3.841
 3853SOL    HW111595   4.436   1.962   3.848
 3853SOL    HW211596   4.307   1.967   3.748
 3854SOL     OW11597   4.527   3.264   4.648
 3854SOL    HW111598   4.617   3.278   4.606
 3854SOL    HW211599   4.456   3.266   4.577
 3855SOL     OW11600   4.646   2.365   4.623
 3855SOL    HW111601   4.621   2.356   4.527
 3855SOL    HW211602   4.694   2.283   4.654
 3856SOL     OW11603   4.263   1.926   4.236
 3856SOL    HW111604   4.182   1.927   4.294
 3856SOL    HW211605   4.266   2.009   4.181
 3857SOL     OW11606   4.021   1.897   3.895
 3857SOL    HW111607   4.070   1.981   3.874
 3857SOL    HW211608   4.083   1.832   3.940
 3858SOL     OW11609   4.659   2.098   4.204
 3858SOL    HW111610   4.611   2.139   4.126
 3858SOL    HW211611   4.758   2.096   4.185
 3859SOL     OW11612   4.951   3.432   4.517
 3859SOL    HW111613   4.972   3.506   4.452
 3859SOL    HW211614   5.019   3.432   4.590
 3860SOL     OW11615   4.183   3.014   4.465
 3860SOL    HW111616   4.112   2.987   4.530
 3860SOL    HW211617   4.157   2.986   4.372
 3861SOL     OW11618   4.995   3.659   4.315
 3861SOL    HW111619   5.039   3.723   4.251
 3861SOL    HW211620   4.945   3.711   4.385
 3862SOL     OW11621   4.756   2.411   3.740
 3862SOL    HW111622   4.715   2.493   3.701
 3862SOL    HW211623   4.820   2.437   3.813
 3863SOL     OW11624   4.285   2.084   4.871
 3863SOL    HW111625   4.323   2.000   4.908
 3863SOL    HW211626   4.197   2.103   4.915
 3864SOL     OW11627   4.590   2.316   4.366
 3864SOL    HW111628   4.558   2.388   4.304
 3864SOL    HW211629   4.614   2.235   4.313
 3865SOL     OW11630   4.741   1.901   4.477
 3865SOL    HW111631   4.669   1.906   4.408
 3865SOL    HW211632   4.717   1.832   4.546
 3866SOL     OW11633   4.212   3.247   3.898
 3866SOL    HW111634   4.125   3.232   3.945
 3866SOL    HW211635   4.195   3.273   3.803
 3867SOL     OW11636   4.251   2.118   4.052
 3867SOL    HW111637   4.278   2.059   3.977
 3867SOL    HW211638   4.251   2.213   4.021
 3868SOL     OW11639   4.835   3.057   4.824
 3868SOL    HW111640   4.795   3.101   4.905
 3868SOL    HW211641   4.794   3.094   4.741
 3869SOL     OW11642   4.429   2.912   4.092
 3869SOL    HW111643   4.415   2.919   4.191
 3869SOL    HW211644   4.513   2.861   4.074
 3870SOL     OW11645   4.134   2.675   4.975
 3870SOL    HW111646   4.220   2.687   5.025
 3870SOL    HW211647   4.092   2.588   5.002
 3871SOL     OW11648   4.091   2.962   4.225
 3871SOL    HW111649   4.084   3.045   4.169
 3871SOL    HW211650   4.095   2.882   4.165
 3872SOL     OW11651   4.290   2.399   4.589
 3872SOL    HW111652   4.302   2.465   4.515
 3872SOL    HW211653   4.336   2.433   4.672
 3873SOL     OW11654   4.976   3.210   4.112
 3873SOL    HW111655   5.026   3.287   4.152
 3873SOL    HW211656   4.881   3.212   4.144
 3874SOL     OW11657   4.078   3.372   5.053
 3874SOL    HW111658   4.057   3.328   4.966
 3874SOL    HW211659   4.175   3.398   5.056
 3875SOL     OW11660   4.297   2.732   4.753
 3875SOL    HW111661   4.341   2.821   4.744
 3875SOL    HW211662   4.234   2.732   4.830
 3876SOL     OW11663   5.084   2.724   4.769
 3876SOL    HW111664   5.009   2.724   4.703
 3876SOL    HW211665   5.121   2.632   4.778
 3877SOL     OW11666   4.933   2.387   3.999
 3877SOL    HW111667   4.946   2.303   4.053
 3877SOL    HW211668   4.904   2.461   4.059
 3878SOL     OW11669   4.031   2.075   4.955
 3878SOL    HW111670   4.008   2.112   5.045
 3878SOL    HW211671   4.001   1.980   4.949
 3879SOL     OW11672   3.761   3.172   5.006
 3879SOL    HW111673   3.814   3.123   5.074
 3879SOL    HW211674   3.783   3.270   5.011
 3880SOL     OW11675   4.456   2.496   4.788
 3880SOL    HW111676   4.515   2.470   4.712
 3880SOL    HW211677   4.428   2.592   4.777
 3881SOL     OW11678   4.031   1.925   4.342
 3881SOL    HW111679   4.020   2.019   4.375
 3881SOL    HW211680   4.026   1.862   4.419
 3882SOL     OW11681   5.346   2.229   4.098
 3882SOL    HW111682   5.348   2.153   4.162
 3882SOL    HW211683   5.298   2.306   4.138
 3883SOL     OW11684   4.747   2.628   4.690
 3883SOL    HW111685   4.762   2.649   4.786
 3883SOL    HW211686   4.717   2.533   4.681
 3884SOL     OW11687   4.792   3.195   4.573
 3884SOL    HW111688   4.799   3.111   4.518
 3884SOL    HW211689   4.854   3.264   4.537
 3885SOL     OW11690   4.043   2.672   4.673
 3885SOL    HW111691   4.136   2.708   4.678
 3885SOL    HW211692   4.037   2.587   4.725
 3886SOL     OW11693   4.063   2.371   4.730
 3886SOL    HW111694   4.011   2.288   4.713
 3886SOL    HW211695   4.140   2.376   4.666
 3887SOL     OW11696   4.884   2.069   5.201
 3887SOL    HW111697   4.884   2.133   5.278
 3887SOL    HW211698   4.912   2.117   5.118
 3888SOL     OW11699   3.732   3.188   3.924
 3888SOL    HW111700   3.639   3.209   3.893
 3888SOL    HW211701   3.742   3.089   3.937
 3889SOL     OW11702   3.812   3.663   4.651
 3889SOL    HW111703   3.770   3.577   4.624
 3889SOL    HW211704   3.906   3.666   4.617
 3890SOL     OW11705   4.228   3.430   4.634
 3890SOL    HW111706   4.294   3.504   4.643
 3890SOL    HW211707   4.272   3.351   4.592
 3891SOL     OW11708   4.726   2.658   4.962
 3891SOL    HW111709   4.767   2.626   5.048
 3891SOL    HW211710   4.630   2.631   4.959
 3892SOL     OW11711   3.764   2.406   4.838
 3892SOL    HW111712   3.849   2.373   4.797
 3892SOL    HW211713   3.777   2.421   4.936
 3893SOL     OW11714   4.539   2.434   4.049
 3893SOL    HW111715   4.546   2.345   4.003
 3893SOL    HW211716   4.445   2.468   4.041
 3894SOL     OW11717   4.395   2.326   4.993
 3894SOL    HW111718   4.361   2.237   4.963
 3894SOL    HW211719   4.421   2.380   4.913
 3895SOL     OW11720   4.654   3.540   5.189
 3895SOL    HW111721   4.630   3.522   5.094
 3895SOL    HW211722   4.684   3.634   5.199
 3896SOL     OW11723   4.197   2.362   3.915
 3896SOL    HW111724   4.258   2.442   3.919
 3896SOL    HW211725   4.102   2.393   3.922
 3897SOL     OW11726   5.071   2.921   4.958
 3897SOL    HW111727   5.095   2.858   4.884
 3897SOL    HW211728   4.981   2.961   4.940
 3898SOL     OW11729   4.976   3.593   4.852
 3898SOL    HW111730   5.060   3.598   4.798
 3898SOL    HW211731   4.953   3.497   4.870
 3899SOL     OW11732   3.807   3.120   4.746
 3899SOL    HW111733   3.802   3.119   4.846
 3899SOL    HW211734   3.724   3.079   4.708
 3900SOL     OW11735   5.112   3.435   4.201
 3900SOL    HW111736   5.179   3.447   4.127
 3900SOL    HW211737   5.072   3.524   4.224
 3901SOL     OW11738   4.396   3.478   3.878
 3901SOL    HW111739   4.405   3.488   3.779
 3901SOL    HW211740   4.356   3.389   3.899
 3902SOL     OW11741   3.987   2.188   4.444
 3902SOL    HW111742   3.908   2.239   4.410
 3902SOL    HW211743   3.978   2.173   4.542
 3903SOL     OW11744   4.918   3.474   3.755
 3903SOL    HW111745   4.924   3.381   3.792
 3903SOL    HW211746   4.859   3.474   3.675
 3904SOL     OW11747   4.546   2.864   5.096
 3904SOL    HW111748   4.586   2.863   5.004
 3904SOL    HW211749   4.556   2.956   5.136
 3905SOL     OW11750   4.640   2.772   4.015
 3905SOL    HW111751   4.703   2.810   3.947
 3905SOL    HW211752   4.680   2.689   4.054
 3906SOL     OW11753   5.338   3.154   5.013
 3906SOL    HW111754   5.398   3.157   5.093
 3906SOL    HW211755   5.263   3.218   5.026
 3907SOL     OW11756   4.763   2.960   4.420
 3907SOL    HW111757   4.693   2.913   4.474
 3907SOL    HW211758   4.822   2.892   4.377
 3908SOL     OW11759   4.738   2.098   4.695
 3908SOL    HW111760   4.730   2.062   4.602
 3908SOL    HW211761   4.736   2.022   4.760
 3909SOL     OW11762   4.314   3.349   4.215
 3909SOL    HW111763   4.356   3.291   4.145
 3909SOL    HW211764   4.270   3.428   4.171
 3910SOL     OW11765   3.979   3.210   4.014
 3910SOL    HW111766   3.883   3.211   3.987
 3910SOL    HW211767   3.991   3.263   4.098
 3911SOL     OW11768   3.799   2.207   3.757
 3911SOL    HW111769   3.707   2.179   3.728
 3911SOL    HW211770   3.830   2.284   3.701
 3912SOL     OW11771   3.796   2.028   4.042
 3912SOL    HW111772   3.779   2.111   3.988
 3912SOL    HW211773   3.886   1.991   4.020
 3913SOL     OW11774   4.318   2.607   4.376
 3913SOL    HW111775   4.368   2.692   4.357
 3913SOL    HW211776   4.230   2.609   4.328
 3914SOL     OW11777   4.583   3.236   3.740
 3914SOL    HW111778   4.537   3.251   3.828
 3914SOL    HW211779   4.627   3.321   3.710
 3915SOL     OW11780   4.385   3.652   4.677
 3915SOL    HW111781   4.339   3.740   4.664
 3915SOL    HW211782   4.484   3.664   4.670
 3916SOL     OW11783   4.583   2.818   4.585
 3916SOL    HW111784   4.637   2.749   4.633
 3916SOL    HW211785   4.551   2.887   4.651
 3917SOL     OW11786   4.807   2.846   3.811
 3917SOL    HW111787   4.784   2.899   3.729
 3917SOL    HW211788   4.888   2.790   3.792
 3918SOL     OW11789   3.803   3.102   4.377
 3918SOL    HW111790   3.802   3.055   4.465
 3918SOL    HW211791   3.885   3.074   4.326
 3919SOL     OW11792   4.152   2.286   4.244
 3919SOL    HW111793   4.182   2.214   4.182
 3919SOL    HW211794   4.113   2.246   4.327
 3920SOL     OW11795   4.536   3.448   4.411
 3920SOL    HW111796   4.568   3.458   4.317
 3920SOL    HW211797   4.457   3.386   4.413
 3921SOL     OW11798   4.725   1.896   4.878
 3921SOL    HW111799   4.662   1.824   4.847
 3921SOL    HW211800   4.818   1.860   4.878
 3922SOL     OW11801   4.494   3.192   4.025
 3922SOL    HW111802   4.448   3.105   4.042
 3922SOL    HW211803   4.585   3.189   4.066
 3923SOL     OW11804   5.076   1.914   3.892
 3923SOL    HW111805   5.111   1.873   3.808
 3923SOL    HW211806   4.986   1.876   3.912
 3924SOL     OW11807   3.763   2.939   4.024
 3924SOL    HW111808   3.862   2.928   4.015
 3924SOL    HW211809   3.723   2.853   4.056
 3925SOL     OW11810   4.599   3.508   4.061
 3925SOL    HW111811   4.522   3.473   4.007
 3925SOL    HW211812   4.567   3.579   4.123
 3926SOL     OW11813   3.954   4.352   0.113
 3926SOL    HW111814   3.861   4.350   0.150
 3926SOL    HW211815   3.955   4.313   0.021
 3927SOL     OW11816   3.949   3.999   0.996
 3927SOL    HW111817   3.984   3.982   1.088
 3927SOL    HW211818   3.861   3.954   0.984
 3928SOL     OW11819   3.743   4.092   0.647
 3928SOL    HW111820   3.661   4.135   0.686
 3928SOL    HW211821   3.715   4.019   0.584
 3929SOL     OW11822   4.859   4.427   0.717
 3929SOL    HW111823   4.916   4.505   0.692
 3929SOL    HW211824   4.799   4.453   0.793
 3930SOL     OW11825   4.492   4.868   1.023
 3930SOL    HW111826   4.414   4.885   1.083
 3930SOL    HW211827   4.526   4.955   0.987
 3931SOL     OW11828   4.574   4.522   1.823
 3931SOL    HW111829   4.570   4.598   1.888
 3931SOL    HW211830   4.596   4.558   1.732
 3932SOL     OW11831   4.409   4.736   0.665
 3932SOL    HW111832   4.478   4.720   0.735
 3932SOL    HW211833   4.336   4.793   0.703
 3933SOL     OW11834   4.410   4.885   1.803
 3933SOL    HW111835   4.470   4.964   1.817
 3933SOL    HW211836   4.324   4.916   1.762
 3934SOL     OW11837   4.059   5.159   1.061
 3934SOL    HW111838   3.981   5.128   1.008
 3934SOL    HW211839   4.117   5.217   1.004
 3935SOL     OW11840   4.162   4.116   1.499
 3935SOL    HW111841   4.244   4.060   1.508
 3935SOL    HW211842   4.081   4.058   1.503
 3936SOL     OW11843   3.964   4.815   0.886
 3936SOL    HW111844   3.978   4.731   0.938
 3936SOL    HW211845   3.909   4.879   0.941
 3937SOL     OW11846   4.330   4.688   0.123
 3937SOL    HW111847   4.337   4.772   0.069
 3937SOL    HW211848   4.376   4.701   0.211
 3938SOL     OW11849   3.846   4.367   0.563
 3938SOL    HW111850   3.801   4.279   0.580
 3938SOL    HW211851   3.845   4.421   0.647
 3939SOL     OW11852   3.837   4.461   1.597
 3939SOL    HW111853   3.925   4.448   1.642
 3939SOL    HW211854   3.824   4.558   1.575
 3940SOL     OW11855   5.017   4.952   1.423
 3940SOL    HW111856   5.054   4.879   1.365
 3940SOL    HW211857   5.069   4.957   1.508
 3941SOL     OW11858   4.533   3.728   0.502
 3941SOL    HW111859   4.573   3.819   0.493
 3941SOL    HW211860   4.433   3.736   0.508
 3942SOL     OW11861   3.921   4.700   1.264
 3942SOL    HW111862   4.010   4.655   1.250
 3942SOL    HW211863   3.848   4.635   1.245
 3943SOL     OW11864   4.041   3.975   1.801
 3943SOL    HW111865   4.112   4.046   1.807
 3943SOL    HW211866   3.953   4.014   1.829
 3944SOL     OW11867   4.322   4.453   0.270
 3944SOL    HW111868   4.346   4.522   0.202
 3944SOL    HW211869   4.244   4.486   0.324
 3945SOL     OW11870   5.005   4.069   0.944
 3945SOL    HW111871   4.919   4.019   0.931
 3945SOL    HW211872   5.067   4.015   1.000
 3946SOL     OW11873   4.531   4.329   1.465
 3946SOL    HW111874   4.484   4.326   1.554
 3946SOL    HW211875   4.480   4.274   1.399
 3947SOL     OW11876   4.697   4.614   1.572
 3947SOL    HW111877   4.743   4.530   1.543
 3947SOL    HW211878   4.641   4.648   1.497
 3948SOL     OW11879   4.715   4.134   1.242
 3948SOL    HW111880   4.638   4.168   1.296
 3948SOL    HW211881   4.681   4.083   1.163
 3949SOL     OW11882   4.765   4.425   0.429
 3949SOL    HW111883   4.791   4.421   0.525
 3949SOL    HW211884   4.680   4.374   0.415
 3950SOL     OW11885   3.800   4.535   0.789
 3950SOL    HW111886   3.899   4.523   0.798
 3950SOL    HW211887   3.776   4.630   0.810
 3951SOL     OW11888   4.589   4.072   0.195
 3951SOL    HW111889   4.648   4.135   0.146
 3951SOL    HW211890   4.608   3.978   0.166
 3952SOL     OW11891   4.274   3.920   0.885
 3952SOL    HW111892   4.269   3.915   0.985
 3952SOL    HW211893   4.276   4.016   0.856
 3953SOL     OW11894   4.045   4.667   0.242
 3953SOL    HW111895   4.127   4.706   0.200
 3953SOL    HW211896   4.018   4.585   0.193
 3954SOL     OW11897   3.926   4.009   1.498
 3954SOL    HW111898   3.846   4.069   1.485
 3954SOL    HW211899   3.916   3.960   1.584
 3955SOL     OW11900   4.106   4.424   0.480
 3955SOL    HW111901   4.151   4.334   0.477
 3955SOL    HW211902   4.012   4.413   0.513
 3956SOL     OW11903   4.505   3.988   1.749
 3956SOL    HW111904   4.572   3.927   1.792
 3956SOL    HW211905   4.432   4.007   1.814
 3957SOL     OW11906   4.527   5.126   0.924
 3957SOL    HW111907   4.617   5.140   0.882
 3957SOL    HW211908   4.456   5.128   0.853
 3958SOL     OW11909   4.646   4.227   0.899
 3958SOL    HW111910   4.621   4.218   0.803
 3958SOL    HW211911   4.694   4.145   0.930
 3959SOL     OW11912   4.263   3.788   0.512
 3959SOL    HW111913   4.182   3.789   0.570
 3959SOL    HW211914   4.266   3.871   0.457
 3960SOL     OW11915   4.021   3.759   0.171
 3960SOL    HW111916   4.070   3.843   0.150
 3960SOL    HW211917   4.083   3.694   0.216
 3961SOL     OW11918   4.659   3.960   0.480
 3961SOL    HW111919   4.611   4.001   0.402
 3961SOL    HW211920   4.758   3.958   0.461
 3962SOL     OW11921   4.800   4.407   1.464
 3962SOL    HW111922   4.720   4.346   1.467
 3962SOL    HW211923   4.881   4.354   1.440
 3963SOL     OW11924   4.183   4.876   0.741
 3963SOL    HW111925   4.112   4.849   0.806
 3963SOL    HW211926   4.157   4.848   0.648
 3964SOL     OW11927   4.756   4.273   0.016
 3964SOL    HW111928   4.715   4.355  -0.023
 3964SOL    HW211929   4.820   4.299   0.089
 3965SOL     OW11930   3.802   4.280   1.386
 3965SOL    HW111931   3.894   4.279   1.345
 3965SOL    HW211932   3.796   4.354   1.453
 3966SOL     OW11933   4.285   3.946   1.147
 3966SOL    HW111934   4.323   3.862   1.184
 3966SOL    HW211935   4.197   3.965   1.191
 3967SOL     OW11936   4.590   4.178   0.642
 3967SOL    HW111937   4.558   4.250   0.580
 3967SOL    HW211938   4.614   4.097   0.589
 3968SOL     OW11939   4.741   3.763   0.753
 3968SOL    HW111940   4.669   3.768   0.684
 3968SOL    HW211941   4.717   3.694   0.822
 3969SOL     OW11942   4.251   3.980   0.328
 3969SOL    HW111943   4.278   3.921   0.253
 3969SOL    HW211944   4.251   4.075   0.297
 3970SOL     OW11945   4.639   3.813   1.402
 3970SOL    HW111946   4.664   3.793   1.307
 3970SOL    HW211947   4.711   3.869   1.444
 3971SOL     OW11948   4.704   4.840   1.719
 3971SOL    HW111949   4.605   4.846   1.729
 3971SOL    HW211950   4.727   4.760   1.663
 3972SOL     OW11951   4.429   4.774   0.368
 3972SOL    HW111952   4.415   4.781   0.467
 3972SOL    HW211953   4.513   4.723   0.350
 3973SOL     OW11954   4.134   4.537   1.251
 3973SOL    HW111955   4.220   4.549   1.301
 3973SOL    HW211956   4.092   4.450   1.278
 3974SOL     OW11957   4.998   4.110   1.262
 3974SOL    HW111958   5.019   4.184   1.326
 3974SOL    HW211959   4.909   4.127   1.219
 3975SOL     OW11960   4.091   4.824   0.501
 3975SOL    HW111961   4.084   4.907   0.445
 3975SOL    HW211962   4.095   4.744   0.441
 3976SOL     OW11963   4.290   4.261   0.865
 3976SOL    HW111964   4.302   4.327   0.791
 3976SOL    HW211965   4.336   4.295   0.948
 3977SOL     OW11966   4.976   5.072   0.388
 3977SOL    HW111967   5.026   5.149   0.428
 3977SOL    HW211968   4.881   5.074   0.420
 3978SOL     OW11969   4.126   4.475   1.598
 3978SOL    HW111970   4.194   4.530   1.551
 3978SOL    HW211971   4.166   4.387   1.625
 3979SOL     OW11972   4.737   3.829   1.770
 3979SOL    HW111973   4.743   3.914   1.718
 3979SOL    HW211974   4.769   3.753   1.713
 3980SOL     OW11975   4.228   3.774   1.740
 3980SOL    HW111976   4.186   3.717   1.670
 3980SOL    HW211977   4.162   3.843   1.772
 3981SOL     OW11978   4.297   4.594   1.029
 3981SOL    HW111979   4.341   4.683   1.020
 3981SOL    HW211980   4.234   4.594   1.106
 3982SOL     OW11981   5.084   4.586   1.045
 3982SOL    HW111982   5.009   4.586   0.979
 3982SOL    HW211983   5.121   4.494   1.054
 3983SOL     OW11984   4.933   4.249   0.275
 3983SOL    HW111985   4.946   4.165   0.329
 3983SOL    HW211986   4.904   4.323   0.335
 3984SOL     OW11987   4.031   3.937   1.231
 3984SOL    HW111988   4.008   3.974   1.321
 3984SOL    HW211989   4.001   3.842   1.225
 3985SOL     OW11990   4.456   4.358   1.064
 3985SOL    HW111991   4.515   4.332   0.988
 3985SOL    HW211992   4.428   4.454   1.053
 3986SOL     OW11993   4.031   3.787   0.618
 3986SOL    HW111994   4.020   3.881   0.651
 3986SOL    HW211995   4.026   3.724   0.695
 3987SOL     OW11996   5.346   4.091   0.374
 3987SOL    HW111997   5.348   4.015   0.438
 3987SOL    HW211998   5.298   4.168   0.414
 3988SOL     OW11999   4.747   4.490   0.966
 3988SOL    HW112000   4.762   4.511   1.062
 3988SOL    HW212001   4.717   4.395   0.957
 3989SOL     OW12002   4.074   4.622   1.804
 3989SOL    HW112003   4.150   4.666   1.852
 3989SOL    HW212004   4.109   4.575   1.722
 3990SOL     OW12005   5.027   4.562   0.042
 3990SOL    HW112006   5.061   4.469   0.057
 3990SOL    HW212007   5.045   4.589  -0.053
 3991SOL     OW12008   4.043   4.534   0.949
 3991SOL    HW112009   4.136   4.570   0.954
 3991SOL    HW212010   4.037   4.449   1.001
 3992SOL     OW12011   4.063   4.233   1.006
 3992SOL    HW112012   4.011   4.150   0.989
 3992SOL    HW212013   4.140   4.238   0.942
 3993SOL     OW12014   4.862   4.104   1.678
 3993SOL    HW112015   4.817   4.167   1.742
 3993SOL    HW212016   4.955   4.135   1.661
 3994SOL     OW12017   4.884   3.931   1.477
 3994SOL    HW112018   4.884   3.995   1.554
 3994SOL    HW212019   4.912   3.979   1.394
 3995SOL     OW12020   4.726   4.520   1.238
 3995SOL    HW112021   4.767   4.488   1.324
 3995SOL    HW212022   4.630   4.493   1.235
 3996SOL     OW12023   3.764   4.268   1.114
 3996SOL    HW112024   3.849   4.235   1.073
 3996SOL    HW212025   3.777   4.283   1.212
 3997SOL     OW12026   3.913   4.244   1.722
 3997SOL    HW112027   3.972   4.204   1.652
 3997SOL    HW212028   3.855   4.315   1.681
 3998SOL     OW12029   4.539   4.296   0.325
 3998SOL    HW112030   4.546   4.207   0.279
 3998SOL    HW212031   4.445   4.330   0.317
 3999SOL     OW12032   4.395   4.188   1.269
 3999SOL    HW112033   4.361   4.099   1.239
 3999SOL    HW212034   4.421   4.242   1.189
 4000SOL     OW12035   4.197   4.224   0.191
 4000SOL    HW112036   4.258   4.304   0.195
 4000SOL    HW212037   4.102   4.255   0.198
 4001SOL     OW12038   3.883   4.861   1.466
 4001SOL    HW112039   3.905   4.800   1.542
 4001SOL    HW212040   3.893   4.812   1.380
 4002SOL     OW12041   5.071   4.783   1.234
 4002SOL    HW112042   5.095   4.720   1.160
 4002SOL    HW212043   4.981   4.823   1.216
 4003SOL     OW12044   3.807   4.982   1.022
 4003SOL    HW112045   3.802   4.981   1.122
 4003SOL    HW212046   3.724   4.941   0.984
 4004SOL     OW12047   4.627   3.810   0.133
 4004SOL    HW112048   4.678   3.811   0.047
 4004SOL    HW212049   4.683   3.768   0.204
 4005SOL     OW12050   4.554   4.997   1.422
 4005SOL    HW112051   4.549   5.030   1.517
 4005SOL    HW212052   4.468   5.016   1.376
 4006SOL     OW12053   3.987   4.050   0.720
 4006SOL    HW112054   3.908   4.101   0.686
 4006SOL    HW212055   3.978   4.035   0.818
 4007SOL     OW12056   4.546   4.726   1.372
 4007SOL    HW112057   4.586   4.725   1.280
 4007SOL    HW212058   4.556   4.818   1.412
 4008SOL     OW12059   4.640   4.634   0.291
 4008SOL    HW112060   4.703   4.672   0.223
 4008SOL    HW212061   4.680   4.551   0.330
 4009SOL     OW12062   4.096   5.012   1.490
 4009SOL    HW112063   4.083   5.105   1.456
 4009SOL    HW212064   4.012   4.960   1.477
 4010SOL     OW12065   4.763   4.822   0.696
 4010SOL    HW112066   4.693   4.775   0.750
 4010SOL    HW212067   4.822   4.754   0.653
 4011SOL     OW12068   4.738   3.960   0.971
 4011SOL    HW112069   4.730   3.924   0.878
 4011SOL    HW212070   4.736   3.884   1.036
 4012SOL     OW12071   3.829   4.737   1.726
 4012SOL    HW112072   3.752   4.704   1.780
 4012SOL    HW212073   3.914   4.707   1.768
 4013SOL     OW12074   4.396   3.927   1.489
 4013SOL    HW112075   4.486   3.911   1.449
 4013SOL    HW212076   4.404   3.932   1.588
 4014SOL     OW12077   3.796   3.890   0.318
 4014SOL    HW112078   3.779   3.973   0.264
 4014SOL    HW212079   3.886   3.853   0.296
 4015SOL     OW12080   4.337   4.566   1.431
 4015SOL    HW112081   4.393   4.647   1.414
 4015SOL    HW212082   4.396   4.486   1.434
 4016SOL     OW12083   4.440   4.289   1.708
 4016SOL    HW112084   4.459   4.354   1.782
 4016SOL    HW212085   4.500   4.209   1.717
 4017SOL     OW12086   5.174   4.944   1.633
 4017SOL    HW112087   5.165   4.934   1.732
 4017SOL    HW212088   5.270   4.937   1.607
 4018SOL     OW12089   4.318   4.469   0.652
 4018SOL    HW112090   4.368   4.554   0.633
 4018SOL    HW212091   4.230   4.471   0.604
 4019SOL     OW12092   4.583   4.680   0.861
 4019SOL    HW112093   4.637   4.611   0.909
 4019SOL    HW212094   4.551   4.749   0.927
 4020SOL     OW12095   4.807   4.708   0.087
 4020SOL    HW112096   4.784   4.761   0.005
 4020SOL    HW212097   4.888   4.652   0.068
 4021SOL     OW12098   3.803   4.964   0.653
 4021SOL    HW112099   3.802   4.917   0.741
 4021SOL    HW212100   3.885   4.936   0.602
 4022SOL     OW12101   4.152   4.148   0.520
 4022SOL    HW112102   4.182   4.076   0.458
 4022SOL    HW212103   4.113   4.108   0.603
 4023SOL     OW12104   4.041   4.271   1.280
 4023SOL    HW112105   4.079   4.212   1.352
 4023SOL    HW212106   4.081   4.245   1.192
 4024SOL     OW12107   4.725   3.758   1.154
 4024SOL    HW112108   4.662   3.686   1.123
 4024SOL    HW212109   4.818   3.722   1.154
 4025SOL     OW12110   4.494   5.054   0.301
 4025SOL    HW112111   4.448   4.967   0.318
 4025SOL    HW212112   4.585   5.051   0.342
 4026SOL     OW12113   3.763   4.801   0.300
 4026SOL    HW112114   3.862   4.790   0.291
 4026SOL    HW212115   3.723   4.715   0.332
 4027SOL     OW12116   3.954   4.352   1.975
 4027SOL    HW112117   3.861   4.350   2.012
 4027SOL    HW212118   3.955   4.313   1.883
 4028SOL     OW12119   3.949   3.999   2.858
 4028SOL    HW112120   3.984   3.982   2.950
 4028SOL    HW212121   3.861   3.954   2.846
 4029SOL     OW12122   3.743   4.092   2.509
 4029SOL    HW112123   3.661   4.135   2.548
 4029SOL    HW212124   3.715   4.019   2.446
 4030SOL     OW12125   4.859   4.427   2.579
 4030SOL    HW112126   4.916   4.505   2.554
 4030SOL    HW212127   4.799   4.453   2.655
 4031SOL     OW12128   4.492   4.868   2.885
 4031SOL    HW112129   4.414   4.885   2.945
 4031SOL    HW212130   4.526   4.955   2.849
 4032SOL     OW12131   4.574   4.522   3.685
 4032SOL    HW112132   4.570   4.598   3.750
 4032SOL    HW212133   4.596   4.558   3.594
 4033SOL     OW12134   4.409   4.736   2.527
 4033SOL    HW112135   4.478   4.720   2.597
 4033SOL    HW212136   4.336   4.793   2.565
 4034SOL     OW12137   4.410   4.885   3.665
 4034SOL    HW112138   4.470   4.964   3.679
 4034SOL    HW212139   4.324   4.916   3.624
 4035SOL     OW12140   4.059   5.159   2.923
 4035SOL    HW112141   3.981   5.128   2.870
 4035SOL    HW212142   4.117   5.217   2.866
 4036SOL     OW12143   4.162   4.116   3.361
 4036SOL    HW112144   4.244   4.060   3.370
 4036SOL    HW212145   4.081   4.058   3.365
 4037SOL     OW12146   3.964   4.815   2.748
 4037SOL    HW112147   3.978   4.731   2.800
 4037SOL    HW212148   3.909   4.879   2.803
 4038SOL     OW12149   4.330   4.688   1.985
 4038SOL    HW112150   4.337   4.772   1.931
 4038SOL    HW212151   4.376   4.701   2.073
 4039SOL     OW12152   3.846   4.367   2.425
 4039SOL    HW112153   3.801   4.279   2.442
 4039SOL    HW212154   3.845   4.421   2.509
 4040SOL     OW12155   3.837   4.461   3.459
 4040SOL    HW112156   3.925   4.448   3.504
 4040SOL    HW212157   3.824   4.558   3.437
 4041SOL     OW12158   5.017   4.952   3.285
 4041SOL    HW112159   5.054   4.879   3.227
 4041SOL    HW212160   5.069   4.957   3.370
 4042SOL     OW12161   4.533   3.728   2.364
 4042SOL    HW112162   4.573   3.819   2.355
 4042SOL    HW212163   4.433   3.736   2.370
 4043SOL     OW12164   3.921   4.700   3.126
 4043SOL    HW112165   4.010   4.655   3.112
 4043SOL    HW212166   3.848   4.635   3.107
 4044SOL     OW12167   4.041   3.975   3.663
 4044SOL    HW112168   4.112   4.046   3.669
 4044SOL    HW212169   3.953   4.014   3.691
 4045SOL     OW12170   4.322   4.453   2.132
 4045SOL    HW112171   4.346   4.522   2.064
 4045SOL    HW212172   4.244   4.486   2.186
 4046SOL     OW12173   5.005   4.069   2.806
 4046SOL    HW112174   4.919   4.019   2.793
 4046SOL    HW212175   5.067   4.015   2.862
 4047SOL     OW12176   4.531   4.329   3.327
 4047SOL    HW112177   4.484   4.326   3.416
 4047SOL    HW212178   4.480   4.274   3.261
 4048SOL     OW12179   4.697   4.614   3.434
 4048SOL    HW112180   4.743   4.530   3.405
 4048SOL    HW212181   4.641   4.648   3.359
 4049SOL     OW12182   4.715   4.134   3.104
 4049SOL    HW112183   4.638   4.168   3.158
 4049SOL    HW212184   4.681   4.083   3.025
 4050SOL     OW12185   4.765   4.425   2.291
 4050SOL    HW112186   4.791   4.421   2.387
 4050SOL    HW212187   4.680   4.374   2.277
 4051SOL     OW12188   3.800   4.535   2.651
 4051SOL    HW112189   3.899   4.523   2.660
 4051SOL    HW212190   3.776   4.630   2.672
 4052SOL     OW12191   4.589   4.072   2.057
 4052SOL    HW112192   4.648   4.135   2.008
 4052SOL    HW212193   4.608   3.978   2.028
 4053SOL     OW12194   4.274   3.920   2.747
 4053SOL    HW112195   4.269   3.915   2.847
 4053SOL    HW212196   4.276   4.016   2.718
 4054SOL     OW12197   4.045   4.667   2.104
 4054SOL    HW112198   4.127   4.706   2.062
 4054SOL    HW212199   4.018   4.585   2.055
 4055SOL     OW12200   3.926   4.009   3.360
 4055SOL    HW112201   3.846   4.069   3.347
 4055SOL    HW212202   3.916   3.960   3.446
 4056SOL     OW12203   4.106   4.424   2.342
 4056SOL    HW112204   4.151   4.334   2.339
 4056SOL    HW212205   4.012   4.413   2.375
 4057SOL     OW12206   4.338   3.846   1.979
 4057SOL    HW112207   4.436   3.824   1.986
 4057SOL    HW212208   4.307   3.829   1.886
 4058SOL     OW12209   4.505   3.988   3.611
 4058SOL    HW112210   4.572   3.927   3.654
 4058SOL    HW212211   4.432   4.007   3.676
 4059SOL     OW12212   4.527   5.126   2.786
 4059SOL    HW112213   4.617   5.140   2.744
 4059SOL    HW212214   4.456   5.128   2.715
 4060SOL     OW12215   4.646   4.227   2.761
 4060SOL    HW112216   4.621   4.218   2.665
 4060SOL    HW212217   4.694   4.145   2.792
 4061SOL     OW12218   4.263   3.788   2.374
 4061SOL    HW112219   4.182   3.789   2.432
 4061SOL    HW212220   4.266   3.871   2.319
 4062SOL     OW12221   5.158   4.912   1.903
 4062SOL    HW112222   5.190   4.836   1.960
 4062SOL    HW212223   5.066   4.939   1.933
 4063SOL     OW12224   4.021   3.759   2.033
 4063SOL    HW112225   4.070   3.843   2.012
 4063SOL    HW212226   4.083   3.694   2.078
 4064SOL     OW12227   4.659   3.960   2.342
 4064SOL    HW112228   4.611   4.001   2.264
 4064SOL    HW212229   4.758   3.958   2.323
 4065SOL     OW12230   4.800   4.407   3.326
 4065SOL    HW112231   4.720   4.346   3.329
 4065SOL    HW212232   4.881   4.354   3.302
 4066SOL     OW12233   4.183   4.876   2.603
 4066SOL    HW112234   4.112   4.849   2.668
 4066SOL    HW212235   4.157   4.848   2.510
 4067SOL     OW12236   4.756   4.273   1.878
 4067SOL    HW112237   4.715   4.355   1.839
 4067SOL    HW212238   4.820   4.299   1.951
 4068SOL     OW12239   3.802   4.280   3.248
 4068SOL    HW112240   3.894   4.279   3.207
 4068SOL    HW212241   3.796   4.354   3.315
 4069SOL     OW12242   4.285   3.946   3.009
 4069SOL    HW112243   4.323   3.862   3.046
 4069SOL    HW212244   4.197   3.965   3.053
 4070SOL     OW12245   4.590   4.178   2.504
 4070SOL    HW112246   4.558   4.250   2.442
 4070SOL    HW212247   4.614   4.097   2.451
 4071SOL     OW12248   4.741   3.763   2.615
 4071SOL    HW112249   4.669   3.768   2.546
 4071SOL    HW212250   4.717   3.694   2.684
 4072SOL     OW12251   4.251   3.980   2.190
 4072SOL    HW112252   4.278   3.921   2.115
 4072SOL    HW212253   4.251   4.075   2.159
 4073SOL     OW12254   4.639   3.813   3.264
 4073SOL    HW112255   4.664   3.793   3.169
 4073SOL    HW212256   4.711   3.869   3.306
 4074SOL     OW12257   4.704   4.840   3.581
 4074SOL    HW112258   4.605   4.846   3.591
 4074SOL    HW212259   4.727   4.760   3.525
 4075SOL     OW12260   4.429   4.774   2.230
 4075SOL    HW112261   4.415   4.781   2.329
 4075SOL    HW212262   4.513   4.723   2.212
 4076SOL     OW12263   4.134   4.537   3.113
 4076SOL    HW112264   4.220   4.549   3.163
 4076SOL    HW212265   4.092   4.450   3.140
 4077SOL     OW12266   4.998   4.110   3.124
 4077SOL    HW112267   5.019   4.184   3.188
 4077SOL    HW212268   4.909   4.127   3.081
 4078SOL     OW12269   4.091   4.824   2.363
 4078SOL    HW112270   4.084   4.907   2.307
 4078SOL    HW212271   4.095   4.744   2.303
 4079SOL     OW12272   4.290   4.261   2.727
 4079SOL    HW112273   4.302   4.327   2.653
 4079SOL    HW212274   4.336   4.295   2.810
 4080SOL     OW12275   4.976   5.072   2.250
 4080SOL    HW112276   5.026   5.149   2.290
 4080SOL    HW212277   4.881   5.074   2.282
 4081SOL     OW12278   4.126   4.475   3.460
 4081SOL    HW112279   4.194   4.530   3.413
 4081SOL    HW212280   4.166   4.387   3.487
 4082SOL     OW12281   4.737   3.829   3.632
 4082SOL    HW112282   4.743   3.914   3.580
 4082SOL    HW212283   4.769   3.753   3.575
 4083SOL     OW12284   4.228   3.774   3.602
 4083SOL    HW112285   4.186   3.717   3.532
 4083SOL    HW212286   4.162   3.843   3.634
 4084SOL     OW12287   4.297   4.594   2.891
 4084SOL    HW112288   4.341   4.683   2.882
 4084SOL    HW212289   4.234   4.594   2.968
 4085SOL     OW12290   5.084   4.586   2.907
 4085SOL    HW112291   5.009   4.586   2.841
 4085SOL    HW212292   5.121   4.494   2.916
 4086SOL     OW12293   4.933   4.249   2.137
 4086SOL    HW112294   4.946   4.165   2.191
 4086SOL    HW212295   4.904   4.323   2.197
 4087SOL     OW12296   4.031   3.937   3.093
 4087SOL    HW112297   4.008   3.974   3.183
 4087SOL    HW212298   4.001   3.842   3.087
 4088SOL     OW12299   4.456   4.358   2.926
 4088SOL    HW112300   4.515   4.332   2.850
 4088SOL    HW212301   4.428   4.454   2.915
 4089SOL     OW12302   4.031   3.787   2.480
 4089SOL    HW112303   4.020   3.881   2.513
 4089SOL    HW212304   4.026   3.724   2.557
 4090SOL     OW12305   5.346   4.091   2.236
 4090SOL    HW112306   5.348   4.015   2.300
 4090SOL    HW212307   5.298   4.168   2.276
 4091SOL     OW12308   4.747   4.490   2.828
 4091SOL    HW112309   4.762   4.511   2.924
 4091SOL    HW212310   4.717   4.395   2.819
 4092SOL     OW12311   4.074   4.622   3.666
 4092SOL    HW112312   4.150   4.666   3.714
 4092SOL    HW212313   4.109   4.575   3.584
 4093SOL     OW12314   4.043   4.534   2.811
 4093SOL    HW112315   4.136   4.570   2.816
 4093SOL    HW212316   4.037   4.449   2.863
 4094SOL     OW12317   4.063   4.233   2.868
 4094SOL    HW112318   4.011   4.150   2.851
 4094SOL    HW212319   4.140   4.238   2.804
 4095SOL     OW12320   4.862   4.104   3.540
 4095SOL    HW112321   4.817   4.167   3.604
 4095SOL    HW212322   4.955   4.135   3.523
 4096SOL     OW12323   4.884   3.931   3.339
 4096SOL    HW112324   4.884   3.995   3.416
 4096SOL    HW212325   4.912   3.979   3.256
 4097SOL     OW12326   3.732   5.050   2.062
 4097SOL    HW112327   3.639   5.071   2.031
 4097SOL    HW212328   3.742   4.951   2.075
 4098SOL     OW12329   4.726   4.520   3.100
 4098SOL    HW112330   4.767   4.488   3.186
 4098SOL    HW212331   4.630   4.493   3.097
 4099SOL     OW12332   3.764   4.268   2.976
 4099SOL    HW112333   3.849   4.235   2.935
 4099SOL    HW212334   3.777   4.283   3.074
 4100SOL     OW12335   3.913   4.244   3.584
 4100SOL    HW112336   3.972   4.204   3.514
 4100SOL    HW212337   3.855   4.315   3.543
 4101SOL     OW12338   4.539   4.296   2.187
 4101SOL    HW112339   4.546   4.207   2.141
 4101SOL    HW212340   4.445   4.330   2.179
 4102SOL     OW12341   4.395   4.188   3.131
 4102SOL    HW112342   4.361   4.099   3.101
 4102SOL    HW212343   4.421   4.242   3.051
 4103SOL     OW12344   4.197   4.224   2.053
 4103SOL    HW112345   4.258   4.304   2.057
 4103SOL    HW212346   4.102   4.255   2.060
 4104SOL     OW12347   3.883   4.861   3.328
 4104SOL    HW112348   3.905   4.800   3.404
 4104SOL    HW212349   3.893   4.812   3.242
 4105SOL     OW12350   5.071   4.783   3.096
 4105SOL    HW112351   5.095   4.720   3.022
 4105SOL    HW212352   4.981   4.823   3.078
 4106SOL     OW12353   3.807   4.982   2.884
 4106SOL    HW112354   3.802   4.981   2.984
 4106SOL    HW212355   3.724   4.941   2.846
 4107SOL     OW12356   4.554   4.997   3.284
 4107SOL    HW112357   4.549   5.030   3.379
 4107SOL    HW212358   4.468   5.016   3.238
 4108SOL     OW12359   3.987   4.050   2.582
 4108SOL    HW112360   3.908   4.101   2.548
 4108SOL    HW212361   3.978   4.035   2.680
 4109SOL     OW12362   4.546   4.726   3.234
 4109SOL    HW112363   4.586   4.725   3.142
 4109SOL    HW212364   4.556   4.818   3.274
 4110SOL     OW12365   4.640   4.634   2.153
 4110SOL    HW112366   4.703   4.672   2.085
 4110SOL    HW212367   4.680   4.551   2.192
 4111SOL     OW12368   4.096   5.012   3.352
 4111SOL    HW112369   4.083   5.105   3.318
 4111SOL    HW212370   4.012   4.960   3.339
 4112SOL     OW12371   4.763   4.822   2.558
 4112SOL    HW112372   4.693   4.775   2.612
 4112SOL    HW212373   4.822   4.754   2.515
 4113SOL     OW12374   4.738   3.960   2.833
 4113SOL    HW112375   4.730   3.924   2.740
 4113SOL    HW212376   4.736   3.884   2.898
 4114SOL     OW12377   3.829   4.737   3.588
 4114SOL    HW112378   3.752   4.704   3.642
 4114SOL    HW212379   3.914   4.707   3.630
 4115SOL     OW12380   4.396   3.927   3.351
 4115SOL    HW112381   4.486   3.911   3.311
 4115SOL    HW212382   4.404   3.932   3.450
 4116SOL     OW12383   3.799   4.069   1.895
 4116SOL    HW112384   3.707   4.041   1.866
 4116SOL    HW212385   3.830   4.146   1.839
 4117SOL     OW12386   3.796   3.890   2.180
 4117SOL    HW112387   3.779   3.973   2.126
 4117SOL    HW212388   3.886   3.853   2.158
 4118SOL     OW12389   4.337   4.566   3.293
 4118SOL    HW112390   4.393   4.647   3.276
 4118SOL    HW212391   4.396   4.486   3.296
 4119SOL     OW12392   4.440   4.289   3.570
 4119SOL    HW112393   4.459   4.354   3.644
 4119SOL    HW212394   4.500   4.209   3.579
 4120SOL     OW12395   5.174   4.944   3.495
 4120SOL    HW112396   5.165   4.934   3.594
 4120SOL    HW212397   5.270   4.937   3.469
 4121SOL     OW12398   4.318   4.469   2.514
 4121SOL    HW112399   4.368   4.554   2.495
 4121SOL    HW212400   4.230   4.471   2.466
 4122SOL     OW12401   4.583   4.680   2.723
 4122SOL    HW112402   4.637   4.611   2.771
 4122SOL    HW212403   4.551   4.749   2.789
 4123SOL     OW12404   4.807   4.708   1.949
 4123SOL    HW112405   4.784   4.761   1.867
 4123SOL    HW212406   4.888   4.652   1.930
 4124SOL     OW12407   3.803   4.964   2.515
 4124SOL    HW112408   3.802   4.917   2.603
 4124SOL    HW212409   3.885   4.936   2.464
 4125SOL     OW12410   4.152   4.148   2.382
 4125SOL    HW112411   4.182   4.076   2.320
 4125SOL    HW212412   4.113   4.108   2.465
 4126SOL     OW12413   4.041   4.271   3.142
 4126SOL    HW112414   4.079   4.212   3.214
 4126SOL    HW212415   4.081   4.245   3.054
 4127SOL     OW12416   4.725   3.758   3.016
 4127SOL    HW112417   4.662   3.686   2.985
 4127SOL    HW212418   4.818   3.722   3.016
 4128SOL     OW12419   4.494   5.054   2.163
 4128SOL    HW112420   4.448   4.967   2.180
 4128SOL    HW212421   4.585   5.051   2.204
 4129SOL     OW12422   5.076   3.776   2.030
 4129SOL    HW112423   5.111   3.735   1.946
 4129SOL    HW212424   4.986   3.738   2.050
 4130SOL     OW12425   3.763   4.801   2.162
 4130SOL    HW112426   3.862   4.790   2.153
 4130SOL    HW212427   3.723   4.715   2.194
 4131SOL     OW12428   3.954   4.352   3.837
 4131SOL    HW112429   3.861   4.350   3.874
 4131SOL    HW212430   3.955   4.313   3.745
 4132SOL     OW12431   3.949   3.999   4.720
 4132SOL    HW112432   3.984   3.982   4.812
 4132SOL    HW212433   3.861   3.954   4.708
 4133SOL     OW12434   3.743   4.092   4.371
 4133SOL    HW112435   3.661   4.135   4.410
 4133SOL    HW212436   3.715   4.019   4.308
 4134SOL     OW12437   4.859   4.427   4.441
 4134SOL    HW112438   4.916   4.505   4.416
 4134SOL    HW212439   4.799   4.453   4.517
 4135SOL     OW12440   4.492   4.868   4.747
 4135SOL    HW112441   4.414   4.885   4.807
 4135SOL    HW212442   4.526   4.955   4.711
 4136SOL     OW12443   4.409   4.736   4.389
 4136SOL    HW112444   4.478   4.720   4.459
 4136SOL    HW212445   4.336   4.793   4.427
 4137SOL     OW12446   4.059   5.159   4.785
 4137SOL    HW112447   3.981   5.128   4.732
 4137SOL    HW212448   4.117   5.217   4.728
 4138SOL     OW12449   3.964   4.815   4.610
 4138SOL    HW112450   3.978   4.731   4.662
 4138SOL    HW212451   3.909   4.879   4.665
 4139SOL     OW12452   4.330   4.688   3.847
 4139SOL    HW112453   4.337   4.772   3.793
 4139SOL    HW212454   4.376   4.701   3.935
 4140SOL     OW12455   3.846   4.367   4.287
 4140SOL    HW112456   3.801   4.279   4.304
 4140SOL    HW212457   3.845   4.421   4.371
 4141SOL     OW12458   4.533   3.728   4.226
 4141SOL    HW112459   4.573   3.819   4.217
 4141SOL    HW212460   4.433   3.736   4.232
 4142SOL     OW12461   3.921   4.700   4.988
 4142SOL    HW112462   4.010   4.655   4.974
 4142SOL    HW212463   3.848   4.635   4.969
 4143SOL     OW12464   4.322   4.453   3.994
 4143SOL    HW112465   4.346   4.522   3.926
 4143SOL    HW212466   4.244   4.486   4.048
 4144SOL     OW12467   5.005   4.069   4.668
 4144SOL    HW112468   4.919   4.019   4.655
 4144SOL    HW212469   5.067   4.015   4.724
 4145SOL     OW12470   4.715   4.134   4.966
 4145SOL    HW112471   4.638   4.168   5.020
 4145SOL    HW212472   4.681   4.083   4.887
 4146SOL     OW12473   4.765   4.425   4.153
 4146SOL    HW112474   4.791   4.421   4.249
 4146SOL    HW212475   4.680   4.374   4.139
 4147SOL     OW12476   3.800   4.535   4.513
 4147SOL    HW112477   3.899   4.523   4.522
 4147SOL    HW212478   3.776   4.630   4.534
 4148SOL     OW12479   4.589   4.072   3.919
 4148SOL    HW112480   4.648   4.135   3.870
 4148SOL    HW212481   4.608   3.978   3.890
 4149SOL     OW12482   4.274   3.920   4.609
 4149SOL    HW112483   4.269   3.915   4.709
 4149SOL    HW212484   4.276   4.016   4.580
 4150SOL     OW12485   4.045   4.667   3.966
 4150SOL    HW112486   4.127   4.706   3.924
 4150SOL    HW212487   4.018   4.585   3.917
 4151SOL     OW12488   4.106   4.424   4.204
 4151SOL    HW112489   4.151   4.334   4.201
 4151SOL    HW212490   4.012   4.413   4.237
 4152SOL     OW12491   4.338   3.846   3.841
 4152SOL    HW112492   4.436   3.824   3.848
 4152SOL    HW212493   4.307   3.829   3.748
 4153SOL     OW12494   4.527   5.126   4.648
 4153SOL    HW112495   4.617   5.140   4.606
 4153SOL    HW212496   4.456   5.128   4.577
 4154SOL     OW12497   4.646   4.227   4.623
 4154SOL    HW112498   4.621   4.218   4.527
 4154SOL    HW212499   4.694   4.145   4.654
 4155SOL     OW12500   4.263   3.788   4.236
 4155SOL    HW112501   4.182   3.789   4.294
 4155SOL    HW212502   4.266   3.871   4.181
 4156SOL     OW12503   5.158   4.912   3.765
 4156SOL    HW112504   5.190   4.836   3.822
 4156SOL    HW212505   5.066   4.939   3.795
 4157SOL     OW12506   4.021   3.759   3.895
 4157SOL    HW112507   4.070   3.843   3.874
 4157SOL    HW212508   4.083   3.694   3.940
 4158SOL     OW12509   4.659   3.960   4.204
 4158SOL    HW112510   4.611   4.001   4.126
 4158SOL    HW212511   4.758   3.958   4.185
 4159SOL     OW12512   4.183   4.876   4.465
 4159SOL    HW112513   4.112   4.849   4.530
 4159SOL    HW212514   4.157   4.848   4.372
 4160SOL     OW12515   4.756   4.273   3.740
 4160SOL    HW112516   4.715   4.355   3.701
 4160SOL    HW212517   4.820   4.299   3.813
 4161SOL     OW12518   4.285   3.946   4.871
 4161SOL    HW112519   4.323   3.862   4.908
 4161SOL    HW212520   4.197   3.965   4.915
 4162SOL     OW12521   4.590   4.178   4.366
 4162SOL    HW112522   4.558   4.250   4.304
 4162SOL    HW212523   4.614   4.097   4.313
 4163SOL     OW12524   4.741   3.763   4.477
 4163SOL    HW112525   4.669   3.768   4.408
 4163SOL    HW212526   4.717   3.694   4.546
 4164SOL     OW12527   4.251   3.980   4.052
 4164SOL    HW112528   4.278   3.921   3.977
 4164SOL    HW212529   4.251   4.075   4.021
 4165SOL     OW12530   4.429   4.774   4.092
 4165SOL    HW112531   4.415   4.781   4.191
 4165SOL    HW212532   4.513   4.723   4.074
 4166SOL     OW12533   4.134   4.537   4.975
 4166SOL    HW112534   4.220   4.549   5.025
 4166SOL    HW212535   4.092   4.450   5.002
 4167SOL     OW12536   4.091   4.824   4.225
 4167SOL    HW112537   4.084   4.907   4.169
 4167SOL    HW212538   4.095   4.744   4.165
 4168SOL     OW12539   4.290   4.261   4.589
 4168SOL    HW112540   4.302   4.327   4.515
 4168SOL    HW212541   4.336   4.295   4.672
 4169SOL     OW12542   4.976   5.072   4.112
 4169SOL    HW112543   5.026   5.149   4.152
 4169SOL    HW212544   4.881   5.074   4.144
 4170SOL     OW12545   4.297   4.594   4.753
 4170SOL    HW112546   4.341   4.683   4.744
 4170SOL    HW212547   4.234   4.594   4.830
 4171SOL     OW12548   5.084   4.586   4.769
 4171SOL    HW112549   5.009   4.586   4.703
 4171SOL    HW212550   5.121   4.494   4.778
 4172SOL     OW12551   4.933   4.249   3.999
 4172SOL    HW112552   4.946   4.165   4.053
 4172SOL    HW212553   4.904   4.323   4.059
 4173SOL     OW12554   4.031   3.937   4.955
 4173SOL    HW112555   4.008   3.974   5.045
 4173SOL    HW212556   4.001   3.842   4.949
 4174SOL     OW12557   4.456   4.358   4.788
 4174SOL    HW112558   4.515   4.332   4.712
 4174SOL    HW212559   4.428   4.454   4.777
 4175SOL     OW12560   4.031   3.787   4.342
 4175SOL    HW112561   4.020   3.881   4.375
 4175SOL    HW212562   4.026   3.724   4.419
 4176SOL     OW12563   5.346   4.091   4.098
 4176SOL    HW112564   5.348   4.015   4.162
 4176SOL    HW212565   5.298   4.168   4.138
 4177SOL     OW12566   4.747   4.490   4.690
 4177SOL    HW112567   4.762   4.511   4.786
 4177SOL    HW212568   4.717   4.395   4.681
 4178SOL     OW12569   4.043   4.534   4.673
 4178SOL    HW112570   4.136   4.570   4.678
 4178SOL    HW212571   4.037   4.449   4.725
 4179SOL     OW12572   4.063   4.233   4.730
 4179SOL    HW112573   4.011   4.150   4.713
 4179SOL    HW212574   4.140   4.238   4.666
 4180SOL     OW12575   4.884   3.931   5.201
 4180SOL    HW112576   4.884   3.995   5.278
 4180SOL    HW212577   4.912   3.979   5.118
 4181SOL     OW12578   3.732   5.050   3.924
 4181SOL    HW112579   3.639   5.071   3.893
 4181SOL    HW212580   3.742   4.951   3.937
 4182SOL     OW12581   4.726   4.520   4.962
 4182SOL    HW112582   4.767   4.488   5.048
 4182SOL    HW212583   4.630   4.493   4.959
 4183SOL     OW12584   3.764   4.268   4.838
 4183SOL    HW112585   3.849   4.235   4.797
 4183SOL    HW212586   3.777   4.283   4.936
 4184SOL     OW12587   4.539   4.296   4.049
 4184SOL    HW112588   4.546   4.207   4.003
 4184SOL    HW212589   4.445   4.330   4.041
 4185SOL     OW12590   4.395   4.188   4.993
 4185SOL    HW112591   4.361   4.099   4.963
 4185SOL    HW212592   4.421   4.242   4.913
 4186SOL     OW12593   4.197   4.224   3.915
 4186SOL    HW112594   4.258   4.304   3.919
 4186SOL    HW212595   4.102   4.255   3.922
 4187SOL     OW12596   5.071   4.783   4.958
 4187SOL    HW112597   5.095   4.720   4.884
 4187SOL    HW212598   4.981   4.823   4.940
 4188SOL     OW12599   3.807   4.982   4.746
 4188SOL    HW112600   3.802   4.981   4.846
 4188SOL    HW212601   3.724   4.941   4.708
 4189SOL     OW12602   3.987   4.050   4.444
 4189SOL    HW112603   3.908   4.101   4.410
 4189SOL    HW212604   3.978   4.035   4.542
 4190SOL     OW12605   4.546   4.726   5.096
 4190SOL    HW112606   4.586   4.725   5.004
 4190SOL    HW212607   4.556   4.818   5.136
 4191SOL     OW12608   4.640   4.634   4.015
 4191SOL    HW112609   4.703   4.672   3.947
 4191SOL    HW212610   4.680   4.551   4.054
 4192SOL     OW12611   5.338   5.016   5.013
 4192SOL    HW112612   5.398   5.019   5.093
 4192SOL    HW212613   5.263   5.080   5.026
 4193SOL     OW12614   4.763   4.822   4.420
 4193SOL    HW112615   4.693   4.775   4.474
 4193SOL    HW212616   4.822   4.754   4.377
 4194SOL     OW12617   4.738   3.960   4.695
 4194SOL    HW112618   4.730   3.924   4.602
 4194SOL    HW212619   4.736   3.884   4.760
 4195SOL     OW12620   3.799   4.069   3.757
 4195SOL    HW112621   3.707   4.041   3.728
 4195SOL    HW212622   3.830   4.146   3.701
 4196SOL     OW12623   3.796   3.890   4.042
 4196SOL    HW112624   3.779   3.973   3.988
 4196SOL    HW212625   3.886   3.853   4.020
 4197SOL     OW12626   4.318   4.469   4.376
 4197SOL    HW112627   4.368   4.554   4.357
 4197SOL    HW212628   4.230   4.471   4.328
 4198SOL     OW12629   4.583   4.680   4.585
 4198SOL    HW112630   4.637   4.611   4.633
 4198SOL    HW212631   4.551   4.749   4.651
 4199SOL     OW12632   4.807   4.708   3.811
 4199SOL    HW112633   4.784   4.761   3.729
 4199SOL    HW212634   4.888   4.652   3.792
 4200SOL     OW12635   3.803   4.964   4.377
 4200SOL    HW112636   3.802   4.917   4.465
 4200SOL    HW212637   3.885   4.936   4.326
 4201SOL     OW12638   4.152   4.148   4.244
 4201SOL    HW112639   4.182   4.076   4.182
 4201SOL    HW212640   4.113   4.108   4.327
 4202SOL     OW12641   4.725   3.758   4.878
 4202SOL    HW112642   4.662   3.686   4.847
 4202SOL    HW212643   4.818   3.722   4.878
 4203SOL     OW12644   4.494   5.054   4.025
 4203SOL    HW112645   4.448   4.967   4.042
 4203SOL    HW212646   4.585   5.051   4.066
 4204SOL     OW12647   5.076   3.776   3.892
 4204SOL    HW112648   5.111   3.735   3.808
 4204SOL    HW212649   4.986   3.738   3.912
 4205SOL     OW12650   3.763   4.801   4.024
 4205SOL    HW112651   3.862   4.790   4.015
 4205SOL    HW212652   3.723   4.715   4.056
   5.07519   5.07519   5.07519
