mobley_5393242_GMX.gro created by acpype (v: 2023.10.27) on Wed May 20 23:55:13 2026
   40
    1MOL     C1    1   2.643   2.570   2.297
    1MOL     C2    2   2.550   2.555   2.196
    1MOL     C3    3   2.601   2.534   2.422
    1MOL     C4    4   2.394   2.477   2.347
    1MOL     C5    5   2.584   2.590   2.055
    1MOL     C6    6   2.396   2.738   2.862
    1MOL     C7    7   3.007   2.627   2.789
    1MOL     C8    8   2.182   2.512   2.476
    1MOL     C9    9   2.259   2.279   2.419
    1MOL    C10   10   2.486   2.616   2.846
    1MOL    C11   11   2.906   2.525   2.739
    1MOL    C12   12   2.255   2.425   2.373
    1MOL     N1   13   2.425   2.509   2.220
    1MOL     N2   14   2.478   2.488   2.450
    1MOL     O1   15   2.690   2.548   2.525
    1MOL     O2   16   2.534   2.613   2.713
    1MOL     O3   17   2.776   2.577   2.757
    1MOL     P1   18   2.652   2.508   2.677
    1MOL     S1   19   2.625   2.321   2.719
    1MOL     H1   20   2.742   2.607   2.278
    1MOL     H2   21   2.669   2.529   2.020
    1MOL     H3   22   2.500   2.572   1.988
    1MOL     H4   23   2.611   2.696   2.048
    1MOL     H5   24   2.452   2.830   2.841
    1MOL     H6   25   2.313   2.734   2.791
    1MOL     H7   26   2.356   2.744   2.964
    1MOL     H8   27   2.997   2.721   2.734
    1MOL     H9   28   2.989   2.650   2.894
    1MOL    H10   29   3.109   2.590   2.777
    1MOL    H11   30   2.232   2.510   2.574
    1MOL    H12   31   2.079   2.477   2.490
    1MOL    H13   32   2.178   2.616   2.443
    1MOL    H14   33   2.312   2.268   2.514
    1MOL    H15   34   2.310   2.216   2.345
    1MOL    H16   35   2.158   2.239   2.432
    1MOL    H17   36   2.428   2.525   2.866
    1MOL    H18   37   2.569   2.622   2.917
    1MOL    H19   38   2.916   2.432   2.796
    1MOL    H20   39   2.924   2.503   2.633
    1MOL    H21   40   2.198   2.429   2.280
   5.07519   5.07519   5.07519
