mobley_8789465_GMX.gro created by acpype (v: 2023.10.27) on Wed May 20 23:51:36 2026
   13
    1MOL     C1    1   2.284   2.303   2.133
    1MOL     C2    2   2.177   2.363   2.200
    1MOL     C3    3   2.389   2.247   2.205
    1MOL     C4    4   2.175   2.366   2.340
    1MOL     C5    5   2.387   2.250   2.345
    1MOL     C6    6   2.280   2.309   2.412
    1MOL     O1    7   2.491   2.193   2.412
    1MOL     I1    8   2.273   2.317   2.621
    1MOL     H1    9   2.285   2.301   2.024
    1MOL     H2   10   2.095   2.407   2.144
    1MOL     H3   11   2.471   2.200   2.152
    1MOL     H4   12   2.091   2.413   2.390
    1MOL     H5   13   2.484   2.216   2.506
   4.59733   4.59733   4.59733
