; mobley_6988468_GMX.top created by acpype (v: 2023.10.27) on Thu May 21 00:04:40 2026

[ defaults ]
; nbfunc        comb-rule       gen-pairs       fudgeLJ fudgeQQ
1               2               yes             0.5     0.8333333333

; Include mobley_6988468_GMX.itp topology
#include "mobley_6988468_GMX.itp"

; Ligand position restraints
#ifdef POSRES_LIG
#include "posre_mobley_6988468.itp"
#endif

[ system ]
mobley_6988468 in water

[ molecules ]
; Compound        nmols
 mobley_6988468   1     
SOL              3397
