; mobley_6988468_GMX_OPLS.top created by acpype (v: 2023.10.27) on Thu May 21 00:04:40 2026

; Include forcefield parameters
#include "ffoplsaa.itp"

; Include mobley_6988468_GMX.itp topology
#include "mobley_6988468_GMX.itp"

; Ligand position restraints
#ifdef POSRES_LIG
#include "posre_mobley_6988468.itp"
#endif

[ system ]
 mobley_6988468

[ molecules ]
; Compound        nmols
 mobley_6988468   1     
