; mobley_6988468_GMX_OPLS.itp created by acpype (v: 2023.10.27) on Thu May 21 00:04:40 2026

; For OPLS atomtypes manual fine tuning
; AC_at:OPLS_at:OPLScode: Possible_Alternatives (see ffoplsaa.atp and ffoplsaanb.itp)
; ca:CA:opls_145: ['166', '501', '502']
; c3:CT:opls_135: ['136', '137', '149', '157', '158', '206', '209', '210', '223B', '224B', '245', '246', '274', '283', '284', '285', '292', '292B', '293B', '296', '307', '308', '505']
; nb:x:opls_x: []
; ha:HA:opls_146: []
; h4:HA:opls_146: []
; hc:HC:opls_140: []

[ moleculetype ]
;name            nrexcl
 mobley_6988468   3

[ atoms ]
;   nr  type  resi  res  atom  cgnr     charge      mass       ; qtot   bond_type
     1 opls_145     1   MOL    C1    1    -0.091000     12.01100 ; qtot -0.091  CA  
     2 opls_145     1   MOL    C2    2    -0.252300     12.01100 ; qtot -0.343  CA  
     3 opls_145     1   MOL    C3    3    -0.247300     12.01100 ; qtot -0.591  CA  
     4 opls_145     1   MOL    C4    4     0.398200     12.01100 ; qtot -0.192  CA  
     5 opls_145     1   MOL    C5    5     0.411600     12.01100 ; qtot  0.219  CA  
     6 opls_135     1   MOL    C6    6    -0.089100     12.01100 ; qtot  0.130  CT  
     7 opls_135     1   MOL    C7    7    -0.129700     12.01100 ; qtot  0.000  CT  
     8 opls_x     1   MOL    N1    8    -0.664999      0.00000 ; qtot -0.665  x   
     9 opls_146     1   MOL    H1    9     0.136000      1.00800 ; qtot -0.529  HA  
    10 opls_146     1   MOL    H2   10     0.142000      1.00800 ; qtot -0.387  HA  
    11 opls_146     1   MOL    H3   11     0.141000      1.00800 ; qtot -0.246  HA  
    12 opls_146     1   MOL    H4   12     0.020100      1.00800 ; qtot -0.225  HA  
    13 opls_140     1   MOL    H5   13     0.040033      1.00800 ; qtot -0.185  HC  
    14 opls_140     1   MOL    H6   14     0.040033      1.00800 ; qtot -0.145  HC  
    15 opls_140     1   MOL    H7   15     0.040033      1.00800 ; qtot -0.105  HC  
    16 opls_140     1   MOL    H8   16     0.052700      1.00800 ; qtot -0.053  HC  
    17 opls_140     1   MOL    H9   17     0.052700      1.00800 ; qtot  0.000  HC  

[ bonds ]
;   ai     aj funct   r             k
     1      2   1 ;    1.3986e-01    2.9644e+05 ;     C1 - C2         CA - CA    
     1      3   1 ;    1.3986e-01    2.9644e+05 ;     C1 - C3         CA - CA    
     1      9   1 ;    1.0860e-01    3.0183e+05 ;     C1 - H1         CA - HA    
     2      4   1 ;    1.3986e-01    2.9644e+05 ;     C2 - C4         CA - CA    
     2     10   1 ;    1.0860e-01    3.0183e+05 ;     C2 - H2         CA - HA    
     3      5   1 ;    1.3986e-01    2.9644e+05 ;     C3 - C5         CA - CA    
     3     11   1 ;    1.0860e-01    3.0183e+05 ;     C3 - H3         CA - HA    
     4      8   1 ;    1.3392e-01    3.2341e+05 ;     C4 - N1         CA - x     
     4     12   1 ;    1.0885e-01    2.9859e+05 ;     C4 - H4         CA - HA    
     5      7   1 ;    1.5147e-01    2.0410e+05 ;     C5 - C7         CA - CT    
     5      8   1 ;    1.3392e-01    3.2341e+05 ;     C5 - N1         CA - x     
     6      7   1 ;    1.5354e-01    1.9154e+05 ;     C6 - C7         CT - CT    
     6     13   1 ;    1.0962e-01    2.8891e+05 ;     C6 - H5         CT - HC    
     6     14   1 ;    1.0962e-01    2.8891e+05 ;     C6 - H6         CT - HC    
     6     15   1 ;    1.0962e-01    2.8891e+05 ;     C6 - H7         CT - HC    
     7     16   1 ;    1.0962e-01    2.8891e+05 ;     C7 - H8         CT - HC    
     7     17   1 ;    1.0962e-01    2.8891e+05 ;     C7 - H9         CT - HC    

[ pairs ]
;   ai     aj    funct
     1      7      1 ;     C1 - C7    
     1      8      1 ;     C1 - N1    
     1     12      1 ;     C1 - H4    
     2      5      1 ;     C2 - C5    
     2     11      1 ;     C2 - H3    
     3      4      1 ;     C3 - C4    
     3      6      1 ;     C3 - C6    
     3     10      1 ;     C3 - H2    
     3     16      1 ;     C3 - H8    
     3     17      1 ;     C3 - H9    
     4      7      1 ;     C4 - C7    
     5     12      1 ;     C5 - H4    
     5     13      1 ;     C5 - H5    
     5     14      1 ;     C5 - H6    
     5     15      1 ;     C5 - H7    
     6      8      1 ;     C6 - N1    
     7     11      1 ;     C7 - H3    
     8     10      1 ;     N1 - H2    
     8     11      1 ;     N1 - H3    
     8     16      1 ;     N1 - H8    
     8     17      1 ;     N1 - H9    
     9      4      1 ;     H1 - C4    
     9      5      1 ;     H1 - C5    
     9     10      1 ;     H1 - H2    
     9     11      1 ;     H1 - H3    
    10     12      1 ;     H2 - H4    
    13     16      1 ;     H5 - H8    
    13     17      1 ;     H5 - H9    
    14     16      1 ;     H6 - H8    
    14     17      1 ;     H6 - H9    
    15     16      1 ;     H7 - H8    
    15     17      1 ;     H7 - H9    

[ angles ]
;   ai     aj     ak    funct   theta         cth
     1      2      4      1 ;    1.2002e+02    5.3279e+02 ;     C1 - C2   - C4       CA -   CA - CA  
     1      2     10      1 ;    1.1988e+02    3.7572e+02 ;     C1 - C2   - H2       CA -   CA - HA  
     1      3      5      1 ;    1.2002e+02    5.3279e+02 ;     C1 - C3   - C5       CA -   CA - CA  
     1      3     11      1 ;    1.1988e+02    3.7572e+02 ;     C1 - C3   - H3       CA -   CA - HA  
     2      1      3      1 ;    1.2002e+02    5.3279e+02 ;     C2 - C1   - C3       CA -   CA - CA  
     2      1      9      1 ;    1.1988e+02    3.7572e+02 ;     C2 - C1   - H1       CA -   CA - HA  
     2      4      8      1 ;    1.2294e+02    5.7045e+02 ;     C2 - C4   - N1       CA -   CA - x   
     2      4     12      1 ;    1.2032e+02    3.7489e+02 ;     C2 - C4   - H4       CA -   CA - HA  
     3      1      9      1 ;    1.1988e+02    3.7572e+02 ;     C3 - C1   - H1       CA -   CA - HA  
     3      5      7      1 ;    1.2083e+02    5.0827e+02 ;     C3 - C5   - C7       CA -   CA - CT  
     3      5      8      1 ;    1.2294e+02    5.7045e+02 ;     C3 - C5   - N1       CA -   CA - x   
     4      2     10      1 ;    1.1988e+02    3.7572e+02 ;     C4 - C2   - H2       CA -   CA - HA  
     4      8      5      1 ;    1.1724e+02    6.9580e+02 ;     C4 - N1   - C5       CA -    x - CA  
     5      3     11      1 ;    1.1988e+02    3.7572e+02 ;     C5 - C3   - H3       CA -   CA - HA  
     5      7      6      1 ;    1.1242e+02    5.0484e+02 ;     C5 - C7   - C6       CA -   CT - CT  
     5      7     16      1 ;    1.1063e+02    3.6493e+02 ;     C5 - C7   - H8       CA -   CT - HC  
     5      7     17      1 ;    1.1063e+02    3.6493e+02 ;     C5 - C7   - H9       CA -   CT - HC  
     6      7     16      1 ;    1.0968e+02    3.6208e+02 ;     C6 - C7   - H8       CT -   CT - HC  
     6      7     17      1 ;    1.0968e+02    3.6208e+02 ;     C6 - C7   - H9       CT -   CT - HC  
     7      5      8      1 ;    1.1664e+02    5.5815e+02 ;     C7 - C5   - N1       CT -   CA - x   
     7      6     13      1 ;    1.0968e+02    3.6208e+02 ;     C7 - C6   - H5       CT -   CT - HC  
     7      6     14      1 ;    1.0968e+02    3.6208e+02 ;     C7 - C6   - H6       CT -   CT - HC  
     7      6     15      1 ;    1.0968e+02    3.6208e+02 ;     C7 - C6   - H7       CT -   CT - HC  
     8      4     12      1 ;    1.1602e+02    4.1924e+02 ;     N1 - C4   - H4        x -   CA - HA  
    13      6     14      1 ;    1.0773e+02    2.9957e+02 ;     H5 - C6   - H6       HC -   CT - HC  
    13      6     15      1 ;    1.0773e+02    2.9957e+02 ;     H5 - C6   - H7       HC -   CT - HC  
    14      6     15      1 ;    1.0773e+02    2.9957e+02 ;     H6 - C6   - H7       HC -   CT - HC  
    16      7     17      1 ;    1.0773e+02    2.9957e+02 ;     H8 - C7   - H9       HC -   CT - HC  

[ dihedrals ] ; propers
; for gromacs 4.5 or higher, using funct 9
;    i      j      k      l   func   phase     kd      pn
     1      2      4      8      9 ;   180.00  15.16700   2 ;     C1-    C2-    C4-    N1
     1      2      4     12      9 ;   180.00  15.16700   2 ;     C1-    C2-    C4-    H4
     1      3      5      7      9 ;   180.00  15.16700   2 ;     C1-    C3-    C5-    C7
     1      3      5      8      9 ;   180.00  15.16700   2 ;     C1-    C3-    C5-    N1
     2      1      3      5      9 ;   180.00  15.16700   2 ;     C2-    C1-    C3-    C5
     2      1      3     11      9 ;   180.00  15.16700   2 ;     C2-    C1-    C3-    H3
     2      4      8      5      9 ;   180.00  20.08320   2 ;     C2-    C4-    N1-    C5
     3      1      2      4      9 ;   180.00  15.16700   2 ;     C3-    C1-    C2-    C4
     3      1      2     10      9 ;   180.00  15.16700   2 ;     C3-    C1-    C2-    H2
     3      5      7      6      9 ;   180.00   1.00416   2 ;     C3-    C5-    C7-    C6
     3      5      7     16      9 ;     0.00   0.00000   0 ;     C3-    C5-    C7-    H8
     3      5      7     17      9 ;     0.00   0.00000   0 ;     C3-    C5-    C7-    H9
     3      5      8      4      9 ;   180.00  20.08320   2 ;     C3-    C5-    N1-    C4
     4      8      5      7      9 ;   180.00  20.08320   2 ;     C4-    N1-    C5-    C7
     5      7      6     13      9 ;     0.00   0.65084   3 ;     C5-    C7-    C6-    H5
     5      7      6     14      9 ;     0.00   0.65084   3 ;     C5-    C7-    C6-    H6
     5      7      6     15      9 ;     0.00   0.65084   3 ;     C5-    C7-    C6-    H7
     5      8      4     12      9 ;   180.00  20.08320   2 ;     C5-    N1-    C4-    H4
     6      7      5      8      9 ;     0.00   0.00000   0 ;     C6-    C7-    C5-    N1
     7      5      3     11      9 ;   180.00  15.16700   2 ;     C7-    C5-    C3-    H3
     8      4      2     10      9 ;   180.00  15.16700   2 ;     N1-    C4-    C2-    H2
     8      5      3     11      9 ;   180.00  15.16700   2 ;     N1-    C5-    C3-    H3
     8      5      7     16      9 ;     0.00   0.00000   0 ;     N1-    C5-    C7-    H8
     8      5      7     17      9 ;     0.00   0.00000   0 ;     N1-    C5-    C7-    H9
     9      1      2      4      9 ;   180.00  15.16700   2 ;     H1-    C1-    C2-    C4
     9      1      2     10      9 ;   180.00  15.16700   2 ;     H1-    C1-    C2-    H2
     9      1      3      5      9 ;   180.00  15.16700   2 ;     H1-    C1-    C3-    C5
     9      1      3     11      9 ;   180.00  15.16700   2 ;     H1-    C1-    C3-    H3
    10      2      4     12      9 ;   180.00  15.16700   2 ;     H2-    C2-    C4-    H4
    13      6      7     16      9 ;     0.00   0.50208   3 ;     H5-    C6-    C7-    H8
    13      6      7     17      9 ;     0.00   0.50208   3 ;     H5-    C6-    C7-    H9
    14      6      7     16      9 ;     0.00   0.50208   3 ;     H6-    C6-    C7-    H8
    14      6      7     17      9 ;     0.00   0.50208   3 ;     H6-    C6-    C7-    H9
    15      6      7     16      9 ;     0.00   0.50208   3 ;     H7-    C6-    C7-    H8
    15      6      7     17      9 ;     0.00   0.50208   3 ;     H7-    C6-    C7-    H9

[ dihedrals ] ; impropers
; treated as propers in GROMACS to use correct AMBER analytical function
;    i      j      k      l   func   phase     kd      pn
     1      4      2     10      4 ;   180.00   4.60240   2 ;     C1-    C4-    C2-    H2
     1      5      3     11      4 ;   180.00   4.60240   2 ;     C1-    C5-    C3-    H3
     2     12      4      8      4 ;   180.00   4.60240   2 ;     C2-    H4-    C4-    N1
     7      3      5      8      4 ;   180.00   4.60240   2 ;     C7-    C3-    C5-    N1
     9      1      3      2      4 ;   180.00   4.60240   2 ;     H1-    C1-    C3-    C2
