2_ethylpyridine
    17
   1.2860000  -0.0600000   1.7330000   0.1840000  -0.4390000   0.9740000
   1.4970000  -0.6400000   2.9790000  -0.6700000  -1.3940000   1.5010000
   0.5840000  -1.5860000   3.4170000   1.6230000  -3.4980000   4.6630000
   0.7790000  -2.2280000   4.7500000  -0.4980000  -1.9790000   2.7080000
   1.9790000   0.6850000   1.3540000   0.0000000  -0.0010000  -0.0000000
   2.3530000  -0.3530000   3.5810000  -1.5430000  -1.7240000   0.9480000
   1.1490000  -4.2410000   4.0130000   1.7500000  -3.9460000   5.6540000
   2.6170000  -3.2820000   4.2580000   1.2590000  -1.5240000   5.4480000
  -0.1940000  -2.4720000   5.2040000
