%VERSION  VERSION_STAMP = V0001.000  DATE = 05/20/26  23:42:48                  
%FLAG TITLE                                                                     
%FORMAT(20a4)                                                                   
E_hex_2_enal                                                                    
%FLAG POINTERS                                                                  
%FORMAT(10I8)                                                                   
      17       6      10       6      22       5      31       4       0       0
      77       1       6       5       4       9      14       8       8       0
       0       0       0       0       0       0       0       0      17       0
       0
%FLAG ATOM_NAME                                                                 
%FORMAT(20a4)                                                                   
C1  C2  C3  C4  C5  C6  O1  H1  H2  H3  H4  H5  H6  H7  H8  H9  H10 
%FLAG CHARGE                                                                    
%FORMAT(5E16.8)                                                                 
 -5.10588846E+00 -1.64365146E+00  1.02245325E+01 -1.71471843E+00 -1.18809396E+00
 -1.42862832E+00 -9.58675203E+00  2.71512270E+00  2.25956520E+00 -1.78578540E-01
  6.56604136E-01  6.56604136E-01  6.56604136E-01  1.06053786E+00  1.06053786E+00
  7.87203360E-01  7.87203360E-01
%FLAG ATOMIC_NUMBER                                                             
%FORMAT(10I8)                                                                   
       6       6       6       6       6       6       8       1       1       1
       1       1       1       1       1       1       1
%FLAG MASS                                                                      
%FORMAT(5E16.8)                                                                 
  1.20100000E+01  1.20100000E+01  1.20100000E+01  1.20100000E+01  1.20100000E+01
  1.20100000E+01  1.60000000E+01  1.00800000E+00  1.00800000E+00  1.00800000E+00
  1.00800000E+00  1.00800000E+00  1.00800000E+00  1.00800000E+00  1.00800000E+00
  1.00800000E+00  1.00800000E+00
%FLAG ATOM_TYPE_INDEX                                                           
%FORMAT(10I8)                                                                   
       1       1       1       2       2       2       3       4       4       5
       6       6       6       6       6       6       6
%FLAG NUMBER_EXCLUDED_ATOMS                                                     
%FORMAT(10I8)                                                                   
      10      12       5       9      10       8       2       2       2       1
       4       3       2       3       2       1       1
%FLAG NONBONDED_PARM_INDEX                                                      
%FORMAT(10I8)                                                                   
       1       2       4       7      11      16       2       3       5       8
      12      17       4       5       6       9      13      18       7       8
       9      10      14      19      11      12      13      14      15      20
      16      17      18      19      20      21
%FLAG RESIDUE_LABEL                                                             
%FORMAT(20a4)                                                                   
MOL 
%FLAG RESIDUE_POINTER                                                           
%FORMAT(10I8)                                                                   
       1
%FLAG BOND_FORCE_CONSTANT                                                       
%FORMAT(5E16.8)                                                                 
  4.24300000E+02  2.67760000E+02  3.57590000E+02  2.48400000E+02  3.57290000E+02
  5.90600000E+02  3.22470000E+02  2.28890000E+02  3.45250000E+02
%FLAG BOND_EQUIL_VALUE                                                          
%FORMAT(5E16.8)                                                                 
  1.34570000E+00  1.48480000E+00  1.08800000E+00  1.50880000E+00  1.08820000E+00
  1.21900000E+00  1.11230000E+00  1.53540000E+00  1.09620000E+00
%FLAG ANGLE_FORCE_CONSTANT                                                      
%FORMAT(5E16.8)                                                                 
  6.06000000E+01  4.61500000E+01  7.79900000E+01  4.34700000E+01  6.21100000E+01
  4.62400000E+01  6.04000000E+01  4.37600000E+01  4.33100000E+01  5.98700000E+01
  4.32700000E+01  4.29500000E+01  5.99800000E+01  3.58000000E+01
%FLAG ANGLE_EQUIL_VALUE                                                         
%FORMAT(5E16.8)                                                                 
  2.19178541E+00  2.10294812E+00  2.15094469E+00  2.00520964E+00  2.12930260E+00
  2.09439600E+00  1.96489251E+00  1.93120765E+00  2.03173865E+00  1.96576518E+00
  1.91427794E+00  2.00800217E+00  2.10521705E+00  1.88024401E+00
%FLAG DIHEDRAL_FORCE_CONSTANT                                                   
%FORMAT(5E16.8)                                                                 
  0.00000000E+00  2.17500000E+00  1.55555556E-01  6.65000000E+00  1.30000000E-01
  1.20000000E-01  1.10000000E+00  1.05000000E+01
%FLAG DIHEDRAL_PERIODICITY                                                      
%FORMAT(5E16.8)                                                                 
  2.00000000E+00  2.00000000E+00  3.00000000E+00  2.00000000E+00  3.00000000E+00
  3.00000000E+00  2.00000000E+00  2.00000000E+00
%FLAG DIHEDRAL_PHASE                                                            
%FORMAT(5E16.8)                                                                 
  0.00000000E+00  3.14159400E+00  0.00000000E+00  3.14159400E+00  0.00000000E+00
  0.00000000E+00  3.14159400E+00  3.14159400E+00
%FLAG SCEE_SCALE_FACTOR                                                         
%FORMAT(5E16.8)                                                                 
  1.20000000E+00  1.20000000E+00  1.20000000E+00  1.20000000E+00  1.20000000E+00
  1.20000000E+00  0.00000000E+00  0.00000000E+00
%FLAG SCNB_SCALE_FACTOR                                                         
%FORMAT(5E16.8)                                                                 
  2.00000000E+00  2.00000000E+00  2.00000000E+00  2.00000000E+00  2.00000000E+00
  2.00000000E+00  0.00000000E+00  0.00000000E+00
%FLAG SOLTY                                                                     
%FORMAT(5E16.8)                                                                 
  0.00000000E+00  0.00000000E+00  0.00000000E+00  0.00000000E+00  0.00000000E+00
  0.00000000E+00  0.00000000E+00  0.00000000E+00
%FLAG LENNARD_JONES_ACOEF                                                       
%FORMAT(5E16.8)                                                                 
  6.96551276E+05  8.43969952E+05  1.02073671E+06  5.17507491E+05  6.30925504E+05
  3.76435470E+05  7.52549148E+04  9.27554496E+04  5.27277400E+04  6.90855956E+03
  6.27751680E+04  7.75673747E+04  4.36069364E+04  5.62610481E+03  4.56536476E+03
  8.12662403E+04  1.00235148E+05  5.68021765E+04  7.41026906E+03  6.02863188E+03
  7.94617769E+03
%FLAG LENNARD_JONES_BCOEF                                                       
%FORMAT(5E16.8)                                                                 
  5.24668528E+02  5.90251928E+02  6.63431737E+02  4.98871431E+02  5.62969425E+02
  4.69350655E+02  1.09570372E+02  1.24325688E+02  1.01173582E+02  2.10929191E+01
  1.00073628E+02  1.13692208E+02  9.20079458E+01  1.90347353E+01  1.71467049E+01
  1.21392023E+02  1.37787728E+02  1.11953944E+02  2.32899892E+01  2.10068861E+01
  2.57122925E+01
%FLAG BONDS_INC_HYDROGEN                                                        
%FORMAT(10I8)                                                                   
       0      21       3       3      24       5       6      27       7       9
      30       9       9      33       9       9      36       9      12      39
       9      12      42       9      15      45       9      15      48       9
%FLAG BONDS_WITHOUT_HYDROGEN                                                    
%FORMAT(10I8)                                                                   
       0       3       1       0       6       2       3      12       4       6
      18       6       9      15       8      12      15       8
%FLAG ANGLES_INC_HYDROGEN                                                       
%FORMAT(10I8)                                                                   
       0       3      24       2       0       6      27       4       3       0
      21       6       3      12      39       8       3      12      42       8
       6       0      21       9       9      15      45      11       9      15
      48      11      12       3      24      12      12      15      45      11
      12      15      48      11      15       9      30      11      15       9
      33      11      15       9      36      11      15      12      39      11
      15      12      42      11      18       6      27      13      30       9
      33      14      30       9      36      14      33       9      36      14
      39      12      42      14      45      15      48      14
%FLAG ANGLES_WITHOUT_HYDROGEN                                                   
%FORMAT(10I8)                                                                   
       0       3      12       1       0       6      18       3       3       0
       6       5       3      12      15       7       9      15      12      10
%FLAG DIHEDRALS_INC_HYDROGEN                                                    
%FORMAT(10I8)                                                                   
       0       3      12      39       1       0       3      12      42       1
       3       0       6      27       2       3      12      15      45       3
       3      12      15      48       3       6       0       3      24       4
       9      15      12      39       5       9      15      12      42       5
      21       0       3      12       4      12      15       9      30       5
      12      15       9      33       5      12      15       9      36       5
      15      12       3      24       1      21       0       6      18       2
      21       0       3      24       4      21       0       6      27       2
      24       3      12      39       1      24       3      12      42       1
      30       9      15      45       6      30       9      15      48       6
      33       9      15      45       6      33       9      15      48       6
      36       9      15      45       6      36       9      15      48       6
      39      12      15      45       6      39      12      15      48       6
      42      12      15      45       6      42      12      15      48       6
      21       0      -3      -6       7      12       0      -3     -24       7
       0      27      -6     -18       8
%FLAG DIHEDRALS_WITHOUT_HYDROGEN                                                
%FORMAT(10I8)                                                                   
       0       3      12      15       1       3       0       6      18       2
       3      12      15       9       3       6       0       3      12       4
%FLAG EXCLUDED_ATOMS_LIST                                                       
%FORMAT(10I8)                                                                   
       2       3       5       6       7       8       9      10      14      15
       3       4       5       6       7       8       9      10      14      15
      16      17       5       7       8       9      10       5       6      11
      12      13      14      15      16      17       6       8       9      11
      12      13      14      15      16      17       9      11      12      13
      14      15      16      17       8      10       9      10      14      15
       0      12      13      16      17      13      16      17      16      17
      15      16      17      16      17      17       0
%FLAG HBOND_ACOEF                                                               
%FORMAT(5E16.8)                                                                 

%FLAG HBOND_BCOEF                                                               
%FORMAT(5E16.8)                                                                 

%FLAG HBCUT                                                                     
%FORMAT(5E16.8)                                                                 

%FLAG AMBER_ATOM_TYPE                                                           
%FORMAT(20a4)                                                                   
ce  c2  c   c3  c3  c3  o   ha  ha  h4  hc  hc  hc  hc  hc  hc  hc  
%FLAG TREE_CHAIN_CLASSIFICATION                                                 
%FORMAT(20a4)                                                                   
BLA BLA BLA BLA BLA BLA BLA BLA BLA BLA BLA BLA BLA BLA BLA BLA BLA 
%FLAG JOIN_ARRAY                                                                
%FORMAT(10I8)                                                                   
       0       0       0       0       0       0       0       0       0       0
       0       0       0       0       0       0       0
%FLAG IROTAT                                                                    
%FORMAT(10I8)                                                                   
       0       0       0       0       0       0       0       0       0       0
       0       0       0       0       0       0       0
%FLAG RADIUS_SET                                                                
%FORMAT(1a80)                                                                   
modified Bondi radii (mbondi)                                                   
%FLAG RADII                                                                     
%FORMAT(5E16.8)                                                                 
  1.70000000E+00  1.70000000E+00  1.70000000E+00  1.70000000E+00  1.70000000E+00
  1.70000000E+00  1.50000000E+00  1.30000000E+00  1.30000000E+00  1.30000000E+00
  1.30000000E+00  1.30000000E+00  1.30000000E+00  1.30000000E+00  1.30000000E+00
  1.30000000E+00  1.30000000E+00
%FLAG SCREEN                                                                    
%FORMAT(5E16.8)                                                                 
  7.20000000E-01  7.20000000E-01  7.20000000E-01  7.20000000E-01  7.20000000E-01
  7.20000000E-01  8.50000000E-01  8.50000000E-01  8.50000000E-01  8.50000000E-01
  8.50000000E-01  8.50000000E-01  8.50000000E-01  8.50000000E-01  8.50000000E-01
  8.50000000E-01  8.50000000E-01
%FLAG IPOL                                                                      
%FORMAT(1I8)                                                                    
       0
