; mobley_2792521_GMX_OPLS.itp created by acpype (v: 2023.10.27) on Wed May 20 23:42:45 2026

; For OPLS atomtypes manual fine tuning
; AC_at:OPLS_at:OPLScode: Possible_Alternatives (see ffoplsaa.atp and ffoplsaanb.itp)
; ce:x:opls_x: []
; c2:CR:opls_509: ['510']
; c:C:opls_235: ['271']
; c3:CT:opls_135: ['136', '137', '149', '157', '158', '206', '209', '210', '223B', '224B', '245', '246', '274', '283', '284', '285', '292', '292B', '293B', '296', '307', '308', '505']
; o:O:opls_236: ['272']
; ha:HA:opls_146: []
; h4:HA:opls_146: []
; hc:HC:opls_140: []

[ moleculetype ]
;name            nrexcl
 mobley_2792521   3

[ atoms ]
;   nr  type  resi  res  atom  cgnr     charge      mass       ; qtot   bond_type
     1 opls_x     1   MOL    C1    1    -0.280200      0.00000 ; qtot -0.280  x   
     2 opls_509     1   MOL    C2    2    -0.090200     12.01100 ; qtot -0.370  CR  
     3 opls_235     1   MOL    C3    3     0.560101     12.01100 ; qtot  0.190  C   
     4 opls_135     1   MOL    C4    4    -0.094100     12.01100 ; qtot  0.096  CT  
     5 opls_135     1   MOL    C5    5    -0.065200     12.01100 ; qtot  0.030  CT  
     6 opls_135     1   MOL    C6    6    -0.078400     12.01100 ; qtot -0.048  CT  
     7 opls_236     1   MOL    O1    7    -0.526100     15.99940 ; qtot -0.574  O   
     8 opls_146     1   MOL    H1    8     0.149000      1.00800 ; qtot -0.425  HA  
     9 opls_146     1   MOL    H2    9     0.124000      1.00800 ; qtot -0.301  HA  
    10 opls_146     1   MOL    H3   10    -0.009800      1.00800 ; qtot -0.311  HA  
    11 opls_140     1   MOL    H4   11     0.036033      1.00800 ; qtot -0.275  HC  
    12 opls_140     1   MOL    H5   12     0.036033      1.00800 ; qtot -0.239  HC  
    13 opls_140     1   MOL    H6   13     0.036033      1.00800 ; qtot -0.203  HC  
    14 opls_140     1   MOL    H7   14     0.058200      1.00800 ; qtot -0.145  HC  
    15 opls_140     1   MOL    H8   15     0.058200      1.00800 ; qtot -0.086  HC  
    16 opls_140     1   MOL    H9   16     0.043200      1.00800 ; qtot -0.043  HC  
    17 opls_140     1   MOL   H10   17     0.043200      1.00800 ; qtot  0.000  HC  

[ bonds ]
;   ai     aj funct   r             k
     1      2   1 ;    1.3457e-01    3.5505e+05 ;     C1 - C2          x - CR    
     1      3   1 ;    1.4848e-01    2.2406e+05 ;     C1 - C3          x - C     
     1      8   1 ;    1.0880e-01    2.9923e+05 ;     C1 - H1          x - HA    
     2      5   1 ;    1.5088e-01    2.0786e+05 ;     C2 - C5         CR - CT    
     2      9   1 ;    1.0882e-01    2.9898e+05 ;     C2 - H2         CR - HA    
     3      7   1 ;    1.2190e-01    4.9421e+05 ;     C3 - O1          C - O     
     3     10   1 ;    1.1123e-01    2.6984e+05 ;     C3 - H3          C - HA    
     4      6   1 ;    1.5354e-01    1.9154e+05 ;     C4 - C6         CT - CT    
     4     11   1 ;    1.0962e-01    2.8891e+05 ;     C4 - H4         CT - HC    
     4     12   1 ;    1.0962e-01    2.8891e+05 ;     C4 - H5         CT - HC    
     4     13   1 ;    1.0962e-01    2.8891e+05 ;     C4 - H6         CT - HC    
     5      6   1 ;    1.5354e-01    1.9154e+05 ;     C5 - C6         CT - CT    
     5     14   1 ;    1.0962e-01    2.8891e+05 ;     C5 - H7         CT - HC    
     5     15   1 ;    1.0962e-01    2.8891e+05 ;     C5 - H8         CT - HC    
     6     16   1 ;    1.0962e-01    2.8891e+05 ;     C6 - H9         CT - HC    
     6     17   1 ;    1.0962e-01    2.8891e+05 ;     C6 - H10        CT - HC    

[ pairs ]
;   ai     aj    funct
     1      6      1 ;     C1 - C6    
     1     14      1 ;     C1 - H7    
     1     15      1 ;     C1 - H8    
     2      4      1 ;     C2 - C4    
     2      7      1 ;     C2 - O1    
     2     10      1 ;     C2 - H3    
     2     16      1 ;     C2 - H9    
     2     17      1 ;     C2 - H10   
     3      5      1 ;     C3 - C5    
     3      9      1 ;     C3 - H2    
     4     14      1 ;     C4 - H7    
     4     15      1 ;     C4 - H8    
     5     11      1 ;     C5 - H4    
     5     12      1 ;     C5 - H5    
     5     13      1 ;     C5 - H6    
     6      9      1 ;     C6 - H2    
     8      5      1 ;     H1 - C5    
     8      7      1 ;     H1 - O1    
     8      9      1 ;     H1 - H2    
     8     10      1 ;     H1 - H3    
     9     14      1 ;     H2 - H7    
     9     15      1 ;     H2 - H8    
    11     16      1 ;     H4 - H9    
    11     17      1 ;     H4 - H10   
    12     16      1 ;     H5 - H9    
    12     17      1 ;     H5 - H10   
    13     16      1 ;     H6 - H9    
    13     17      1 ;     H6 - H10   
    14     16      1 ;     H7 - H9    
    14     17      1 ;     H7 - H10   
    15     16      1 ;     H8 - H9    
    15     17      1 ;     H8 - H10   

[ angles ]
;   ai     aj     ak    funct   theta         cth
     1      2      5      1 ;    1.2558e+02    5.0710e+02 ;     C1 - C2   - C5        x -   CR - CT  
     1      2      9      1 ;    1.2049e+02    3.8618e+02 ;     C1 - C2   - H2        x -   CR - HA  
     1      3      7      1 ;    1.2324e+02    6.5262e+02 ;     C1 - C3   - O1        x -    C - O   
     1      3     10      1 ;    1.1489e+02    3.6376e+02 ;     C1 - C3   - H3        x -    C - HA  
     2      1      3      1 ;    1.2200e+02    5.1974e+02 ;     C2 - C1   - C3       CR -    x - C   
     2      1      8      1 ;    1.2000e+02    3.8694e+02 ;     C2 - C1   - H1       CR -    x - HA  
     2      5      6      1 ;    1.1258e+02    5.0543e+02 ;     C2 - C5   - C6       CR -   CT - CT  
     2      5     14      1 ;    1.1065e+02    3.6618e+02 ;     C2 - C5   - H7       CR -   CT - HC  
     2      5     15      1 ;    1.1065e+02    3.6618e+02 ;     C2 - C5   - H8       CR -   CT - HC  
     3      1      8      1 ;    1.1641e+02    3.6242e+02 ;     C3 - C1   - H1        C -    x - HA  
     4      6      5      1 ;    1.1263e+02    5.0099e+02 ;     C4 - C6   - C5       CT -   CT - CT  
     4      6     16      1 ;    1.0968e+02    3.6208e+02 ;     C4 - C6   - H9       CT -   CT - HC  
     4      6     17      1 ;    1.0968e+02    3.6208e+02 ;     C4 - C6   - H10      CT -   CT - HC  
     5      2      9      1 ;    1.1505e+02    3.5941e+02 ;     C5 - C2   - H2       CT -   CR - HA  
     5      6     16      1 ;    1.0968e+02    3.6208e+02 ;     C5 - C6   - H9       CT -   CT - HC  
     5      6     17      1 ;    1.0968e+02    3.6208e+02 ;     C5 - C6   - H10      CT -   CT - HC  
     6      4     11      1 ;    1.0968e+02    3.6208e+02 ;     C6 - C4   - H4       CT -   CT - HC  
     6      4     12      1 ;    1.0968e+02    3.6208e+02 ;     C6 - C4   - H5       CT -   CT - HC  
     6      4     13      1 ;    1.0968e+02    3.6208e+02 ;     C6 - C4   - H6       CT -   CT - HC  
     6      5     14      1 ;    1.0968e+02    3.6208e+02 ;     C6 - C5   - H7       CT -   CT - HC  
     6      5     15      1 ;    1.0968e+02    3.6208e+02 ;     C6 - C5   - H8       CT -   CT - HC  
     7      3     10      1 ;    1.2062e+02    5.0191e+02 ;     O1 - C3   - H3        O -    C - HA  
    11      4     12      1 ;    1.0773e+02    2.9957e+02 ;     H4 - C4   - H5       HC -   CT - HC  
    11      4     13      1 ;    1.0773e+02    2.9957e+02 ;     H4 - C4   - H6       HC -   CT - HC  
    12      4     13      1 ;    1.0773e+02    2.9957e+02 ;     H5 - C4   - H6       HC -   CT - HC  
    14      5     15      1 ;    1.0773e+02    2.9957e+02 ;     H7 - C5   - H8       HC -   CT - HC  
    16      6     17      1 ;    1.0773e+02    2.9957e+02 ;     H9 - C6   - H10      HC -   CT - HC  

[ dihedrals ] ; propers
; for gromacs 4.5 or higher, using funct 9
;    i      j      k      l   func   phase     kd      pn
     1      2      5      6      9 ;     0.00   0.00000   0 ;     C1-    C2-    C5-    C6
     1      2      5     14      9 ;     0.00   0.00000   0 ;     C1-    C2-    C5-    H7
     1      2      5     15      9 ;     0.00   0.00000   0 ;     C1-    C2-    C5-    H8
     2      1      3      7      9 ;   180.00   9.10020   2 ;     C2-    C1-    C3-    O1
     2      1      3     10      9 ;   180.00   9.10020   2 ;     C2-    C1-    C3-    H3
     2      5      6      4      9 ;     0.00   0.65084   3 ;     C2-    C5-    C6-    C4
     2      5      6     16      9 ;     0.00   0.65084   3 ;     C2-    C5-    C6-    H9
     2      5      6     17      9 ;     0.00   0.65084   3 ;     C2-    C5-    C6-   H10
     3      1      2      5      9 ;   180.00  27.82360   2 ;     C3-    C1-    C2-    C5
     3      1      2      9      9 ;   180.00  27.82360   2 ;     C3-    C1-    C2-    H2
     4      6      5     14      9 ;     0.00   0.54392   3 ;     C4-    C6-    C5-    H7
     4      6      5     15      9 ;     0.00   0.54392   3 ;     C4-    C6-    C5-    H8
     5      6      4     11      9 ;     0.00   0.54392   3 ;     C5-    C6-    C4-    H4
     5      6      4     12      9 ;     0.00   0.54392   3 ;     C5-    C6-    C4-    H5
     5      6      4     13      9 ;     0.00   0.54392   3 ;     C5-    C6-    C4-    H6
     6      5      2      9      9 ;     0.00   0.00000   0 ;     C6-    C5-    C2-    H2
     8      1      2      5      9 ;   180.00  27.82360   2 ;     H1-    C1-    C2-    C5
     8      1      2      9      9 ;   180.00  27.82360   2 ;     H1-    C1-    C2-    H2
     8      1      3      7      9 ;   180.00   9.10020   2 ;     H1-    C1-    C3-    O1
     8      1      3     10      9 ;   180.00   9.10020   2 ;     H1-    C1-    C3-    H3
     9      2      5     14      9 ;     0.00   0.00000   0 ;     H2-    C2-    C5-    H7
     9      2      5     15      9 ;     0.00   0.00000   0 ;     H2-    C2-    C5-    H8
    11      4      6     16      9 ;     0.00   0.50208   3 ;     H4-    C4-    C6-    H9
    11      4      6     17      9 ;     0.00   0.50208   3 ;     H4-    C4-    C6-   H10
    12      4      6     16      9 ;     0.00   0.50208   3 ;     H5-    C4-    C6-    H9
    12      4      6     17      9 ;     0.00   0.50208   3 ;     H5-    C4-    C6-   H10
    13      4      6     16      9 ;     0.00   0.50208   3 ;     H6-    C4-    C6-    H9
    13      4      6     17      9 ;     0.00   0.50208   3 ;     H6-    C4-    C6-   H10
    14      5      6     16      9 ;     0.00   0.50208   3 ;     H7-    C5-    C6-    H9
    14      5      6     17      9 ;     0.00   0.50208   3 ;     H7-    C5-    C6-   H10
    15      5      6     16      9 ;     0.00   0.50208   3 ;     H8-    C5-    C6-    H9
    15      5      6     17      9 ;     0.00   0.50208   3 ;     H8-    C5-    C6-   H10

[ dihedrals ] ; impropers
; treated as propers in GROMACS to use correct AMBER analytical function
;    i      j      k      l   func   phase     kd      pn
     1     10      3      7      4 ;   180.00  43.93200   2 ;     C1-    H3-    C3-    O1
     5      1      2      9      4 ;   180.00   4.60240   2 ;     C5-    C1-    C2-    H2
     8      1      2      3      4 ;   180.00   4.60240   2 ;     H1-    C1-    C2-    C3
