E_hex_2_enal
    17
   1.8260000   0.1300000  -1.0400000   0.9950000   0.4380000  -0.0380000
   1.4150000  -0.8860000  -2.0280000   1.6140000   1.8760000   3.4820000
   1.3140000   1.4610000   1.0140000   1.2640000   0.8510000   2.4150000
   2.1350000  -1.2060000  -2.9660000   2.7960000   0.5970000  -1.1590000
   0.0270000  -0.0520000   0.0420000   0.4220000  -1.3410000  -1.8770000
   2.6240000   2.2700000   3.3310000   0.9110000   2.7150000   3.4650000
   1.5730000   1.4190000   4.4760000   2.3030000   1.9030000   0.8400000
   0.5850000   2.2770000   0.9380000   0.2620000   0.4520000   2.6170000
   1.9640000   0.0090000   2.4840000
