mobley_9414831_GMX.gro created by acpype (v: 2023.10.27) on Tue May 19 14:13:26 2026
 2391
    1MOL     C1    1   2.088   2.447   2.395
    1MOL     C2    2   2.179   2.550   2.374
    1MOL     C3    3   2.449   2.122   2.362
    1MOL     C4    4   2.132   2.314   2.397
    1MOL     C5    5   2.314   2.521   2.355
    1MOL     C6    6   2.314   2.151   2.381
    1MOL     C7    7   2.540   2.225   2.341
    1MOL     C8    8   2.268   2.284   2.379
    1MOL     C9    9   2.360   2.388   2.357
    1MOL    C10   10   2.496   2.357   2.339
    1MOL    C11   11   2.599   2.464   2.316
    1MOL     H1   12   1.983   2.469   2.409
    1MOL     H2   13   2.145   2.653   2.372
    1MOL     H3   14   2.483   2.019   2.364
    1MOL     H4   15   2.059   2.235   2.414
    1MOL     H5   16   2.382   2.604   2.339
    1MOL     H6   17   2.244   2.068   2.397
    1MOL     H7   18   2.645   2.201   2.327
    1MOL     H8   19   2.669   2.467   2.400
    1MOL     H9   20   2.656   2.444   2.224
    1MOL    H10   21   2.552   2.562   2.304
   14SOL     OW   22   1.460   1.505   1.339
   14SOL    HW1   23   1.484   1.599   1.365
   14SOL    HW2   24   1.444   1.451   1.421
   18SOL     OW   25   1.127   1.341   1.690
   18SOL    HW1   26   1.174   1.341   1.778
   18SOL    HW2   27   1.079   1.254   1.679
   35SOL     OW   28   1.187   1.792   1.616
   35SOL    HW1   29   1.211   1.852   1.540
   35SOL    HW2   30   1.194   1.697   1.586
   56SOL     OW   31   1.227   1.550   1.506
   56SOL    HW1   32   1.233   1.473   1.570
   56SOL    HW2   33   1.175   1.524   1.426
   95SOL     OW   34   1.754   1.223   1.588
   95SOL    HW1   35   1.845   1.184   1.575
   95SOL    HW2   36   1.762   1.319   1.612
   97SOL     OW   37   1.592   1.629   1.625
   97SOL    HW1   38   1.619   1.663   1.535
   97SOL    HW2   39   1.671   1.591   1.671
  122SOL     OW   40   1.728   0.935   1.854
  122SOL    HW1   41   1.682   0.928   1.765
  122SOL    HW2   42   1.666   0.979   1.920
  126SOL     OW   43   0.980   1.573   1.700
  126SOL    HW1   44   0.960   1.617   1.612
  126SOL    HW2   45   1.019   1.482   1.684
  127SOL     OW   46   1.859   1.518   1.605
  127SOL    HW1   47   1.873   1.545   1.510
  127SOL    HW2   48   1.942   1.540   1.658
  152SOL     OW   49   1.759   1.747   1.154
  152SOL    HW1   50   1.820   1.777   1.081
  152SOL    HW2   51   1.721   1.658   1.132
  153SOL     OW   52   1.252   1.731   1.128
  153SOL    HW1   53   1.336   1.736   1.074
  153SOL    HW2   54   1.229   1.635   1.146
  163SOL     OW   55   1.650   1.720   1.394
  163SOL    HW1   56   1.703   1.730   1.310
  163SOL    HW2   57   1.623   1.810   1.428
  171SOL     OW   58   1.614   1.292   1.289
  171SOL    HW1   59   1.674   1.295   1.369
  171SOL    HW2   60   1.539   1.356   1.302
  184SOL     OW   61   1.493   1.767   0.959
  184SOL    HW1   62   1.526   1.831   0.890
  184SOL    HW2   63   1.559   1.761   1.034
  186SOL     OW   64   1.450   1.220   1.633
  186SOL    HW1   65   1.441   1.210   1.732
  186SOL    HW2   66   1.546   1.213   1.607
  192SOL     OW   67   1.730   0.934   1.517
  192SOL    HW1   68   1.768   1.025   1.532
  192SOL    HW2   69   1.722   0.917   1.418
  197SOL     OW   70   1.861   1.569   0.851
  197SOL    HW1   71   1.790   1.557   0.781
  197SOL    HW2   72   1.862   1.490   0.911
  203SOL     OW   73   1.705   1.487   1.104
  203SOL    HW1   74   1.612   1.462   1.077
  203SOL    HW2   75   1.731   1.437   1.186
  219SOL     OW   76   1.555   1.511   2.565
  219SOL    HW1   77   1.498   1.495   2.646
  219SOL    HW2   78   1.496   1.521   2.485
  227SOL     OW   79   1.460   1.505   3.201
  227SOL    HW1   80   1.484   1.599   3.227
  227SOL    HW2   81   1.444   1.451   3.283
  238SOL     OW   82   1.842   1.767   2.221
  238SOL    HW1   83   1.896   1.738   2.301
  238SOL    HW2   84   1.872   1.857   2.192
  240SOL     OW   85   1.689   0.922   2.474
  240SOL    HW1   86   1.784   0.893   2.482
  240SOL    HW2   87   1.681   0.987   2.399
  241SOL     OW   88   1.641   1.108   2.294
  241SOL    HW1   89   1.727   1.110   2.242
  241SOL    HW2   90   1.655   1.155   2.382
  247SOL     OW   91   1.525   0.999   2.052
  247SOL    HW1   92   1.462   0.923   2.065
  247SOL    HW2   93   1.573   1.017   2.138
  248SOL     OW   94   1.187   1.792   3.478
  248SOL    HW1   95   1.211   1.852   3.402
  248SOL    HW2   96   1.194   1.697   3.448
  250SOL     OW   97   1.466   1.417   2.815
  250SOL    HW1   98   1.407   1.423   2.895
  250SOL    HW2   99   1.451   1.329   2.769
  251SOL     OW  100   1.667   1.714   2.434
  251SOL    HW1  101   1.626   1.691   2.346
  251SOL    HW2  102   1.649   1.640   2.499
  254SOL     OW  103   1.576   1.662   2.169
  254SOL    HW1  104   1.665   1.708   2.172
  254SOL    HW2  105   1.555   1.638   2.074
  264SOL     OW  106   1.362   1.144   2.407
  264SOL    HW1  107   1.445   1.115   2.359
  264SOL    HW2  108   1.313   1.211   2.351
  266SOL     OW  109   1.008   1.456   2.339
  266SOL    HW1  110   0.962   1.528   2.287
  266SOL    HW2  111   1.004   1.476   2.437
  268SOL     OW  112   1.795   1.066   2.735
  268SOL    HW1  113   1.733   1.051   2.659
  268SOL    HW2  114   1.743   1.077   2.820
  269SOL     OW  115   1.227   1.550   3.368
  269SOL    HW1  116   1.233   1.473   3.432
  269SOL    HW2  117   1.175   1.524   3.288
  273SOL     OW  118   1.111   1.776   2.099
  273SOL    HW1  119   1.051   1.714   2.149
  273SOL    HW2  120   1.142   1.732   2.014
  275SOL     OW  121   1.632   1.377   1.943
  275SOL    HW1  122   1.600   1.471   1.933
  275SOL    HW2  123   1.556   1.314   1.931
  279SOL     OW  124   0.940   1.698   2.766
  279SOL    HW1  125   1.020   1.641   2.787
  279SOL    HW2  126   0.891   1.658   2.689
  289SOL     OW  127   1.434   1.188   1.903
  289SOL    HW1  128   1.466   1.112   1.960
  289SOL    HW2  129   1.342   1.215   1.933
  293SOL     OW  130   1.227   1.570   2.655
  293SOL    HW1  131   1.248   1.644   2.590
  293SOL    HW2  132   1.295   1.570   2.728
  295SOL     OW  133   1.271   1.797   2.453
  295SOL    HW1  134   1.315   1.861   2.389
  295SOL    HW2  135   1.221   1.849   2.523
  301SOL     OW  136   1.429   1.173   2.729
  301SOL    HW1  137   1.374   1.089   2.722
  301SOL    HW2  138   1.455   1.202   2.637
  303SOL     OW  139   1.857   0.833   2.239
  303SOL    HW1  140   1.899   0.769   2.303
  303SOL    HW2  141   1.819   0.782   2.161
  305SOL     OW  142   1.664   1.280   2.519
  305SOL    HW1  143   1.763   1.288   2.533
  305SOL    HW2  144   1.619   1.364   2.550
  308SOL     OW  145   1.754   1.223   3.450
  308SOL    HW1  146   1.845   1.184   3.437
  308SOL    HW2  147   1.762   1.319   3.474
  310SOL     OW  148   1.592   1.629   3.487
  310SOL    HW1  149   1.619   1.663   3.397
  310SOL    HW2  150   1.671   1.591   3.533
  312SOL     OW  151   1.638   1.099   2.941
  312SOL    HW1  152   1.643   1.180   3.000
  312SOL    HW2  153   1.552   1.101   2.890
  321SOL     OW  154   1.252   1.348   2.250
  321SOL    HW1  155   1.302   1.425   2.290
  321SOL    HW2  156   1.157   1.350   2.282
  322SOL     OW  157   1.272   1.445   3.004
  322SOL    HW1  158   1.319   1.458   3.091
  322SOL    HW2  159   1.206   1.371   3.013
  340SOL     OW  160   1.859   1.518   3.467
  340SOL    HW1  161   1.873   1.545   3.372
  340SOL    HW2  162   1.942   1.540   3.520
  344SOL     OW  163   1.068   1.333   2.711
  344SOL    HW1  164   1.075   1.249   2.656
  344SOL    HW2  165   1.130   1.402   2.675
  365SOL     OW  166   1.759   1.747   3.016
  365SOL    HW1  167   1.820   1.777   2.943
  365SOL    HW2  168   1.721   1.658   2.994
  366SOL     OW  169   1.252   1.731   2.990
  366SOL    HW1  170   1.336   1.736   2.936
  366SOL    HW2  171   1.229   1.635   3.008
  370SOL     OW  172   1.388   1.573   2.339
  370SOL    HW1  173   1.455   1.585   2.265
  370SOL    HW2  174   1.348   1.662   2.362
  375SOL     OW  175   1.650   1.720   3.256
  375SOL    HW1  176   1.703   1.730   3.172
  375SOL    HW2  177   1.623   1.810   3.290
  378SOL     OW  178   1.194   1.612   1.893
  378SOL    HW1  179   1.200   1.519   1.930
  378SOL    HW2  180   1.135   1.612   1.813
  381SOL     OW  181   1.504   1.607   1.906
  381SOL    HW1  182   1.412   1.644   1.913
  381SOL    HW2  183   1.542   1.627   1.816
  383SOL     OW  184   1.614   1.292   3.151
  383SOL    HW1  185   1.674   1.295   3.231
  383SOL    HW2  186   1.539   1.356   3.164
  394SOL     OW  187   1.183   1.335   1.981
  394SOL    HW1  188   1.084   1.324   1.983
  394SOL    HW2  189   1.217   1.350   2.074
  396SOL     OW  190   1.493   1.767   2.821
  396SOL    HW1  191   1.526   1.831   2.752
  396SOL    HW2  192   1.559   1.761   2.896
  400SOL     OW  193   1.674   0.883   3.116
  400SOL    HW1  194   1.647   0.794   3.079
  400SOL    HW2  195   1.675   0.951   3.043
  409SOL     OW  196   1.861   1.569   2.713
  409SOL    HW1  197   1.790   1.557   2.643
  409SOL    HW2  198   1.862   1.490   2.773
  415SOL     OW  199   1.705   1.487   2.966
  415SOL    HW1  200   1.612   1.462   2.939
  415SOL    HW2  201   1.731   1.437   3.048
  417SOL     OW  202   0.812   1.586   2.549
  417SOL    HW1  203   0.844   1.596   2.455
  417SOL    HW2  204   0.733   1.524   2.551
  426SOL     OW  205   0.875   1.646   2.199
  426SOL    HW1  206   0.798   1.611   2.145
  426SOL    HW2  207   0.843   1.717   2.261
  543SOL     OW  208   0.850   2.660   1.823
  543SOL    HW1  209   0.846   2.736   1.888
  543SOL    HW2  210   0.872   2.696   1.732
  547SOL     OW  211   1.460   3.367   1.339
  547SOL    HW1  212   1.484   3.461   1.365
  547SOL    HW2  213   1.444   3.313   1.421
  549SOL     OW  214   1.603   2.309   0.737
  549SOL    HW1  215   1.529   2.355   0.687
  549SOL    HW2  216   1.654   2.377   0.790
  551SOL     OW  217   1.127   3.203   1.690
  551SOL    HW1  218   1.174   3.203   1.778
  551SOL    HW2  219   1.079   3.116   1.679
  556SOL     OW  220   1.594   1.976   1.480
  556SOL    HW1  221   1.576   2.043   1.408
  556SOL    HW2  222   1.591   2.022   1.569
  564SOL     OW  223   1.293   3.090   1.423
  564SOL    HW1  224   1.330   3.017   1.365
  564SOL    HW2  225   1.345   3.095   1.508
  573SOL     OW  226   1.281   2.207   0.944
  573SOL    HW1  227   1.195   2.157   0.931
  573SOL    HW2  228   1.343   2.153   1.000
  575SOL     OW  229   0.807   2.467   1.465
  575SOL    HW1  230   0.760   2.464   1.554
  575SOL    HW2  231   0.756   2.412   1.399
  576SOL     OW  232   1.394   2.331   1.674
  576SOL    HW1  233   1.374   2.374   1.762
  576SOL    HW2  234   1.472   2.269   1.683
  577SOL     OW  235   0.973   2.752   1.572
  577SOL    HW1  236   1.019   2.668   1.543
  577SOL    HW2  237   0.917   2.786   1.497
  578SOL     OW  238   0.991   2.272   1.242
  578SOL    HW1  239   0.914   2.306   1.296
  578SOL    HW2  240   0.957   2.221   1.163
  583SOL     OW  241   1.719   2.447   1.831
  583SOL    HW1  242   1.693   2.536   1.795
  583SOL    HW2  243   1.717   2.379   1.758
  588SOL     OW  244   1.795   2.928   0.873
  588SOL    HW1  245   1.733   2.913   0.797
  588SOL    HW2  246   1.743   2.939   0.958
  589SOL     OW  247   1.227   3.412   1.506
  589SOL    HW1  248   1.233   3.335   1.570
  589SOL    HW2  249   1.175   3.386   1.426
  601SOL     OW  250   1.547   2.084   1.729
  601SOL    HW1  251   1.542   2.121   1.821
  601SOL    HW2  252   1.475   2.015   1.717
  602SOL     OW  253   0.781   2.126   1.749
  602SOL    HW1  254   0.848   2.065   1.792
  602SOL    HW2  255   0.708   2.145   1.814
  604SOL     OW  256   1.351   2.452   1.433
  604SOL    HW1  257   1.379   2.409   1.518
  604SOL    HW2  258   1.376   2.548   1.434
  611SOL     OW  259   1.076   2.545   1.464
  611SOL    HW1  260   0.996   2.484   1.467
  611SOL    HW2  261   1.157   2.492   1.440
  621SOL     OW  262   1.466   2.452   0.992
  621SOL    HW1  263   1.436   2.357   0.999
  621SOL    HW2  264   1.539   2.468   1.058
  627SOL     OW  265   1.754   3.085   1.588
  627SOL    HW1  266   1.845   3.046   1.575
  627SOL    HW2  267   1.762   3.181   1.612
  629SOL     OW  268   1.592   3.491   1.625
  629SOL    HW1  269   1.619   3.525   1.535
  629SOL    HW2  270   1.671   3.453   1.671
  631SOL     OW  271   1.638   2.961   1.079
  631SOL    HW1  272   1.643   3.042   1.138
  631SOL    HW2  273   1.552   2.963   1.028
  632SOL     OW  274   0.915   1.951   1.402
  632SOL    HW1  275   0.940   1.931   1.307
  632SOL    HW2  276   0.987   2.007   1.444
  633SOL     OW  277   0.980   2.978   1.719
  633SOL    HW1  278   0.881   2.984   1.729
  633SOL    HW2  279   1.003   2.898   1.663
  636SOL     OW  280   1.274   2.248   1.262
  636SOL    HW1  281   1.295   2.322   1.326
  636SOL    HW2  282   1.185   2.265   1.219
  645SOL     OW  283   1.587   2.641   1.670
  645SOL    HW1  284   1.495   2.679   1.665
  645SOL    HW2  285   1.647   2.688   1.605
  646SOL     OW  286   1.013   1.967   1.770
  646SOL    HW1  287   1.019   2.052   1.718
  646SOL    HW2  288   1.045   1.891   1.713
  649SOL     OW  289   1.360   2.724   1.045
  649SOL    HW1  290   1.285   2.724   0.979
  649SOL    HW2  291   1.397   2.632   1.054
  654SOL     OW  292   1.728   2.797   1.854
  654SOL    HW1  293   1.682   2.790   1.765
  654SOL    HW2  294   1.666   2.841   1.920
  659SOL     OW  295   1.859   3.380   1.605
  659SOL    HW1  296   1.873   3.407   1.510
  659SOL    HW2  297   1.942   3.402   1.658
  666SOL     OW  298   1.138   2.242   1.678
  666SOL    HW1  299   1.093   2.305   1.742
  666SOL    HW2  300   1.231   2.273   1.661
  667SOL     OW  301   1.160   2.069   1.477
  667SOL    HW1  302   1.160   2.133   1.554
  667SOL    HW2  303   1.188   2.117   1.394
  671SOL     OW  304   1.002   2.658   1.238
  671SOL    HW1  305   1.043   2.626   1.324
  671SOL    HW2  306   0.906   2.631   1.235
  674SOL     OW  307   1.369   2.812   1.660
  674SOL    HW1  308   1.408   2.901   1.680
  674SOL    HW2  309   1.379   2.792   1.563
  676SOL     OW  310   1.657   2.466   1.206
  676SOL    HW1  311   1.619   2.397   1.268
  676SOL    HW2  312   1.739   2.430   1.162
  682SOL     OW  313   1.347   2.921   1.234
  682SOL    HW1  314   1.371   2.858   1.160
  682SOL    HW2  315   1.257   2.961   1.216
  695SOL     OW  316   1.650   3.582   1.394
  695SOL    HW1  317   1.703   3.592   1.310
  695SOL    HW2  318   1.623   3.672   1.428
  696SOL     OW  319   1.841   2.037   0.963
  696SOL    HW1  320   1.880   1.952   0.927
  696SOL    HW2  321   1.743   2.039   0.944
  703SOL     OW  322   1.614   3.154   1.289
  703SOL    HW1  323   1.674   3.157   1.369
  703SOL    HW2  324   1.539   3.218   1.302
  707SOL     OW  325   1.709   2.247   1.381
  707SOL    HW1  326   1.782   2.316   1.385
  707SOL    HW2  327   1.737   2.172   1.322
  712SOL     OW  328   1.440   2.718   1.398
  712SOL    HW1  329   1.383   2.770   1.335
  712SOL    HW2  330   1.536   2.730   1.374
  717SOL     OW  331   0.716   2.427   1.708
  717SOL    HW1  332   0.735   2.492   1.782
  717SOL    HW2  333   0.776   2.347   1.717
  718SOL     OW  334   1.450   3.082   1.633
  718SOL    HW1  335   1.441   3.072   1.732
  718SOL    HW2  336   1.546   3.075   1.607
  720SOL     OW  337   1.674   2.745   1.254
  720SOL    HW1  338   1.647   2.656   1.217
  720SOL    HW2  339   1.675   2.813   1.181
  723SOL     OW  340   1.777   2.204   1.642
  723SOL    HW1  341   1.760   2.235   1.548
  723SOL    HW2  342   1.693   2.167   1.680
  724SOL     OW  343   1.730   2.796   1.517
  724SOL    HW1  344   1.768   2.887   1.532
  724SOL    HW2  345   1.722   2.779   1.418
  733SOL     OW  346   1.824   2.054   1.227
  733SOL    HW1  347   1.820   1.964   1.271
  733SOL    HW2  348   1.827   2.043   1.128
  735SOL     OW  349   1.705   3.349   1.104
  735SOL    HW1  350   1.612   3.324   1.077
  735SOL    HW2  351   1.731   3.299   1.186
  738SOL     OW  352   1.424   2.076   1.112
  738SOL    HW1  353   1.476   2.011   1.167
  738SOL    HW2  354   1.375   2.139   1.173
  744SOL     OW  355   1.593   2.083   0.882
  744SOL    HW1  356   1.509   2.082   0.936
  744SOL    HW2  357   1.595   2.166   0.826
  751SOL     OW  358   1.555   3.373   2.565
  751SOL    HW1  359   1.498   3.357   2.646
  751SOL    HW2  360   1.496   3.383   2.485
  752SOL     OW  361   1.135   2.565   2.579
  752SOL    HW1  362   1.192   2.643   2.554
  752SOL    HW2  363   1.075   2.591   2.655
  753SOL     OW  364   1.755   2.469   2.093
  753SOL    HW1  365   1.743   2.456   1.994
  753SOL    HW2  366   1.725   2.388   2.142
  754SOL     OW  367   0.768   3.006   2.885
  754SOL    HW1  368   0.690   3.023   2.945
  754SOL    HW2  369   0.802   3.093   2.849
  756SOL     OW  370   0.685   2.874   2.527
  756SOL    HW1  371   0.754   2.858   2.597
  756SOL    HW2  372   0.612   2.931   2.565
  759SOL     OW  373   1.460   3.367   3.201
  759SOL    HW1  374   1.484   3.461   3.227
  759SOL    HW2  375   1.444   3.313   3.283
  761SOL     OW  376   1.603   2.309   2.599
  761SOL    HW1  377   1.529   2.355   2.549
  761SOL    HW2  378   1.654   2.377   2.652
  768SOL     OW  379   1.594   1.976   3.342
  768SOL    HW1  380   1.576   2.043   3.270
  768SOL    HW2  381   1.591   2.022   3.431
  770SOL     OW  382   1.842   3.629   2.221
  770SOL    HW1  383   1.896   3.600   2.301
  770SOL    HW2  384   1.872   3.719   2.192
  772SOL     OW  385   1.689   2.784   2.474
  772SOL    HW1  386   1.784   2.755   2.482
  772SOL    HW2  387   1.681   2.849   2.399
  773SOL     OW  388   1.641   2.970   2.294
  773SOL    HW1  389   1.727   2.972   2.242
  773SOL    HW2  390   1.655   3.017   2.382
  776SOL     OW  391   1.293   3.090   3.285
  776SOL    HW1  392   1.330   3.017   3.227
  776SOL    HW2  393   1.345   3.095   3.370
  777SOL     OW  394   0.809   1.866   2.364
  777SOL    HW1  395   0.849   1.957   2.355
  777SOL    HW2  396   0.709   1.874   2.370
  779SOL     OW  397   1.525   2.861   2.052
  779SOL    HW1  398   1.462   2.785   2.065
  779SOL    HW2  399   1.573   2.879   2.138
  782SOL     OW  400   1.466   3.279   2.815
  782SOL    HW1  401   1.407   3.285   2.895
  782SOL    HW2  402   1.451   3.191   2.769
  783SOL     OW  403   1.667   3.576   2.434
  783SOL    HW1  404   1.626   3.553   2.346
  783SOL    HW2  405   1.649   3.502   2.499
  784SOL     OW  406   0.598   2.591   2.132
  784SOL    HW1  407   0.622   2.660   2.064
  784SOL    HW2  408   0.520   2.624   2.186
  785SOL     OW  409   1.281   2.207   2.806
  785SOL    HW1  410   1.195   2.157   2.793
  785SOL    HW2  411   1.343   2.153   2.862
  786SOL     OW  412   1.576   3.524   2.169
  786SOL    HW1  413   1.665   3.570   2.172
  786SOL    HW2  414   1.555   3.500   2.074
  788SOL     OW  415   1.394   2.331   3.536
  788SOL    HW1  416   1.374   2.374   3.624
  788SOL    HW2  417   1.472   2.269   3.545
  789SOL     OW  418   0.973   2.752   3.434
  789SOL    HW1  419   1.019   2.668   3.405
  789SOL    HW2  420   0.917   2.786   3.359
  790SOL     OW  421   0.991   2.272   3.104
  790SOL    HW1  422   0.914   2.306   3.158
  790SOL    HW2  423   0.957   2.221   3.025
  791SOL     OW  424   1.041   2.563   2.291
  791SOL    HW1  425   1.067   2.559   2.387
  791SOL    HW2  426   0.956   2.512   2.277
  794SOL     OW  427   0.865   2.210   2.057
  794SOL    HW1  428   0.924   2.273   2.008
  794SOL    HW2  429   0.884   2.116   2.028
  795SOL     OW  430   1.719   2.447   3.693
  795SOL    HW1  431   1.693   2.536   3.657
  795SOL    HW2  432   1.717   2.379   3.620
  796SOL     OW  433   1.362   3.006   2.407
  796SOL    HW1  434   1.445   2.977   2.359
  796SOL    HW2  435   1.313   3.073   2.351
  798SOL     OW  436   1.008   3.318   2.339
  798SOL    HW1  437   0.962   3.390   2.287
  798SOL    HW2  438   1.004   3.338   2.437
  800SOL     OW  439   1.795   2.928   2.735
  800SOL    HW1  440   1.733   2.913   2.659
  800SOL    HW2  441   1.743   2.939   2.820
  803SOL     OW  442   1.458   2.597   2.590
  803SOL    HW1  443   1.453   2.532   2.665
  803SOL    HW2  444   1.538   2.656   2.603
  807SOL     OW  445   1.632   3.239   1.943
  807SOL    HW1  446   1.600   3.333   1.933
  807SOL    HW2  447   1.556   3.176   1.931
  809SOL     OW  448   1.400   1.969   2.288
  809SOL    HW1  449   1.376   1.932   2.198
  809SOL    HW2  450   1.499   1.985   2.292
  813SOL     OW  451   1.547   2.084   3.591
  813SOL    HW1  452   1.542   2.121   3.683
  813SOL    HW2  453   1.475   2.015   3.579
  817SOL     OW  454   1.351   2.452   3.295
  817SOL    HW1  455   1.379   2.409   3.380
  817SOL    HW2  456   1.376   2.548   3.296
  819SOL     OW  457   0.922   2.365   2.761
  819SOL    HW1  458   0.897   2.356   2.665
  819SOL    HW2  459   0.970   2.283   2.792
  821SOL     OW  460   1.434   3.050   1.903
  821SOL    HW1  461   1.466   2.974   1.960
  821SOL    HW2  462   1.342   3.077   1.933
  823SOL     OW  463   0.935   2.098   2.342
  823SOL    HW1  464   0.887   2.139   2.264
  823SOL    HW2  465   1.034   2.096   2.323
  824SOL     OW  466   1.076   2.545   3.326
  824SOL    HW1  467   0.996   2.484   3.329
  824SOL    HW2  468   1.157   2.492   3.302
  825SOL     OW  469   1.227   3.432   2.655
  825SOL    HW1  470   1.248   3.506   2.590
  825SOL    HW2  471   1.295   3.432   2.728
  827SOL     OW  472   1.271   3.659   2.453
  827SOL    HW1  473   1.315   3.723   2.389
  827SOL    HW2  474   1.221   3.711   2.523
  828SOL     OW  475   1.032   2.411   1.878
  828SOL    HW1  476   0.991   2.493   1.839
  828SOL    HW2  477   1.096   2.437   1.951
  831SOL     OW  478   0.866   2.316   2.504
  831SOL    HW1  479   0.834   2.388   2.442
  831SOL    HW2  480   0.890   2.235   2.451
  832SOL     OW  481   1.017   1.901   2.615
  832SOL    HW1  482   0.945   1.906   2.546
  832SOL    HW2  483   0.993   1.832   2.684
  833SOL     OW  484   1.429   3.035   2.729
  833SOL    HW1  485   1.374   2.951   2.722
  833SOL    HW2  486   1.455   3.064   2.637
  834SOL     OW  487   1.466   2.452   2.854
  834SOL    HW1  488   1.436   2.357   2.861
  834SOL    HW2  489   1.539   2.468   2.920
  835SOL     OW  490   1.857   2.695   2.239
  835SOL    HW1  491   1.899   2.631   2.303
  835SOL    HW2  492   1.819   2.644   2.161
  837SOL     OW  493   1.664   3.142   2.519
  837SOL    HW1  494   1.763   3.150   2.533
  837SOL    HW2  495   1.619   3.226   2.550
  838SOL     OW  496   1.390   2.437   1.940
  838SOL    HW1  497   1.336   2.416   2.021
  838SOL    HW2  498   1.481   2.396   1.949
  840SOL     OW  499   1.754   3.085   3.450
  840SOL    HW1  500   1.845   3.046   3.437
  840SOL    HW2  501   1.762   3.181   3.474
  841SOL     OW  502   1.064   3.209   3.202
  841SOL    HW1  503   0.984   3.186   3.257
  841SOL    HW2  504   1.147   3.183   3.251
  842SOL     OW  505   1.592   3.491   3.487
  842SOL    HW1  506   1.619   3.525   3.397
  842SOL    HW2  507   1.671   3.453   3.533
  843SOL     OW  508   1.111   3.057   2.962
  843SOL    HW1  509   1.071   3.101   3.043
  843SOL    HW2  510   1.070   3.094   2.879
  844SOL     OW  511   1.638   2.961   2.941
  844SOL    HW1  512   1.643   3.042   3.000
  844SOL    HW2  513   1.552   2.963   2.890
  845SOL     OW  514   0.915   1.951   3.264
  845SOL    HW1  515   0.940   1.931   3.169
  845SOL    HW2  516   0.987   2.007   3.306
  847SOL     OW  517   0.705   2.912   2.230
  847SOL    HW1  518   0.691   2.919   2.329
  847SOL    HW2  519   0.789   2.861   2.212
  849SOL     OW  520   1.274   2.248   3.124
  849SOL    HW1  521   1.295   2.322   3.188
  849SOL    HW2  522   1.185   2.265   3.081
  853SOL     OW  523   1.252   3.210   2.250
  853SOL    HW1  524   1.302   3.287   2.290
  853SOL    HW2  525   1.157   3.212   2.282
  854SOL     OW  526   1.272   3.307   3.004
  854SOL    HW1  527   1.319   3.320   3.091
  854SOL    HW2  528   1.206   3.233   3.013
  855SOL     OW  529   1.582   2.501   2.334
  855SOL    HW1  530   1.551   2.562   2.407
  855SOL    HW2  531   1.632   2.553   2.265
  858SOL     OW  532   1.587   2.641   3.532
  858SOL    HW1  533   1.495   2.679   3.527
  858SOL    HW2  534   1.647   2.688   3.467
  862SOL     OW  535   1.360   2.724   2.907
  862SOL    HW1  536   1.285   2.724   2.841
  862SOL    HW2  537   1.397   2.632   2.916
  863SOL     OW  538   1.209   2.387   2.137
  863SOL    HW1  539   1.222   2.303   2.191
  863SOL    HW2  540   1.180   2.461   2.197
  866SOL     OW  541   0.732   2.496   2.926
  866SOL    HW1  542   0.791   2.470   2.850
  866SOL    HW2  543   0.704   2.592   2.915
  867SOL     OW  544   1.728   2.797   3.716
  867SOL    HW1  545   1.682   2.790   3.627
  867SOL    HW2  546   1.666   2.841   3.782
  869SOL     OW  547   1.622   2.229   2.236
  869SOL    HW1  548   1.624   2.153   2.300
  869SOL    HW2  549   1.574   2.306   2.276
  870SOL     OW  550   1.023   2.628   2.828
  870SOL    HW1  551   1.038   2.649   2.924
  870SOL    HW2  552   0.993   2.533   2.819
  872SOL     OW  553   1.859   3.380   3.467
  872SOL    HW1  554   1.873   3.407   3.372
  872SOL    HW2  555   1.942   3.402   3.520
  874SOL     OW  556   1.540   2.136   1.987
  874SOL    HW1  557   1.479   2.061   2.010
  874SOL    HW2  558   1.562   2.188   2.070
  875SOL     OW  559   1.303   2.700   1.904
  875SOL    HW1  560   1.337   2.607   1.919
  875SOL    HW2  561   1.321   2.727   1.809
  876SOL     OW  562   1.068   3.195   2.711
  876SOL    HW1  563   1.075   3.111   2.656
  876SOL    HW2  564   1.130   3.264   2.675
  879SOL     OW  565   1.138   2.242   3.540
  879SOL    HW1  566   1.093   2.305   3.604
  879SOL    HW2  567   1.231   2.273   3.523
  880SOL     OW  568   1.160   2.069   3.339
  880SOL    HW1  569   1.160   2.133   3.416
  880SOL    HW2  570   1.188   2.117   3.256
  884SOL     OW  571   1.002   2.658   3.100
  884SOL    HW1  572   1.043   2.626   3.186
  884SOL    HW2  573   0.906   2.631   3.097
  887SOL     OW  574   1.369   2.812   3.522
  887SOL    HW1  575   1.408   2.901   3.542
  887SOL    HW2  576   1.379   2.792   3.425
  888SOL     OW  577   0.815   2.434   2.187
  888SOL    HW1  578   0.822   2.345   2.141
  888SOL    HW2  579   0.721   2.468   2.179
  889SOL     OW  580   1.657   2.466   3.068
  889SOL    HW1  581   1.619   2.397   3.130
  889SOL    HW2  582   1.739   2.430   3.024
  895SOL     OW  583   1.347   2.921   3.096
  895SOL    HW1  584   1.371   2.858   3.022
  895SOL    HW2  585   1.257   2.961   3.078
  896SOL     OW  586   1.302   2.717   2.171
  896SOL    HW1  587   1.216   2.686   2.213
  896SOL    HW2  588   1.298   2.703   2.072
  897SOL     OW  589   1.759   3.609   3.016
  897SOL    HW1  590   1.820   3.639   2.943
  897SOL    HW2  591   1.721   3.520   2.994
  898SOL     OW  592   1.252   3.593   2.990
  898SOL    HW1  593   1.336   3.598   2.936
  898SOL    HW2  594   1.229   3.497   3.008
  901SOL     OW  595   1.726   1.997   2.385
  901SOL    HW1  596   1.799   1.980   2.318
  901SOL    HW2  597   1.695   1.910   2.423
  902SOL     OW  598   1.388   3.435   2.339
  902SOL    HW1  599   1.455   3.447   2.265
  902SOL    HW2  600   1.348   3.524   2.362
  904SOL     OW  601   1.280   2.789   2.534
  904SOL    HW1  602   1.340   2.708   2.536
  904SOL    HW2  603   1.320   2.858   2.474
  907SOL     OW  604   1.650   3.582   3.256
  907SOL    HW1  605   1.703   3.592   3.172
  907SOL    HW2  606   1.623   3.672   3.290
  908SOL     OW  607   1.841   2.037   2.825
  908SOL    HW1  608   1.880   1.952   2.789
  908SOL    HW2  609   1.743   2.039   2.806
  910SOL     OW  610   1.194   3.474   1.893
  910SOL    HW1  611   1.200   3.381   1.930
  910SOL    HW2  612   1.135   3.474   1.813
  912SOL     OW  613   0.916   2.772   2.153
  912SOL    HW1  614   0.979   2.810   2.085
  912SOL    HW2  615   0.956   2.689   2.192
  913SOL     OW  616   1.504   3.469   1.906
  913SOL    HW1  617   1.412   3.506   1.913
  913SOL    HW2  618   1.542   3.489   1.816
  915SOL     OW  619   1.614   3.154   3.151
  915SOL    HW1  620   1.674   3.157   3.231
  915SOL    HW2  621   1.539   3.218   3.164
  916SOL     OW  622   1.039   2.960   2.558
  916SOL    HW1  623   0.969   2.913   2.612
  916SOL    HW2  624   1.098   2.892   2.515
  917SOL     OW  625   1.014   2.098   2.833
  917SOL    HW1  626   1.006   2.062   2.740
  917SOL    HW2  627   1.012   2.022   2.898
  919SOL     OW  628   1.709   2.247   3.243
  919SOL    HW1  629   1.782   2.316   3.247
  919SOL    HW2  630   1.737   2.172   3.184
  924SOL     OW  631   1.440   2.718   3.260
  924SOL    HW1  632   1.383   2.770   3.197
  924SOL    HW2  633   1.536   2.730   3.236
  926SOL     OW  634   1.183   3.197   1.981
  926SOL    HW1  635   1.084   3.186   1.983
  926SOL    HW2  636   1.217   3.212   2.074
  928SOL     OW  637   1.493   3.629   2.821
  928SOL    HW1  638   1.526   3.693   2.752
  928SOL    HW2  639   1.559   3.623   2.896
  930SOL     OW  640   1.450   3.082   3.495
  930SOL    HW1  641   1.441   3.072   3.594
  930SOL    HW2  642   1.546   3.075   3.469
  932SOL     OW  643   1.674   2.745   3.116
  932SOL    HW1  644   1.647   2.656   3.079
  932SOL    HW2  645   1.675   2.813   3.043
  933SOL     OW  646   1.225   2.187   2.311
  933SOL    HW1  647   1.290   2.113   2.300
  933SOL    HW2  648   1.245   2.237   2.395
  934SOL     OW  649   0.594   2.607   2.514
  934SOL    HW1  650   0.644   2.692   2.495
  934SOL    HW2  651   0.506   2.609   2.466
  935SOL     OW  652   1.777   2.204   3.504
  935SOL    HW1  653   1.760   2.235   3.410
  935SOL    HW2  654   1.693   2.167   3.542
  936SOL     OW  655   1.730   2.796   3.379
  936SOL    HW1  656   1.768   2.887   3.394
  936SOL    HW2  657   1.722   2.779   3.280
  939SOL     OW  658   0.859   2.818   2.723
  939SOL    HW1  659   0.913   2.749   2.771
  939SOL    HW2  660   0.827   2.887   2.789
  940SOL     OW  661   1.083   2.846   1.949
  940SOL    HW1  662   1.060   2.899   1.867
  940SOL    HW2  663   1.164   2.790   1.930
  941SOL     OW  664   1.861   3.431   2.713
  941SOL    HW1  665   1.790   3.419   2.643
  941SOL    HW2  666   1.862   3.352   2.773
  945SOL     OW  667   1.824   2.054   3.089
  945SOL    HW1  668   1.820   1.964   3.133
  945SOL    HW2  669   1.827   2.043   2.990
  947SOL     OW  670   1.705   3.349   2.966
  947SOL    HW1  671   1.612   3.324   2.939
  947SOL    HW2  672   1.731   3.299   3.048
  950SOL     OW  673   1.424   2.076   2.974
  950SOL    HW1  674   1.476   2.011   3.029
  950SOL    HW2  675   1.375   2.139   3.035
  951SOL     OW  676   1.001   1.896   3.016
  951SOL    HW1  677   0.938   1.824   2.985
  951SOL    HW2  678   1.094   1.860   3.016
  954SOL     OW  679   1.352   1.914   2.030
  954SOL    HW1  680   1.387   1.873   1.946
  954SOL    HW2  681   1.262   1.876   2.050
  955SOL     OW  682   1.300   2.315   2.553
  955SOL    HW1  683   1.241   2.395   2.557
  955SOL    HW2  684   1.315   2.280   2.646
  956SOL     OW  685   1.593   2.083   2.744
  956SOL    HW1  686   1.509   2.082   2.798
  956SOL    HW2  687   1.595   2.166   2.688
  963SOL     OW  688   1.755   2.469   3.955
  963SOL    HW1  689   1.743   2.456   3.856
  963SOL    HW2  690   1.725   2.388   4.004
 1013SOL     OW  691   1.390   2.437   3.802
 1013SOL    HW1  692   1.336   2.416   3.883
 1013SOL    HW2  693   1.481   2.396   3.811
 1024SOL     OW  694   1.540   2.136   3.849
 1024SOL    HW1  695   1.479   2.061   3.872
 1024SOL    HW2  696   1.562   2.188   3.932
 1025SOL     OW  697   1.303   2.700   3.766
 1025SOL    HW1  698   1.337   2.607   3.781
 1025SOL    HW2  699   1.321   2.727   3.671
 1206SOL     OW  700   1.400   3.831   2.288
 1206SOL    HW1  701   1.376   3.794   2.198
 1206SOL    HW2  702   1.499   3.847   2.292
 1261SOL     OW  703   1.726   3.859   2.385
 1261SOL    HW1  704   1.799   3.842   2.318
 1261SOL    HW2  705   1.695   3.772   2.423
 1263SOL     OW  706   1.841   3.899   2.825
 1263SOL    HW1  707   1.880   3.814   2.789
 1263SOL    HW2  708   1.743   3.901   2.806
 1285SOL     OW  709   1.352   3.776   2.030
 1285SOL    HW1  710   1.387   3.735   1.946
 1285SOL    HW2  711   1.262   3.738   2.050
 1349SOL     OW  712   2.431   1.275   1.165
 1349SOL    HW1  713   2.338   1.268   1.128
 1349SOL    HW2  714   2.442   1.364   1.209
 1354SOL     OW  715   2.712   0.798   1.823
 1354SOL    HW1  716   2.708   0.874   1.888
 1354SOL    HW2  717   2.734   0.834   1.732
 1356SOL     OW  718   2.548   1.161   1.803
 1356SOL    HW1  719   2.608   1.240   1.817
 1356SOL    HW2  720   2.462   1.192   1.762
 1357SOL     OW  721   2.197   1.435   1.061
 1357SOL    HW1  722   2.119   1.404   1.008
 1357SOL    HW2  723   2.255   1.493   1.004
 1358SOL     OW  724   3.322   1.505   1.339
 1358SOL    HW1  725   3.346   1.599   1.365
 1358SOL    HW2  726   3.306   1.451   1.421
 1362SOL     OW  727   2.989   1.341   1.690
 1362SOL    HW1  728   3.036   1.341   1.778
 1362SOL    HW2  729   2.941   1.254   1.679
 1365SOL     OW  730   2.482   1.786   1.439
 1365SOL    HW1  731   2.390   1.769   1.474
 1365SOL    HW2  732   2.510   1.878   1.465
 1374SOL     OW  733   3.155   1.228   1.423
 1374SOL    HW1  734   3.192   1.155   1.365
 1374SOL    HW2  735   3.207   1.233   1.508
 1376SOL     OW  736   2.059   0.976   1.264
 1376SOL    HW1  737   2.148   0.931   1.250
 1376SOL    HW2  738   1.986   0.911   1.245
 1378SOL     OW  739   3.049   1.792   1.616
 1378SOL    HW1  740   3.073   1.852   1.540
 1378SOL    HW2  741   3.056   1.697   1.586
 1387SOL     OW  742   2.835   0.890   1.572
 1387SOL    HW1  743   2.881   0.806   1.543
 1387SOL    HW2  744   2.779   0.924   1.497
 1391SOL     OW  745   1.992   1.821   1.571
 1391SOL    HW1  746   1.982   1.806   1.670
 1391SOL    HW2  747   1.906   1.857   1.535
 1397SOL     OW  748   2.213   1.801   0.853
 1397SOL    HW1  749   2.263   1.715   0.859
 1397SOL    HW2  750   2.278   1.878   0.850
 1399SOL     OW  751   3.089   1.550   1.506
 1399SOL    HW1  752   3.095   1.473   1.570
 1399SOL    HW2  753   3.037   1.524   1.426
 1402SOL     OW  754   2.323   1.266   1.727
 1402SOL    HW1  755   2.273   1.267   1.641
 1402SOL    HW2  756   2.260   1.248   1.803
 1408SOL     OW  757   2.111   1.785   1.241
 1408SOL    HW1  758   2.168   1.720   1.291
 1408SOL    HW2  759   2.095   1.752   1.148
 1409SOL     OW  760   2.802   1.698   0.904
 1409SOL    HW1  761   2.882   1.641   0.925
 1409SOL    HW2  762   2.753   1.658   0.827
 1414SOL     OW  763   2.750   1.514   1.195
 1414SOL    HW1  764   2.727   1.489   1.101
 1414SOL    HW2  765   2.811   1.445   1.234
 1416SOL     OW  766   2.665   1.402   0.924
 1416SOL    HW1  767   2.755   1.416   0.882
 1416SOL    HW2  768   2.594   1.404   0.853
 1439SOL     OW  769   2.926   1.347   1.340
 1439SOL    HW1  770   2.846   1.324   1.395
 1439SOL    HW2  771   3.009   1.321   1.389
 1440SOL     OW  772   3.454   1.629   1.625
 1440SOL    HW1  773   3.481   1.663   1.535
 1440SOL    HW2  774   3.533   1.591   1.671
 1444SOL     OW  775   2.842   1.116   1.719
 1444SOL    HW1  776   2.743   1.122   1.729
 1444SOL    HW2  777   2.865   1.036   1.663
 1448SOL     OW  778   1.926   1.564   1.331
 1448SOL    HW1  779   1.880   1.646   1.297
 1448SOL    HW2  780   2.024   1.583   1.340
 1452SOL     OW  781   3.134   1.445   1.142
 1452SOL    HW1  782   3.181   1.458   1.229
 1452SOL    HW2  783   3.068   1.371   1.151
 1454SOL     OW  784   2.216   1.510   1.329
 1454SOL    HW1  785   2.195   1.466   1.242
 1454SOL    HW2  786   2.313   1.536   1.332
 1455SOL     OW  787   2.264   0.751   1.598
 1455SOL    HW1  788   2.332   0.806   1.551
 1455SOL    HW2  789   2.304   0.663   1.625
 1463SOL     OW  790   1.899   1.310   1.282
 1463SOL    HW1  791   1.952   1.261   1.350
 1463SOL    HW2  792   1.921   1.408   1.287
 1469SOL     OW  793   2.842   1.573   1.700
 1469SOL    HW1  794   2.822   1.617   1.612
 1469SOL    HW2  795   2.881   1.482   1.684
 1470SOL     OW  796   3.721   1.518   1.605
 1470SOL    HW1  797   3.735   1.545   1.510
 1470SOL    HW2  798   3.804   1.540   1.658
 1471SOL     OW  799   2.212   0.898   1.804
 1471SOL    HW1  800   2.288   0.942   1.852
 1471SOL    HW2  801   2.247   0.851   1.722
 1480SOL     OW  802   1.950   1.801   0.927
 1480SOL    HW1  803   1.908   1.715   0.900
 1480SOL    HW2  804   2.044   1.804   0.893
 1481SOL     OW  805   2.366   1.568   0.910
 1481SOL    HW1  806   2.432   1.642   0.919
 1481SOL    HW2  807   2.410   1.489   0.868
 1485SOL     OW  808   3.231   0.950   1.660
 1485SOL    HW1  809   3.270   1.039   1.680
 1485SOL    HW2  810   3.241   0.930   1.563
 1488SOL     OW  811   2.114   1.564   1.744
 1488SOL    HW1  812   2.084   1.621   1.820
 1488SOL    HW2  813   2.107   1.467   1.770
 1490SOL     OW  814   2.792   1.678   1.465
 1490SOL    HW1  815   2.768   1.660   1.370
 1490SOL    HW2  816   2.822   1.772   1.475
 1492SOL     OW  817   2.021   1.137   1.466
 1492SOL    HW1  818   2.043   1.076   1.542
 1492SOL    HW2  819   2.031   1.088   1.380
 1496SOL     OW  820   3.114   1.731   1.128
 1496SOL    HW1  821   3.198   1.736   1.074
 1496SOL    HW2  822   3.091   1.635   1.146
 1497SOL     OW  823   1.945   1.258   1.022
 1497SOL    HW1  824   1.940   1.257   1.122
 1497SOL    HW2  825   1.862   1.217   0.984
 1498SOL     OW  826   2.550   1.662   1.716
 1498SOL    HW1  827   2.494   1.743   1.725
 1498SOL    HW2  828   2.602   1.666   1.630
 1502SOL     OW  829   1.992   1.794   1.851
 1502SOL    HW1  830   1.951   1.720   1.904
 1502SOL    HW2  831   2.056   1.845   1.909
 1504SOL     OW  832   2.692   1.273   1.422
 1504SOL    HW1  833   2.687   1.306   1.517
 1504SOL    HW2  834   2.606   1.292   1.376
 1506SOL     OW  835   3.512   1.720   1.394
 1506SOL    HW1  836   3.565   1.730   1.310
 1506SOL    HW2  837   3.485   1.810   1.428
 1510SOL     OW  838   2.684   1.002   1.372
 1510SOL    HW1  839   2.724   1.001   1.280
 1510SOL    HW2  840   2.694   1.094   1.412
 1513SOL     OW  841   2.234   1.288   1.490
 1513SOL    HW1  842   2.221   1.381   1.456
 1513SOL    HW2  843   2.150   1.236   1.477
 1520SOL     OW  844   1.967   1.013   1.726
 1520SOL    HW1  845   1.890   0.980   1.780
 1520SOL    HW2  846   2.052   0.983   1.768
 1524SOL     OW  847   2.475   0.842   1.431
 1524SOL    HW1  848   2.531   0.923   1.414
 1524SOL    HW2  849   2.534   0.762   1.434
 1527SOL     OW  850   3.312   1.220   1.633
 1527SOL    HW1  851   3.303   1.210   1.732
 1527SOL    HW2  852   3.408   1.213   1.607
 1528SOL     OW  853   2.252   1.741   1.560
 1528SOL    HW1  854   2.161   1.782   1.558
 1528SOL    HW2  855   2.245   1.647   1.592
 1535SOL     OW  856   2.523   1.790   0.953
 1535SOL    HW1  857   2.477   1.878   0.940
 1535SOL    HW2  858   2.622   1.802   0.946
 1539SOL     OW  859   2.083   1.314   1.844
 1539SOL    HW1  860   2.018   1.241   1.823
 1539SOL    HW2  861   2.087   1.328   1.942
 1541SOL     OW  862   2.534   1.391   1.624
 1541SOL    HW1  863   2.456   1.341   1.662
 1541SOL    HW2  864   2.531   1.486   1.655
 1550SOL     OW  865   2.480   1.567   1.284
 1550SOL    HW1  866   2.475   1.649   1.341
 1550SOL    HW2  867   2.569   1.564   1.239
 1556SOL     OW  868   2.092   0.628   1.975
 1556SOL    HW1  869   1.999   0.626   2.012
 1556SOL    HW2  870   2.093   0.589   1.883
 1559SOL     OW  871   2.431   1.275   3.027
 1559SOL    HW1  872   2.338   1.268   2.990
 1559SOL    HW2  873   2.442   1.364   3.071
 1560SOL     OW  874   3.417   1.511   2.565
 1560SOL    HW1  875   3.360   1.495   2.646
 1560SOL    HW2  876   3.358   1.521   2.485
 1561SOL     OW  877   2.997   0.703   2.579
 1561SOL    HW1  878   3.054   0.781   2.554
 1561SOL    HW2  879   2.937   0.729   2.655
 1563SOL     OW  880   2.630   1.144   2.885
 1563SOL    HW1  881   2.552   1.161   2.945
 1563SOL    HW2  882   2.664   1.231   2.849
 1565SOL     OW  883   2.547   1.012   2.527
 1565SOL    HW1  884   2.616   0.996   2.597
 1565SOL    HW2  885   2.474   1.069   2.565
 1566SOL     OW  886   2.548   1.161   3.665
 1566SOL    HW1  887   2.608   1.240   3.679
 1566SOL    HW2  888   2.462   1.192   3.624
 1567SOL     OW  889   2.197   1.435   2.923
 1567SOL    HW1  890   2.119   1.404   2.870
 1567SOL    HW2  891   2.255   1.493   2.866
 1568SOL     OW  892   3.322   1.505   3.201
 1568SOL    HW1  893   3.346   1.599   3.227
 1568SOL    HW2  894   3.306   1.451   3.283
 1571SOL     OW  895   2.093   1.713   2.345
 1571SOL    HW1  896   2.127   1.790   2.399
 1571SOL    HW2  897   2.137   1.713   2.255
 1572SOL     OW  898   2.989   1.341   3.552
 1572SOL    HW1  899   3.036   1.341   3.640
 1572SOL    HW2  900   2.941   1.254   3.541
 1573SOL     OW  901   2.092   1.434   2.400
 1573SOL    HW1  902   2.066   1.530   2.400
 1573SOL    HW2  903   2.021   1.380   2.445
 1574SOL     OW  904   2.102   1.091   2.748
 1574SOL    HW1  905   2.116   1.007   2.800
 1574SOL    HW2  906   2.047   1.155   2.803
 1575SOL     OW  907   2.482   1.786   3.301
 1575SOL    HW1  908   2.390   1.769   3.336
 1575SOL    HW2  909   2.510   1.878   3.327
 1576SOL     OW  910   2.468   0.964   1.985
 1576SOL    HW1  911   2.475   1.048   1.931
 1576SOL    HW2  912   2.514   0.977   2.073
 1578SOL     OW  913   1.984   0.643   2.425
 1578SOL    HW1  914   1.939   0.555   2.442
 1578SOL    HW2  915   1.983   0.697   2.509
 1579SOL     OW  916   3.704   1.767   2.221
 1579SOL    HW1  917   3.758   1.738   2.301
 1579SOL    HW2  918   3.734   1.857   2.192
 1580SOL     OW  919   1.889   1.596   1.979
 1580SOL    HW1  920   1.870   1.500   2.000
 1580SOL    HW2  921   1.856   1.654   2.054
 1582SOL     OW  922   3.503   1.108   2.294
 1582SOL    HW1  923   3.589   1.110   2.242
 1582SOL    HW2  924   3.517   1.155   2.382
 1584SOL     OW  925   2.475   1.365   2.588
 1584SOL    HW1  926   2.426   1.278   2.597
 1584SOL    HW2  927   2.452   1.408   2.501
 1585SOL     OW  928   3.155   1.228   3.285
 1585SOL    HW1  929   3.192   1.155   3.227
 1585SOL    HW2  930   3.207   1.233   3.370
 1587SOL     OW  931   2.059   0.976   3.126
 1587SOL    HW1  932   2.148   0.931   3.112
 1587SOL    HW2  933   1.986   0.911   3.107
 1588SOL     OW  934   3.387   0.999   2.052
 1588SOL    HW1  935   3.324   0.923   2.065
 1588SOL    HW2  936   3.435   1.017   2.138
 1589SOL     OW  937   3.049   1.792   3.478
 1589SOL    HW1  938   3.073   1.852   3.402
 1589SOL    HW2  939   3.056   1.697   3.448
 1591SOL     OW  940   3.328   1.417   2.815
 1591SOL    HW1  941   3.269   1.423   2.895
 1591SOL    HW2  942   3.313   1.329   2.769
 1592SOL     OW  943   3.529   1.714   2.434
 1592SOL    HW1  944   3.488   1.691   2.346
 1592SOL    HW2  945   3.511   1.640   2.499
 1593SOL     OW  946   2.460   0.729   2.132
 1593SOL    HW1  947   2.484   0.798   2.064
 1593SOL    HW2  948   2.382   0.762   2.186
 1595SOL     OW  949   3.438   1.662   2.169
 1595SOL    HW1  950   3.527   1.708   2.172
 1595SOL    HW2  951   3.417   1.638   2.074
 1600SOL     OW  952   2.903   0.701   2.291
 1600SOL    HW1  953   2.929   0.697   2.387
 1600SOL    HW2  954   2.818   0.650   2.277
 1601SOL     OW  955   1.938   0.811   2.651
 1601SOL    HW1  956   2.037   0.799   2.660
 1601SOL    HW2  957   1.914   0.906   2.672
 1602SOL     OW  958   1.992   1.821   3.433
 1602SOL    HW1  959   1.982   1.806   3.532
 1602SOL    HW2  960   1.906   1.857   3.397
 1605SOL     OW  961   3.224   1.144   2.407
 1605SOL    HW1  962   3.307   1.115   2.359
 1605SOL    HW2  963   3.175   1.211   2.351
 1607SOL     OW  964   2.870   1.456   2.339
 1607SOL    HW1  965   2.824   1.528   2.287
 1607SOL    HW2  966   2.866   1.476   2.437
 1608SOL     OW  967   2.213   1.801   2.715
 1608SOL    HW1  968   2.263   1.715   2.721
 1608SOL    HW2  969   2.278   1.878   2.712
 1610SOL     OW  970   3.089   1.550   3.368
 1610SOL    HW1  971   3.095   1.473   3.432
 1610SOL    HW2  972   3.037   1.524   3.288
 1611SOL     OW  973   2.183   0.943   2.104
 1611SOL    HW1  974   2.265   0.982   2.062
 1611SOL    HW2  975   2.156   0.861   2.055
 1613SOL     OW  976   2.323   1.266   3.589
 1613SOL    HW1  977   2.273   1.267   3.503
 1613SOL    HW2  978   2.260   1.248   3.665
 1614SOL     OW  979   2.973   1.776   2.099
 1614SOL    HW1  980   2.913   1.714   2.149
 1614SOL    HW2  981   3.004   1.732   2.014
 1616SOL     OW  982   3.494   1.377   1.943
 1616SOL    HW1  983   3.462   1.471   1.933
 1616SOL    HW2  984   3.418   1.314   1.931
 1617SOL     OW  985   2.326   1.743   2.185
 1617SOL    HW1  986   2.359   1.782   2.271
 1617SOL    HW2  987   2.402   1.736   2.120
 1619SOL     OW  988   2.111   1.785   3.103
 1619SOL    HW1  989   2.168   1.720   3.153
 1619SOL    HW2  990   2.095   1.752   3.010
 1620SOL     OW  991   2.802   1.698   2.766
 1620SOL    HW1  992   2.882   1.641   2.787
 1620SOL    HW2  993   2.753   1.658   2.689
 1621SOL     OW  994   2.244   0.700   2.342
 1621SOL    HW1  995   2.289   0.610   2.339
 1621SOL    HW2  996   2.150   0.689   2.375
 1625SOL     OW  997   2.750   1.514   3.057
 1625SOL    HW1  998   2.727   1.489   2.963
 1625SOL    HW2  999   2.811   1.445   3.096
 1627SOL     OW 1000   2.665   1.402   2.786
 1627SOL    HW1 1001   2.755   1.416   2.744
 1627SOL    HW2 1002   2.594   1.404   2.715
 1630SOL     OW 1003   3.296   1.188   1.903
 1630SOL    HW1 1004   3.328   1.112   1.960
 1630SOL    HW2 1005   3.204   1.215   1.933
 1634SOL     OW 1006   3.089   1.570   2.655
 1634SOL    HW1 1007   3.110   1.644   2.590
 1634SOL    HW2 1008   3.157   1.570   2.728
 1635SOL     OW 1009   2.321   1.152   2.603
 1635SOL    HW1 1010   2.250   1.125   2.668
 1635SOL    HW2 1011   2.295   1.124   2.510
 1636SOL     OW 1012   3.133   1.797   2.453
 1636SOL    HW1 1013   3.177   1.861   2.389
 1636SOL    HW2 1014   3.083   1.849   2.523
 1642SOL     OW 1015   3.291   1.173   2.729
 1642SOL    HW1 1016   3.236   1.089   2.722
 1642SOL    HW2 1017   3.317   1.202   2.637
 1645SOL     OW 1018   2.350   1.385   2.036
 1645SOL    HW1 1019   2.263   1.370   2.083
 1645SOL    HW2 1020   2.333   1.411   1.941
 1646SOL     OW 1021   3.526   1.280   2.519
 1646SOL    HW1 1022   3.625   1.288   2.533
 1646SOL    HW2 1023   3.481   1.364   2.550
 1650SOL     OW 1024   2.926   1.347   3.202
 1650SOL    HW1 1025   2.846   1.324   3.257
 1650SOL    HW2 1026   3.009   1.321   3.251
 1651SOL     OW 1027   3.454   1.629   3.487
 1651SOL    HW1 1028   3.481   1.663   3.397
 1651SOL    HW2 1029   3.533   1.591   3.533
 1652SOL     OW 1030   2.973   1.195   2.962
 1652SOL    HW1 1031   2.933   1.239   3.043
 1652SOL    HW2 1032   2.932   1.232   2.879
 1653SOL     OW 1033   3.500   1.099   2.941
 1653SOL    HW1 1034   3.505   1.180   3.000
 1653SOL    HW2 1035   3.414   1.101   2.890
 1656SOL     OW 1036   2.567   1.050   2.230
 1656SOL    HW1 1037   2.553   1.057   2.329
 1656SOL    HW2 1038   2.651   0.999   2.212
 1657SOL     OW 1039   2.272   0.813   3.113
 1657SOL    HW1 1040   2.358   0.825   3.163
 1657SOL    HW2 1041   2.230   0.726   3.140
 1659SOL     OW 1042   1.926   1.564   3.193
 1659SOL    HW1 1043   1.880   1.646   3.159
 1659SOL    HW2 1044   2.024   1.583   3.202
 1660SOL     OW 1045   2.229   1.100   2.363
 1660SOL    HW1 1046   2.222   1.183   2.307
 1660SOL    HW2 1047   2.233   1.020   2.303
 1662SOL     OW 1048   3.114   1.348   2.250
 1662SOL    HW1 1049   3.164   1.425   2.290
 1662SOL    HW2 1050   3.019   1.350   2.282
 1663SOL     OW 1051   3.134   1.445   3.004
 1663SOL    HW1 1052   3.181   1.458   3.091
 1663SOL    HW2 1053   3.068   1.371   3.013
 1665SOL     OW 1054   2.216   1.510   3.191
 1665SOL    HW1 1055   2.195   1.466   3.104
 1665SOL    HW2 1056   2.313   1.536   3.194
 1670SOL     OW 1057   2.435   0.870   2.891
 1670SOL    HW1 1058   2.479   0.959   2.882
 1670SOL    HW2 1059   2.372   0.870   2.968
 1674SOL     OW 1060   1.899   1.310   3.144
 1674SOL    HW1 1061   1.952   1.261   3.212
 1674SOL    HW2 1062   1.921   1.408   3.149
 1679SOL     OW 1063   2.885   0.766   2.828
 1679SOL    HW1 1064   2.900   0.787   2.924
 1679SOL    HW2 1065   2.855   0.671   2.819
 1680SOL     OW 1066   2.842   1.573   3.562
 1680SOL    HW1 1067   2.822   1.617   3.474
 1680SOL    HW2 1068   2.881   1.482   3.546
 1684SOL     OW 1069   3.165   0.838   1.904
 1684SOL    HW1 1070   3.199   0.745   1.919
 1684SOL    HW2 1071   3.183   0.865   1.809
 1685SOL     OW 1072   2.930   1.333   2.711
 1685SOL    HW1 1073   2.937   1.249   2.656
 1685SOL    HW2 1074   2.992   1.402   2.675
 1686SOL     OW 1075   2.181   0.810   2.811
 1686SOL    HW1 1076   2.274   0.846   2.816
 1686SOL    HW2 1077   2.175   0.725   2.863
 1690SOL     OW 1078   1.870   1.326   2.062
 1690SOL    HW1 1079   1.777   1.347   2.031
 1690SOL    HW2 1080   1.880   1.227   2.075
 1691SOL     OW 1081   1.950   1.801   2.789
 1691SOL    HW1 1082   1.908   1.715   2.762
 1691SOL    HW2 1083   2.044   1.804   2.755
 1692SOL     OW 1084   2.366   1.568   2.772
 1692SOL    HW1 1085   2.432   1.642   2.781
 1692SOL    HW2 1086   2.410   1.489   2.730
 1699SOL     OW 1087   2.114   1.564   3.606
 1699SOL    HW1 1088   2.084   1.621   3.682
 1699SOL    HW2 1089   2.107   1.467   3.632
 1701SOL     OW 1090   2.792   1.678   3.327
 1701SOL    HW1 1091   2.768   1.660   3.232
 1701SOL    HW2 1092   2.822   1.772   3.337
 1703SOL     OW 1093   2.021   1.137   3.328
 1703SOL    HW1 1094   2.043   1.076   3.404
 1703SOL    HW2 1095   2.031   1.088   3.242
 1704SOL     OW 1096   3.209   1.059   3.096
 1704SOL    HW1 1097   3.233   0.996   3.022
 1704SOL    HW2 1098   3.119   1.099   3.078
 1705SOL     OW 1099   3.164   0.855   2.171
 1705SOL    HW1 1100   3.078   0.824   2.213
 1705SOL    HW2 1101   3.160   0.841   2.072
 1706SOL     OW 1102   3.621   1.747   3.016
 1706SOL    HW1 1103   3.682   1.777   2.943
 1706SOL    HW2 1104   3.583   1.658   2.994
 1707SOL     OW 1105   3.114   1.731   2.990
 1707SOL    HW1 1106   3.198   1.736   2.936
 1707SOL    HW2 1107   3.091   1.635   3.008
 1708SOL     OW 1108   1.945   1.258   2.884
 1708SOL    HW1 1109   1.940   1.257   2.984
 1708SOL    HW2 1110   1.862   1.217   2.846
 1709SOL     OW 1111   2.550   1.662   3.578
 1709SOL    HW1 1112   2.494   1.743   3.587
 1709SOL    HW2 1113   2.602   1.666   3.492
 1711SOL     OW 1114   3.250   1.573   2.339
 1711SOL    HW1 1115   3.317   1.585   2.265
 1711SOL    HW2 1116   3.210   1.662   2.362
 1712SOL     OW 1117   1.992   1.794   3.713
 1712SOL    HW1 1118   1.951   1.720   3.766
 1712SOL    HW2 1119   2.056   1.845   3.771
 1713SOL     OW 1120   3.142   0.927   2.534
 1713SOL    HW1 1121   3.202   0.846   2.536
 1713SOL    HW2 1122   3.182   0.996   2.474
 1714SOL     OW 1123   2.692   1.273   3.284
 1714SOL    HW1 1124   2.687   1.306   3.379
 1714SOL    HW2 1125   2.606   1.292   3.238
 1715SOL     OW 1126   2.534   1.616   2.016
 1715SOL    HW1 1127   2.543   1.626   1.917
 1715SOL    HW2 1128   2.494   1.527   2.037
 1716SOL     OW 1129   3.512   1.720   3.256
 1716SOL    HW1 1130   3.565   1.730   3.172
 1716SOL    HW2 1131   3.485   1.810   3.290
 1719SOL     OW 1132   3.056   1.612   1.893
 1719SOL    HW1 1133   3.062   1.519   1.930
 1719SOL    HW2 1134   2.997   1.612   1.813
 1720SOL     OW 1135   2.684   1.002   3.234
 1720SOL    HW1 1136   2.724   1.001   3.142
 1720SOL    HW2 1137   2.694   1.094   3.274
 1721SOL     OW 1138   2.778   0.910   2.153
 1721SOL    HW1 1139   2.841   0.948   2.085
 1721SOL    HW2 1140   2.818   0.827   2.192
 1722SOL     OW 1141   3.366   1.607   1.906
 1722SOL    HW1 1142   3.274   1.644   1.913
 1722SOL    HW2 1143   3.404   1.627   1.816
 1723SOL     OW 1144   2.234   1.288   3.352
 1723SOL    HW1 1145   2.221   1.381   3.318
 1723SOL    HW2 1146   2.150   1.236   3.339
 1724SOL     OW 1147   3.476   1.292   3.151
 1724SOL    HW1 1148   3.536   1.295   3.231
 1724SOL    HW2 1149   3.401   1.356   3.164
 1725SOL     OW 1150   2.901   1.098   2.558
 1725SOL    HW1 1151   2.831   1.051   2.612
 1725SOL    HW2 1152   2.960   1.030   2.515
 1727SOL     OW 1153   2.452   1.487   2.353
 1727SOL    HW1 1154   2.494   1.429   2.283
 1727SOL    HW2 1155   2.408   1.566   2.309
 1729SOL     OW 1156   2.117   1.348   2.152
 1729SOL    HW1 1157   2.021   1.349   2.125
 1729SOL    HW2 1158   2.129   1.401   2.236
 1735SOL     OW 1159   3.045   1.335   1.981
 1735SOL    HW1 1160   2.946   1.324   1.983
 1735SOL    HW2 1161   3.079   1.350   2.074
 1736SOL     OW 1162   2.475   0.842   3.293
 1736SOL    HW1 1163   2.531   0.923   3.276
 1736SOL    HW2 1164   2.534   0.762   3.296
 1737SOL     OW 1165   3.355   1.767   2.821
 1737SOL    HW1 1166   3.388   1.831   2.752
 1737SOL    HW2 1167   3.421   1.761   2.896
 1740SOL     OW 1168   2.252   1.741   3.422
 1740SOL    HW1 1169   2.161   1.782   3.420
 1740SOL    HW2 1170   2.245   1.647   3.454
 1743SOL     OW 1171   2.456   0.745   2.514
 1743SOL    HW1 1172   2.506   0.830   2.495
 1743SOL    HW2 1173   2.368   0.747   2.466
 1746SOL     OW 1174   2.721   1.374   1.878
 1746SOL    HW1 1175   2.675   1.389   1.966
 1746SOL    HW2 1176   2.765   1.459   1.848
 1747SOL     OW 1177   2.523   1.790   2.815
 1747SOL    HW1 1178   2.477   1.878   2.802
 1747SOL    HW2 1179   2.622   1.802   2.808
 1748SOL     OW 1180   2.721   0.956   2.723
 1748SOL    HW1 1181   2.775   0.887   2.771
 1748SOL    HW2 1182   2.689   1.025   2.789
 1749SOL     OW 1183   2.945   0.984   1.949
 1749SOL    HW1 1184   2.922   1.037   1.867
 1749SOL    HW2 1185   3.026   0.928   1.930
 1750SOL     OW 1186   3.723   1.569   2.713
 1750SOL    HW1 1187   3.652   1.557   2.643
 1750SOL    HW2 1188   3.724   1.490   2.773
 1751SOL     OW 1189   2.083   1.314   3.706
 1751SOL    HW1 1190   2.018   1.241   3.685
 1751SOL    HW2 1191   2.087   1.328   3.804
 1752SOL     OW 1192   1.941   1.240   2.515
 1752SOL    HW1 1193   1.940   1.193   2.603
 1752SOL    HW2 1194   2.023   1.212   2.464
 1753SOL     OW 1195   2.534   1.391   3.486
 1753SOL    HW1 1196   2.456   1.341   3.524
 1753SOL    HW2 1197   2.531   1.486   3.517
 1756SOL     OW 1198   3.567   1.487   2.966
 1756SOL    HW1 1199   3.474   1.462   2.939
 1756SOL    HW2 1200   3.593   1.437   3.048
 1758SOL     OW 1201   2.674   1.586   2.549
 1758SOL    HW1 1202   2.706   1.596   2.455
 1758SOL    HW2 1203   2.595   1.524   2.551
 1761SOL     OW 1204   2.632   1.330   2.163
 1761SOL    HW1 1205   2.586   1.243   2.180
 1761SOL    HW2 1206   2.723   1.327   2.204
 1762SOL     OW 1207   2.480   1.567   3.146
 1762SOL    HW1 1208   2.475   1.649   3.203
 1762SOL    HW2 1209   2.569   1.564   3.101
 1766SOL     OW 1210   1.901   1.077   2.162
 1766SOL    HW1 1211   2.000   1.066   2.153
 1766SOL    HW2 1212   1.861   0.991   2.194
 1767SOL     OW 1213   2.737   1.646   2.199
 1767SOL    HW1 1214   2.660   1.611   2.145
 1767SOL    HW2 1215   2.705   1.717   2.261
 1783SOL     OW 1216   1.889   1.596   3.841
 1783SOL    HW1 1217   1.870   1.500   3.862
 1783SOL    HW2 1218   1.856   1.654   3.916
 1805SOL     OW 1219   2.326   1.743   4.047
 1805SOL    HW1 1220   2.359   1.782   4.133
 1805SOL    HW2 1221   2.402   1.736   3.982
 1847SOL     OW 1222   2.534   1.616   3.878
 1847SOL    HW1 1223   2.543   1.626   3.779
 1847SOL    HW2 1224   2.494   1.527   3.899
 1850SOL     OW 1225   3.056   1.612   3.755
 1850SOL    HW1 1226   3.062   1.519   3.792
 1850SOL    HW2 1227   2.997   1.612   3.675
 1862SOL     OW 1228   2.721   1.374   3.740
 1862SOL    HW1 1229   2.675   1.389   3.828
 1862SOL    HW2 1230   2.765   1.459   3.710
 1878SOL     OW 1231   2.087   2.137   0.996
 1878SOL    HW1 1232   2.122   2.120   1.088
 1878SOL    HW2 1233   1.999   2.092   0.984
 1879SOL     OW 1234   1.881   2.230   0.647
 1879SOL    HW1 1235   1.799   2.273   0.686
 1879SOL    HW2 1236   1.853   2.157   0.584
 1880SOL     OW 1237   2.431   3.137   1.165
 1880SOL    HW1 1238   2.338   3.130   1.128
 1880SOL    HW2 1239   2.442   3.226   1.209
 1882SOL     OW 1240   2.997   2.565   0.717
 1882SOL    HW1 1241   3.054   2.643   0.692
 1882SOL    HW2 1242   2.937   2.591   0.793
 1884SOL     OW 1243   2.630   3.006   1.023
 1884SOL    HW1 1244   2.552   3.023   1.083
 1884SOL    HW2 1245   2.664   3.093   0.987
 1885SOL     OW 1246   2.712   2.660   1.823
 1885SOL    HW1 1247   2.708   2.736   1.888
 1885SOL    HW2 1248   2.734   2.696   1.732
 1886SOL     OW 1249   2.547   2.874   0.665
 1886SOL    HW1 1250   2.616   2.858   0.735
 1886SOL    HW2 1251   2.474   2.931   0.703
 1887SOL     OW 1252   2.548   3.023   1.803
 1887SOL    HW1 1253   2.608   3.102   1.817
 1887SOL    HW2 1254   2.462   3.054   1.762
 1888SOL     OW 1255   2.197   3.297   1.061
 1888SOL    HW1 1256   2.119   3.266   1.008
 1888SOL    HW2 1257   2.255   3.355   1.004
 1889SOL     OW 1258   3.322   3.367   1.339
 1889SOL    HW1 1259   3.346   3.461   1.365
 1889SOL    HW2 1260   3.306   3.313   1.421
 1890SOL     OW 1261   2.300   2.254   1.499
 1890SOL    HW1 1262   2.382   2.198   1.508
 1890SOL    HW2 1263   2.219   2.196   1.503
 1893SOL     OW 1264   2.989   3.203   1.690
 1893SOL    HW1 1265   3.036   3.203   1.778
 1893SOL    HW2 1266   2.941   3.116   1.679
 1895SOL     OW 1267   2.102   2.953   0.886
 1895SOL    HW1 1268   2.116   2.869   0.938
 1895SOL    HW2 1269   2.047   3.017   0.941
 1896SOL     OW 1270   2.482   3.648   1.439
 1896SOL    HW1 1271   2.390   3.631   1.474
 1896SOL    HW2 1272   2.510   3.740   1.465
 1898SOL     OW 1273   3.456   1.976   1.480
 1898SOL    HW1 1274   3.438   2.043   1.408
 1898SOL    HW2 1275   3.453   2.022   1.569
 1903SOL     OW 1276   1.975   2.599   1.597
 1903SOL    HW1 1277   2.063   2.586   1.642
 1903SOL    HW2 1278   1.962   2.696   1.575
 1905SOL     OW 1279   3.155   3.090   1.423
 1905SOL    HW1 1280   3.192   3.017   1.365
 1905SOL    HW2 1281   3.207   3.095   1.508
 1907SOL     OW 1282   2.059   2.838   1.264
 1907SOL    HW1 1283   2.148   2.793   1.250
 1907SOL    HW2 1284   1.986   2.773   1.245
 1909SOL     OW 1285   3.049   3.654   1.616
 1909SOL    HW1 1286   3.073   3.714   1.540
 1909SOL    HW2 1287   3.056   3.559   1.586
 1910SOL     OW 1288   2.179   2.113   1.801
 1910SOL    HW1 1289   2.250   2.184   1.807
 1910SOL    HW2 1290   2.091   2.152   1.829
 1914SOL     OW 1291   3.143   2.207   0.944
 1914SOL    HW1 1292   3.057   2.157   0.931
 1914SOL    HW2 1293   3.205   2.153   1.000
 1916SOL     OW 1294   2.669   2.467   1.465
 1916SOL    HW1 1295   2.622   2.464   1.554
 1916SOL    HW2 1296   2.618   2.412   1.399
 1917SOL     OW 1297   3.256   2.331   1.674
 1917SOL    HW1 1298   3.236   2.374   1.762
 1917SOL    HW2 1299   3.334   2.269   1.683
 1918SOL     OW 1300   2.835   2.752   1.572
 1918SOL    HW1 1301   2.881   2.668   1.543
 1918SOL    HW2 1302   2.779   2.786   1.497
 1919SOL     OW 1303   2.853   2.272   1.242
 1919SOL    HW1 1304   2.776   2.306   1.296
 1919SOL    HW2 1305   2.819   2.221   1.163
 1921SOL     OW 1306   1.938   2.673   0.789
 1921SOL    HW1 1307   2.037   2.661   0.798
 1921SOL    HW2 1308   1.914   2.768   0.810
 1922SOL     OW 1309   1.992   3.683   1.571
 1922SOL    HW1 1310   1.982   3.668   1.670
 1922SOL    HW2 1311   1.906   3.719   1.535
 1924SOL     OW 1312   3.581   2.447   1.831
 1924SOL    HW1 1313   3.555   2.536   1.795
 1924SOL    HW2 1314   3.579   2.379   1.758
 1926SOL     OW 1315   2.412   2.058   0.885
 1926SOL    HW1 1316   2.407   2.053   0.985
 1926SOL    HW2 1317   2.414   2.154   0.856
 1930SOL     OW 1318   3.089   3.412   1.506
 1930SOL    HW1 1319   3.095   3.335   1.570
 1930SOL    HW2 1320   3.037   3.386   1.426
 1933SOL     OW 1321   2.323   3.128   1.727
 1933SOL    HW1 1322   2.273   3.129   1.641
 1933SOL    HW2 1323   2.260   3.110   1.803
 1935SOL     OW 1324   2.064   2.147   1.498
 1935SOL    HW1 1325   1.984   2.207   1.485
 1935SOL    HW2 1326   2.054   2.098   1.584
 1939SOL     OW 1327   2.111   3.647   1.241
 1939SOL    HW1 1328   2.168   3.582   1.291
 1939SOL    HW2 1329   2.095   3.614   1.148
 1942SOL     OW 1330   3.409   2.084   1.729
 1942SOL    HW1 1331   3.404   2.121   1.821
 1942SOL    HW2 1332   3.337   2.015   1.717
 1943SOL     OW 1333   2.643   2.126   1.749
 1943SOL    HW1 1334   2.710   2.065   1.792
 1943SOL    HW2 1335   2.570   2.145   1.814
 1944SOL     OW 1336   2.750   3.376   1.195
 1944SOL    HW1 1337   2.727   3.351   1.101
 1944SOL    HW2 1338   2.811   3.307   1.234
 1945SOL     OW 1339   3.213   2.452   1.433
 1945SOL    HW1 1340   3.241   2.409   1.518
 1945SOL    HW2 1341   3.238   2.548   1.434
 1946SOL     OW 1342   2.665   3.264   0.924
 1946SOL    HW1 1343   2.755   3.278   0.882
 1946SOL    HW2 1344   2.594   3.266   0.853
 1947SOL     OW 1345   2.784   2.365   0.899
 1947SOL    HW1 1346   2.759   2.356   0.803
 1947SOL    HW2 1347   2.832   2.283   0.930
 1952SOL     OW 1348   2.938   2.545   1.464
 1952SOL    HW1 1349   2.858   2.484   1.467
 1952SOL    HW2 1350   3.019   2.492   1.440
 1954SOL     OW 1351   2.321   3.014   0.741
 1954SOL    HW1 1352   2.250   2.987   0.806
 1954SOL    HW2 1353   2.295   2.986   0.648
 1957SOL     OW 1354   1.940   2.418   1.386
 1957SOL    HW1 1355   2.032   2.417   1.345
 1957SOL    HW2 1356   1.934   2.492   1.453
 1958SOL     OW 1357   2.423   2.084   1.147
 1958SOL    HW1 1358   2.461   2.000   1.184
 1958SOL    HW2 1359   2.335   2.103   1.191
 1959SOL     OW 1360   2.728   2.316   0.642
 1959SOL    HW1 1361   2.696   2.388   0.580
 1959SOL    HW2 1362   2.752   2.235   0.589
 1960SOL     OW 1363   2.879   1.901   0.753
 1960SOL    HW1 1364   2.807   1.906   0.684
 1960SOL    HW2 1365   2.855   1.832   0.822
 1962SOL     OW 1366   3.328   2.452   0.992
 1962SOL    HW1 1367   3.298   2.357   0.999
 1962SOL    HW2 1368   3.401   2.468   1.058
 1968SOL     OW 1369   3.616   3.085   1.588
 1968SOL    HW1 1370   3.707   3.046   1.575
 1968SOL    HW2 1371   3.624   3.181   1.612
 1969SOL     OW 1372   2.926   3.209   1.340
 1969SOL    HW1 1373   2.846   3.186   1.395
 1969SOL    HW2 1374   3.009   3.183   1.389
 1970SOL     OW 1375   3.454   3.491   1.625
 1970SOL    HW1 1376   3.481   3.525   1.535
 1970SOL    HW2 1377   3.533   3.453   1.671
 1971SOL     OW 1378   2.973   3.057   1.100
 1971SOL    HW1 1379   2.933   3.101   1.181
 1971SOL    HW2 1380   2.932   3.094   1.017
 1973SOL     OW 1381   2.777   1.951   1.402
 1973SOL    HW1 1382   2.802   1.931   1.307
 1973SOL    HW2 1383   2.849   2.007   1.444
 1974SOL     OW 1384   2.842   2.978   1.719
 1974SOL    HW1 1385   2.743   2.984   1.729
 1974SOL    HW2 1386   2.865   2.898   1.663
 1976SOL     OW 1387   2.272   2.675   1.251
 1976SOL    HW1 1388   2.358   2.687   1.301
 1976SOL    HW2 1389   2.230   2.588   1.278
 1977SOL     OW 1390   3.136   2.248   1.262
 1977SOL    HW1 1391   3.157   2.322   1.326
 1977SOL    HW2 1392   3.047   2.265   1.219
 1978SOL     OW 1393   1.926   3.426   1.331
 1978SOL    HW1 1394   1.880   3.508   1.297
 1978SOL    HW2 1395   2.024   3.445   1.340
 1980SOL     OW 1396   2.428   2.399   0.865
 1980SOL    HW1 1397   2.440   2.465   0.791
 1980SOL    HW2 1398   2.474   2.433   0.948
 1982SOL     OW 1399   3.134   3.307   1.142
 1982SOL    HW1 1400   3.181   3.320   1.229
 1982SOL    HW2 1401   3.068   3.233   1.151
 1984SOL     OW 1402   2.216   3.372   1.329
 1984SOL    HW1 1403   2.195   3.328   1.242
 1984SOL    HW2 1404   2.313   3.398   1.332
 1985SOL     OW 1405   2.264   2.613   1.598
 1985SOL    HW1 1406   2.332   2.668   1.551
 1985SOL    HW2 1407   2.304   2.525   1.625
 1986SOL     OW 1408   3.449   2.641   1.670
 1986SOL    HW1 1409   3.357   2.679   1.665
 1986SOL    HW2 1410   3.509   2.688   1.605
 1987SOL     OW 1411   2.875   1.967   1.770
 1987SOL    HW1 1412   2.881   2.052   1.718
 1987SOL    HW2 1413   2.907   1.891   1.713
 1988SOL     OW 1414   2.366   1.912   1.740
 1988SOL    HW1 1415   2.324   1.855   1.670
 1988SOL    HW2 1416   2.300   1.981   1.772
 1989SOL     OW 1417   2.435   2.732   1.029
 1989SOL    HW1 1418   2.479   2.821   1.020
 1989SOL    HW2 1419   2.372   2.732   1.106
 1990SOL     OW 1420   3.222   2.724   1.045
 1990SOL    HW1 1421   3.147   2.724   0.979
 1990SOL    HW2 1422   3.259   2.632   1.054
 1992SOL     OW 1423   2.169   2.075   1.231
 1992SOL    HW1 1424   2.146   2.112   1.321
 1992SOL    HW2 1425   2.139   1.980   1.225
 1993SOL     OW 1426   1.899   3.172   1.282
 1993SOL    HW1 1427   1.952   3.123   1.350
 1993SOL    HW2 1428   1.921   3.270   1.287
 1994SOL     OW 1429   2.594   2.496   1.064
 1994SOL    HW1 1430   2.653   2.470   0.988
 1994SOL    HW2 1431   2.566   2.592   1.053
 1995SOL     OW 1432   3.590   2.797   1.854
 1995SOL    HW1 1433   3.544   2.790   1.765
 1995SOL    HW2 1434   3.528   2.841   1.920
 1998SOL     OW 1435   2.885   2.628   0.966
 1998SOL    HW1 1436   2.900   2.649   1.062
 1998SOL    HW2 1437   2.855   2.533   0.957
 1999SOL     OW 1438   2.842   3.435   1.700
 1999SOL    HW1 1439   2.822   3.479   1.612
 1999SOL    HW2 1440   2.881   3.344   1.684
 2001SOL     OW 1441   2.212   2.760   1.804
 2001SOL    HW1 1442   2.288   2.804   1.852
 2001SOL    HW2 1443   2.247   2.713   1.722
 2005SOL     OW 1444   2.181   2.672   0.949
 2005SOL    HW1 1445   2.274   2.708   0.954
 2005SOL    HW2 1446   2.175   2.587   1.001
 2006SOL     OW 1447   2.201   2.371   1.006
 2006SOL    HW1 1448   2.149   2.288   0.989
 2006SOL    HW2 1449   2.278   2.376   0.942
 2007SOL     OW 1450   3.000   2.242   1.678
 2007SOL    HW1 1451   2.955   2.305   1.742
 2007SOL    HW2 1452   3.093   2.273   1.661
 2008SOL     OW 1453   3.022   2.069   1.477
 2008SOL    HW1 1454   3.022   2.133   1.554
 2008SOL    HW2 1455   3.050   2.117   1.394
 2012SOL     OW 1456   2.864   2.658   1.238
 2012SOL    HW1 1457   2.905   2.626   1.324
 2012SOL    HW2 1458   2.768   2.631   1.235
 2013SOL     OW 1459   1.902   2.406   1.114
 2013SOL    HW1 1460   1.987   2.373   1.073
 2013SOL    HW2 1461   1.915   2.421   1.212
 2014SOL     OW 1462   2.051   2.382   1.722
 2014SOL    HW1 1463   2.110   2.342   1.652
 2014SOL    HW2 1464   1.993   2.453   1.681
 2015SOL     OW 1465   3.231   2.812   1.660
 2015SOL    HW1 1466   3.270   2.901   1.680
 2015SOL    HW2 1467   3.241   2.792   1.563
 2017SOL     OW 1468   3.519   2.466   1.206
 2017SOL    HW1 1469   3.481   2.397   1.268
 2017SOL    HW2 1470   3.601   2.430   1.162
 2018SOL     OW 1471   2.114   3.426   1.744
 2018SOL    HW1 1472   2.084   3.483   1.820
 2018SOL    HW2 1473   2.107   3.329   1.770
 2019SOL     OW 1474   2.533   2.326   1.269
 2019SOL    HW1 1475   2.499   2.237   1.239
 2019SOL    HW2 1476   2.559   2.380   1.189
 2020SOL     OW 1477   2.792   3.540   1.465
 2020SOL    HW1 1478   2.768   3.522   1.370
 2020SOL    HW2 1479   2.822   3.634   1.475
 2022SOL     OW 1480   2.021   2.999   1.466
 2022SOL    HW1 1481   2.043   2.938   1.542
 2022SOL    HW2 1482   2.031   2.950   1.380
 2023SOL     OW 1483   3.209   2.921   1.234
 2023SOL    HW1 1484   3.233   2.858   1.160
 2023SOL    HW2 1485   3.119   2.961   1.216
 2027SOL     OW 1486   1.945   3.120   1.022
 2027SOL    HW1 1487   1.940   3.119   1.122
 2027SOL    HW2 1488   1.862   3.079   0.984
 2028SOL     OW 1489   2.550   3.524   1.716
 2028SOL    HW1 1490   2.494   3.605   1.725
 2028SOL    HW2 1491   2.602   3.528   1.630
 2032SOL     OW 1492   1.992   3.656   1.851
 2032SOL    HW1 1493   1.951   3.582   1.904
 2032SOL    HW2 1494   2.056   3.707   1.909
 2034SOL     OW 1495   2.692   3.135   1.422
 2034SOL    HW1 1496   2.687   3.168   1.517
 2034SOL    HW2 1497   2.606   3.154   1.376
 2038SOL     OW 1498   2.125   2.188   0.720
 2038SOL    HW1 1499   2.046   2.239   0.686
 2038SOL    HW2 1500   2.116   2.173   0.818
 2040SOL     OW 1501   2.684   2.864   1.372
 2040SOL    HW1 1502   2.724   2.863   1.280
 2040SOL    HW2 1503   2.694   2.956   1.412
 2043SOL     OW 1504   2.234   3.150   1.490
 2043SOL    HW1 1505   2.221   3.243   1.456
 2043SOL    HW2 1506   2.150   3.098   1.477
 2044SOL     OW 1507   3.476   3.154   1.289
 2044SOL    HW1 1508   3.536   3.157   1.369
 2044SOL    HW2 1509   3.401   3.218   1.302
 2046SOL     OW 1510   2.876   2.098   0.971
 2046SOL    HW1 1511   2.868   2.062   0.878
 2046SOL    HW2 1512   2.874   2.022   1.036
 2048SOL     OW 1513   3.571   2.247   1.381
 2048SOL    HW1 1514   3.644   2.316   1.385
 2048SOL    HW2 1515   3.599   2.172   1.322
 2050SOL     OW 1516   1.967   2.875   1.726
 2050SOL    HW1 1517   1.890   2.842   1.780
 2050SOL    HW2 1518   2.052   2.845   1.768
 2051SOL     OW 1519   2.534   2.065   1.489
 2051SOL    HW1 1520   2.624   2.049   1.449
 2051SOL    HW2 1521   2.542   2.070   1.588
 2052SOL     OW 1522   3.302   2.718   1.398
 2052SOL    HW1 1523   3.245   2.770   1.335
 2052SOL    HW2 1524   3.398   2.730   1.374
 2055SOL     OW 1525   2.475   2.704   1.431
 2055SOL    HW1 1526   2.531   2.785   1.414
 2055SOL    HW2 1527   2.534   2.624   1.434
 2057SOL     OW 1528   2.578   2.427   1.708
 2057SOL    HW1 1529   2.597   2.492   1.782
 2057SOL    HW2 1530   2.638   2.347   1.717
 2058SOL     OW 1531   3.312   3.082   1.633
 2058SOL    HW1 1532   3.303   3.072   1.732
 2058SOL    HW2 1533   3.408   3.075   1.607
 2059SOL     OW 1534   2.252   3.603   1.560
 2059SOL    HW1 1535   2.161   3.644   1.558
 2059SOL    HW2 1536   2.245   3.509   1.592
 2060SOL     OW 1537   3.536   2.745   1.254
 2060SOL    HW1 1538   3.509   2.656   1.217
 2060SOL    HW2 1539   3.537   2.813   1.181
 2062SOL     OW 1540   2.456   2.607   0.652
 2062SOL    HW1 1541   2.506   2.692   0.633
 2062SOL    HW2 1542   2.368   2.609   0.604
 2063SOL     OW 1543   3.639   2.204   1.642
 2063SOL    HW1 1544   3.622   2.235   1.548
 2063SOL    HW2 1545   3.555   2.167   1.680
 2064SOL     OW 1546   3.592   2.796   1.517
 2064SOL    HW1 1547   3.630   2.887   1.532
 2064SOL    HW2 1548   3.584   2.779   1.418
 2067SOL     OW 1549   2.721   2.818   0.861
 2067SOL    HW1 1550   2.775   2.749   0.909
 2067SOL    HW2 1551   2.689   2.887   0.927
 2070SOL     OW 1552   2.083   3.176   1.844
 2070SOL    HW1 1553   2.018   3.103   1.823
 2070SOL    HW2 1554   2.087   3.190   1.942
 2072SOL     OW 1555   2.534   3.253   1.624
 2072SOL    HW1 1556   2.456   3.203   1.662
 2072SOL    HW2 1557   2.531   3.348   1.655
 2073SOL     OW 1558   3.686   2.054   1.227
 2073SOL    HW1 1559   3.682   1.964   1.271
 2073SOL    HW2 1560   3.689   2.043   1.128
 2076SOL     OW 1561   2.179   2.409   1.280
 2076SOL    HW1 1562   2.217   2.350   1.352
 2076SOL    HW2 1563   2.219   2.383   1.192
 2078SOL     OW 1564   3.286   2.076   1.112
 2078SOL    HW1 1565   3.338   2.011   1.167
 2078SOL    HW2 1566   3.237   2.139   1.173
 2079SOL     OW 1567   2.863   1.896   1.154
 2079SOL    HW1 1568   2.800   1.824   1.123
 2079SOL    HW2 1569   2.956   1.860   1.154
 2081SOL     OW 1570   2.480   3.429   1.284
 2081SOL    HW1 1571   2.475   3.511   1.341
 2081SOL    HW2 1572   2.569   3.426   1.239
 2087SOL     OW 1573   2.092   2.490   1.975
 2087SOL    HW1 1574   1.999   2.488   2.012
 2087SOL    HW2 1575   2.093   2.451   1.883
 2088SOL     OW 1576   2.087   2.137   2.858
 2088SOL    HW1 1577   2.122   2.120   2.950
 2088SOL    HW2 1578   1.999   2.092   2.846
 2089SOL     OW 1579   1.881   2.230   2.509
 2089SOL    HW1 1580   1.799   2.273   2.548
 2089SOL    HW2 1581   1.853   2.157   2.446
 2090SOL     OW 1582   2.431   3.137   3.027
 2090SOL    HW1 1583   2.338   3.130   2.990
 2090SOL    HW2 1584   2.442   3.226   3.071
 2091SOL     OW 1585   3.417   3.373   2.565
 2091SOL    HW1 1586   3.360   3.357   2.646
 2091SOL    HW2 1587   3.358   3.383   2.485
 2092SOL     OW 1588   2.997   2.565   2.579
 2092SOL    HW1 1589   3.054   2.643   2.554
 2092SOL    HW2 1590   2.937   2.591   2.655
 2093SOL     OW 1591   3.617   2.469   2.093
 2093SOL    HW1 1592   3.605   2.456   1.994
 2093SOL    HW2 1593   3.587   2.388   2.142
 2094SOL     OW 1594   2.630   3.006   2.885
 2094SOL    HW1 1595   2.552   3.023   2.945
 2094SOL    HW2 1596   2.664   3.093   2.849
 2095SOL     OW 1597   2.712   2.660   3.685
 2095SOL    HW1 1598   2.708   2.736   3.750
 2095SOL    HW2 1599   2.734   2.696   3.594
 2096SOL     OW 1600   2.547   2.874   2.527
 2096SOL    HW1 1601   2.616   2.858   2.597
 2096SOL    HW2 1602   2.474   2.931   2.565
 2097SOL     OW 1603   2.548   3.023   3.665
 2097SOL    HW1 1604   2.608   3.102   3.679
 2097SOL    HW2 1605   2.462   3.054   3.624
 2098SOL     OW 1606   2.197   3.297   2.923
 2098SOL    HW1 1607   2.119   3.266   2.870
 2098SOL    HW2 1608   2.255   3.355   2.866
 2099SOL     OW 1609   3.322   3.367   3.201
 2099SOL    HW1 1610   3.346   3.461   3.227
 2099SOL    HW2 1611   3.306   3.313   3.283
 2100SOL     OW 1612   2.300   2.254   3.361
 2100SOL    HW1 1613   2.382   2.198   3.370
 2100SOL    HW2 1614   2.219   2.196   3.365
 2101SOL     OW 1615   3.465   2.309   2.599
 2101SOL    HW1 1616   3.391   2.355   2.549
 2101SOL    HW2 1617   3.516   2.377   2.652
 2102SOL     OW 1618   2.093   3.575   2.345
 2102SOL    HW1 1619   2.127   3.652   2.399
 2102SOL    HW2 1620   2.137   3.575   2.255
 2103SOL     OW 1621   2.989   3.203   3.552
 2103SOL    HW1 1622   3.036   3.203   3.640
 2103SOL    HW2 1623   2.941   3.116   3.541
 2104SOL     OW 1624   2.092   3.296   2.400
 2104SOL    HW1 1625   2.066   3.392   2.400
 2104SOL    HW2 1626   2.021   3.242   2.445
 2105SOL     OW 1627   2.102   2.953   2.748
 2105SOL    HW1 1628   2.116   2.869   2.800
 2105SOL    HW2 1629   2.047   3.017   2.803
 2106SOL     OW 1630   2.482   3.648   3.301
 2106SOL    HW1 1631   2.390   3.631   3.336
 2106SOL    HW2 1632   2.510   3.740   3.327
 2107SOL     OW 1633   2.468   2.826   1.985
 2107SOL    HW1 1634   2.475   2.910   1.931
 2107SOL    HW2 1635   2.514   2.839   2.073
 2108SOL     OW 1636   3.456   1.976   3.342
 2108SOL    HW1 1637   3.438   2.043   3.270
 2108SOL    HW2 1638   3.453   2.022   3.431
 2110SOL     OW 1639   1.889   3.458   1.979
 2110SOL    HW1 1640   1.870   3.362   2.000
 2110SOL    HW2 1641   1.856   3.516   2.054
 2111SOL     OW 1642   3.551   2.784   2.474
 2111SOL    HW1 1643   3.646   2.755   2.482
 2111SOL    HW2 1644   3.543   2.849   2.399
 2112SOL     OW 1645   3.503   2.970   2.294
 2112SOL    HW1 1646   3.589   2.972   2.242
 2112SOL    HW2 1647   3.517   3.017   2.382
 2113SOL     OW 1648   1.975   2.599   3.459
 2113SOL    HW1 1649   2.063   2.586   3.504
 2113SOL    HW2 1650   1.962   2.696   3.437
 2114SOL     OW 1651   2.475   3.227   2.588
 2114SOL    HW1 1652   2.426   3.140   2.597
 2114SOL    HW2 1653   2.452   3.270   2.501
 2115SOL     OW 1654   3.155   3.090   3.285
 2115SOL    HW1 1655   3.192   3.017   3.227
 2115SOL    HW2 1656   3.207   3.095   3.370
 2116SOL     OW 1657   2.671   1.866   2.364
 2116SOL    HW1 1658   2.711   1.957   2.355
 2116SOL    HW2 1659   2.571   1.874   2.370
 2117SOL     OW 1660   2.059   2.838   3.126
 2117SOL    HW1 1661   2.148   2.793   3.112
 2117SOL    HW2 1662   1.986   2.773   3.107
 2118SOL     OW 1663   3.387   2.861   2.052
 2118SOL    HW1 1664   3.324   2.785   2.065
 2118SOL    HW2 1665   3.435   2.879   2.138
 2120SOL     OW 1666   2.179   2.113   3.663
 2120SOL    HW1 1667   2.250   2.184   3.669
 2120SOL    HW2 1668   2.091   2.152   3.691
 2121SOL     OW 1669   3.328   3.279   2.815
 2121SOL    HW1 1670   3.269   3.285   2.895
 2121SOL    HW2 1671   3.313   3.191   2.769
 2122SOL     OW 1672   3.529   3.576   2.434
 2122SOL    HW1 1673   3.488   3.553   2.346
 2122SOL    HW2 1674   3.511   3.502   2.499
 2123SOL     OW 1675   2.460   2.591   2.132
 2123SOL    HW1 1676   2.484   2.660   2.064
 2123SOL    HW2 1677   2.382   2.624   2.186
 2124SOL     OW 1678   3.143   2.207   2.806
 2124SOL    HW1 1679   3.057   2.157   2.793
 2124SOL    HW2 1680   3.205   2.153   2.862
 2125SOL     OW 1681   3.438   3.524   2.169
 2125SOL    HW1 1682   3.527   3.570   2.172
 2125SOL    HW2 1683   3.417   3.500   2.074
 2126SOL     OW 1684   2.669   2.467   3.327
 2126SOL    HW1 1685   2.622   2.464   3.416
 2126SOL    HW2 1686   2.618   2.412   3.261
 2127SOL     OW 1687   3.256   2.331   3.536
 2127SOL    HW1 1688   3.236   2.374   3.624
 2127SOL    HW2 1689   3.334   2.269   3.545
 2128SOL     OW 1690   2.835   2.752   3.434
 2128SOL    HW1 1691   2.881   2.668   3.405
 2128SOL    HW2 1692   2.779   2.786   3.359
 2129SOL     OW 1693   2.853   2.272   3.104
 2129SOL    HW1 1694   2.776   2.306   3.158
 2129SOL    HW2 1695   2.819   2.221   3.025
 2130SOL     OW 1696   2.903   2.563   2.291
 2130SOL    HW1 1697   2.929   2.559   2.387
 2130SOL    HW2 1698   2.818   2.512   2.277
 2131SOL     OW 1699   1.938   2.673   2.651
 2131SOL    HW1 1700   2.037   2.661   2.660
 2131SOL    HW2 1701   1.914   2.768   2.672
 2132SOL     OW 1702   1.992   3.683   3.433
 2132SOL    HW1 1703   1.982   3.668   3.532
 2132SOL    HW2 1704   1.906   3.719   3.397
 2133SOL     OW 1705   2.727   2.210   2.057
 2133SOL    HW1 1706   2.786   2.273   2.008
 2133SOL    HW2 1707   2.746   2.116   2.028
 2135SOL     OW 1708   3.224   3.006   2.407
 2135SOL    HW1 1709   3.307   2.977   2.359
 2135SOL    HW2 1710   3.175   3.073   2.351
 2136SOL     OW 1711   2.412   2.058   2.747
 2136SOL    HW1 1712   2.407   2.053   2.847
 2136SOL    HW2 1713   2.414   2.154   2.718
 2137SOL     OW 1714   2.870   3.318   2.339
 2137SOL    HW1 1715   2.824   3.390   2.287
 2137SOL    HW2 1716   2.866   3.338   2.437
 2138SOL     OW 1717   2.213   3.663   2.715
 2138SOL    HW1 1718   2.263   3.577   2.721
 2138SOL    HW2 1719   2.278   3.740   2.712
 2139SOL     OW 1720   3.657   2.928   2.735
 2139SOL    HW1 1721   3.595   2.913   2.659
 2139SOL    HW2 1722   3.605   2.939   2.820
 2140SOL     OW 1723   3.089   3.412   3.368
 2140SOL    HW1 1724   3.095   3.335   3.432
 2140SOL    HW2 1725   3.037   3.386   3.288
 2141SOL     OW 1726   2.183   2.805   2.104
 2141SOL    HW1 1727   2.265   2.844   2.062
 2141SOL    HW2 1728   2.156   2.723   2.055
 2142SOL     OW 1729   3.320   2.597   2.590
 2142SOL    HW1 1730   3.315   2.532   2.665
 2142SOL    HW2 1731   3.400   2.656   2.603
 2143SOL     OW 1732   2.323   3.128   3.589
 2143SOL    HW1 1733   2.273   3.129   3.503
 2143SOL    HW2 1734   2.260   3.110   3.665
 2144SOL     OW 1735   2.973   3.638   2.099
 2144SOL    HW1 1736   2.913   3.576   2.149
 2144SOL    HW2 1737   3.004   3.594   2.014
 2145SOL     OW 1738   2.064   2.147   3.360
 2145SOL    HW1 1739   1.984   2.207   3.347
 2145SOL    HW2 1740   2.054   2.098   3.446
 2146SOL     OW 1741   3.494   3.239   1.943
 2146SOL    HW1 1742   3.462   3.333   1.933
 2146SOL    HW2 1743   3.418   3.176   1.931
 2147SOL     OW 1744   2.326   3.605   2.185
 2147SOL    HW1 1745   2.359   3.644   2.271
 2147SOL    HW2 1746   2.402   3.598   2.120
 2148SOL     OW 1747   3.262   1.969   2.288
 2148SOL    HW1 1748   3.238   1.932   2.198
 2148SOL    HW2 1749   3.361   1.985   2.292
 2149SOL     OW 1750   2.111   3.647   3.103
 2149SOL    HW1 1751   2.168   3.582   3.153
 2149SOL    HW2 1752   2.095   3.614   3.010
 2150SOL     OW 1753   2.802   3.560   2.766
 2150SOL    HW1 1754   2.882   3.503   2.787
 2150SOL    HW2 1755   2.753   3.520   2.689
 2151SOL     OW 1756   3.409   2.084   3.591
 2151SOL    HW1 1757   3.404   2.121   3.683
 2151SOL    HW2 1758   3.337   2.015   3.579
 2152SOL     OW 1759   2.476   1.984   1.979
 2152SOL    HW1 1760   2.574   1.962   1.986
 2152SOL    HW2 1761   2.445   1.967   1.886
 2153SOL     OW 1762   2.643   2.126   3.611
 2153SOL    HW1 1763   2.710   2.065   3.654
 2153SOL    HW2 1764   2.570   2.145   3.676
 2154SOL     OW 1765   2.750   3.376   3.057
 2154SOL    HW1 1766   2.727   3.351   2.963
 2154SOL    HW2 1767   2.811   3.307   3.096
 2155SOL     OW 1768   3.213   2.452   3.295
 2155SOL    HW1 1769   3.241   2.409   3.380
 2155SOL    HW2 1770   3.238   2.548   3.296
 2156SOL     OW 1771   2.665   3.264   2.786
 2156SOL    HW1 1772   2.755   3.278   2.744
 2156SOL    HW2 1773   2.594   3.266   2.715
 2157SOL     OW 1774   2.784   2.365   2.761
 2157SOL    HW1 1775   2.759   2.356   2.665
 2157SOL    HW2 1776   2.832   2.283   2.792
 2158SOL     OW 1777   3.296   3.050   1.903
 2158SOL    HW1 1778   3.328   2.974   1.960
 2158SOL    HW2 1779   3.204   3.077   1.933
 2159SOL     OW 1780   2.159   1.897   2.033
 2159SOL    HW1 1781   2.208   1.981   2.012
 2159SOL    HW2 1782   2.221   1.832   2.078
 2160SOL     OW 1783   2.938   2.545   3.326
 2160SOL    HW1 1784   2.858   2.484   3.329
 2160SOL    HW2 1785   3.019   2.492   3.302
 2161SOL     OW 1786   3.089   3.432   2.655
 2161SOL    HW1 1787   3.110   3.506   2.590
 2161SOL    HW2 1788   3.157   3.432   2.728
 2162SOL     OW 1789   2.321   3.014   2.603
 2162SOL    HW1 1790   2.250   2.987   2.668
 2162SOL    HW2 1791   2.295   2.986   2.510
 2163SOL     OW 1792   3.133   3.659   2.453
 2163SOL    HW1 1793   3.177   3.723   2.389
 2163SOL    HW2 1794   3.083   3.711   2.523
 2164SOL     OW 1795   2.894   2.411   1.878
 2164SOL    HW1 1796   2.853   2.493   1.839
 2164SOL    HW2 1797   2.958   2.437   1.951
 2165SOL     OW 1798   1.940   2.418   3.248
 2165SOL    HW1 1799   2.032   2.417   3.207
 2165SOL    HW2 1800   1.934   2.492   3.315
 2166SOL     OW 1801   2.423   2.084   3.009
 2166SOL    HW1 1802   2.461   2.000   3.046
 2166SOL    HW2 1803   2.335   2.103   3.053
 2167SOL     OW 1804   2.879   1.901   2.615
 2167SOL    HW1 1805   2.807   1.906   2.546
 2167SOL    HW2 1806   2.855   1.832   2.684
 2168SOL     OW 1807   3.291   3.035   2.729
 2168SOL    HW1 1808   3.236   2.951   2.722
 2168SOL    HW2 1809   3.317   3.064   2.637
 2169SOL     OW 1810   3.328   2.452   2.854
 2169SOL    HW1 1811   3.298   2.357   2.861
 2169SOL    HW2 1812   3.401   2.468   2.920
 2170SOL     OW 1813   3.719   2.695   2.239
 2170SOL    HW1 1814   3.761   2.631   2.303
 2170SOL    HW2 1815   3.681   2.644   2.161
 2171SOL     OW 1816   2.350   3.247   2.036
 2171SOL    HW1 1817   2.263   3.232   2.083
 2171SOL    HW2 1818   2.333   3.273   1.941
 2172SOL     OW 1819   3.526   3.142   2.519
 2172SOL    HW1 1820   3.625   3.150   2.533
 2172SOL    HW2 1821   3.481   3.226   2.550
 2173SOL     OW 1822   3.252   2.437   1.940
 2173SOL    HW1 1823   3.198   2.416   2.021
 2173SOL    HW2 1824   3.343   2.396   1.949
 2175SOL     OW 1825   2.926   3.209   3.202
 2175SOL    HW1 1826   2.846   3.186   3.257
 2175SOL    HW2 1827   3.009   3.183   3.251
 2177SOL     OW 1828   2.973   3.057   2.962
 2177SOL    HW1 1829   2.933   3.101   3.043
 2177SOL    HW2 1830   2.932   3.094   2.879
 2178SOL     OW 1831   3.500   2.961   2.941
 2178SOL    HW1 1832   3.505   3.042   3.000
 2178SOL    HW2 1833   3.414   2.963   2.890
 2179SOL     OW 1834   2.777   1.951   3.264
 2179SOL    HW1 1835   2.802   1.931   3.169
 2179SOL    HW2 1836   2.849   2.007   3.306
 2180SOL     OW 1837   2.842   2.978   3.581
 2180SOL    HW1 1838   2.743   2.984   3.591
 2180SOL    HW2 1839   2.865   2.898   3.525
 2181SOL     OW 1840   2.567   2.912   2.230
 2181SOL    HW1 1841   2.553   2.919   2.329
 2181SOL    HW2 1842   2.651   2.861   2.212
 2182SOL     OW 1843   2.272   2.675   3.113
 2182SOL    HW1 1844   2.358   2.687   3.163
 2182SOL    HW2 1845   2.230   2.588   3.140
 2183SOL     OW 1846   3.136   2.248   3.124
 2183SOL    HW1 1847   3.157   2.322   3.188
 2183SOL    HW2 1848   3.047   2.265   3.081
 2184SOL     OW 1849   1.926   3.426   3.193
 2184SOL    HW1 1850   1.880   3.508   3.159
 2184SOL    HW2 1851   2.024   3.445   3.202
 2185SOL     OW 1852   2.229   2.962   2.363
 2185SOL    HW1 1853   2.222   3.045   2.307
 2185SOL    HW2 1854   2.233   2.882   2.303
 2186SOL     OW 1855   2.428   2.399   2.727
 2186SOL    HW1 1856   2.440   2.465   2.653
 2186SOL    HW2 1857   2.474   2.433   2.810
 2187SOL     OW 1858   3.114   3.210   2.250
 2187SOL    HW1 1859   3.164   3.287   2.290
 2187SOL    HW2 1860   3.019   3.212   2.282
 2188SOL     OW 1861   3.134   3.307   3.004
 2188SOL    HW1 1862   3.181   3.320   3.091
 2188SOL    HW2 1863   3.068   3.233   3.013
 2189SOL     OW 1864   3.444   2.501   2.334
 2189SOL    HW1 1865   3.413   2.562   2.407
 2189SOL    HW2 1866   3.494   2.553   2.265
 2190SOL     OW 1867   2.216   3.372   3.191
 2190SOL    HW1 1868   2.195   3.328   3.104
 2190SOL    HW2 1869   2.313   3.398   3.194
 2191SOL     OW 1870   2.264   2.613   3.460
 2191SOL    HW1 1871   2.332   2.668   3.413
 2191SOL    HW2 1872   2.304   2.525   3.487
 2192SOL     OW 1873   3.449   2.641   3.532
 2192SOL    HW1 1874   3.357   2.679   3.527
 2192SOL    HW2 1875   3.509   2.688   3.467
 2193SOL     OW 1876   2.875   1.967   3.632
 2193SOL    HW1 1877   2.881   2.052   3.580
 2193SOL    HW2 1878   2.907   1.891   3.575
 2194SOL     OW 1879   2.366   1.912   3.602
 2194SOL    HW1 1880   2.324   1.855   3.532
 2194SOL    HW2 1881   2.300   1.981   3.634
 2195SOL     OW 1882   2.435   2.732   2.891
 2195SOL    HW1 1883   2.479   2.821   2.882
 2195SOL    HW2 1884   2.372   2.732   2.968
 2196SOL     OW 1885   3.222   2.724   2.907
 2196SOL    HW1 1886   3.147   2.724   2.841
 2196SOL    HW2 1887   3.259   2.632   2.916
 2197SOL     OW 1888   3.071   2.387   2.137
 2197SOL    HW1 1889   3.084   2.303   2.191
 2197SOL    HW2 1890   3.042   2.461   2.197
 2198SOL     OW 1891   2.169   2.075   3.093
 2198SOL    HW1 1892   2.146   2.112   3.183
 2198SOL    HW2 1893   2.139   1.980   3.087
 2199SOL     OW 1894   1.899   3.172   3.144
 2199SOL    HW1 1895   1.952   3.123   3.212
 2199SOL    HW2 1896   1.921   3.270   3.149
 2200SOL     OW 1897   2.594   2.496   2.926
 2200SOL    HW1 1898   2.653   2.470   2.850
 2200SOL    HW2 1899   2.566   2.592   2.915
 2202SOL     OW 1900   2.169   1.925   2.480
 2202SOL    HW1 1901   2.158   2.019   2.513
 2202SOL    HW2 1902   2.164   1.862   2.557
 2203SOL     OW 1903   3.484   2.229   2.236
 2203SOL    HW1 1904   3.486   2.153   2.300
 2203SOL    HW2 1905   3.436   2.306   2.276
 2204SOL     OW 1906   2.885   2.628   2.828
 2204SOL    HW1 1907   2.900   2.649   2.924
 2204SOL    HW2 1908   2.855   2.533   2.819
 2205SOL     OW 1909   2.842   3.435   3.562
 2205SOL    HW1 1910   2.822   3.479   3.474
 2205SOL    HW2 1911   2.881   3.344   3.546
 2207SOL     OW 1912   2.212   2.760   3.666
 2207SOL    HW1 1913   2.288   2.804   3.714
 2207SOL    HW2 1914   2.247   2.713   3.584
 2208SOL     OW 1915   3.402   2.136   1.987
 2208SOL    HW1 1916   3.341   2.061   2.010
 2208SOL    HW2 1917   3.424   2.188   2.070
 2209SOL     OW 1918   3.165   2.700   1.904
 2209SOL    HW1 1919   3.199   2.607   1.919
 2209SOL    HW2 1920   3.183   2.727   1.809
 2210SOL     OW 1921   2.930   3.195   2.711
 2210SOL    HW1 1922   2.937   3.111   2.656
 2210SOL    HW2 1923   2.992   3.264   2.675
 2211SOL     OW 1924   2.181   2.672   2.811
 2211SOL    HW1 1925   2.274   2.708   2.816
 2211SOL    HW2 1926   2.175   2.587   2.863
 2212SOL     OW 1927   2.201   2.371   2.868
 2212SOL    HW1 1928   2.149   2.288   2.851
 2212SOL    HW2 1929   2.278   2.376   2.804
 2213SOL     OW 1930   3.000   2.242   3.540
 2213SOL    HW1 1931   2.955   2.305   3.604
 2213SOL    HW2 1932   3.093   2.273   3.523
 2214SOL     OW 1933   3.022   2.069   3.339
 2214SOL    HW1 1934   3.022   2.133   3.416
 2214SOL    HW2 1935   3.050   2.117   3.256
 2215SOL     OW 1936   1.870   3.188   2.062
 2215SOL    HW1 1937   1.777   3.209   2.031
 2215SOL    HW2 1938   1.880   3.089   2.075
 2216SOL     OW 1939   1.950   3.663   2.789
 2216SOL    HW1 1940   1.908   3.577   2.762
 2216SOL    HW2 1941   2.044   3.666   2.755
 2217SOL     OW 1942   2.366   3.430   2.772
 2217SOL    HW1 1943   2.432   3.504   2.781
 2217SOL    HW2 1944   2.410   3.351   2.730
 2218SOL     OW 1945   2.864   2.658   3.100
 2218SOL    HW1 1946   2.905   2.626   3.186
 2218SOL    HW2 1947   2.768   2.631   3.097
 2219SOL     OW 1948   1.902   2.406   2.976
 2219SOL    HW1 1949   1.987   2.373   2.935
 2219SOL    HW2 1950   1.915   2.421   3.074
 2220SOL     OW 1951   2.051   2.382   3.584
 2220SOL    HW1 1952   2.110   2.342   3.514
 2220SOL    HW2 1953   1.993   2.453   3.543
 2221SOL     OW 1954   3.231   2.812   3.522
 2221SOL    HW1 1955   3.270   2.901   3.542
 2221SOL    HW2 1956   3.241   2.792   3.425
 2222SOL     OW 1957   3.519   2.466   3.068
 2222SOL    HW1 1958   3.481   2.397   3.130
 2222SOL    HW2 1959   3.601   2.430   3.024
 2223SOL     OW 1960   2.114   3.426   3.606
 2223SOL    HW1 1961   2.084   3.483   3.682
 2223SOL    HW2 1962   2.107   3.329   3.632
 2224SOL     OW 1963   2.533   2.326   3.131
 2224SOL    HW1 1964   2.499   2.237   3.101
 2224SOL    HW2 1965   2.559   2.380   3.051
 2225SOL     OW 1966   2.792   3.540   3.327
 2225SOL    HW1 1967   2.768   3.522   3.232
 2225SOL    HW2 1968   2.822   3.634   3.337
 2226SOL     OW 1969   2.335   2.362   2.053
 2226SOL    HW1 1970   2.396   2.442   2.057
 2226SOL    HW2 1971   2.240   2.393   2.060
 2227SOL     OW 1972   2.021   2.999   3.328
 2227SOL    HW1 1973   2.043   2.938   3.404
 2227SOL    HW2 1974   2.031   2.950   3.242
 2228SOL     OW 1975   3.209   2.921   3.096
 2228SOL    HW1 1976   3.233   2.858   3.022
 2228SOL    HW2 1977   3.119   2.961   3.078
 2229SOL     OW 1978   3.164   2.717   2.171
 2229SOL    HW1 1979   3.078   2.686   2.213
 2229SOL    HW2 1980   3.160   2.703   2.072
 2231SOL     OW 1981   3.114   3.593   2.990
 2231SOL    HW1 1982   3.198   3.598   2.936
 2231SOL    HW2 1983   3.091   3.497   3.008
 2232SOL     OW 1984   1.945   3.120   2.884
 2232SOL    HW1 1985   1.940   3.119   2.984
 2232SOL    HW2 1986   1.862   3.079   2.846
 2233SOL     OW 1987   2.550   3.524   3.578
 2233SOL    HW1 1988   2.494   3.605   3.587
 2233SOL    HW2 1989   2.602   3.528   3.492
 2234SOL     OW 1990   3.588   1.997   2.385
 2234SOL    HW1 1991   3.661   1.980   2.318
 2234SOL    HW2 1992   3.557   1.910   2.423
 2235SOL     OW 1993   3.250   3.435   2.339
 2235SOL    HW1 1994   3.317   3.447   2.265
 2235SOL    HW2 1995   3.210   3.524   2.362
 2237SOL     OW 1996   3.142   2.789   2.534
 2237SOL    HW1 1997   3.202   2.708   2.536
 2237SOL    HW2 1998   3.182   2.858   2.474
 2238SOL     OW 1999   2.692   3.135   3.284
 2238SOL    HW1 2000   2.687   3.168   3.379
 2238SOL    HW2 2001   2.606   3.154   3.238
 2239SOL     OW 2002   2.534   3.478   2.016
 2239SOL    HW1 2003   2.543   3.488   1.917
 2239SOL    HW2 2004   2.494   3.389   2.037
 2241SOL     OW 2005   3.703   2.037   2.825
 2241SOL    HW1 2006   3.742   1.952   2.789
 2241SOL    HW2 2007   3.605   2.039   2.806
 2242SOL     OW 2008   3.056   3.474   1.893
 2242SOL    HW1 2009   3.062   3.381   1.930
 2242SOL    HW2 2010   2.997   3.474   1.813
 2243SOL     OW 2011   2.684   2.864   3.234
 2243SOL    HW1 2012   2.724   2.863   3.142
 2243SOL    HW2 2013   2.694   2.956   3.274
 2244SOL     OW 2014   2.778   2.772   2.153
 2244SOL    HW1 2015   2.841   2.810   2.085
 2244SOL    HW2 2016   2.818   2.689   2.192
 2245SOL     OW 2017   3.366   3.469   1.906
 2245SOL    HW1 2018   3.274   3.506   1.913
 2245SOL    HW2 2019   3.404   3.489   1.816
 2246SOL     OW 2020   2.234   3.150   3.352
 2246SOL    HW1 2021   2.221   3.243   3.318
 2246SOL    HW2 2022   2.150   3.098   3.339
 2247SOL     OW 2023   3.476   3.154   3.151
 2247SOL    HW1 2024   3.536   3.157   3.231
 2247SOL    HW2 2025   3.401   3.218   3.164
 2248SOL     OW 2026   2.901   2.960   2.558
 2248SOL    HW1 2027   2.831   2.913   2.612
 2248SOL    HW2 2028   2.960   2.892   2.515
 2249SOL     OW 2029   2.876   2.098   2.833
 2249SOL    HW1 2030   2.868   2.062   2.740
 2249SOL    HW2 2031   2.874   2.022   2.898
 2250SOL     OW 2032   2.452   3.349   2.353
 2250SOL    HW1 2033   2.494   3.291   2.283
 2250SOL    HW2 2034   2.408   3.428   2.309
 2251SOL     OW 2035   3.571   2.247   3.243
 2251SOL    HW1 2036   3.644   2.316   3.247
 2251SOL    HW2 2037   3.599   2.172   3.184
 2252SOL     OW 2038   2.117   3.210   2.152
 2252SOL    HW1 2039   2.021   3.211   2.125
 2252SOL    HW2 2040   2.129   3.263   2.236
 2253SOL     OW 2041   1.967   2.875   3.588
 2253SOL    HW1 2042   1.890   2.842   3.642
 2253SOL    HW2 2043   2.052   2.845   3.630
 2254SOL     OW 2044   2.534   2.065   3.351
 2254SOL    HW1 2045   2.624   2.049   3.311
 2254SOL    HW2 2046   2.542   2.070   3.450
 2255SOL     OW 2047   1.937   2.207   1.895
 2255SOL    HW1 2048   1.845   2.179   1.866
 2255SOL    HW2 2049   1.968   2.284   1.839
 2256SOL     OW 2050   3.302   2.718   3.260
 2256SOL    HW1 2051   3.245   2.770   3.197
 2256SOL    HW2 2052   3.398   2.730   3.236
 2257SOL     OW 2053   1.934   2.028   2.180
 2257SOL    HW1 2054   1.917   2.111   2.126
 2257SOL    HW2 2055   2.024   1.991   2.158
 2258SOL     OW 2056   3.045   3.197   1.981
 2258SOL    HW1 2057   2.946   3.186   1.983
 2258SOL    HW2 2058   3.079   3.212   2.074
 2259SOL     OW 2059   2.475   2.704   3.293
 2259SOL    HW1 2060   2.531   2.785   3.276
 2259SOL    HW2 2061   2.534   2.624   3.296
 2260SOL     OW 2062   3.355   3.629   2.821
 2260SOL    HW1 2063   3.388   3.693   2.752
 2260SOL    HW2 2064   3.421   3.623   2.896
 2261SOL     OW 2065   2.578   2.427   3.570
 2261SOL    HW1 2066   2.597   2.492   3.644
 2261SOL    HW2 2067   2.638   2.347   3.579
 2262SOL     OW 2068   3.312   3.082   3.495
 2262SOL    HW1 2069   3.303   3.072   3.594
 2262SOL    HW2 2070   3.408   3.075   3.469
 2263SOL     OW 2071   2.252   3.603   3.422
 2263SOL    HW1 2072   2.161   3.644   3.420
 2263SOL    HW2 2073   2.245   3.509   3.454
 2264SOL     OW 2074   3.536   2.745   3.116
 2264SOL    HW1 2075   3.509   2.656   3.079
 2264SOL    HW2 2076   3.537   2.813   3.043
 2265SOL     OW 2077   3.087   2.187   2.311
 2265SOL    HW1 2078   3.152   2.113   2.300
 2265SOL    HW2 2079   3.107   2.237   2.395
 2266SOL     OW 2080   3.639   2.204   3.504
 2266SOL    HW1 2081   3.622   2.235   3.410
 2266SOL    HW2 2082   3.555   2.167   3.542
 2267SOL     OW 2083   3.592   2.796   3.379
 2267SOL    HW1 2084   3.630   2.887   3.394
 2267SOL    HW2 2085   3.584   2.779   3.280
 2268SOL     OW 2086   2.721   3.236   1.878
 2268SOL    HW1 2087   2.675   3.251   1.966
 2268SOL    HW2 2088   2.765   3.321   1.848
 2269SOL     OW 2089   2.523   3.652   2.815
 2269SOL    HW1 2090   2.477   3.740   2.802
 2269SOL    HW2 2091   2.622   3.664   2.808
 2270SOL     OW 2092   2.721   2.818   2.723
 2270SOL    HW1 2093   2.775   2.749   2.771
 2270SOL    HW2 2094   2.689   2.887   2.789
 2271SOL     OW 2095   2.945   2.846   1.949
 2271SOL    HW1 2096   2.922   2.899   1.867
 2271SOL    HW2 2097   3.026   2.790   1.930
 2272SOL     OW 2098   3.723   3.431   2.713
 2272SOL    HW1 2099   3.652   3.419   2.643
 2272SOL    HW2 2100   3.724   3.352   2.773
 2273SOL     OW 2101   2.083   3.176   3.706
 2273SOL    HW1 2102   2.018   3.103   3.685
 2273SOL    HW2 2103   2.087   3.190   3.804
 2274SOL     OW 2104   1.941   3.102   2.515
 2274SOL    HW1 2105   1.940   3.055   2.603
 2274SOL    HW2 2106   2.023   3.074   2.464
 2275SOL     OW 2107   2.534   3.253   3.486
 2275SOL    HW1 2108   2.456   3.203   3.524
 2275SOL    HW2 2109   2.531   3.348   3.517
 2276SOL     OW 2110   3.686   2.054   3.089
 2276SOL    HW1 2111   3.682   1.964   3.133
 2276SOL    HW2 2112   3.689   2.043   2.990
 2277SOL     OW 2113   3.567   3.349   2.966
 2277SOL    HW1 2114   3.474   3.324   2.939
 2277SOL    HW2 2115   3.593   3.299   3.048
 2278SOL     OW 2116   2.179   2.409   3.142
 2278SOL    HW1 2117   2.217   2.350   3.214
 2278SOL    HW2 2118   2.219   2.383   3.054
 2279SOL     OW 2119   2.674   3.448   2.549
 2279SOL    HW1 2120   2.706   3.458   2.455
 2279SOL    HW2 2121   2.595   3.386   2.551
 2280SOL     OW 2122   3.286   2.076   2.974
 2280SOL    HW1 2123   3.338   2.011   3.029
 2280SOL    HW2 2124   3.237   2.139   3.035
 2281SOL     OW 2125   2.863   1.896   3.016
 2281SOL    HW1 2126   2.800   1.824   2.985
 2281SOL    HW2 2127   2.956   1.860   3.016
 2282SOL     OW 2128   2.632   3.192   2.163
 2282SOL    HW1 2129   2.586   3.105   2.180
 2282SOL    HW2 2130   2.723   3.189   2.204
 2283SOL     OW 2131   2.480   3.429   3.146
 2283SOL    HW1 2132   2.475   3.511   3.203
 2283SOL    HW2 2133   2.569   3.426   3.101
 2284SOL     OW 2134   3.214   1.914   2.030
 2284SOL    HW1 2135   3.249   1.873   1.946
 2284SOL    HW2 2136   3.124   1.876   2.050
 2285SOL     OW 2137   3.162   2.315   2.553
 2285SOL    HW1 2138   3.103   2.395   2.557
 2285SOL    HW2 2139   3.177   2.280   2.646
 2286SOL     OW 2140   3.455   2.083   2.744
 2286SOL    HW1 2141   3.371   2.082   2.798
 2286SOL    HW2 2142   3.457   2.166   2.688
 2287SOL     OW 2143   1.901   2.939   2.162
 2287SOL    HW1 2144   2.000   2.928   2.153
 2287SOL    HW2 2145   1.861   2.853   2.194
 2288SOL     OW 2146   2.737   3.508   2.199
 2288SOL    HW1 2147   2.660   3.473   2.145
 2288SOL    HW2 2148   2.705   3.579   2.261
 2289SOL     OW 2149   2.092   2.490   3.837
 2289SOL    HW1 2150   1.999   2.488   3.874
 2289SOL    HW2 2151   2.093   2.451   3.745
 2301SOL     OW 2152   2.468   2.826   3.847
 2301SOL    HW1 2153   2.475   2.910   3.793
 2301SOL    HW2 2154   2.514   2.839   3.935
 2312SOL     OW 2155   2.460   2.591   3.994
 2312SOL    HW1 2156   2.484   2.660   3.926
 2312SOL    HW2 2157   2.382   2.624   4.048
 2317SOL     OW 2158   2.727   2.210   3.919
 2317SOL    HW1 2159   2.786   2.273   3.870
 2317SOL    HW2 2160   2.746   2.116   3.890
 2323SOL     OW 2161   2.183   2.805   3.966
 2323SOL    HW1 2162   2.265   2.844   3.924
 2323SOL    HW2 2163   2.156   2.723   3.917
 2330SOL     OW 2164   2.476   1.984   3.841
 2330SOL    HW1 2165   2.574   1.962   3.848
 2330SOL    HW2 2166   2.445   1.967   3.748
 2333SOL     OW 2167   2.159   1.897   3.895
 2333SOL    HW1 2168   2.208   1.981   3.874
 2333SOL    HW2 2169   2.221   1.832   3.940
 2338SOL     OW 2170   2.894   2.411   3.740
 2338SOL    HW1 2171   2.853   2.493   3.701
 2338SOL    HW2 2172   2.958   2.437   3.813
 2342SOL     OW 2173   2.350   3.247   3.898
 2342SOL    HW1 2174   2.263   3.232   3.945
 2342SOL    HW2 2175   2.333   3.273   3.803
 2344SOL     OW 2176   3.252   2.437   3.802
 2344SOL    HW1 2177   3.198   2.416   3.883
 2344SOL    HW2 2178   3.343   2.396   3.811
 2345SOL     OW 2179   2.389   2.118   4.052
 2345SOL    HW1 2180   2.416   2.059   3.977
 2345SOL    HW2 2181   2.389   2.213   4.021
 2351SOL     OW 2182   3.071   2.387   3.999
 2351SOL    HW1 2183   3.084   2.303   4.053
 2351SOL    HW2 2184   3.042   2.461   4.059
 2356SOL     OW 2185   3.165   2.700   3.766
 2356SOL    HW1 2186   3.199   2.607   3.781
 2356SOL    HW2 2187   3.183   2.727   3.671
 2362SOL     OW 2188   2.677   2.434   4.049
 2362SOL    HW1 2189   2.684   2.345   4.003
 2362SOL    HW2 2190   2.583   2.468   4.041
 2363SOL     OW 2191   2.335   2.362   3.915
 2363SOL    HW1 2192   2.396   2.442   3.919
 2363SOL    HW2 2193   2.240   2.393   3.922
 2373SOL     OW 2194   2.778   2.772   4.015
 2373SOL    HW1 2195   2.841   2.810   3.947
 2373SOL    HW2 2196   2.818   2.689   4.054
 2378SOL     OW 2197   1.937   2.207   3.757
 2378SOL    HW1 2198   1.845   2.179   3.728
 2378SOL    HW2 2199   1.968   2.284   3.701
 2379SOL     OW 2200   1.934   2.028   4.042
 2379SOL    HW1 2201   1.917   2.111   3.988
 2379SOL    HW2 2202   2.024   1.991   4.020
 2384SOL     OW 2203   2.721   3.236   3.740
 2384SOL    HW1 2204   2.675   3.251   3.828
 2384SOL    HW2 2205   2.765   3.321   3.710
 2387SOL     OW 2206   2.945   2.846   3.811
 2387SOL    HW1 2207   2.922   2.899   3.729
 2387SOL    HW2 2208   3.026   2.790   3.792
 2413SOL     OW 2209   2.179   3.975   1.801
 2413SOL    HW1 2210   2.250   4.046   1.807
 2413SOL    HW2 2211   2.091   4.014   1.829
 2430SOL     OW 2212   2.643   3.988   1.749
 2430SOL    HW1 2213   2.710   3.927   1.792
 2430SOL    HW2 2214   2.570   4.007   1.814
 2447SOL     OW 2215   2.777   3.813   1.402
 2447SOL    HW1 2216   2.802   3.793   1.307
 2447SOL    HW2 2217   2.849   3.869   1.444
 2454SOL     OW 2218   2.875   3.829   1.770
 2454SOL    HW1 2219   2.881   3.914   1.718
 2454SOL    HW2 2220   2.907   3.753   1.713
 2455SOL     OW 2221   2.366   3.774   1.740
 2455SOL    HW1 2222   2.324   3.717   1.670
 2455SOL    HW2 2223   2.300   3.843   1.772
 2508SOL     OW 2224   2.087   3.999   2.858
 2508SOL    HW1 2225   2.122   3.982   2.950
 2508SOL    HW2 2226   1.999   3.954   2.846
 2519SOL     OW 2227   2.671   3.728   2.364
 2519SOL    HW1 2228   2.711   3.819   2.355
 2519SOL    HW2 2229   2.571   3.736   2.370
 2531SOL     OW 2230   2.727   4.072   2.057
 2531SOL    HW1 2231   2.786   4.135   2.008
 2531SOL    HW2 2232   2.746   3.978   2.028
 2533SOL     OW 2233   2.412   3.920   2.747
 2533SOL    HW1 2234   2.407   3.915   2.847
 2533SOL    HW2 2235   2.414   4.016   2.718
 2536SOL     OW 2236   3.262   3.831   2.288
 2536SOL    HW1 2237   3.238   3.794   2.198
 2536SOL    HW2 2238   3.361   3.847   2.292
 2539SOL     OW 2239   2.476   3.846   1.979
 2539SOL    HW1 2240   2.574   3.824   1.986
 2539SOL    HW2 2241   2.445   3.829   1.886
 2543SOL     OW 2242   2.401   3.788   2.374
 2543SOL    HW1 2243   2.320   3.789   2.432
 2543SOL    HW2 2244   2.404   3.871   2.319
 2544SOL     OW 2245   2.159   3.759   2.033
 2544SOL    HW1 2246   2.208   3.843   2.012
 2544SOL    HW2 2247   2.221   3.694   2.078
 2545SOL     OW 2248   2.797   3.960   2.342
 2545SOL    HW1 2249   2.749   4.001   2.264
 2545SOL    HW2 2250   2.896   3.958   2.323
 2549SOL     OW 2251   2.423   3.946   3.009
 2549SOL    HW1 2252   2.461   3.862   3.046
 2549SOL    HW2 2253   2.335   3.965   3.053
 2551SOL     OW 2254   2.879   3.763   2.615
 2551SOL    HW1 2255   2.807   3.768   2.546
 2551SOL    HW2 2256   2.855   3.694   2.684
 2555SOL     OW 2257   2.389   3.980   2.190
 2555SOL    HW1 2258   2.416   3.921   2.115
 2555SOL    HW2 2259   2.389   4.075   2.159
 2557SOL     OW 2260   2.777   3.813   3.264
 2557SOL    HW1 2261   2.802   3.793   3.169
 2557SOL    HW2 2262   2.849   3.869   3.306
 2569SOL     OW 2263   2.169   3.937   3.093
 2569SOL    HW1 2264   2.146   3.974   3.183
 2569SOL    HW2 2265   2.139   3.842   3.087
 2572SOL     OW 2266   2.169   3.787   2.480
 2572SOL    HW1 2267   2.158   3.881   2.513
 2572SOL    HW2 2268   2.164   3.724   2.557
 2594SOL     OW 2269   2.125   4.050   2.582
 2594SOL    HW1 2270   2.046   4.101   2.548
 2594SOL    HW2 2271   2.116   4.035   2.680
 2596SOL     OW 2272   2.876   3.960   2.833
 2596SOL    HW1 2273   2.868   3.924   2.740
 2596SOL    HW2 2274   2.874   3.884   2.898
 2602SOL     OW 2275   1.934   3.890   2.180
 2602SOL    HW1 2276   1.917   3.973   2.126
 2602SOL    HW2 2277   2.024   3.853   2.158
 2611SOL     OW 2278   2.290   4.148   2.382
 2611SOL    HW1 2279   2.320   4.076   2.320
 2611SOL    HW2 2280   2.251   4.108   2.465
 2614SOL     OW 2281   2.863   3.758   3.016
 2614SOL    HW1 2282   2.800   3.686   2.985
 2614SOL    HW2 2283   2.956   3.722   3.016
 2615SOL     OW 2284   3.214   3.776   2.030
 2615SOL    HW1 2285   3.249   3.735   1.946
 2615SOL    HW2 2286   3.124   3.738   2.050
 2701SOL     OW 2287   3.854   1.821   1.571
 2701SOL    HW1 2288   3.844   1.806   1.670
 2701SOL    HW2 2289   3.768   1.857   1.535
 2758SOL     OW 2290   3.854   1.794   1.851
 2758SOL    HW1 2291   3.813   1.720   1.904
 2758SOL    HW2 2292   3.918   1.845   1.909
 2797SOL     OW 2293   3.955   1.713   2.345
 2797SOL    HW1 2294   3.989   1.790   2.399
 2797SOL    HW2 2295   3.999   1.713   2.255
 2803SOL     OW 2296   3.751   1.596   1.979
 2803SOL    HW1 2297   3.732   1.500   2.000
 2803SOL    HW2 2298   3.718   1.654   2.054
 2856SOL     OW 2299   3.732   1.326   2.062
 2856SOL    HW1 2300   3.639   1.347   2.031
 2856SOL    HW2 2301   3.742   1.227   2.075
 2857SOL     OW 2302   3.812   1.801   2.789
 2857SOL    HW1 2303   3.770   1.715   2.762
 2857SOL    HW2 2304   3.906   1.804   2.755
 2975SOL     OW 2305   3.837   2.599   1.597
 2975SOL    HW1 2306   3.925   2.586   1.642
 2975SOL    HW2 2307   3.824   2.696   1.575
 2979SOL     OW 2308   4.041   2.113   1.801
 2979SOL    HW1 2309   4.112   2.184   1.807
 2979SOL    HW2 2310   3.953   2.152   1.829
 2991SOL     OW 2311   3.926   2.147   1.498
 2991SOL    HW1 2312   3.846   2.207   1.485
 2991SOL    HW2 2313   3.916   2.098   1.584
 3002SOL     OW 2314   3.802   2.418   1.386
 3002SOL    HW1 2315   3.894   2.417   1.345
 3002SOL    HW2 2316   3.796   2.492   1.453
 3031SOL     OW 2317   3.913   2.382   1.722
 3031SOL    HW1 2318   3.972   2.342   1.652
 3031SOL    HW2 2319   3.855   2.453   1.681
 3049SOL     OW 2320   3.829   2.875   1.726
 3049SOL    HW1 2321   3.752   2.842   1.780
 3049SOL    HW2 2322   3.914   2.845   1.768
 3071SOL     OW 2323   3.954   2.490   1.975
 3071SOL    HW1 2324   3.861   2.488   2.012
 3071SOL    HW2 2325   3.955   2.451   1.883
 3072SOL     OW 2326   3.949   2.137   2.858
 3072SOL    HW1 2327   3.984   2.120   2.950
 3072SOL    HW2 2328   3.861   2.092   2.846
 3073SOL     OW 2329   3.743   2.230   2.509
 3073SOL    HW1 2330   3.661   2.273   2.548
 3073SOL    HW2 2331   3.715   2.157   2.446
 3083SOL     OW 2332   3.964   2.953   2.748
 3083SOL    HW1 2333   3.978   2.869   2.800
 3083SOL    HW2 2334   3.909   3.017   2.803
 3086SOL     OW 2335   3.846   2.505   2.425
 3086SOL    HW1 2336   3.801   2.417   2.442
 3086SOL    HW2 2337   3.845   2.559   2.509
 3096SOL     OW 2338   3.800   2.673   2.651
 3096SOL    HW1 2339   3.899   2.661   2.660
 3096SOL    HW2 2340   3.776   2.768   2.672
 3102SOL     OW 2341   4.045   2.805   2.104
 3102SOL    HW1 2342   4.127   2.844   2.062
 3102SOL    HW2 2343   4.018   2.723   2.055
 3107SOL     OW 2344   4.106   2.562   2.342
 3107SOL    HW1 2345   4.151   2.472   2.339
 3107SOL    HW2 2346   4.012   2.551   2.375
 3113SOL     OW 2347   4.021   1.897   2.033
 3113SOL    HW1 2348   4.070   1.981   2.012
 3113SOL    HW2 2349   4.083   1.832   2.078
 3116SOL     OW 2350   3.802   2.418   3.248
 3116SOL    HW1 2351   3.894   2.417   3.207
 3116SOL    HW2 2352   3.796   2.492   3.315
 3132SOL     OW 2353   3.761   3.172   3.144
 3132SOL    HW1 2354   3.814   3.123   3.212
 3132SOL    HW2 2355   3.783   3.270   3.149
 3134SOL     OW 2356   4.031   1.925   2.480
 3134SOL    HW1 2357   4.020   2.019   2.513
 3134SOL    HW2 2358   4.026   1.862   2.557
 3138SOL     OW 2359   4.043   2.672   2.811
 3138SOL    HW1 2360   4.136   2.708   2.816
 3138SOL    HW2 2361   4.037   2.587   2.863
 3139SOL     OW 2362   4.063   2.371   2.868
 3139SOL    HW1 2363   4.011   2.288   2.851
 3139SOL    HW2 2364   4.140   2.376   2.804
 3140SOL     OW 2365   3.732   3.188   2.062
 3140SOL    HW1 2366   3.639   3.209   2.031
 3140SOL    HW2 2367   3.742   3.089   2.075
 3144SOL     OW 2368   3.764   2.406   2.976
 3144SOL    HW1 2369   3.849   2.373   2.935
 3144SOL    HW2 2370   3.777   2.421   3.074
 3151SOL     OW 2371   3.807   3.120   2.884
 3151SOL    HW1 2372   3.802   3.119   2.984
 3151SOL    HW2 2373   3.724   3.079   2.846
 3157SOL     OW 2374   3.987   2.188   2.582
 3157SOL    HW1 2375   3.908   2.239   2.548
 3157SOL    HW2 2376   3.978   2.173   2.680
 3164SOL     OW 2377   3.799   2.207   1.895
 3164SOL    HW1 2378   3.707   2.179   1.866
 3164SOL    HW2 2379   3.830   2.284   1.839
 3165SOL     OW 2380   3.796   2.028   2.180
 3165SOL    HW1 2381   3.779   2.111   2.126
 3165SOL    HW2 2382   3.886   1.991   2.158
 3174SOL     OW 2383   3.803   3.102   2.515
 3174SOL    HW1 2384   3.802   3.055   2.603
 3174SOL    HW2 2385   3.885   3.074   2.464
 3176SOL     OW 2386   4.152   2.286   2.382
 3176SOL    HW1 2387   4.182   2.214   2.320
 3176SOL    HW2 2388   4.113   2.246   2.465
 3182SOL     OW 2389   3.763   2.939   2.162
 3182SOL    HW1 2390   3.862   2.928   2.153
 3182SOL    HW2 2391   3.723   2.853   2.194
   4.71888   4.71888   4.71888
