; mobley_2316618_GMX.itp created by acpype (v: 2023.10.27) on Thu May 21 00:23:06 2026

[ atomtypes ]
;name   bond_type     mass     charge   ptype   sigma         epsilon       Amb
 ca       ca          0.00000  0.00000   A     3.31521e-01   4.13379e-01 ; 1.86  0.0988
 c        c           0.00000  0.00000   A     3.31521e-01   4.13379e-01 ; 1.86  0.0988
 c3       c3          0.00000  0.00000   A     3.39771e-01   4.51035e-01 ; 1.91  0.1078
 nu       nu          0.00000  0.00000   A     3.27904e-01   6.46428e-01 ; 1.84  0.1545
 o        o           0.00000  0.00000   A     3.04812e-01   6.12119e-01 ; 1.71  0.1463
 oh       oh          0.00000  0.00000   A     3.24287e-01   3.89112e-01 ; 1.82  0.0930
 ha       ha          0.00000  0.00000   A     2.62548e-01   6.73624e-02 ; 1.47  0.0161
 h1       h1          0.00000  0.00000   A     2.42200e-01   8.70272e-02 ; 1.36  0.0208
 hn       hn          0.00000  0.00000   A     1.10650e-01   4.18400e-02 ; 0.62  0.0100
 ho       ho          0.00000  0.00000   A     5.37925e-02   1.96648e-02 ; 0.30  0.0047

[ moleculetype ]
;name            nrexcl
 mobley_2316618   3

[ atoms ]
;   nr  type  resi  res  atom  cgnr     charge      mass       ; qtot   bond_type
     1   ca     1   MOL    C1    1    -0.120000     12.01000 ; qtot -0.120
     2   ca     1   MOL    C2    2    -0.117000     12.01000 ; qtot -0.237
     3   ca     1   MOL    C3    3    -0.074000     12.01000 ; qtot -0.311
     4   ca     1   MOL    C4    4    -0.086000     12.01000 ; qtot -0.397
     5   ca     1   MOL    C5    5    -0.089000     12.01000 ; qtot -0.486
     6   ca     1   MOL    C6    6    -0.141000     12.01000 ; qtot -0.627
     7   ca     1   MOL    C7    7    -0.195000     12.01000 ; qtot -0.822
     8   ca     1   MOL    C8    8    -0.130600     12.01000 ; qtot -0.953
     9   ca     1   MOL    C9    9    -0.124600     12.01000 ; qtot -1.077
    10   ca     1   MOL   C10   10    -0.086600     12.01000 ; qtot -1.164
    11   ca     1   MOL   C11   11    -0.207600     12.01000 ; qtot -1.371
    12   ca     1   MOL   C12   12     0.228600     12.01000 ; qtot -1.143
    13    c     1   MOL   C13   13     0.582300     12.01000 ; qtot -0.560
    14    c     1   MOL   C14   14     0.601300     12.01000 ; qtot 0.041
    15   c3     1   MOL   C15   15     0.195800     12.01000 ; qtot 0.237
    16   c3     1   MOL   C16   16     0.119400     12.01000 ; qtot 0.356
    17   nu     1   MOL    N1   17    -0.741600     14.01000 ; qtot -0.386
    18    o     1   MOL    O1   18    -0.522100     16.00000 ; qtot -0.908
    19    o     1   MOL    O2   19    -0.553100     16.00000 ; qtot -1.461
    20   oh     1   MOL    O3   20    -0.600800     16.00000 ; qtot -2.062
    21   ha     1   MOL    H1   21     0.140000      1.00800 ; qtot -1.922
    22   ha     1   MOL    H2   22     0.140000      1.00800 ; qtot -1.782
    23   ha     1   MOL    H3   23     0.138000      1.00800 ; qtot -1.644
    24   ha     1   MOL    H4   24     0.157000      1.00800 ; qtot -1.487
    25   ha     1   MOL    H5   25     0.157000      1.00800 ; qtot -1.330
    26   ha     1   MOL    H6   26     0.159000      1.00800 ; qtot -1.171
    27   ha     1   MOL    H7   27     0.138000      1.00800 ; qtot -1.033
    28   h1     1   MOL    H8   28     0.049200      1.00800 ; qtot -0.983
    29   h1     1   MOL    H9   29     0.049200      1.00800 ; qtot -0.934
    30   h1     1   MOL   H10   30     0.036200      1.00800 ; qtot -0.898
    31   h1     1   MOL   H11   31     0.036200      1.00800 ; qtot -0.862
    32   hn     1   MOL   H12   32     0.454800      1.00800 ; qtot -0.407
    33   ho     1   MOL   H13   33     0.407000      1.00800 ; qtot 0.000

[ bonds ]
;   ai     aj funct   r             k
     1      2   1    1.3986e-01    2.9644e+05 ;     C1 - C2    
     1      4   1    1.3986e-01    2.9644e+05 ;     C1 - C4    
     1     21   1    1.0860e-01    3.0183e+05 ;     C1 - H1    
     2      5   1    1.3986e-01    2.9644e+05 ;     C2 - C5    
     2     22   1    1.0860e-01    3.0183e+05 ;     C2 - H2    
     3      6   1    1.3986e-01    2.9644e+05 ;     C3 - C6    
     3      7   1    1.3986e-01    2.9644e+05 ;     C3 - C7    
     3     23   1    1.0860e-01    3.0183e+05 ;     C3 - H3    
     4      8   1    1.3986e-01    2.9644e+05 ;     C4 - C8    
     4     24   1    1.0860e-01    3.0183e+05 ;     C4 - H4    
     5      9   1    1.3986e-01    2.9644e+05 ;     C5 - C9    
     5     25   1    1.0860e-01    3.0183e+05 ;     C5 - H5    
     6     10   1    1.3986e-01    2.9644e+05 ;     C6 - C10   
     6     26   1    1.0860e-01    3.0183e+05 ;     C6 - H6    
     7     12   1    1.3986e-01    2.9644e+05 ;     C7 - C12   
     7     27   1    1.0860e-01    3.0183e+05 ;     C7 - H7    
     8      9   1    1.3986e-01    2.9644e+05 ;     C8 - C9    
     8     13   1    1.4907e-01    2.1994e+05 ;     C8 - C13   
     9     14   1    1.4907e-01    2.1994e+05 ;     C9 - C14   
    10     11   1    1.3986e-01    2.9644e+05 ;    C10 - C11   
    10     13   1    1.4907e-01    2.1994e+05 ;    C10 - C13   
    11     12   1    1.3986e-01    2.9644e+05 ;    C11 - C12   
    11     14   1    1.4907e-01    2.1994e+05 ;    C11 - C14   
    12     17   1    1.3944e-01    2.6771e+05 ;    C12 - N1    
    13     18   1    1.2190e-01    4.9421e+05 ;    C13 - O1    
    14     19   1    1.2190e-01    4.9421e+05 ;    C14 - O2    
    15     16   1    1.5354e-01    1.9154e+05 ;    C15 - C16   
    15     17   1    1.4590e-01    2.1658e+05 ;    C15 - N1    
    15     28   1    1.0969e-01    2.8804e+05 ;    C15 - H8    
    15     29   1    1.0969e-01    2.8804e+05 ;    C15 - H9    
    16     20   1    1.4242e-01    2.3861e+05 ;    C16 - O3    
    16     30   1    1.0969e-01    2.8804e+05 ;    C16 - H10   
    16     31   1    1.0969e-01    2.8804e+05 ;    C16 - H11   
    17     32   1    1.0137e-01    3.9538e+05 ;     N1 - H12   
    20     33   1    9.7250e-02    4.4811e+05 ;     O3 - H13   

[ pairs ]
;   ai     aj    funct
     1      9      1 ;     C1 - C9    
     1     13      1 ;     C1 - C13   
     1     25      1 ;     C1 - H5    
     2      8      1 ;     C2 - C8    
     2     14      1 ;     C2 - C14   
     2     24      1 ;     C2 - H4    
     3     11      1 ;     C3 - C11   
     3     13      1 ;     C3 - C13   
     3     17      1 ;     C3 - N1    
     4      5      1 ;     C4 - C5    
     4     10      1 ;     C4 - C10   
     4     14      1 ;     C4 - C14   
     4     18      1 ;     C4 - O1    
     4     22      1 ;     C4 - H2    
     5     11      1 ;     C5 - C11   
     5     13      1 ;     C5 - C13   
     5     19      1 ;     C5 - O2    
     6      8      1 ;     C6 - C8    
     6     12      1 ;     C6 - C12   
     6     14      1 ;     C6 - C14   
     6     18      1 ;     C6 - O1    
     6     27      1 ;     C6 - H7    
     7     10      1 ;     C7 - C10   
     7     14      1 ;     C7 - C14   
     7     15      1 ;     C7 - C15   
     7     26      1 ;     C7 - H6    
     7     32      1 ;     C7 - H12   
     8     11      1 ;     C8 - C11   
     8     19      1 ;     C8 - O2    
     8     25      1 ;     C8 - H5    
     9     10      1 ;     C9 - C10   
     9     12      1 ;     C9 - C12   
     9     18      1 ;     C9 - O1    
     9     22      1 ;     C9 - H2    
     9     24      1 ;     C9 - H4    
    10     17      1 ;    C10 - N1    
    10     19      1 ;    C10 - O2    
    10     23      1 ;    C10 - H3    
    11     15      1 ;    C11 - C15   
    11     18      1 ;    C11 - O1    
    11     26      1 ;    C11 - H6    
    11     27      1 ;    C11 - H7    
    11     32      1 ;    C11 - H12   
    12     13      1 ;    C12 - C13   
    12     16      1 ;    C12 - C16   
    12     19      1 ;    C12 - O2    
    12     23      1 ;    C12 - H3    
    12     28      1 ;    C12 - H8    
    12     29      1 ;    C12 - H9    
    13     14      1 ;    C13 - C14   
    13     24      1 ;    C13 - H4    
    13     26      1 ;    C13 - H6    
    14     17      1 ;    C14 - N1    
    14     25      1 ;    C14 - H5    
    15     33      1 ;    C15 - H13   
    16     32      1 ;    C16 - H12   
    17     20      1 ;     N1 - O3    
    17     27      1 ;     N1 - H7    
    17     30      1 ;     N1 - H10   
    17     31      1 ;     N1 - H11   
    20     28      1 ;     O3 - H8    
    20     29      1 ;     O3 - H9    
    21      5      1 ;     H1 - C5    
    21      8      1 ;     H1 - C8    
    21     22      1 ;     H1 - H2    
    21     24      1 ;     H1 - H4    
    22     25      1 ;     H2 - H5    
    23     26      1 ;     H3 - H6    
    23     27      1 ;     H3 - H7    
    28     30      1 ;     H8 - H10   
    28     31      1 ;     H8 - H11   
    28     32      1 ;     H8 - H12   
    29     30      1 ;     H9 - H10   
    29     31      1 ;     H9 - H11   
    29     32      1 ;     H9 - H12   
    30     33      1 ;    H10 - H13   
    31     33      1 ;    H11 - H13   

[ angles ]
;   ai     aj     ak    funct   theta         cth
     1      2      5      1    1.2002e+02    5.3279e+02 ;     C1 - C2     - C5    
     1      2     22      1    1.1988e+02    3.7572e+02 ;     C1 - C2     - H2    
     1      4      8      1    1.2002e+02    5.3279e+02 ;     C1 - C4     - C8    
     1      4     24      1    1.1988e+02    3.7572e+02 ;     C1 - C4     - H4    
     2      1      4      1    1.2002e+02    5.3279e+02 ;     C2 - C1     - C4    
     2      1     21      1    1.1988e+02    3.7572e+02 ;     C2 - C1     - H1    
     2      5      9      1    1.2002e+02    5.3279e+02 ;     C2 - C5     - C9    
     2      5     25      1    1.1988e+02    3.7572e+02 ;     C2 - C5     - H5    
     3      6     10      1    1.2002e+02    5.3279e+02 ;     C3 - C6     - C10   
     3      6     26      1    1.1988e+02    3.7572e+02 ;     C3 - C6     - H6    
     3      7     12      1    1.2002e+02    5.3279e+02 ;     C3 - C7     - C12   
     3      7     27      1    1.1988e+02    3.7572e+02 ;     C3 - C7     - H7    
     4      1     21      1    1.1988e+02    3.7572e+02 ;     C4 - C1     - H1    
     4      8      9      1    1.2002e+02    5.3279e+02 ;     C4 - C8     - C9    
     4      8     13      1    1.2033e+02    5.1413e+02 ;     C4 - C8     - C13   
     5      2     22      1    1.1988e+02    3.7572e+02 ;     C5 - C2     - H2    
     5      9      8      1    1.2002e+02    5.3279e+02 ;     C5 - C9     - C8    
     5      9     14      1    1.2033e+02    5.1413e+02 ;     C5 - C9     - C14   
     6      3      7      1    1.2002e+02    5.3279e+02 ;     C6 - C3     - C7    
     6      3     23      1    1.1988e+02    3.7572e+02 ;     C6 - C3     - H3    
     6     10     11      1    1.2002e+02    5.3279e+02 ;     C6 - C10    - C11   
     6     10     13      1    1.2033e+02    5.1413e+02 ;     C6 - C10    - C13   
     7      3     23      1    1.1988e+02    3.7572e+02 ;     C7 - C3     - H3    
     7     12     11      1    1.2002e+02    5.3279e+02 ;     C7 - C12    - C11   
     7     12     17      1    1.2074e+02    5.6476e+02 ;     C7 - C12    - N1    
     8      4     24      1    1.1988e+02    3.7572e+02 ;     C8 - C4     - H4    
     8      9     14      1    1.2033e+02    5.1413e+02 ;     C8 - C9     - C14   
     8     13     10      1    1.1793e+02    5.0434e+02 ;     C8 - C13    - C10   
     8     13     18      1    1.2260e+02    6.5237e+02 ;     C8 - C13    - O1    
     9      5     25      1    1.1988e+02    3.7572e+02 ;     C9 - C5     - H5    
     9      8     13      1    1.2033e+02    5.1413e+02 ;     C9 - C8     - C13   
     9     14     11      1    1.1793e+02    5.0434e+02 ;     C9 - C14    - C11   
     9     14     19      1    1.2260e+02    6.5237e+02 ;     C9 - C14    - O2    
    10      6     26      1    1.1988e+02    3.7572e+02 ;    C10 - C6     - H6    
    10     11     12      1    1.2002e+02    5.3279e+02 ;    C10 - C11    - C12   
    10     11     14      1    1.2033e+02    5.1413e+02 ;    C10 - C11    - C14   
    10     13     18      1    1.2260e+02    6.5237e+02 ;    C10 - C13    - O1    
    11     10     13      1    1.2033e+02    5.1413e+02 ;    C11 - C10    - C13   
    11     12     17      1    1.2074e+02    5.6476e+02 ;    C11 - C12    - N1    
    11     14     19      1    1.2260e+02    6.5237e+02 ;    C11 - C14    - O2    
    12      7     27      1    1.1988e+02    3.7572e+02 ;    C12 - C7     - H7    
    12     11     14      1    1.2033e+02    5.1413e+02 ;    C12 - C11    - C14   
    12     17     15      1    1.2373e+02    6.3513e+02 ;    C12 - N1     - C15   
    12     17     32      1    1.1473e+02    4.8083e+02 ;    C12 - N1     - H12   
    15     16     20      1    1.0966e+02    6.4258e+02 ;    C15 - C16    - O3    
    15     16     30      1    1.0959e+02    3.6217e+02 ;    C15 - C16    - H10   
    15     16     31      1    1.0959e+02    3.6217e+02 ;    C15 - C16    - H11   
    15     17     32      1    1.1531e+02    4.6024e+02 ;    C15 - N1     - H12   
    16     15     17      1    1.1053e+02    5.4986e+02 ;    C16 - C15    - N1    
    16     15     28      1    1.0959e+02    3.6217e+02 ;    C16 - C15    - H8    
    16     15     29      1    1.0959e+02    3.6217e+02 ;    C16 - C15    - H9    
    16     20     33      1    1.0739e+02    5.4501e+02 ;    C16 - O3     - H13   
    17     15     28      1    1.0966e+02    4.0200e+02 ;     N1 - C15    - H8    
    17     15     29      1    1.0966e+02    4.0200e+02 ;     N1 - C15    - H9    
    20     16     30      1    1.1038e+02    4.7103e+02 ;     O3 - C16    - H10   
    20     16     31      1    1.1038e+02    4.7103e+02 ;     O3 - C16    - H11   
    28     15     29      1    1.0855e+02    2.9824e+02 ;     H8 - C15    - H9    
    30     16     31      1    1.0855e+02    2.9824e+02 ;    H10 - C16    - H11   

[ dihedrals ] ; propers
; for gromacs 4.5 or higher, using funct 9
;    i      j      k      l   func   phase     kd      pn
     1      2      5      9      9   180.00  15.16700   2 ;     C1-    C2-    C5-    C9
     1      2      5     25      9   180.00  15.16700   2 ;     C1-    C2-    C5-    H5
     1      4      8      9      9   180.00  15.16700   2 ;     C1-    C4-    C8-    C9
     1      4      8     13      9   180.00  15.16700   2 ;     C1-    C4-    C8-   C13
     2      1      4      8      9   180.00  15.16700   2 ;     C2-    C1-    C4-    C8
     2      1      4     24      9   180.00  15.16700   2 ;     C2-    C1-    C4-    H4
     2      5      9      8      9   180.00  15.16700   2 ;     C2-    C5-    C9-    C8
     2      5      9     14      9   180.00  15.16700   2 ;     C2-    C5-    C9-   C14
     3      6     10     11      9   180.00  15.16700   2 ;     C3-    C6-   C10-   C11
     3      6     10     13      9   180.00  15.16700   2 ;     C3-    C6-   C10-   C13
     3      7     12     11      9   180.00  15.16700   2 ;     C3-    C7-   C12-   C11
     3      7     12     17      9   180.00  15.16700   2 ;     C3-    C7-   C12-    N1
     4      1      2      5      9   180.00  15.16700   2 ;     C4-    C1-    C2-    C5
     4      1      2     22      9   180.00  15.16700   2 ;     C4-    C1-    C2-    H2
     4      8      9      5      9   180.00  15.16700   2 ;     C4-    C8-    C9-    C5
     4      8      9     14      9   180.00  15.16700   2 ;     C4-    C8-    C9-   C14
     4      8     13     10      9   180.00   5.23000   2 ;     C4-    C8-   C13-   C10
     4      8     13     18      9   180.00   2.42672   2 ;     C4-    C8-   C13-    O1
     5      9      8     13      9   180.00  15.16700   2 ;     C5-    C9-    C8-   C13
     5      9     14     11      9   180.00   5.23000   2 ;     C5-    C9-   C14-   C11
     5      9     14     19      9   180.00   2.42672   2 ;     C5-    C9-   C14-    O2
     6      3      7     12      9   180.00  15.16700   2 ;     C6-    C3-    C7-   C12
     6      3      7     27      9   180.00  15.16700   2 ;     C6-    C3-    C7-    H7
     6     10     11     12      9   180.00  15.16700   2 ;     C6-   C10-   C11-   C12
     6     10     11     14      9   180.00  15.16700   2 ;     C6-   C10-   C11-   C14
     6     10     13      8      9   180.00   5.23000   2 ;     C6-   C10-   C13-    C8
     6     10     13     18      9   180.00   2.42672   2 ;     C6-   C10-   C13-    O1
     7      3      6     10      9   180.00  15.16700   2 ;     C7-    C3-    C6-   C10
     7      3      6     26      9   180.00  15.16700   2 ;     C7-    C3-    C6-    H6
     7     12     11     10      9   180.00  15.16700   2 ;     C7-   C12-   C11-   C10
     7     12     11     14      9   180.00  15.16700   2 ;     C7-   C12-   C11-   C14
     7     12     17     15      9   180.00   1.38072   2 ;     C7-   C12-    N1-   C15
     7     12     17     32      9   180.00   4.39320   2 ;     C7-   C12-    N1-   H12
     8      9      5     25      9   180.00  15.16700   2 ;     C8-    C9-    C5-    H5
     8      9     14     11      9   180.00   5.23000   2 ;     C8-    C9-   C14-   C11
     8      9     14     19      9   180.00   2.42672   2 ;     C8-    C9-   C14-    O2
     8     13     10     11      9   180.00   5.23000   2 ;     C8-   C13-   C10-   C11
     9      5      2     22      9   180.00  15.16700   2 ;     C9-    C5-    C2-    H2
     9      8      4     24      9   180.00  15.16700   2 ;     C9-    C8-    C4-    H4
     9      8     13     10      9   180.00   5.23000   2 ;     C9-    C8-   C13-   C10
     9      8     13     18      9   180.00   2.42672   2 ;     C9-    C8-   C13-    O1
     9     14     11     10      9   180.00   5.23000   2 ;     C9-   C14-   C11-   C10
     9     14     11     12      9   180.00   5.23000   2 ;     C9-   C14-   C11-   C12
    10      6      3     23      9   180.00  15.16700   2 ;    C10-    C6-    C3-    H3
    10     11     12     17      9   180.00  15.16700   2 ;    C10-   C11-   C12-    N1
    10     11     14     19      9   180.00   2.42672   2 ;    C10-   C11-   C14-    O2
    11     10      6     26      9   180.00  15.16700   2 ;    C11-   C10-    C6-    H6
    11     10     13     18      9   180.00   2.42672   2 ;    C11-   C10-   C13-    O1
    11     12      7     27      9   180.00  15.16700   2 ;    C11-   C12-    C7-    H7
    11     12     17     15      9   180.00   1.38072   2 ;    C11-   C12-    N1-   C15
    11     12     17     32      9   180.00   4.39320   2 ;    C11-   C12-    N1-   H12
    12      7      3     23      9   180.00  15.16700   2 ;    C12-    C7-    C3-    H3
    12     11     10     13      9   180.00  15.16700   2 ;    C12-   C11-   C10-   C13
    12     11     14     19      9   180.00   2.42672   2 ;    C12-   C11-   C14-    O2
    12     17     15     16      9     0.00   0.00000   0 ;    C12-    N1-   C15-   C16
    12     17     15     28      9     0.00   1.75728   3 ;    C12-    N1-   C15-    H8
    12     17     15     29      9     0.00   1.75728   3 ;    C12-    N1-   C15-    H9
    13      8      4     24      9   180.00  15.16700   2 ;    C13-    C8-    C4-    H4
    13      8      9     14      9   180.00  15.16700   2 ;    C13-    C8-    C9-   C14
    13     10      6     26      9   180.00  15.16700   2 ;    C13-   C10-    C6-    H6
    13     10     11     14      9   180.00  15.16700   2 ;    C13-   C10-   C11-   C14
    14      9      5     25      9   180.00  15.16700   2 ;    C14-    C9-    C5-    H5
    14     11     12     17      9   180.00  15.16700   2 ;    C14-   C11-   C12-    N1
    15     16     20     33      9     0.00   0.25104   3 ;    C15-   C16-    O3-   H13
    16     15     17     32      9     0.00   0.00000   0 ;    C16-   C15-    N1-   H12
    17     12      7     27      9   180.00  15.16700   2 ;     N1-   C12-    C7-    H7
    17     15     16     20      9     0.00   0.65084   3 ;     N1-   C15-   C16-    O3
    17     15     16     30      9     0.00   0.65084   3 ;     N1-   C15-   C16-   H10
    17     15     16     31      9     0.00   0.65084   3 ;     N1-   C15-   C16-   H11
    20     16     15     28      9     0.00   0.00000   0 ;     O3-   C16-   C15-    H8
    20     16     15     28      9     0.00   1.04600   1 ;     O3-   C16-   C15-    H8
    20     16     15     29      9     0.00   0.00000   0 ;     O3-   C16-   C15-    H9
    20     16     15     29      9     0.00   1.04600   1 ;     O3-   C16-   C15-    H9
    21      1      2      5      9   180.00  15.16700   2 ;     H1-    C1-    C2-    C5
    21      1      2     22      9   180.00  15.16700   2 ;     H1-    C1-    C2-    H2
    21      1      4      8      9   180.00  15.16700   2 ;     H1-    C1-    C4-    C8
    21      1      4     24      9   180.00  15.16700   2 ;     H1-    C1-    C4-    H4
    22      2      5     25      9   180.00  15.16700   2 ;     H2-    C2-    C5-    H5
    23      3      6     26      9   180.00  15.16700   2 ;     H3-    C3-    C6-    H6
    23      3      7     27      9   180.00  15.16700   2 ;     H3-    C3-    C7-    H7
    28     15     16     30      9     0.00   0.65084   3 ;     H8-   C15-   C16-   H10
    28     15     16     31      9     0.00   0.65084   3 ;     H8-   C15-   C16-   H11
    28     15     17     32      9     0.00   0.00000   0 ;     H8-   C15-    N1-   H12
    29     15     16     30      9     0.00   0.65084   3 ;     H9-   C15-   C16-   H10
    29     15     16     31      9     0.00   0.65084   3 ;     H9-   C15-   C16-   H11
    29     15     17     32      9     0.00   0.00000   0 ;     H9-   C15-    N1-   H12
    30     16     20     33      9     0.00   0.51463   3 ;    H10-   C16-    O3-   H13
    31     16     20     33      9     0.00   0.51463   3 ;    H11-   C16-    O3-   H13

[ dihedrals ] ; impropers
; treated as propers in GROMACS to use correct AMBER analytical function
;    i      j      k      l   func   phase     kd      pn
     1      5      2     22      4   180.00   4.60240   2 ;     C1-    C5-    C2-    H2
     1      8      4     24      4   180.00   4.60240   2 ;     C1-    C8-    C4-    H4
     2      9      5     25      4   180.00   4.60240   2 ;     C2-    C9-    C5-    H5
     3     10      6     26      4   180.00   4.60240   2 ;     C3-   C10-    C6-    H6
     3     12      7     27      4   180.00   4.60240   2 ;     C3-   C12-    C7-    H7
     6      7      3     23      4   180.00   4.60240   2 ;     C6-    C7-    C3-    H3
     7     11     12     17      4   180.00   4.60240   2 ;     C7-   C11-   C12-    N1
     8     10     13     18      4   180.00  43.93200   2 ;     C8-   C10-   C13-    O1
     9     11     14     19      4   180.00  43.93200   2 ;     C9-   C11-   C14-    O2
    13      4      8      9      4   180.00   4.60240   2 ;    C13-    C4-    C8-    C9
    13      6     10     11      4   180.00   4.60240   2 ;    C13-    C6-   C10-   C11
    14      5      9      8      4   180.00   4.60240   2 ;    C14-    C5-    C9-    C8
    14     10     11     12      4   180.00   4.60240   2 ;    C14-   C10-   C11-   C12
    15     12     17     32      4   180.00   4.60240   2 ;    C15-   C12-    N1-   H12
    21      1      4      2      4   180.00   4.60240   2 ;     H1-    C1-    C4-    C2
