; mobley_7859387_GMX.itp created by acpype (v: 2023.10.27) on Thu May 21 00:20:29 2026

[ atomtypes ]
;name   bond_type     mass     charge   ptype   sigma         epsilon       Amb
 c        c           0.00000  0.00000   A     3.31521e-01   4.13379e-01 ; 1.86  0.0988
 c3       c3          0.00000  0.00000   A     3.39771e-01   4.51035e-01 ; 1.91  0.1078
 o        o           0.00000  0.00000   A     3.04812e-01   6.12119e-01 ; 1.71  0.1463
 h4       h4          0.00000  0.00000   A     2.53639e-01   6.73624e-02 ; 1.42  0.0161
 hc       hc          0.00000  0.00000   A     2.60018e-01   8.70272e-02 ; 1.46  0.0208

[ moleculetype ]
;name            nrexcl
 mobley_7859387   3

[ atoms ]
;   nr  type  resi  res  atom  cgnr     charge      mass       ; qtot   bond_type
     1    c     1   MOL    C1    1     0.560899     12.01000 ; qtot 0.561
     2   c3     1   MOL    C2    2    -0.093100     12.01000 ; qtot 0.468
     3   c3     1   MOL    C3    3    -0.198400     12.01000 ; qtot 0.269
     4   c3     1   MOL    C4    4    -0.080400     12.01000 ; qtot 0.189
     5   c3     1   MOL    C5    5    -0.075400     12.01000 ; qtot 0.114
     6   c3     1   MOL    C6    6    -0.079400     12.01000 ; qtot 0.034
     7   c3     1   MOL    C7    7    -0.078400     12.01000 ; qtot -0.044
     8    o     1   MOL    O1    8    -0.524100     16.00000 ; qtot -0.568
     9   h4     1   MOL    H1    9    -0.010800      1.00800 ; qtot -0.579
    10   hc     1   MOL    H2   10     0.033367      1.00800 ; qtot -0.546
    11   hc     1   MOL    H3   11     0.033367      1.00800 ; qtot -0.512
    12   hc     1   MOL    H4   12     0.033367      1.00800 ; qtot -0.479
    13   hc     1   MOL    H5   13     0.066700      1.00800 ; qtot -0.412
    14   hc     1   MOL    H6   14     0.066700      1.00800 ; qtot -0.346
    15   hc     1   MOL    H7   15     0.037700      1.00800 ; qtot -0.308
    16   hc     1   MOL    H8   16     0.037700      1.00800 ; qtot -0.270
    17   hc     1   MOL    H9   17     0.054700      1.00800 ; qtot -0.216
    18   hc     1   MOL   H10   18     0.054700      1.00800 ; qtot -0.161
    19   hc     1   MOL   H11   19     0.042700      1.00800 ; qtot -0.118
    20   hc     1   MOL   H12   20     0.042700      1.00800 ; qtot -0.075
    21   hc     1   MOL   H13   21     0.037700      1.00800 ; qtot -0.038
    22   hc     1   MOL   H14   22     0.037700      1.00800 ; qtot -0.000

[ bonds ]
;   ai     aj funct   r             k
     1      3   1    1.5270e-01    1.9652e+05 ;     C1 - C3    
     1      8   1    1.2190e-01    4.9421e+05 ;     C1 - O1    
     1      9   1    1.1123e-01    2.6984e+05 ;     C1 - H1    
     2      4   1    1.5354e-01    1.9154e+05 ;     C2 - C4    
     2     10   1    1.0962e-01    2.8891e+05 ;     C2 - H2    
     2     11   1    1.0962e-01    2.8891e+05 ;     C2 - H3    
     2     12   1    1.0962e-01    2.8891e+05 ;     C2 - H4    
     3      5   1    1.5354e-01    1.9154e+05 ;     C3 - C5    
     3     13   1    1.0962e-01    2.8891e+05 ;     C3 - H5    
     3     14   1    1.0962e-01    2.8891e+05 ;     C3 - H6    
     4      6   1    1.5354e-01    1.9154e+05 ;     C4 - C6    
     4     15   1    1.0962e-01    2.8891e+05 ;     C4 - H7    
     4     16   1    1.0962e-01    2.8891e+05 ;     C4 - H8    
     5      7   1    1.5354e-01    1.9154e+05 ;     C5 - C7    
     5     17   1    1.0962e-01    2.8891e+05 ;     C5 - H9    
     5     18   1    1.0962e-01    2.8891e+05 ;     C5 - H10   
     6      7   1    1.5354e-01    1.9154e+05 ;     C6 - C7    
     6     19   1    1.0962e-01    2.8891e+05 ;     C6 - H11   
     6     20   1    1.0962e-01    2.8891e+05 ;     C6 - H12   
     7     21   1    1.0962e-01    2.8891e+05 ;     C7 - H13   
     7     22   1    1.0962e-01    2.8891e+05 ;     C7 - H14   

[ pairs ]
;   ai     aj    funct
     1      7      1 ;     C1 - C7    
     1     17      1 ;     C1 - H9    
     1     18      1 ;     C1 - H10   
     2      7      1 ;     C2 - C7    
     2     19      1 ;     C2 - H11   
     2     20      1 ;     C2 - H12   
     3      6      1 ;     C3 - C6    
     3     21      1 ;     C3 - H13   
     3     22      1 ;     C3 - H14   
     4      5      1 ;     C4 - C5    
     4     21      1 ;     C4 - H13   
     4     22      1 ;     C4 - H14   
     5     19      1 ;     C5 - H11   
     5     20      1 ;     C5 - H12   
     6     10      1 ;     C6 - H2    
     6     11      1 ;     C6 - H3    
     6     12      1 ;     C6 - H4    
     6     17      1 ;     C6 - H9    
     6     18      1 ;     C6 - H10   
     7     13      1 ;     C7 - H5    
     7     14      1 ;     C7 - H6    
     7     15      1 ;     C7 - H7    
     7     16      1 ;     C7 - H8    
     8      5      1 ;     O1 - C5    
     8     13      1 ;     O1 - H5    
     8     14      1 ;     O1 - H6    
     9      5      1 ;     H1 - C5    
     9     13      1 ;     H1 - H5    
     9     14      1 ;     H1 - H6    
    10     15      1 ;     H2 - H7    
    10     16      1 ;     H2 - H8    
    11     15      1 ;     H3 - H7    
    11     16      1 ;     H3 - H8    
    12     15      1 ;     H4 - H7    
    12     16      1 ;     H4 - H8    
    13     17      1 ;     H5 - H9    
    13     18      1 ;     H5 - H10   
    14     17      1 ;     H6 - H9    
    14     18      1 ;     H6 - H10   
    15     19      1 ;     H7 - H11   
    15     20      1 ;     H7 - H12   
    16     19      1 ;     H8 - H11   
    16     20      1 ;     H8 - H12   
    17     21      1 ;     H9 - H13   
    17     22      1 ;     H9 - H14   
    18     21      1 ;    H10 - H13   
    18     22      1 ;    H10 - H14   
    19     21      1 ;    H11 - H13   
    19     22      1 ;    H11 - H14   
    20     21      1 ;    H12 - H13   
    20     22      1 ;    H12 - H14   

[ angles ]
;   ai     aj     ak    funct   theta         cth
     1      3      5      1    1.1143e+02    5.0509e+02 ;     C1 - C3     - C5    
     1      3     13      1    1.0895e+02    3.6510e+02 ;     C1 - C3     - H5    
     1      3     14      1    1.0895e+02    3.6510e+02 ;     C1 - C3     - H6    
     2      4      6      1    1.1263e+02    5.0099e+02 ;     C2 - C4     - C6    
     2      4     15      1    1.0968e+02    3.6208e+02 ;     C2 - C4     - H7    
     2      4     16      1    1.0968e+02    3.6208e+02 ;     C2 - C4     - H8    
     3      1      8      1    1.2290e+02    6.3973e+02 ;     C3 - C1     - O1    
     3      1      9      1    1.1471e+02    3.5522e+02 ;     C3 - C1     - H1    
     3      5      7      1    1.1263e+02    5.0099e+02 ;     C3 - C5     - C7    
     3      5     17      1    1.0968e+02    3.6208e+02 ;     C3 - C5     - H9    
     3      5     18      1    1.0968e+02    3.6208e+02 ;     C3 - C5     - H10   
     4      2     10      1    1.0968e+02    3.6208e+02 ;     C4 - C2     - H2    
     4      2     11      1    1.0968e+02    3.6208e+02 ;     C4 - C2     - H3    
     4      2     12      1    1.0968e+02    3.6208e+02 ;     C4 - C2     - H4    
     4      6      7      1    1.1263e+02    5.0099e+02 ;     C4 - C6     - C7    
     4      6     19      1    1.0968e+02    3.6208e+02 ;     C4 - C6     - H11   
     4      6     20      1    1.0968e+02    3.6208e+02 ;     C4 - C6     - H12   
     5      3     13      1    1.0968e+02    3.6208e+02 ;     C5 - C3     - H5    
     5      3     14      1    1.0968e+02    3.6208e+02 ;     C5 - C3     - H6    
     5      7      6      1    1.1263e+02    5.0099e+02 ;     C5 - C7     - C6    
     5      7     21      1    1.0968e+02    3.6208e+02 ;     C5 - C7     - H13   
     5      7     22      1    1.0968e+02    3.6208e+02 ;     C5 - C7     - H14   
     6      4     15      1    1.0968e+02    3.6208e+02 ;     C6 - C4     - H7    
     6      4     16      1    1.0968e+02    3.6208e+02 ;     C6 - C4     - H8    
     6      7     21      1    1.0968e+02    3.6208e+02 ;     C6 - C7     - H13   
     6      7     22      1    1.0968e+02    3.6208e+02 ;     C6 - C7     - H14   
     7      5     17      1    1.0968e+02    3.6208e+02 ;     C7 - C5     - H9    
     7      5     18      1    1.0968e+02    3.6208e+02 ;     C7 - C5     - H10   
     7      6     19      1    1.0968e+02    3.6208e+02 ;     C7 - C6     - H11   
     7      6     20      1    1.0968e+02    3.6208e+02 ;     C7 - C6     - H12   
     8      1      9      1    1.2062e+02    5.0191e+02 ;     O1 - C1     - H1    
    10      2     11      1    1.0773e+02    2.9957e+02 ;     H2 - C2     - H3    
    10      2     12      1    1.0773e+02    2.9957e+02 ;     H2 - C2     - H4    
    11      2     12      1    1.0773e+02    2.9957e+02 ;     H3 - C2     - H4    
    13      3     14      1    1.0773e+02    2.9957e+02 ;     H5 - C3     - H6    
    15      4     16      1    1.0773e+02    2.9957e+02 ;     H7 - C4     - H8    
    17      5     18      1    1.0773e+02    2.9957e+02 ;     H9 - C5     - H10   
    19      6     20      1    1.0773e+02    2.9957e+02 ;    H11 - C6     - H12   
    21      7     22      1    1.0773e+02    2.9957e+02 ;    H13 - C7     - H14   

[ dihedrals ] ; propers
; for gromacs 4.5 or higher, using funct 9
;    i      j      k      l   func   phase     kd      pn
     1      3      5      7      9     0.00   0.00000   0 ;     C1-    C3-    C5-    C7
     1      3      5      7      9     0.00   0.16736   2 ;     C1-    C3-    C5-    C7
     1      3      5      7      9   180.00   1.92464   1 ;     C1-    C3-    C5-    C7
     1      3      5     17      9     0.00   0.65084   3 ;     C1-    C3-    C5-    H9
     1      3      5     18      9     0.00   0.65084   3 ;     C1-    C3-    C5-   H10
     2      4      6      7      9     0.00   2.17568   3 ;     C2-    C4-    C6-    C7
     2      4      6     19      9     0.00   0.54392   3 ;     C2-    C4-    C6-   H11
     2      4      6     20      9     0.00   0.54392   3 ;     C2-    C4-    C6-   H12
     3      5      7      6      9     0.00   2.17568   3 ;     C3-    C5-    C7-    C6
     3      5      7     21      9     0.00   0.54392   3 ;     C3-    C5-    C7-   H13
     3      5      7     22      9     0.00   0.54392   3 ;     C3-    C5-    C7-   H14
     4      6      7      5      9     0.00   2.17568   3 ;     C4-    C6-    C7-    C5
     4      6      7     21      9     0.00   0.54392   3 ;     C4-    C6-    C7-   H13
     4      6      7     22      9     0.00   0.54392   3 ;     C4-    C6-    C7-   H14
     5      7      6     19      9     0.00   0.54392   3 ;     C5-    C7-    C6-   H11
     5      7      6     20      9     0.00   0.54392   3 ;     C5-    C7-    C6-   H12
     6      4      2     10      9     0.00   0.54392   3 ;     C6-    C4-    C2-    H2
     6      4      2     11      9     0.00   0.54392   3 ;     C6-    C4-    C2-    H3
     6      4      2     12      9     0.00   0.54392   3 ;     C6-    C4-    C2-    H4
     6      7      5     17      9     0.00   0.54392   3 ;     C6-    C7-    C5-    H9
     6      7      5     18      9     0.00   0.54392   3 ;     C6-    C7-    C5-   H10
     7      5      3     13      9     0.00   0.54392   3 ;     C7-    C5-    C3-    H5
     7      5      3     14      9     0.00   0.54392   3 ;     C7-    C5-    C3-    H6
     7      6      4     15      9     0.00   0.54392   3 ;     C7-    C6-    C4-    H7
     7      6      4     16      9     0.00   0.54392   3 ;     C7-    C6-    C4-    H8
     8      1      3      5      9     0.00   2.84512   1 ;     O1-    C1-    C3-    C5
     8      1      3      5      9   180.00   0.83680   2 ;     O1-    C1-    C3-    C5
     8      1      3      5      9   180.00   1.84096   3 ;     O1-    C1-    C3-    C5
     8      1      3     13      9     0.00  16.86152   1 ;     O1-    C1-    C3-    H5
     8      1      3     13      9   180.00  15.31344   2 ;     O1-    C1-    C3-    H5
     8      1      3     14      9     0.00  16.86152   1 ;     O1-    C1-    C3-    H6
     8      1      3     14      9   180.00  15.31344   2 ;     O1-    C1-    C3-    H6
     9      1      3      5      9   180.00   0.00000   2 ;     H1-    C1-    C3-    C5
     9      1      3     13      9   180.00   0.00000   2 ;     H1-    C1-    C3-    H5
     9      1      3     14      9   180.00   0.00000   2 ;     H1-    C1-    C3-    H6
    10      2      4     15      9     0.00   0.50208   3 ;     H2-    C2-    C4-    H7
    10      2      4     16      9     0.00   0.50208   3 ;     H2-    C2-    C4-    H8
    11      2      4     15      9     0.00   0.50208   3 ;     H3-    C2-    C4-    H7
    11      2      4     16      9     0.00   0.50208   3 ;     H3-    C2-    C4-    H8
    12      2      4     15      9     0.00   0.50208   3 ;     H4-    C2-    C4-    H7
    12      2      4     16      9     0.00   0.50208   3 ;     H4-    C2-    C4-    H8
    13      3      5     17      9     0.00   0.50208   3 ;     H5-    C3-    C5-    H9
    13      3      5     18      9     0.00   0.50208   3 ;     H5-    C3-    C5-   H10
    14      3      5     17      9     0.00   0.50208   3 ;     H6-    C3-    C5-    H9
    14      3      5     18      9     0.00   0.50208   3 ;     H6-    C3-    C5-   H10
    15      4      6     19      9     0.00   0.50208   3 ;     H7-    C4-    C6-   H11
    15      4      6     20      9     0.00   0.50208   3 ;     H7-    C4-    C6-   H12
    16      4      6     19      9     0.00   0.50208   3 ;     H8-    C4-    C6-   H11
    16      4      6     20      9     0.00   0.50208   3 ;     H8-    C4-    C6-   H12
    17      5      7     21      9     0.00   0.50208   3 ;     H9-    C5-    C7-   H13
    17      5      7     22      9     0.00   0.50208   3 ;     H9-    C5-    C7-   H14
    18      5      7     21      9     0.00   0.50208   3 ;    H10-    C5-    C7-   H13
    18      5      7     22      9     0.00   0.50208   3 ;    H10-    C5-    C7-   H14
    19      6      7     21      9     0.00   0.50208   3 ;    H11-    C6-    C7-   H13
    19      6      7     22      9     0.00   0.50208   3 ;    H11-    C6-    C7-   H14
    20      6      7     21      9     0.00   0.50208   3 ;    H12-    C6-    C7-   H13
    20      6      7     22      9     0.00   0.50208   3 ;    H12-    C6-    C7-   H14

[ dihedrals ] ; impropers
; treated as propers in GROMACS to use correct AMBER analytical function
;    i      j      k      l   func   phase     kd      pn
     8      1      9      3      4   180.00   4.60240   2 ;     O1-    C1-    H1-    C3
