mobley_2784376_GMX.gro created by acpype (v: 2023.10.27) on Tue May 19 12:40:58 2026
 2415
    1MOL     C1    1   2.075   2.178   2.179
    1MOL     C2    2   2.168   2.088   2.101
    1MOL     C3    3   2.224   2.200   2.185
    1MOL     H1    4   2.016   2.249   2.123
    1MOL     H2    5   2.027   2.137   2.266
    1MOL     H3    6   2.181   1.987   2.137
    1MOL     H4    7   2.170   2.099   1.994
    1MOL     H5    8   2.264   2.286   2.133
    1MOL     H6    9   2.275   2.174   2.276
    6SOL     OW   10   1.555   1.511   0.703
    6SOL    HW1   11   1.498   1.495   0.784
    6SOL    HW2   12   1.496   1.521   0.623
   14SOL     OW   13   1.460   1.505   1.339
   14SOL    HW1   14   1.484   1.599   1.365
   14SOL    HW2   15   1.444   1.451   1.421
   18SOL     OW   16   1.127   1.341   1.690
   18SOL    HW1   17   1.174   1.341   1.778
   18SOL    HW2   18   1.079   1.254   1.679
   21SOL     OW   19   0.620   1.786   1.439
   21SOL    HW1   20   0.528   1.769   1.474
   21SOL    HW2   21   0.648   1.878   1.465
   31SOL     OW   22   1.293   1.228   1.423
   31SOL    HW1   23   1.330   1.155   1.365
   31SOL    HW2   24   1.345   1.233   1.508
   35SOL     OW   25   1.187   1.792   1.616
   35SOL    HW1   26   1.211   1.852   1.540
   35SOL    HW2   27   1.194   1.697   1.586
   37SOL     OW   28   1.466   1.417   0.953
   37SOL    HW1   29   1.407   1.423   1.033
   37SOL    HW2   30   1.451   1.329   0.907
   38SOL     OW   31   1.667   1.714   0.572
   38SOL    HW1   32   1.626   1.691   0.484
   38SOL    HW2   33   1.649   1.640   0.637
   50SOL     OW   34   1.719   0.585   1.831
   50SOL    HW1   35   1.693   0.674   1.795
   50SOL    HW2   36   1.717   0.517   1.758
   55SOL     OW   37   1.795   1.066   0.873
   55SOL    HW1   38   1.733   1.051   0.797
   55SOL    HW2   39   1.743   1.077   0.958
   56SOL     OW   40   1.227   1.550   1.506
   56SOL    HW1   41   1.233   1.473   1.570
   56SOL    HW2   42   1.175   1.524   1.426
   71SOL     OW   43   0.888   1.514   1.195
   71SOL    HW1   44   0.865   1.489   1.101
   71SOL    HW2   45   0.949   1.445   1.234
   80SOL     OW   46   1.227   1.570   0.793
   80SOL    HW1   47   1.248   1.644   0.728
   80SOL    HW2   48   1.295   1.570   0.866
   88SOL     OW   49   1.429   1.173   0.867
   88SOL    HW1   50   1.374   1.089   0.860
   88SOL    HW2   51   1.455   1.202   0.775
   95SOL     OW   52   1.754   1.223   1.588
   95SOL    HW1   53   1.845   1.184   1.575
   95SOL    HW2   54   1.762   1.319   1.612
   96SOL     OW   55   1.064   1.347   1.340
   96SOL    HW1   56   0.984   1.324   1.395
   96SOL    HW2   57   1.147   1.321   1.389
   97SOL     OW   58   1.592   1.629   1.625
   97SOL    HW1   59   1.619   1.663   1.535
   97SOL    HW2   60   1.671   1.591   1.671
   98SOL     OW   61   1.111   1.195   1.100
   98SOL    HW1   62   1.071   1.239   1.181
   98SOL    HW2   63   1.070   1.232   1.017
   99SOL     OW   64   1.638   1.099   1.079
   99SOL    HW1   65   1.643   1.180   1.138
   99SOL    HW2   66   1.552   1.101   1.028
  101SOL     OW   67   0.980   1.116   1.719
  101SOL    HW1   68   0.881   1.122   1.729
  101SOL    HW2   69   1.003   1.036   1.663
  109SOL     OW   70   1.272   1.445   1.142
  109SOL    HW1   71   1.319   1.458   1.229
  109SOL    HW2   72   1.206   1.371   1.151
  113SOL     OW   73   1.587   0.779   1.670
  113SOL    HW1   74   1.495   0.817   1.665
  113SOL    HW2   75   1.647   0.826   1.605
  122SOL     OW   76   1.728   0.935   1.854
  122SOL    HW1   77   1.682   0.928   1.765
  122SOL    HW2   78   1.666   0.979   1.920
  126SOL     OW   79   0.980   1.573   1.700
  126SOL    HW1   80   0.960   1.617   1.612
  126SOL    HW2   81   1.019   1.482   1.684
  127SOL     OW   82   1.859   1.518   1.605
  127SOL    HW1   83   1.873   1.545   1.510
  127SOL    HW2   84   1.942   1.540   1.658
  142SOL     OW   85   1.369   0.950   1.660
  142SOL    HW1   86   1.408   1.039   1.680
  142SOL    HW2   87   1.379   0.930   1.563
  147SOL     OW   88   0.930   1.678   1.465
  147SOL    HW1   89   0.906   1.660   1.370
  147SOL    HW2   90   0.960   1.772   1.475
  150SOL     OW   91   1.347   1.059   1.234
  150SOL    HW1   92   1.371   0.996   1.160
  150SOL    HW2   93   1.257   1.099   1.216
  152SOL     OW   94   1.759   1.747   1.154
  152SOL    HW1   95   1.820   1.777   1.081
  152SOL    HW2   96   1.721   1.658   1.132
  153SOL     OW   97   1.252   1.731   1.128
  153SOL    HW1   98   1.336   1.736   1.074
  153SOL    HW2   99   1.229   1.635   1.146
  155SOL     OW  100   0.688   1.662   1.716
  155SOL    HW1  101   0.632   1.743   1.725
  155SOL    HW2  102   0.740   1.666   1.630
  161SOL     OW  103   0.830   1.273   1.422
  161SOL    HW1  104   0.825   1.306   1.517
  161SOL    HW2  105   0.744   1.292   1.376
  163SOL     OW  106   1.650   1.720   1.394
  163SOL    HW1  107   1.703   1.730   1.310
  163SOL    HW2  108   1.623   1.810   1.428
  171SOL     OW  109   1.614   1.292   1.289
  171SOL    HW1  110   1.674   1.295   1.369
  171SOL    HW2  111   1.539   1.356   1.302
  180SOL     OW  112   1.440   0.856   1.398
  180SOL    HW1  113   1.383   0.908   1.335
  180SOL    HW2  114   1.536   0.868   1.374
  184SOL     OW  115   1.493   1.767   0.959
  184SOL    HW1  116   1.526   1.831   0.890
  184SOL    HW2  117   1.559   1.761   1.034
  186SOL     OW  118   1.450   1.220   1.633
  186SOL    HW1  119   1.441   1.210   1.732
  186SOL    HW2  120   1.546   1.213   1.607
  188SOL     OW  121   1.674   0.883   1.254
  188SOL    HW1  122   1.647   0.794   1.217
  188SOL    HW2  123   1.675   0.951   1.181
  192SOL     OW  124   1.730   0.934   1.517
  192SOL    HW1  125   1.768   1.025   1.532
  192SOL    HW2  126   1.722   0.917   1.418
  197SOL     OW  127   1.861   1.569   0.851
  197SOL    HW1  128   1.790   1.557   0.781
  197SOL    HW2  129   1.862   1.490   0.911
  200SOL     OW  130   0.672   1.391   1.624
  200SOL    HW1  131   0.594   1.341   1.662
  200SOL    HW2  132   0.669   1.486   1.655
  203SOL     OW  133   1.705   1.487   1.104
  203SOL    HW1  134   1.612   1.462   1.077
  203SOL    HW2  135   1.731   1.437   1.186
  219SOL     OW  136   1.555   1.511   2.565
  219SOL    HW1  137   1.498   1.495   2.646
  219SOL    HW2  138   1.496   1.521   2.485
  221SOL     OW  139   1.755   0.607   2.093
  221SOL    HW1  140   1.743   0.594   1.994
  221SOL    HW2  141   1.725   0.526   2.142
  227SOL     OW  142   1.460   1.505   3.201
  227SOL    HW1  143   1.484   1.599   3.227
  227SOL    HW2  144   1.444   1.451   3.283
  238SOL     OW  145   1.842   1.767   2.221
  238SOL    HW1  146   1.896   1.738   2.301
  238SOL    HW2  147   1.872   1.857   2.192
  240SOL     OW  148   1.689   0.922   2.474
  240SOL    HW1  149   1.784   0.893   2.482
  240SOL    HW2  150   1.681   0.987   2.399
  241SOL     OW  151   1.641   1.108   2.294
  241SOL    HW1  152   1.727   1.110   2.242
  241SOL    HW2  153   1.655   1.155   2.382
  243SOL     OW  154   0.613   1.365   2.588
  243SOL    HW1  155   0.564   1.278   2.597
  243SOL    HW2  156   0.590   1.408   2.501
  244SOL     OW  157   1.293   1.228   3.285
  244SOL    HW1  158   1.330   1.155   3.227
  244SOL    HW2  159   1.345   1.233   3.370
  247SOL     OW  160   1.525   0.999   2.052
  247SOL    HW1  161   1.462   0.923   2.065
  247SOL    HW2  162   1.573   1.017   2.138
  248SOL     OW  163   1.187   1.792   3.478
  248SOL    HW1  164   1.211   1.852   3.402
  248SOL    HW2  165   1.194   1.697   3.448
  250SOL     OW  166   1.466   1.417   2.815
  250SOL    HW1  167   1.407   1.423   2.895
  250SOL    HW2  168   1.451   1.329   2.769
  251SOL     OW  169   1.667   1.714   2.434
  251SOL    HW1  170   1.626   1.691   2.346
  251SOL    HW2  171   1.649   1.640   2.499
  254SOL     OW  172   1.576   1.662   2.169
  254SOL    HW1  173   1.665   1.708   2.172
  254SOL    HW2  174   1.555   1.638   2.074
  264SOL     OW  175   1.362   1.144   2.407
  264SOL    HW1  176   1.445   1.115   2.359
  264SOL    HW2  177   1.313   1.211   2.351
  266SOL     OW  178   1.008   1.456   2.339
  266SOL    HW1  179   0.962   1.528   2.287
  266SOL    HW2  180   1.004   1.476   2.437
  268SOL     OW  181   1.795   1.066   2.735
  268SOL    HW1  182   1.733   1.051   2.659
  268SOL    HW2  183   1.743   1.077   2.820
  269SOL     OW  184   1.227   1.550   3.368
  269SOL    HW1  185   1.233   1.473   3.432
  269SOL    HW2  186   1.175   1.524   3.288
  271SOL     OW  187   1.458   0.735   2.590
  271SOL    HW1  188   1.453   0.670   2.665
  271SOL    HW2  189   1.538   0.794   2.603
  273SOL     OW  190   1.111   1.776   2.099
  273SOL    HW1  191   1.051   1.714   2.149
  273SOL    HW2  192   1.142   1.732   2.014
  275SOL     OW  193   1.632   1.377   1.943
  275SOL    HW1  194   1.600   1.471   1.933
  275SOL    HW2  195   1.556   1.314   1.931
  276SOL     OW  196   0.464   1.743   2.185
  276SOL    HW1  197   0.497   1.782   2.271
  276SOL    HW2  198   0.540   1.736   2.120
  279SOL     OW  199   0.940   1.698   2.766
  279SOL    HW1  200   1.020   1.641   2.787
  279SOL    HW2  201   0.891   1.658   2.689
  284SOL     OW  202   0.888   1.514   3.057
  284SOL    HW1  203   0.865   1.489   2.963
  284SOL    HW2  204   0.949   1.445   3.096
  286SOL     OW  205   0.803   1.402   2.786
  286SOL    HW1  206   0.893   1.416   2.744
  286SOL    HW2  207   0.732   1.404   2.715
  289SOL     OW  208   1.434   1.188   1.903
  289SOL    HW1  209   1.466   1.112   1.960
  289SOL    HW2  210   1.342   1.215   1.933
  293SOL     OW  211   1.227   1.570   2.655
  293SOL    HW1  212   1.248   1.644   2.590
  293SOL    HW2  213   1.295   1.570   2.728
  295SOL     OW  214   1.271   1.797   2.453
  295SOL    HW1  215   1.315   1.861   2.389
  295SOL    HW2  216   1.221   1.849   2.523
  301SOL     OW  217   1.429   1.173   2.729
  301SOL    HW1  218   1.374   1.089   2.722
  301SOL    HW2  219   1.455   1.202   2.637
  303SOL     OW  220   1.857   0.833   2.239
  303SOL    HW1  221   1.899   0.769   2.303
  303SOL    HW2  222   1.819   0.782   2.161
  305SOL     OW  223   1.664   1.280   2.519
  305SOL    HW1  224   1.763   1.288   2.533
  305SOL    HW2  225   1.619   1.364   2.550
  306SOL     OW  226   1.390   0.575   1.940
  306SOL    HW1  227   1.336   0.554   2.021
  306SOL    HW2  228   1.481   0.534   1.949
  308SOL     OW  229   1.754   1.223   3.450
  308SOL    HW1  230   1.845   1.184   3.437
  308SOL    HW2  231   1.762   1.319   3.474
  309SOL     OW  232   1.064   1.347   3.202
  309SOL    HW1  233   0.984   1.324   3.257
  309SOL    HW2  234   1.147   1.321   3.251
  310SOL     OW  235   1.592   1.629   3.487
  310SOL    HW1  236   1.619   1.663   3.397
  310SOL    HW2  237   1.671   1.591   3.533
  311SOL     OW  238   1.111   1.195   2.962
  311SOL    HW1  239   1.071   1.239   3.043
  311SOL    HW2  240   1.070   1.232   2.879
  312SOL     OW  241   1.638   1.099   2.941
  312SOL    HW1  242   1.643   1.180   3.000
  312SOL    HW2  243   1.552   1.101   2.890
  321SOL     OW  244   1.252   1.348   2.250
  321SOL    HW1  245   1.302   1.425   2.290
  321SOL    HW2  246   1.157   1.350   2.282
  322SOL     OW  247   1.272   1.445   3.004
  322SOL    HW1  248   1.319   1.458   3.091
  322SOL    HW2  249   1.206   1.371   3.013
  323SOL     OW  250   1.582   0.639   2.334
  323SOL    HW1  251   1.551   0.700   2.407
  323SOL    HW2  252   1.632   0.691   2.265
  330SOL     OW  253   1.360   0.862   2.907
  330SOL    HW1  254   1.285   0.862   2.841
  330SOL    HW2  255   1.397   0.770   2.916
  340SOL     OW  256   1.859   1.518   3.467
  340SOL    HW1  257   1.873   1.545   3.372
  340SOL    HW2  258   1.942   1.540   3.520
  343SOL     OW  259   1.303   0.838   1.904
  343SOL    HW1  260   1.337   0.745   1.919
  343SOL    HW2  261   1.321   0.865   1.809
  344SOL     OW  262   1.068   1.333   2.711
  344SOL    HW1  263   1.075   1.249   2.656
  344SOL    HW2  264   1.130   1.402   2.675
  360SOL     OW  265   0.930   1.678   3.327
  360SOL    HW1  266   0.906   1.660   3.232
  360SOL    HW2  267   0.960   1.772   3.337
  363SOL     OW  268   1.347   1.059   3.096
  363SOL    HW1  269   1.371   0.996   3.022
  363SOL    HW2  270   1.257   1.099   3.078
  364SOL     OW  271   1.302   0.855   2.171
  364SOL    HW1  272   1.216   0.824   2.213
  364SOL    HW2  273   1.298   0.841   2.072
  365SOL     OW  274   1.759   1.747   3.016
  365SOL    HW1  275   1.820   1.777   2.943
  365SOL    HW2  276   1.721   1.658   2.994
  366SOL     OW  277   1.252   1.731   2.990
  366SOL    HW1  278   1.336   1.736   2.936
  366SOL    HW2  279   1.229   1.635   3.008
  370SOL     OW  280   1.388   1.573   2.339
  370SOL    HW1  281   1.455   1.585   2.265
  370SOL    HW2  282   1.348   1.662   2.362
  372SOL     OW  283   1.280   0.927   2.534
  372SOL    HW1  284   1.340   0.846   2.536
  372SOL    HW2  285   1.320   0.996   2.474
  374SOL     OW  286   0.672   1.616   2.016
  374SOL    HW1  287   0.681   1.626   1.917
  374SOL    HW2  288   0.632   1.527   2.037
  375SOL     OW  289   1.650   1.720   3.256
  375SOL    HW1  290   1.703   1.730   3.172
  375SOL    HW2  291   1.623   1.810   3.290
  378SOL     OW  292   1.194   1.612   1.893
  378SOL    HW1  293   1.200   1.519   1.930
  378SOL    HW2  294   1.135   1.612   1.813
  380SOL     OW  295   0.916   0.910   2.153
  380SOL    HW1  296   0.979   0.948   2.085
  380SOL    HW2  297   0.956   0.827   2.192
  381SOL     OW  298   1.504   1.607   1.906
  381SOL    HW1  299   1.412   1.644   1.913
  381SOL    HW2  300   1.542   1.627   1.816
  383SOL     OW  301   1.614   1.292   3.151
  383SOL    HW1  302   1.674   1.295   3.231
  383SOL    HW2  303   1.539   1.356   3.164
  384SOL     OW  304   1.039   1.098   2.558
  384SOL    HW1  305   0.969   1.051   2.612
  384SOL    HW2  306   1.098   1.030   2.515
  386SOL     OW  307   0.590   1.487   2.353
  386SOL    HW1  308   0.632   1.429   2.283
  386SOL    HW2  309   0.546   1.566   2.309
  394SOL     OW  310   1.183   1.335   1.981
  394SOL    HW1  311   1.084   1.324   1.983
  394SOL    HW2  312   1.217   1.350   2.074
  396SOL     OW  313   1.493   1.767   2.821
  396SOL    HW1  314   1.526   1.831   2.752
  396SOL    HW2  315   1.559   1.761   2.896
  398SOL     OW  316   1.450   1.220   3.495
  398SOL    HW1  317   1.441   1.210   3.594
  398SOL    HW2  318   1.546   1.213   3.469
  400SOL     OW  319   1.674   0.883   3.116
  400SOL    HW1  320   1.647   0.794   3.079
  400SOL    HW2  321   1.675   0.951   3.043
  404SOL     OW  322   1.730   0.934   3.379
  404SOL    HW1  323   1.768   1.025   3.394
  404SOL    HW2  324   1.722   0.917   3.280
  405SOL     OW  325   0.859   1.374   1.878
  405SOL    HW1  326   0.813   1.389   1.966
  405SOL    HW2  327   0.903   1.459   1.848
  406SOL     OW  328   0.661   1.790   2.815
  406SOL    HW1  329   0.615   1.878   2.802
  406SOL    HW2  330   0.760   1.802   2.808
  408SOL     OW  331   1.083   0.984   1.949
  408SOL    HW1  332   1.060   1.037   1.867
  408SOL    HW2  333   1.164   0.928   1.930
  409SOL     OW  334   1.861   1.569   2.713
  409SOL    HW1  335   1.790   1.557   2.643
  409SOL    HW2  336   1.862   1.490   2.773
  415SOL     OW  337   1.705   1.487   2.966
  415SOL    HW1  338   1.612   1.462   2.939
  415SOL    HW2  339   1.731   1.437   3.048
  417SOL     OW  340   0.812   1.586   2.549
  417SOL    HW1  341   0.844   1.596   2.455
  417SOL    HW2  342   0.733   1.524   2.551
  420SOL     OW  343   0.770   1.330   2.163
  420SOL    HW1  344   0.724   1.243   2.180
  420SOL    HW2  345   0.861   1.327   2.204
  426SOL     OW  346   0.875   1.646   2.199
  426SOL    HW1  347   0.798   1.611   2.145
  426SOL    HW2  348   0.843   1.717   2.261
  496SOL     OW  349   0.850   2.660   1.823
  496SOL    HW1  350   0.846   2.736   1.888
  496SOL    HW2  351   0.872   2.696   1.732
  498SOL     OW  352   0.686   3.023   1.803
  498SOL    HW1  353   0.746   3.102   1.817
  498SOL    HW2  354   0.600   3.054   1.762
  500SOL     OW  355   1.460   3.367   1.339
  500SOL    HW1  356   1.484   3.461   1.365
  500SOL    HW2  357   1.444   3.313   1.421
  502SOL     OW  358   1.603   2.309   0.737
  502SOL    HW1  359   1.529   2.355   0.687
  502SOL    HW2  360   1.654   2.377   0.790
  504SOL     OW  361   1.127   3.203   1.690
  504SOL    HW1  362   1.174   3.203   1.778
  504SOL    HW2  363   1.079   3.116   1.679
  509SOL     OW  364   1.594   1.976   1.480
  509SOL    HW1  365   1.576   2.043   1.408
  509SOL    HW2  366   1.591   2.022   1.569
  513SOL     OW  367   1.689   2.784   0.612
  513SOL    HW1  368   1.784   2.755   0.620
  513SOL    HW2  369   1.681   2.849   0.537
  517SOL     OW  370   1.293   3.090   1.423
  517SOL    HW1  371   1.330   3.017   1.365
  517SOL    HW2  372   1.345   3.095   1.508
  523SOL     OW  373   1.466   3.279   0.953
  523SOL    HW1  374   1.407   3.285   1.033
  523SOL    HW2  375   1.451   3.191   0.907
  526SOL     OW  376   1.281   2.207   0.944
  526SOL    HW1  377   1.195   2.157   0.931
  526SOL    HW2  378   1.343   2.153   1.000
  528SOL     OW  379   0.807   2.467   1.465
  528SOL    HW1  380   0.760   2.464   1.554
  528SOL    HW2  381   0.756   2.412   1.399
  529SOL     OW  382   1.394   2.331   1.674
  529SOL    HW1  383   1.374   2.374   1.762
  529SOL    HW2  384   1.472   2.269   1.683
  530SOL     OW  385   0.973   2.752   1.572
  530SOL    HW1  386   1.019   2.668   1.543
  530SOL    HW2  387   0.917   2.786   1.497
  531SOL     OW  388   0.991   2.272   1.242
  531SOL    HW1  389   0.914   2.306   1.296
  531SOL    HW2  390   0.957   2.221   1.163
  536SOL     OW  391   1.719   2.447   1.831
  536SOL    HW1  392   1.693   2.536   1.795
  536SOL    HW2  393   1.717   2.379   1.758
  541SOL     OW  394   1.795   2.928   0.873
  541SOL    HW1  395   1.733   2.913   0.797
  541SOL    HW2  396   1.743   2.939   0.958
  542SOL     OW  397   1.227   3.412   1.506
  542SOL    HW1  398   1.233   3.335   1.570
  542SOL    HW2  399   1.175   3.386   1.426
  544SOL     OW  400   1.458   2.597   0.728
  544SOL    HW1  401   1.453   2.532   0.803
  544SOL    HW2  402   1.538   2.656   0.741
  554SOL     OW  403   1.547   2.084   1.729
  554SOL    HW1  404   1.542   2.121   1.821
  554SOL    HW2  405   1.475   2.015   1.717
  556SOL     OW  406   0.781   2.126   1.749
  556SOL    HW1  407   0.848   2.065   1.792
  556SOL    HW2  408   0.708   2.145   1.814
  558SOL     OW  409   1.351   2.452   1.433
  558SOL    HW1  410   1.379   2.409   1.518
  558SOL    HW2  411   1.376   2.548   1.434
  560SOL     OW  412   0.922   2.365   0.899
  560SOL    HW1  413   0.897   2.356   0.803
  560SOL    HW2  414   0.970   2.283   0.930
  565SOL     OW  415   1.076   2.545   1.464
  565SOL    HW1  416   0.996   2.484   1.467
  565SOL    HW2  417   1.157   2.492   1.440
  574SOL     OW  418   1.429   3.035   0.867
  574SOL    HW1  419   1.374   2.951   0.860
  574SOL    HW2  420   1.455   3.064   0.775
  575SOL     OW  421   1.466   2.452   0.992
  575SOL    HW1  422   1.436   2.357   0.999
  575SOL    HW2  423   1.539   2.468   1.058
  581SOL     OW  424   1.754   3.085   1.588
  581SOL    HW1  425   1.845   3.046   1.575
  581SOL    HW2  426   1.762   3.181   1.612
  582SOL     OW  427   1.064   3.209   1.340
  582SOL    HW1  428   0.984   3.186   1.395
  582SOL    HW2  429   1.147   3.183   1.389
  583SOL     OW  430   1.592   3.491   1.625
  583SOL    HW1  431   1.619   3.525   1.535
  583SOL    HW2  432   1.671   3.453   1.671
  584SOL     OW  433   1.111   3.057   1.100
  584SOL    HW1  434   1.071   3.101   1.181
  584SOL    HW2  435   1.070   3.094   1.017
  585SOL     OW  436   1.638   2.961   1.079
  585SOL    HW1  437   1.643   3.042   1.138
  585SOL    HW2  438   1.552   2.963   1.028
  586SOL     OW  439   0.915   1.951   1.402
  586SOL    HW1  440   0.940   1.931   1.307
  586SOL    HW2  441   0.987   2.007   1.444
  587SOL     OW  442   0.980   2.978   1.719
  587SOL    HW1  443   0.881   2.984   1.729
  587SOL    HW2  444   1.003   2.898   1.663
  590SOL     OW  445   1.274   2.248   1.262
  590SOL    HW1  446   1.295   2.322   1.326
  590SOL    HW2  447   1.185   2.265   1.219
  595SOL     OW  448   1.272   3.307   1.142
  595SOL    HW1  449   1.319   3.320   1.229
  595SOL    HW2  450   1.206   3.233   1.151
  599SOL     OW  451   1.587   2.641   1.670
  599SOL    HW1  452   1.495   2.679   1.665
  599SOL    HW2  453   1.647   2.688   1.605
  600SOL     OW  454   1.013   1.967   1.770
  600SOL    HW1  455   1.019   2.052   1.718
  600SOL    HW2  456   1.045   1.891   1.713
  601SOL     OW  457   0.504   1.912   1.740
  601SOL    HW1  458   0.462   1.855   1.670
  601SOL    HW2  459   0.438   1.981   1.772
  603SOL     OW  460   1.360   2.724   1.045
  603SOL    HW1  461   1.285   2.724   0.979
  603SOL    HW2  462   1.397   2.632   1.054
  608SOL     OW  463   1.728   2.797   1.854
  608SOL    HW1  464   1.682   2.790   1.765
  608SOL    HW2  465   1.666   2.841   1.920
  611SOL     OW  466   1.023   2.628   0.966
  611SOL    HW1  467   1.038   2.649   1.062
  611SOL    HW2  468   0.993   2.533   0.957
  612SOL     OW  469   0.980   3.435   1.700
  612SOL    HW1  470   0.960   3.479   1.612
  612SOL    HW2  471   1.019   3.344   1.684
  613SOL     OW  472   1.859   3.380   1.605
  613SOL    HW1  473   1.873   3.407   1.510
  613SOL    HW2  474   1.942   3.402   1.658
  620SOL     OW  475   1.138   2.242   1.678
  620SOL    HW1  476   1.093   2.305   1.742
  620SOL    HW2  477   1.231   2.273   1.661
  621SOL     OW  478   1.160   2.069   1.477
  621SOL    HW1  479   1.160   2.133   1.554
  621SOL    HW2  480   1.188   2.117   1.394
  625SOL     OW  481   1.002   2.658   1.238
  625SOL    HW1  482   1.043   2.626   1.324
  625SOL    HW2  483   0.906   2.631   1.235
  628SOL     OW  484   1.369   2.812   1.660
  628SOL    HW1  485   1.408   2.901   1.680
  628SOL    HW2  486   1.379   2.792   1.563
  630SOL     OW  487   1.657   2.466   1.206
  630SOL    HW1  488   1.619   2.397   1.268
  630SOL    HW2  489   1.739   2.430   1.162
  632SOL     OW  490   0.671   2.326   1.269
  632SOL    HW1  491   0.637   2.237   1.239
  632SOL    HW2  492   0.697   2.380   1.189
  636SOL     OW  493   1.347   2.921   1.234
  636SOL    HW1  494   1.371   2.858   1.160
  636SOL    HW2  495   1.257   2.961   1.216
  643SOL     OW  496   1.726   1.997   0.523
  643SOL    HW1  497   1.799   1.980   0.456
  643SOL    HW2  498   1.695   1.910   0.561
  649SOL     OW  499   1.650   3.582   1.394
  649SOL    HW1  500   1.703   3.592   1.310
  649SOL    HW2  501   1.623   3.672   1.428
  650SOL     OW  502   1.841   2.037   0.963
  650SOL    HW1  503   1.880   1.952   0.927
  650SOL    HW2  504   1.743   2.039   0.944
  653SOL     OW  505   0.822   2.864   1.372
  653SOL    HW1  506   0.862   2.863   1.280
  653SOL    HW2  507   0.832   2.956   1.412
  657SOL     OW  508   1.614   3.154   1.289
  657SOL    HW1  509   1.674   3.157   1.369
  657SOL    HW2  510   1.539   3.218   1.302
  659SOL     OW  511   1.014   2.098   0.971
  659SOL    HW1  512   1.006   2.062   0.878
  659SOL    HW2  513   1.012   2.022   1.036
  661SOL     OW  514   1.709   2.247   1.381
  661SOL    HW1  515   1.782   2.316   1.385
  661SOL    HW2  516   1.737   2.172   1.322
  664SOL     OW  517   0.672   2.065   1.489
  664SOL    HW1  518   0.762   2.049   1.449
  664SOL    HW2  519   0.680   2.070   1.588
  666SOL     OW  520   1.440   2.718   1.398
  666SOL    HW1  521   1.383   2.770   1.335
  666SOL    HW2  522   1.536   2.730   1.374
  669SOL     OW  523   0.613   2.704   1.431
  669SOL    HW1  524   0.669   2.785   1.414
  669SOL    HW2  525   0.672   2.624   1.434
  671SOL     OW  526   0.716   2.427   1.708
  671SOL    HW1  527   0.735   2.492   1.782
  671SOL    HW2  528   0.776   2.347   1.717
  672SOL     OW  529   1.450   3.082   1.633
  672SOL    HW1  530   1.441   3.072   1.732
  672SOL    HW2  531   1.546   3.075   1.607
  674SOL     OW  532   1.674   2.745   1.254
  674SOL    HW1  533   1.647   2.656   1.217
  674SOL    HW2  534   1.675   2.813   1.181
  677SOL     OW  535   1.777   2.204   1.642
  677SOL    HW1  536   1.760   2.235   1.548
  677SOL    HW2  537   1.693   2.167   1.680
  678SOL     OW  538   1.730   2.796   1.517
  678SOL    HW1  539   1.768   2.887   1.532
  678SOL    HW2  540   1.722   2.779   1.418
  687SOL     OW  541   1.824   2.054   1.227
  687SOL    HW1  542   1.820   1.964   1.271
  687SOL    HW2  543   1.827   2.043   1.128
  689SOL     OW  544   1.705   3.349   1.104
  689SOL    HW1  545   1.612   3.324   1.077
  689SOL    HW2  546   1.731   3.299   1.186
  692SOL     OW  547   1.424   2.076   1.112
  692SOL    HW1  548   1.476   2.011   1.167
  692SOL    HW2  549   1.375   2.139   1.173
  693SOL     OW  550   1.001   1.896   1.154
  693SOL    HW1  551   0.938   1.824   1.123
  693SOL    HW2  552   1.094   1.860   1.154
  697SOL     OW  553   1.300   2.315   0.691
  697SOL    HW1  554   1.241   2.395   0.695
  697SOL    HW2  555   1.315   2.280   0.784
  698SOL     OW  556   1.593   2.083   0.882
  698SOL    HW1  557   1.509   2.082   0.936
  698SOL    HW2  558   1.595   2.166   0.826
  705SOL     OW  559   1.555   3.373   2.565
  705SOL    HW1  560   1.498   3.357   2.646
  705SOL    HW2  561   1.496   3.383   2.485
  706SOL     OW  562   1.135   2.565   2.579
  706SOL    HW1  563   1.192   2.643   2.554
  706SOL    HW2  564   1.075   2.591   2.655
  707SOL     OW  565   1.755   2.469   2.093
  707SOL    HW1  566   1.743   2.456   1.994
  707SOL    HW2  567   1.725   2.388   2.142
  708SOL     OW  568   0.768   3.006   2.885
  708SOL    HW1  569   0.690   3.023   2.945
  708SOL    HW2  570   0.802   3.093   2.849
  710SOL     OW  571   0.685   2.874   2.527
  710SOL    HW1  572   0.754   2.858   2.597
  710SOL    HW2  573   0.612   2.931   2.565
  713SOL     OW  574   1.460   3.367   3.201
  713SOL    HW1  575   1.484   3.461   3.227
  713SOL    HW2  576   1.444   3.313   3.283
  715SOL     OW  577   1.603   2.309   2.599
  715SOL    HW1  578   1.529   2.355   2.549
  715SOL    HW2  579   1.654   2.377   2.652
  721SOL     OW  580   0.606   2.826   1.985
  721SOL    HW1  581   0.613   2.910   1.931
  721SOL    HW2  582   0.652   2.839   2.073
  722SOL     OW  583   1.594   1.976   3.342
  722SOL    HW1  584   1.576   2.043   3.270
  722SOL    HW2  585   1.591   2.022   3.431
  724SOL     OW  586   1.842   3.629   2.221
  724SOL    HW1  587   1.896   3.600   2.301
  724SOL    HW2  588   1.872   3.719   2.192
  726SOL     OW  589   1.689   2.784   2.474
  726SOL    HW1  590   1.784   2.755   2.482
  726SOL    HW2  591   1.681   2.849   2.399
  727SOL     OW  592   1.641   2.970   2.294
  727SOL    HW1  593   1.727   2.972   2.242
  727SOL    HW2  594   1.655   3.017   2.382
  730SOL     OW  595   1.293   3.090   3.285
  730SOL    HW1  596   1.330   3.017   3.227
  730SOL    HW2  597   1.345   3.095   3.370
  731SOL     OW  598   0.809   1.866   2.364
  731SOL    HW1  599   0.849   1.957   2.355
  731SOL    HW2  600   0.709   1.874   2.370
  733SOL     OW  601   1.525   2.861   2.052
  733SOL    HW1  602   1.462   2.785   2.065
  733SOL    HW2  603   1.573   2.879   2.138
  736SOL     OW  604   1.466   3.279   2.815
  736SOL    HW1  605   1.407   3.285   2.895
  736SOL    HW2  606   1.451   3.191   2.769
  737SOL     OW  607   1.667   3.576   2.434
  737SOL    HW1  608   1.626   3.553   2.346
  737SOL    HW2  609   1.649   3.502   2.499
  738SOL     OW  610   0.598   2.591   2.132
  738SOL    HW1  611   0.622   2.660   2.064
  738SOL    HW2  612   0.520   2.624   2.186
  739SOL     OW  613   1.281   2.207   2.806
  739SOL    HW1  614   1.195   2.157   2.793
  739SOL    HW2  615   1.343   2.153   2.862
  740SOL     OW  616   1.576   3.524   2.169
  740SOL    HW1  617   1.665   3.570   2.172
  740SOL    HW2  618   1.555   3.500   2.074
  742SOL     OW  619   1.394   2.331   3.536
  742SOL    HW1  620   1.374   2.374   3.624
  742SOL    HW2  621   1.472   2.269   3.545
  744SOL     OW  622   0.991   2.272   3.104
  744SOL    HW1  623   0.914   2.306   3.158
  744SOL    HW2  624   0.957   2.221   3.025
  745SOL     OW  625   1.041   2.563   2.291
  745SOL    HW1  626   1.067   2.559   2.387
  745SOL    HW2  627   0.956   2.512   2.277
  748SOL     OW  628   0.865   2.210   2.057
  748SOL    HW1  629   0.924   2.273   2.008
  748SOL    HW2  630   0.884   2.116   2.028
  749SOL     OW  631   1.719   2.447   3.693
  749SOL    HW1  632   1.693   2.536   3.657
  749SOL    HW2  633   1.717   2.379   3.620
  750SOL     OW  634   1.362   3.006   2.407
  750SOL    HW1  635   1.445   2.977   2.359
  750SOL    HW2  636   1.313   3.073   2.351
  751SOL     OW  637   0.550   2.058   2.747
  751SOL    HW1  638   0.545   2.053   2.847
  751SOL    HW2  639   0.552   2.154   2.718
  752SOL     OW  640   1.008   3.318   2.339
  752SOL    HW1  641   0.962   3.390   2.287
  752SOL    HW2  642   1.004   3.338   2.437
  754SOL     OW  643   1.795   2.928   2.735
  754SOL    HW1  644   1.733   2.913   2.659
  754SOL    HW2  645   1.743   2.939   2.820
  757SOL     OW  646   1.458   2.597   2.590
  757SOL    HW1  647   1.453   2.532   2.665
  757SOL    HW2  648   1.538   2.656   2.603
  761SOL     OW  649   1.632   3.239   1.943
  761SOL    HW1  650   1.600   3.333   1.933
  761SOL    HW2  651   1.556   3.176   1.931
  763SOL     OW  652   1.400   1.969   2.288
  763SOL    HW1  653   1.376   1.932   2.198
  763SOL    HW2  654   1.499   1.985   2.292
  767SOL     OW  655   1.547   2.084   3.591
  767SOL    HW1  656   1.542   2.121   3.683
  767SOL    HW2  657   1.475   2.015   3.579
  768SOL     OW  658   0.614   1.984   1.979
  768SOL    HW1  659   0.712   1.962   1.986
  768SOL    HW2  660   0.583   1.967   1.886
  771SOL     OW  661   1.351   2.452   3.295
  771SOL    HW1  662   1.379   2.409   3.380
  771SOL    HW2  663   1.376   2.548   3.296
  773SOL     OW  664   0.922   2.365   2.761
  773SOL    HW1  665   0.897   2.356   2.665
  773SOL    HW2  666   0.970   2.283   2.792
  774SOL     OW  667   0.539   1.926   2.374
  774SOL    HW1  668   0.458   1.927   2.432
  774SOL    HW2  669   0.542   2.009   2.319
  775SOL     OW  670   1.434   3.050   1.903
  775SOL    HW1  671   1.466   2.974   1.960
  775SOL    HW2  672   1.342   3.077   1.933
  777SOL     OW  673   0.935   2.098   2.342
  777SOL    HW1  674   0.887   2.139   2.264
  777SOL    HW2  675   1.034   2.096   2.323
  778SOL     OW  676   1.076   2.545   3.326
  778SOL    HW1  677   0.996   2.484   3.329
  778SOL    HW2  678   1.157   2.492   3.302
  779SOL     OW  679   1.227   3.432   2.655
  779SOL    HW1  680   1.248   3.506   2.590
  779SOL    HW2  681   1.295   3.432   2.728
  781SOL     OW  682   1.271   3.659   2.453
  781SOL    HW1  683   1.315   3.723   2.389
  781SOL    HW2  684   1.221   3.711   2.523
  782SOL     OW  685   1.032   2.411   1.878
  782SOL    HW1  686   0.991   2.493   1.839
  782SOL    HW2  687   1.096   2.437   1.951
  785SOL     OW  688   0.866   2.316   2.504
  785SOL    HW1  689   0.834   2.388   2.442
  785SOL    HW2  690   0.890   2.235   2.451
  786SOL     OW  691   1.017   1.901   2.615
  786SOL    HW1  692   0.945   1.906   2.546
  786SOL    HW2  693   0.993   1.832   2.684
  787SOL     OW  694   1.429   3.035   2.729
  787SOL    HW1  695   1.374   2.951   2.722
  787SOL    HW2  696   1.455   3.064   2.637
  788SOL     OW  697   1.466   2.452   2.854
  788SOL    HW1  698   1.436   2.357   2.861
  788SOL    HW2  699   1.539   2.468   2.920
  789SOL     OW  700   1.857   2.695   2.239
  789SOL    HW1  701   1.899   2.631   2.303
  789SOL    HW2  702   1.819   2.644   2.161
  791SOL     OW  703   1.664   3.142   2.519
  791SOL    HW1  704   1.763   3.150   2.533
  791SOL    HW2  705   1.619   3.226   2.550
  792SOL     OW  706   1.390   2.437   1.940
  792SOL    HW1  707   1.336   2.416   2.021
  792SOL    HW2  708   1.481   2.396   1.949
  793SOL     OW  709   0.527   2.118   2.190
  793SOL    HW1  710   0.554   2.059   2.115
  793SOL    HW2  711   0.527   2.213   2.159
  794SOL     OW  712   1.754   3.085   3.450
  794SOL    HW1  713   1.845   3.046   3.437
  794SOL    HW2  714   1.762   3.181   3.474
  797SOL     OW  715   1.111   3.057   2.962
  797SOL    HW1  716   1.071   3.101   3.043
  797SOL    HW2  717   1.070   3.094   2.879
  798SOL     OW  718   1.638   2.961   2.941
  798SOL    HW1  719   1.643   3.042   3.000
  798SOL    HW2  720   1.552   2.963   2.890
  799SOL     OW  721   0.915   1.951   3.264
  799SOL    HW1  722   0.940   1.931   3.169
  799SOL    HW2  723   0.987   2.007   3.306
  801SOL     OW  724   0.705   2.912   2.230
  801SOL    HW1  725   0.691   2.919   2.329
  801SOL    HW2  726   0.789   2.861   2.212
  803SOL     OW  727   1.274   2.248   3.124
  803SOL    HW1  728   1.295   2.322   3.188
  803SOL    HW2  729   1.185   2.265   3.081
  806SOL     OW  730   0.566   2.399   2.727
  806SOL    HW1  731   0.578   2.465   2.653
  806SOL    HW2  732   0.612   2.433   2.810
  807SOL     OW  733   1.252   3.210   2.250
  807SOL    HW1  734   1.302   3.287   2.290
  807SOL    HW2  735   1.157   3.212   2.282
  808SOL     OW  736   1.272   3.307   3.004
  808SOL    HW1  737   1.319   3.320   3.091
  808SOL    HW2  738   1.206   3.233   3.013
  809SOL     OW  739   1.582   2.501   2.334
  809SOL    HW1  740   1.551   2.562   2.407
  809SOL    HW2  741   1.632   2.553   2.265
  812SOL     OW  742   1.587   2.641   3.532
  812SOL    HW1  743   1.495   2.679   3.527
  812SOL    HW2  744   1.647   2.688   3.467
  816SOL     OW  745   1.360   2.724   2.907
  816SOL    HW1  746   1.285   2.724   2.841
  816SOL    HW2  747   1.397   2.632   2.916
  817SOL     OW  748   1.209   2.387   2.137
  817SOL    HW1  749   1.222   2.303   2.191
  817SOL    HW2  750   1.180   2.461   2.197
  820SOL     OW  751   0.732   2.496   2.926
  820SOL    HW1  752   0.791   2.470   2.850
  820SOL    HW2  753   0.704   2.592   2.915
  821SOL     OW  754   1.728   2.797   3.716
  821SOL    HW1  755   1.682   2.790   3.627
  821SOL    HW2  756   1.666   2.841   3.782
  823SOL     OW  757   1.622   2.229   2.236
  823SOL    HW1  758   1.624   2.153   2.300
  823SOL    HW2  759   1.574   2.306   2.276
  824SOL     OW  760   1.023   2.628   2.828
  824SOL    HW1  761   1.038   2.649   2.924
  824SOL    HW2  762   0.993   2.533   2.819
  828SOL     OW  763   1.540   2.136   1.987
  828SOL    HW1  764   1.479   2.061   2.010
  828SOL    HW2  765   1.562   2.188   2.070
  829SOL     OW  766   1.303   2.700   1.904
  829SOL    HW1  767   1.337   2.607   1.919
  829SOL    HW2  768   1.321   2.727   1.809
  830SOL     OW  769   1.068   3.195   2.711
  830SOL    HW1  770   1.075   3.111   2.656
  830SOL    HW2  771   1.130   3.264   2.675
  833SOL     OW  772   1.138   2.242   3.540
  833SOL    HW1  773   1.093   2.305   3.604
  833SOL    HW2  774   1.231   2.273   3.523
  834SOL     OW  775   1.160   2.069   3.339
  834SOL    HW1  776   1.160   2.133   3.416
  834SOL    HW2  777   1.188   2.117   3.256
  838SOL     OW  778   1.002   2.658   3.100
  838SOL    HW1  779   1.043   2.626   3.186
  838SOL    HW2  780   0.906   2.631   3.097
  841SOL     OW  781   1.369   2.812   3.522
  841SOL    HW1  782   1.408   2.901   3.542
  841SOL    HW2  783   1.379   2.792   3.425
  842SOL     OW  784   0.815   2.434   2.187
  842SOL    HW1  785   0.822   2.345   2.141
  842SOL    HW2  786   0.721   2.468   2.179
  843SOL     OW  787   1.657   2.466   3.068
  843SOL    HW1  788   1.619   2.397   3.130
  843SOL    HW2  789   1.739   2.430   3.024
  845SOL     OW  790   0.671   2.326   3.131
  845SOL    HW1  791   0.637   2.237   3.101
  845SOL    HW2  792   0.697   2.380   3.051
  847SOL     OW  793   0.473   2.362   2.053
  847SOL    HW1  794   0.534   2.442   2.057
  847SOL    HW2  795   0.378   2.393   2.060
  849SOL     OW  796   1.347   2.921   3.096
  849SOL    HW1  797   1.371   2.858   3.022
  849SOL    HW2  798   1.257   2.961   3.078
  850SOL     OW  799   1.302   2.717   2.171
  850SOL    HW1  800   1.216   2.686   2.213
  850SOL    HW2  801   1.298   2.703   2.072
  851SOL     OW  802   1.759   3.609   3.016
  851SOL    HW1  803   1.820   3.639   2.943
  851SOL    HW2  804   1.721   3.520   2.994
  855SOL     OW  805   1.726   1.997   2.385
  855SOL    HW1  806   1.799   1.980   2.318
  855SOL    HW2  807   1.695   1.910   2.423
  856SOL     OW  808   1.388   3.435   2.339
  856SOL    HW1  809   1.455   3.447   2.265
  856SOL    HW2  810   1.348   3.524   2.362
  858SOL     OW  811   1.280   2.789   2.534
  858SOL    HW1  812   1.340   2.708   2.536
  858SOL    HW2  813   1.320   2.858   2.474
  862SOL     OW  814   1.841   2.037   2.825
  862SOL    HW1  815   1.880   1.952   2.789
  862SOL    HW2  816   1.743   2.039   2.806
  864SOL     OW  817   1.194   3.474   1.893
  864SOL    HW1  818   1.200   3.381   1.930
  864SOL    HW2  819   1.135   3.474   1.813
  866SOL     OW  820   0.916   2.772   2.153
  866SOL    HW1  821   0.979   2.810   2.085
  866SOL    HW2  822   0.956   2.689   2.192
  867SOL     OW  823   1.504   3.469   1.906
  867SOL    HW1  824   1.412   3.506   1.913
  867SOL    HW2  825   1.542   3.489   1.816
  869SOL     OW  826   1.614   3.154   3.151
  869SOL    HW1  827   1.674   3.157   3.231
  869SOL    HW2  828   1.539   3.218   3.164
  870SOL     OW  829   1.039   2.960   2.558
  870SOL    HW1  830   0.969   2.913   2.612
  870SOL    HW2  831   1.098   2.892   2.515
  871SOL     OW  832   1.014   2.098   2.833
  871SOL    HW1  833   1.006   2.062   2.740
  871SOL    HW2  834   1.012   2.022   2.898
  873SOL     OW  835   1.709   2.247   3.243
  873SOL    HW1  836   1.782   2.316   3.247
  873SOL    HW2  837   1.737   2.172   3.184
  878SOL     OW  838   1.440   2.718   3.260
  878SOL    HW1  839   1.383   2.770   3.197
  878SOL    HW2  840   1.536   2.730   3.236
  880SOL     OW  841   1.183   3.197   1.981
  880SOL    HW1  842   1.084   3.186   1.983
  880SOL    HW2  843   1.217   3.212   2.074
  882SOL     OW  844   1.493   3.629   2.821
  882SOL    HW1  845   1.526   3.693   2.752
  882SOL    HW2  846   1.559   3.623   2.896
  884SOL     OW  847   1.450   3.082   3.495
  884SOL    HW1  848   1.441   3.072   3.594
  884SOL    HW2  849   1.546   3.075   3.469
  886SOL     OW  850   1.674   2.745   3.116
  886SOL    HW1  851   1.647   2.656   3.079
  886SOL    HW2  852   1.675   2.813   3.043
  887SOL     OW  853   1.225   2.187   2.311
  887SOL    HW1  854   1.290   2.113   2.300
  887SOL    HW2  855   1.245   2.237   2.395
  888SOL     OW  856   0.594   2.607   2.514
  888SOL    HW1  857   0.644   2.692   2.495
  888SOL    HW2  858   0.506   2.609   2.466
  889SOL     OW  859   1.777   2.204   3.504
  889SOL    HW1  860   1.760   2.235   3.410
  889SOL    HW2  861   1.693   2.167   3.542
  890SOL     OW  862   1.730   2.796   3.379
  890SOL    HW1  863   1.768   2.887   3.394
  890SOL    HW2  864   1.722   2.779   3.280
  891SOL     OW  865   0.859   3.236   1.878
  891SOL    HW1  866   0.813   3.251   1.966
  891SOL    HW2  867   0.903   3.321   1.848
  893SOL     OW  868   0.859   2.818   2.723
  893SOL    HW1  869   0.913   2.749   2.771
  893SOL    HW2  870   0.827   2.887   2.789
  894SOL     OW  871   1.083   2.846   1.949
  894SOL    HW1  872   1.060   2.899   1.867
  894SOL    HW2  873   1.164   2.790   1.930
  895SOL     OW  874   1.861   3.431   2.713
  895SOL    HW1  875   1.790   3.419   2.643
  895SOL    HW2  876   1.862   3.352   2.773
  899SOL     OW  877   1.824   2.054   3.089
  899SOL    HW1  878   1.820   1.964   3.133
  899SOL    HW2  879   1.827   2.043   2.990
  900SOL     OW  880   0.428   2.286   2.382
  900SOL    HW1  881   0.458   2.214   2.320
  900SOL    HW2  882   0.389   2.246   2.465
  901SOL     OW  883   1.705   3.349   2.966
  901SOL    HW1  884   1.612   3.324   2.939
  901SOL    HW2  885   1.731   3.299   3.048
  904SOL     OW  886   1.424   2.076   2.974
  904SOL    HW1  887   1.476   2.011   3.029
  904SOL    HW2  888   1.375   2.139   3.035
  905SOL     OW  889   1.001   1.896   3.016
  905SOL    HW1  890   0.938   1.824   2.985
  905SOL    HW2  891   1.094   1.860   3.016
  906SOL     OW  892   0.770   3.192   2.163
  906SOL    HW1  893   0.724   3.105   2.180
  906SOL    HW2  894   0.861   3.189   2.204
  908SOL     OW  895   1.352   1.914   2.030
  908SOL    HW1  896   1.387   1.873   1.946
  908SOL    HW2  897   1.262   1.876   2.050
  909SOL     OW  898   1.300   2.315   2.553
  909SOL    HW1  899   1.241   2.395   2.557
  909SOL    HW2  900   1.315   2.280   2.646
  910SOL     OW  901   1.593   2.083   2.744
  910SOL    HW1  902   1.509   2.082   2.798
  910SOL    HW2  903   1.595   2.166   2.688
 1088SOL     OW  904   1.726   3.859   2.385
 1088SOL    HW1  905   1.799   3.842   2.318
 1088SOL    HW2  906   1.695   3.772   2.423
 1130SOL     OW  907   2.431   1.275   1.165
 1130SOL    HW1  908   2.338   1.268   1.128
 1130SOL    HW2  909   2.442   1.364   1.209
 1134SOL     OW  910   2.630   1.144   1.023
 1134SOL    HW1  911   2.552   1.161   1.083
 1134SOL    HW2  912   2.664   1.231   0.987
 1135SOL     OW  913   2.712   0.798   1.823
 1135SOL    HW1  914   2.708   0.874   1.888
 1135SOL    HW2  915   2.734   0.834   1.732
 1137SOL     OW  916   2.548   1.161   1.803
 1137SOL    HW1  917   2.608   1.240   1.817
 1137SOL    HW2  918   2.462   1.192   1.762
 1138SOL     OW  919   2.197   1.435   1.061
 1138SOL    HW1  920   2.119   1.404   1.008
 1138SOL    HW2  921   2.255   1.493   1.004
 1139SOL     OW  922   3.322   1.505   1.339
 1139SOL    HW1  923   3.346   1.599   1.365
 1139SOL    HW2  924   3.306   1.451   1.421
 1142SOL     OW  925   2.093   1.713   0.483
 1142SOL    HW1  926   2.127   1.790   0.537
 1142SOL    HW2  927   2.137   1.713   0.393
 1143SOL     OW  928   2.989   1.341   1.690
 1143SOL    HW1  929   3.036   1.341   1.778
 1143SOL    HW2  930   2.941   1.254   1.679
 1144SOL     OW  931   2.092   1.434   0.538
 1144SOL    HW1  932   2.066   1.530   0.538
 1144SOL    HW2  933   2.021   1.380   0.583
 1145SOL     OW  934   2.102   1.091   0.886
 1145SOL    HW1  935   2.116   1.007   0.938
 1145SOL    HW2  936   2.047   1.155   0.941
 1146SOL     OW  937   2.482   1.786   1.439
 1146SOL    HW1  938   2.390   1.769   1.474
 1146SOL    HW2  939   2.510   1.878   1.465
 1154SOL     OW  940   1.975   0.737   1.597
 1154SOL    HW1  941   2.063   0.724   1.642
 1154SOL    HW2  942   1.962   0.834   1.575
 1155SOL     OW  943   2.475   1.365   0.726
 1155SOL    HW1  944   2.426   1.278   0.735
 1155SOL    HW2  945   2.452   1.408   0.639
 1156SOL     OW  946   3.155   1.228   1.423
 1156SOL    HW1  947   3.192   1.155   1.365
 1156SOL    HW2  948   3.207   1.233   1.508
 1158SOL     OW  949   2.059   0.976   1.264
 1158SOL    HW1  950   2.148   0.931   1.250
 1158SOL    HW2  951   1.986   0.911   1.245
 1160SOL     OW  952   3.049   1.792   1.616
 1160SOL    HW1  953   3.073   1.852   1.540
 1160SOL    HW2  954   3.056   1.697   1.586
 1167SOL     OW  955   2.669   0.605   1.465
 1167SOL    HW1  956   2.622   0.602   1.554
 1167SOL    HW2  957   2.618   0.550   1.399
 1169SOL     OW  958   2.835   0.890   1.572
 1169SOL    HW1  959   2.881   0.806   1.543
 1169SOL    HW2  960   2.779   0.924   1.497
 1173SOL     OW  961   1.992   1.821   1.571
 1173SOL    HW1  962   1.982   1.806   1.670
 1173SOL    HW2  963   1.906   1.857   1.535
 1179SOL     OW  964   2.213   1.801   0.853
 1179SOL    HW1  965   2.263   1.715   0.859
 1179SOL    HW2  966   2.278   1.878   0.850
 1181SOL     OW  967   3.089   1.550   1.506
 1181SOL    HW1  968   3.095   1.473   1.570
 1181SOL    HW2  969   3.037   1.524   1.426
 1184SOL     OW  970   2.323   1.266   1.727
 1184SOL    HW1  971   2.273   1.267   1.641
 1184SOL    HW2  972   2.260   1.248   1.803
 1190SOL     OW  973   2.111   1.785   1.241
 1190SOL    HW1  974   2.168   1.720   1.291
 1190SOL    HW2  975   2.095   1.752   1.148
 1191SOL     OW  976   2.802   1.698   0.904
 1191SOL    HW1  977   2.882   1.641   0.925
 1191SOL    HW2  978   2.753   1.658   0.827
 1196SOL     OW  979   2.750   1.514   1.195
 1196SOL    HW1  980   2.727   1.489   1.101
 1196SOL    HW2  981   2.811   1.445   1.234
 1198SOL     OW  982   2.665   1.402   0.924
 1198SOL    HW1  983   2.755   1.416   0.882
 1198SOL    HW2  984   2.594   1.404   0.853
 1205SOL     OW  985   3.089   1.570   0.793
 1205SOL    HW1  986   3.110   1.644   0.728
 1205SOL    HW2  987   3.157   1.570   0.866
 1206SOL     OW  988   2.321   1.152   0.741
 1206SOL    HW1  989   2.250   1.125   0.806
 1206SOL    HW2  990   2.295   1.124   0.648
 1209SOL     OW  991   1.940   0.556   1.386
 1209SOL    HW1  992   2.032   0.555   1.345
 1209SOL    HW2  993   1.934   0.630   1.453
 1221SOL     OW  994   2.926   1.347   1.340
 1221SOL    HW1  995   2.846   1.324   1.395
 1221SOL    HW2  996   3.009   1.321   1.389
 1222SOL     OW  997   3.454   1.629   1.625
 1222SOL    HW1  998   3.481   1.663   1.535
 1222SOL    HW2  999   3.533   1.591   1.671
 1223SOL     OW 1000   2.973   1.195   1.100
 1223SOL    HW1 1001   2.933   1.239   1.181
 1223SOL    HW2 1002   2.932   1.232   1.017
 1226SOL     OW 1003   2.842   1.116   1.719
 1226SOL    HW1 1004   2.743   1.122   1.729
 1226SOL    HW2 1005   2.865   1.036   1.663
 1228SOL     OW 1006   2.272   0.813   1.251
 1228SOL    HW1 1007   2.358   0.825   1.301
 1228SOL    HW2 1008   2.230   0.726   1.278
 1230SOL     OW 1009   1.926   1.564   1.331
 1230SOL    HW1 1010   1.880   1.646   1.297
 1230SOL    HW2 1011   2.024   1.583   1.340
 1234SOL     OW 1012   3.134   1.445   1.142
 1234SOL    HW1 1013   3.181   1.458   1.229
 1234SOL    HW2 1014   3.068   1.371   1.151
 1236SOL     OW 1015   2.216   1.510   1.329
 1236SOL    HW1 1016   2.195   1.466   1.242
 1236SOL    HW2 1017   2.313   1.536   1.332
 1237SOL     OW 1018   2.264   0.751   1.598
 1237SOL    HW1 1019   2.332   0.806   1.551
 1237SOL    HW2 1020   2.304   0.663   1.625
 1241SOL     OW 1021   2.435   0.870   1.029
 1241SOL    HW1 1022   2.479   0.959   1.020
 1241SOL    HW2 1023   2.372   0.870   1.106
 1245SOL     OW 1024   1.899   1.310   1.282
 1245SOL    HW1 1025   1.952   1.261   1.350
 1245SOL    HW2 1026   1.921   1.408   1.287
 1251SOL     OW 1027   2.842   1.573   1.700
 1251SOL    HW1 1028   2.822   1.617   1.612
 1251SOL    HW2 1029   2.881   1.482   1.684
 1252SOL     OW 1030   3.721   1.518   1.605
 1252SOL    HW1 1031   3.735   1.545   1.510
 1252SOL    HW2 1032   3.804   1.540   1.658
 1253SOL     OW 1033   2.212   0.898   1.804
 1253SOL    HW1 1034   2.288   0.942   1.852
 1253SOL    HW2 1035   2.247   0.851   1.722
 1256SOL     OW 1036   2.930   1.333   0.849
 1256SOL    HW1 1037   2.937   1.249   0.794
 1256SOL    HW2 1038   2.992   1.402   0.813
 1262SOL     OW 1039   1.950   1.801   0.927
 1262SOL    HW1 1040   1.908   1.715   0.900
 1262SOL    HW2 1041   2.044   1.804   0.893
 1263SOL     OW 1042   2.366   1.568   0.910
 1263SOL    HW1 1043   2.432   1.642   0.919
 1263SOL    HW2 1044   2.410   1.489   0.868
 1264SOL     OW 1045   2.864   0.796   1.238
 1264SOL    HW1 1046   2.905   0.764   1.324
 1264SOL    HW2 1047   2.768   0.769   1.235
 1266SOL     OW 1048   2.051   0.520   1.722
 1266SOL    HW1 1049   2.110   0.480   1.652
 1266SOL    HW2 1050   1.993   0.591   1.681
 1267SOL     OW 1051   3.231   0.950   1.660
 1267SOL    HW1 1052   3.270   1.039   1.680
 1267SOL    HW2 1053   3.241   0.930   1.563
 1270SOL     OW 1054   2.114   1.564   1.744
 1270SOL    HW1 1055   2.084   1.621   1.820
 1270SOL    HW2 1056   2.107   1.467   1.770
 1272SOL     OW 1057   2.792   1.678   1.465
 1272SOL    HW1 1058   2.768   1.660   1.370
 1272SOL    HW2 1059   2.822   1.772   1.475
 1274SOL     OW 1060   2.021   1.137   1.466
 1274SOL    HW1 1061   2.043   1.076   1.542
 1274SOL    HW2 1062   2.031   1.088   1.380
 1275SOL     OW 1063   3.209   1.059   1.234
 1275SOL    HW1 1064   3.233   0.996   1.160
 1275SOL    HW2 1065   3.119   1.099   1.216
 1278SOL     OW 1066   3.114   1.731   1.128
 1278SOL    HW1 1067   3.198   1.736   1.074
 1278SOL    HW2 1068   3.091   1.635   1.146
 1279SOL     OW 1069   1.945   1.258   1.022
 1279SOL    HW1 1070   1.940   1.257   1.122
 1279SOL    HW2 1071   1.862   1.217   0.984
 1280SOL     OW 1072   2.550   1.662   1.716
 1280SOL    HW1 1073   2.494   1.743   1.725
 1280SOL    HW2 1074   2.602   1.666   1.630
 1284SOL     OW 1075   1.992   1.794   1.851
 1284SOL    HW1 1076   1.951   1.720   1.904
 1284SOL    HW2 1077   2.056   1.845   1.909
 1286SOL     OW 1078   2.692   1.273   1.422
 1286SOL    HW1 1079   2.687   1.306   1.517
 1286SOL    HW2 1080   2.606   1.292   1.376
 1288SOL     OW 1081   3.512   1.720   1.394
 1288SOL    HW1 1082   3.565   1.730   1.310
 1288SOL    HW2 1083   3.485   1.810   1.428
 1292SOL     OW 1084   2.684   1.002   1.372
 1292SOL    HW1 1085   2.724   1.001   1.280
 1292SOL    HW2 1086   2.694   1.094   1.412
 1295SOL     OW 1087   2.234   1.288   1.490
 1295SOL    HW1 1088   2.221   1.381   1.456
 1295SOL    HW2 1089   2.150   1.236   1.477
 1296SOL     OW 1090   3.476   1.292   1.289
 1296SOL    HW1 1091   3.536   1.295   1.369
 1296SOL    HW2 1092   3.401   1.356   1.302
 1302SOL     OW 1093   1.967   1.013   1.726
 1302SOL    HW1 1094   1.890   0.980   1.780
 1302SOL    HW2 1095   2.052   0.983   1.768
 1308SOL     OW 1096   2.475   0.842   1.431
 1308SOL    HW1 1097   2.531   0.923   1.414
 1308SOL    HW2 1098   2.534   0.762   1.434
 1309SOL     OW 1099   3.355   1.767   0.959
 1309SOL    HW1 1100   3.388   1.831   0.890
 1309SOL    HW2 1101   3.421   1.761   1.034
 1310SOL     OW 1102   2.578   0.565   1.708
 1310SOL    HW1 1103   2.597   0.630   1.782
 1310SOL    HW2 1104   2.638   0.485   1.717
 1311SOL     OW 1105   3.312   1.220   1.633
 1311SOL    HW1 1106   3.303   1.210   1.732
 1311SOL    HW2 1107   3.408   1.213   1.607
 1312SOL     OW 1108   2.252   1.741   1.560
 1312SOL    HW1 1109   2.161   1.782   1.558
 1312SOL    HW2 1110   2.245   1.647   1.592
 1319SOL     OW 1111   2.523   1.790   0.953
 1319SOL    HW1 1112   2.477   1.878   0.940
 1319SOL    HW2 1113   2.622   1.802   0.946
 1323SOL     OW 1114   2.083   1.314   1.844
 1323SOL    HW1 1115   2.018   1.241   1.823
 1323SOL    HW2 1116   2.087   1.328   1.942
 1324SOL     OW 1117   1.941   1.240   0.653
 1324SOL    HW1 1118   1.940   1.193   0.741
 1324SOL    HW2 1119   2.023   1.212   0.602
 1325SOL     OW 1120   2.534   1.391   1.624
 1325SOL    HW1 1121   2.456   1.341   1.662
 1325SOL    HW2 1122   2.531   1.486   1.655
 1330SOL     OW 1123   2.674   1.586   0.687
 1330SOL    HW1 1124   2.706   1.596   0.593
 1330SOL    HW2 1125   2.595   1.524   0.689
 1334SOL     OW 1126   2.480   1.567   1.284
 1334SOL    HW1 1127   2.475   1.649   1.341
 1334SOL    HW2 1128   2.569   1.564   1.239
 1340SOL     OW 1129   2.092   0.628   1.975
 1340SOL    HW1 1130   1.999   0.626   2.012
 1340SOL    HW2 1131   2.093   0.589   1.883
 1343SOL     OW 1132   2.431   1.275   3.027
 1343SOL    HW1 1133   2.338   1.268   2.990
 1343SOL    HW2 1134   2.442   1.364   3.071
 1344SOL     OW 1135   3.417   1.511   2.565
 1344SOL    HW1 1136   3.360   1.495   2.646
 1344SOL    HW2 1137   3.358   1.521   2.485
 1345SOL     OW 1138   2.997   0.703   2.579
 1345SOL    HW1 1139   3.054   0.781   2.554
 1345SOL    HW2 1140   2.937   0.729   2.655
 1347SOL     OW 1141   2.630   1.144   2.885
 1347SOL    HW1 1142   2.552   1.161   2.945
 1347SOL    HW2 1143   2.664   1.231   2.849
 1349SOL     OW 1144   2.547   1.012   2.527
 1349SOL    HW1 1145   2.616   0.996   2.597
 1349SOL    HW2 1146   2.474   1.069   2.565
 1351SOL     OW 1147   2.197   1.435   2.923
 1351SOL    HW1 1148   2.119   1.404   2.870
 1351SOL    HW2 1149   2.255   1.493   2.866
 1352SOL     OW 1150   3.322   1.505   3.201
 1352SOL    HW1 1151   3.346   1.599   3.227
 1352SOL    HW2 1152   3.306   1.451   3.283
 1355SOL     OW 1153   2.093   1.713   2.345
 1355SOL    HW1 1154   2.127   1.790   2.399
 1355SOL    HW2 1155   2.137   1.713   2.255
 1357SOL     OW 1156   2.092   1.434   2.400
 1357SOL    HW1 1157   2.066   1.530   2.400
 1357SOL    HW2 1158   2.021   1.380   2.445
 1358SOL     OW 1159   2.102   1.091   2.748
 1358SOL    HW1 1160   2.116   1.007   2.800
 1358SOL    HW2 1161   2.047   1.155   2.803
 1359SOL     OW 1162   2.482   1.786   3.301
 1359SOL    HW1 1163   2.390   1.769   3.336
 1359SOL    HW2 1164   2.510   1.878   3.327
 1360SOL     OW 1165   2.468   0.964   1.985
 1360SOL    HW1 1166   2.475   1.048   1.931
 1360SOL    HW2 1167   2.514   0.977   2.073
 1362SOL     OW 1168   1.984   0.643   2.425
 1362SOL    HW1 1169   1.939   0.555   2.442
 1362SOL    HW2 1170   1.983   0.697   2.509
 1363SOL     OW 1171   3.704   1.767   2.221
 1363SOL    HW1 1172   3.758   1.738   2.301
 1363SOL    HW2 1173   3.734   1.857   2.192
 1364SOL     OW 1174   1.889   1.596   1.979
 1364SOL    HW1 1175   1.870   1.500   2.000
 1364SOL    HW2 1176   1.856   1.654   2.054
 1366SOL     OW 1177   3.503   1.108   2.294
 1366SOL    HW1 1178   3.589   1.110   2.242
 1366SOL    HW2 1179   3.517   1.155   2.382
 1368SOL     OW 1180   2.475   1.365   2.588
 1368SOL    HW1 1181   2.426   1.278   2.597
 1368SOL    HW2 1182   2.452   1.408   2.501
 1369SOL     OW 1183   3.155   1.228   3.285
 1369SOL    HW1 1184   3.192   1.155   3.227
 1369SOL    HW2 1185   3.207   1.233   3.370
 1371SOL     OW 1186   2.059   0.976   3.126
 1371SOL    HW1 1187   2.148   0.931   3.112
 1371SOL    HW2 1188   1.986   0.911   3.107
 1372SOL     OW 1189   3.387   0.999   2.052
 1372SOL    HW1 1190   3.324   0.923   2.065
 1372SOL    HW2 1191   3.435   1.017   2.138
 1373SOL     OW 1192   3.049   1.792   3.478
 1373SOL    HW1 1193   3.073   1.852   3.402
 1373SOL    HW2 1194   3.056   1.697   3.448
 1375SOL     OW 1195   3.328   1.417   2.815
 1375SOL    HW1 1196   3.269   1.423   2.895
 1375SOL    HW2 1197   3.313   1.329   2.769
 1376SOL     OW 1198   3.529   1.714   2.434
 1376SOL    HW1 1199   3.488   1.691   2.346
 1376SOL    HW2 1200   3.511   1.640   2.499
 1377SOL     OW 1201   2.460   0.729   2.132
 1377SOL    HW1 1202   2.484   0.798   2.064
 1377SOL    HW2 1203   2.382   0.762   2.186
 1379SOL     OW 1204   3.438   1.662   2.169
 1379SOL    HW1 1205   3.527   1.708   2.172
 1379SOL    HW2 1206   3.417   1.638   2.074
 1384SOL     OW 1207   2.903   0.701   2.291
 1384SOL    HW1 1208   2.929   0.697   2.387
 1384SOL    HW2 1209   2.818   0.650   2.277
 1385SOL     OW 1210   1.938   0.811   2.651
 1385SOL    HW1 1211   2.037   0.799   2.660
 1385SOL    HW2 1212   1.914   0.906   2.672
 1386SOL     OW 1213   1.992   1.821   3.433
 1386SOL    HW1 1214   1.982   1.806   3.532
 1386SOL    HW2 1215   1.906   1.857   3.397
 1389SOL     OW 1216   3.224   1.144   2.407
 1389SOL    HW1 1217   3.307   1.115   2.359
 1389SOL    HW2 1218   3.175   1.211   2.351
 1391SOL     OW 1219   2.870   1.456   2.339
 1391SOL    HW1 1220   2.824   1.528   2.287
 1391SOL    HW2 1221   2.866   1.476   2.437
 1392SOL     OW 1222   2.213   1.801   2.715
 1392SOL    HW1 1223   2.263   1.715   2.721
 1392SOL    HW2 1224   2.278   1.878   2.712
 1394SOL     OW 1225   3.089   1.550   3.368
 1394SOL    HW1 1226   3.095   1.473   3.432
 1394SOL    HW2 1227   3.037   1.524   3.288
 1395SOL     OW 1228   2.183   0.943   2.104
 1395SOL    HW1 1229   2.265   0.982   2.062
 1395SOL    HW2 1230   2.156   0.861   2.055
 1397SOL     OW 1231   2.323   1.266   3.589
 1397SOL    HW1 1232   2.273   1.267   3.503
 1397SOL    HW2 1233   2.260   1.248   3.665
 1398SOL     OW 1234   2.973   1.776   2.099
 1398SOL    HW1 1235   2.913   1.714   2.149
 1398SOL    HW2 1236   3.004   1.732   2.014
 1400SOL     OW 1237   3.494   1.377   1.943
 1400SOL    HW1 1238   3.462   1.471   1.933
 1400SOL    HW2 1239   3.418   1.314   1.931
 1401SOL     OW 1240   2.326   1.743   2.185
 1401SOL    HW1 1241   2.359   1.782   2.271
 1401SOL    HW2 1242   2.402   1.736   2.120
 1403SOL     OW 1243   2.111   1.785   3.103
 1403SOL    HW1 1244   2.168   1.720   3.153
 1403SOL    HW2 1245   2.095   1.752   3.010
 1404SOL     OW 1246   2.802   1.698   2.766
 1404SOL    HW1 1247   2.882   1.641   2.787
 1404SOL    HW2 1248   2.753   1.658   2.689
 1405SOL     OW 1249   2.244   0.700   2.342
 1405SOL    HW1 1250   2.289   0.610   2.339
 1405SOL    HW2 1251   2.150   0.689   2.375
 1409SOL     OW 1252   2.750   1.514   3.057
 1409SOL    HW1 1253   2.727   1.489   2.963
 1409SOL    HW2 1254   2.811   1.445   3.096
 1411SOL     OW 1255   2.665   1.402   2.786
 1411SOL    HW1 1256   2.755   1.416   2.744
 1411SOL    HW2 1257   2.594   1.404   2.715
 1414SOL     OW 1258   3.296   1.188   1.903
 1414SOL    HW1 1259   3.328   1.112   1.960
 1414SOL    HW2 1260   3.204   1.215   1.933
 1418SOL     OW 1261   3.089   1.570   2.655
 1418SOL    HW1 1262   3.110   1.644   2.590
 1418SOL    HW2 1263   3.157   1.570   2.728
 1419SOL     OW 1264   2.321   1.152   2.603
 1419SOL    HW1 1265   2.250   1.125   2.668
 1419SOL    HW2 1266   2.295   1.124   2.510
 1420SOL     OW 1267   3.133   1.797   2.453
 1420SOL    HW1 1268   3.177   1.861   2.389
 1420SOL    HW2 1269   3.083   1.849   2.523
 1421SOL     OW 1270   2.894   0.549   1.878
 1421SOL    HW1 1271   2.853   0.631   1.839
 1421SOL    HW2 1272   2.958   0.575   1.951
 1426SOL     OW 1273   3.291   1.173   2.729
 1426SOL    HW1 1274   3.236   1.089   2.722
 1426SOL    HW2 1275   3.317   1.202   2.637
 1429SOL     OW 1276   2.350   1.385   2.036
 1429SOL    HW1 1277   2.263   1.370   2.083
 1429SOL    HW2 1278   2.333   1.411   1.941
 1430SOL     OW 1279   3.526   1.280   2.519
 1430SOL    HW1 1280   3.625   1.288   2.533
 1430SOL    HW2 1281   3.481   1.364   2.550
 1434SOL     OW 1282   2.926   1.347   3.202
 1434SOL    HW1 1283   2.846   1.324   3.257
 1434SOL    HW2 1284   3.009   1.321   3.251
 1436SOL     OW 1285   2.973   1.195   2.962
 1436SOL    HW1 1286   2.933   1.239   3.043
 1436SOL    HW2 1287   2.932   1.232   2.879
 1440SOL     OW 1288   2.567   1.050   2.230
 1440SOL    HW1 1289   2.553   1.057   2.329
 1440SOL    HW2 1290   2.651   0.999   2.212
 1441SOL     OW 1291   2.272   0.813   3.113
 1441SOL    HW1 1292   2.358   0.825   3.163
 1441SOL    HW2 1293   2.230   0.726   3.140
 1443SOL     OW 1294   1.926   1.564   3.193
 1443SOL    HW1 1295   1.880   1.646   3.159
 1443SOL    HW2 1296   2.024   1.583   3.202
 1444SOL     OW 1297   2.229   1.100   2.363
 1444SOL    HW1 1298   2.222   1.183   2.307
 1444SOL    HW2 1299   2.233   1.020   2.303
 1445SOL     OW 1300   2.428   0.537   2.727
 1445SOL    HW1 1301   2.440   0.603   2.653
 1445SOL    HW2 1302   2.474   0.571   2.810
 1446SOL     OW 1303   3.114   1.348   2.250
 1446SOL    HW1 1304   3.164   1.425   2.290
 1446SOL    HW2 1305   3.019   1.350   2.282
 1447SOL     OW 1306   3.134   1.445   3.004
 1447SOL    HW1 1307   3.181   1.458   3.091
 1447SOL    HW2 1308   3.068   1.371   3.013
 1449SOL     OW 1309   2.216   1.510   3.191
 1449SOL    HW1 1310   2.195   1.466   3.104
 1449SOL    HW2 1311   2.313   1.536   3.194
 1454SOL     OW 1312   2.435   0.870   2.891
 1454SOL    HW1 1313   2.479   0.959   2.882
 1454SOL    HW2 1314   2.372   0.870   2.968
 1458SOL     OW 1315   1.899   1.310   3.144
 1458SOL    HW1 1316   1.952   1.261   3.212
 1458SOL    HW2 1317   1.921   1.408   3.149
 1459SOL     OW 1318   2.594   0.634   2.926
 1459SOL    HW1 1319   2.653   0.608   2.850
 1459SOL    HW2 1320   2.566   0.730   2.915
 1463SOL     OW 1321   2.885   0.766   2.828
 1463SOL    HW1 1322   2.900   0.787   2.924
 1463SOL    HW2 1323   2.855   0.671   2.819
 1464SOL     OW 1324   2.842   1.573   3.562
 1464SOL    HW1 1325   2.822   1.617   3.474
 1464SOL    HW2 1326   2.881   1.482   3.546
 1468SOL     OW 1327   3.165   0.838   1.904
 1468SOL    HW1 1328   3.199   0.745   1.919
 1468SOL    HW2 1329   3.183   0.865   1.809
 1469SOL     OW 1330   2.930   1.333   2.711
 1469SOL    HW1 1331   2.937   1.249   2.656
 1469SOL    HW2 1332   2.992   1.402   2.675
 1470SOL     OW 1333   2.181   0.810   2.811
 1470SOL    HW1 1334   2.274   0.846   2.816
 1470SOL    HW2 1335   2.175   0.725   2.863
 1471SOL     OW 1336   2.201   0.509   2.868
 1471SOL    HW1 1337   2.149   0.426   2.851
 1471SOL    HW2 1338   2.278   0.514   2.804
 1474SOL     OW 1339   1.870   1.326   2.062
 1474SOL    HW1 1340   1.777   1.347   2.031
 1474SOL    HW2 1341   1.880   1.227   2.075
 1475SOL     OW 1342   1.950   1.801   2.789
 1475SOL    HW1 1343   1.908   1.715   2.762
 1475SOL    HW2 1344   2.044   1.804   2.755
 1476SOL     OW 1345   2.366   1.568   2.772
 1476SOL    HW1 1346   2.432   1.642   2.781
 1476SOL    HW2 1347   2.410   1.489   2.730
 1481SOL     OW 1348   2.677   0.572   2.187
 1481SOL    HW1 1349   2.684   0.483   2.141
 1481SOL    HW2 1350   2.583   0.606   2.179
 1483SOL     OW 1351   2.114   1.564   3.606
 1483SOL    HW1 1352   2.084   1.621   3.682
 1483SOL    HW2 1353   2.107   1.467   3.632
 1485SOL     OW 1354   2.792   1.678   3.327
 1485SOL    HW1 1355   2.768   1.660   3.232
 1485SOL    HW2 1356   2.822   1.772   3.337
 1486SOL     OW 1357   2.335   0.500   2.053
 1486SOL    HW1 1358   2.396   0.580   2.057
 1486SOL    HW2 1359   2.240   0.531   2.060
 1487SOL     OW 1360   2.021   1.137   3.328
 1487SOL    HW1 1361   2.043   1.076   3.404
 1487SOL    HW2 1362   2.031   1.088   3.242
 1488SOL     OW 1363   3.209   1.059   3.096
 1488SOL    HW1 1364   3.233   0.996   3.022
 1488SOL    HW2 1365   3.119   1.099   3.078
 1489SOL     OW 1366   3.164   0.855   2.171
 1489SOL    HW1 1367   3.078   0.824   2.213
 1489SOL    HW2 1368   3.160   0.841   2.072
 1490SOL     OW 1369   3.621   1.747   3.016
 1490SOL    HW1 1370   3.682   1.777   2.943
 1490SOL    HW2 1371   3.583   1.658   2.994
 1491SOL     OW 1372   3.114   1.731   2.990
 1491SOL    HW1 1373   3.198   1.736   2.936
 1491SOL    HW2 1374   3.091   1.635   3.008
 1492SOL     OW 1375   1.945   1.258   2.884
 1492SOL    HW1 1376   1.940   1.257   2.984
 1492SOL    HW2 1377   1.862   1.217   2.846
 1493SOL     OW 1378   2.550   1.662   3.578
 1493SOL    HW1 1379   2.494   1.743   3.587
 1493SOL    HW2 1380   2.602   1.666   3.492
 1495SOL     OW 1381   3.250   1.573   2.339
 1495SOL    HW1 1382   3.317   1.585   2.265
 1495SOL    HW2 1383   3.210   1.662   2.362
 1496SOL     OW 1384   1.992   1.794   3.713
 1496SOL    HW1 1385   1.951   1.720   3.766
 1496SOL    HW2 1386   2.056   1.845   3.771
 1497SOL     OW 1387   3.142   0.927   2.534
 1497SOL    HW1 1388   3.202   0.846   2.536
 1497SOL    HW2 1389   3.182   0.996   2.474
 1498SOL     OW 1390   2.692   1.273   3.284
 1498SOL    HW1 1391   2.687   1.306   3.379
 1498SOL    HW2 1392   2.606   1.292   3.238
 1499SOL     OW 1393   2.534   1.616   2.016
 1499SOL    HW1 1394   2.543   1.626   1.917
 1499SOL    HW2 1395   2.494   1.527   2.037
 1503SOL     OW 1396   3.056   1.612   1.893
 1503SOL    HW1 1397   3.062   1.519   1.930
 1503SOL    HW2 1398   2.997   1.612   1.813
 1504SOL     OW 1399   2.684   1.002   3.234
 1504SOL    HW1 1400   2.724   1.001   3.142
 1504SOL    HW2 1401   2.694   1.094   3.274
 1505SOL     OW 1402   2.778   0.910   2.153
 1505SOL    HW1 1403   2.841   0.948   2.085
 1505SOL    HW2 1404   2.818   0.827   2.192
 1506SOL     OW 1405   3.366   1.607   1.906
 1506SOL    HW1 1406   3.274   1.644   1.913
 1506SOL    HW2 1407   3.404   1.627   1.816
 1507SOL     OW 1408   2.234   1.288   3.352
 1507SOL    HW1 1409   2.221   1.381   3.318
 1507SOL    HW2 1410   2.150   1.236   3.339
 1509SOL     OW 1411   2.901   1.098   2.558
 1509SOL    HW1 1412   2.831   1.051   2.612
 1509SOL    HW2 1413   2.960   1.030   2.515
 1511SOL     OW 1414   2.452   1.487   2.353
 1511SOL    HW1 1415   2.494   1.429   2.283
 1511SOL    HW2 1416   2.408   1.566   2.309
 1513SOL     OW 1417   2.117   1.348   2.152
 1513SOL    HW1 1418   2.021   1.349   2.125
 1513SOL    HW2 1419   2.129   1.401   2.236
 1519SOL     OW 1420   3.045   1.335   1.981
 1519SOL    HW1 1421   2.946   1.324   1.983
 1519SOL    HW2 1422   3.079   1.350   2.074
 1520SOL     OW 1423   2.475   0.842   3.293
 1520SOL    HW1 1424   2.531   0.923   3.276
 1520SOL    HW2 1425   2.534   0.762   3.296
 1521SOL     OW 1426   3.355   1.767   2.821
 1521SOL    HW1 1427   3.388   1.831   2.752
 1521SOL    HW2 1428   3.421   1.761   2.896
 1524SOL     OW 1429   2.252   1.741   3.422
 1524SOL    HW1 1430   2.161   1.782   3.420
 1524SOL    HW2 1431   2.245   1.647   3.454
 1527SOL     OW 1432   2.456   0.745   2.514
 1527SOL    HW1 1433   2.506   0.830   2.495
 1527SOL    HW2 1434   2.368   0.747   2.466
 1530SOL     OW 1435   2.721   1.374   1.878
 1530SOL    HW1 1436   2.675   1.389   1.966
 1530SOL    HW2 1437   2.765   1.459   1.848
 1531SOL     OW 1438   2.523   1.790   2.815
 1531SOL    HW1 1439   2.477   1.878   2.802
 1531SOL    HW2 1440   2.622   1.802   2.808
 1532SOL     OW 1441   2.721   0.956   2.723
 1532SOL    HW1 1442   2.775   0.887   2.771
 1532SOL    HW2 1443   2.689   1.025   2.789
 1533SOL     OW 1444   2.945   0.984   1.949
 1533SOL    HW1 1445   2.922   1.037   1.867
 1533SOL    HW2 1446   3.026   0.928   1.930
 1534SOL     OW 1447   3.723   1.569   2.713
 1534SOL    HW1 1448   3.652   1.557   2.643
 1534SOL    HW2 1449   3.724   1.490   2.773
 1535SOL     OW 1450   2.083   1.314   3.706
 1535SOL    HW1 1451   2.018   1.241   3.685
 1535SOL    HW2 1452   2.087   1.328   3.804
 1536SOL     OW 1453   1.941   1.240   2.515
 1536SOL    HW1 1454   1.940   1.193   2.603
 1536SOL    HW2 1455   2.023   1.212   2.464
 1537SOL     OW 1456   2.534   1.391   3.486
 1537SOL    HW1 1457   2.456   1.341   3.524
 1537SOL    HW2 1458   2.531   1.486   3.517
 1539SOL     OW 1459   2.290   0.424   2.382
 1539SOL    HW1 1460   2.320   0.352   2.320
 1539SOL    HW2 1461   2.251   0.384   2.465
 1540SOL     OW 1462   3.567   1.487   2.966
 1540SOL    HW1 1463   3.474   1.462   2.939
 1540SOL    HW2 1464   3.593   1.437   3.048
 1542SOL     OW 1465   2.674   1.586   2.549
 1542SOL    HW1 1466   2.706   1.596   2.455
 1542SOL    HW2 1467   2.595   1.524   2.551
 1545SOL     OW 1468   2.632   1.330   2.163
 1545SOL    HW1 1469   2.586   1.243   2.180
 1545SOL    HW2 1470   2.723   1.327   2.204
 1546SOL     OW 1471   2.480   1.567   3.146
 1546SOL    HW1 1472   2.475   1.649   3.203
 1546SOL    HW2 1473   2.569   1.564   3.101
 1550SOL     OW 1474   1.901   1.077   2.162
 1550SOL    HW1 1475   2.000   1.066   2.153
 1550SOL    HW2 1476   1.861   0.991   2.194
 1551SOL     OW 1477   2.737   1.646   2.199
 1551SOL    HW1 1478   2.660   1.611   2.145
 1551SOL    HW2 1479   2.705   1.717   2.261
 1558SOL     OW 1480   1.889   1.596   3.841
 1558SOL    HW1 1481   1.870   1.500   3.862
 1558SOL    HW2 1482   1.856   1.654   3.916
 1614SOL     OW 1483   2.087   2.137   0.996
 1614SOL    HW1 1484   2.122   2.120   1.088
 1614SOL    HW2 1485   1.999   2.092   0.984
 1615SOL     OW 1486   1.881   2.230   0.647
 1615SOL    HW1 1487   1.799   2.273   0.686
 1615SOL    HW2 1488   1.853   2.157   0.584
 1616SOL     OW 1489   2.431   3.137   1.165
 1616SOL    HW1 1490   2.338   3.130   1.128
 1616SOL    HW2 1491   2.442   3.226   1.209
 1618SOL     OW 1492   2.997   2.565   0.717
 1618SOL    HW1 1493   3.054   2.643   0.692
 1618SOL    HW2 1494   2.937   2.591   0.793
 1620SOL     OW 1495   2.630   3.006   1.023
 1620SOL    HW1 1496   2.552   3.023   1.083
 1620SOL    HW2 1497   2.664   3.093   0.987
 1621SOL     OW 1498   2.712   2.660   1.823
 1621SOL    HW1 1499   2.708   2.736   1.888
 1621SOL    HW2 1500   2.734   2.696   1.732
 1622SOL     OW 1501   2.547   2.874   0.665
 1622SOL    HW1 1502   2.616   2.858   0.735
 1622SOL    HW2 1503   2.474   2.931   0.703
 1623SOL     OW 1504   2.548   3.023   1.803
 1623SOL    HW1 1505   2.608   3.102   1.817
 1623SOL    HW2 1506   2.462   3.054   1.762
 1624SOL     OW 1507   2.197   3.297   1.061
 1624SOL    HW1 1508   2.119   3.266   1.008
 1624SOL    HW2 1509   2.255   3.355   1.004
 1626SOL     OW 1510   2.300   2.254   1.499
 1626SOL    HW1 1511   2.382   2.198   1.508
 1626SOL    HW2 1512   2.219   2.196   1.503
 1629SOL     OW 1513   2.989   3.203   1.690
 1629SOL    HW1 1514   3.036   3.203   1.778
 1629SOL    HW2 1515   2.941   3.116   1.679
 1631SOL     OW 1516   2.102   2.953   0.886
 1631SOL    HW1 1517   2.116   2.869   0.938
 1631SOL    HW2 1518   2.047   3.017   0.941
 1632SOL     OW 1519   2.482   3.648   1.439
 1632SOL    HW1 1520   2.390   3.631   1.474
 1632SOL    HW2 1521   2.510   3.740   1.465
 1634SOL     OW 1522   3.456   1.976   1.480
 1634SOL    HW1 1523   3.438   2.043   1.408
 1634SOL    HW2 1524   3.453   2.022   1.569
 1635SOL     OW 1525   1.984   2.505   0.563
 1635SOL    HW1 1526   1.939   2.417   0.580
 1635SOL    HW2 1527   1.983   2.559   0.647
 1640SOL     OW 1528   1.975   2.599   1.597
 1640SOL    HW1 1529   2.063   2.586   1.642
 1640SOL    HW2 1530   1.962   2.696   1.575
 1642SOL     OW 1531   3.155   3.090   1.423
 1642SOL    HW1 1532   3.192   3.017   1.365
 1642SOL    HW2 1533   3.207   3.095   1.508
 1643SOL     OW 1534   2.671   1.866   0.502
 1643SOL    HW1 1535   2.711   1.957   0.493
 1643SOL    HW2 1536   2.571   1.874   0.508
 1644SOL     OW 1537   2.059   2.838   1.264
 1644SOL    HW1 1538   2.148   2.793   1.250
 1644SOL    HW2 1539   1.986   2.773   1.245
 1647SOL     OW 1540   2.179   2.113   1.801
 1647SOL    HW1 1541   2.250   2.184   1.807
 1647SOL    HW2 1542   2.091   2.152   1.829
 1651SOL     OW 1543   3.143   2.207   0.944
 1651SOL    HW1 1544   3.057   2.157   0.931
 1651SOL    HW2 1545   3.205   2.153   1.000
 1653SOL     OW 1546   2.669   2.467   1.465
 1653SOL    HW1 1547   2.622   2.464   1.554
 1653SOL    HW2 1548   2.618   2.412   1.399
 1654SOL     OW 1549   3.256   2.331   1.674
 1654SOL    HW1 1550   3.236   2.374   1.762
 1654SOL    HW2 1551   3.334   2.269   1.683
 1655SOL     OW 1552   2.835   2.752   1.572
 1655SOL    HW1 1553   2.881   2.668   1.543
 1655SOL    HW2 1554   2.779   2.786   1.497
 1656SOL     OW 1555   2.853   2.272   1.242
 1656SOL    HW1 1556   2.776   2.306   1.296
 1656SOL    HW2 1557   2.819   2.221   1.163
 1658SOL     OW 1558   1.938   2.673   0.789
 1658SOL    HW1 1559   2.037   2.661   0.798
 1658SOL    HW2 1560   1.914   2.768   0.810
 1659SOL     OW 1561   1.992   3.683   1.571
 1659SOL    HW1 1562   1.982   3.668   1.670
 1659SOL    HW2 1563   1.906   3.719   1.535
 1661SOL     OW 1564   3.581   2.447   1.831
 1661SOL    HW1 1565   3.555   2.536   1.795
 1661SOL    HW2 1566   3.579   2.379   1.758
 1663SOL     OW 1567   2.412   2.058   0.885
 1663SOL    HW1 1568   2.407   2.053   0.985
 1663SOL    HW2 1569   2.414   2.154   0.856
 1667SOL     OW 1570   3.089   3.412   1.506
 1667SOL    HW1 1571   3.095   3.335   1.570
 1667SOL    HW2 1572   3.037   3.386   1.426
 1670SOL     OW 1573   2.323   3.128   1.727
 1670SOL    HW1 1574   2.273   3.129   1.641
 1670SOL    HW2 1575   2.260   3.110   1.803
 1672SOL     OW 1576   2.064   2.147   1.498
 1672SOL    HW1 1577   1.984   2.207   1.485
 1672SOL    HW2 1578   2.054   2.098   1.584
 1676SOL     OW 1579   2.111   3.647   1.241
 1676SOL    HW1 1580   2.168   3.582   1.291
 1676SOL    HW2 1581   2.095   3.614   1.148
 1678SOL     OW 1582   2.244   2.562   0.480
 1678SOL    HW1 1583   2.289   2.472   0.477
 1678SOL    HW2 1584   2.150   2.551   0.513
 1679SOL     OW 1585   3.409   2.084   1.729
 1679SOL    HW1 1586   3.404   2.121   1.821
 1679SOL    HW2 1587   3.337   2.015   1.717
 1681SOL     OW 1588   2.643   2.126   1.749
 1681SOL    HW1 1589   2.710   2.065   1.792
 1681SOL    HW2 1590   2.570   2.145   1.814
 1682SOL     OW 1591   2.750   3.376   1.195
 1682SOL    HW1 1592   2.727   3.351   1.101
 1682SOL    HW2 1593   2.811   3.307   1.234
 1683SOL     OW 1594   3.213   2.452   1.433
 1683SOL    HW1 1595   3.241   2.409   1.518
 1683SOL    HW2 1596   3.238   2.548   1.434
 1684SOL     OW 1597   2.665   3.264   0.924
 1684SOL    HW1 1598   2.755   3.278   0.882
 1684SOL    HW2 1599   2.594   3.266   0.853
 1685SOL     OW 1600   2.784   2.365   0.899
 1685SOL    HW1 1601   2.759   2.356   0.803
 1685SOL    HW2 1602   2.832   2.283   0.930
 1686SOL     OW 1603   2.401   1.926   0.512
 1686SOL    HW1 1604   2.320   1.927   0.570
 1686SOL    HW2 1605   2.404   2.009   0.457
 1689SOL     OW 1606   2.797   2.098   0.480
 1689SOL    HW1 1607   2.749   2.139   0.402
 1689SOL    HW2 1608   2.896   2.096   0.461
 1690SOL     OW 1609   2.938   2.545   1.464
 1690SOL    HW1 1610   2.858   2.484   1.467
 1690SOL    HW2 1611   3.019   2.492   1.440
 1692SOL     OW 1612   2.321   3.014   0.741
 1692SOL    HW1 1613   2.250   2.987   0.806
 1692SOL    HW2 1614   2.295   2.986   0.648
 1695SOL     OW 1615   1.940   2.418   1.386
 1695SOL    HW1 1616   2.032   2.417   1.345
 1695SOL    HW2 1617   1.934   2.492   1.453
 1696SOL     OW 1618   2.423   2.084   1.147
 1696SOL    HW1 1619   2.461   2.000   1.184
 1696SOL    HW2 1620   2.335   2.103   1.191
 1697SOL     OW 1621   2.728   2.316   0.642
 1697SOL    HW1 1622   2.696   2.388   0.580
 1697SOL    HW2 1623   2.752   2.235   0.589
 1698SOL     OW 1624   2.879   1.901   0.753
 1698SOL    HW1 1625   2.807   1.906   0.684
 1698SOL    HW2 1626   2.855   1.832   0.822
 1700SOL     OW 1627   3.328   2.452   0.992
 1700SOL    HW1 1628   3.298   2.357   0.999
 1700SOL    HW2 1629   3.401   2.468   1.058
 1707SOL     OW 1630   2.926   3.209   1.340
 1707SOL    HW1 1631   2.846   3.186   1.395
 1707SOL    HW2 1632   3.009   3.183   1.389
 1709SOL     OW 1633   2.973   3.057   1.100
 1709SOL    HW1 1634   2.933   3.101   1.181
 1709SOL    HW2 1635   2.932   3.094   1.017
 1711SOL     OW 1636   2.777   1.951   1.402
 1711SOL    HW1 1637   2.802   1.931   1.307
 1711SOL    HW2 1638   2.849   2.007   1.444
 1712SOL     OW 1639   2.842   2.978   1.719
 1712SOL    HW1 1640   2.743   2.984   1.729
 1712SOL    HW2 1641   2.865   2.898   1.663
 1714SOL     OW 1642   2.272   2.675   1.251
 1714SOL    HW1 1643   2.358   2.687   1.301
 1714SOL    HW2 1644   2.230   2.588   1.278
 1715SOL     OW 1645   3.136   2.248   1.262
 1715SOL    HW1 1646   3.157   2.322   1.326
 1715SOL    HW2 1647   3.047   2.265   1.219
 1716SOL     OW 1648   1.926   3.426   1.331
 1716SOL    HW1 1649   1.880   3.508   1.297
 1716SOL    HW2 1650   2.024   3.445   1.340
 1718SOL     OW 1651   2.428   2.399   0.865
 1718SOL    HW1 1652   2.440   2.465   0.791
 1718SOL    HW2 1653   2.474   2.433   0.948
 1722SOL     OW 1654   2.216   3.372   1.329
 1722SOL    HW1 1655   2.195   3.328   1.242
 1722SOL    HW2 1656   2.313   3.398   1.332
 1723SOL     OW 1657   2.264   2.613   1.598
 1723SOL    HW1 1658   2.332   2.668   1.551
 1723SOL    HW2 1659   2.304   2.525   1.625
 1724SOL     OW 1660   3.449   2.641   1.670
 1724SOL    HW1 1661   3.357   2.679   1.665
 1724SOL    HW2 1662   3.509   2.688   1.605
 1725SOL     OW 1663   2.875   1.967   1.770
 1725SOL    HW1 1664   2.881   2.052   1.718
 1725SOL    HW2 1665   2.907   1.891   1.713
 1726SOL     OW 1666   2.366   1.912   1.740
 1726SOL    HW1 1667   2.324   1.855   1.670
 1726SOL    HW2 1668   2.300   1.981   1.772
 1727SOL     OW 1669   2.435   2.732   1.029
 1727SOL    HW1 1670   2.479   2.821   1.020
 1727SOL    HW2 1671   2.372   2.732   1.106
 1728SOL     OW 1672   3.222   2.724   1.045
 1728SOL    HW1 1673   3.147   2.724   0.979
 1728SOL    HW2 1674   3.259   2.632   1.054
 1730SOL     OW 1675   2.169   2.075   1.231
 1730SOL    HW1 1676   2.146   2.112   1.321
 1730SOL    HW2 1677   2.139   1.980   1.225
 1731SOL     OW 1678   1.899   3.172   1.282
 1731SOL    HW1 1679   1.952   3.123   1.350
 1731SOL    HW2 1680   1.921   3.270   1.287
 1732SOL     OW 1681   2.594   2.496   1.064
 1732SOL    HW1 1682   2.653   2.470   0.988
 1732SOL    HW2 1683   2.566   2.592   1.053
 1733SOL     OW 1684   3.590   2.797   1.854
 1733SOL    HW1 1685   3.544   2.790   1.765
 1733SOL    HW2 1686   3.528   2.841   1.920
 1734SOL     OW 1687   2.169   1.925   0.618
 1734SOL    HW1 1688   2.158   2.019   0.651
 1734SOL    HW2 1689   2.164   1.862   0.695
 1736SOL     OW 1690   2.885   2.628   0.966
 1736SOL    HW1 1691   2.900   2.649   1.062
 1736SOL    HW2 1692   2.855   2.533   0.957
 1737SOL     OW 1693   2.842   3.435   1.700
 1737SOL    HW1 1694   2.822   3.479   1.612
 1737SOL    HW2 1695   2.881   3.344   1.684
 1739SOL     OW 1696   2.212   2.760   1.804
 1739SOL    HW1 1697   2.288   2.804   1.852
 1739SOL    HW2 1698   2.247   2.713   1.722
 1743SOL     OW 1699   2.181   2.672   0.949
 1743SOL    HW1 1700   2.274   2.708   0.954
 1743SOL    HW2 1701   2.175   2.587   1.001
 1744SOL     OW 1702   2.201   2.371   1.006
 1744SOL    HW1 1703   2.149   2.288   0.989
 1744SOL    HW2 1704   2.278   2.376   0.942
 1745SOL     OW 1705   3.000   2.242   1.678
 1745SOL    HW1 1706   2.955   2.305   1.742
 1745SOL    HW2 1707   3.093   2.273   1.661
 1746SOL     OW 1708   3.022   2.069   1.477
 1746SOL    HW1 1709   3.022   2.133   1.554
 1746SOL    HW2 1710   3.050   2.117   1.394
 1749SOL     OW 1711   2.366   3.430   0.910
 1749SOL    HW1 1712   2.432   3.504   0.919
 1749SOL    HW2 1713   2.410   3.351   0.868
 1750SOL     OW 1714   2.864   2.658   1.238
 1750SOL    HW1 1715   2.905   2.626   1.324
 1750SOL    HW2 1716   2.768   2.631   1.235
 1751SOL     OW 1717   1.902   2.406   1.114
 1751SOL    HW1 1718   1.987   2.373   1.073
 1751SOL    HW2 1719   1.915   2.421   1.212
 1752SOL     OW 1720   2.051   2.382   1.722
 1752SOL    HW1 1721   2.110   2.342   1.652
 1752SOL    HW2 1722   1.993   2.453   1.681
 1753SOL     OW 1723   3.231   2.812   1.660
 1753SOL    HW1 1724   3.270   2.901   1.680
 1753SOL    HW2 1725   3.241   2.792   1.563
 1755SOL     OW 1726   3.519   2.466   1.206
 1755SOL    HW1 1727   3.481   2.397   1.268
 1755SOL    HW2 1728   3.601   2.430   1.162
 1756SOL     OW 1729   2.114   3.426   1.744
 1756SOL    HW1 1730   2.084   3.483   1.820
 1756SOL    HW2 1731   2.107   3.329   1.770
 1757SOL     OW 1732   2.533   2.326   1.269
 1757SOL    HW1 1733   2.499   2.237   1.239
 1757SOL    HW2 1734   2.559   2.380   1.189
 1758SOL     OW 1735   2.792   3.540   1.465
 1758SOL    HW1 1736   2.768   3.522   1.370
 1758SOL    HW2 1737   2.822   3.634   1.475
 1760SOL     OW 1738   2.021   2.999   1.466
 1760SOL    HW1 1739   2.043   2.938   1.542
 1760SOL    HW2 1740   2.031   2.950   1.380
 1761SOL     OW 1741   3.209   2.921   1.234
 1761SOL    HW1 1742   3.233   2.858   1.160
 1761SOL    HW2 1743   3.119   2.961   1.216
 1765SOL     OW 1744   1.945   3.120   1.022
 1765SOL    HW1 1745   1.940   3.119   1.122
 1765SOL    HW2 1746   1.862   3.079   0.984
 1766SOL     OW 1747   2.550   3.524   1.716
 1766SOL    HW1 1748   2.494   3.605   1.725
 1766SOL    HW2 1749   2.602   3.528   1.630
 1770SOL     OW 1750   1.992   3.656   1.851
 1770SOL    HW1 1751   1.951   3.582   1.904
 1770SOL    HW2 1752   2.056   3.707   1.909
 1772SOL     OW 1753   2.692   3.135   1.422
 1772SOL    HW1 1754   2.687   3.168   1.517
 1772SOL    HW2 1755   2.606   3.154   1.376
 1776SOL     OW 1756   2.125   2.188   0.720
 1776SOL    HW1 1757   2.046   2.239   0.686
 1776SOL    HW2 1758   2.116   2.173   0.818
 1778SOL     OW 1759   2.684   2.864   1.372
 1778SOL    HW1 1760   2.724   2.863   1.280
 1778SOL    HW2 1761   2.694   2.956   1.412
 1781SOL     OW 1762   2.234   3.150   1.490
 1781SOL    HW1 1763   2.221   3.243   1.456
 1781SOL    HW2 1764   2.150   3.098   1.477
 1784SOL     OW 1765   2.876   2.098   0.971
 1784SOL    HW1 1766   2.868   2.062   0.878
 1784SOL    HW2 1767   2.874   2.022   1.036
 1786SOL     OW 1768   3.571   2.247   1.381
 1786SOL    HW1 1769   3.644   2.316   1.385
 1786SOL    HW2 1770   3.599   2.172   1.322
 1788SOL     OW 1771   1.967   2.875   1.726
 1788SOL    HW1 1772   1.890   2.842   1.780
 1788SOL    HW2 1773   2.052   2.845   1.768
 1789SOL     OW 1774   2.534   2.065   1.489
 1789SOL    HW1 1775   2.624   2.049   1.449
 1789SOL    HW2 1776   2.542   2.070   1.588
 1791SOL     OW 1777   3.302   2.718   1.398
 1791SOL    HW1 1778   3.245   2.770   1.335
 1791SOL    HW2 1779   3.398   2.730   1.374
 1794SOL     OW 1780   2.475   2.704   1.431
 1794SOL    HW1 1781   2.531   2.785   1.414
 1794SOL    HW2 1782   2.534   2.624   1.434
 1796SOL     OW 1783   2.578   2.427   1.708
 1796SOL    HW1 1784   2.597   2.492   1.782
 1796SOL    HW2 1785   2.638   2.347   1.717
 1797SOL     OW 1786   3.312   3.082   1.633
 1797SOL    HW1 1787   3.303   3.072   1.732
 1797SOL    HW2 1788   3.408   3.075   1.607
 1798SOL     OW 1789   2.252   3.603   1.560
 1798SOL    HW1 1790   2.161   3.644   1.558
 1798SOL    HW2 1791   2.245   3.509   1.592
 1799SOL     OW 1792   3.536   2.745   1.254
 1799SOL    HW1 1793   3.509   2.656   1.217
 1799SOL    HW2 1794   3.537   2.813   1.181
 1801SOL     OW 1795   2.456   2.607   0.652
 1801SOL    HW1 1796   2.506   2.692   0.633
 1801SOL    HW2 1797   2.368   2.609   0.604
 1802SOL     OW 1798   3.639   2.204   1.642
 1802SOL    HW1 1799   3.622   2.235   1.548
 1802SOL    HW2 1800   3.555   2.167   1.680
 1803SOL     OW 1801   3.592   2.796   1.517
 1803SOL    HW1 1802   3.630   2.887   1.532
 1803SOL    HW2 1803   3.584   2.779   1.418
 1806SOL     OW 1804   2.721   2.818   0.861
 1806SOL    HW1 1805   2.775   2.749   0.909
 1806SOL    HW2 1806   2.689   2.887   0.927
 1809SOL     OW 1807   2.083   3.176   1.844
 1809SOL    HW1 1808   2.018   3.103   1.823
 1809SOL    HW2 1809   2.087   3.190   1.942
 1810SOL     OW 1810   1.941   3.102   0.653
 1810SOL    HW1 1811   1.940   3.055   0.741
 1810SOL    HW2 1812   2.023   3.074   0.602
 1811SOL     OW 1813   2.534   3.253   1.624
 1811SOL    HW1 1814   2.456   3.203   1.662
 1811SOL    HW2 1815   2.531   3.348   1.655
 1812SOL     OW 1816   3.686   2.054   1.227
 1812SOL    HW1 1817   3.682   1.964   1.271
 1812SOL    HW2 1818   3.689   2.043   1.128
 1813SOL     OW 1819   2.290   2.286   0.520
 1813SOL    HW1 1820   2.320   2.214   0.458
 1813SOL    HW2 1821   2.251   2.246   0.603
 1815SOL     OW 1822   2.179   2.409   1.280
 1815SOL    HW1 1823   2.217   2.350   1.352
 1815SOL    HW2 1824   2.219   2.383   1.192
 1817SOL     OW 1825   3.286   2.076   1.112
 1817SOL    HW1 1826   3.338   2.011   1.167
 1817SOL    HW2 1827   3.237   2.139   1.173
 1818SOL     OW 1828   2.863   1.896   1.154
 1818SOL    HW1 1829   2.800   1.824   1.123
 1818SOL    HW2 1830   2.956   1.860   1.154
 1820SOL     OW 1831   2.480   3.429   1.284
 1820SOL    HW1 1832   2.475   3.511   1.341
 1820SOL    HW2 1833   2.569   3.426   1.239
 1822SOL     OW 1834   3.162   2.315   0.691
 1822SOL    HW1 1835   3.103   2.395   0.695
 1822SOL    HW2 1836   3.177   2.280   0.784
 1826SOL     OW 1837   2.092   2.490   1.975
 1826SOL    HW1 1838   1.999   2.488   2.012
 1826SOL    HW2 1839   2.093   2.451   1.883
 1827SOL     OW 1840   2.087   2.137   2.858
 1827SOL    HW1 1841   2.122   2.120   2.950
 1827SOL    HW2 1842   1.999   2.092   2.846
 1828SOL     OW 1843   1.881   2.230   2.509
 1828SOL    HW1 1844   1.799   2.273   2.548
 1828SOL    HW2 1845   1.853   2.157   2.446
 1829SOL     OW 1846   2.431   3.137   3.027
 1829SOL    HW1 1847   2.338   3.130   2.990
 1829SOL    HW2 1848   2.442   3.226   3.071
 1831SOL     OW 1849   2.997   2.565   2.579
 1831SOL    HW1 1850   3.054   2.643   2.554
 1831SOL    HW2 1851   2.937   2.591   2.655
 1832SOL     OW 1852   3.617   2.469   2.093
 1832SOL    HW1 1853   3.605   2.456   1.994
 1832SOL    HW2 1854   3.587   2.388   2.142
 1833SOL     OW 1855   2.630   3.006   2.885
 1833SOL    HW1 1856   2.552   3.023   2.945
 1833SOL    HW2 1857   2.664   3.093   2.849
 1834SOL     OW 1858   2.712   2.660   3.685
 1834SOL    HW1 1859   2.708   2.736   3.750
 1834SOL    HW2 1860   2.734   2.696   3.594
 1835SOL     OW 1861   2.547   2.874   2.527
 1835SOL    HW1 1862   2.616   2.858   2.597
 1835SOL    HW2 1863   2.474   2.931   2.565
 1836SOL     OW 1864   2.548   3.023   3.665
 1836SOL    HW1 1865   2.608   3.102   3.679
 1836SOL    HW2 1866   2.462   3.054   3.624
 1837SOL     OW 1867   2.197   3.297   2.923
 1837SOL    HW1 1868   2.119   3.266   2.870
 1837SOL    HW2 1869   2.255   3.355   2.866
 1839SOL     OW 1870   2.300   2.254   3.361
 1839SOL    HW1 1871   2.382   2.198   3.370
 1839SOL    HW2 1872   2.219   2.196   3.365
 1840SOL     OW 1873   3.465   2.309   2.599
 1840SOL    HW1 1874   3.391   2.355   2.549
 1840SOL    HW2 1875   3.516   2.377   2.652
 1841SOL     OW 1876   2.093   3.575   2.345
 1841SOL    HW1 1877   2.127   3.652   2.399
 1841SOL    HW2 1878   2.137   3.575   2.255
 1843SOL     OW 1879   2.092   3.296   2.400
 1843SOL    HW1 1880   2.066   3.392   2.400
 1843SOL    HW2 1881   2.021   3.242   2.445
 1844SOL     OW 1882   2.102   2.953   2.748
 1844SOL    HW1 1883   2.116   2.869   2.800
 1844SOL    HW2 1884   2.047   3.017   2.803
 1846SOL     OW 1885   2.468   2.826   1.985
 1846SOL    HW1 1886   2.475   2.910   1.931
 1846SOL    HW2 1887   2.514   2.839   2.073
 1847SOL     OW 1888   3.456   1.976   3.342
 1847SOL    HW1 1889   3.438   2.043   3.270
 1847SOL    HW2 1890   3.453   2.022   3.431
 1848SOL     OW 1891   1.984   2.505   2.425
 1848SOL    HW1 1892   1.939   2.417   2.442
 1848SOL    HW2 1893   1.983   2.559   2.509
 1850SOL     OW 1894   1.889   3.458   1.979
 1850SOL    HW1 1895   1.870   3.362   2.000
 1850SOL    HW2 1896   1.856   3.516   2.054
 1851SOL     OW 1897   3.551   2.784   2.474
 1851SOL    HW1 1898   3.646   2.755   2.482
 1851SOL    HW2 1899   3.543   2.849   2.399
 1852SOL     OW 1900   3.503   2.970   2.294
 1852SOL    HW1 1901   3.589   2.972   2.242
 1852SOL    HW2 1902   3.517   3.017   2.382
 1853SOL     OW 1903   1.975   2.599   3.459
 1853SOL    HW1 1904   2.063   2.586   3.504
 1853SOL    HW2 1905   1.962   2.696   3.437
 1854SOL     OW 1906   2.475   3.227   2.588
 1854SOL    HW1 1907   2.426   3.140   2.597
 1854SOL    HW2 1908   2.452   3.270   2.501
 1855SOL     OW 1909   3.155   3.090   3.285
 1855SOL    HW1 1910   3.192   3.017   3.227
 1855SOL    HW2 1911   3.207   3.095   3.370
 1856SOL     OW 1912   2.671   1.866   2.364
 1856SOL    HW1 1913   2.711   1.957   2.355
 1856SOL    HW2 1914   2.571   1.874   2.370
 1857SOL     OW 1915   2.059   2.838   3.126
 1857SOL    HW1 1916   2.148   2.793   3.112
 1857SOL    HW2 1917   1.986   2.773   3.107
 1858SOL     OW 1918   3.387   2.861   2.052
 1858SOL    HW1 1919   3.324   2.785   2.065
 1858SOL    HW2 1920   3.435   2.879   2.138
 1860SOL     OW 1921   2.179   2.113   3.663
 1860SOL    HW1 1922   2.250   2.184   3.669
 1860SOL    HW2 1923   2.091   2.152   3.691
 1861SOL     OW 1924   3.328   3.279   2.815
 1861SOL    HW1 1925   3.269   3.285   2.895
 1861SOL    HW2 1926   3.313   3.191   2.769
 1863SOL     OW 1927   2.460   2.591   2.132
 1863SOL    HW1 1928   2.484   2.660   2.064
 1863SOL    HW2 1929   2.382   2.624   2.186
 1864SOL     OW 1930   3.143   2.207   2.806
 1864SOL    HW1 1931   3.057   2.157   2.793
 1864SOL    HW2 1932   3.205   2.153   2.862
 1866SOL     OW 1933   2.669   2.467   3.327
 1866SOL    HW1 1934   2.622   2.464   3.416
 1866SOL    HW2 1935   2.618   2.412   3.261
 1867SOL     OW 1936   3.256   2.331   3.536
 1867SOL    HW1 1937   3.236   2.374   3.624
 1867SOL    HW2 1938   3.334   2.269   3.545
 1868SOL     OW 1939   2.835   2.752   3.434
 1868SOL    HW1 1940   2.881   2.668   3.405
 1868SOL    HW2 1941   2.779   2.786   3.359
 1869SOL     OW 1942   2.853   2.272   3.104
 1869SOL    HW1 1943   2.776   2.306   3.158
 1869SOL    HW2 1944   2.819   2.221   3.025
 1870SOL     OW 1945   2.903   2.563   2.291
 1870SOL    HW1 1946   2.929   2.559   2.387
 1870SOL    HW2 1947   2.818   2.512   2.277
 1871SOL     OW 1948   1.938   2.673   2.651
 1871SOL    HW1 1949   2.037   2.661   2.660
 1871SOL    HW2 1950   1.914   2.768   2.672
 1873SOL     OW 1951   2.727   2.210   2.057
 1873SOL    HW1 1952   2.786   2.273   2.008
 1873SOL    HW2 1953   2.746   2.116   2.028
 1875SOL     OW 1954   3.224   3.006   2.407
 1875SOL    HW1 1955   3.307   2.977   2.359
 1875SOL    HW2 1956   3.175   3.073   2.351
 1876SOL     OW 1957   2.412   2.058   2.747
 1876SOL    HW1 1958   2.407   2.053   2.847
 1876SOL    HW2 1959   2.414   2.154   2.718
 1877SOL     OW 1960   2.870   3.318   2.339
 1877SOL    HW1 1961   2.824   3.390   2.287
 1877SOL    HW2 1962   2.866   3.338   2.437
 1878SOL     OW 1963   2.213   3.663   2.715
 1878SOL    HW1 1964   2.263   3.577   2.721
 1878SOL    HW2 1965   2.278   3.740   2.712
 1879SOL     OW 1966   3.657   2.928   2.735
 1879SOL    HW1 1967   3.595   2.913   2.659
 1879SOL    HW2 1968   3.605   2.939   2.820
 1881SOL     OW 1969   2.183   2.805   2.104
 1881SOL    HW1 1970   2.265   2.844   2.062
 1881SOL    HW2 1971   2.156   2.723   2.055
 1882SOL     OW 1972   3.320   2.597   2.590
 1882SOL    HW1 1973   3.315   2.532   2.665
 1882SOL    HW2 1974   3.400   2.656   2.603
 1883SOL     OW 1975   2.323   3.128   3.589
 1883SOL    HW1 1976   2.273   3.129   3.503
 1883SOL    HW2 1977   2.260   3.110   3.665
 1884SOL     OW 1978   2.973   3.638   2.099
 1884SOL    HW1 1979   2.913   3.576   2.149
 1884SOL    HW2 1980   3.004   3.594   2.014
 1885SOL     OW 1981   2.064   2.147   3.360
 1885SOL    HW1 1982   1.984   2.207   3.347
 1885SOL    HW2 1983   2.054   2.098   3.446
 1886SOL     OW 1984   3.494   3.239   1.943
 1886SOL    HW1 1985   3.462   3.333   1.933
 1886SOL    HW2 1986   3.418   3.176   1.931
 1887SOL     OW 1987   2.326   3.605   2.185
 1887SOL    HW1 1988   2.359   3.644   2.271
 1887SOL    HW2 1989   2.402   3.598   2.120
 1888SOL     OW 1990   3.262   1.969   2.288
 1888SOL    HW1 1991   3.238   1.932   2.198
 1888SOL    HW2 1992   3.361   1.985   2.292
 1889SOL     OW 1993   2.111   3.647   3.103
 1889SOL    HW1 1994   2.168   3.582   3.153
 1889SOL    HW2 1995   2.095   3.614   3.010
 1890SOL     OW 1996   2.802   3.560   2.766
 1890SOL    HW1 1997   2.882   3.503   2.787
 1890SOL    HW2 1998   2.753   3.520   2.689
 1891SOL     OW 1999   2.244   2.562   2.342
 1891SOL    HW1 2000   2.289   2.472   2.339
 1891SOL    HW2 2001   2.150   2.551   2.375
 1893SOL     OW 2002   2.476   1.984   1.979
 1893SOL    HW1 2003   2.574   1.962   1.986
 1893SOL    HW2 2004   2.445   1.967   1.886
 1894SOL     OW 2005   2.643   2.126   3.611
 1894SOL    HW1 2006   2.710   2.065   3.654
 1894SOL    HW2 2007   2.570   2.145   3.676
 1895SOL     OW 2008   2.750   3.376   3.057
 1895SOL    HW1 2009   2.727   3.351   2.963
 1895SOL    HW2 2010   2.811   3.307   3.096
 1896SOL     OW 2011   3.213   2.452   3.295
 1896SOL    HW1 2012   3.241   2.409   3.380
 1896SOL    HW2 2013   3.238   2.548   3.296
 1897SOL     OW 2014   2.665   3.264   2.786
 1897SOL    HW1 2015   2.755   3.278   2.744
 1897SOL    HW2 2016   2.594   3.266   2.715
 1898SOL     OW 2017   2.784   2.365   2.761
 1898SOL    HW1 2018   2.759   2.356   2.665
 1898SOL    HW2 2019   2.832   2.283   2.792
 1899SOL     OW 2020   2.401   1.926   2.374
 1899SOL    HW1 2021   2.320   1.927   2.432
 1899SOL    HW2 2022   2.404   2.009   2.319
 1900SOL     OW 2023   3.296   3.050   1.903
 1900SOL    HW1 2024   3.328   2.974   1.960
 1900SOL    HW2 2025   3.204   3.077   1.933
 1901SOL     OW 2026   2.797   2.098   2.342
 1901SOL    HW1 2027   2.749   2.139   2.264
 1901SOL    HW2 2028   2.896   2.096   2.323
 1902SOL     OW 2029   2.938   2.545   3.326
 1902SOL    HW1 2030   2.858   2.484   3.329
 1902SOL    HW2 2031   3.019   2.492   3.302
 1903SOL     OW 2032   3.089   3.432   2.655
 1903SOL    HW1 2033   3.110   3.506   2.590
 1903SOL    HW2 2034   3.157   3.432   2.728
 1904SOL     OW 2035   2.321   3.014   2.603
 1904SOL    HW1 2036   2.250   2.987   2.668
 1904SOL    HW2 2037   2.295   2.986   2.510
 1906SOL     OW 2038   2.894   2.411   1.878
 1906SOL    HW1 2039   2.853   2.493   1.839
 1906SOL    HW2 2040   2.958   2.437   1.951
 1907SOL     OW 2041   1.940   2.418   3.248
 1907SOL    HW1 2042   2.032   2.417   3.207
 1907SOL    HW2 2043   1.934   2.492   3.315
 1908SOL     OW 2044   2.423   2.084   3.009
 1908SOL    HW1 2045   2.461   2.000   3.046
 1908SOL    HW2 2046   2.335   2.103   3.053
 1909SOL     OW 2047   2.728   2.316   2.504
 1909SOL    HW1 2048   2.696   2.388   2.442
 1909SOL    HW2 2049   2.752   2.235   2.451
 1910SOL     OW 2050   2.879   1.901   2.615
 1910SOL    HW1 2051   2.807   1.906   2.546
 1910SOL    HW2 2052   2.855   1.832   2.684
 1911SOL     OW 2053   3.291   3.035   2.729
 1911SOL    HW1 2054   3.236   2.951   2.722
 1911SOL    HW2 2055   3.317   3.064   2.637
 1912SOL     OW 2056   3.328   2.452   2.854
 1912SOL    HW1 2057   3.298   2.357   2.861
 1912SOL    HW2 2058   3.401   2.468   2.920
 1913SOL     OW 2059   3.719   2.695   2.239
 1913SOL    HW1 2060   3.761   2.631   2.303
 1913SOL    HW2 2061   3.681   2.644   2.161
 1914SOL     OW 2062   2.350   3.247   2.036
 1914SOL    HW1 2063   2.263   3.232   2.083
 1914SOL    HW2 2064   2.333   3.273   1.941
 1915SOL     OW 2065   3.526   3.142   2.519
 1915SOL    HW1 2066   3.625   3.150   2.533
 1915SOL    HW2 2067   3.481   3.226   2.550
 1916SOL     OW 2068   3.252   2.437   1.940
 1916SOL    HW1 2069   3.198   2.416   2.021
 1916SOL    HW2 2070   3.343   2.396   1.949
 1918SOL     OW 2071   2.926   3.209   3.202
 1918SOL    HW1 2072   2.846   3.186   3.257
 1918SOL    HW2 2073   3.009   3.183   3.251
 1920SOL     OW 2074   2.973   3.057   2.962
 1920SOL    HW1 2075   2.933   3.101   3.043
 1920SOL    HW2 2076   2.932   3.094   2.879
 1921SOL     OW 2077   3.500   2.961   2.941
 1921SOL    HW1 2078   3.505   3.042   3.000
 1921SOL    HW2 2079   3.414   2.963   2.890
 1922SOL     OW 2080   2.777   1.951   3.264
 1922SOL    HW1 2081   2.802   1.931   3.169
 1922SOL    HW2 2082   2.849   2.007   3.306
 1923SOL     OW 2083   2.842   2.978   3.581
 1923SOL    HW1 2084   2.743   2.984   3.591
 1923SOL    HW2 2085   2.865   2.898   3.525
 1924SOL     OW 2086   2.567   2.912   2.230
 1924SOL    HW1 2087   2.553   2.919   2.329
 1924SOL    HW2 2088   2.651   2.861   2.212
 1925SOL     OW 2089   2.272   2.675   3.113
 1925SOL    HW1 2090   2.358   2.687   3.163
 1925SOL    HW2 2091   2.230   2.588   3.140
 1926SOL     OW 2092   3.136   2.248   3.124
 1926SOL    HW1 2093   3.157   2.322   3.188
 1926SOL    HW2 2094   3.047   2.265   3.081
 1927SOL     OW 2095   1.926   3.426   3.193
 1927SOL    HW1 2096   1.880   3.508   3.159
 1927SOL    HW2 2097   2.024   3.445   3.202
 1928SOL     OW 2098   2.229   2.962   2.363
 1928SOL    HW1 2099   2.222   3.045   2.307
 1928SOL    HW2 2100   2.233   2.882   2.303
 1929SOL     OW 2101   2.428   2.399   2.727
 1929SOL    HW1 2102   2.440   2.465   2.653
 1929SOL    HW2 2103   2.474   2.433   2.810
 1930SOL     OW 2104   3.114   3.210   2.250
 1930SOL    HW1 2105   3.164   3.287   2.290
 1930SOL    HW2 2106   3.019   3.212   2.282
 1931SOL     OW 2107   3.134   3.307   3.004
 1931SOL    HW1 2108   3.181   3.320   3.091
 1931SOL    HW2 2109   3.068   3.233   3.013
 1932SOL     OW 2110   3.444   2.501   2.334
 1932SOL    HW1 2111   3.413   2.562   2.407
 1932SOL    HW2 2112   3.494   2.553   2.265
 1933SOL     OW 2113   2.216   3.372   3.191
 1933SOL    HW1 2114   2.195   3.328   3.104
 1933SOL    HW2 2115   2.313   3.398   3.194
 1934SOL     OW 2116   2.264   2.613   3.460
 1934SOL    HW1 2117   2.332   2.668   3.413
 1934SOL    HW2 2118   2.304   2.525   3.487
 1936SOL     OW 2119   2.875   1.967   3.632
 1936SOL    HW1 2120   2.881   2.052   3.580
 1936SOL    HW2 2121   2.907   1.891   3.575
 1937SOL     OW 2122   2.366   1.912   3.602
 1937SOL    HW1 2123   2.324   1.855   3.532
 1937SOL    HW2 2124   2.300   1.981   3.634
 1938SOL     OW 2125   2.435   2.732   2.891
 1938SOL    HW1 2126   2.479   2.821   2.882
 1938SOL    HW2 2127   2.372   2.732   2.968
 1939SOL     OW 2128   3.222   2.724   2.907
 1939SOL    HW1 2129   3.147   2.724   2.841
 1939SOL    HW2 2130   3.259   2.632   2.916
 1940SOL     OW 2131   3.071   2.387   2.137
 1940SOL    HW1 2132   3.084   2.303   2.191
 1940SOL    HW2 2133   3.042   2.461   2.197
 1941SOL     OW 2134   2.169   2.075   3.093
 1941SOL    HW1 2135   2.146   2.112   3.183
 1941SOL    HW2 2136   2.139   1.980   3.087
 1942SOL     OW 2137   1.899   3.172   3.144
 1942SOL    HW1 2138   1.952   3.123   3.212
 1942SOL    HW2 2139   1.921   3.270   3.149
 1943SOL     OW 2140   2.594   2.496   2.926
 1943SOL    HW1 2141   2.653   2.470   2.850
 1943SOL    HW2 2142   2.566   2.592   2.915
 1945SOL     OW 2143   2.169   1.925   2.480
 1945SOL    HW1 2144   2.158   2.019   2.513
 1945SOL    HW2 2145   2.164   1.862   2.557
 1946SOL     OW 2146   3.484   2.229   2.236
 1946SOL    HW1 2147   3.486   2.153   2.300
 1946SOL    HW2 2148   3.436   2.306   2.276
 1947SOL     OW 2149   2.885   2.628   2.828
 1947SOL    HW1 2150   2.900   2.649   2.924
 1947SOL    HW2 2151   2.855   2.533   2.819
 1950SOL     OW 2152   2.212   2.760   3.666
 1950SOL    HW1 2153   2.288   2.804   3.714
 1950SOL    HW2 2154   2.247   2.713   3.584
 1951SOL     OW 2155   3.402   2.136   1.987
 1951SOL    HW1 2156   3.341   2.061   2.010
 1951SOL    HW2 2157   3.424   2.188   2.070
 1952SOL     OW 2158   3.165   2.700   1.904
 1952SOL    HW1 2159   3.199   2.607   1.919
 1952SOL    HW2 2160   3.183   2.727   1.809
 1953SOL     OW 2161   2.930   3.195   2.711
 1953SOL    HW1 2162   2.937   3.111   2.656
 1953SOL    HW2 2163   2.992   3.264   2.675
 1954SOL     OW 2164   2.181   2.672   2.811
 1954SOL    HW1 2165   2.274   2.708   2.816
 1954SOL    HW2 2166   2.175   2.587   2.863
 1955SOL     OW 2167   2.201   2.371   2.868
 1955SOL    HW1 2168   2.149   2.288   2.851
 1955SOL    HW2 2169   2.278   2.376   2.804
 1956SOL     OW 2170   3.000   2.242   3.540
 1956SOL    HW1 2171   2.955   2.305   3.604
 1956SOL    HW2 2172   3.093   2.273   3.523
 1957SOL     OW 2173   3.022   2.069   3.339
 1957SOL    HW1 2174   3.022   2.133   3.416
 1957SOL    HW2 2175   3.050   2.117   3.256
 1958SOL     OW 2176   1.870   3.188   2.062
 1958SOL    HW1 2177   1.777   3.209   2.031
 1958SOL    HW2 2178   1.880   3.089   2.075
 1959SOL     OW 2179   1.950   3.663   2.789
 1959SOL    HW1 2180   1.908   3.577   2.762
 1959SOL    HW2 2181   2.044   3.666   2.755
 1960SOL     OW 2182   2.366   3.430   2.772
 1960SOL    HW1 2183   2.432   3.504   2.781
 1960SOL    HW2 2184   2.410   3.351   2.730
 1961SOL     OW 2185   2.864   2.658   3.100
 1961SOL    HW1 2186   2.905   2.626   3.186
 1961SOL    HW2 2187   2.768   2.631   3.097
 1962SOL     OW 2188   1.902   2.406   2.976
 1962SOL    HW1 2189   1.987   2.373   2.935
 1962SOL    HW2 2190   1.915   2.421   3.074
 1963SOL     OW 2191   2.051   2.382   3.584
 1963SOL    HW1 2192   2.110   2.342   3.514
 1963SOL    HW2 2193   1.993   2.453   3.543
 1965SOL     OW 2194   2.677   2.434   2.187
 1965SOL    HW1 2195   2.684   2.345   2.141
 1965SOL    HW2 2196   2.583   2.468   2.179
 1966SOL     OW 2197   3.519   2.466   3.068
 1966SOL    HW1 2198   3.481   2.397   3.130
 1966SOL    HW2 2199   3.601   2.430   3.024
 1968SOL     OW 2200   2.533   2.326   3.131
 1968SOL    HW1 2201   2.499   2.237   3.101
 1968SOL    HW2 2202   2.559   2.380   3.051
 1970SOL     OW 2203   2.021   2.999   3.328
 1970SOL    HW1 2204   2.043   2.938   3.404
 1970SOL    HW2 2205   2.031   2.950   3.242
 1971SOL     OW 2206   3.209   2.921   3.096
 1971SOL    HW1 2207   3.233   2.858   3.022
 1971SOL    HW2 2208   3.119   2.961   3.078
 1972SOL     OW 2209   3.164   2.717   2.171
 1972SOL    HW1 2210   3.078   2.686   2.213
 1972SOL    HW2 2211   3.160   2.703   2.072
 1975SOL     OW 2212   1.945   3.120   2.884
 1975SOL    HW1 2213   1.940   3.119   2.984
 1975SOL    HW2 2214   1.862   3.079   2.846
 1977SOL     OW 2215   3.588   1.997   2.385
 1977SOL    HW1 2216   3.661   1.980   2.318
 1977SOL    HW2 2217   3.557   1.910   2.423
 1978SOL     OW 2218   3.250   3.435   2.339
 1978SOL    HW1 2219   3.317   3.447   2.265
 1978SOL    HW2 2220   3.210   3.524   2.362
 1980SOL     OW 2221   3.142   2.789   2.534
 1980SOL    HW1 2222   3.202   2.708   2.536
 1980SOL    HW2 2223   3.182   2.858   2.474
 1981SOL     OW 2224   2.692   3.135   3.284
 1981SOL    HW1 2225   2.687   3.168   3.379
 1981SOL    HW2 2226   2.606   3.154   3.238
 1982SOL     OW 2227   2.534   3.478   2.016
 1982SOL    HW1 2228   2.543   3.488   1.917
 1982SOL    HW2 2229   2.494   3.389   2.037
 1984SOL     OW 2230   3.703   2.037   2.825
 1984SOL    HW1 2231   3.742   1.952   2.789
 1984SOL    HW2 2232   3.605   2.039   2.806
 1985SOL     OW 2233   2.125   2.188   2.582
 1985SOL    HW1 2234   2.046   2.239   2.548
 1985SOL    HW2 2235   2.116   2.173   2.680
 1986SOL     OW 2236   3.056   3.474   1.893
 1986SOL    HW1 2237   3.062   3.381   1.930
 1986SOL    HW2 2238   2.997   3.474   1.813
 1987SOL     OW 2239   2.684   2.864   3.234
 1987SOL    HW1 2240   2.724   2.863   3.142
 1987SOL    HW2 2241   2.694   2.956   3.274
 1988SOL     OW 2242   2.778   2.772   2.153
 1988SOL    HW1 2243   2.841   2.810   2.085
 1988SOL    HW2 2244   2.818   2.689   2.192
 1990SOL     OW 2245   2.234   3.150   3.352
 1990SOL    HW1 2246   2.221   3.243   3.318
 1990SOL    HW2 2247   2.150   3.098   3.339
 1992SOL     OW 2248   2.901   2.960   2.558
 1992SOL    HW1 2249   2.831   2.913   2.612
 1992SOL    HW2 2250   2.960   2.892   2.515
 1993SOL     OW 2251   2.876   2.098   2.833
 1993SOL    HW1 2252   2.868   2.062   2.740
 1993SOL    HW2 2253   2.874   2.022   2.898
 1994SOL     OW 2254   2.452   3.349   2.353
 1994SOL    HW1 2255   2.494   3.291   2.283
 1994SOL    HW2 2256   2.408   3.428   2.309
 1995SOL     OW 2257   3.571   2.247   3.243
 1995SOL    HW1 2258   3.644   2.316   3.247
 1995SOL    HW2 2259   3.599   2.172   3.184
 1996SOL     OW 2260   2.117   3.210   2.152
 1996SOL    HW1 2261   2.021   3.211   2.125
 1996SOL    HW2 2262   2.129   3.263   2.236
 1997SOL     OW 2263   1.967   2.875   3.588
 1997SOL    HW1 2264   1.890   2.842   3.642
 1997SOL    HW2 2265   2.052   2.845   3.630
 1998SOL     OW 2266   2.534   2.065   3.351
 1998SOL    HW1 2267   2.624   2.049   3.311
 1998SOL    HW2 2268   2.542   2.070   3.450
 1999SOL     OW 2269   1.937   2.207   1.895
 1999SOL    HW1 2270   1.845   2.179   1.866
 1999SOL    HW2 2271   1.968   2.284   1.839
 2000SOL     OW 2272   3.302   2.718   3.260
 2000SOL    HW1 2273   3.245   2.770   3.197
 2000SOL    HW2 2274   3.398   2.730   3.236
 2001SOL     OW 2275   1.934   2.028   2.180
 2001SOL    HW1 2276   1.917   2.111   2.126
 2001SOL    HW2 2277   2.024   1.991   2.158
 2002SOL     OW 2278   3.045   3.197   1.981
 2002SOL    HW1 2279   2.946   3.186   1.983
 2002SOL    HW2 2280   3.079   3.212   2.074
 2003SOL     OW 2281   2.475   2.704   3.293
 2003SOL    HW1 2282   2.531   2.785   3.276
 2003SOL    HW2 2283   2.534   2.624   3.296
 2005SOL     OW 2284   2.578   2.427   3.570
 2005SOL    HW1 2285   2.597   2.492   3.644
 2005SOL    HW2 2286   2.638   2.347   3.579
 2008SOL     OW 2287   3.536   2.745   3.116
 2008SOL    HW1 2288   3.509   2.656   3.079
 2008SOL    HW2 2289   3.537   2.813   3.043
 2009SOL     OW 2290   3.087   2.187   2.311
 2009SOL    HW1 2291   3.152   2.113   2.300
 2009SOL    HW2 2292   3.107   2.237   2.395
 2010SOL     OW 2293   2.456   2.607   2.514
 2010SOL    HW1 2294   2.506   2.692   2.495
 2010SOL    HW2 2295   2.368   2.609   2.466
 2013SOL     OW 2296   2.721   3.236   1.878
 2013SOL    HW1 2297   2.675   3.251   1.966
 2013SOL    HW2 2298   2.765   3.321   1.848
 2014SOL     OW 2299   2.523   3.652   2.815
 2014SOL    HW1 2300   2.477   3.740   2.802
 2014SOL    HW2 2301   2.622   3.664   2.808
 2015SOL     OW 2302   2.721   2.818   2.723
 2015SOL    HW1 2303   2.775   2.749   2.771
 2015SOL    HW2 2304   2.689   2.887   2.789
 2016SOL     OW 2305   2.945   2.846   1.949
 2016SOL    HW1 2306   2.922   2.899   1.867
 2016SOL    HW2 2307   3.026   2.790   1.930
 2019SOL     OW 2308   1.941   3.102   2.515
 2019SOL    HW1 2309   1.940   3.055   2.603
 2019SOL    HW2 2310   2.023   3.074   2.464
 2020SOL     OW 2311   2.534   3.253   3.486
 2020SOL    HW1 2312   2.456   3.203   3.524
 2020SOL    HW2 2313   2.531   3.348   3.517
 2021SOL     OW 2314   3.686   2.054   3.089
 2021SOL    HW1 2315   3.682   1.964   3.133
 2021SOL    HW2 2316   3.689   2.043   2.990
 2023SOL     OW 2317   2.179   2.409   3.142
 2023SOL    HW1 2318   2.217   2.350   3.214
 2023SOL    HW2 2319   2.219   2.383   3.054
 2024SOL     OW 2320   2.674   3.448   2.549
 2024SOL    HW1 2321   2.706   3.458   2.455
 2024SOL    HW2 2322   2.595   3.386   2.551
 2025SOL     OW 2323   3.286   2.076   2.974
 2025SOL    HW1 2324   3.338   2.011   3.029
 2025SOL    HW2 2325   3.237   2.139   3.035
 2026SOL     OW 2326   2.863   1.896   3.016
 2026SOL    HW1 2327   2.800   1.824   2.985
 2026SOL    HW2 2328   2.956   1.860   3.016
 2027SOL     OW 2329   2.632   3.192   2.163
 2027SOL    HW1 2330   2.586   3.105   2.180
 2027SOL    HW2 2331   2.723   3.189   2.204
 2028SOL     OW 2332   2.480   3.429   3.146
 2028SOL    HW1 2333   2.475   3.511   3.203
 2028SOL    HW2 2334   2.569   3.426   3.101
 2029SOL     OW 2335   3.214   1.914   2.030
 2029SOL    HW1 2336   3.249   1.873   1.946
 2029SOL    HW2 2337   3.124   1.876   2.050
 2030SOL     OW 2338   3.162   2.315   2.553
 2030SOL    HW1 2339   3.103   2.395   2.557
 2030SOL    HW2 2340   3.177   2.280   2.646
 2031SOL     OW 2341   3.455   2.083   2.744
 2031SOL    HW1 2342   3.371   2.082   2.798
 2031SOL    HW2 2343   3.457   2.166   2.688
 2032SOL     OW 2344   1.901   2.939   2.162
 2032SOL    HW1 2345   2.000   2.928   2.153
 2032SOL    HW2 2346   1.861   2.853   2.194
 2033SOL     OW 2347   2.737   3.508   2.199
 2033SOL    HW1 2348   2.660   3.473   2.145
 2033SOL    HW2 2349   2.705   3.579   2.261
 2034SOL     OW 2350   2.092   2.490   3.837
 2034SOL    HW1 2351   1.999   2.488   3.874
 2034SOL    HW2 2352   2.093   2.451   3.745
 2054SOL     OW 2353   2.476   1.984   3.841
 2054SOL    HW1 2354   2.574   1.962   3.848
 2054SOL    HW2 2355   2.445   1.967   3.748
 2056SOL     OW 2356   2.159   1.897   3.895
 2056SOL    HW1 2357   2.208   1.981   3.874
 2056SOL    HW2 2358   2.221   1.832   3.940
 2059SOL     OW 2359   2.894   2.411   3.740
 2059SOL    HW1 2360   2.853   2.493   3.701
 2059SOL    HW2 2361   2.958   2.437   3.813
 2074SOL     OW 2362   2.335   2.362   3.915
 2074SOL    HW1 2363   2.396   2.442   3.919
 2074SOL    HW2 2364   2.240   2.393   3.922
 2084SOL     OW 2365   1.937   2.207   3.757
 2084SOL    HW1 2366   1.845   2.179   3.728
 2084SOL    HW2 2367   1.968   2.284   3.701
 2128SOL     OW 2368   2.366   3.774   1.740
 2128SOL    HW1 2369   2.324   3.717   1.670
 2128SOL    HW2 2370   2.300   3.843   1.772
 2169SOL     OW 2371   2.671   3.728   2.364
 2169SOL    HW1 2372   2.711   3.819   2.355
 2169SOL    HW2 2373   2.571   3.736   2.370
 2180SOL     OW 2374   2.476   3.846   1.979
 2180SOL    HW1 2375   2.574   3.824   1.986
 2180SOL    HW2 2376   2.445   3.829   1.886
 2183SOL     OW 2377   2.401   3.788   2.374
 2183SOL    HW1 2378   2.320   3.789   2.432
 2183SOL    HW2 2379   2.404   3.871   2.319
 2184SOL     OW 2380   2.159   3.759   2.033
 2184SOL    HW1 2381   2.208   3.843   2.012
 2184SOL    HW2 2382   2.221   3.694   2.078
 2198SOL     OW 2383   2.169   3.787   2.480
 2198SOL    HW1 2384   2.158   3.881   2.513
 2198SOL    HW2 2385   2.164   3.724   2.557
 2216SOL     OW 2386   1.934   3.890   2.180
 2216SOL    HW1 2387   1.917   3.973   2.126
 2216SOL    HW2 2388   2.024   3.853   2.158
 2300SOL     OW 2389   3.854   1.794   1.851
 2300SOL    HW1 2390   3.813   1.720   1.904
 2300SOL    HW2 2391   3.918   1.845   1.909
 2325SOL     OW 2392   3.751   1.596   1.979
 2325SOL    HW1 2393   3.732   1.500   2.000
 2325SOL    HW2 2394   3.718   1.654   2.054
 2359SOL     OW 2395   3.732   1.326   2.062
 2359SOL    HW1 2396   3.639   1.347   2.031
 2359SOL    HW2 2397   3.742   1.227   2.075
 2475SOL     OW 2398   3.743   2.230   2.509
 2475SOL    HW1 2399   3.661   2.273   2.548
 2475SOL    HW2 2400   3.715   2.157   2.446
 2482SOL     OW 2401   3.846   2.505   2.425
 2482SOL    HW1 2402   3.801   2.417   2.442
 2482SOL    HW2 2403   3.845   2.559   2.509
 2488SOL     OW 2404   3.800   2.673   2.651
 2488SOL    HW1 2405   3.899   2.661   2.660
 2488SOL    HW2 2406   3.776   2.768   2.672
 2532SOL     OW 2407   3.799   2.207   1.895
 2532SOL    HW1 2408   3.707   2.179   1.866
 2532SOL    HW2 2409   3.830   2.284   1.839
 2533SOL     OW 2410   3.796   2.028   2.180
 2533SOL    HW1 2411   3.779   2.111   2.126
 2533SOL    HW2 2412   3.886   1.991   2.158
 2540SOL     OW 2413   3.763   2.939   2.162
 2540SOL    HW1 2414   3.862   2.928   2.153
 2540SOL    HW2 2415   3.723   2.853   2.194
   4.31033   4.31033   4.31033
