; mobley_547634_GMX.itp created by acpype (v: 2023.10.27) on Thu May 21 00:10:36 2026

[ atomtypes ]
;name   bond_type     mass     charge   ptype   sigma         epsilon       Amb
 ca       ca          0.00000  0.00000   A     3.31521e-01   4.13379e-01 ; 1.86  0.0988
 c3       c3          0.00000  0.00000   A     3.39771e-01   4.51035e-01 ; 1.91  0.1078
 ha       ha          0.00000  0.00000   A     2.62548e-01   6.73624e-02 ; 1.47  0.0161
 hc       hc          0.00000  0.00000   A     2.60018e-01   8.70272e-02 ; 1.46  0.0208

[ moleculetype ]
;name            nrexcl
 mobley_547634    3

[ atoms ]
;   nr  type  resi  res  atom  cgnr     charge      mass       ; qtot   bond_type
     1   ca     1   MOL    C1    1    -0.129000     12.01000 ; qtot -0.129
     2   ca     1   MOL    C2    2    -0.129000     12.01000 ; qtot -0.258
     3   ca     1   MOL    C3    3    -0.117000     12.01000 ; qtot -0.375
     4   ca     1   MOL    C4    4    -0.117000     12.01000 ; qtot -0.492
     5   ca     1   MOL    C5    5    -0.118000     12.01000 ; qtot -0.610
     6   ca     1   MOL    C6    6    -0.118000     12.01000 ; qtot -0.728
     7   ca     1   MOL    C7    7    -0.036000     12.01000 ; qtot -0.764
     8   ca     1   MOL    C8    8    -0.036000     12.01000 ; qtot -0.800
     9   ca     1   MOL    C9    9    -0.072300     12.01000 ; qtot -0.872
    10   ca     1   MOL   C10   10    -0.072300     12.01000 ; qtot -0.945
    11   c3     1   MOL   C11   11    -0.052800     12.01000 ; qtot -0.997
    12   c3     1   MOL   C12   12    -0.052800     12.01000 ; qtot -1.050
    13   ha     1   MOL    H1   13     0.131000      1.00800 ; qtot -0.919
    14   ha     1   MOL    H2   14     0.131000      1.00800 ; qtot -0.788
    15   ha     1   MOL    H3   15     0.131000      1.00800 ; qtot -0.657
    16   ha     1   MOL    H4   16     0.131000      1.00800 ; qtot -0.526
    17   ha     1   MOL    H5   17     0.129999      1.00800 ; qtot -0.396
    18   ha     1   MOL    H6   18     0.129999      1.00800 ; qtot -0.266
    19   hc     1   MOL    H7   19     0.044367      1.00800 ; qtot -0.222
    20   hc     1   MOL    H8   20     0.044367      1.00800 ; qtot -0.177
    21   hc     1   MOL    H9   21     0.044367      1.00800 ; qtot -0.133
    22   hc     1   MOL   H10   22     0.044367      1.00800 ; qtot -0.089
    23   hc     1   MOL   H11   23     0.044367      1.00800 ; qtot -0.044
    24   hc     1   MOL   H12   24     0.044367      1.00800 ; qtot -0.000

[ bonds ]
;   ai     aj funct   r             k
     1      2   1    1.3986e-01    2.9644e+05 ;     C1 - C2    
     1      3   1    1.3986e-01    2.9644e+05 ;     C1 - C3    
     1     13   1    1.0860e-01    3.0183e+05 ;     C1 - H1    
     2      4   1    1.3986e-01    2.9644e+05 ;     C2 - C4    
     2     14   1    1.0860e-01    3.0183e+05 ;     C2 - H2    
     3      7   1    1.3986e-01    2.9644e+05 ;     C3 - C7    
     3     15   1    1.0860e-01    3.0183e+05 ;     C3 - H3    
     4      8   1    1.3986e-01    2.9644e+05 ;     C4 - C8    
     4     16   1    1.0860e-01    3.0183e+05 ;     C4 - H4    
     5      7   1    1.3986e-01    2.9644e+05 ;     C5 - C7    
     5      9   1    1.3986e-01    2.9644e+05 ;     C5 - C9    
     5     17   1    1.0860e-01    3.0183e+05 ;     C5 - H5    
     6      8   1    1.3986e-01    2.9644e+05 ;     C6 - C8    
     6     10   1    1.3986e-01    2.9644e+05 ;     C6 - C10   
     6     18   1    1.0860e-01    3.0183e+05 ;     C6 - H6    
     7      8   1    1.3986e-01    2.9644e+05 ;     C7 - C8    
     9     10   1    1.3986e-01    2.9644e+05 ;     C9 - C10   
     9     11   1    1.5147e-01    2.0410e+05 ;     C9 - C11   
    10     12   1    1.5147e-01    2.0410e+05 ;    C10 - C12   
    11     19   1    1.0962e-01    2.8891e+05 ;    C11 - H7    
    11     20   1    1.0962e-01    2.8891e+05 ;    C11 - H8    
    11     21   1    1.0962e-01    2.8891e+05 ;    C11 - H9    
    12     22   1    1.0962e-01    2.8891e+05 ;    C12 - H10   
    12     23   1    1.0962e-01    2.8891e+05 ;    C12 - H11   
    12     24   1    1.0962e-01    2.8891e+05 ;    C12 - H12   

[ pairs ]
;   ai     aj    funct
     1      5      1 ;     C1 - C5    
     1      8      1 ;     C1 - C8    
     1     16      1 ;     C1 - H4    
     2      6      1 ;     C2 - C6    
     2      7      1 ;     C2 - C7    
     2     15      1 ;     C2 - H3    
     3      4      1 ;     C3 - C4    
     3      6      1 ;     C3 - C6    
     3      9      1 ;     C3 - C9    
     3     14      1 ;     C3 - H2    
     3     17      1 ;     C3 - H5    
     4      5      1 ;     C4 - C5    
     4     10      1 ;     C4 - C10   
     4     18      1 ;     C4 - H6    
     5      6      1 ;     C5 - C6    
     5     12      1 ;     C5 - C12   
     5     15      1 ;     C5 - H3    
     5     19      1 ;     C5 - H7    
     5     20      1 ;     C5 - H8    
     5     21      1 ;     C5 - H9    
     6     11      1 ;     C6 - C11   
     6     16      1 ;     C6 - H4    
     6     22      1 ;     C6 - H10   
     6     23      1 ;     C6 - H11   
     6     24      1 ;     C6 - H12   
     7     10      1 ;     C7 - C10   
     7     11      1 ;     C7 - C11   
     7     16      1 ;     C7 - H4    
     7     18      1 ;     C7 - H6    
     8      9      1 ;     C8 - C9    
     8     12      1 ;     C8 - C12   
     8     14      1 ;     C8 - H2    
     8     15      1 ;     C8 - H3    
     8     17      1 ;     C8 - H5    
     9     18      1 ;     C9 - H6    
     9     22      1 ;     C9 - H10   
     9     23      1 ;     C9 - H11   
     9     24      1 ;     C9 - H12   
    10     17      1 ;    C10 - H5    
    10     19      1 ;    C10 - H7    
    10     20      1 ;    C10 - H8    
    10     21      1 ;    C10 - H9    
    11     12      1 ;    C11 - C12   
    11     17      1 ;    C11 - H5    
    12     18      1 ;    C12 - H6    
    13      4      1 ;     H1 - C4    
    13      7      1 ;     H1 - C7    
    13     14      1 ;     H1 - H2    
    13     15      1 ;     H1 - H3    
    14     16      1 ;     H2 - H4    

[ angles ]
;   ai     aj     ak    funct   theta         cth
     1      2      4      1    1.2002e+02    5.3279e+02 ;     C1 - C2     - C4    
     1      2     14      1    1.1988e+02    3.7572e+02 ;     C1 - C2     - H2    
     1      3      7      1    1.2002e+02    5.3279e+02 ;     C1 - C3     - C7    
     1      3     15      1    1.1988e+02    3.7572e+02 ;     C1 - C3     - H3    
     2      1      3      1    1.2002e+02    5.3279e+02 ;     C2 - C1     - C3    
     2      1     13      1    1.1988e+02    3.7572e+02 ;     C2 - C1     - H1    
     2      4      8      1    1.2002e+02    5.3279e+02 ;     C2 - C4     - C8    
     2      4     16      1    1.1988e+02    3.7572e+02 ;     C2 - C4     - H4    
     3      1     13      1    1.1988e+02    3.7572e+02 ;     C3 - C1     - H1    
     3      7      5      1    1.2002e+02    5.3279e+02 ;     C3 - C7     - C5    
     3      7      8      1    1.2002e+02    5.3279e+02 ;     C3 - C7     - C8    
     4      2     14      1    1.1988e+02    3.7572e+02 ;     C4 - C2     - H2    
     4      8      6      1    1.2002e+02    5.3279e+02 ;     C4 - C8     - C6    
     4      8      7      1    1.2002e+02    5.3279e+02 ;     C4 - C8     - C7    
     5      7      8      1    1.2002e+02    5.3279e+02 ;     C5 - C7     - C8    
     5      9     10      1    1.2002e+02    5.3279e+02 ;     C5 - C9     - C10   
     5      9     11      1    1.2083e+02    5.0827e+02 ;     C5 - C9     - C11   
     6      8      7      1    1.2002e+02    5.3279e+02 ;     C6 - C8     - C7    
     6     10      9      1    1.2002e+02    5.3279e+02 ;     C6 - C10    - C9    
     6     10     12      1    1.2083e+02    5.0827e+02 ;     C6 - C10    - C12   
     7      3     15      1    1.1988e+02    3.7572e+02 ;     C7 - C3     - H3    
     7      5      9      1    1.2002e+02    5.3279e+02 ;     C7 - C5     - C9    
     7      5     17      1    1.1988e+02    3.7572e+02 ;     C7 - C5     - H5    
     8      4     16      1    1.1988e+02    3.7572e+02 ;     C8 - C4     - H4    
     8      6     10      1    1.2002e+02    5.3279e+02 ;     C8 - C6     - C10   
     8      6     18      1    1.1988e+02    3.7572e+02 ;     C8 - C6     - H6    
     9      5     17      1    1.1988e+02    3.7572e+02 ;     C9 - C5     - H5    
     9     10     12      1    1.2083e+02    5.0827e+02 ;     C9 - C10    - C12   
     9     11     19      1    1.1063e+02    3.6493e+02 ;     C9 - C11    - H7    
     9     11     20      1    1.1063e+02    3.6493e+02 ;     C9 - C11    - H8    
     9     11     21      1    1.1063e+02    3.6493e+02 ;     C9 - C11    - H9    
    10      6     18      1    1.1988e+02    3.7572e+02 ;    C10 - C6     - H6    
    10      9     11      1    1.2083e+02    5.0827e+02 ;    C10 - C9     - C11   
    10     12     22      1    1.1063e+02    3.6493e+02 ;    C10 - C12    - H10   
    10     12     23      1    1.1063e+02    3.6493e+02 ;    C10 - C12    - H11   
    10     12     24      1    1.1063e+02    3.6493e+02 ;    C10 - C12    - H12   
    19     11     20      1    1.0773e+02    2.9957e+02 ;     H7 - C11    - H8    
    19     11     21      1    1.0773e+02    2.9957e+02 ;     H7 - C11    - H9    
    20     11     21      1    1.0773e+02    2.9957e+02 ;     H8 - C11    - H9    
    22     12     23      1    1.0773e+02    2.9957e+02 ;    H10 - C12    - H11   
    22     12     24      1    1.0773e+02    2.9957e+02 ;    H10 - C12    - H12   
    23     12     24      1    1.0773e+02    2.9957e+02 ;    H11 - C12    - H12   

[ dihedrals ] ; propers
; for gromacs 4.5 or higher, using funct 9
;    i      j      k      l   func   phase     kd      pn
     1      2      4      8      9   180.00  15.16700   2 ;     C1-    C2-    C4-    C8
     1      2      4     16      9   180.00  15.16700   2 ;     C1-    C2-    C4-    H4
     1      3      7      5      9   180.00  15.16700   2 ;     C1-    C3-    C7-    C5
     1      3      7      8      9   180.00  15.16700   2 ;     C1-    C3-    C7-    C8
     2      1      3      7      9   180.00  15.16700   2 ;     C2-    C1-    C3-    C7
     2      1      3     15      9   180.00  15.16700   2 ;     C2-    C1-    C3-    H3
     2      4      8      6      9   180.00  15.16700   2 ;     C2-    C4-    C8-    C6
     2      4      8      7      9   180.00  15.16700   2 ;     C2-    C4-    C8-    C7
     3      1      2      4      9   180.00  15.16700   2 ;     C3-    C1-    C2-    C4
     3      1      2     14      9   180.00  15.16700   2 ;     C3-    C1-    C2-    H2
     3      7      5      9      9   180.00  15.16700   2 ;     C3-    C7-    C5-    C9
     3      7      5     17      9   180.00  15.16700   2 ;     C3-    C7-    C5-    H5
     3      7      8      4      9   180.00  15.16700   2 ;     C3-    C7-    C8-    C4
     3      7      8      6      9   180.00  15.16700   2 ;     C3-    C7-    C8-    C6
     4      8      6     10      9   180.00  15.16700   2 ;     C4-    C8-    C6-   C10
     4      8      6     18      9   180.00  15.16700   2 ;     C4-    C8-    C6-    H6
     4      8      7      5      9   180.00  15.16700   2 ;     C4-    C8-    C7-    C5
     5      7      3     15      9   180.00  15.16700   2 ;     C5-    C7-    C3-    H3
     5      7      8      6      9   180.00  15.16700   2 ;     C5-    C7-    C8-    C6
     5      9     10      6      9   180.00  15.16700   2 ;     C5-    C9-   C10-    C6
     5      9     10     12      9   180.00  15.16700   2 ;     C5-    C9-   C10-   C12
     5      9     11     19      9     0.00   0.00000   0 ;     C5-    C9-   C11-    H7
     5      9     11     20      9     0.00   0.00000   0 ;     C5-    C9-   C11-    H8
     5      9     11     21      9     0.00   0.00000   0 ;     C5-    C9-   C11-    H9
     6      8      4     16      9   180.00  15.16700   2 ;     C6-    C8-    C4-    H4
     6     10      9     11      9   180.00  15.16700   2 ;     C6-   C10-    C9-   C11
     6     10     12     22      9     0.00   0.00000   0 ;     C6-   C10-   C12-   H10
     6     10     12     23      9     0.00   0.00000   0 ;     C6-   C10-   C12-   H11
     6     10     12     24      9     0.00   0.00000   0 ;     C6-   C10-   C12-   H12
     7      5      9     10      9   180.00  15.16700   2 ;     C7-    C5-    C9-   C10
     7      5      9     11      9   180.00  15.16700   2 ;     C7-    C5-    C9-   C11
     7      8      4     16      9   180.00  15.16700   2 ;     C7-    C8-    C4-    H4
     7      8      6     10      9   180.00  15.16700   2 ;     C7-    C8-    C6-   C10
     7      8      6     18      9   180.00  15.16700   2 ;     C7-    C8-    C6-    H6
     8      4      2     14      9   180.00  15.16700   2 ;     C8-    C4-    C2-    H2
     8      6     10      9      9   180.00  15.16700   2 ;     C8-    C6-   C10-    C9
     8      6     10     12      9   180.00  15.16700   2 ;     C8-    C6-   C10-   C12
     8      7      3     15      9   180.00  15.16700   2 ;     C8-    C7-    C3-    H3
     8      7      5      9      9   180.00  15.16700   2 ;     C8-    C7-    C5-    C9
     8      7      5     17      9   180.00  15.16700   2 ;     C8-    C7-    C5-    H5
     9     10      6     18      9   180.00  15.16700   2 ;     C9-   C10-    C6-    H6
     9     10     12     22      9     0.00   0.00000   0 ;     C9-   C10-   C12-   H10
     9     10     12     23      9     0.00   0.00000   0 ;     C9-   C10-   C12-   H11
     9     10     12     24      9     0.00   0.00000   0 ;     C9-   C10-   C12-   H12
    10      9      5     17      9   180.00  15.16700   2 ;    C10-    C9-    C5-    H5
    10      9     11     19      9     0.00   0.00000   0 ;    C10-    C9-   C11-    H7
    10      9     11     20      9     0.00   0.00000   0 ;    C10-    C9-   C11-    H8
    10      9     11     21      9     0.00   0.00000   0 ;    C10-    C9-   C11-    H9
    11      9      5     17      9   180.00  15.16700   2 ;    C11-    C9-    C5-    H5
    11      9     10     12      9   180.00  15.16700   2 ;    C11-    C9-   C10-   C12
    12     10      6     18      9   180.00  15.16700   2 ;    C12-   C10-    C6-    H6
    13      1      2      4      9   180.00  15.16700   2 ;     H1-    C1-    C2-    C4
    13      1      2     14      9   180.00  15.16700   2 ;     H1-    C1-    C2-    H2
    13      1      3      7      9   180.00  15.16700   2 ;     H1-    C1-    C3-    C7
    13      1      3     15      9   180.00  15.16700   2 ;     H1-    C1-    C3-    H3
    14      2      4     16      9   180.00  15.16700   2 ;     H2-    C2-    C4-    H4

[ dihedrals ] ; impropers
; treated as propers in GROMACS to use correct AMBER analytical function
;    i      j      k      l   func   phase     kd      pn
     1      4      2     14      4   180.00   4.60240   2 ;     C1-    C4-    C2-    H2
     1      7      3     15      4   180.00   4.60240   2 ;     C1-    C7-    C3-    H3
     2      8      4     16      4   180.00   4.60240   2 ;     C2-    C8-    C4-    H4
     3      5      7      8      4   180.00   4.60240   2 ;     C3-    C5-    C7-    C8
     4      6      8      7      4   180.00   4.60240   2 ;     C4-    C6-    C8-    C7
     5     10      9     11      4   180.00   4.60240   2 ;     C5-   C10-    C9-   C11
     7      9      5     17      4   180.00   4.60240   2 ;     C7-    C9-    C5-    H5
     8     10      6     18      4   180.00   4.60240   2 ;     C8-   C10-    C6-    H6
    12      6     10      9      4   180.00   4.60240   2 ;    C12-    C6-   C10-    C9
    13      1      3      2      4   180.00   4.60240   2 ;     H1-    C1-    C3-    C2
