; mobley_4177472_GMX.itp created by acpype (v: 2023.10.27) on Thu May 21 00:26:30 2026

[ atomtypes ]
;name   bond_type     mass     charge   ptype   sigma         epsilon       Amb
 c3       c3          0.00000  0.00000   A     3.39771e-01   4.51035e-01 ; 1.91  0.1078
 hc       hc          0.00000  0.00000   A     2.60018e-01   8.70272e-02 ; 1.46  0.0208

[ moleculetype ]
;name            nrexcl
 mobley_4177472   3

[ atoms ]
;   nr  type  resi  res  atom  cgnr     charge      mass       ; qtot   bond_type
     1   c3     1   MOL    C1    1    -0.090100     12.01000 ; qtot -0.090
     2   c3     1   MOL    C2    2    -0.090100     12.01000 ; qtot -0.180
     3   c3     1   MOL    C3    3    -0.090100     12.01000 ; qtot -0.270
     4   c3     1   MOL    C4    4    -0.090100     12.01000 ; qtot -0.360
     5   c3     1   MOL    C5    5    -0.088100     12.01000 ; qtot -0.448
     6   c3     1   MOL    C6    6    -0.065200     12.01000 ; qtot -0.514
     7   c3     1   MOL    C7    7    -0.065200     12.01000 ; qtot -0.579
     8   c3     1   MOL    C8    8    -0.055700     12.01000 ; qtot -0.635
     9   hc     1   MOL    H1    9     0.032950      1.00800 ; qtot -0.602
    10   hc     1   MOL    H2   10     0.032950      1.00800 ; qtot -0.569
    11   hc     1   MOL    H3   11     0.032950      1.00800 ; qtot -0.536
    12   hc     1   MOL    H4   12     0.032950      1.00800 ; qtot -0.503
    13   hc     1   MOL    H5   13     0.032950      1.00800 ; qtot -0.470
    14   hc     1   MOL    H6   14     0.032950      1.00800 ; qtot -0.437
    15   hc     1   MOL    H7   15     0.032950      1.00800 ; qtot -0.404
    16   hc     1   MOL    H8   16     0.032950      1.00800 ; qtot -0.371
    17   hc     1   MOL    H9   17     0.032950      1.00800 ; qtot -0.338
    18   hc     1   MOL   H10   18     0.032950      1.00800 ; qtot -0.305
    19   hc     1   MOL   H11   19     0.032950      1.00800 ; qtot -0.272
    20   hc     1   MOL   H12   20     0.032950      1.00800 ; qtot -0.239
    21   hc     1   MOL   H13   21     0.033700      1.00800 ; qtot -0.205
    22   hc     1   MOL   H14   22     0.033700      1.00800 ; qtot -0.172
    23   hc     1   MOL   H15   23     0.033700      1.00800 ; qtot -0.138
    24   hc     1   MOL   H16   24     0.046200      1.00800 ; qtot -0.092
    25   hc     1   MOL   H17   25     0.046200      1.00800 ; qtot -0.046
    26   hc     1   MOL   H18   26     0.045700      1.00800 ; qtot 0.000

[ bonds ]
;   ai     aj funct   r             k
     1      6   1    1.5354e-01    1.9154e+05 ;     C1 - C6    
     1      9   1    1.0962e-01    2.8891e+05 ;     C1 - H1    
     1     10   1    1.0962e-01    2.8891e+05 ;     C1 - H2    
     1     11   1    1.0962e-01    2.8891e+05 ;     C1 - H3    
     2      6   1    1.5354e-01    1.9154e+05 ;     C2 - C6    
     2     12   1    1.0962e-01    2.8891e+05 ;     C2 - H4    
     2     13   1    1.0962e-01    2.8891e+05 ;     C2 - H5    
     2     14   1    1.0962e-01    2.8891e+05 ;     C2 - H6    
     3      7   1    1.5354e-01    1.9154e+05 ;     C3 - C7    
     3     15   1    1.0962e-01    2.8891e+05 ;     C3 - H7    
     3     16   1    1.0962e-01    2.8891e+05 ;     C3 - H8    
     3     17   1    1.0962e-01    2.8891e+05 ;     C3 - H9    
     4      7   1    1.5354e-01    1.9154e+05 ;     C4 - C7    
     4     18   1    1.0962e-01    2.8891e+05 ;     C4 - H10   
     4     19   1    1.0962e-01    2.8891e+05 ;     C4 - H11   
     4     20   1    1.0962e-01    2.8891e+05 ;     C4 - H12   
     5      8   1    1.5354e-01    1.9154e+05 ;     C5 - C8    
     5     21   1    1.0962e-01    2.8891e+05 ;     C5 - H13   
     5     22   1    1.0962e-01    2.8891e+05 ;     C5 - H14   
     5     23   1    1.0962e-01    2.8891e+05 ;     C5 - H15   
     6      8   1    1.5354e-01    1.9154e+05 ;     C6 - C8    
     6     24   1    1.0962e-01    2.8891e+05 ;     C6 - H16   
     7      8   1    1.5354e-01    1.9154e+05 ;     C7 - C8    
     7     25   1    1.0962e-01    2.8891e+05 ;     C7 - H17   
     8     26   1    1.0962e-01    2.8891e+05 ;     C8 - H18   

[ pairs ]
;   ai     aj    funct
     1      5      1 ;     C1 - C5    
     1      7      1 ;     C1 - C7    
     1     12      1 ;     C1 - H4    
     1     13      1 ;     C1 - H5    
     1     14      1 ;     C1 - H6    
     1     26      1 ;     C1 - H18   
     2      5      1 ;     C2 - C5    
     2      7      1 ;     C2 - C7    
     2     26      1 ;     C2 - H18   
     3      5      1 ;     C3 - C5    
     3      6      1 ;     C3 - C6    
     3     18      1 ;     C3 - H10   
     3     19      1 ;     C3 - H11   
     3     20      1 ;     C3 - H12   
     3     26      1 ;     C3 - H18   
     4      5      1 ;     C4 - C5    
     4      6      1 ;     C4 - C6    
     4     15      1 ;     C4 - H7    
     4     16      1 ;     C4 - H8    
     4     17      1 ;     C4 - H9    
     4     26      1 ;     C4 - H18   
     5     24      1 ;     C5 - H16   
     5     25      1 ;     C5 - H17   
     6     21      1 ;     C6 - H13   
     6     22      1 ;     C6 - H14   
     6     23      1 ;     C6 - H15   
     6     25      1 ;     C6 - H17   
     7     21      1 ;     C7 - H13   
     7     22      1 ;     C7 - H14   
     7     23      1 ;     C7 - H15   
     7     24      1 ;     C7 - H16   
     8     12      1 ;     C8 - H4    
     8     13      1 ;     C8 - H5    
     8     14      1 ;     C8 - H6    
     8     15      1 ;     C8 - H7    
     8     16      1 ;     C8 - H8    
     8     17      1 ;     C8 - H9    
     8     18      1 ;     C8 - H10   
     8     19      1 ;     C8 - H11   
     8     20      1 ;     C8 - H12   
     9      2      1 ;     H1 - C2    
     9      8      1 ;     H1 - C8    
     9     24      1 ;     H1 - H16   
    10      2      1 ;     H2 - C2    
    10      8      1 ;     H2 - C8    
    10     24      1 ;     H2 - H16   
    11      2      1 ;     H3 - C2    
    11      8      1 ;     H3 - C8    
    11     24      1 ;     H3 - H16   
    12     24      1 ;     H4 - H16   
    13     24      1 ;     H5 - H16   
    14     24      1 ;     H6 - H16   
    15     25      1 ;     H7 - H17   
    16     25      1 ;     H8 - H17   
    17     25      1 ;     H9 - H17   
    18     25      1 ;    H10 - H17   
    19     25      1 ;    H11 - H17   
    20     25      1 ;    H12 - H17   
    21     26      1 ;    H13 - H18   
    22     26      1 ;    H14 - H18   
    23     26      1 ;    H15 - H18   
    24     26      1 ;    H16 - H18   
    25     26      1 ;    H17 - H18   

[ angles ]
;   ai     aj     ak    funct   theta         cth
     1      6      2      1    1.1263e+02    5.0099e+02 ;     C1 - C6     - C2    
     1      6      8      1    1.1263e+02    5.0099e+02 ;     C1 - C6     - C8    
     1      6     24      1    1.0968e+02    3.6208e+02 ;     C1 - C6     - H16   
     2      6      8      1    1.1263e+02    5.0099e+02 ;     C2 - C6     - C8    
     2      6     24      1    1.0968e+02    3.6208e+02 ;     C2 - C6     - H16   
     3      7      4      1    1.1263e+02    5.0099e+02 ;     C3 - C7     - C4    
     3      7      8      1    1.1263e+02    5.0099e+02 ;     C3 - C7     - C8    
     3      7     25      1    1.0968e+02    3.6208e+02 ;     C3 - C7     - H17   
     4      7      8      1    1.1263e+02    5.0099e+02 ;     C4 - C7     - C8    
     4      7     25      1    1.0968e+02    3.6208e+02 ;     C4 - C7     - H17   
     5      8      6      1    1.1263e+02    5.0099e+02 ;     C5 - C8     - C6    
     5      8      7      1    1.1263e+02    5.0099e+02 ;     C5 - C8     - C7    
     5      8     26      1    1.0968e+02    3.6208e+02 ;     C5 - C8     - H18   
     6      1      9      1    1.0968e+02    3.6208e+02 ;     C6 - C1     - H1    
     6      1     10      1    1.0968e+02    3.6208e+02 ;     C6 - C1     - H2    
     6      1     11      1    1.0968e+02    3.6208e+02 ;     C6 - C1     - H3    
     6      2     12      1    1.0968e+02    3.6208e+02 ;     C6 - C2     - H4    
     6      2     13      1    1.0968e+02    3.6208e+02 ;     C6 - C2     - H5    
     6      2     14      1    1.0968e+02    3.6208e+02 ;     C6 - C2     - H6    
     6      8      7      1    1.1263e+02    5.0099e+02 ;     C6 - C8     - C7    
     6      8     26      1    1.0968e+02    3.6208e+02 ;     C6 - C8     - H18   
     7      3     15      1    1.0968e+02    3.6208e+02 ;     C7 - C3     - H7    
     7      3     16      1    1.0968e+02    3.6208e+02 ;     C7 - C3     - H8    
     7      3     17      1    1.0968e+02    3.6208e+02 ;     C7 - C3     - H9    
     7      4     18      1    1.0968e+02    3.6208e+02 ;     C7 - C4     - H10   
     7      4     19      1    1.0968e+02    3.6208e+02 ;     C7 - C4     - H11   
     7      4     20      1    1.0968e+02    3.6208e+02 ;     C7 - C4     - H12   
     7      8     26      1    1.0968e+02    3.6208e+02 ;     C7 - C8     - H18   
     8      5     21      1    1.0968e+02    3.6208e+02 ;     C8 - C5     - H13   
     8      5     22      1    1.0968e+02    3.6208e+02 ;     C8 - C5     - H14   
     8      5     23      1    1.0968e+02    3.6208e+02 ;     C8 - C5     - H15   
     8      6     24      1    1.0968e+02    3.6208e+02 ;     C8 - C6     - H16   
     8      7     25      1    1.0968e+02    3.6208e+02 ;     C8 - C7     - H17   
     9      1     10      1    1.0773e+02    2.9957e+02 ;     H1 - C1     - H2    
     9      1     11      1    1.0773e+02    2.9957e+02 ;     H1 - C1     - H3    
    10      1     11      1    1.0773e+02    2.9957e+02 ;     H2 - C1     - H3    
    12      2     13      1    1.0773e+02    2.9957e+02 ;     H4 - C2     - H5    
    12      2     14      1    1.0773e+02    2.9957e+02 ;     H4 - C2     - H6    
    13      2     14      1    1.0773e+02    2.9957e+02 ;     H5 - C2     - H6    
    15      3     16      1    1.0773e+02    2.9957e+02 ;     H7 - C3     - H8    
    15      3     17      1    1.0773e+02    2.9957e+02 ;     H7 - C3     - H9    
    16      3     17      1    1.0773e+02    2.9957e+02 ;     H8 - C3     - H9    
    18      4     19      1    1.0773e+02    2.9957e+02 ;    H10 - C4     - H11   
    18      4     20      1    1.0773e+02    2.9957e+02 ;    H10 - C4     - H12   
    19      4     20      1    1.0773e+02    2.9957e+02 ;    H11 - C4     - H12   
    21      5     22      1    1.0773e+02    2.9957e+02 ;    H13 - C5     - H14   
    21      5     23      1    1.0773e+02    2.9957e+02 ;    H13 - C5     - H15   
    22      5     23      1    1.0773e+02    2.9957e+02 ;    H14 - C5     - H15   

[ dihedrals ] ; propers
; for gromacs 4.5 or higher, using funct 9
;    i      j      k      l   func   phase     kd      pn
     1      6      2     12      9     0.00   0.54392   3 ;     C1-    C6-    C2-    H4
     1      6      2     13      9     0.00   0.54392   3 ;     C1-    C6-    C2-    H5
     1      6      2     14      9     0.00   0.54392   3 ;     C1-    C6-    C2-    H6
     1      6      8      5      9     0.00   2.17568   3 ;     C1-    C6-    C8-    C5
     1      6      8      7      9     0.00   2.17568   3 ;     C1-    C6-    C8-    C7
     1      6      8     26      9     0.00   0.54392   3 ;     C1-    C6-    C8-   H18
     2      6      8      5      9     0.00   2.17568   3 ;     C2-    C6-    C8-    C5
     2      6      8      7      9     0.00   2.17568   3 ;     C2-    C6-    C8-    C7
     2      6      8     26      9     0.00   0.54392   3 ;     C2-    C6-    C8-   H18
     3      7      4     18      9     0.00   0.54392   3 ;     C3-    C7-    C4-   H10
     3      7      4     19      9     0.00   0.54392   3 ;     C3-    C7-    C4-   H11
     3      7      4     20      9     0.00   0.54392   3 ;     C3-    C7-    C4-   H12
     3      7      8      5      9     0.00   2.17568   3 ;     C3-    C7-    C8-    C5
     3      7      8      6      9     0.00   2.17568   3 ;     C3-    C7-    C8-    C6
     3      7      8     26      9     0.00   0.54392   3 ;     C3-    C7-    C8-   H18
     4      7      3     15      9     0.00   0.54392   3 ;     C4-    C7-    C3-    H7
     4      7      3     16      9     0.00   0.54392   3 ;     C4-    C7-    C3-    H8
     4      7      3     17      9     0.00   0.54392   3 ;     C4-    C7-    C3-    H9
     4      7      8      5      9     0.00   2.17568   3 ;     C4-    C7-    C8-    C5
     4      7      8      6      9     0.00   2.17568   3 ;     C4-    C7-    C8-    C6
     4      7      8     26      9     0.00   0.54392   3 ;     C4-    C7-    C8-   H18
     5      8      6     24      9     0.00   0.54392   3 ;     C5-    C8-    C6-   H16
     5      8      7     25      9     0.00   0.54392   3 ;     C5-    C8-    C7-   H17
     6      8      5     21      9     0.00   0.54392   3 ;     C6-    C8-    C5-   H13
     6      8      5     22      9     0.00   0.54392   3 ;     C6-    C8-    C5-   H14
     6      8      5     23      9     0.00   0.54392   3 ;     C6-    C8-    C5-   H15
     6      8      7     25      9     0.00   0.54392   3 ;     C6-    C8-    C7-   H17
     7      8      5     21      9     0.00   0.54392   3 ;     C7-    C8-    C5-   H13
     7      8      5     22      9     0.00   0.54392   3 ;     C7-    C8-    C5-   H14
     7      8      5     23      9     0.00   0.54392   3 ;     C7-    C8-    C5-   H15
     7      8      6     24      9     0.00   0.54392   3 ;     C7-    C8-    C6-   H16
     8      6      2     12      9     0.00   0.54392   3 ;     C8-    C6-    C2-    H4
     8      6      2     13      9     0.00   0.54392   3 ;     C8-    C6-    C2-    H5
     8      6      2     14      9     0.00   0.54392   3 ;     C8-    C6-    C2-    H6
     8      7      3     15      9     0.00   0.54392   3 ;     C8-    C7-    C3-    H7
     8      7      3     16      9     0.00   0.54392   3 ;     C8-    C7-    C3-    H8
     8      7      3     17      9     0.00   0.54392   3 ;     C8-    C7-    C3-    H9
     8      7      4     18      9     0.00   0.54392   3 ;     C8-    C7-    C4-   H10
     8      7      4     19      9     0.00   0.54392   3 ;     C8-    C7-    C4-   H11
     8      7      4     20      9     0.00   0.54392   3 ;     C8-    C7-    C4-   H12
     9      1      6      2      9     0.00   0.54392   3 ;     H1-    C1-    C6-    C2
     9      1      6      8      9     0.00   0.54392   3 ;     H1-    C1-    C6-    C8
     9      1      6     24      9     0.00   0.50208   3 ;     H1-    C1-    C6-   H16
    10      1      6      2      9     0.00   0.54392   3 ;     H2-    C1-    C6-    C2
    10      1      6      8      9     0.00   0.54392   3 ;     H2-    C1-    C6-    C8
    10      1      6     24      9     0.00   0.50208   3 ;     H2-    C1-    C6-   H16
    11      1      6      2      9     0.00   0.54392   3 ;     H3-    C1-    C6-    C2
    11      1      6      8      9     0.00   0.54392   3 ;     H3-    C1-    C6-    C8
    11      1      6     24      9     0.00   0.50208   3 ;     H3-    C1-    C6-   H16
    12      2      6     24      9     0.00   0.50208   3 ;     H4-    C2-    C6-   H16
    13      2      6     24      9     0.00   0.50208   3 ;     H5-    C2-    C6-   H16
    14      2      6     24      9     0.00   0.50208   3 ;     H6-    C2-    C6-   H16
    15      3      7     25      9     0.00   0.50208   3 ;     H7-    C3-    C7-   H17
    16      3      7     25      9     0.00   0.50208   3 ;     H8-    C3-    C7-   H17
    17      3      7     25      9     0.00   0.50208   3 ;     H9-    C3-    C7-   H17
    18      4      7     25      9     0.00   0.50208   3 ;    H10-    C4-    C7-   H17
    19      4      7     25      9     0.00   0.50208   3 ;    H11-    C4-    C7-   H17
    20      4      7     25      9     0.00   0.50208   3 ;    H12-    C4-    C7-   H17
    21      5      8     26      9     0.00   0.50208   3 ;    H13-    C5-    C8-   H18
    22      5      8     26      9     0.00   0.50208   3 ;    H14-    C5-    C8-   H18
    23      5      8     26      9     0.00   0.50208   3 ;    H15-    C5-    C8-   H18
    24      6      8     26      9     0.00   0.50208   3 ;    H16-    C6-    C8-   H18
    25      7      8     26      9     0.00   0.50208   3 ;    H17-    C7-    C8-   H18
