mobley_5110043_GMX.gro created by acpype (v: 2023.10.27) on Tue May 19 12:49:12 2026
 2436
    1MOL     C1    1   2.462   2.648   2.443
    1MOL     C2    2   2.465   2.279   2.484
    1MOL     C3    3   2.329   2.677   2.473
    1MOL     C4    4   2.598   2.249   2.454
    1MOL     C5    5   2.642   2.484   2.417
    1MOL     C6    6   2.285   2.443   2.510
    1MOL     C7    7   2.509   2.515   2.447
    1MOL     C8    8   2.419   2.411   2.480
    1MOL     C9    9   2.240   2.575   2.506
    1MOL    C10   10   2.687   2.352   2.421
    1MOL    C11   11   2.098   2.606   2.538
    1MOL    C12   12   2.829   2.320   2.389
    1MOL     H1   13   2.529   2.729   2.418
    1MOL     H2   14   2.398   2.197   2.509
    1MOL     H3   15   2.295   2.780   2.470
    1MOL     H4   16   2.632   2.146   2.457
    1MOL     H5   17   2.712   2.563   2.391
    1MOL     H6   18   2.215   2.363   2.536
    1MOL     H7   19   2.070   2.564   2.635
    1MOL     H8   20   2.081   2.715   2.540
    1MOL     H9   21   2.030   2.566   2.461
    1MOL    H10   22   2.892   2.336   2.477
    1MOL    H11   23   2.840   2.216   2.357
    1MOL    H12   24   2.867   2.383   2.307
   14SOL     OW   25   1.460   1.505   1.339
   14SOL    HW1   26   1.484   1.599   1.365
   14SOL    HW2   27   1.444   1.451   1.421
   35SOL     OW   28   1.187   1.792   1.616
   35SOL    HW1   29   1.211   1.852   1.540
   35SOL    HW2   30   1.194   1.697   1.586
   95SOL     OW   31   1.754   1.223   1.588
   95SOL    HW1   32   1.845   1.184   1.575
   95SOL    HW2   33   1.762   1.319   1.612
   97SOL     OW   34   1.592   1.629   1.625
   97SOL    HW1   35   1.619   1.663   1.535
   97SOL    HW2   36   1.671   1.591   1.671
  127SOL     OW   37   1.859   1.518   1.605
  127SOL    HW1   38   1.873   1.545   1.510
  127SOL    HW2   39   1.942   1.540   1.658
  152SOL     OW   40   1.759   1.747   1.154
  152SOL    HW1   41   1.820   1.777   1.081
  152SOL    HW2   42   1.721   1.658   1.132
  163SOL     OW   43   1.650   1.720   1.394
  163SOL    HW1   44   1.703   1.730   1.310
  163SOL    HW2   45   1.623   1.810   1.428
  219SOL     OW   46   1.555   1.511   2.565
  219SOL    HW1   47   1.498   1.495   2.646
  219SOL    HW2   48   1.496   1.521   2.485
  227SOL     OW   49   1.460   1.505   3.201
  227SOL    HW1   50   1.484   1.599   3.227
  227SOL    HW2   51   1.444   1.451   3.283
  238SOL     OW   52   1.842   1.767   2.221
  238SOL    HW1   53   1.896   1.738   2.301
  238SOL    HW2   54   1.872   1.857   2.192
  240SOL     OW   55   1.689   0.922   2.474
  240SOL    HW1   56   1.784   0.893   2.482
  240SOL    HW2   57   1.681   0.987   2.399
  241SOL     OW   58   1.641   1.108   2.294
  241SOL    HW1   59   1.727   1.110   2.242
  241SOL    HW2   60   1.655   1.155   2.382
  247SOL     OW   61   1.525   0.999   2.052
  247SOL    HW1   62   1.462   0.923   2.065
  247SOL    HW2   63   1.573   1.017   2.138
  248SOL     OW   64   1.187   1.792   3.478
  248SOL    HW1   65   1.211   1.852   3.402
  248SOL    HW2   66   1.194   1.697   3.448
  250SOL     OW   67   1.466   1.417   2.815
  250SOL    HW1   68   1.407   1.423   2.895
  250SOL    HW2   69   1.451   1.329   2.769
  251SOL     OW   70   1.667   1.714   2.434
  251SOL    HW1   71   1.626   1.691   2.346
  251SOL    HW2   72   1.649   1.640   2.499
  254SOL     OW   73   1.576   1.662   2.169
  254SOL    HW1   74   1.665   1.708   2.172
  254SOL    HW2   75   1.555   1.638   2.074
  264SOL     OW   76   1.362   1.144   2.407
  264SOL    HW1   77   1.445   1.115   2.359
  264SOL    HW2   78   1.313   1.211   2.351
  266SOL     OW   79   1.008   1.456   2.339
  266SOL    HW1   80   0.962   1.528   2.287
  266SOL    HW2   81   1.004   1.476   2.437
  268SOL     OW   82   1.795   1.066   2.735
  268SOL    HW1   83   1.733   1.051   2.659
  268SOL    HW2   84   1.743   1.077   2.820
  269SOL     OW   85   1.227   1.550   3.368
  269SOL    HW1   86   1.233   1.473   3.432
  269SOL    HW2   87   1.175   1.524   3.288
  273SOL     OW   88   1.111   1.776   2.099
  273SOL    HW1   89   1.051   1.714   2.149
  273SOL    HW2   90   1.142   1.732   2.014
  275SOL     OW   91   1.632   1.377   1.943
  275SOL    HW1   92   1.600   1.471   1.933
  275SOL    HW2   93   1.556   1.314   1.931
  279SOL     OW   94   0.940   1.698   2.766
  279SOL    HW1   95   1.020   1.641   2.787
  279SOL    HW2   96   0.891   1.658   2.689
  289SOL     OW   97   1.434   1.188   1.903
  289SOL    HW1   98   1.466   1.112   1.960
  289SOL    HW2   99   1.342   1.215   1.933
  293SOL     OW  100   1.227   1.570   2.655
  293SOL    HW1  101   1.248   1.644   2.590
  293SOL    HW2  102   1.295   1.570   2.728
  295SOL     OW  103   1.271   1.797   2.453
  295SOL    HW1  104   1.315   1.861   2.389
  295SOL    HW2  105   1.221   1.849   2.523
  301SOL     OW  106   1.429   1.173   2.729
  301SOL    HW1  107   1.374   1.089   2.722
  301SOL    HW2  108   1.455   1.202   2.637
  303SOL     OW  109   1.857   0.833   2.239
  303SOL    HW1  110   1.899   0.769   2.303
  303SOL    HW2  111   1.819   0.782   2.161
  305SOL     OW  112   1.664   1.280   2.519
  305SOL    HW1  113   1.763   1.288   2.533
  305SOL    HW2  114   1.619   1.364   2.550
  308SOL     OW  115   1.754   1.223   3.450
  308SOL    HW1  116   1.845   1.184   3.437
  308SOL    HW2  117   1.762   1.319   3.474
  310SOL     OW  118   1.592   1.629   3.487
  310SOL    HW1  119   1.619   1.663   3.397
  310SOL    HW2  120   1.671   1.591   3.533
  312SOL     OW  121   1.638   1.099   2.941
  312SOL    HW1  122   1.643   1.180   3.000
  312SOL    HW2  123   1.552   1.101   2.890
  321SOL     OW  124   1.252   1.348   2.250
  321SOL    HW1  125   1.302   1.425   2.290
  321SOL    HW2  126   1.157   1.350   2.282
  322SOL     OW  127   1.272   1.445   3.004
  322SOL    HW1  128   1.319   1.458   3.091
  322SOL    HW2  129   1.206   1.371   3.013
  340SOL     OW  130   1.859   1.518   3.467
  340SOL    HW1  131   1.873   1.545   3.372
  340SOL    HW2  132   1.942   1.540   3.520
  365SOL     OW  133   1.759   1.747   3.016
  365SOL    HW1  134   1.820   1.777   2.943
  365SOL    HW2  135   1.721   1.658   2.994
  366SOL     OW  136   1.252   1.731   2.990
  366SOL    HW1  137   1.336   1.736   2.936
  366SOL    HW2  138   1.229   1.635   3.008
  370SOL     OW  139   1.388   1.573   2.339
  370SOL    HW1  140   1.455   1.585   2.265
  370SOL    HW2  141   1.348   1.662   2.362
  375SOL     OW  142   1.650   1.720   3.256
  375SOL    HW1  143   1.703   1.730   3.172
  375SOL    HW2  144   1.623   1.810   3.290
  378SOL     OW  145   1.194   1.612   1.893
  378SOL    HW1  146   1.200   1.519   1.930
  378SOL    HW2  147   1.135   1.612   1.813
  381SOL     OW  148   1.504   1.607   1.906
  381SOL    HW1  149   1.412   1.644   1.913
  381SOL    HW2  150   1.542   1.627   1.816
  383SOL     OW  151   1.614   1.292   3.151
  383SOL    HW1  152   1.674   1.295   3.231
  383SOL    HW2  153   1.539   1.356   3.164
  394SOL     OW  154   1.183   1.335   1.981
  394SOL    HW1  155   1.084   1.324   1.983
  394SOL    HW2  156   1.217   1.350   2.074
  396SOL     OW  157   1.493   1.767   2.821
  396SOL    HW1  158   1.526   1.831   2.752
  396SOL    HW2  159   1.559   1.761   2.896
  409SOL     OW  160   1.861   1.569   2.713
  409SOL    HW1  161   1.790   1.557   2.643
  409SOL    HW2  162   1.862   1.490   2.773
  415SOL     OW  163   1.705   1.487   2.966
  415SOL    HW1  164   1.612   1.462   2.939
  415SOL    HW2  165   1.731   1.437   3.048
  569SOL     OW  166   0.850   2.660   1.823
  569SOL    HW1  167   0.846   2.736   1.888
  569SOL    HW2  168   0.872   2.696   1.732
  573SOL     OW  169   1.460   3.367   1.339
  573SOL    HW1  170   1.484   3.461   1.365
  573SOL    HW2  171   1.444   3.313   1.421
  577SOL     OW  172   1.127   3.203   1.690
  577SOL    HW1  173   1.174   3.203   1.778
  577SOL    HW2  174   1.079   3.116   1.679
  582SOL     OW  175   1.594   1.976   1.480
  582SOL    HW1  176   1.576   2.043   1.408
  582SOL    HW2  177   1.591   2.022   1.569
  590SOL     OW  178   1.293   3.090   1.423
  590SOL    HW1  179   1.330   3.017   1.365
  590SOL    HW2  180   1.345   3.095   1.508
  602SOL     OW  181   1.394   2.331   1.674
  602SOL    HW1  182   1.374   2.374   1.762
  602SOL    HW2  183   1.472   2.269   1.683
  603SOL     OW  184   0.973   2.752   1.572
  603SOL    HW1  185   1.019   2.668   1.543
  603SOL    HW2  186   0.917   2.786   1.497
  609SOL     OW  187   1.719   2.447   1.831
  609SOL    HW1  188   1.693   2.536   1.795
  609SOL    HW2  189   1.717   2.379   1.758
  614SOL     OW  190   1.795   2.928   0.873
  614SOL    HW1  191   1.733   2.913   0.797
  614SOL    HW2  192   1.743   2.939   0.958
  627SOL     OW  193   1.547   2.084   1.729
  627SOL    HW1  194   1.542   2.121   1.821
  627SOL    HW2  195   1.475   2.015   1.717
  631SOL     OW  196   1.351   2.452   1.433
  631SOL    HW1  197   1.379   2.409   1.518
  631SOL    HW2  198   1.376   2.548   1.434
  638SOL     OW  199   1.076   2.545   1.464
  638SOL    HW1  200   0.996   2.484   1.467
  638SOL    HW2  201   1.157   2.492   1.440
  648SOL     OW  202   1.466   2.452   0.992
  648SOL    HW1  203   1.436   2.357   0.999
  648SOL    HW2  204   1.539   2.468   1.058
  654SOL     OW  205   1.754   3.085   1.588
  654SOL    HW1  206   1.845   3.046   1.575
  654SOL    HW2  207   1.762   3.181   1.612
  656SOL     OW  208   1.592   3.491   1.625
  656SOL    HW1  209   1.619   3.525   1.535
  656SOL    HW2  210   1.671   3.453   1.671
  658SOL     OW  211   1.638   2.961   1.079
  658SOL    HW1  212   1.643   3.042   1.138
  658SOL    HW2  213   1.552   2.963   1.028
  660SOL     OW  214   0.980   2.978   1.719
  660SOL    HW1  215   0.881   2.984   1.729
  660SOL    HW2  216   1.003   2.898   1.663
  663SOL     OW  217   1.274   2.248   1.262
  663SOL    HW1  218   1.295   2.322   1.326
  663SOL    HW2  219   1.185   2.265   1.219
  672SOL     OW  220   1.587   2.641   1.670
  672SOL    HW1  221   1.495   2.679   1.665
  672SOL    HW2  222   1.647   2.688   1.605
  673SOL     OW  223   1.013   1.967   1.770
  673SOL    HW1  224   1.019   2.052   1.718
  673SOL    HW2  225   1.045   1.891   1.713
  681SOL     OW  226   1.728   2.797   1.854
  681SOL    HW1  227   1.682   2.790   1.765
  681SOL    HW2  228   1.666   2.841   1.920
  686SOL     OW  229   1.859   3.380   1.605
  686SOL    HW1  230   1.873   3.407   1.510
  686SOL    HW2  231   1.942   3.402   1.658
  693SOL     OW  232   1.138   2.242   1.678
  693SOL    HW1  233   1.093   2.305   1.742
  693SOL    HW2  234   1.231   2.273   1.661
  694SOL     OW  235   1.160   2.069   1.477
  694SOL    HW1  236   1.160   2.133   1.554
  694SOL    HW2  237   1.188   2.117   1.394
  701SOL     OW  238   1.369   2.812   1.660
  701SOL    HW1  239   1.408   2.901   1.680
  701SOL    HW2  240   1.379   2.792   1.563
  703SOL     OW  241   1.657   2.466   1.206
  703SOL    HW1  242   1.619   2.397   1.268
  703SOL    HW2  243   1.739   2.430   1.162
  709SOL     OW  244   1.347   2.921   1.234
  709SOL    HW1  245   1.371   2.858   1.160
  709SOL    HW2  246   1.257   2.961   1.216
  722SOL     OW  247   1.650   3.582   1.394
  722SOL    HW1  248   1.703   3.592   1.310
  722SOL    HW2  249   1.623   3.672   1.428
  723SOL     OW  250   1.841   2.037   0.963
  723SOL    HW1  251   1.880   1.952   0.927
  723SOL    HW2  252   1.743   2.039   0.944
  730SOL     OW  253   1.614   3.154   1.289
  730SOL    HW1  254   1.674   3.157   1.369
  730SOL    HW2  255   1.539   3.218   1.302
  734SOL     OW  256   1.709   2.247   1.381
  734SOL    HW1  257   1.782   2.316   1.385
  734SOL    HW2  258   1.737   2.172   1.322
  739SOL     OW  259   1.440   2.718   1.398
  739SOL    HW1  260   1.383   2.770   1.335
  739SOL    HW2  261   1.536   2.730   1.374
  745SOL     OW  262   1.450   3.082   1.633
  745SOL    HW1  263   1.441   3.072   1.732
  745SOL    HW2  264   1.546   3.075   1.607
  747SOL     OW  265   1.674   2.745   1.254
  747SOL    HW1  266   1.647   2.656   1.217
  747SOL    HW2  267   1.675   2.813   1.181
  750SOL     OW  268   1.777   2.204   1.642
  750SOL    HW1  269   1.760   2.235   1.548
  750SOL    HW2  270   1.693   2.167   1.680
  751SOL     OW  271   1.730   2.796   1.517
  751SOL    HW1  272   1.768   2.887   1.532
  751SOL    HW2  273   1.722   2.779   1.418
  760SOL     OW  274   1.824   2.054   1.227
  760SOL    HW1  275   1.820   1.964   1.271
  760SOL    HW2  276   1.827   2.043   1.128
  762SOL     OW  277   1.705   3.349   1.104
  762SOL    HW1  278   1.612   3.324   1.077
  762SOL    HW2  279   1.731   3.299   1.186
  765SOL     OW  280   1.424   2.076   1.112
  765SOL    HW1  281   1.476   2.011   1.167
  765SOL    HW2  282   1.375   2.139   1.173
  778SOL     OW  283   1.555   3.373   2.565
  778SOL    HW1  284   1.498   3.357   2.646
  778SOL    HW2  285   1.496   3.383   2.485
  779SOL     OW  286   1.135   2.565   2.579
  779SOL    HW1  287   1.192   2.643   2.554
  779SOL    HW2  288   1.075   2.591   2.655
  780SOL     OW  289   1.755   2.469   2.093
  780SOL    HW1  290   1.743   2.456   1.994
  780SOL    HW2  291   1.725   2.388   2.142
  786SOL     OW  292   1.460   3.367   3.201
  786SOL    HW1  293   1.484   3.461   3.227
  786SOL    HW2  294   1.444   3.313   3.283
  788SOL     OW  295   1.603   2.309   2.599
  788SOL    HW1  296   1.529   2.355   2.549
  788SOL    HW2  297   1.654   2.377   2.652
  795SOL     OW  298   1.594   1.976   3.342
  795SOL    HW1  299   1.576   2.043   3.270
  795SOL    HW2  300   1.591   2.022   3.431
  797SOL     OW  301   1.842   3.629   2.221
  797SOL    HW1  302   1.896   3.600   2.301
  797SOL    HW2  303   1.872   3.719   2.192
  799SOL     OW  304   1.689   2.784   2.474
  799SOL    HW1  305   1.784   2.755   2.482
  799SOL    HW2  306   1.681   2.849   2.399
  800SOL     OW  307   1.641   2.970   2.294
  800SOL    HW1  308   1.727   2.972   2.242
  800SOL    HW2  309   1.655   3.017   2.382
  803SOL     OW  310   1.293   3.090   3.285
  803SOL    HW1  311   1.330   3.017   3.227
  803SOL    HW2  312   1.345   3.095   3.370
  804SOL     OW  313   0.809   1.866   2.364
  804SOL    HW1  314   0.849   1.957   2.355
  804SOL    HW2  315   0.709   1.874   2.370
  806SOL     OW  316   1.525   2.861   2.052
  806SOL    HW1  317   1.462   2.785   2.065
  806SOL    HW2  318   1.573   2.879   2.138
  809SOL     OW  319   1.466   3.279   2.815
  809SOL    HW1  320   1.407   3.285   2.895
  809SOL    HW2  321   1.451   3.191   2.769
  810SOL     OW  322   1.667   3.576   2.434
  810SOL    HW1  323   1.626   3.553   2.346
  810SOL    HW2  324   1.649   3.502   2.499
  812SOL     OW  325   1.281   2.207   2.806
  812SOL    HW1  326   1.195   2.157   2.793
  812SOL    HW2  327   1.343   2.153   2.862
  813SOL     OW  328   1.576   3.524   2.169
  813SOL    HW1  329   1.665   3.570   2.172
  813SOL    HW2  330   1.555   3.500   2.074
  815SOL     OW  331   1.394   2.331   3.536
  815SOL    HW1  332   1.374   2.374   3.624
  815SOL    HW2  333   1.472   2.269   3.545
  817SOL     OW  334   0.991   2.272   3.104
  817SOL    HW1  335   0.914   2.306   3.158
  817SOL    HW2  336   0.957   2.221   3.025
  818SOL     OW  337   1.041   2.563   2.291
  818SOL    HW1  338   1.067   2.559   2.387
  818SOL    HW2  339   0.956   2.512   2.277
  821SOL     OW  340   0.865   2.210   2.057
  821SOL    HW1  341   0.924   2.273   2.008
  821SOL    HW2  342   0.884   2.116   2.028
  822SOL     OW  343   1.719   2.447   3.693
  822SOL    HW1  344   1.693   2.536   3.657
  822SOL    HW2  345   1.717   2.379   3.620
  823SOL     OW  346   1.362   3.006   2.407
  823SOL    HW1  347   1.445   2.977   2.359
  823SOL    HW2  348   1.313   3.073   2.351
  825SOL     OW  349   1.008   3.318   2.339
  825SOL    HW1  350   0.962   3.390   2.287
  825SOL    HW2  351   1.004   3.338   2.437
  827SOL     OW  352   1.795   2.928   2.735
  827SOL    HW1  353   1.733   2.913   2.659
  827SOL    HW2  354   1.743   2.939   2.820
  830SOL     OW  355   1.458   2.597   2.590
  830SOL    HW1  356   1.453   2.532   2.665
  830SOL    HW2  357   1.538   2.656   2.603
  834SOL     OW  358   1.632   3.239   1.943
  834SOL    HW1  359   1.600   3.333   1.933
  834SOL    HW2  360   1.556   3.176   1.931
  836SOL     OW  361   1.400   1.969   2.288
  836SOL    HW1  362   1.376   1.932   2.198
  836SOL    HW2  363   1.499   1.985   2.292
  840SOL     OW  364   1.547   2.084   3.591
  840SOL    HW1  365   1.542   2.121   3.683
  840SOL    HW2  366   1.475   2.015   3.579
  844SOL     OW  367   1.351   2.452   3.295
  844SOL    HW1  368   1.379   2.409   3.380
  844SOL    HW2  369   1.376   2.548   3.296
  846SOL     OW  370   0.922   2.365   2.761
  846SOL    HW1  371   0.897   2.356   2.665
  846SOL    HW2  372   0.970   2.283   2.792
  848SOL     OW  373   1.434   3.050   1.903
  848SOL    HW1  374   1.466   2.974   1.960
  848SOL    HW2  375   1.342   3.077   1.933
  850SOL     OW  376   0.935   2.098   2.342
  850SOL    HW1  377   0.887   2.139   2.264
  850SOL    HW2  378   1.034   2.096   2.323
  851SOL     OW  379   1.076   2.545   3.326
  851SOL    HW1  380   0.996   2.484   3.329
  851SOL    HW2  381   1.157   2.492   3.302
  852SOL     OW  382   1.227   3.432   2.655
  852SOL    HW1  383   1.248   3.506   2.590
  852SOL    HW2  384   1.295   3.432   2.728
  854SOL     OW  385   1.271   3.659   2.453
  854SOL    HW1  386   1.315   3.723   2.389
  854SOL    HW2  387   1.221   3.711   2.523
  855SOL     OW  388   1.032   2.411   1.878
  855SOL    HW1  389   0.991   2.493   1.839
  855SOL    HW2  390   1.096   2.437   1.951
  858SOL     OW  391   0.866   2.316   2.504
  858SOL    HW1  392   0.834   2.388   2.442
  858SOL    HW2  393   0.890   2.235   2.451
  859SOL     OW  394   1.017   1.901   2.615
  859SOL    HW1  395   0.945   1.906   2.546
  859SOL    HW2  396   0.993   1.832   2.684
  860SOL     OW  397   1.429   3.035   2.729
  860SOL    HW1  398   1.374   2.951   2.722
  860SOL    HW2  399   1.455   3.064   2.637
  861SOL     OW  400   1.466   2.452   2.854
  861SOL    HW1  401   1.436   2.357   2.861
  861SOL    HW2  402   1.539   2.468   2.920
  862SOL     OW  403   1.857   2.695   2.239
  862SOL    HW1  404   1.899   2.631   2.303
  862SOL    HW2  405   1.819   2.644   2.161
  864SOL     OW  406   1.664   3.142   2.519
  864SOL    HW1  407   1.763   3.150   2.533
  864SOL    HW2  408   1.619   3.226   2.550
  865SOL     OW  409   1.390   2.437   1.940
  865SOL    HW1  410   1.336   2.416   2.021
  865SOL    HW2  411   1.481   2.396   1.949
  867SOL     OW  412   1.754   3.085   3.450
  867SOL    HW1  413   1.845   3.046   3.437
  867SOL    HW2  414   1.762   3.181   3.474
  868SOL     OW  415   1.064   3.209   3.202
  868SOL    HW1  416   0.984   3.186   3.257
  868SOL    HW2  417   1.147   3.183   3.251
  869SOL     OW  418   1.592   3.491   3.487
  869SOL    HW1  419   1.619   3.525   3.397
  869SOL    HW2  420   1.671   3.453   3.533
  870SOL     OW  421   1.111   3.057   2.962
  870SOL    HW1  422   1.071   3.101   3.043
  870SOL    HW2  423   1.070   3.094   2.879
  871SOL     OW  424   1.638   2.961   2.941
  871SOL    HW1  425   1.643   3.042   3.000
  871SOL    HW2  426   1.552   2.963   2.890
  876SOL     OW  427   1.274   2.248   3.124
  876SOL    HW1  428   1.295   2.322   3.188
  876SOL    HW2  429   1.185   2.265   3.081
  880SOL     OW  430   1.252   3.210   2.250
  880SOL    HW1  431   1.302   3.287   2.290
  880SOL    HW2  432   1.157   3.212   2.282
  881SOL     OW  433   1.272   3.307   3.004
  881SOL    HW1  434   1.319   3.320   3.091
  881SOL    HW2  435   1.206   3.233   3.013
  882SOL     OW  436   1.582   2.501   2.334
  882SOL    HW1  437   1.551   2.562   2.407
  882SOL    HW2  438   1.632   2.553   2.265
  885SOL     OW  439   1.587   2.641   3.532
  885SOL    HW1  440   1.495   2.679   3.527
  885SOL    HW2  441   1.647   2.688   3.467
  889SOL     OW  442   1.360   2.724   2.907
  889SOL    HW1  443   1.285   2.724   2.841
  889SOL    HW2  444   1.397   2.632   2.916
  890SOL     OW  445   1.209   2.387   2.137
  890SOL    HW1  446   1.222   2.303   2.191
  890SOL    HW2  447   1.180   2.461   2.197
  893SOL     OW  448   0.732   2.496   2.926
  893SOL    HW1  449   0.791   2.470   2.850
  893SOL    HW2  450   0.704   2.592   2.915
  894SOL     OW  451   1.728   2.797   3.716
  894SOL    HW1  452   1.682   2.790   3.627
  894SOL    HW2  453   1.666   2.841   3.782
  896SOL     OW  454   1.622   2.229   2.236
  896SOL    HW1  455   1.624   2.153   2.300
  896SOL    HW2  456   1.574   2.306   2.276
  897SOL     OW  457   1.023   2.628   2.828
  897SOL    HW1  458   1.038   2.649   2.924
  897SOL    HW2  459   0.993   2.533   2.819
  899SOL     OW  460   1.859   3.380   3.467
  899SOL    HW1  461   1.873   3.407   3.372
  899SOL    HW2  462   1.942   3.402   3.520
  901SOL     OW  463   1.540   2.136   1.987
  901SOL    HW1  464   1.479   2.061   2.010
  901SOL    HW2  465   1.562   2.188   2.070
  902SOL     OW  466   1.303   2.700   1.904
  902SOL    HW1  467   1.337   2.607   1.919
  902SOL    HW2  468   1.321   2.727   1.809
  903SOL     OW  469   1.068   3.195   2.711
  903SOL    HW1  470   1.075   3.111   2.656
  903SOL    HW2  471   1.130   3.264   2.675
  906SOL     OW  472   1.138   2.242   3.540
  906SOL    HW1  473   1.093   2.305   3.604
  906SOL    HW2  474   1.231   2.273   3.523
  907SOL     OW  475   1.160   2.069   3.339
  907SOL    HW1  476   1.160   2.133   3.416
  907SOL    HW2  477   1.188   2.117   3.256
  911SOL     OW  478   1.002   2.658   3.100
  911SOL    HW1  479   1.043   2.626   3.186
  911SOL    HW2  480   0.906   2.631   3.097
  914SOL     OW  481   1.369   2.812   3.522
  914SOL    HW1  482   1.408   2.901   3.542
  914SOL    HW2  483   1.379   2.792   3.425
  915SOL     OW  484   0.815   2.434   2.187
  915SOL    HW1  485   0.822   2.345   2.141
  915SOL    HW2  486   0.721   2.468   2.179
  916SOL     OW  487   1.657   2.466   3.068
  916SOL    HW1  488   1.619   2.397   3.130
  916SOL    HW2  489   1.739   2.430   3.024
  922SOL     OW  490   1.347   2.921   3.096
  922SOL    HW1  491   1.371   2.858   3.022
  922SOL    HW2  492   1.257   2.961   3.078
  923SOL     OW  493   1.302   2.717   2.171
  923SOL    HW1  494   1.216   2.686   2.213
  923SOL    HW2  495   1.298   2.703   2.072
  924SOL     OW  496   1.759   3.609   3.016
  924SOL    HW1  497   1.820   3.639   2.943
  924SOL    HW2  498   1.721   3.520   2.994
  925SOL     OW  499   1.252   3.593   2.990
  925SOL    HW1  500   1.336   3.598   2.936
  925SOL    HW2  501   1.229   3.497   3.008
  928SOL     OW  502   1.726   1.997   2.385
  928SOL    HW1  503   1.799   1.980   2.318
  928SOL    HW2  504   1.695   1.910   2.423
  929SOL     OW  505   1.388   3.435   2.339
  929SOL    HW1  506   1.455   3.447   2.265
  929SOL    HW2  507   1.348   3.524   2.362
  931SOL     OW  508   1.280   2.789   2.534
  931SOL    HW1  509   1.340   2.708   2.536
  931SOL    HW2  510   1.320   2.858   2.474
  934SOL     OW  511   1.650   3.582   3.256
  934SOL    HW1  512   1.703   3.592   3.172
  934SOL    HW2  513   1.623   3.672   3.290
  935SOL     OW  514   1.841   2.037   2.825
  935SOL    HW1  515   1.880   1.952   2.789
  935SOL    HW2  516   1.743   2.039   2.806
  937SOL     OW  517   1.194   3.474   1.893
  937SOL    HW1  518   1.200   3.381   1.930
  937SOL    HW2  519   1.135   3.474   1.813
  939SOL     OW  520   0.916   2.772   2.153
  939SOL    HW1  521   0.979   2.810   2.085
  939SOL    HW2  522   0.956   2.689   2.192
  940SOL     OW  523   1.504   3.469   1.906
  940SOL    HW1  524   1.412   3.506   1.913
  940SOL    HW2  525   1.542   3.489   1.816
  942SOL     OW  526   1.614   3.154   3.151
  942SOL    HW1  527   1.674   3.157   3.231
  942SOL    HW2  528   1.539   3.218   3.164
  943SOL     OW  529   1.039   2.960   2.558
  943SOL    HW1  530   0.969   2.913   2.612
  943SOL    HW2  531   1.098   2.892   2.515
  944SOL     OW  532   1.014   2.098   2.833
  944SOL    HW1  533   1.006   2.062   2.740
  944SOL    HW2  534   1.012   2.022   2.898
  946SOL     OW  535   1.709   2.247   3.243
  946SOL    HW1  536   1.782   2.316   3.247
  946SOL    HW2  537   1.737   2.172   3.184
  951SOL     OW  538   1.440   2.718   3.260
  951SOL    HW1  539   1.383   2.770   3.197
  951SOL    HW2  540   1.536   2.730   3.236
  953SOL     OW  541   1.183   3.197   1.981
  953SOL    HW1  542   1.084   3.186   1.983
  953SOL    HW2  543   1.217   3.212   2.074
  955SOL     OW  544   1.493   3.629   2.821
  955SOL    HW1  545   1.526   3.693   2.752
  955SOL    HW2  546   1.559   3.623   2.896
  957SOL     OW  547   1.450   3.082   3.495
  957SOL    HW1  548   1.441   3.072   3.594
  957SOL    HW2  549   1.546   3.075   3.469
  959SOL     OW  550   1.674   2.745   3.116
  959SOL    HW1  551   1.647   2.656   3.079
  959SOL    HW2  552   1.675   2.813   3.043
  960SOL     OW  553   1.225   2.187   2.311
  960SOL    HW1  554   1.290   2.113   2.300
  960SOL    HW2  555   1.245   2.237   2.395
  962SOL     OW  556   1.777   2.204   3.504
  962SOL    HW1  557   1.760   2.235   3.410
  962SOL    HW2  558   1.693   2.167   3.542
  963SOL     OW  559   1.730   2.796   3.379
  963SOL    HW1  560   1.768   2.887   3.394
  963SOL    HW2  561   1.722   2.779   3.280
  966SOL     OW  562   0.859   2.818   2.723
  966SOL    HW1  563   0.913   2.749   2.771
  966SOL    HW2  564   0.827   2.887   2.789
  967SOL     OW  565   1.083   2.846   1.949
  967SOL    HW1  566   1.060   2.899   1.867
  967SOL    HW2  567   1.164   2.790   1.930
  968SOL     OW  568   1.861   3.431   2.713
  968SOL    HW1  569   1.790   3.419   2.643
  968SOL    HW2  570   1.862   3.352   2.773
  972SOL     OW  571   1.824   2.054   3.089
  972SOL    HW1  572   1.820   1.964   3.133
  972SOL    HW2  573   1.827   2.043   2.990
  974SOL     OW  574   1.705   3.349   2.966
  974SOL    HW1  575   1.612   3.324   2.939
  974SOL    HW2  576   1.731   3.299   3.048
  977SOL     OW  577   1.424   2.076   2.974
  977SOL    HW1  578   1.476   2.011   3.029
  977SOL    HW2  579   1.375   2.139   3.035
  978SOL     OW  580   1.001   1.896   3.016
  978SOL    HW1  581   0.938   1.824   2.985
  978SOL    HW2  582   1.094   1.860   3.016
  981SOL     OW  583   1.352   1.914   2.030
  981SOL    HW1  584   1.387   1.873   1.946
  981SOL    HW2  585   1.262   1.876   2.050
  982SOL     OW  586   1.300   2.315   2.553
  982SOL    HW1  587   1.241   2.395   2.557
  982SOL    HW2  588   1.315   2.280   2.646
  983SOL     OW  589   1.593   2.083   2.744
  983SOL    HW1  590   1.509   2.082   2.798
  983SOL    HW2  591   1.595   2.166   2.688
  992SOL     OW  592   1.755   2.469   3.955
  992SOL    HW1  593   1.743   2.456   3.856
  992SOL    HW2  594   1.725   2.388   4.004
 1009SOL     OW  595   1.525   2.861   3.914
 1009SOL    HW1  596   1.462   2.785   3.927
 1009SOL    HW2  597   1.573   2.879   4.000
 1026SOL     OW  598   1.632   3.239   3.805
 1026SOL    HW1  599   1.600   3.333   3.795
 1026SOL    HW2  600   1.556   3.176   3.793
 1036SOL     OW  601   1.434   3.050   3.765
 1036SOL    HW1  602   1.466   2.974   3.822
 1036SOL    HW2  603   1.342   3.077   3.795
 1047SOL     OW  604   1.857   2.695   4.101
 1047SOL    HW1  605   1.899   2.631   4.165
 1047SOL    HW2  606   1.819   2.644   4.023
 1050SOL     OW  607   1.390   2.437   3.802
 1050SOL    HW1  608   1.336   2.416   3.883
 1050SOL    HW2  609   1.481   2.396   3.811
 1068SOL     OW  610   1.540   2.136   3.849
 1068SOL    HW1  611   1.479   2.061   3.872
 1068SOL    HW2  612   1.562   2.188   3.932
 1069SOL     OW  613   1.303   2.700   3.766
 1069SOL    HW1  614   1.337   2.607   3.781
 1069SOL    HW2  615   1.321   2.727   3.671
 1297SOL     OW  616   1.400   3.831   2.288
 1297SOL    HW1  617   1.376   3.794   2.198
 1297SOL    HW2  618   1.499   3.847   2.292
 1361SOL     OW  619   1.726   3.859   2.385
 1361SOL    HW1  620   1.799   3.842   2.318
 1361SOL    HW2  621   1.695   3.772   2.423
 1363SOL     OW  622   1.841   3.899   2.825
 1363SOL    HW1  623   1.880   3.814   2.789
 1363SOL    HW2  624   1.743   3.901   2.806
 1387SOL     OW  625   1.824   3.916   3.089
 1387SOL    HW1  626   1.820   3.826   3.133
 1387SOL    HW2  627   1.827   3.905   2.990
 1393SOL     OW  628   1.352   3.776   2.030
 1393SOL    HW1  629   1.387   3.735   1.946
 1393SOL    HW2  630   1.262   3.738   2.050
 1395SOL     OW  631   1.593   3.945   2.744
 1395SOL    HW1  632   1.509   3.944   2.798
 1395SOL    HW2  633   1.595   4.028   2.688
 1492SOL     OW  634   2.431   1.275   1.165
 1492SOL    HW1  635   2.338   1.268   1.128
 1492SOL    HW2  636   2.442   1.364   1.209
 1499SOL     OW  637   2.548   1.161   1.803
 1499SOL    HW1  638   2.608   1.240   1.817
 1499SOL    HW2  639   2.462   1.192   1.762
 1500SOL     OW  640   2.197   1.435   1.061
 1500SOL    HW1  641   2.119   1.404   1.008
 1500SOL    HW2  642   2.255   1.493   1.004
 1501SOL     OW  643   3.322   1.505   1.339
 1501SOL    HW1  644   3.346   1.599   1.365
 1501SOL    HW2  645   3.306   1.451   1.421
 1505SOL     OW  646   2.989   1.341   1.690
 1505SOL    HW1  647   3.036   1.341   1.778
 1505SOL    HW2  648   2.941   1.254   1.679
 1508SOL     OW  649   2.482   1.786   1.439
 1508SOL    HW1  650   2.390   1.769   1.474
 1508SOL    HW2  651   2.510   1.878   1.465
 1518SOL     OW  652   3.155   1.228   1.423
 1518SOL    HW1  653   3.192   1.155   1.365
 1518SOL    HW2  654   3.207   1.233   1.508
 1522SOL     OW  655   3.049   1.792   1.616
 1522SOL    HW1  656   3.073   1.852   1.540
 1522SOL    HW2  657   3.056   1.697   1.586
 1535SOL     OW  658   1.992   1.821   1.571
 1535SOL    HW1  659   1.982   1.806   1.670
 1535SOL    HW2  660   1.906   1.857   1.535
 1541SOL     OW  661   2.213   1.801   0.853
 1541SOL    HW1  662   2.263   1.715   0.859
 1541SOL    HW2  663   2.278   1.878   0.850
 1543SOL     OW  664   3.089   1.550   1.506
 1543SOL    HW1  665   3.095   1.473   1.570
 1543SOL    HW2  666   3.037   1.524   1.426
 1546SOL     OW  667   2.323   1.266   1.727
 1546SOL    HW1  668   2.273   1.267   1.641
 1546SOL    HW2  669   2.260   1.248   1.803
 1552SOL     OW  670   2.111   1.785   1.241
 1552SOL    HW1  671   2.168   1.720   1.291
 1552SOL    HW2  672   2.095   1.752   1.148
 1553SOL     OW  673   2.802   1.698   0.904
 1553SOL    HW1  674   2.882   1.641   0.925
 1553SOL    HW2  675   2.753   1.658   0.827
 1558SOL     OW  676   2.750   1.514   1.195
 1558SOL    HW1  677   2.727   1.489   1.101
 1558SOL    HW2  678   2.811   1.445   1.234
 1583SOL     OW  679   2.926   1.347   1.340
 1583SOL    HW1  680   2.846   1.324   1.395
 1583SOL    HW2  681   3.009   1.321   1.389
 1584SOL     OW  682   3.454   1.629   1.625
 1584SOL    HW1  683   3.481   1.663   1.535
 1584SOL    HW2  684   3.533   1.591   1.671
 1588SOL     OW  685   2.842   1.116   1.719
 1588SOL    HW1  686   2.743   1.122   1.729
 1588SOL    HW2  687   2.865   1.036   1.663
 1592SOL     OW  688   1.926   1.564   1.331
 1592SOL    HW1  689   1.880   1.646   1.297
 1592SOL    HW2  690   2.024   1.583   1.340
 1596SOL     OW  691   3.134   1.445   1.142
 1596SOL    HW1  692   3.181   1.458   1.229
 1596SOL    HW2  693   3.068   1.371   1.151
 1598SOL     OW  694   2.216   1.510   1.329
 1598SOL    HW1  695   2.195   1.466   1.242
 1598SOL    HW2  696   2.313   1.536   1.332
 1607SOL     OW  697   1.899   1.310   1.282
 1607SOL    HW1  698   1.952   1.261   1.350
 1607SOL    HW2  699   1.921   1.408   1.287
 1613SOL     OW  700   2.842   1.573   1.700
 1613SOL    HW1  701   2.822   1.617   1.612
 1613SOL    HW2  702   2.881   1.482   1.684
 1614SOL     OW  703   3.721   1.518   1.605
 1614SOL    HW1  704   3.735   1.545   1.510
 1614SOL    HW2  705   3.804   1.540   1.658
 1615SOL     OW  706   2.212   0.898   1.804
 1615SOL    HW1  707   2.288   0.942   1.852
 1615SOL    HW2  708   2.247   0.851   1.722
 1624SOL     OW  709   1.950   1.801   0.927
 1624SOL    HW1  710   1.908   1.715   0.900
 1624SOL    HW2  711   2.044   1.804   0.893
 1625SOL     OW  712   2.366   1.568   0.910
 1625SOL    HW1  713   2.432   1.642   0.919
 1625SOL    HW2  714   2.410   1.489   0.868
 1632SOL     OW  715   2.114   1.564   1.744
 1632SOL    HW1  716   2.084   1.621   1.820
 1632SOL    HW2  717   2.107   1.467   1.770
 1634SOL     OW  718   2.792   1.678   1.465
 1634SOL    HW1  719   2.768   1.660   1.370
 1634SOL    HW2  720   2.822   1.772   1.475
 1636SOL     OW  721   2.021   1.137   1.466
 1636SOL    HW1  722   2.043   1.076   1.542
 1636SOL    HW2  723   2.031   1.088   1.380
 1640SOL     OW  724   3.114   1.731   1.128
 1640SOL    HW1  725   3.198   1.736   1.074
 1640SOL    HW2  726   3.091   1.635   1.146
 1642SOL     OW  727   2.550   1.662   1.716
 1642SOL    HW1  728   2.494   1.743   1.725
 1642SOL    HW2  729   2.602   1.666   1.630
 1646SOL     OW  730   1.992   1.794   1.851
 1646SOL    HW1  731   1.951   1.720   1.904
 1646SOL    HW2  732   2.056   1.845   1.909
 1648SOL     OW  733   2.692   1.273   1.422
 1648SOL    HW1  734   2.687   1.306   1.517
 1648SOL    HW2  735   2.606   1.292   1.376
 1650SOL     OW  736   3.512   1.720   1.394
 1650SOL    HW1  737   3.565   1.730   1.310
 1650SOL    HW2  738   3.485   1.810   1.428
 1657SOL     OW  739   2.234   1.288   1.490
 1657SOL    HW1  740   2.221   1.381   1.456
 1657SOL    HW2  741   2.150   1.236   1.477
 1664SOL     OW  742   1.967   1.013   1.726
 1664SOL    HW1  743   1.890   0.980   1.780
 1664SOL    HW2  744   2.052   0.983   1.768
 1672SOL     OW  745   3.312   1.220   1.633
 1672SOL    HW1  746   3.303   1.210   1.732
 1672SOL    HW2  747   3.408   1.213   1.607
 1673SOL     OW  748   2.252   1.741   1.560
 1673SOL    HW1  749   2.161   1.782   1.558
 1673SOL    HW2  750   2.245   1.647   1.592
 1680SOL     OW  751   2.523   1.790   0.953
 1680SOL    HW1  752   2.477   1.878   0.940
 1680SOL    HW2  753   2.622   1.802   0.946
 1684SOL     OW  754   2.083   1.314   1.844
 1684SOL    HW1  755   2.018   1.241   1.823
 1684SOL    HW2  756   2.087   1.328   1.942
 1686SOL     OW  757   2.534   1.391   1.624
 1686SOL    HW1  758   2.456   1.341   1.662
 1686SOL    HW2  759   2.531   1.486   1.655
 1695SOL     OW  760   2.480   1.567   1.284
 1695SOL    HW1  761   2.475   1.649   1.341
 1695SOL    HW2  762   2.569   1.564   1.239
 1704SOL     OW  763   2.431   1.275   3.027
 1704SOL    HW1  764   2.338   1.268   2.990
 1704SOL    HW2  765   2.442   1.364   3.071
 1705SOL     OW  766   3.417   1.511   2.565
 1705SOL    HW1  767   3.360   1.495   2.646
 1705SOL    HW2  768   3.358   1.521   2.485
 1708SOL     OW  769   2.630   1.144   2.885
 1708SOL    HW1  770   2.552   1.161   2.945
 1708SOL    HW2  771   2.664   1.231   2.849
 1710SOL     OW  772   2.547   1.012   2.527
 1710SOL    HW1  773   2.616   0.996   2.597
 1710SOL    HW2  774   2.474   1.069   2.565
 1711SOL     OW  775   2.548   1.161   3.665
 1711SOL    HW1  776   2.608   1.240   3.679
 1711SOL    HW2  777   2.462   1.192   3.624
 1712SOL     OW  778   2.197   1.435   2.923
 1712SOL    HW1  779   2.119   1.404   2.870
 1712SOL    HW2  780   2.255   1.493   2.866
 1713SOL     OW  781   3.322   1.505   3.201
 1713SOL    HW1  782   3.346   1.599   3.227
 1713SOL    HW2  783   3.306   1.451   3.283
 1716SOL     OW  784   2.093   1.713   2.345
 1716SOL    HW1  785   2.127   1.790   2.399
 1716SOL    HW2  786   2.137   1.713   2.255
 1717SOL     OW  787   2.989   1.341   3.552
 1717SOL    HW1  788   3.036   1.341   3.640
 1717SOL    HW2  789   2.941   1.254   3.541
 1718SOL     OW  790   2.092   1.434   2.400
 1718SOL    HW1  791   2.066   1.530   2.400
 1718SOL    HW2  792   2.021   1.380   2.445
 1719SOL     OW  793   2.102   1.091   2.748
 1719SOL    HW1  794   2.116   1.007   2.800
 1719SOL    HW2  795   2.047   1.155   2.803
 1720SOL     OW  796   2.482   1.786   3.301
 1720SOL    HW1  797   2.390   1.769   3.336
 1720SOL    HW2  798   2.510   1.878   3.327
 1721SOL     OW  799   2.468   0.964   1.985
 1721SOL    HW1  800   2.475   1.048   1.931
 1721SOL    HW2  801   2.514   0.977   2.073
 1724SOL     OW  802   3.704   1.767   2.221
 1724SOL    HW1  803   3.758   1.738   2.301
 1724SOL    HW2  804   3.734   1.857   2.192
 1725SOL     OW  805   1.889   1.596   1.979
 1725SOL    HW1  806   1.870   1.500   2.000
 1725SOL    HW2  807   1.856   1.654   2.054
 1727SOL     OW  808   3.503   1.108   2.294
 1727SOL    HW1  809   3.589   1.110   2.242
 1727SOL    HW2  810   3.517   1.155   2.382
 1729SOL     OW  811   2.475   1.365   2.588
 1729SOL    HW1  812   2.426   1.278   2.597
 1729SOL    HW2  813   2.452   1.408   2.501
 1730SOL     OW  814   3.155   1.228   3.285
 1730SOL    HW1  815   3.192   1.155   3.227
 1730SOL    HW2  816   3.207   1.233   3.370
 1732SOL     OW  817   2.059   0.976   3.126
 1732SOL    HW1  818   2.148   0.931   3.112
 1732SOL    HW2  819   1.986   0.911   3.107
 1733SOL     OW  820   3.387   0.999   2.052
 1733SOL    HW1  821   3.324   0.923   2.065
 1733SOL    HW2  822   3.435   1.017   2.138
 1734SOL     OW  823   3.049   1.792   3.478
 1734SOL    HW1  824   3.073   1.852   3.402
 1734SOL    HW2  825   3.056   1.697   3.448
 1736SOL     OW  826   3.328   1.417   2.815
 1736SOL    HW1  827   3.269   1.423   2.895
 1736SOL    HW2  828   3.313   1.329   2.769
 1737SOL     OW  829   3.529   1.714   2.434
 1737SOL    HW1  830   3.488   1.691   2.346
 1737SOL    HW2  831   3.511   1.640   2.499
 1738SOL     OW  832   2.460   0.729   2.132
 1738SOL    HW1  833   2.484   0.798   2.064
 1738SOL    HW2  834   2.382   0.762   2.186
 1740SOL     OW  835   3.438   1.662   2.169
 1740SOL    HW1  836   3.527   1.708   2.172
 1740SOL    HW2  837   3.417   1.638   2.074
 1746SOL     OW  838   1.938   0.811   2.651
 1746SOL    HW1  839   2.037   0.799   2.660
 1746SOL    HW2  840   1.914   0.906   2.672
 1747SOL     OW  841   1.992   1.821   3.433
 1747SOL    HW1  842   1.982   1.806   3.532
 1747SOL    HW2  843   1.906   1.857   3.397
 1750SOL     OW  844   3.224   1.144   2.407
 1750SOL    HW1  845   3.307   1.115   2.359
 1750SOL    HW2  846   3.175   1.211   2.351
 1752SOL     OW  847   2.870   1.456   2.339
 1752SOL    HW1  848   2.824   1.528   2.287
 1752SOL    HW2  849   2.866   1.476   2.437
 1753SOL     OW  850   2.213   1.801   2.715
 1753SOL    HW1  851   2.263   1.715   2.721
 1753SOL    HW2  852   2.278   1.878   2.712
 1755SOL     OW  853   3.089   1.550   3.368
 1755SOL    HW1  854   3.095   1.473   3.432
 1755SOL    HW2  855   3.037   1.524   3.288
 1756SOL     OW  856   2.183   0.943   2.104
 1756SOL    HW1  857   2.265   0.982   2.062
 1756SOL    HW2  858   2.156   0.861   2.055
 1758SOL     OW  859   2.323   1.266   3.589
 1758SOL    HW1  860   2.273   1.267   3.503
 1758SOL    HW2  861   2.260   1.248   3.665
 1759SOL     OW  862   2.973   1.776   2.099
 1759SOL    HW1  863   2.913   1.714   2.149
 1759SOL    HW2  864   3.004   1.732   2.014
 1761SOL     OW  865   3.494   1.377   1.943
 1761SOL    HW1  866   3.462   1.471   1.933
 1761SOL    HW2  867   3.418   1.314   1.931
 1762SOL     OW  868   2.326   1.743   2.185
 1762SOL    HW1  869   2.359   1.782   2.271
 1762SOL    HW2  870   2.402   1.736   2.120
 1764SOL     OW  871   2.111   1.785   3.103
 1764SOL    HW1  872   2.168   1.720   3.153
 1764SOL    HW2  873   2.095   1.752   3.010
 1765SOL     OW  874   2.802   1.698   2.766
 1765SOL    HW1  875   2.882   1.641   2.787
 1765SOL    HW2  876   2.753   1.658   2.689
 1766SOL     OW  877   2.244   0.700   2.342
 1766SOL    HW1  878   2.289   0.610   2.339
 1766SOL    HW2  879   2.150   0.689   2.375
 1770SOL     OW  880   2.750   1.514   3.057
 1770SOL    HW1  881   2.727   1.489   2.963
 1770SOL    HW2  882   2.811   1.445   3.096
 1772SOL     OW  883   2.665   1.402   2.786
 1772SOL    HW1  884   2.755   1.416   2.744
 1772SOL    HW2  885   2.594   1.404   2.715
 1775SOL     OW  886   3.296   1.188   1.903
 1775SOL    HW1  887   3.328   1.112   1.960
 1775SOL    HW2  888   3.204   1.215   1.933
 1779SOL     OW  889   3.089   1.570   2.655
 1779SOL    HW1  890   3.110   1.644   2.590
 1779SOL    HW2  891   3.157   1.570   2.728
 1780SOL     OW  892   2.321   1.152   2.603
 1780SOL    HW1  893   2.250   1.125   2.668
 1780SOL    HW2  894   2.295   1.124   2.510
 1781SOL     OW  895   3.133   1.797   2.453
 1781SOL    HW1  896   3.177   1.861   2.389
 1781SOL    HW2  897   3.083   1.849   2.523
 1787SOL     OW  898   3.291   1.173   2.729
 1787SOL    HW1  899   3.236   1.089   2.722
 1787SOL    HW2  900   3.317   1.202   2.637
 1790SOL     OW  901   2.350   1.385   2.036
 1790SOL    HW1  902   2.263   1.370   2.083
 1790SOL    HW2  903   2.333   1.411   1.941
 1791SOL     OW  904   3.526   1.280   2.519
 1791SOL    HW1  905   3.625   1.288   2.533
 1791SOL    HW2  906   3.481   1.364   2.550
 1795SOL     OW  907   2.926   1.347   3.202
 1795SOL    HW1  908   2.846   1.324   3.257
 1795SOL    HW2  909   3.009   1.321   3.251
 1796SOL     OW  910   3.454   1.629   3.487
 1796SOL    HW1  911   3.481   1.663   3.397
 1796SOL    HW2  912   3.533   1.591   3.533
 1797SOL     OW  913   2.973   1.195   2.962
 1797SOL    HW1  914   2.933   1.239   3.043
 1797SOL    HW2  915   2.932   1.232   2.879
 1798SOL     OW  916   3.500   1.099   2.941
 1798SOL    HW1  917   3.505   1.180   3.000
 1798SOL    HW2  918   3.414   1.101   2.890
 1800SOL     OW  919   2.842   1.116   3.581
 1800SOL    HW1  920   2.743   1.122   3.591
 1800SOL    HW2  921   2.865   1.036   3.525
 1801SOL     OW  922   2.567   1.050   2.230
 1801SOL    HW1  923   2.553   1.057   2.329
 1801SOL    HW2  924   2.651   0.999   2.212
 1802SOL     OW  925   2.272   0.813   3.113
 1802SOL    HW1  926   2.358   0.825   3.163
 1802SOL    HW2  927   2.230   0.726   3.140
 1804SOL     OW  928   1.926   1.564   3.193
 1804SOL    HW1  929   1.880   1.646   3.159
 1804SOL    HW2  930   2.024   1.583   3.202
 1805SOL     OW  931   2.229   1.100   2.363
 1805SOL    HW1  932   2.222   1.183   2.307
 1805SOL    HW2  933   2.233   1.020   2.303
 1807SOL     OW  934   3.114   1.348   2.250
 1807SOL    HW1  935   3.164   1.425   2.290
 1807SOL    HW2  936   3.019   1.350   2.282
 1808SOL     OW  937   3.134   1.445   3.004
 1808SOL    HW1  938   3.181   1.458   3.091
 1808SOL    HW2  939   3.068   1.371   3.013
 1810SOL     OW  940   2.216   1.510   3.191
 1810SOL    HW1  941   2.195   1.466   3.104
 1810SOL    HW2  942   2.313   1.536   3.194
 1815SOL     OW  943   2.435   0.870   2.891
 1815SOL    HW1  944   2.479   0.959   2.882
 1815SOL    HW2  945   2.372   0.870   2.968
 1819SOL     OW  946   1.899   1.310   3.144
 1819SOL    HW1  947   1.952   1.261   3.212
 1819SOL    HW2  948   1.921   1.408   3.149
 1824SOL     OW  949   2.885   0.766   2.828
 1824SOL    HW1  950   2.900   0.787   2.924
 1824SOL    HW2  951   2.855   0.671   2.819
 1825SOL     OW  952   2.842   1.573   3.562
 1825SOL    HW1  953   2.822   1.617   3.474
 1825SOL    HW2  954   2.881   1.482   3.546
 1830SOL     OW  955   2.930   1.333   2.711
 1830SOL    HW1  956   2.937   1.249   2.656
 1830SOL    HW2  957   2.992   1.402   2.675
 1831SOL     OW  958   2.181   0.810   2.811
 1831SOL    HW1  959   2.274   0.846   2.816
 1831SOL    HW2  960   2.175   0.725   2.863
 1835SOL     OW  961   1.870   1.326   2.062
 1835SOL    HW1  962   1.777   1.347   2.031
 1835SOL    HW2  963   1.880   1.227   2.075
 1836SOL     OW  964   1.950   1.801   2.789
 1836SOL    HW1  965   1.908   1.715   2.762
 1836SOL    HW2  966   2.044   1.804   2.755
 1837SOL     OW  967   2.366   1.568   2.772
 1837SOL    HW1  968   2.432   1.642   2.781
 1837SOL    HW2  969   2.410   1.489   2.730
 1844SOL     OW  970   2.114   1.564   3.606
 1844SOL    HW1  971   2.084   1.621   3.682
 1844SOL    HW2  972   2.107   1.467   3.632
 1846SOL     OW  973   2.792   1.678   3.327
 1846SOL    HW1  974   2.768   1.660   3.232
 1846SOL    HW2  975   2.822   1.772   3.337
 1848SOL     OW  976   2.021   1.137   3.328
 1848SOL    HW1  977   2.043   1.076   3.404
 1848SOL    HW2  978   2.031   1.088   3.242
 1849SOL     OW  979   3.209   1.059   3.096
 1849SOL    HW1  980   3.233   0.996   3.022
 1849SOL    HW2  981   3.119   1.099   3.078
 1850SOL     OW  982   3.164   0.855   2.171
 1850SOL    HW1  983   3.078   0.824   2.213
 1850SOL    HW2  984   3.160   0.841   2.072
 1851SOL     OW  985   3.621   1.747   3.016
 1851SOL    HW1  986   3.682   1.777   2.943
 1851SOL    HW2  987   3.583   1.658   2.994
 1852SOL     OW  988   3.114   1.731   2.990
 1852SOL    HW1  989   3.198   1.736   2.936
 1852SOL    HW2  990   3.091   1.635   3.008
 1853SOL     OW  991   1.945   1.258   2.884
 1853SOL    HW1  992   1.940   1.257   2.984
 1853SOL    HW2  993   1.862   1.217   2.846
 1854SOL     OW  994   2.550   1.662   3.578
 1854SOL    HW1  995   2.494   1.743   3.587
 1854SOL    HW2  996   2.602   1.666   3.492
 1856SOL     OW  997   3.250   1.573   2.339
 1856SOL    HW1  998   3.317   1.585   2.265
 1856SOL    HW2  999   3.210   1.662   2.362
 1857SOL     OW 1000   1.992   1.794   3.713
 1857SOL    HW1 1001   1.951   1.720   3.766
 1857SOL    HW2 1002   2.056   1.845   3.771
 1858SOL     OW 1003   3.142   0.927   2.534
 1858SOL    HW1 1004   3.202   0.846   2.536
 1858SOL    HW2 1005   3.182   0.996   2.474
 1859SOL     OW 1006   2.692   1.273   3.284
 1859SOL    HW1 1007   2.687   1.306   3.379
 1859SOL    HW2 1008   2.606   1.292   3.238
 1860SOL     OW 1009   2.534   1.616   2.016
 1860SOL    HW1 1010   2.543   1.626   1.917
 1860SOL    HW2 1011   2.494   1.527   2.037
 1861SOL     OW 1012   3.512   1.720   3.256
 1861SOL    HW1 1013   3.565   1.730   3.172
 1861SOL    HW2 1014   3.485   1.810   3.290
 1864SOL     OW 1015   3.056   1.612   1.893
 1864SOL    HW1 1016   3.062   1.519   1.930
 1864SOL    HW2 1017   2.997   1.612   1.813
 1865SOL     OW 1018   2.684   1.002   3.234
 1865SOL    HW1 1019   2.724   1.001   3.142
 1865SOL    HW2 1020   2.694   1.094   3.274
 1866SOL     OW 1021   2.778   0.910   2.153
 1866SOL    HW1 1022   2.841   0.948   2.085
 1866SOL    HW2 1023   2.818   0.827   2.192
 1867SOL     OW 1024   3.366   1.607   1.906
 1867SOL    HW1 1025   3.274   1.644   1.913
 1867SOL    HW2 1026   3.404   1.627   1.816
 1868SOL     OW 1027   2.234   1.288   3.352
 1868SOL    HW1 1028   2.221   1.381   3.318
 1868SOL    HW2 1029   2.150   1.236   3.339
 1869SOL     OW 1030   3.476   1.292   3.151
 1869SOL    HW1 1031   3.536   1.295   3.231
 1869SOL    HW2 1032   3.401   1.356   3.164
 1870SOL     OW 1033   2.901   1.098   2.558
 1870SOL    HW1 1034   2.831   1.051   2.612
 1870SOL    HW2 1035   2.960   1.030   2.515
 1872SOL     OW 1036   2.452   1.487   2.353
 1872SOL    HW1 1037   2.494   1.429   2.283
 1872SOL    HW2 1038   2.408   1.566   2.309
 1874SOL     OW 1039   2.117   1.348   2.152
 1874SOL    HW1 1040   2.021   1.349   2.125
 1874SOL    HW2 1041   2.129   1.401   2.236
 1880SOL     OW 1042   3.045   1.335   1.981
 1880SOL    HW1 1043   2.946   1.324   1.983
 1880SOL    HW2 1044   3.079   1.350   2.074
 1882SOL     OW 1045   3.355   1.767   2.821
 1882SOL    HW1 1046   3.388   1.831   2.752
 1882SOL    HW2 1047   3.421   1.761   2.896
 1885SOL     OW 1048   2.252   1.741   3.422
 1885SOL    HW1 1049   2.161   1.782   3.420
 1885SOL    HW2 1050   2.245   1.647   3.454
 1888SOL     OW 1051   2.456   0.745   2.514
 1888SOL    HW1 1052   2.506   0.830   2.495
 1888SOL    HW2 1053   2.368   0.747   2.466
 1891SOL     OW 1054   2.721   1.374   1.878
 1891SOL    HW1 1055   2.675   1.389   1.966
 1891SOL    HW2 1056   2.765   1.459   1.848
 1892SOL     OW 1057   2.523   1.790   2.815
 1892SOL    HW1 1058   2.477   1.878   2.802
 1892SOL    HW2 1059   2.622   1.802   2.808
 1893SOL     OW 1060   2.721   0.956   2.723
 1893SOL    HW1 1061   2.775   0.887   2.771
 1893SOL    HW2 1062   2.689   1.025   2.789
 1894SOL     OW 1063   2.945   0.984   1.949
 1894SOL    HW1 1064   2.922   1.037   1.867
 1894SOL    HW2 1065   3.026   0.928   1.930
 1895SOL     OW 1066   3.723   1.569   2.713
 1895SOL    HW1 1067   3.652   1.557   2.643
 1895SOL    HW2 1068   3.724   1.490   2.773
 1896SOL     OW 1069   2.083   1.314   3.706
 1896SOL    HW1 1070   2.018   1.241   3.685
 1896SOL    HW2 1071   2.087   1.328   3.804
 1897SOL     OW 1072   1.941   1.240   2.515
 1897SOL    HW1 1073   1.940   1.193   2.603
 1897SOL    HW2 1074   2.023   1.212   2.464
 1898SOL     OW 1075   2.534   1.391   3.486
 1898SOL    HW1 1076   2.456   1.341   3.524
 1898SOL    HW2 1077   2.531   1.486   3.517
 1901SOL     OW 1078   3.567   1.487   2.966
 1901SOL    HW1 1079   3.474   1.462   2.939
 1901SOL    HW2 1080   3.593   1.437   3.048
 1903SOL     OW 1081   2.674   1.586   2.549
 1903SOL    HW1 1082   2.706   1.596   2.455
 1903SOL    HW2 1083   2.595   1.524   2.551
 1906SOL     OW 1084   2.632   1.330   2.163
 1906SOL    HW1 1085   2.586   1.243   2.180
 1906SOL    HW2 1086   2.723   1.327   2.204
 1907SOL     OW 1087   2.480   1.567   3.146
 1907SOL    HW1 1088   2.475   1.649   3.203
 1907SOL    HW2 1089   2.569   1.564   3.101
 1911SOL     OW 1090   1.901   1.077   2.162
 1911SOL    HW1 1091   2.000   1.066   2.153
 1911SOL    HW2 1092   1.861   0.991   2.194
 1912SOL     OW 1093   2.737   1.646   2.199
 1912SOL    HW1 1094   2.660   1.611   2.145
 1912SOL    HW2 1095   2.705   1.717   2.261
 1930SOL     OW 1096   1.889   1.596   3.841
 1930SOL    HW1 1097   1.870   1.500   3.862
 1930SOL    HW2 1098   1.856   1.654   3.916
 1952SOL     OW 1099   2.973   1.776   3.961
 1952SOL    HW1 1100   2.913   1.714   4.011
 1952SOL    HW2 1101   3.004   1.732   3.876
 1954SOL     OW 1102   2.326   1.743   4.047
 1954SOL    HW1 1103   2.359   1.782   4.133
 1954SOL    HW2 1104   2.402   1.736   3.982
 1975SOL     OW 1105   2.350   1.385   3.898
 1975SOL    HW1 1106   2.263   1.370   3.945
 1975SOL    HW2 1107   2.333   1.411   3.803
 2014SOL     OW 1108   2.534   1.616   3.878
 2014SOL    HW1 1109   2.543   1.626   3.779
 2014SOL    HW2 1110   2.494   1.527   3.899
 2017SOL     OW 1111   3.056   1.612   3.755
 2017SOL    HW1 1112   3.062   1.519   3.792
 2017SOL    HW2 1113   2.997   1.612   3.675
 2032SOL     OW 1114   2.721   1.374   3.740
 2032SOL    HW1 1115   2.675   1.389   3.828
 2032SOL    HW2 1116   2.765   1.459   3.710
 2049SOL     OW 1117   2.087   2.137   0.996
 2049SOL    HW1 1118   2.122   2.120   1.088
 2049SOL    HW2 1119   1.999   2.092   0.984
 2051SOL     OW 1120   2.431   3.137   1.165
 2051SOL    HW1 1121   2.338   3.130   1.128
 2051SOL    HW2 1122   2.442   3.226   1.209
 2055SOL     OW 1123   2.630   3.006   1.023
 2055SOL    HW1 1124   2.552   3.023   1.083
 2055SOL    HW2 1125   2.664   3.093   0.987
 2056SOL     OW 1126   2.712   2.660   1.823
 2056SOL    HW1 1127   2.708   2.736   1.888
 2056SOL    HW2 1128   2.734   2.696   1.732
 2058SOL     OW 1129   2.548   3.023   1.803
 2058SOL    HW1 1130   2.608   3.102   1.817
 2058SOL    HW2 1131   2.462   3.054   1.762
 2059SOL     OW 1132   2.197   3.297   1.061
 2059SOL    HW1 1133   2.119   3.266   1.008
 2059SOL    HW2 1134   2.255   3.355   1.004
 2060SOL     OW 1135   3.322   3.367   1.339
 2060SOL    HW1 1136   3.346   3.461   1.365
 2060SOL    HW2 1137   3.306   3.313   1.421
 2061SOL     OW 1138   2.300   2.254   1.499
 2061SOL    HW1 1139   2.382   2.198   1.508
 2061SOL    HW2 1140   2.219   2.196   1.503
 2064SOL     OW 1141   2.989   3.203   1.690
 2064SOL    HW1 1142   3.036   3.203   1.778
 2064SOL    HW2 1143   2.941   3.116   1.679
 2066SOL     OW 1144   2.102   2.953   0.886
 2066SOL    HW1 1145   2.116   2.869   0.938
 2066SOL    HW2 1146   2.047   3.017   0.941
 2067SOL     OW 1147   2.482   3.648   1.439
 2067SOL    HW1 1148   2.390   3.631   1.474
 2067SOL    HW2 1149   2.510   3.740   1.465
 2069SOL     OW 1150   3.456   1.976   1.480
 2069SOL    HW1 1151   3.438   2.043   1.408
 2069SOL    HW2 1152   3.453   2.022   1.569
 2075SOL     OW 1153   1.975   2.599   1.597
 2075SOL    HW1 1154   2.063   2.586   1.642
 2075SOL    HW2 1155   1.962   2.696   1.575
 2077SOL     OW 1156   3.155   3.090   1.423
 2077SOL    HW1 1157   3.192   3.017   1.365
 2077SOL    HW2 1158   3.207   3.095   1.508
 2079SOL     OW 1159   2.059   2.838   1.264
 2079SOL    HW1 1160   2.148   2.793   1.250
 2079SOL    HW2 1161   1.986   2.773   1.245
 2081SOL     OW 1162   3.049   3.654   1.616
 2081SOL    HW1 1163   3.073   3.714   1.540
 2081SOL    HW2 1164   3.056   3.559   1.586
 2082SOL     OW 1165   2.179   2.113   1.801
 2082SOL    HW1 1166   2.250   2.184   1.807
 2082SOL    HW2 1167   2.091   2.152   1.829
 2086SOL     OW 1168   3.143   2.207   0.944
 2086SOL    HW1 1169   3.057   2.157   0.931
 2086SOL    HW2 1170   3.205   2.153   1.000
 2088SOL     OW 1171   2.669   2.467   1.465
 2088SOL    HW1 1172   2.622   2.464   1.554
 2088SOL    HW2 1173   2.618   2.412   1.399
 2089SOL     OW 1174   3.256   2.331   1.674
 2089SOL    HW1 1175   3.236   2.374   1.762
 2089SOL    HW2 1176   3.334   2.269   1.683
 2090SOL     OW 1177   2.835   2.752   1.572
 2090SOL    HW1 1178   2.881   2.668   1.543
 2090SOL    HW2 1179   2.779   2.786   1.497
 2091SOL     OW 1180   2.853   2.272   1.242
 2091SOL    HW1 1181   2.776   2.306   1.296
 2091SOL    HW2 1182   2.819   2.221   1.163
 2093SOL     OW 1183   1.938   2.673   0.789
 2093SOL    HW1 1184   2.037   2.661   0.798
 2093SOL    HW2 1185   1.914   2.768   0.810
 2094SOL     OW 1186   1.992   3.683   1.571
 2094SOL    HW1 1187   1.982   3.668   1.670
 2094SOL    HW2 1188   1.906   3.719   1.535
 2096SOL     OW 1189   3.581   2.447   1.831
 2096SOL    HW1 1190   3.555   2.536   1.795
 2096SOL    HW2 1191   3.579   2.379   1.758
 2098SOL     OW 1192   2.412   2.058   0.885
 2098SOL    HW1 1193   2.407   2.053   0.985
 2098SOL    HW2 1194   2.414   2.154   0.856
 2102SOL     OW 1195   3.089   3.412   1.506
 2102SOL    HW1 1196   3.095   3.335   1.570
 2102SOL    HW2 1197   3.037   3.386   1.426
 2105SOL     OW 1198   2.323   3.128   1.727
 2105SOL    HW1 1199   2.273   3.129   1.641
 2105SOL    HW2 1200   2.260   3.110   1.803
 2107SOL     OW 1201   2.064   2.147   1.498
 2107SOL    HW1 1202   1.984   2.207   1.485
 2107SOL    HW2 1203   2.054   2.098   1.584
 2111SOL     OW 1204   2.111   3.647   1.241
 2111SOL    HW1 1205   2.168   3.582   1.291
 2111SOL    HW2 1206   2.095   3.614   1.148
 2114SOL     OW 1207   3.409   2.084   1.729
 2114SOL    HW1 1208   3.404   2.121   1.821
 2114SOL    HW2 1209   3.337   2.015   1.717
 2116SOL     OW 1210   2.643   2.126   1.749
 2116SOL    HW1 1211   2.710   2.065   1.792
 2116SOL    HW2 1212   2.570   2.145   1.814
 2117SOL     OW 1213   2.750   3.376   1.195
 2117SOL    HW1 1214   2.727   3.351   1.101
 2117SOL    HW2 1215   2.811   3.307   1.234
 2118SOL     OW 1216   3.213   2.452   1.433
 2118SOL    HW1 1217   3.241   2.409   1.518
 2118SOL    HW2 1218   3.238   2.548   1.434
 2119SOL     OW 1219   2.665   3.264   0.924
 2119SOL    HW1 1220   2.755   3.278   0.882
 2119SOL    HW2 1221   2.594   3.266   0.853
 2120SOL     OW 1222   2.784   2.365   0.899
 2120SOL    HW1 1223   2.759   2.356   0.803
 2120SOL    HW2 1224   2.832   2.283   0.930
 2125SOL     OW 1225   2.938   2.545   1.464
 2125SOL    HW1 1226   2.858   2.484   1.467
 2125SOL    HW2 1227   3.019   2.492   1.440
 2130SOL     OW 1228   1.940   2.418   1.386
 2130SOL    HW1 1229   2.032   2.417   1.345
 2130SOL    HW2 1230   1.934   2.492   1.453
 2131SOL     OW 1231   2.423   2.084   1.147
 2131SOL    HW1 1232   2.461   2.000   1.184
 2131SOL    HW2 1233   2.335   2.103   1.191
 2135SOL     OW 1234   3.328   2.452   0.992
 2135SOL    HW1 1235   3.298   2.357   0.999
 2135SOL    HW2 1236   3.401   2.468   1.058
 2141SOL     OW 1237   3.616   3.085   1.588
 2141SOL    HW1 1238   3.707   3.046   1.575
 2141SOL    HW2 1239   3.624   3.181   1.612
 2142SOL     OW 1240   2.926   3.209   1.340
 2142SOL    HW1 1241   2.846   3.186   1.395
 2142SOL    HW2 1242   3.009   3.183   1.389
 2143SOL     OW 1243   3.454   3.491   1.625
 2143SOL    HW1 1244   3.481   3.525   1.535
 2143SOL    HW2 1245   3.533   3.453   1.671
 2144SOL     OW 1246   2.973   3.057   1.100
 2144SOL    HW1 1247   2.933   3.101   1.181
 2144SOL    HW2 1248   2.932   3.094   1.017
 2145SOL     OW 1249   3.500   2.961   1.079
 2145SOL    HW1 1250   3.505   3.042   1.138
 2145SOL    HW2 1251   3.414   2.963   1.028
 2146SOL     OW 1252   2.777   1.951   1.402
 2146SOL    HW1 1253   2.802   1.931   1.307
 2146SOL    HW2 1254   2.849   2.007   1.444
 2147SOL     OW 1255   2.842   2.978   1.719
 2147SOL    HW1 1256   2.743   2.984   1.729
 2147SOL    HW2 1257   2.865   2.898   1.663
 2149SOL     OW 1258   2.272   2.675   1.251
 2149SOL    HW1 1259   2.358   2.687   1.301
 2149SOL    HW2 1260   2.230   2.588   1.278
 2150SOL     OW 1261   3.136   2.248   1.262
 2150SOL    HW1 1262   3.157   2.322   1.326
 2150SOL    HW2 1263   3.047   2.265   1.219
 2151SOL     OW 1264   1.926   3.426   1.331
 2151SOL    HW1 1265   1.880   3.508   1.297
 2151SOL    HW2 1266   2.024   3.445   1.340
 2153SOL     OW 1267   2.428   2.399   0.865
 2153SOL    HW1 1268   2.440   2.465   0.791
 2153SOL    HW2 1269   2.474   2.433   0.948
 2155SOL     OW 1270   3.134   3.307   1.142
 2155SOL    HW1 1271   3.181   3.320   1.229
 2155SOL    HW2 1272   3.068   3.233   1.151
 2157SOL     OW 1273   2.216   3.372   1.329
 2157SOL    HW1 1274   2.195   3.328   1.242
 2157SOL    HW2 1275   2.313   3.398   1.332
 2158SOL     OW 1276   2.264   2.613   1.598
 2158SOL    HW1 1277   2.332   2.668   1.551
 2158SOL    HW2 1278   2.304   2.525   1.625
 2159SOL     OW 1279   3.449   2.641   1.670
 2159SOL    HW1 1280   3.357   2.679   1.665
 2159SOL    HW2 1281   3.509   2.688   1.605
 2160SOL     OW 1282   2.875   1.967   1.770
 2160SOL    HW1 1283   2.881   2.052   1.718
 2160SOL    HW2 1284   2.907   1.891   1.713
 2161SOL     OW 1285   2.366   1.912   1.740
 2161SOL    HW1 1286   2.324   1.855   1.670
 2161SOL    HW2 1287   2.300   1.981   1.772
 2162SOL     OW 1288   2.435   2.732   1.029
 2162SOL    HW1 1289   2.479   2.821   1.020
 2162SOL    HW2 1290   2.372   2.732   1.106
 2163SOL     OW 1291   3.222   2.724   1.045
 2163SOL    HW1 1292   3.147   2.724   0.979
 2163SOL    HW2 1293   3.259   2.632   1.054
 2165SOL     OW 1294   2.169   2.075   1.231
 2165SOL    HW1 1295   2.146   2.112   1.321
 2165SOL    HW2 1296   2.139   1.980   1.225
 2166SOL     OW 1297   1.899   3.172   1.282
 2166SOL    HW1 1298   1.952   3.123   1.350
 2166SOL    HW2 1299   1.921   3.270   1.287
 2167SOL     OW 1300   2.594   2.496   1.064
 2167SOL    HW1 1301   2.653   2.470   0.988
 2167SOL    HW2 1302   2.566   2.592   1.053
 2168SOL     OW 1303   3.590   2.797   1.854
 2168SOL    HW1 1304   3.544   2.790   1.765
 2168SOL    HW2 1305   3.528   2.841   1.920
 2171SOL     OW 1306   2.885   2.628   0.966
 2171SOL    HW1 1307   2.900   2.649   1.062
 2171SOL    HW2 1308   2.855   2.533   0.957
 2172SOL     OW 1309   2.842   3.435   1.700
 2172SOL    HW1 1310   2.822   3.479   1.612
 2172SOL    HW2 1311   2.881   3.344   1.684
 2173SOL     OW 1312   3.721   3.380   1.605
 2173SOL    HW1 1313   3.735   3.407   1.510
 2173SOL    HW2 1314   3.804   3.402   1.658
 2174SOL     OW 1315   2.212   2.760   1.804
 2174SOL    HW1 1316   2.288   2.804   1.852
 2174SOL    HW2 1317   2.247   2.713   1.722
 2178SOL     OW 1318   2.181   2.672   0.949
 2178SOL    HW1 1319   2.274   2.708   0.954
 2178SOL    HW2 1320   2.175   2.587   1.001
 2179SOL     OW 1321   2.201   2.371   1.006
 2179SOL    HW1 1322   2.149   2.288   0.989
 2179SOL    HW2 1323   2.278   2.376   0.942
 2180SOL     OW 1324   3.000   2.242   1.678
 2180SOL    HW1 1325   2.955   2.305   1.742
 2180SOL    HW2 1326   3.093   2.273   1.661
 2181SOL     OW 1327   3.022   2.069   1.477
 2181SOL    HW1 1328   3.022   2.133   1.554
 2181SOL    HW2 1329   3.050   2.117   1.394
 2185SOL     OW 1330   2.864   2.658   1.238
 2185SOL    HW1 1331   2.905   2.626   1.324
 2185SOL    HW2 1332   2.768   2.631   1.235
 2186SOL     OW 1333   1.902   2.406   1.114
 2186SOL    HW1 1334   1.987   2.373   1.073
 2186SOL    HW2 1335   1.915   2.421   1.212
 2187SOL     OW 1336   2.051   2.382   1.722
 2187SOL    HW1 1337   2.110   2.342   1.652
 2187SOL    HW2 1338   1.993   2.453   1.681
 2188SOL     OW 1339   3.231   2.812   1.660
 2188SOL    HW1 1340   3.270   2.901   1.680
 2188SOL    HW2 1341   3.241   2.792   1.563
 2190SOL     OW 1342   3.519   2.466   1.206
 2190SOL    HW1 1343   3.481   2.397   1.268
 2190SOL    HW2 1344   3.601   2.430   1.162
 2191SOL     OW 1345   2.114   3.426   1.744
 2191SOL    HW1 1346   2.084   3.483   1.820
 2191SOL    HW2 1347   2.107   3.329   1.770
 2192SOL     OW 1348   2.533   2.326   1.269
 2192SOL    HW1 1349   2.499   2.237   1.239
 2192SOL    HW2 1350   2.559   2.380   1.189
 2193SOL     OW 1351   2.792   3.540   1.465
 2193SOL    HW1 1352   2.768   3.522   1.370
 2193SOL    HW2 1353   2.822   3.634   1.475
 2195SOL     OW 1354   2.021   2.999   1.466
 2195SOL    HW1 1355   2.043   2.938   1.542
 2195SOL    HW2 1356   2.031   2.950   1.380
 2196SOL     OW 1357   3.209   2.921   1.234
 2196SOL    HW1 1358   3.233   2.858   1.160
 2196SOL    HW2 1359   3.119   2.961   1.216
 2200SOL     OW 1360   1.945   3.120   1.022
 2200SOL    HW1 1361   1.940   3.119   1.122
 2200SOL    HW2 1362   1.862   3.079   0.984
 2201SOL     OW 1363   2.550   3.524   1.716
 2201SOL    HW1 1364   2.494   3.605   1.725
 2201SOL    HW2 1365   2.602   3.528   1.630
 2205SOL     OW 1366   1.992   3.656   1.851
 2205SOL    HW1 1367   1.951   3.582   1.904
 2205SOL    HW2 1368   2.056   3.707   1.909
 2207SOL     OW 1369   2.692   3.135   1.422
 2207SOL    HW1 1370   2.687   3.168   1.517
 2207SOL    HW2 1371   2.606   3.154   1.376
 2211SOL     OW 1372   2.125   2.188   0.720
 2211SOL    HW1 1373   2.046   2.239   0.686
 2211SOL    HW2 1374   2.116   2.173   0.818
 2213SOL     OW 1375   2.684   2.864   1.372
 2213SOL    HW1 1376   2.724   2.863   1.280
 2213SOL    HW2 1377   2.694   2.956   1.412
 2216SOL     OW 1378   2.234   3.150   1.490
 2216SOL    HW1 1379   2.221   3.243   1.456
 2216SOL    HW2 1380   2.150   3.098   1.477
 2217SOL     OW 1381   3.476   3.154   1.289
 2217SOL    HW1 1382   3.536   3.157   1.369
 2217SOL    HW2 1383   3.401   3.218   1.302
 2219SOL     OW 1384   2.876   2.098   0.971
 2219SOL    HW1 1385   2.868   2.062   0.878
 2219SOL    HW2 1386   2.874   2.022   1.036
 2221SOL     OW 1387   3.571   2.247   1.381
 2221SOL    HW1 1388   3.644   2.316   1.385
 2221SOL    HW2 1389   3.599   2.172   1.322
 2223SOL     OW 1390   1.967   2.875   1.726
 2223SOL    HW1 1391   1.890   2.842   1.780
 2223SOL    HW2 1392   2.052   2.845   1.768
 2224SOL     OW 1393   2.534   2.065   1.489
 2224SOL    HW1 1394   2.624   2.049   1.449
 2224SOL    HW2 1395   2.542   2.070   1.588
 2225SOL     OW 1396   3.302   2.718   1.398
 2225SOL    HW1 1397   3.245   2.770   1.335
 2225SOL    HW2 1398   3.398   2.730   1.374
 2228SOL     OW 1399   2.475   2.704   1.431
 2228SOL    HW1 1400   2.531   2.785   1.414
 2228SOL    HW2 1401   2.534   2.624   1.434
 2230SOL     OW 1402   2.578   2.427   1.708
 2230SOL    HW1 1403   2.597   2.492   1.782
 2230SOL    HW2 1404   2.638   2.347   1.717
 2231SOL     OW 1405   3.312   3.082   1.633
 2231SOL    HW1 1406   3.303   3.072   1.732
 2231SOL    HW2 1407   3.408   3.075   1.607
 2232SOL     OW 1408   2.252   3.603   1.560
 2232SOL    HW1 1409   2.161   3.644   1.558
 2232SOL    HW2 1410   2.245   3.509   1.592
 2233SOL     OW 1411   3.536   2.745   1.254
 2233SOL    HW1 1412   3.509   2.656   1.217
 2233SOL    HW2 1413   3.537   2.813   1.181
 2236SOL     OW 1414   3.639   2.204   1.642
 2236SOL    HW1 1415   3.622   2.235   1.548
 2236SOL    HW2 1416   3.555   2.167   1.680
 2237SOL     OW 1417   3.592   2.796   1.517
 2237SOL    HW1 1418   3.630   2.887   1.532
 2237SOL    HW2 1419   3.584   2.779   1.418
 2240SOL     OW 1420   2.721   2.818   0.861
 2240SOL    HW1 1421   2.775   2.749   0.909
 2240SOL    HW2 1422   2.689   2.887   0.927
 2243SOL     OW 1423   2.083   3.176   1.844
 2243SOL    HW1 1424   2.018   3.103   1.823
 2243SOL    HW2 1425   2.087   3.190   1.942
 2245SOL     OW 1426   2.534   3.253   1.624
 2245SOL    HW1 1427   2.456   3.203   1.662
 2245SOL    HW2 1428   2.531   3.348   1.655
 2246SOL     OW 1429   3.686   2.054   1.227
 2246SOL    HW1 1430   3.682   1.964   1.271
 2246SOL    HW2 1431   3.689   2.043   1.128
 2249SOL     OW 1432   2.179   2.409   1.280
 2249SOL    HW1 1433   2.217   2.350   1.352
 2249SOL    HW2 1434   2.219   2.383   1.192
 2251SOL     OW 1435   3.286   2.076   1.112
 2251SOL    HW1 1436   3.338   2.011   1.167
 2251SOL    HW2 1437   3.237   2.139   1.173
 2252SOL     OW 1438   2.863   1.896   1.154
 2252SOL    HW1 1439   2.800   1.824   1.123
 2252SOL    HW2 1440   2.956   1.860   1.154
 2254SOL     OW 1441   2.480   3.429   1.284
 2254SOL    HW1 1442   2.475   3.511   1.341
 2254SOL    HW2 1443   2.569   3.426   1.239
 2260SOL     OW 1444   2.092   2.490   1.975
 2260SOL    HW1 1445   1.999   2.488   2.012
 2260SOL    HW2 1446   2.093   2.451   1.883
 2261SOL     OW 1447   2.087   2.137   2.858
 2261SOL    HW1 1448   2.122   2.120   2.950
 2261SOL    HW2 1449   1.999   2.092   2.846
 2262SOL     OW 1450   1.881   2.230   2.509
 2262SOL    HW1 1451   1.799   2.273   2.548
 2262SOL    HW2 1452   1.853   2.157   2.446
 2263SOL     OW 1453   2.431   3.137   3.027
 2263SOL    HW1 1454   2.338   3.130   2.990
 2263SOL    HW2 1455   2.442   3.226   3.071
 2264SOL     OW 1456   3.417   3.373   2.565
 2264SOL    HW1 1457   3.360   3.357   2.646
 2264SOL    HW2 1458   3.358   3.383   2.485
 2265SOL     OW 1459   2.997   2.565   2.579
 2265SOL    HW1 1460   3.054   2.643   2.554
 2265SOL    HW2 1461   2.937   2.591   2.655
 2266SOL     OW 1462   3.617   2.469   2.093
 2266SOL    HW1 1463   3.605   2.456   1.994
 2266SOL    HW2 1464   3.587   2.388   2.142
 2267SOL     OW 1465   2.630   3.006   2.885
 2267SOL    HW1 1466   2.552   3.023   2.945
 2267SOL    HW2 1467   2.664   3.093   2.849
 2268SOL     OW 1468   2.712   2.660   3.685
 2268SOL    HW1 1469   2.708   2.736   3.750
 2268SOL    HW2 1470   2.734   2.696   3.594
 2269SOL     OW 1471   2.547   2.874   2.527
 2269SOL    HW1 1472   2.616   2.858   2.597
 2269SOL    HW2 1473   2.474   2.931   2.565
 2270SOL     OW 1474   2.548   3.023   3.665
 2270SOL    HW1 1475   2.608   3.102   3.679
 2270SOL    HW2 1476   2.462   3.054   3.624
 2271SOL     OW 1477   2.197   3.297   2.923
 2271SOL    HW1 1478   2.119   3.266   2.870
 2271SOL    HW2 1479   2.255   3.355   2.866
 2272SOL     OW 1480   3.322   3.367   3.201
 2272SOL    HW1 1481   3.346   3.461   3.227
 2272SOL    HW2 1482   3.306   3.313   3.283
 2273SOL     OW 1483   2.300   2.254   3.361
 2273SOL    HW1 1484   2.382   2.198   3.370
 2273SOL    HW2 1485   2.219   2.196   3.365
 2274SOL     OW 1486   3.465   2.309   2.599
 2274SOL    HW1 1487   3.391   2.355   2.549
 2274SOL    HW2 1488   3.516   2.377   2.652
 2275SOL     OW 1489   2.093   3.575   2.345
 2275SOL    HW1 1490   2.127   3.652   2.399
 2275SOL    HW2 1491   2.137   3.575   2.255
 2276SOL     OW 1492   2.989   3.203   3.552
 2276SOL    HW1 1493   3.036   3.203   3.640
 2276SOL    HW2 1494   2.941   3.116   3.541
 2277SOL     OW 1495   2.092   3.296   2.400
 2277SOL    HW1 1496   2.066   3.392   2.400
 2277SOL    HW2 1497   2.021   3.242   2.445
 2278SOL     OW 1498   2.102   2.953   2.748
 2278SOL    HW1 1499   2.116   2.869   2.800
 2278SOL    HW2 1500   2.047   3.017   2.803
 2279SOL     OW 1501   2.482   3.648   3.301
 2279SOL    HW1 1502   2.390   3.631   3.336
 2279SOL    HW2 1503   2.510   3.740   3.327
 2280SOL     OW 1504   2.468   2.826   1.985
 2280SOL    HW1 1505   2.475   2.910   1.931
 2280SOL    HW2 1506   2.514   2.839   2.073
 2281SOL     OW 1507   3.456   1.976   3.342
 2281SOL    HW1 1508   3.438   2.043   3.270
 2281SOL    HW2 1509   3.453   2.022   3.431
 2282SOL     OW 1510   3.704   3.629   2.221
 2282SOL    HW1 1511   3.758   3.600   2.301
 2282SOL    HW2 1512   3.734   3.719   2.192
 2283SOL     OW 1513   1.889   3.458   1.979
 2283SOL    HW1 1514   1.870   3.362   2.000
 2283SOL    HW2 1515   1.856   3.516   2.054
 2284SOL     OW 1516   3.551   2.784   2.474
 2284SOL    HW1 1517   3.646   2.755   2.482
 2284SOL    HW2 1518   3.543   2.849   2.399
 2285SOL     OW 1519   3.503   2.970   2.294
 2285SOL    HW1 1520   3.589   2.972   2.242
 2285SOL    HW2 1521   3.517   3.017   2.382
 2286SOL     OW 1522   1.975   2.599   3.459
 2286SOL    HW1 1523   2.063   2.586   3.504
 2286SOL    HW2 1524   1.962   2.696   3.437
 2287SOL     OW 1525   2.475   3.227   2.588
 2287SOL    HW1 1526   2.426   3.140   2.597
 2287SOL    HW2 1527   2.452   3.270   2.501
 2288SOL     OW 1528   3.155   3.090   3.285
 2288SOL    HW1 1529   3.192   3.017   3.227
 2288SOL    HW2 1530   3.207   3.095   3.370
 2289SOL     OW 1531   2.671   1.866   2.364
 2289SOL    HW1 1532   2.711   1.957   2.355
 2289SOL    HW2 1533   2.571   1.874   2.370
 2290SOL     OW 1534   2.059   2.838   3.126
 2290SOL    HW1 1535   2.148   2.793   3.112
 2290SOL    HW2 1536   1.986   2.773   3.107
 2291SOL     OW 1537   3.387   2.861   2.052
 2291SOL    HW1 1538   3.324   2.785   2.065
 2291SOL    HW2 1539   3.435   2.879   2.138
 2292SOL     OW 1540   3.049   3.654   3.478
 2292SOL    HW1 1541   3.073   3.714   3.402
 2292SOL    HW2 1542   3.056   3.559   3.448
 2293SOL     OW 1543   2.179   2.113   3.663
 2293SOL    HW1 1544   2.250   2.184   3.669
 2293SOL    HW2 1545   2.091   2.152   3.691
 2294SOL     OW 1546   3.328   3.279   2.815
 2294SOL    HW1 1547   3.269   3.285   2.895
 2294SOL    HW2 1548   3.313   3.191   2.769
 2295SOL     OW 1549   3.529   3.576   2.434
 2295SOL    HW1 1550   3.488   3.553   2.346
 2295SOL    HW2 1551   3.511   3.502   2.499
 2296SOL     OW 1552   2.460   2.591   2.132
 2296SOL    HW1 1553   2.484   2.660   2.064
 2296SOL    HW2 1554   2.382   2.624   2.186
 2297SOL     OW 1555   3.143   2.207   2.806
 2297SOL    HW1 1556   3.057   2.157   2.793
 2297SOL    HW2 1557   3.205   2.153   2.862
 2298SOL     OW 1558   3.438   3.524   2.169
 2298SOL    HW1 1559   3.527   3.570   2.172
 2298SOL    HW2 1560   3.417   3.500   2.074
 2299SOL     OW 1561   2.669   2.467   3.327
 2299SOL    HW1 1562   2.622   2.464   3.416
 2299SOL    HW2 1563   2.618   2.412   3.261
 2300SOL     OW 1564   3.256   2.331   3.536
 2300SOL    HW1 1565   3.236   2.374   3.624
 2300SOL    HW2 1566   3.334   2.269   3.545
 2301SOL     OW 1567   2.835   2.752   3.434
 2301SOL    HW1 1568   2.881   2.668   3.405
 2301SOL    HW2 1569   2.779   2.786   3.359
 2302SOL     OW 1570   2.853   2.272   3.104
 2302SOL    HW1 1571   2.776   2.306   3.158
 2302SOL    HW2 1572   2.819   2.221   3.025
 2303SOL     OW 1573   2.903   2.563   2.291
 2303SOL    HW1 1574   2.929   2.559   2.387
 2303SOL    HW2 1575   2.818   2.512   2.277
 2304SOL     OW 1576   1.992   3.683   3.433
 2304SOL    HW1 1577   1.982   3.668   3.532
 2304SOL    HW2 1578   1.906   3.719   3.397
 2305SOL     OW 1579   2.727   2.210   2.057
 2305SOL    HW1 1580   2.786   2.273   2.008
 2305SOL    HW2 1581   2.746   2.116   2.028
 2306SOL     OW 1582   3.581   2.447   3.693
 2306SOL    HW1 1583   3.555   2.536   3.657
 2306SOL    HW2 1584   3.579   2.379   3.620
 2307SOL     OW 1585   3.224   3.006   2.407
 2307SOL    HW1 1586   3.307   2.977   2.359
 2307SOL    HW2 1587   3.175   3.073   2.351
 2308SOL     OW 1588   2.412   2.058   2.747
 2308SOL    HW1 1589   2.407   2.053   2.847
 2308SOL    HW2 1590   2.414   2.154   2.718
 2309SOL     OW 1591   2.870   3.318   2.339
 2309SOL    HW1 1592   2.824   3.390   2.287
 2309SOL    HW2 1593   2.866   3.338   2.437
 2310SOL     OW 1594   2.213   3.663   2.715
 2310SOL    HW1 1595   2.263   3.577   2.721
 2310SOL    HW2 1596   2.278   3.740   2.712
 2311SOL     OW 1597   3.657   2.928   2.735
 2311SOL    HW1 1598   3.595   2.913   2.659
 2311SOL    HW2 1599   3.605   2.939   2.820
 2312SOL     OW 1600   3.089   3.412   3.368
 2312SOL    HW1 1601   3.095   3.335   3.432
 2312SOL    HW2 1602   3.037   3.386   3.288
 2313SOL     OW 1603   2.183   2.805   2.104
 2313SOL    HW1 1604   2.265   2.844   2.062
 2313SOL    HW2 1605   2.156   2.723   2.055
 2314SOL     OW 1606   3.320   2.597   2.590
 2314SOL    HW1 1607   3.315   2.532   2.665
 2314SOL    HW2 1608   3.400   2.656   2.603
 2315SOL     OW 1609   2.323   3.128   3.589
 2315SOL    HW1 1610   2.273   3.129   3.503
 2315SOL    HW2 1611   2.260   3.110   3.665
 2316SOL     OW 1612   2.973   3.638   2.099
 2316SOL    HW1 1613   2.913   3.576   2.149
 2316SOL    HW2 1614   3.004   3.594   2.014
 2317SOL     OW 1615   2.064   2.147   3.360
 2317SOL    HW1 1616   1.984   2.207   3.347
 2317SOL    HW2 1617   2.054   2.098   3.446
 2318SOL     OW 1618   3.494   3.239   1.943
 2318SOL    HW1 1619   3.462   3.333   1.933
 2318SOL    HW2 1620   3.418   3.176   1.931
 2319SOL     OW 1621   2.326   3.605   2.185
 2319SOL    HW1 1622   2.359   3.644   2.271
 2319SOL    HW2 1623   2.402   3.598   2.120
 2320SOL     OW 1624   3.262   1.969   2.288
 2320SOL    HW1 1625   3.238   1.932   2.198
 2320SOL    HW2 1626   3.361   1.985   2.292
 2321SOL     OW 1627   2.111   3.647   3.103
 2321SOL    HW1 1628   2.168   3.582   3.153
 2321SOL    HW2 1629   2.095   3.614   3.010
 2322SOL     OW 1630   2.802   3.560   2.766
 2322SOL    HW1 1631   2.882   3.503   2.787
 2322SOL    HW2 1632   2.753   3.520   2.689
 2323SOL     OW 1633   3.409   2.084   3.591
 2323SOL    HW1 1634   3.404   2.121   3.683
 2323SOL    HW2 1635   3.337   2.015   3.579
 2324SOL     OW 1636   2.476   1.984   1.979
 2324SOL    HW1 1637   2.574   1.962   1.986
 2324SOL    HW2 1638   2.445   1.967   1.886
 2325SOL     OW 1639   2.643   2.126   3.611
 2325SOL    HW1 1640   2.710   2.065   3.654
 2325SOL    HW2 1641   2.570   2.145   3.676
 2326SOL     OW 1642   2.750   3.376   3.057
 2326SOL    HW1 1643   2.727   3.351   2.963
 2326SOL    HW2 1644   2.811   3.307   3.096
 2327SOL     OW 1645   3.213   2.452   3.295
 2327SOL    HW1 1646   3.241   2.409   3.380
 2327SOL    HW2 1647   3.238   2.548   3.296
 2328SOL     OW 1648   2.665   3.264   2.786
 2328SOL    HW1 1649   2.755   3.278   2.744
 2328SOL    HW2 1650   2.594   3.266   2.715
 2329SOL     OW 1651   2.784   2.365   2.761
 2329SOL    HW1 1652   2.759   2.356   2.665
 2329SOL    HW2 1653   2.832   2.283   2.792
 2330SOL     OW 1654   2.401   1.926   2.374
 2330SOL    HW1 1655   2.320   1.927   2.432
 2330SOL    HW2 1656   2.404   2.009   2.319
 2331SOL     OW 1657   3.296   3.050   1.903
 2331SOL    HW1 1658   3.328   2.974   1.960
 2331SOL    HW2 1659   3.204   3.077   1.933
 2332SOL     OW 1660   2.159   1.897   2.033
 2332SOL    HW1 1661   2.208   1.981   2.012
 2332SOL    HW2 1662   2.221   1.832   2.078
 2333SOL     OW 1663   2.938   2.545   3.326
 2333SOL    HW1 1664   2.858   2.484   3.329
 2333SOL    HW2 1665   3.019   2.492   3.302
 2334SOL     OW 1666   3.089   3.432   2.655
 2334SOL    HW1 1667   3.110   3.506   2.590
 2334SOL    HW2 1668   3.157   3.432   2.728
 2335SOL     OW 1669   2.321   3.014   2.603
 2335SOL    HW1 1670   2.250   2.987   2.668
 2335SOL    HW2 1671   2.295   2.986   2.510
 2336SOL     OW 1672   3.133   3.659   2.453
 2336SOL    HW1 1673   3.177   3.723   2.389
 2336SOL    HW2 1674   3.083   3.711   2.523
 2337SOL     OW 1675   2.894   2.411   1.878
 2337SOL    HW1 1676   2.853   2.493   1.839
 2337SOL    HW2 1677   2.958   2.437   1.951
 2338SOL     OW 1678   1.940   2.418   3.248
 2338SOL    HW1 1679   2.032   2.417   3.207
 2338SOL    HW2 1680   1.934   2.492   3.315
 2339SOL     OW 1681   2.423   2.084   3.009
 2339SOL    HW1 1682   2.461   2.000   3.046
 2339SOL    HW2 1683   2.335   2.103   3.053
 2340SOL     OW 1684   2.879   1.901   2.615
 2340SOL    HW1 1685   2.807   1.906   2.546
 2340SOL    HW2 1686   2.855   1.832   2.684
 2341SOL     OW 1687   3.291   3.035   2.729
 2341SOL    HW1 1688   3.236   2.951   2.722
 2341SOL    HW2 1689   3.317   3.064   2.637
 2342SOL     OW 1690   3.328   2.452   2.854
 2342SOL    HW1 1691   3.298   2.357   2.861
 2342SOL    HW2 1692   3.401   2.468   2.920
 2343SOL     OW 1693   3.719   2.695   2.239
 2343SOL    HW1 1694   3.761   2.631   2.303
 2343SOL    HW2 1695   3.681   2.644   2.161
 2344SOL     OW 1696   2.350   3.247   2.036
 2344SOL    HW1 1697   2.263   3.232   2.083
 2344SOL    HW2 1698   2.333   3.273   1.941
 2345SOL     OW 1699   3.526   3.142   2.519
 2345SOL    HW1 1700   3.625   3.150   2.533
 2345SOL    HW2 1701   3.481   3.226   2.550
 2346SOL     OW 1702   3.252   2.437   1.940
 2346SOL    HW1 1703   3.198   2.416   2.021
 2346SOL    HW2 1704   3.343   2.396   1.949
 2347SOL     OW 1705   2.389   2.118   2.190
 2347SOL    HW1 1706   2.416   2.059   2.115
 2347SOL    HW2 1707   2.389   2.213   2.159
 2348SOL     OW 1708   3.616   3.085   3.450
 2348SOL    HW1 1709   3.707   3.046   3.437
 2348SOL    HW2 1710   3.624   3.181   3.474
 2349SOL     OW 1711   2.926   3.209   3.202
 2349SOL    HW1 1712   2.846   3.186   3.257
 2349SOL    HW2 1713   3.009   3.183   3.251
 2350SOL     OW 1714   3.454   3.491   3.487
 2350SOL    HW1 1715   3.481   3.525   3.397
 2350SOL    HW2 1716   3.533   3.453   3.533
 2351SOL     OW 1717   2.973   3.057   2.962
 2351SOL    HW1 1718   2.933   3.101   3.043
 2351SOL    HW2 1719   2.932   3.094   2.879
 2352SOL     OW 1720   3.500   2.961   2.941
 2352SOL    HW1 1721   3.505   3.042   3.000
 2352SOL    HW2 1722   3.414   2.963   2.890
 2353SOL     OW 1723   2.777   1.951   3.264
 2353SOL    HW1 1724   2.802   1.931   3.169
 2353SOL    HW2 1725   2.849   2.007   3.306
 2354SOL     OW 1726   2.842   2.978   3.581
 2354SOL    HW1 1727   2.743   2.984   3.591
 2354SOL    HW2 1728   2.865   2.898   3.525
 2355SOL     OW 1729   2.567   2.912   2.230
 2355SOL    HW1 1730   2.553   2.919   2.329
 2355SOL    HW2 1731   2.651   2.861   2.212
 2356SOL     OW 1732   2.272   2.675   3.113
 2356SOL    HW1 1733   2.358   2.687   3.163
 2356SOL    HW2 1734   2.230   2.588   3.140
 2357SOL     OW 1735   3.136   2.248   3.124
 2357SOL    HW1 1736   3.157   2.322   3.188
 2357SOL    HW2 1737   3.047   2.265   3.081
 2358SOL     OW 1738   1.926   3.426   3.193
 2358SOL    HW1 1739   1.880   3.508   3.159
 2358SOL    HW2 1740   2.024   3.445   3.202
 2359SOL     OW 1741   2.229   2.962   2.363
 2359SOL    HW1 1742   2.222   3.045   2.307
 2359SOL    HW2 1743   2.233   2.882   2.303
 2360SOL     OW 1744   2.428   2.399   2.727
 2360SOL    HW1 1745   2.440   2.465   2.653
 2360SOL    HW2 1746   2.474   2.433   2.810
 2361SOL     OW 1747   3.114   3.210   2.250
 2361SOL    HW1 1748   3.164   3.287   2.290
 2361SOL    HW2 1749   3.019   3.212   2.282
 2362SOL     OW 1750   3.134   3.307   3.004
 2362SOL    HW1 1751   3.181   3.320   3.091
 2362SOL    HW2 1752   3.068   3.233   3.013
 2363SOL     OW 1753   3.444   2.501   2.334
 2363SOL    HW1 1754   3.413   2.562   2.407
 2363SOL    HW2 1755   3.494   2.553   2.265
 2364SOL     OW 1756   2.216   3.372   3.191
 2364SOL    HW1 1757   2.195   3.328   3.104
 2364SOL    HW2 1758   2.313   3.398   3.194
 2365SOL     OW 1759   2.264   2.613   3.460
 2365SOL    HW1 1760   2.332   2.668   3.413
 2365SOL    HW2 1761   2.304   2.525   3.487
 2366SOL     OW 1762   3.449   2.641   3.532
 2366SOL    HW1 1763   3.357   2.679   3.527
 2366SOL    HW2 1764   3.509   2.688   3.467
 2367SOL     OW 1765   2.875   1.967   3.632
 2367SOL    HW1 1766   2.881   2.052   3.580
 2367SOL    HW2 1767   2.907   1.891   3.575
 2368SOL     OW 1768   2.366   1.912   3.602
 2368SOL    HW1 1769   2.324   1.855   3.532
 2368SOL    HW2 1770   2.300   1.981   3.634
 2369SOL     OW 1771   2.435   2.732   2.891
 2369SOL    HW1 1772   2.479   2.821   2.882
 2369SOL    HW2 1773   2.372   2.732   2.968
 2370SOL     OW 1774   3.222   2.724   2.907
 2370SOL    HW1 1775   3.147   2.724   2.841
 2370SOL    HW2 1776   3.259   2.632   2.916
 2371SOL     OW 1777   3.071   2.387   2.137
 2371SOL    HW1 1778   3.084   2.303   2.191
 2371SOL    HW2 1779   3.042   2.461   2.197
 2372SOL     OW 1780   2.169   2.075   3.093
 2372SOL    HW1 1781   2.146   2.112   3.183
 2372SOL    HW2 1782   2.139   1.980   3.087
 2373SOL     OW 1783   1.899   3.172   3.144
 2373SOL    HW1 1784   1.952   3.123   3.212
 2373SOL    HW2 1785   1.921   3.270   3.149
 2374SOL     OW 1786   2.594   2.496   2.926
 2374SOL    HW1 1787   2.653   2.470   2.850
 2374SOL    HW2 1788   2.566   2.592   2.915
 2375SOL     OW 1789   3.590   2.797   3.716
 2375SOL    HW1 1790   3.544   2.790   3.627
 2375SOL    HW2 1791   3.528   2.841   3.782
 2376SOL     OW 1792   2.169   1.925   2.480
 2376SOL    HW1 1793   2.158   2.019   2.513
 2376SOL    HW2 1794   2.164   1.862   2.557
 2377SOL     OW 1795   3.484   2.229   2.236
 2377SOL    HW1 1796   3.486   2.153   2.300
 2377SOL    HW2 1797   3.436   2.306   2.276
 2378SOL     OW 1798   2.885   2.628   2.828
 2378SOL    HW1 1799   2.900   2.649   2.924
 2378SOL    HW2 1800   2.855   2.533   2.819
 2379SOL     OW 1801   2.842   3.435   3.562
 2379SOL    HW1 1802   2.822   3.479   3.474
 2379SOL    HW2 1803   2.881   3.344   3.546
 2381SOL     OW 1804   2.212   2.760   3.666
 2381SOL    HW1 1805   2.288   2.804   3.714
 2381SOL    HW2 1806   2.247   2.713   3.584
 2382SOL     OW 1807   3.402   2.136   1.987
 2382SOL    HW1 1808   3.341   2.061   2.010
 2382SOL    HW2 1809   3.424   2.188   2.070
 2383SOL     OW 1810   3.165   2.700   1.904
 2383SOL    HW1 1811   3.199   2.607   1.919
 2383SOL    HW2 1812   3.183   2.727   1.809
 2384SOL     OW 1813   2.930   3.195   2.711
 2384SOL    HW1 1814   2.937   3.111   2.656
 2384SOL    HW2 1815   2.992   3.264   2.675
 2385SOL     OW 1816   2.181   2.672   2.811
 2385SOL    HW1 1817   2.274   2.708   2.816
 2385SOL    HW2 1818   2.175   2.587   2.863
 2386SOL     OW 1819   2.201   2.371   2.868
 2386SOL    HW1 1820   2.149   2.288   2.851
 2386SOL    HW2 1821   2.278   2.376   2.804
 2387SOL     OW 1822   3.000   2.242   3.540
 2387SOL    HW1 1823   2.955   2.305   3.604
 2387SOL    HW2 1824   3.093   2.273   3.523
 2388SOL     OW 1825   3.022   2.069   3.339
 2388SOL    HW1 1826   3.022   2.133   3.416
 2388SOL    HW2 1827   3.050   2.117   3.256
 2389SOL     OW 1828   1.870   3.188   2.062
 2389SOL    HW1 1829   1.777   3.209   2.031
 2389SOL    HW2 1830   1.880   3.089   2.075
 2390SOL     OW 1831   1.950   3.663   2.789
 2390SOL    HW1 1832   1.908   3.577   2.762
 2390SOL    HW2 1833   2.044   3.666   2.755
 2391SOL     OW 1834   2.366   3.430   2.772
 2391SOL    HW1 1835   2.432   3.504   2.781
 2391SOL    HW2 1836   2.410   3.351   2.730
 2392SOL     OW 1837   2.864   2.658   3.100
 2392SOL    HW1 1838   2.905   2.626   3.186
 2392SOL    HW2 1839   2.768   2.631   3.097
 2393SOL     OW 1840   1.902   2.406   2.976
 2393SOL    HW1 1841   1.987   2.373   2.935
 2393SOL    HW2 1842   1.915   2.421   3.074
 2394SOL     OW 1843   2.051   2.382   3.584
 2394SOL    HW1 1844   2.110   2.342   3.514
 2394SOL    HW2 1845   1.993   2.453   3.543
 2395SOL     OW 1846   3.231   2.812   3.522
 2395SOL    HW1 1847   3.270   2.901   3.542
 2395SOL    HW2 1848   3.241   2.792   3.425
 2396SOL     OW 1849   2.677   2.434   2.187
 2396SOL    HW1 1850   2.684   2.345   2.141
 2396SOL    HW2 1851   2.583   2.468   2.179
 2397SOL     OW 1852   3.519   2.466   3.068
 2397SOL    HW1 1853   3.481   2.397   3.130
 2397SOL    HW2 1854   3.601   2.430   3.024
 2398SOL     OW 1855   2.114   3.426   3.606
 2398SOL    HW1 1856   2.084   3.483   3.682
 2398SOL    HW2 1857   2.107   3.329   3.632
 2399SOL     OW 1858   2.533   2.326   3.131
 2399SOL    HW1 1859   2.499   2.237   3.101
 2399SOL    HW2 1860   2.559   2.380   3.051
 2400SOL     OW 1861   2.792   3.540   3.327
 2400SOL    HW1 1862   2.768   3.522   3.232
 2400SOL    HW2 1863   2.822   3.634   3.337
 2401SOL     OW 1864   2.335   2.362   2.053
 2401SOL    HW1 1865   2.396   2.442   2.057
 2401SOL    HW2 1866   2.240   2.393   2.060
 2402SOL     OW 1867   2.021   2.999   3.328
 2402SOL    HW1 1868   2.043   2.938   3.404
 2402SOL    HW2 1869   2.031   2.950   3.242
 2403SOL     OW 1870   3.209   2.921   3.096
 2403SOL    HW1 1871   3.233   2.858   3.022
 2403SOL    HW2 1872   3.119   2.961   3.078
 2404SOL     OW 1873   3.164   2.717   2.171
 2404SOL    HW1 1874   3.078   2.686   2.213
 2404SOL    HW2 1875   3.160   2.703   2.072
 2405SOL     OW 1876   3.621   3.609   3.016
 2405SOL    HW1 1877   3.682   3.639   2.943
 2405SOL    HW2 1878   3.583   3.520   2.994
 2406SOL     OW 1879   3.114   3.593   2.990
 2406SOL    HW1 1880   3.198   3.598   2.936
 2406SOL    HW2 1881   3.091   3.497   3.008
 2407SOL     OW 1882   1.945   3.120   2.884
 2407SOL    HW1 1883   1.940   3.119   2.984
 2407SOL    HW2 1884   1.862   3.079   2.846
 2408SOL     OW 1885   2.550   3.524   3.578
 2408SOL    HW1 1886   2.494   3.605   3.587
 2408SOL    HW2 1887   2.602   3.528   3.492
 2409SOL     OW 1888   3.588   1.997   2.385
 2409SOL    HW1 1889   3.661   1.980   2.318
 2409SOL    HW2 1890   3.557   1.910   2.423
 2410SOL     OW 1891   3.250   3.435   2.339
 2410SOL    HW1 1892   3.317   3.447   2.265
 2410SOL    HW2 1893   3.210   3.524   2.362
 2411SOL     OW 1894   1.992   3.656   3.713
 2411SOL    HW1 1895   1.951   3.582   3.766
 2411SOL    HW2 1896   2.056   3.707   3.771
 2412SOL     OW 1897   3.142   2.789   2.534
 2412SOL    HW1 1898   3.202   2.708   2.536
 2412SOL    HW2 1899   3.182   2.858   2.474
 2413SOL     OW 1900   2.692   3.135   3.284
 2413SOL    HW1 1901   2.687   3.168   3.379
 2413SOL    HW2 1902   2.606   3.154   3.238
 2414SOL     OW 1903   2.534   3.478   2.016
 2414SOL    HW1 1904   2.543   3.488   1.917
 2414SOL    HW2 1905   2.494   3.389   2.037
 2415SOL     OW 1906   3.512   3.582   3.256
 2415SOL    HW1 1907   3.565   3.592   3.172
 2415SOL    HW2 1908   3.485   3.672   3.290
 2416SOL     OW 1909   3.703   2.037   2.825
 2416SOL    HW1 1910   3.742   1.952   2.789
 2416SOL    HW2 1911   3.605   2.039   2.806
 2417SOL     OW 1912   2.125   2.188   2.582
 2417SOL    HW1 1913   2.046   2.239   2.548
 2417SOL    HW2 1914   2.116   2.173   2.680
 2418SOL     OW 1915   3.056   3.474   1.893
 2418SOL    HW1 1916   3.062   3.381   1.930
 2418SOL    HW2 1917   2.997   3.474   1.813
 2419SOL     OW 1918   2.684   2.864   3.234
 2419SOL    HW1 1919   2.724   2.863   3.142
 2419SOL    HW2 1920   2.694   2.956   3.274
 2420SOL     OW 1921   2.778   2.772   2.153
 2420SOL    HW1 1922   2.841   2.810   2.085
 2420SOL    HW2 1923   2.818   2.689   2.192
 2421SOL     OW 1924   3.366   3.469   1.906
 2421SOL    HW1 1925   3.274   3.506   1.913
 2421SOL    HW2 1926   3.404   3.489   1.816
 2422SOL     OW 1927   2.234   3.150   3.352
 2422SOL    HW1 1928   2.221   3.243   3.318
 2422SOL    HW2 1929   2.150   3.098   3.339
 2423SOL     OW 1930   3.476   3.154   3.151
 2423SOL    HW1 1931   3.536   3.157   3.231
 2423SOL    HW2 1932   3.401   3.218   3.164
 2424SOL     OW 1933   2.901   2.960   2.558
 2424SOL    HW1 1934   2.831   2.913   2.612
 2424SOL    HW2 1935   2.960   2.892   2.515
 2425SOL     OW 1936   2.876   2.098   2.833
 2425SOL    HW1 1937   2.868   2.062   2.740
 2425SOL    HW2 1938   2.874   2.022   2.898
 2426SOL     OW 1939   2.452   3.349   2.353
 2426SOL    HW1 1940   2.494   3.291   2.283
 2426SOL    HW2 1941   2.408   3.428   2.309
 2427SOL     OW 1942   3.571   2.247   3.243
 2427SOL    HW1 1943   3.644   2.316   3.247
 2427SOL    HW2 1944   3.599   2.172   3.184
 2428SOL     OW 1945   2.117   3.210   2.152
 2428SOL    HW1 1946   2.021   3.211   2.125
 2428SOL    HW2 1947   2.129   3.263   2.236
 2429SOL     OW 1948   1.967   2.875   3.588
 2429SOL    HW1 1949   1.890   2.842   3.642
 2429SOL    HW2 1950   2.052   2.845   3.630
 2430SOL     OW 1951   2.534   2.065   3.351
 2430SOL    HW1 1952   2.624   2.049   3.311
 2430SOL    HW2 1953   2.542   2.070   3.450
 2431SOL     OW 1954   1.937   2.207   1.895
 2431SOL    HW1 1955   1.845   2.179   1.866
 2431SOL    HW2 1956   1.968   2.284   1.839
 2432SOL     OW 1957   3.302   2.718   3.260
 2432SOL    HW1 1958   3.245   2.770   3.197
 2432SOL    HW2 1959   3.398   2.730   3.236
 2433SOL     OW 1960   1.934   2.028   2.180
 2433SOL    HW1 1961   1.917   2.111   2.126
 2433SOL    HW2 1962   2.024   1.991   2.158
 2434SOL     OW 1963   3.045   3.197   1.981
 2434SOL    HW1 1964   2.946   3.186   1.983
 2434SOL    HW2 1965   3.079   3.212   2.074
 2435SOL     OW 1966   2.475   2.704   3.293
 2435SOL    HW1 1967   2.531   2.785   3.276
 2435SOL    HW2 1968   2.534   2.624   3.296
 2436SOL     OW 1969   3.355   3.629   2.821
 2436SOL    HW1 1970   3.388   3.693   2.752
 2436SOL    HW2 1971   3.421   3.623   2.896
 2437SOL     OW 1972   2.578   2.427   3.570
 2437SOL    HW1 1973   2.597   2.492   3.644
 2437SOL    HW2 1974   2.638   2.347   3.579
 2438SOL     OW 1975   3.312   3.082   3.495
 2438SOL    HW1 1976   3.303   3.072   3.594
 2438SOL    HW2 1977   3.408   3.075   3.469
 2439SOL     OW 1978   2.252   3.603   3.422
 2439SOL    HW1 1979   2.161   3.644   3.420
 2439SOL    HW2 1980   2.245   3.509   3.454
 2440SOL     OW 1981   3.536   2.745   3.116
 2440SOL    HW1 1982   3.509   2.656   3.079
 2440SOL    HW2 1983   3.537   2.813   3.043
 2441SOL     OW 1984   3.087   2.187   2.311
 2441SOL    HW1 1985   3.152   2.113   2.300
 2441SOL    HW2 1986   3.107   2.237   2.395
 2442SOL     OW 1987   3.639   2.204   3.504
 2442SOL    HW1 1988   3.622   2.235   3.410
 2442SOL    HW2 1989   3.555   2.167   3.542
 2443SOL     OW 1990   3.592   2.796   3.379
 2443SOL    HW1 1991   3.630   2.887   3.394
 2443SOL    HW2 1992   3.584   2.779   3.280
 2444SOL     OW 1993   2.721   3.236   1.878
 2444SOL    HW1 1994   2.675   3.251   1.966
 2444SOL    HW2 1995   2.765   3.321   1.848
 2445SOL     OW 1996   2.523   3.652   2.815
 2445SOL    HW1 1997   2.477   3.740   2.802
 2445SOL    HW2 1998   2.622   3.664   2.808
 2446SOL     OW 1999   2.721   2.818   2.723
 2446SOL    HW1 2000   2.775   2.749   2.771
 2446SOL    HW2 2001   2.689   2.887   2.789
 2447SOL     OW 2002   2.945   2.846   1.949
 2447SOL    HW1 2003   2.922   2.899   1.867
 2447SOL    HW2 2004   3.026   2.790   1.930
 2448SOL     OW 2005   3.723   3.431   2.713
 2448SOL    HW1 2006   3.652   3.419   2.643
 2448SOL    HW2 2007   3.724   3.352   2.773
 2449SOL     OW 2008   2.083   3.176   3.706
 2449SOL    HW1 2009   2.018   3.103   3.685
 2449SOL    HW2 2010   2.087   3.190   3.804
 2450SOL     OW 2011   1.941   3.102   2.515
 2450SOL    HW1 2012   1.940   3.055   2.603
 2450SOL    HW2 2013   2.023   3.074   2.464
 2451SOL     OW 2014   2.534   3.253   3.486
 2451SOL    HW1 2015   2.456   3.203   3.524
 2451SOL    HW2 2016   2.531   3.348   3.517
 2452SOL     OW 2017   3.686   2.054   3.089
 2452SOL    HW1 2018   3.682   1.964   3.133
 2452SOL    HW2 2019   3.689   2.043   2.990
 2453SOL     OW 2020   2.290   2.286   2.382
 2453SOL    HW1 2021   2.320   2.214   2.320
 2453SOL    HW2 2022   2.251   2.246   2.465
 2454SOL     OW 2023   3.567   3.349   2.966
 2454SOL    HW1 2024   3.474   3.324   2.939
 2454SOL    HW2 2025   3.593   3.299   3.048
 2455SOL     OW 2026   2.179   2.409   3.142
 2455SOL    HW1 2027   2.217   2.350   3.214
 2455SOL    HW2 2028   2.219   2.383   3.054
 2456SOL     OW 2029   2.674   3.448   2.549
 2456SOL    HW1 2030   2.706   3.458   2.455
 2456SOL    HW2 2031   2.595   3.386   2.551
 2457SOL     OW 2032   3.286   2.076   2.974
 2457SOL    HW1 2033   3.338   2.011   3.029
 2457SOL    HW2 2034   3.237   2.139   3.035
 2458SOL     OW 2035   2.863   1.896   3.016
 2458SOL    HW1 2036   2.800   1.824   2.985
 2458SOL    HW2 2037   2.956   1.860   3.016
 2459SOL     OW 2038   2.632   3.192   2.163
 2459SOL    HW1 2039   2.586   3.105   2.180
 2459SOL    HW2 2040   2.723   3.189   2.204
 2460SOL     OW 2041   2.480   3.429   3.146
 2460SOL    HW1 2042   2.475   3.511   3.203
 2460SOL    HW2 2043   2.569   3.426   3.101
 2461SOL     OW 2044   3.214   1.914   2.030
 2461SOL    HW1 2045   3.249   1.873   1.946
 2461SOL    HW2 2046   3.124   1.876   2.050
 2462SOL     OW 2047   3.162   2.315   2.553
 2462SOL    HW1 2048   3.103   2.395   2.557
 2462SOL    HW2 2049   3.177   2.280   2.646
 2463SOL     OW 2050   3.455   2.083   2.744
 2463SOL    HW1 2051   3.371   2.082   2.798
 2463SOL    HW2 2052   3.457   2.166   2.688
 2464SOL     OW 2053   1.901   2.939   2.162
 2464SOL    HW1 2054   2.000   2.928   2.153
 2464SOL    HW2 2055   1.861   2.853   2.194
 2465SOL     OW 2056   2.737   3.508   2.199
 2465SOL    HW1 2057   2.660   3.473   2.145
 2465SOL    HW2 2058   2.705   3.579   2.261
 2466SOL     OW 2059   2.092   2.490   3.837
 2466SOL    HW1 2060   1.999   2.488   3.874
 2466SOL    HW2 2061   2.093   2.451   3.745
 2480SOL     OW 2062   2.468   2.826   3.847
 2480SOL    HW1 2063   2.475   2.910   3.793
 2480SOL    HW2 2064   2.514   2.839   3.935
 2483SOL     OW 2065   1.889   3.458   3.841
 2483SOL    HW1 2066   1.870   3.362   3.862
 2483SOL    HW2 2067   1.856   3.516   3.916
 2489SOL     OW 2068   3.387   2.861   3.914
 2489SOL    HW1 2069   3.324   2.785   3.927
 2489SOL    HW2 2070   3.435   2.879   4.000
 2492SOL     OW 2071   2.460   2.591   3.994
 2492SOL    HW1 2072   2.484   2.660   3.926
 2492SOL    HW2 2073   2.382   2.624   4.048
 2495SOL     OW 2074   2.903   2.563   4.153
 2495SOL    HW1 2075   2.929   2.559   4.249
 2495SOL    HW2 2076   2.818   2.512   4.139
 2497SOL     OW 2077   2.727   2.210   3.919
 2497SOL    HW1 2078   2.786   2.273   3.870
 2497SOL    HW2 2079   2.746   2.116   3.890
 2503SOL     OW 2080   2.183   2.805   3.966
 2503SOL    HW1 2081   2.265   2.844   3.924
 2503SOL    HW2 2082   2.156   2.723   3.917
 2511SOL     OW 2083   2.244   2.562   4.204
 2511SOL    HW1 2084   2.289   2.472   4.201
 2511SOL    HW2 2085   2.150   2.551   4.237
 2512SOL     OW 2086   2.476   1.984   3.841
 2512SOL    HW1 2087   2.574   1.962   3.848
 2512SOL    HW2 2088   2.445   1.967   3.748
 2516SOL     OW 2089   3.296   3.050   3.765
 2516SOL    HW1 2090   3.328   2.974   3.822
 2516SOL    HW2 2091   3.204   3.077   3.795
 2517SOL     OW 2092   2.159   1.897   3.895
 2517SOL    HW1 2093   2.208   1.981   3.874
 2517SOL    HW2 2094   2.221   1.832   3.940
 2522SOL     OW 2095   2.894   2.411   3.740
 2522SOL    HW1 2096   2.853   2.493   3.701
 2522SOL    HW2 2097   2.958   2.437   3.813
 2528SOL     OW 2098   2.350   3.247   3.898
 2528SOL    HW1 2099   2.263   3.232   3.945
 2528SOL    HW2 2100   2.333   3.273   3.803
 2530SOL     OW 2101   3.252   2.437   3.802
 2530SOL    HW1 2102   3.198   2.416   3.883
 2530SOL    HW2 2103   3.343   2.396   3.811
 2531SOL     OW 2104   2.389   2.118   4.052
 2531SOL    HW1 2105   2.416   2.059   3.977
 2531SOL    HW2 2106   2.389   2.213   4.021
 2534SOL     OW 2107   2.567   2.912   4.092
 2534SOL    HW1 2108   2.553   2.919   4.191
 2534SOL    HW2 2109   2.651   2.861   4.074
 2542SOL     OW 2110   3.071   2.387   3.999
 2542SOL    HW1 2111   3.084   2.303   4.053
 2542SOL    HW2 2112   3.042   2.461   4.059
 2548SOL     OW 2113   3.402   2.136   3.849
 2548SOL    HW1 2114   3.341   2.061   3.872
 2548SOL    HW2 2115   3.424   2.188   3.932
 2549SOL     OW 2116   3.165   2.700   3.766
 2549SOL    HW1 2117   3.199   2.607   3.781
 2549SOL    HW2 2118   3.183   2.727   3.671
 2553SOL     OW 2119   1.870   3.188   3.924
 2553SOL    HW1 2120   1.777   3.209   3.893
 2553SOL    HW2 2121   1.880   3.089   3.937
 2558SOL     OW 2122   2.677   2.434   4.049
 2558SOL    HW1 2123   2.684   2.345   4.003
 2558SOL    HW2 2124   2.583   2.468   4.041
 2560SOL     OW 2125   2.335   2.362   3.915
 2560SOL    HW1 2126   2.396   2.442   3.919
 2560SOL    HW2 2127   2.240   2.393   3.922
 2561SOL     OW 2128   3.164   2.717   4.033
 2561SOL    HW1 2129   3.078   2.686   4.075
 2561SOL    HW2 2130   3.160   2.703   3.934
 2567SOL     OW 2131   2.534   3.478   3.878
 2567SOL    HW1 2132   2.543   3.488   3.779
 2567SOL    HW2 2133   2.494   3.389   3.899
 2570SOL     OW 2134   3.056   3.474   3.755
 2570SOL    HW1 2135   3.062   3.381   3.792
 2570SOL    HW2 2136   2.997   3.474   3.675
 2572SOL     OW 2137   2.778   2.772   4.015
 2572SOL    HW1 2138   2.841   2.810   3.947
 2572SOL    HW2 2139   2.818   2.689   4.054
 2577SOL     OW 2140   2.117   3.210   4.014
 2577SOL    HW1 2141   2.021   3.211   3.987
 2577SOL    HW2 2142   2.129   3.263   4.098
 2578SOL     OW 2143   1.937   2.207   3.757
 2578SOL    HW1 2144   1.845   2.179   3.728
 2578SOL    HW2 2145   1.968   2.284   3.701
 2579SOL     OW 2146   1.934   2.028   4.042
 2579SOL    HW1 2147   1.917   2.111   3.988
 2579SOL    HW2 2148   2.024   1.991   4.020
 2580SOL     OW 2149   3.045   3.197   3.843
 2580SOL    HW1 2150   2.946   3.186   3.845
 2580SOL    HW2 2151   3.079   3.212   3.936
 2585SOL     OW 2152   2.721   3.236   3.740
 2585SOL    HW1 2153   2.675   3.251   3.828
 2585SOL    HW2 2154   2.765   3.321   3.710
 2588SOL     OW 2155   2.945   2.846   3.811
 2588SOL    HW1 2156   2.922   2.899   3.729
 2588SOL    HW2 2157   3.026   2.790   3.792
 2592SOL     OW 2158   2.290   2.286   4.244
 2592SOL    HW1 2159   2.320   2.214   4.182
 2592SOL    HW2 2160   2.251   2.246   4.327
 2595SOL     OW 2161   2.632   3.192   4.025
 2595SOL    HW1 2162   2.586   3.105   4.042
 2595SOL    HW2 2163   2.723   3.189   4.066
 2596SOL     OW 2164   3.214   1.914   3.892
 2596SOL    HW1 2165   3.249   1.873   3.808
 2596SOL    HW2 2166   3.124   1.876   3.912
 2599SOL     OW 2167   1.901   2.939   4.024
 2599SOL    HW1 2168   2.000   2.928   4.015
 2599SOL    HW2 2169   1.861   2.853   4.056
 2623SOL     OW 2170   2.179   3.975   1.801
 2623SOL    HW1 2171   2.250   4.046   1.807
 2623SOL    HW2 2172   2.091   4.014   1.829
 2643SOL     OW 2173   2.643   3.988   1.749
 2643SOL    HW1 2174   2.710   3.927   1.792
 2643SOL    HW2 2175   2.570   4.007   1.814
 2663SOL     OW 2176   2.777   3.813   1.402
 2663SOL    HW1 2177   2.802   3.793   1.307
 2663SOL    HW2 2178   2.849   3.869   1.444
 2672SOL     OW 2179   2.875   3.829   1.770
 2672SOL    HW1 2180   2.881   3.914   1.718
 2672SOL    HW2 2181   2.907   3.753   1.713
 2673SOL     OW 2182   2.366   3.774   1.740
 2673SOL    HW1 2183   2.324   3.717   1.670
 2673SOL    HW2 2184   2.300   3.843   1.772
 2712SOL     OW 2185   2.534   3.927   1.489
 2712SOL    HW1 2186   2.624   3.911   1.449
 2712SOL    HW2 2187   2.542   3.932   1.588
 2737SOL     OW 2188   2.087   3.999   2.858
 2737SOL    HW1 2189   2.122   3.982   2.950
 2737SOL    HW2 2190   1.999   3.954   2.846
 2738SOL     OW 2191   1.881   4.092   2.509
 2738SOL    HW1 2192   1.799   4.135   2.548
 2738SOL    HW2 2193   1.853   4.019   2.446
 2755SOL     OW 2194   2.671   3.728   2.364
 2755SOL    HW1 2195   2.711   3.819   2.355
 2755SOL    HW2 2196   2.571   3.736   2.370
 2760SOL     OW 2197   3.143   4.069   2.806
 2760SOL    HW1 2198   3.057   4.019   2.793
 2760SOL    HW2 2199   3.205   4.015   2.862
 2767SOL     OW 2200   2.727   4.072   2.057
 2767SOL    HW1 2201   2.786   4.135   2.008
 2767SOL    HW2 2202   2.746   3.978   2.028
 2769SOL     OW 2203   2.412   3.920   2.747
 2769SOL    HW1 2204   2.407   3.915   2.847
 2769SOL    HW2 2205   2.414   4.016   2.718
 2774SOL     OW 2206   3.262   3.831   2.288
 2774SOL    HW1 2207   3.238   3.794   2.198
 2774SOL    HW2 2208   3.361   3.847   2.292
 2777SOL     OW 2209   2.476   3.846   1.979
 2777SOL    HW1 2210   2.574   3.824   1.986
 2777SOL    HW2 2211   2.445   3.829   1.886
 2781SOL     OW 2212   2.401   3.788   2.374
 2781SOL    HW1 2213   2.320   3.789   2.432
 2781SOL    HW2 2214   2.404   3.871   2.319
 2782SOL     OW 2215   2.159   3.759   2.033
 2782SOL    HW1 2216   2.208   3.843   2.012
 2782SOL    HW2 2217   2.221   3.694   2.078
 2783SOL     OW 2218   2.797   3.960   2.342
 2783SOL    HW1 2219   2.749   4.001   2.264
 2783SOL    HW2 2220   2.896   3.958   2.323
 2788SOL     OW 2221   2.423   3.946   3.009
 2788SOL    HW1 2222   2.461   3.862   3.046
 2788SOL    HW2 2223   2.335   3.965   3.053
 2789SOL     OW 2224   2.728   4.178   2.504
 2789SOL    HW1 2225   2.696   4.250   2.442
 2789SOL    HW2 2226   2.752   4.097   2.451
 2790SOL     OW 2227   2.879   3.763   2.615
 2790SOL    HW1 2228   2.807   3.768   2.546
 2790SOL    HW2 2229   2.855   3.694   2.684
 2795SOL     OW 2230   2.389   3.980   2.190
 2795SOL    HW1 2231   2.416   3.921   2.115
 2795SOL    HW2 2232   2.389   4.075   2.159
 2798SOL     OW 2233   2.777   3.813   3.264
 2798SOL    HW1 2234   2.802   3.793   3.169
 2798SOL    HW2 2235   2.849   3.869   3.306
 2808SOL     OW 2236   2.366   3.774   3.602
 2808SOL    HW1 2237   2.324   3.717   3.532
 2808SOL    HW2 2238   2.300   3.843   3.634
 2812SOL     OW 2239   2.169   3.937   3.093
 2812SOL    HW1 2240   2.146   3.974   3.183
 2812SOL    HW2 2241   2.139   3.842   3.087
 2815SOL     OW 2242   2.169   3.787   2.480
 2815SOL    HW1 2243   2.158   3.881   2.513
 2815SOL    HW2 2244   2.164   3.724   2.557
 2824SOL     OW 2245   3.022   3.931   3.339
 2824SOL    HW1 2246   3.022   3.995   3.416
 2824SOL    HW2 2247   3.050   3.979   3.256
 2836SOL     OW 2248   3.588   3.859   2.385
 2836SOL    HW1 2249   3.661   3.842   2.318
 2836SOL    HW2 2250   3.557   3.772   2.423
 2839SOL     OW 2251   2.125   4.050   2.582
 2839SOL    HW1 2252   2.046   4.101   2.548
 2839SOL    HW2 2253   2.116   4.035   2.680
 2843SOL     OW 2254   2.876   3.960   2.833
 2843SOL    HW1 2255   2.868   3.924   2.740
 2843SOL    HW2 2256   2.874   3.884   2.898
 2846SOL     OW 2257   2.534   3.927   3.351
 2846SOL    HW1 2258   2.624   3.911   3.311
 2846SOL    HW2 2259   2.542   3.932   3.450
 2847SOL     OW 2260   1.937   4.069   1.895
 2847SOL    HW1 2261   1.845   4.041   1.866
 2847SOL    HW2 2262   1.968   4.146   1.839
 2849SOL     OW 2263   1.934   3.890   2.180
 2849SOL    HW1 2264   1.917   3.973   2.126
 2849SOL    HW2 2265   2.024   3.853   2.158
 2855SOL     OW 2266   3.087   4.049   2.311
 2855SOL    HW1 2267   3.152   3.975   2.300
 2855SOL    HW2 2268   3.107   4.099   2.395
 2863SOL     OW 2269   2.290   4.148   2.382
 2863SOL    HW1 2270   2.320   4.076   2.320
 2863SOL    HW2 2271   2.251   4.108   2.465
 2865SOL     OW 2272   3.286   3.938   2.974
 2865SOL    HW1 2273   3.338   3.873   3.029
 2865SOL    HW2 2274   3.237   4.001   3.035
 2866SOL     OW 2275   2.863   3.758   3.016
 2866SOL    HW1 2276   2.800   3.686   2.985
 2866SOL    HW2 2277   2.956   3.722   3.016
 2868SOL     OW 2278   3.214   3.776   2.030
 2868SOL    HW1 2279   3.249   3.735   1.946
 2868SOL    HW2 2280   3.124   3.738   2.050
 2994SOL     OW 2281   3.854   1.821   1.571
 2994SOL    HW1 2282   3.844   1.806   1.670
 2994SOL    HW2 2283   3.768   1.857   1.535
 3068SOL     OW 2284   3.854   1.794   1.851
 3068SOL    HW1 2285   3.813   1.720   1.904
 3068SOL    HW2 2286   3.918   1.845   1.909
 3111SOL     OW 2287   3.955   1.713   2.345
 3111SOL    HW1 2288   3.989   1.790   2.399
 3111SOL    HW2 2289   3.999   1.713   2.255
 3118SOL     OW 2290   3.751   1.596   1.979
 3118SOL    HW1 2291   3.732   1.500   2.000
 3118SOL    HW2 2292   3.718   1.654   2.054
 3134SOL     OW 2293   4.075   1.801   2.715
 3134SOL    HW1 2294   4.125   1.715   2.721
 3134SOL    HW2 2295   4.140   1.878   2.712
 3139SOL     OW 2296   3.973   1.785   3.103
 3139SOL    HW1 2297   4.030   1.720   3.153
 3139SOL    HW2 2298   3.957   1.752   3.010
 3164SOL     OW 2299   3.788   1.564   3.193
 3164SOL    HW1 2300   3.742   1.646   3.159
 3164SOL    HW2 2301   3.886   1.583   3.202
 3188SOL     OW 2302   3.732   1.326   2.062
 3188SOL    HW1 2303   3.639   1.347   2.031
 3188SOL    HW2 2304   3.742   1.227   2.075
 3189SOL     OW 2305   3.812   1.801   2.789
 3189SOL    HW1 2306   3.770   1.715   2.762
 3189SOL    HW2 2307   3.906   1.804   2.755
 3345SOL     OW 2308   3.837   2.599   1.597
 3345SOL    HW1 2309   3.925   2.586   1.642
 3345SOL    HW2 2310   3.824   2.696   1.575
 3349SOL     OW 2311   4.041   2.113   1.801
 3349SOL    HW1 2312   4.112   2.184   1.807
 3349SOL    HW2 2313   3.953   2.152   1.829
 3363SOL     OW 2314   3.926   2.147   1.498
 3363SOL    HW1 2315   3.846   2.207   1.485
 3363SOL    HW2 2316   3.916   2.098   1.584
 3381SOL     OW 2317   3.802   2.418   1.386
 3381SOL    HW1 2318   3.894   2.417   1.345
 3381SOL    HW2 2319   3.796   2.492   1.453
 3408SOL     OW 2320   4.074   2.760   1.804
 3408SOL    HW1 2321   4.150   2.804   1.852
 3408SOL    HW2 2322   4.109   2.713   1.722
 3419SOL     OW 2323   3.913   2.382   1.722
 3419SOL    HW1 2324   3.972   2.342   1.652
 3419SOL    HW2 2325   3.855   2.453   1.681
 3441SOL     OW 2326   3.829   2.875   1.726
 3441SOL    HW1 2327   3.752   2.842   1.780
 3441SOL    HW2 2328   3.914   2.845   1.768
 3452SOL     OW 2329   3.945   3.176   1.844
 3452SOL    HW1 2330   3.880   3.103   1.823
 3452SOL    HW2 2331   3.949   3.190   1.942
 3463SOL     OW 2332   3.954   2.490   1.975
 3463SOL    HW1 2333   3.861   2.488   2.012
 3463SOL    HW2 2334   3.955   2.451   1.883
 3464SOL     OW 2335   3.949   2.137   2.858
 3464SOL    HW1 2336   3.984   2.120   2.950
 3464SOL    HW2 2337   3.861   2.092   2.846
 3465SOL     OW 2338   3.743   2.230   2.509
 3465SOL    HW1 2339   3.661   2.273   2.548
 3465SOL    HW2 2340   3.715   2.157   2.446
 3475SOL     OW 2341   3.954   3.296   2.400
 3475SOL    HW1 2342   3.928   3.392   2.400
 3475SOL    HW2 2343   3.883   3.242   2.445
 3476SOL     OW 2344   3.964   2.953   2.748
 3476SOL    HW1 2345   3.978   2.869   2.800
 3476SOL    HW2 2346   3.909   3.017   2.803
 3479SOL     OW 2347   3.846   2.505   2.425
 3479SOL    HW1 2348   3.801   2.417   2.442
 3479SOL    HW2 2349   3.845   2.559   2.509
 3480SOL     OW 2350   3.751   3.458   1.979
 3480SOL    HW1 2351   3.732   3.362   2.000
 3480SOL    HW2 2352   3.718   3.516   2.054
 3481SOL     OW 2353   3.837   2.599   3.459
 3481SOL    HW1 2354   3.925   2.586   3.504
 3481SOL    HW2 2355   3.824   2.696   3.437
 3484SOL     OW 2356   3.921   2.838   3.126
 3484SOL    HW1 2357   4.010   2.793   3.112
 3484SOL    HW2 2358   3.848   2.773   3.107
 3491SOL     OW 2359   3.800   2.673   2.651
 3491SOL    HW1 2360   3.899   2.661   2.660
 3491SOL    HW2 2361   3.776   2.768   2.672
 3497SOL     OW 2362   4.045   2.805   2.104
 3497SOL    HW1 2363   4.127   2.844   2.062
 3497SOL    HW2 2364   4.018   2.723   2.055
 3499SOL     OW 2365   3.926   2.147   3.360
 3499SOL    HW1 2366   3.846   2.207   3.347
 3499SOL    HW2 2367   3.916   2.098   3.446
 3503SOL     OW 2368   4.106   2.562   2.342
 3503SOL    HW1 2369   4.151   2.472   2.339
 3503SOL    HW2 2370   4.012   2.551   2.375
 3510SOL     OW 2371   4.021   1.897   2.033
 3510SOL    HW1 2372   4.070   1.981   2.012
 3510SOL    HW2 2373   4.083   1.832   2.078
 3516SOL     OW 2374   3.802   2.418   3.248
 3516SOL    HW1 2375   3.894   2.417   3.207
 3516SOL    HW2 2376   3.796   2.492   3.315
 3526SOL     OW 2377   3.788   3.426   3.193
 3526SOL    HW1 2378   3.742   3.508   3.159
 3526SOL    HW2 2379   3.886   3.445   3.202
 3527SOL     OW 2380   4.091   2.962   2.363
 3527SOL    HW1 2381   4.084   3.045   2.307
 3527SOL    HW2 2382   4.095   2.882   2.303
 3537SOL     OW 2383   4.031   2.075   3.093
 3537SOL    HW1 2384   4.008   2.112   3.183
 3537SOL    HW2 2385   4.001   1.980   3.087
 3538SOL     OW 2386   3.761   3.172   3.144
 3538SOL    HW1 2387   3.814   3.123   3.212
 3538SOL    HW2 2388   3.783   3.270   3.149
 3540SOL     OW 2389   4.031   1.925   2.480
 3540SOL    HW1 2390   4.020   2.019   2.513
 3540SOL    HW2 2391   4.026   1.862   2.557
 3546SOL     OW 2392   4.043   2.672   2.811
 3546SOL    HW1 2393   4.136   2.708   2.816
 3546SOL    HW2 2394   4.037   2.587   2.863
 3547SOL     OW 2395   4.063   2.371   2.868
 3547SOL    HW1 2396   4.011   2.288   2.851
 3547SOL    HW2 2397   4.140   2.376   2.804
 3550SOL     OW 2398   3.732   3.188   2.062
 3550SOL    HW1 2399   3.639   3.209   2.031
 3550SOL    HW2 2400   3.742   3.089   2.075
 3554SOL     OW 2401   3.764   2.406   2.976
 3554SOL    HW1 2402   3.849   2.373   2.935
 3554SOL    HW2 2403   3.777   2.421   3.074
 3560SOL     OW 2404   4.197   2.362   2.053
 3560SOL    HW1 2405   4.258   2.442   2.057
 3560SOL    HW2 2406   4.102   2.393   2.060
 3561SOL     OW 2407   3.883   2.999   3.328
 3561SOL    HW1 2408   3.905   2.938   3.404
 3561SOL    HW2 2409   3.893   2.950   3.242
 3563SOL     OW 2410   3.807   3.120   2.884
 3563SOL    HW1 2411   3.802   3.119   2.984
 3563SOL    HW2 2412   3.724   3.079   2.846
 3568SOL     OW 2413   3.987   2.188   2.582
 3568SOL    HW1 2414   3.908   2.239   2.548
 3568SOL    HW2 2415   3.978   2.173   2.680
 3575SOL     OW 2416   3.979   3.210   2.152
 3575SOL    HW1 2417   3.883   3.211   2.125
 3575SOL    HW2 2418   3.991   3.263   2.236
 3578SOL     OW 2419   3.799   2.207   1.895
 3578SOL    HW1 2420   3.707   2.179   1.866
 3578SOL    HW2 2421   3.830   2.284   1.839
 3579SOL     OW 2422   3.796   2.028   2.180
 3579SOL    HW1 2423   3.779   2.111   2.126
 3579SOL    HW2 2424   3.886   1.991   2.158
 3589SOL     OW 2425   3.803   3.102   2.515
 3589SOL    HW1 2426   3.802   3.055   2.603
 3589SOL    HW2 2427   3.885   3.074   2.464
 3591SOL     OW 2428   4.152   2.286   2.382
 3591SOL    HW1 2429   4.182   2.214   2.320
 3591SOL    HW2 2430   4.113   2.246   2.465
 3592SOL     OW 2431   4.041   2.409   3.142
 3592SOL    HW1 2432   4.079   2.350   3.214
 3592SOL    HW2 2433   4.081   2.383   3.054
 3597SOL     OW 2434   3.763   2.939   2.162
 3597SOL    HW1 2435   3.862   2.928   2.153
 3597SOL    HW2 2436   3.723   2.853   2.194
   4.92659   4.92659   4.92659
