; mobley_3105103_GMX.itp created by acpype (v: 2023.10.27) on Wed May 20 23:52:25 2026

[ atomtypes ]
;name   bond_type     mass     charge   ptype   sigma         epsilon       Amb
 cc       cc          0.00000  0.00000   A     3.31521e-01   4.13379e-01 ; 1.86  0.0988
 cd       cd          0.00000  0.00000   A     3.31521e-01   4.13379e-01 ; 1.86  0.0988
 c        c           0.00000  0.00000   A     3.31521e-01   4.13379e-01 ; 1.86  0.0988
 c3       c3          0.00000  0.00000   A     3.39771e-01   4.51035e-01 ; 1.91  0.1078
 ns       ns          0.00000  0.00000   A     3.26995e-01   4.91202e-01 ; 1.84  0.1174
 n        n           0.00000  0.00000   A     3.18086e-01   6.84502e-01 ; 1.79  0.1636
 o        o           0.00000  0.00000   A     3.04812e-01   6.12119e-01 ; 1.71  0.1463
 cl       cl          0.00000  0.00000   A     3.46595e-01   1.10374e+00 ; 1.95  0.2638
 hc       hc          0.00000  0.00000   A     2.60018e-01   8.70272e-02 ; 1.46  0.0208
 hn       hn          0.00000  0.00000   A     1.10650e-01   4.18400e-02 ; 0.62  0.0100

[ moleculetype ]
;name            nrexcl
 mobley_3105103   3

[ atoms ]
;   nr  type  resi  res  atom  cgnr     charge      mass       ; qtot   bond_type
     1   cc     1   MOL    C1    1    -0.193800     12.01000 ; qtot -0.194
     2   cd     1   MOL    C2    2     0.106400     12.01000 ; qtot -0.087
     3    c     1   MOL    C3    3     0.730700     12.01000 ; qtot 0.643
     4    c     1   MOL    C4    4     0.809499     12.01000 ; qtot 1.453
     5   c3     1   MOL    C5    5    -0.076900     12.01000 ; qtot 1.376
     6   c3     1   MOL    C6    6    -0.107433     12.01000 ; qtot 1.268
     7   c3     1   MOL    C7    7    -0.107433     12.01000 ; qtot 1.161
     8   c3     1   MOL    C8    8    -0.107433     12.01000 ; qtot 1.054
     9   c3     1   MOL    C9    9     0.136400     12.01000 ; qtot 1.190
    10   ns     1   MOL    N1   10    -0.469100     14.01000 ; qtot 0.721
    11    n     1   MOL    N2   11    -0.477400     14.01000 ; qtot 0.244
    12    o     1   MOL    O1   12    -0.588500     16.00000 ; qtot -0.345
    13    o     1   MOL    O2   13    -0.642500     16.00000 ; qtot -0.987
    14   cl     1   MOL   CL1   14    -0.043400     35.45000 ; qtot -1.031
    15   hc     1   MOL    H1   15     0.070367      1.00800 ; qtot -0.961
    16   hc     1   MOL    H2   16     0.070367      1.00800 ; qtot -0.890
    17   hc     1   MOL    H3   17     0.070367      1.00800 ; qtot -0.820
    18   hc     1   MOL    H4   18     0.051811      1.00800 ; qtot -0.768
    19   hc     1   MOL    H5   19     0.051811      1.00800 ; qtot -0.716
    20   hc     1   MOL    H6   20     0.051811      1.00800 ; qtot -0.664
    21   hc     1   MOL    H7   21     0.051811      1.00800 ; qtot -0.613
    22   hc     1   MOL    H8   22     0.051811      1.00800 ; qtot -0.561
    23   hc     1   MOL    H9   23     0.051811      1.00800 ; qtot -0.509
    24   hc     1   MOL   H10   24     0.051811      1.00800 ; qtot -0.457
    25   hc     1   MOL   H11   25     0.051811      1.00800 ; qtot -0.405
    26   hc     1   MOL   H12   26     0.051811      1.00800 ; qtot -0.354
    27   hn     1   MOL   H13   27     0.353500      1.00800 ; qtot -0.000

[ bonds ]
;   ai     aj funct   r             k
     1      2   1    1.3730e-01    3.2321e+05 ;     C1 - C2    
     1      3   1    1.4687e-01    2.3579e+05 ;     C1 - C3    
     1     14   1    1.7355e-01    1.6672e+05 ;     C1 - CL1   
     2      5   1    1.5018e-01    2.1244e+05 ;     C2 - C5    
     2     10   1    1.3765e-01    2.8439e+05 ;     C2 - N1    
     3     11   1    1.3967e-01    2.6565e+05 ;     C3 - N2    
     3     12   1    1.2190e-01    4.9421e+05 ;     C3 - O1    
     4     10   1    1.3798e-01    2.8122e+05 ;     C4 - N1    
     4     11   1    1.3967e-01    2.6565e+05 ;     C4 - N2    
     4     13   1    1.2190e-01    4.9421e+05 ;     C4 - O2    
     5     15   1    1.0962e-01    2.8891e+05 ;     C5 - H1    
     5     16   1    1.0962e-01    2.8891e+05 ;     C5 - H2    
     5     17   1    1.0962e-01    2.8891e+05 ;     C5 - H3    
     6      9   1    1.5354e-01    1.9154e+05 ;     C6 - C9    
     6     18   1    1.0962e-01    2.8891e+05 ;     C6 - H4    
     6     19   1    1.0962e-01    2.8891e+05 ;     C6 - H5    
     6     20   1    1.0962e-01    2.8891e+05 ;     C6 - H6    
     7      9   1    1.5354e-01    1.9154e+05 ;     C7 - C9    
     7     21   1    1.0962e-01    2.8891e+05 ;     C7 - H7    
     7     22   1    1.0962e-01    2.8891e+05 ;     C7 - H8    
     7     23   1    1.0962e-01    2.8891e+05 ;     C7 - H9    
     8      9   1    1.5354e-01    1.9154e+05 ;     C8 - C9    
     8     24   1    1.0962e-01    2.8891e+05 ;     C8 - H10   
     8     25   1    1.0962e-01    2.8891e+05 ;     C8 - H11   
     8     26   1    1.0962e-01    2.8891e+05 ;     C8 - H12   
     9     11   1    1.4643e-01    2.1293e+05 ;     C9 - N2    
    10     27   1    1.0132e-01    3.9630e+05 ;     N1 - H13   

[ pairs ]
;   ai     aj    funct
     1      4      1 ;     C1 - C4    
     1      9      1 ;     C1 - C9    
     1     15      1 ;     C1 - H1    
     1     16      1 ;     C1 - H2    
     1     17      1 ;     C1 - H3    
     1     27      1 ;     C1 - H13   
     2     11      1 ;     C2 - N2    
     2     12      1 ;     C2 - O1    
     2     13      1 ;     C2 - O2    
     3      5      1 ;     C3 - C5    
     3      6      1 ;     C3 - C6    
     3      7      1 ;     C3 - C7    
     3      8      1 ;     C3 - C8    
     3     10      1 ;     C3 - N1    
     3     13      1 ;     C3 - O2    
     4      5      1 ;     C4 - C5    
     4      6      1 ;     C4 - C6    
     4      7      1 ;     C4 - C7    
     4      8      1 ;     C4 - C8    
     4     12      1 ;     C4 - O1    
     5     27      1 ;     C5 - H13   
     6     21      1 ;     C6 - H7    
     6     22      1 ;     C6 - H8    
     6     23      1 ;     C6 - H9    
     6     24      1 ;     C6 - H10   
     6     25      1 ;     C6 - H11   
     6     26      1 ;     C6 - H12   
     7     18      1 ;     C7 - H4    
     7     19      1 ;     C7 - H5    
     7     20      1 ;     C7 - H6    
     7     24      1 ;     C7 - H10   
     7     25      1 ;     C7 - H11   
     7     26      1 ;     C7 - H12   
     8     18      1 ;     C8 - H4    
     8     19      1 ;     C8 - H5    
     8     20      1 ;     C8 - H6    
     8     21      1 ;     C8 - H7    
     8     22      1 ;     C8 - H8    
     8     23      1 ;     C8 - H9    
     9     10      1 ;     C9 - N1    
     9     12      1 ;     C9 - O1    
     9     13      1 ;     C9 - O2    
    10     15      1 ;     N1 - H1    
    10     16      1 ;     N1 - H2    
    10     17      1 ;     N1 - H3    
    11     18      1 ;     N2 - H4    
    11     19      1 ;     N2 - H5    
    11     20      1 ;     N2 - H6    
    11     21      1 ;     N2 - H7    
    11     22      1 ;     N2 - H8    
    11     23      1 ;     N2 - H9    
    11     24      1 ;     N2 - H10   
    11     25      1 ;     N2 - H11   
    11     26      1 ;     N2 - H12   
    11     27      1 ;     N2 - H13   
    13     27      1 ;     O2 - H13   
    14      5      1 ;    CL1 - C5    
    14     10      1 ;    CL1 - N1    
    14     11      1 ;    CL1 - N2    
    14     12      1 ;    CL1 - O1    

[ angles ]
;   ai     aj     ak    funct   theta         cth
     1      2      5      1    1.2668e+02    5.0258e+02 ;     C1 - C2     - C5    
     1      2     10      1    1.2046e+02    5.7438e+02 ;     C1 - C2     - N1    
     1      3     11      1    1.1269e+02    5.6911e+02 ;     C1 - C3     - N2    
     1      3     12      1    1.2406e+02    6.5572e+02 ;     C1 - C3     - O1    
     2      1      3      1    1.2132e+02    5.2049e+02 ;     C2 - C1     - C3    
     2      1     14      1    1.2321e+02    5.3488e+02 ;     C2 - C1     - CL1   
     2      5     15      1    1.1062e+02    3.6777e+02 ;     C2 - C5     - H1    
     2      5     16      1    1.1062e+02    3.6777e+02 ;     C2 - C5     - H2    
     2      5     17      1    1.1062e+02    3.6777e+02 ;     C2 - C5     - H3    
     2     10      4      1    1.2538e+02    6.5379e+02 ;     C2 - N1     - C4    
     2     10     27      1    1.1991e+02    4.7580e+02 ;     C2 - N1     - H13   
     3      1     14      1    1.1656e+02    5.4066e+02 ;     C3 - C1     - CL1   
     3     11      4      1    1.2521e+02    6.4559e+02 ;     C3 - N2     - C4    
     3     11      9      1    1.1883e+02    6.4634e+02 ;     C3 - N2     - C9    
     4     10     27      1    1.1726e+02    4.8007e+02 ;     C4 - N1     - H13   
     4     11      9      1    1.1883e+02    6.4634e+02 ;     C4 - N2     - C9    
     5      2     10      1    1.1636e+02    5.5614e+02 ;     C5 - C2     - N1    
     6      9      7      1    1.1263e+02    5.0099e+02 ;     C6 - C9     - C7    
     6      9      8      1    1.1263e+02    5.0099e+02 ;     C6 - C9     - C8    
     6      9     11      1    1.1278e+02    5.4350e+02 ;     C6 - C9     - N2    
     7      9      8      1    1.1263e+02    5.0099e+02 ;     C7 - C9     - C8    
     7      9     11      1    1.1278e+02    5.4350e+02 ;     C7 - C9     - N2    
     8      9     11      1    1.1278e+02    5.4350e+02 ;     C8 - C9     - N2    
     9      6     18      1    1.0968e+02    3.6208e+02 ;     C9 - C6     - H4    
     9      6     19      1    1.0968e+02    3.6208e+02 ;     C9 - C6     - H5    
     9      6     20      1    1.0968e+02    3.6208e+02 ;     C9 - C6     - H6    
     9      7     21      1    1.0968e+02    3.6208e+02 ;     C9 - C7     - H7    
     9      7     22      1    1.0968e+02    3.6208e+02 ;     C9 - C7     - H8    
     9      7     23      1    1.0968e+02    3.6208e+02 ;     C9 - C7     - H9    
     9      8     24      1    1.0968e+02    3.6208e+02 ;     C9 - C8     - H10   
     9      8     25      1    1.0968e+02    3.6208e+02 ;     C9 - C8     - H11   
     9      8     26      1    1.0968e+02    3.6208e+02 ;     C9 - C8     - H12   
    10      4     11      1    1.1437e+02    6.1965e+02 ;     N1 - C4     - N2    
    10      4     13      1    1.2305e+02    7.2977e+02 ;     N1 - C4     - O2    
    11      3     12      1    1.2257e+02    7.2534e+02 ;     N2 - C3     - O1    
    11      4     13      1    1.2257e+02    7.2534e+02 ;     N2 - C4     - O2    
    15      5     16      1    1.0773e+02    2.9957e+02 ;     H1 - C5     - H2    
    15      5     17      1    1.0773e+02    2.9957e+02 ;     H1 - C5     - H3    
    16      5     17      1    1.0773e+02    2.9957e+02 ;     H2 - C5     - H3    
    18      6     19      1    1.0773e+02    2.9957e+02 ;     H4 - C6     - H5    
    18      6     20      1    1.0773e+02    2.9957e+02 ;     H4 - C6     - H6    
    19      6     20      1    1.0773e+02    2.9957e+02 ;     H5 - C6     - H6    
    21      7     22      1    1.0773e+02    2.9957e+02 ;     H7 - C7     - H8    
    21      7     23      1    1.0773e+02    2.9957e+02 ;     H7 - C7     - H9    
    22      7     23      1    1.0773e+02    2.9957e+02 ;     H8 - C7     - H9    
    24      8     25      1    1.0773e+02    2.9957e+02 ;    H10 - C8     - H11   
    24      8     26      1    1.0773e+02    2.9957e+02 ;    H10 - C8     - H12   
    25      8     26      1    1.0773e+02    2.9957e+02 ;    H11 - C8     - H12   

[ dihedrals ] ; propers
; for gromacs 4.5 or higher, using funct 9
;    i      j      k      l   func   phase     kd      pn
     1      2      5     15      9     0.00   0.00000   0 ;     C1-    C2-    C5-    H1
     1      2      5     16      9     0.00   0.00000   0 ;     C1-    C2-    C5-    H2
     1      2      5     17      9     0.00   0.00000   0 ;     C1-    C2-    C5-    H3
     1      2     10      4      9   180.00   6.90360   2 ;     C1-    C2-    N1-    C4
     1      2     10     27      9   180.00   6.90360   2 ;     C1-    C2-    N1-   H13
     1      3     11      4      9   180.00  10.46000   2 ;     C1-    C3-    N2-    C4
     1      3     11      9      9   180.00  10.46000   2 ;     C1-    C3-    N2-    C9
     2      1      3     11      9   180.00  12.02900   2 ;     C2-    C1-    C3-    N2
     2      1      3     12      9   180.00  12.02900   2 ;     C2-    C1-    C3-    O1
     2     10      4     11      9   180.00   3.65054   2 ;     C2-    N1-    C4-    N2
     2     10      4     13      9   180.00  10.46000   2 ;     C2-    N1-    C4-    O2
     3      1      2      5      9   180.00  16.73600   2 ;     C3-    C1-    C2-    C5
     3      1      2     10      9   180.00  16.73600   2 ;     C3-    C1-    C2-    N1
     3     11      4     10      9   180.00  10.46000   2 ;     C3-    N2-    C4-    N1
     3     11      4     13      9   180.00  10.46000   2 ;     C3-    N2-    C4-    O2
     3     11      9      6      9     0.00   9.45584   1 ;     C3-    N2-    C9-    C6
     3     11      9      6      9   180.00   0.12552   3 ;     C3-    N2-    C9-    C6
     3     11      9      6      9   180.00   2.71960   4 ;     C3-    N2-    C9-    C6
     3     11      9      7      9     0.00   9.45584   1 ;     C3-    N2-    C9-    C7
     3     11      9      7      9   180.00   0.12552   3 ;     C3-    N2-    C9-    C7
     3     11      9      7      9   180.00   2.71960   4 ;     C3-    N2-    C9-    C7
     3     11      9      8      9     0.00   9.45584   1 ;     C3-    N2-    C9-    C8
     3     11      9      8      9   180.00   0.12552   3 ;     C3-    N2-    C9-    C8
     3     11      9      8      9   180.00   2.71960   4 ;     C3-    N2-    C9-    C8
     4     10      2      5      9   180.00   6.90360   2 ;     C4-    N1-    C2-    C5
     4     11      3     12      9   180.00  10.46000   2 ;     C4-    N2-    C3-    O1
     4     11      9      6      9     0.00   9.45584   1 ;     C4-    N2-    C9-    C6
     4     11      9      6      9   180.00   0.12552   3 ;     C4-    N2-    C9-    C6
     4     11      9      6      9   180.00   2.71960   4 ;     C4-    N2-    C9-    C6
     4     11      9      7      9     0.00   9.45584   1 ;     C4-    N2-    C9-    C7
     4     11      9      7      9   180.00   0.12552   3 ;     C4-    N2-    C9-    C7
     4     11      9      7      9   180.00   2.71960   4 ;     C4-    N2-    C9-    C7
     4     11      9      8      9     0.00   9.45584   1 ;     C4-    N2-    C9-    C8
     4     11      9      8      9   180.00   0.12552   3 ;     C4-    N2-    C9-    C8
     4     11      9      8      9   180.00   2.71960   4 ;     C4-    N2-    C9-    C8
     5      2     10     27      9   180.00   6.90360   2 ;     C5-    C2-    N1-   H13
     6      9      7     21      9     0.00   0.54392   3 ;     C6-    C9-    C7-    H7
     6      9      7     22      9     0.00   0.54392   3 ;     C6-    C9-    C7-    H8
     6      9      7     23      9     0.00   0.54392   3 ;     C6-    C9-    C7-    H9
     6      9      8     24      9     0.00   0.54392   3 ;     C6-    C9-    C8-   H10
     6      9      8     25      9     0.00   0.54392   3 ;     C6-    C9-    C8-   H11
     6      9      8     26      9     0.00   0.54392   3 ;     C6-    C9-    C8-   H12
     7      9      6     18      9     0.00   0.54392   3 ;     C7-    C9-    C6-    H4
     7      9      6     19      9     0.00   0.54392   3 ;     C7-    C9-    C6-    H5
     7      9      6     20      9     0.00   0.54392   3 ;     C7-    C9-    C6-    H6
     7      9      8     24      9     0.00   0.54392   3 ;     C7-    C9-    C8-   H10
     7      9      8     25      9     0.00   0.54392   3 ;     C7-    C9-    C8-   H11
     7      9      8     26      9     0.00   0.54392   3 ;     C7-    C9-    C8-   H12
     8      9      6     18      9     0.00   0.54392   3 ;     C8-    C9-    C6-    H4
     8      9      6     19      9     0.00   0.54392   3 ;     C8-    C9-    C6-    H5
     8      9      6     20      9     0.00   0.54392   3 ;     C8-    C9-    C6-    H6
     8      9      7     21      9     0.00   0.54392   3 ;     C8-    C9-    C7-    H7
     8      9      7     22      9     0.00   0.54392   3 ;     C8-    C9-    C7-    H8
     8      9      7     23      9     0.00   0.54392   3 ;     C8-    C9-    C7-    H9
     9     11      3     12      9   180.00  10.46000   2 ;     C9-    N2-    C3-    O1
     9     11      4     10      9   180.00  10.46000   2 ;     C9-    N2-    C4-    N1
     9     11      4     13      9   180.00  10.46000   2 ;     C9-    N2-    C4-    O2
    10      2      5     15      9     0.00   0.00000   0 ;     N1-    C2-    C5-    H1
    10      2      5     16      9     0.00   0.00000   0 ;     N1-    C2-    C5-    H2
    10      2      5     17      9     0.00   0.00000   0 ;     N1-    C2-    C5-    H3
    11      4     10     27      9   180.00  10.46000   2 ;     N2-    C4-    N1-   H13
    11      9      6     18      9     0.00   0.65084   3 ;     N2-    C9-    C6-    H4
    11      9      6     19      9     0.00   0.65084   3 ;     N2-    C9-    C6-    H5
    11      9      6     20      9     0.00   0.65084   3 ;     N2-    C9-    C6-    H6
    11      9      7     21      9     0.00   0.65084   3 ;     N2-    C9-    C7-    H7
    11      9      7     22      9     0.00   0.65084   3 ;     N2-    C9-    C7-    H8
    11      9      7     23      9     0.00   0.65084   3 ;     N2-    C9-    C7-    H9
    11      9      8     24      9     0.00   0.65084   3 ;     N2-    C9-    C8-   H10
    11      9      8     25      9     0.00   0.65084   3 ;     N2-    C9-    C8-   H11
    11      9      8     26      9     0.00   0.65084   3 ;     N2-    C9-    C8-   H12
    13      4     10     27      9     0.00   8.36800   1 ;     O2-    C4-    N1-   H13
    13      4     10     27      9   180.00  10.46000   2 ;     O2-    C4-    N1-   H13
    14      1      2      5      9   180.00  16.73600   2 ;    CL1-    C1-    C2-    C5
    14      1      2     10      9   180.00  16.73600   2 ;    CL1-    C1-    C2-    N1
    14      1      3     11      9   180.00  12.02900   2 ;    CL1-    C1-    C3-    N2
    14      1      3     12      9   180.00  12.02900   2 ;    CL1-    C1-    C3-    O1

[ dihedrals ] ; impropers
; treated as propers in GROMACS to use correct AMBER analytical function
;    i      j      k      l   func   phase     kd      pn
     1     11      3     12      4   180.00  43.93200   2 ;     C1-    N2-    C3-    O1
     3      4     11      9      4   180.00   4.60240   2 ;     C3-    C4-    N2-    C9
     4      2     10     27      4   180.00   4.60240   2 ;     C4-    C2-    N1-   H13
     5      1      2     10      4   180.00   4.60240   2 ;     C5-    C1-    C2-    N1
    11     10      4     13      4   180.00  43.93200   2 ;     N2-    N1-    C4-    O2
    14      1      2      3      4   180.00   4.60240   2 ;    CL1-    C1-    C2-    C3
