mobley_8823527_GMX.gro created by acpype (v: 2023.10.27) on Tue May 19 14:10:30 2026
 2407
    1MOL     C1    1   2.231   2.650   2.308
    1MOL     C2    2   2.221   2.514   2.339
    1MOL     C3    3   2.650   2.404   2.460
    1MOL     C4    4   2.537   2.460   2.667
    1MOL     C5    5   2.445   2.659   2.422
    1MOL     C6    6   2.542   2.462   2.527
    1MOL     C7    7   2.434   2.523   2.452
    1MOL     C8    8   2.343   2.722   2.350
    1MOL     C9    9   2.322   2.451   2.411
    1MOL    C10   10   2.753   2.345   2.532
    1MOL    C11   11   2.641   2.400   2.739
    1MOL    C12   12   2.749   2.343   2.671
    1MOL    CL1   13   2.356   2.890   2.312
    1MOL    CL2   14   2.304   2.283   2.446
    1MOL    CL3   15   2.883   2.276   2.441
    1MOL    CL4   16   2.629   2.401   2.911
    1MOL    CL5   17   2.878   2.269   2.761
    1MOL     H1   18   2.152   2.698   2.252
    1MOL     H2   19   2.133   2.459   2.306
    1MOL     H3   20   2.653   2.406   2.351
    1MOL     H4   21   2.453   2.504   2.719
    1MOL     H5   22   2.532   2.716   2.454
   35SOL     OW   23   1.187   1.792   1.616
   35SOL    HW1   24   1.211   1.852   1.540
   35SOL    HW2   25   1.194   1.697   1.586
   95SOL     OW   26   1.754   1.223   1.588
   95SOL    HW1   27   1.845   1.184   1.575
   95SOL    HW2   28   1.762   1.319   1.612
   97SOL     OW   29   1.592   1.629   1.625
   97SOL    HW1   30   1.619   1.663   1.535
   97SOL    HW2   31   1.671   1.591   1.671
  127SOL     OW   32   1.859   1.518   1.605
  127SOL    HW1   33   1.873   1.545   1.510
  127SOL    HW2   34   1.942   1.540   1.658
  152SOL     OW   35   1.759   1.747   1.154
  152SOL    HW1   36   1.820   1.777   1.081
  152SOL    HW2   37   1.721   1.658   1.132
  163SOL     OW   38   1.650   1.720   1.394
  163SOL    HW1   39   1.703   1.730   1.310
  163SOL    HW2   40   1.623   1.810   1.428
  219SOL     OW   41   1.555   1.511   2.565
  219SOL    HW1   42   1.498   1.495   2.646
  219SOL    HW2   43   1.496   1.521   2.485
  227SOL     OW   44   1.460   1.505   3.201
  227SOL    HW1   45   1.484   1.599   3.227
  227SOL    HW2   46   1.444   1.451   3.283
  238SOL     OW   47   1.842   1.767   2.221
  238SOL    HW1   48   1.896   1.738   2.301
  238SOL    HW2   49   1.872   1.857   2.192
  240SOL     OW   50   1.689   0.922   2.474
  240SOL    HW1   51   1.784   0.893   2.482
  240SOL    HW2   52   1.681   0.987   2.399
  241SOL     OW   53   1.641   1.108   2.294
  241SOL    HW1   54   1.727   1.110   2.242
  241SOL    HW2   55   1.655   1.155   2.382
  248SOL     OW   56   1.187   1.792   3.478
  248SOL    HW1   57   1.211   1.852   3.402
  248SOL    HW2   58   1.194   1.697   3.448
  250SOL     OW   59   1.466   1.417   2.815
  250SOL    HW1   60   1.407   1.423   2.895
  250SOL    HW2   61   1.451   1.329   2.769
  251SOL     OW   62   1.667   1.714   2.434
  251SOL    HW1   63   1.626   1.691   2.346
  251SOL    HW2   64   1.649   1.640   2.499
  254SOL     OW   65   1.576   1.662   2.169
  254SOL    HW1   66   1.665   1.708   2.172
  254SOL    HW2   67   1.555   1.638   2.074
  264SOL     OW   68   1.362   1.144   2.407
  264SOL    HW1   69   1.445   1.115   2.359
  264SOL    HW2   70   1.313   1.211   2.351
  268SOL     OW   71   1.795   1.066   2.735
  268SOL    HW1   72   1.733   1.051   2.659
  268SOL    HW2   73   1.743   1.077   2.820
  273SOL     OW   74   1.111   1.776   2.099
  273SOL    HW1   75   1.051   1.714   2.149
  273SOL    HW2   76   1.142   1.732   2.014
  275SOL     OW   77   1.632   1.377   1.943
  275SOL    HW1   78   1.600   1.471   1.933
  275SOL    HW2   79   1.556   1.314   1.931
  279SOL     OW   80   0.940   1.698   2.766
  279SOL    HW1   81   1.020   1.641   2.787
  279SOL    HW2   82   0.891   1.658   2.689
  289SOL     OW   83   1.434   1.188   1.903
  289SOL    HW1   84   1.466   1.112   1.960
  289SOL    HW2   85   1.342   1.215   1.933
  293SOL     OW   86   1.227   1.570   2.655
  293SOL    HW1   87   1.248   1.644   2.590
  293SOL    HW2   88   1.295   1.570   2.728
  295SOL     OW   89   1.271   1.797   2.453
  295SOL    HW1   90   1.315   1.861   2.389
  295SOL    HW2   91   1.221   1.849   2.523
  301SOL     OW   92   1.429   1.173   2.729
  301SOL    HW1   93   1.374   1.089   2.722
  301SOL    HW2   94   1.455   1.202   2.637
  303SOL     OW   95   1.857   0.833   2.239
  303SOL    HW1   96   1.899   0.769   2.303
  303SOL    HW2   97   1.819   0.782   2.161
  305SOL     OW   98   1.664   1.280   2.519
  305SOL    HW1   99   1.763   1.288   2.533
  305SOL    HW2  100   1.619   1.364   2.550
  308SOL     OW  101   1.754   1.223   3.450
  308SOL    HW1  102   1.845   1.184   3.437
  308SOL    HW2  103   1.762   1.319   3.474
  310SOL     OW  104   1.592   1.629   3.487
  310SOL    HW1  105   1.619   1.663   3.397
  310SOL    HW2  106   1.671   1.591   3.533
  312SOL     OW  107   1.638   1.099   2.941
  312SOL    HW1  108   1.643   1.180   3.000
  312SOL    HW2  109   1.552   1.101   2.890
  321SOL     OW  110   1.252   1.348   2.250
  321SOL    HW1  111   1.302   1.425   2.290
  321SOL    HW2  112   1.157   1.350   2.282
  322SOL     OW  113   1.272   1.445   3.004
  322SOL    HW1  114   1.319   1.458   3.091
  322SOL    HW2  115   1.206   1.371   3.013
  340SOL     OW  116   1.859   1.518   3.467
  340SOL    HW1  117   1.873   1.545   3.372
  340SOL    HW2  118   1.942   1.540   3.520
  365SOL     OW  119   1.759   1.747   3.016
  365SOL    HW1  120   1.820   1.777   2.943
  365SOL    HW2  121   1.721   1.658   2.994
  366SOL     OW  122   1.252   1.731   2.990
  366SOL    HW1  123   1.336   1.736   2.936
  366SOL    HW2  124   1.229   1.635   3.008
  370SOL     OW  125   1.388   1.573   2.339
  370SOL    HW1  126   1.455   1.585   2.265
  370SOL    HW2  127   1.348   1.662   2.362
  375SOL     OW  128   1.650   1.720   3.256
  375SOL    HW1  129   1.703   1.730   3.172
  375SOL    HW2  130   1.623   1.810   3.290
  378SOL     OW  131   1.194   1.612   1.893
  378SOL    HW1  132   1.200   1.519   1.930
  378SOL    HW2  133   1.135   1.612   1.813
  381SOL     OW  134   1.504   1.607   1.906
  381SOL    HW1  135   1.412   1.644   1.913
  381SOL    HW2  136   1.542   1.627   1.816
  383SOL     OW  137   1.614   1.292   3.151
  383SOL    HW1  138   1.674   1.295   3.231
  383SOL    HW2  139   1.539   1.356   3.164
  396SOL     OW  140   1.493   1.767   2.821
  396SOL    HW1  141   1.526   1.831   2.752
  396SOL    HW2  142   1.559   1.761   2.896
  409SOL     OW  143   1.861   1.569   2.713
  409SOL    HW1  144   1.790   1.557   2.643
  409SOL    HW2  145   1.862   1.490   2.773
  415SOL     OW  146   1.705   1.487   2.966
  415SOL    HW1  147   1.612   1.462   2.939
  415SOL    HW2  148   1.731   1.437   3.048
  577SOL     OW  149   0.850   2.660   1.823
  577SOL    HW1  150   0.846   2.736   1.888
  577SOL    HW2  151   0.872   2.696   1.732
  581SOL     OW  152   1.460   3.367   1.339
  581SOL    HW1  153   1.484   3.461   1.365
  581SOL    HW2  154   1.444   3.313   1.421
  585SOL     OW  155   1.127   3.203   1.690
  585SOL    HW1  156   1.174   3.203   1.778
  585SOL    HW2  157   1.079   3.116   1.679
  590SOL     OW  158   1.594   1.976   1.480
  590SOL    HW1  159   1.576   2.043   1.408
  590SOL    HW2  160   1.591   2.022   1.569
  598SOL     OW  161   1.293   3.090   1.423
  598SOL    HW1  162   1.330   3.017   1.365
  598SOL    HW2  163   1.345   3.095   1.508
  610SOL     OW  164   1.394   2.331   1.674
  610SOL    HW1  165   1.374   2.374   1.762
  610SOL    HW2  166   1.472   2.269   1.683
  611SOL     OW  167   0.973   2.752   1.572
  611SOL    HW1  168   1.019   2.668   1.543
  611SOL    HW2  169   0.917   2.786   1.497
  617SOL     OW  170   1.719   2.447   1.831
  617SOL    HW1  171   1.693   2.536   1.795
  617SOL    HW2  172   1.717   2.379   1.758
  635SOL     OW  173   1.547   2.084   1.729
  635SOL    HW1  174   1.542   2.121   1.821
  635SOL    HW2  175   1.475   2.015   1.717
  639SOL     OW  176   1.351   2.452   1.433
  639SOL    HW1  177   1.379   2.409   1.518
  639SOL    HW2  178   1.376   2.548   1.434
  646SOL     OW  179   1.076   2.545   1.464
  646SOL    HW1  180   0.996   2.484   1.467
  646SOL    HW2  181   1.157   2.492   1.440
  662SOL     OW  182   1.754   3.085   1.588
  662SOL    HW1  183   1.845   3.046   1.575
  662SOL    HW2  184   1.762   3.181   1.612
  664SOL     OW  185   1.592   3.491   1.625
  664SOL    HW1  186   1.619   3.525   1.535
  664SOL    HW2  187   1.671   3.453   1.671
  666SOL     OW  188   1.638   2.961   1.079
  666SOL    HW1  189   1.643   3.042   1.138
  666SOL    HW2  190   1.552   2.963   1.028
  668SOL     OW  191   0.980   2.978   1.719
  668SOL    HW1  192   0.881   2.984   1.729
  668SOL    HW2  193   1.003   2.898   1.663
  671SOL     OW  194   1.274   2.248   1.262
  671SOL    HW1  195   1.295   2.322   1.326
  671SOL    HW2  196   1.185   2.265   1.219
  680SOL     OW  197   1.587   2.641   1.670
  680SOL    HW1  198   1.495   2.679   1.665
  680SOL    HW2  199   1.647   2.688   1.605
  681SOL     OW  200   1.013   1.967   1.770
  681SOL    HW1  201   1.019   2.052   1.718
  681SOL    HW2  202   1.045   1.891   1.713
  689SOL     OW  203   1.728   2.797   1.854
  689SOL    HW1  204   1.682   2.790   1.765
  689SOL    HW2  205   1.666   2.841   1.920
  694SOL     OW  206   1.859   3.380   1.605
  694SOL    HW1  207   1.873   3.407   1.510
  694SOL    HW2  208   1.942   3.402   1.658
  701SOL     OW  209   1.138   2.242   1.678
  701SOL    HW1  210   1.093   2.305   1.742
  701SOL    HW2  211   1.231   2.273   1.661
  702SOL     OW  212   1.160   2.069   1.477
  702SOL    HW1  213   1.160   2.133   1.554
  702SOL    HW2  214   1.188   2.117   1.394
  709SOL     OW  215   1.369   2.812   1.660
  709SOL    HW1  216   1.408   2.901   1.680
  709SOL    HW2  217   1.379   2.792   1.563
  711SOL     OW  218   1.657   2.466   1.206
  711SOL    HW1  219   1.619   2.397   1.268
  711SOL    HW2  220   1.739   2.430   1.162
  717SOL     OW  221   1.347   2.921   1.234
  717SOL    HW1  222   1.371   2.858   1.160
  717SOL    HW2  223   1.257   2.961   1.216
  730SOL     OW  224   1.650   3.582   1.394
  730SOL    HW1  225   1.703   3.592   1.310
  730SOL    HW2  226   1.623   3.672   1.428
  731SOL     OW  227   1.841   2.037   0.963
  731SOL    HW1  228   1.880   1.952   0.927
  731SOL    HW2  229   1.743   2.039   0.944
  738SOL     OW  230   1.614   3.154   1.289
  738SOL    HW1  231   1.674   3.157   1.369
  738SOL    HW2  232   1.539   3.218   1.302
  742SOL     OW  233   1.709   2.247   1.381
  742SOL    HW1  234   1.782   2.316   1.385
  742SOL    HW2  235   1.737   2.172   1.322
  747SOL     OW  236   1.440   2.718   1.398
  747SOL    HW1  237   1.383   2.770   1.335
  747SOL    HW2  238   1.536   2.730   1.374
  753SOL     OW  239   1.450   3.082   1.633
  753SOL    HW1  240   1.441   3.072   1.732
  753SOL    HW2  241   1.546   3.075   1.607
  755SOL     OW  242   1.674   2.745   1.254
  755SOL    HW1  243   1.647   2.656   1.217
  755SOL    HW2  244   1.675   2.813   1.181
  758SOL     OW  245   1.777   2.204   1.642
  758SOL    HW1  246   1.760   2.235   1.548
  758SOL    HW2  247   1.693   2.167   1.680
  759SOL     OW  248   1.730   2.796   1.517
  759SOL    HW1  249   1.768   2.887   1.532
  759SOL    HW2  250   1.722   2.779   1.418
  768SOL     OW  251   1.824   2.054   1.227
  768SOL    HW1  252   1.820   1.964   1.271
  768SOL    HW2  253   1.827   2.043   1.128
  773SOL     OW  254   1.424   2.076   1.112
  773SOL    HW1  255   1.476   2.011   1.167
  773SOL    HW2  256   1.375   2.139   1.173
  786SOL     OW  257   1.555   3.373   2.565
  786SOL    HW1  258   1.498   3.357   2.646
  786SOL    HW2  259   1.496   3.383   2.485
  787SOL     OW  260   1.135   2.565   2.579
  787SOL    HW1  261   1.192   2.643   2.554
  787SOL    HW2  262   1.075   2.591   2.655
  788SOL     OW  263   1.755   2.469   2.093
  788SOL    HW1  264   1.743   2.456   1.994
  788SOL    HW2  265   1.725   2.388   2.142
  794SOL     OW  266   1.460   3.367   3.201
  794SOL    HW1  267   1.484   3.461   3.227
  794SOL    HW2  268   1.444   3.313   3.283
  796SOL     OW  269   1.603   2.309   2.599
  796SOL    HW1  270   1.529   2.355   2.549
  796SOL    HW2  271   1.654   2.377   2.652
  803SOL     OW  272   1.594   1.976   3.342
  803SOL    HW1  273   1.576   2.043   3.270
  803SOL    HW2  274   1.591   2.022   3.431
  805SOL     OW  275   1.842   3.629   2.221
  805SOL    HW1  276   1.896   3.600   2.301
  805SOL    HW2  277   1.872   3.719   2.192
  807SOL     OW  278   1.689   2.784   2.474
  807SOL    HW1  279   1.784   2.755   2.482
  807SOL    HW2  280   1.681   2.849   2.399
  808SOL     OW  281   1.641   2.970   2.294
  808SOL    HW1  282   1.727   2.972   2.242
  808SOL    HW2  283   1.655   3.017   2.382
  811SOL     OW  284   1.293   3.090   3.285
  811SOL    HW1  285   1.330   3.017   3.227
  811SOL    HW2  286   1.345   3.095   3.370
  814SOL     OW  287   1.525   2.861   2.052
  814SOL    HW1  288   1.462   2.785   2.065
  814SOL    HW2  289   1.573   2.879   2.138
  817SOL     OW  290   1.466   3.279   2.815
  817SOL    HW1  291   1.407   3.285   2.895
  817SOL    HW2  292   1.451   3.191   2.769
  818SOL     OW  293   1.667   3.576   2.434
  818SOL    HW1  294   1.626   3.553   2.346
  818SOL    HW2  295   1.649   3.502   2.499
  820SOL     OW  296   1.281   2.207   2.806
  820SOL    HW1  297   1.195   2.157   2.793
  820SOL    HW2  298   1.343   2.153   2.862
  821SOL     OW  299   1.576   3.524   2.169
  821SOL    HW1  300   1.665   3.570   2.172
  821SOL    HW2  301   1.555   3.500   2.074
  823SOL     OW  302   1.394   2.331   3.536
  823SOL    HW1  303   1.374   2.374   3.624
  823SOL    HW2  304   1.472   2.269   3.545
  825SOL     OW  305   0.991   2.272   3.104
  825SOL    HW1  306   0.914   2.306   3.158
  825SOL    HW2  307   0.957   2.221   3.025
  826SOL     OW  308   1.041   2.563   2.291
  826SOL    HW1  309   1.067   2.559   2.387
  826SOL    HW2  310   0.956   2.512   2.277
  829SOL     OW  311   0.865   2.210   2.057
  829SOL    HW1  312   0.924   2.273   2.008
  829SOL    HW2  313   0.884   2.116   2.028
  830SOL     OW  314   1.719   2.447   3.693
  830SOL    HW1  315   1.693   2.536   3.657
  830SOL    HW2  316   1.717   2.379   3.620
  831SOL     OW  317   1.362   3.006   2.407
  831SOL    HW1  318   1.445   2.977   2.359
  831SOL    HW2  319   1.313   3.073   2.351
  833SOL     OW  320   1.008   3.318   2.339
  833SOL    HW1  321   0.962   3.390   2.287
  833SOL    HW2  322   1.004   3.338   2.437
  835SOL     OW  323   1.795   2.928   2.735
  835SOL    HW1  324   1.733   2.913   2.659
  835SOL    HW2  325   1.743   2.939   2.820
  836SOL     OW  326   1.227   3.412   3.368
  836SOL    HW1  327   1.233   3.335   3.432
  836SOL    HW2  328   1.175   3.386   3.288
  838SOL     OW  329   1.458   2.597   2.590
  838SOL    HW1  330   1.453   2.532   2.665
  838SOL    HW2  331   1.538   2.656   2.603
  842SOL     OW  332   1.632   3.239   1.943
  842SOL    HW1  333   1.600   3.333   1.933
  842SOL    HW2  334   1.556   3.176   1.931
  844SOL     OW  335   1.400   1.969   2.288
  844SOL    HW1  336   1.376   1.932   2.198
  844SOL    HW2  337   1.499   1.985   2.292
  848SOL     OW  338   1.547   2.084   3.591
  848SOL    HW1  339   1.542   2.121   3.683
  848SOL    HW2  340   1.475   2.015   3.579
  852SOL     OW  341   1.351   2.452   3.295
  852SOL    HW1  342   1.379   2.409   3.380
  852SOL    HW2  343   1.376   2.548   3.296
  854SOL     OW  344   0.922   2.365   2.761
  854SOL    HW1  345   0.897   2.356   2.665
  854SOL    HW2  346   0.970   2.283   2.792
  856SOL     OW  347   1.434   3.050   1.903
  856SOL    HW1  348   1.466   2.974   1.960
  856SOL    HW2  349   1.342   3.077   1.933
  858SOL     OW  350   0.935   2.098   2.342
  858SOL    HW1  351   0.887   2.139   2.264
  858SOL    HW2  352   1.034   2.096   2.323
  859SOL     OW  353   1.076   2.545   3.326
  859SOL    HW1  354   0.996   2.484   3.329
  859SOL    HW2  355   1.157   2.492   3.302
  860SOL     OW  356   1.227   3.432   2.655
  860SOL    HW1  357   1.248   3.506   2.590
  860SOL    HW2  358   1.295   3.432   2.728
  862SOL     OW  359   1.271   3.659   2.453
  862SOL    HW1  360   1.315   3.723   2.389
  862SOL    HW2  361   1.221   3.711   2.523
  863SOL     OW  362   1.032   2.411   1.878
  863SOL    HW1  363   0.991   2.493   1.839
  863SOL    HW2  364   1.096   2.437   1.951
  866SOL     OW  365   0.866   2.316   2.504
  866SOL    HW1  366   0.834   2.388   2.442
  866SOL    HW2  367   0.890   2.235   2.451
  867SOL     OW  368   1.017   1.901   2.615
  867SOL    HW1  369   0.945   1.906   2.546
  867SOL    HW2  370   0.993   1.832   2.684
  868SOL     OW  371   1.429   3.035   2.729
  868SOL    HW1  372   1.374   2.951   2.722
  868SOL    HW2  373   1.455   3.064   2.637
  869SOL     OW  374   1.466   2.452   2.854
  869SOL    HW1  375   1.436   2.357   2.861
  869SOL    HW2  376   1.539   2.468   2.920
  870SOL     OW  377   1.857   2.695   2.239
  870SOL    HW1  378   1.899   2.631   2.303
  870SOL    HW2  379   1.819   2.644   2.161
  872SOL     OW  380   1.664   3.142   2.519
  872SOL    HW1  381   1.763   3.150   2.533
  872SOL    HW2  382   1.619   3.226   2.550
  873SOL     OW  383   1.390   2.437   1.940
  873SOL    HW1  384   1.336   2.416   2.021
  873SOL    HW2  385   1.481   2.396   1.949
  875SOL     OW  386   1.754   3.085   3.450
  875SOL    HW1  387   1.845   3.046   3.437
  875SOL    HW2  388   1.762   3.181   3.474
  876SOL     OW  389   1.064   3.209   3.202
  876SOL    HW1  390   0.984   3.186   3.257
  876SOL    HW2  391   1.147   3.183   3.251
  877SOL     OW  392   1.592   3.491   3.487
  877SOL    HW1  393   1.619   3.525   3.397
  877SOL    HW2  394   1.671   3.453   3.533
  878SOL     OW  395   1.111   3.057   2.962
  878SOL    HW1  396   1.071   3.101   3.043
  878SOL    HW2  397   1.070   3.094   2.879
  879SOL     OW  398   1.638   2.961   2.941
  879SOL    HW1  399   1.643   3.042   3.000
  879SOL    HW2  400   1.552   2.963   2.890
  884SOL     OW  401   1.274   2.248   3.124
  884SOL    HW1  402   1.295   2.322   3.188
  884SOL    HW2  403   1.185   2.265   3.081
  888SOL     OW  404   1.252   3.210   2.250
  888SOL    HW1  405   1.302   3.287   2.290
  888SOL    HW2  406   1.157   3.212   2.282
  889SOL     OW  407   1.272   3.307   3.004
  889SOL    HW1  408   1.319   3.320   3.091
  889SOL    HW2  409   1.206   3.233   3.013
  890SOL     OW  410   1.582   2.501   2.334
  890SOL    HW1  411   1.551   2.562   2.407
  890SOL    HW2  412   1.632   2.553   2.265
  893SOL     OW  413   1.587   2.641   3.532
  893SOL    HW1  414   1.495   2.679   3.527
  893SOL    HW2  415   1.647   2.688   3.467
  897SOL     OW  416   1.360   2.724   2.907
  897SOL    HW1  417   1.285   2.724   2.841
  897SOL    HW2  418   1.397   2.632   2.916
  898SOL     OW  419   1.209   2.387   2.137
  898SOL    HW1  420   1.222   2.303   2.191
  898SOL    HW2  421   1.180   2.461   2.197
  902SOL     OW  422   1.728   2.797   3.716
  902SOL    HW1  423   1.682   2.790   3.627
  902SOL    HW2  424   1.666   2.841   3.782
  904SOL     OW  425   1.622   2.229   2.236
  904SOL    HW1  426   1.624   2.153   2.300
  904SOL    HW2  427   1.574   2.306   2.276
  905SOL     OW  428   1.023   2.628   2.828
  905SOL    HW1  429   1.038   2.649   2.924
  905SOL    HW2  430   0.993   2.533   2.819
  907SOL     OW  431   1.859   3.380   3.467
  907SOL    HW1  432   1.873   3.407   3.372
  907SOL    HW2  433   1.942   3.402   3.520
  909SOL     OW  434   1.540   2.136   1.987
  909SOL    HW1  435   1.479   2.061   2.010
  909SOL    HW2  436   1.562   2.188   2.070
  910SOL     OW  437   1.303   2.700   1.904
  910SOL    HW1  438   1.337   2.607   1.919
  910SOL    HW2  439   1.321   2.727   1.809
  911SOL     OW  440   1.068   3.195   2.711
  911SOL    HW1  441   1.075   3.111   2.656
  911SOL    HW2  442   1.130   3.264   2.675
  914SOL     OW  443   1.138   2.242   3.540
  914SOL    HW1  444   1.093   2.305   3.604
  914SOL    HW2  445   1.231   2.273   3.523
  915SOL     OW  446   1.160   2.069   3.339
  915SOL    HW1  447   1.160   2.133   3.416
  915SOL    HW2  448   1.188   2.117   3.256
  919SOL     OW  449   1.002   2.658   3.100
  919SOL    HW1  450   1.043   2.626   3.186
  919SOL    HW2  451   0.906   2.631   3.097
  922SOL     OW  452   1.369   2.812   3.522
  922SOL    HW1  453   1.408   2.901   3.542
  922SOL    HW2  454   1.379   2.792   3.425
  923SOL     OW  455   0.815   2.434   2.187
  923SOL    HW1  456   0.822   2.345   2.141
  923SOL    HW2  457   0.721   2.468   2.179
  924SOL     OW  458   1.657   2.466   3.068
  924SOL    HW1  459   1.619   2.397   3.130
  924SOL    HW2  460   1.739   2.430   3.024
  930SOL     OW  461   1.347   2.921   3.096
  930SOL    HW1  462   1.371   2.858   3.022
  930SOL    HW2  463   1.257   2.961   3.078
  931SOL     OW  464   1.302   2.717   2.171
  931SOL    HW1  465   1.216   2.686   2.213
  931SOL    HW2  466   1.298   2.703   2.072
  932SOL     OW  467   1.759   3.609   3.016
  932SOL    HW1  468   1.820   3.639   2.943
  932SOL    HW2  469   1.721   3.520   2.994
  933SOL     OW  470   1.252   3.593   2.990
  933SOL    HW1  471   1.336   3.598   2.936
  933SOL    HW2  472   1.229   3.497   3.008
  936SOL     OW  473   1.726   1.997   2.385
  936SOL    HW1  474   1.799   1.980   2.318
  936SOL    HW2  475   1.695   1.910   2.423
  937SOL     OW  476   1.388   3.435   2.339
  937SOL    HW1  477   1.455   3.447   2.265
  937SOL    HW2  478   1.348   3.524   2.362
  939SOL     OW  479   1.280   2.789   2.534
  939SOL    HW1  480   1.340   2.708   2.536
  939SOL    HW2  481   1.320   2.858   2.474
  942SOL     OW  482   1.650   3.582   3.256
  942SOL    HW1  483   1.703   3.592   3.172
  942SOL    HW2  484   1.623   3.672   3.290
  943SOL     OW  485   1.841   2.037   2.825
  943SOL    HW1  486   1.880   1.952   2.789
  943SOL    HW2  487   1.743   2.039   2.806
  945SOL     OW  488   1.194   3.474   1.893
  945SOL    HW1  489   1.200   3.381   1.930
  945SOL    HW2  490   1.135   3.474   1.813
  947SOL     OW  491   0.916   2.772   2.153
  947SOL    HW1  492   0.979   2.810   2.085
  947SOL    HW2  493   0.956   2.689   2.192
  948SOL     OW  494   1.504   3.469   1.906
  948SOL    HW1  495   1.412   3.506   1.913
  948SOL    HW2  496   1.542   3.489   1.816
  950SOL     OW  497   1.614   3.154   3.151
  950SOL    HW1  498   1.674   3.157   3.231
  950SOL    HW2  499   1.539   3.218   3.164
  951SOL     OW  500   1.039   2.960   2.558
  951SOL    HW1  501   0.969   2.913   2.612
  951SOL    HW2  502   1.098   2.892   2.515
  952SOL     OW  503   1.014   2.098   2.833
  952SOL    HW1  504   1.006   2.062   2.740
  952SOL    HW2  505   1.012   2.022   2.898
  954SOL     OW  506   1.709   2.247   3.243
  954SOL    HW1  507   1.782   2.316   3.247
  954SOL    HW2  508   1.737   2.172   3.184
  959SOL     OW  509   1.440   2.718   3.260
  959SOL    HW1  510   1.383   2.770   3.197
  959SOL    HW2  511   1.536   2.730   3.236
  961SOL     OW  512   1.183   3.197   1.981
  961SOL    HW1  513   1.084   3.186   1.983
  961SOL    HW2  514   1.217   3.212   2.074
  963SOL     OW  515   1.493   3.629   2.821
  963SOL    HW1  516   1.526   3.693   2.752
  963SOL    HW2  517   1.559   3.623   2.896
  965SOL     OW  518   1.450   3.082   3.495
  965SOL    HW1  519   1.441   3.072   3.594
  965SOL    HW2  520   1.546   3.075   3.469
  967SOL     OW  521   1.674   2.745   3.116
  967SOL    HW1  522   1.647   2.656   3.079
  967SOL    HW2  523   1.675   2.813   3.043
  968SOL     OW  524   1.225   2.187   2.311
  968SOL    HW1  525   1.290   2.113   2.300
  968SOL    HW2  526   1.245   2.237   2.395
  970SOL     OW  527   1.777   2.204   3.504
  970SOL    HW1  528   1.760   2.235   3.410
  970SOL    HW2  529   1.693   2.167   3.542
  971SOL     OW  530   1.730   2.796   3.379
  971SOL    HW1  531   1.768   2.887   3.394
  971SOL    HW2  532   1.722   2.779   3.280
  974SOL     OW  533   0.859   2.818   2.723
  974SOL    HW1  534   0.913   2.749   2.771
  974SOL    HW2  535   0.827   2.887   2.789
  975SOL     OW  536   1.083   2.846   1.949
  975SOL    HW1  537   1.060   2.899   1.867
  975SOL    HW2  538   1.164   2.790   1.930
  976SOL     OW  539   1.861   3.431   2.713
  976SOL    HW1  540   1.790   3.419   2.643
  976SOL    HW2  541   1.862   3.352   2.773
  980SOL     OW  542   1.824   2.054   3.089
  980SOL    HW1  543   1.820   1.964   3.133
  980SOL    HW2  544   1.827   2.043   2.990
  982SOL     OW  545   1.705   3.349   2.966
  982SOL    HW1  546   1.612   3.324   2.939
  982SOL    HW2  547   1.731   3.299   3.048
  985SOL     OW  548   1.424   2.076   2.974
  985SOL    HW1  549   1.476   2.011   3.029
  985SOL    HW2  550   1.375   2.139   3.035
  986SOL     OW  551   1.001   1.896   3.016
  986SOL    HW1  552   0.938   1.824   2.985
  986SOL    HW2  553   1.094   1.860   3.016
  989SOL     OW  554   1.352   1.914   2.030
  989SOL    HW1  555   1.387   1.873   1.946
  989SOL    HW2  556   1.262   1.876   2.050
  990SOL     OW  557   1.300   2.315   2.553
  990SOL    HW1  558   1.241   2.395   2.557
  990SOL    HW2  559   1.315   2.280   2.646
  991SOL     OW  560   1.593   2.083   2.744
  991SOL    HW1  561   1.509   2.082   2.798
  991SOL    HW2  562   1.595   2.166   2.688
 1000SOL     OW  563   1.755   2.469   3.955
 1000SOL    HW1  564   1.743   2.456   3.856
 1000SOL    HW2  565   1.725   2.388   4.004
 1017SOL     OW  566   1.525   2.861   3.914
 1017SOL    HW1  567   1.462   2.785   3.927
 1017SOL    HW2  568   1.573   2.879   4.000
 1034SOL     OW  569   1.632   3.239   3.805
 1034SOL    HW1  570   1.600   3.333   3.795
 1034SOL    HW2  571   1.556   3.176   3.793
 1044SOL     OW  572   1.434   3.050   3.765
 1044SOL    HW1  573   1.466   2.974   3.822
 1044SOL    HW2  574   1.342   3.077   3.795
 1055SOL     OW  575   1.857   2.695   4.101
 1055SOL    HW1  576   1.899   2.631   4.165
 1055SOL    HW2  577   1.819   2.644   4.023
 1058SOL     OW  578   1.390   2.437   3.802
 1058SOL    HW1  579   1.336   2.416   3.883
 1058SOL    HW2  580   1.481   2.396   3.811
 1077SOL     OW  581   1.540   2.136   3.849
 1077SOL    HW1  582   1.479   2.061   3.872
 1077SOL    HW2  583   1.562   2.188   3.932
 1078SOL     OW  584   1.303   2.700   3.766
 1078SOL    HW1  585   1.337   2.607   3.781
 1078SOL    HW2  586   1.321   2.727   3.671
 1317SOL     OW  587   1.400   3.831   2.288
 1317SOL    HW1  588   1.376   3.794   2.198
 1317SOL    HW2  589   1.499   3.847   2.292
 1382SOL     OW  590   1.726   3.859   2.385
 1382SOL    HW1  591   1.799   3.842   2.318
 1382SOL    HW2  592   1.695   3.772   2.423
 1384SOL     OW  593   1.841   3.899   2.825
 1384SOL    HW1  594   1.880   3.814   2.789
 1384SOL    HW2  595   1.743   3.901   2.806
 1409SOL     OW  596   1.824   3.916   3.089
 1409SOL    HW1  597   1.820   3.826   3.133
 1409SOL    HW2  598   1.827   3.905   2.990
 1415SOL     OW  599   1.352   3.776   2.030
 1415SOL    HW1  600   1.387   3.735   1.946
 1415SOL    HW2  601   1.262   3.738   2.050
 1417SOL     OW  602   1.593   3.945   2.744
 1417SOL    HW1  603   1.509   3.944   2.798
 1417SOL    HW2  604   1.595   4.028   2.688
 1529SOL     OW  605   2.548   1.161   1.803
 1529SOL    HW1  606   2.608   1.240   1.817
 1529SOL    HW2  607   2.462   1.192   1.762
 1531SOL     OW  608   3.322   1.505   1.339
 1531SOL    HW1  609   3.346   1.599   1.365
 1531SOL    HW2  610   3.306   1.451   1.421
 1535SOL     OW  611   2.989   1.341   1.690
 1535SOL    HW1  612   3.036   1.341   1.778
 1535SOL    HW2  613   2.941   1.254   1.679
 1538SOL     OW  614   2.482   1.786   1.439
 1538SOL    HW1  615   2.390   1.769   1.474
 1538SOL    HW2  616   2.510   1.878   1.465
 1548SOL     OW  617   3.155   1.228   1.423
 1548SOL    HW1  618   3.192   1.155   1.365
 1548SOL    HW2  619   3.207   1.233   1.508
 1552SOL     OW  620   3.049   1.792   1.616
 1552SOL    HW1  621   3.073   1.852   1.540
 1552SOL    HW2  622   3.056   1.697   1.586
 1565SOL     OW  623   1.992   1.821   1.571
 1565SOL    HW1  624   1.982   1.806   1.670
 1565SOL    HW2  625   1.906   1.857   1.535
 1573SOL     OW  626   3.089   1.550   1.506
 1573SOL    HW1  627   3.095   1.473   1.570
 1573SOL    HW2  628   3.037   1.524   1.426
 1576SOL     OW  629   2.323   1.266   1.727
 1576SOL    HW1  630   2.273   1.267   1.641
 1576SOL    HW2  631   2.260   1.248   1.803
 1582SOL     OW  632   2.111   1.785   1.241
 1582SOL    HW1  633   2.168   1.720   1.291
 1582SOL    HW2  634   2.095   1.752   1.148
 1588SOL     OW  635   2.750   1.514   1.195
 1588SOL    HW1  636   2.727   1.489   1.101
 1588SOL    HW2  637   2.811   1.445   1.234
 1613SOL     OW  638   2.926   1.347   1.340
 1613SOL    HW1  639   2.846   1.324   1.395
 1613SOL    HW2  640   3.009   1.321   1.389
 1614SOL     OW  641   3.454   1.629   1.625
 1614SOL    HW1  642   3.481   1.663   1.535
 1614SOL    HW2  643   3.533   1.591   1.671
 1618SOL     OW  644   2.842   1.116   1.719
 1618SOL    HW1  645   2.743   1.122   1.729
 1618SOL    HW2  646   2.865   1.036   1.663
 1622SOL     OW  647   1.926   1.564   1.331
 1622SOL    HW1  648   1.880   1.646   1.297
 1622SOL    HW2  649   2.024   1.583   1.340
 1628SOL     OW  650   2.216   1.510   1.329
 1628SOL    HW1  651   2.195   1.466   1.242
 1628SOL    HW2  652   2.313   1.536   1.332
 1637SOL     OW  653   1.899   1.310   1.282
 1637SOL    HW1  654   1.952   1.261   1.350
 1637SOL    HW2  655   1.921   1.408   1.287
 1643SOL     OW  656   2.842   1.573   1.700
 1643SOL    HW1  657   2.822   1.617   1.612
 1643SOL    HW2  658   2.881   1.482   1.684
 1645SOL     OW  659   2.212   0.898   1.804
 1645SOL    HW1  660   2.288   0.942   1.852
 1645SOL    HW2  661   2.247   0.851   1.722
 1654SOL     OW  662   1.950   1.801   0.927
 1654SOL    HW1  663   1.908   1.715   0.900
 1654SOL    HW2  664   2.044   1.804   0.893
 1662SOL     OW  665   2.114   1.564   1.744
 1662SOL    HW1  666   2.084   1.621   1.820
 1662SOL    HW2  667   2.107   1.467   1.770
 1664SOL     OW  668   2.792   1.678   1.465
 1664SOL    HW1  669   2.768   1.660   1.370
 1664SOL    HW2  670   2.822   1.772   1.475
 1666SOL     OW  671   2.021   1.137   1.466
 1666SOL    HW1  672   2.043   1.076   1.542
 1666SOL    HW2  673   2.031   1.088   1.380
 1670SOL     OW  674   3.114   1.731   1.128
 1670SOL    HW1  675   3.198   1.736   1.074
 1670SOL    HW2  676   3.091   1.635   1.146
 1672SOL     OW  677   2.550   1.662   1.716
 1672SOL    HW1  678   2.494   1.743   1.725
 1672SOL    HW2  679   2.602   1.666   1.630
 1676SOL     OW  680   1.992   1.794   1.851
 1676SOL    HW1  681   1.951   1.720   1.904
 1676SOL    HW2  682   2.056   1.845   1.909
 1678SOL     OW  683   2.692   1.273   1.422
 1678SOL    HW1  684   2.687   1.306   1.517
 1678SOL    HW2  685   2.606   1.292   1.376
 1680SOL     OW  686   3.512   1.720   1.394
 1680SOL    HW1  687   3.565   1.730   1.310
 1680SOL    HW2  688   3.485   1.810   1.428
 1687SOL     OW  689   2.234   1.288   1.490
 1687SOL    HW1  690   2.221   1.381   1.456
 1687SOL    HW2  691   2.150   1.236   1.477
 1694SOL     OW  692   1.967   1.013   1.726
 1694SOL    HW1  693   1.890   0.980   1.780
 1694SOL    HW2  694   2.052   0.983   1.768
 1702SOL     OW  695   3.312   1.220   1.633
 1702SOL    HW1  696   3.303   1.210   1.732
 1702SOL    HW2  697   3.408   1.213   1.607
 1703SOL     OW  698   2.252   1.741   1.560
 1703SOL    HW1  699   2.161   1.782   1.558
 1703SOL    HW2  700   2.245   1.647   1.592
 1710SOL     OW  701   2.523   1.790   0.953
 1710SOL    HW1  702   2.477   1.878   0.940
 1710SOL    HW2  703   2.622   1.802   0.946
 1714SOL     OW  704   2.083   1.314   1.844
 1714SOL    HW1  705   2.018   1.241   1.823
 1714SOL    HW2  706   2.087   1.328   1.942
 1716SOL     OW  707   2.534   1.391   1.624
 1716SOL    HW1  708   2.456   1.341   1.662
 1716SOL    HW2  709   2.531   1.486   1.655
 1725SOL     OW  710   2.480   1.567   1.284
 1725SOL    HW1  711   2.475   1.649   1.341
 1725SOL    HW2  712   2.569   1.564   1.239
 1733SOL     OW  713   2.431   1.275   3.027
 1733SOL    HW1  714   2.338   1.268   2.990
 1733SOL    HW2  715   2.442   1.364   3.071
 1734SOL     OW  716   3.417   1.511   2.565
 1734SOL    HW1  717   3.360   1.495   2.646
 1734SOL    HW2  718   3.358   1.521   2.485
 1737SOL     OW  719   2.630   1.144   2.885
 1737SOL    HW1  720   2.552   1.161   2.945
 1737SOL    HW2  721   2.664   1.231   2.849
 1739SOL     OW  722   2.547   1.012   2.527
 1739SOL    HW1  723   2.616   0.996   2.597
 1739SOL    HW2  724   2.474   1.069   2.565
 1740SOL     OW  725   2.548   1.161   3.665
 1740SOL    HW1  726   2.608   1.240   3.679
 1740SOL    HW2  727   2.462   1.192   3.624
 1741SOL     OW  728   2.197   1.435   2.923
 1741SOL    HW1  729   2.119   1.404   2.870
 1741SOL    HW2  730   2.255   1.493   2.866
 1742SOL     OW  731   3.322   1.505   3.201
 1742SOL    HW1  732   3.346   1.599   3.227
 1742SOL    HW2  733   3.306   1.451   3.283
 1745SOL     OW  734   2.093   1.713   2.345
 1745SOL    HW1  735   2.127   1.790   2.399
 1745SOL    HW2  736   2.137   1.713   2.255
 1746SOL     OW  737   2.989   1.341   3.552
 1746SOL    HW1  738   3.036   1.341   3.640
 1746SOL    HW2  739   2.941   1.254   3.541
 1747SOL     OW  740   2.092   1.434   2.400
 1747SOL    HW1  741   2.066   1.530   2.400
 1747SOL    HW2  742   2.021   1.380   2.445
 1748SOL     OW  743   2.102   1.091   2.748
 1748SOL    HW1  744   2.116   1.007   2.800
 1748SOL    HW2  745   2.047   1.155   2.803
 1749SOL     OW  746   2.482   1.786   3.301
 1749SOL    HW1  747   2.390   1.769   3.336
 1749SOL    HW2  748   2.510   1.878   3.327
 1750SOL     OW  749   2.468   0.964   1.985
 1750SOL    HW1  750   2.475   1.048   1.931
 1750SOL    HW2  751   2.514   0.977   2.073
 1753SOL     OW  752   3.704   1.767   2.221
 1753SOL    HW1  753   3.758   1.738   2.301
 1753SOL    HW2  754   3.734   1.857   2.192
 1754SOL     OW  755   1.889   1.596   1.979
 1754SOL    HW1  756   1.870   1.500   2.000
 1754SOL    HW2  757   1.856   1.654   2.054
 1756SOL     OW  758   3.503   1.108   2.294
 1756SOL    HW1  759   3.589   1.110   2.242
 1756SOL    HW2  760   3.517   1.155   2.382
 1758SOL     OW  761   2.475   1.365   2.588
 1758SOL    HW1  762   2.426   1.278   2.597
 1758SOL    HW2  763   2.452   1.408   2.501
 1759SOL     OW  764   3.155   1.228   3.285
 1759SOL    HW1  765   3.192   1.155   3.227
 1759SOL    HW2  766   3.207   1.233   3.370
 1761SOL     OW  767   2.059   0.976   3.126
 1761SOL    HW1  768   2.148   0.931   3.112
 1761SOL    HW2  769   1.986   0.911   3.107
 1762SOL     OW  770   3.387   0.999   2.052
 1762SOL    HW1  771   3.324   0.923   2.065
 1762SOL    HW2  772   3.435   1.017   2.138
 1763SOL     OW  773   3.049   1.792   3.478
 1763SOL    HW1  774   3.073   1.852   3.402
 1763SOL    HW2  775   3.056   1.697   3.448
 1765SOL     OW  776   3.328   1.417   2.815
 1765SOL    HW1  777   3.269   1.423   2.895
 1765SOL    HW2  778   3.313   1.329   2.769
 1766SOL     OW  779   3.529   1.714   2.434
 1766SOL    HW1  780   3.488   1.691   2.346
 1766SOL    HW2  781   3.511   1.640   2.499
 1769SOL     OW  782   3.438   1.662   2.169
 1769SOL    HW1  783   3.527   1.708   2.172
 1769SOL    HW2  784   3.417   1.638   2.074
 1775SOL     OW  785   1.938   0.811   2.651
 1775SOL    HW1  786   2.037   0.799   2.660
 1775SOL    HW2  787   1.914   0.906   2.672
 1776SOL     OW  788   1.992   1.821   3.433
 1776SOL    HW1  789   1.982   1.806   3.532
 1776SOL    HW2  790   1.906   1.857   3.397
 1779SOL     OW  791   3.224   1.144   2.407
 1779SOL    HW1  792   3.307   1.115   2.359
 1779SOL    HW2  793   3.175   1.211   2.351
 1781SOL     OW  794   2.870   1.456   2.339
 1781SOL    HW1  795   2.824   1.528   2.287
 1781SOL    HW2  796   2.866   1.476   2.437
 1782SOL     OW  797   2.213   1.801   2.715
 1782SOL    HW1  798   2.263   1.715   2.721
 1782SOL    HW2  799   2.278   1.878   2.712
 1784SOL     OW  800   3.089   1.550   3.368
 1784SOL    HW1  801   3.095   1.473   3.432
 1784SOL    HW2  802   3.037   1.524   3.288
 1785SOL     OW  803   2.183   0.943   2.104
 1785SOL    HW1  804   2.265   0.982   2.062
 1785SOL    HW2  805   2.156   0.861   2.055
 1787SOL     OW  806   2.323   1.266   3.589
 1787SOL    HW1  807   2.273   1.267   3.503
 1787SOL    HW2  808   2.260   1.248   3.665
 1788SOL     OW  809   2.973   1.776   2.099
 1788SOL    HW1  810   2.913   1.714   2.149
 1788SOL    HW2  811   3.004   1.732   2.014
 1790SOL     OW  812   3.494   1.377   1.943
 1790SOL    HW1  813   3.462   1.471   1.933
 1790SOL    HW2  814   3.418   1.314   1.931
 1791SOL     OW  815   2.326   1.743   2.185
 1791SOL    HW1  816   2.359   1.782   2.271
 1791SOL    HW2  817   2.402   1.736   2.120
 1793SOL     OW  818   2.111   1.785   3.103
 1793SOL    HW1  819   2.168   1.720   3.153
 1793SOL    HW2  820   2.095   1.752   3.010
 1794SOL     OW  821   2.802   1.698   2.766
 1794SOL    HW1  822   2.882   1.641   2.787
 1794SOL    HW2  823   2.753   1.658   2.689
 1799SOL     OW  824   2.750   1.514   3.057
 1799SOL    HW1  825   2.727   1.489   2.963
 1799SOL    HW2  826   2.811   1.445   3.096
 1801SOL     OW  827   2.665   1.402   2.786
 1801SOL    HW1  828   2.755   1.416   2.744
 1801SOL    HW2  829   2.594   1.404   2.715
 1804SOL     OW  830   3.296   1.188   1.903
 1804SOL    HW1  831   3.328   1.112   1.960
 1804SOL    HW2  832   3.204   1.215   1.933
 1808SOL     OW  833   3.089   1.570   2.655
 1808SOL    HW1  834   3.110   1.644   2.590
 1808SOL    HW2  835   3.157   1.570   2.728
 1809SOL     OW  836   2.321   1.152   2.603
 1809SOL    HW1  837   2.250   1.125   2.668
 1809SOL    HW2  838   2.295   1.124   2.510
 1810SOL     OW  839   3.133   1.797   2.453
 1810SOL    HW1  840   3.177   1.861   2.389
 1810SOL    HW2  841   3.083   1.849   2.523
 1816SOL     OW  842   3.291   1.173   2.729
 1816SOL    HW1  843   3.236   1.089   2.722
 1816SOL    HW2  844   3.317   1.202   2.637
 1819SOL     OW  845   2.350   1.385   2.036
 1819SOL    HW1  846   2.263   1.370   2.083
 1819SOL    HW2  847   2.333   1.411   1.941
 1820SOL     OW  848   3.526   1.280   2.519
 1820SOL    HW1  849   3.625   1.288   2.533
 1820SOL    HW2  850   3.481   1.364   2.550
 1824SOL     OW  851   2.926   1.347   3.202
 1824SOL    HW1  852   2.846   1.324   3.257
 1824SOL    HW2  853   3.009   1.321   3.251
 1825SOL     OW  854   3.454   1.629   3.487
 1825SOL    HW1  855   3.481   1.663   3.397
 1825SOL    HW2  856   3.533   1.591   3.533
 1826SOL     OW  857   2.973   1.195   2.962
 1826SOL    HW1  858   2.933   1.239   3.043
 1826SOL    HW2  859   2.932   1.232   2.879
 1827SOL     OW  860   3.500   1.099   2.941
 1827SOL    HW1  861   3.505   1.180   3.000
 1827SOL    HW2  862   3.414   1.101   2.890
 1829SOL     OW  863   2.842   1.116   3.581
 1829SOL    HW1  864   2.743   1.122   3.591
 1829SOL    HW2  865   2.865   1.036   3.525
 1830SOL     OW  866   2.567   1.050   2.230
 1830SOL    HW1  867   2.553   1.057   2.329
 1830SOL    HW2  868   2.651   0.999   2.212
 1833SOL     OW  869   1.926   1.564   3.193
 1833SOL    HW1  870   1.880   1.646   3.159
 1833SOL    HW2  871   2.024   1.583   3.202
 1834SOL     OW  872   2.229   1.100   2.363
 1834SOL    HW1  873   2.222   1.183   2.307
 1834SOL    HW2  874   2.233   1.020   2.303
 1836SOL     OW  875   3.114   1.348   2.250
 1836SOL    HW1  876   3.164   1.425   2.290
 1836SOL    HW2  877   3.019   1.350   2.282
 1837SOL     OW  878   3.134   1.445   3.004
 1837SOL    HW1  879   3.181   1.458   3.091
 1837SOL    HW2  880   3.068   1.371   3.013
 1839SOL     OW  881   2.216   1.510   3.191
 1839SOL    HW1  882   2.195   1.466   3.104
 1839SOL    HW2  883   2.313   1.536   3.194
 1844SOL     OW  884   2.435   0.870   2.891
 1844SOL    HW1  885   2.479   0.959   2.882
 1844SOL    HW2  886   2.372   0.870   2.968
 1848SOL     OW  887   1.899   1.310   3.144
 1848SOL    HW1  888   1.952   1.261   3.212
 1848SOL    HW2  889   1.921   1.408   3.149
 1854SOL     OW  890   2.842   1.573   3.562
 1854SOL    HW1  891   2.822   1.617   3.474
 1854SOL    HW2  892   2.881   1.482   3.546
 1859SOL     OW  893   2.930   1.333   2.711
 1859SOL    HW1  894   2.937   1.249   2.656
 1859SOL    HW2  895   2.992   1.402   2.675
 1860SOL     OW  896   2.181   0.810   2.811
 1860SOL    HW1  897   2.274   0.846   2.816
 1860SOL    HW2  898   2.175   0.725   2.863
 1864SOL     OW  899   1.870   1.326   2.062
 1864SOL    HW1  900   1.777   1.347   2.031
 1864SOL    HW2  901   1.880   1.227   2.075
 1865SOL     OW  902   1.950   1.801   2.789
 1865SOL    HW1  903   1.908   1.715   2.762
 1865SOL    HW2  904   2.044   1.804   2.755
 1866SOL     OW  905   2.366   1.568   2.772
 1866SOL    HW1  906   2.432   1.642   2.781
 1866SOL    HW2  907   2.410   1.489   2.730
 1873SOL     OW  908   2.114   1.564   3.606
 1873SOL    HW1  909   2.084   1.621   3.682
 1873SOL    HW2  910   2.107   1.467   3.632
 1875SOL     OW  911   2.792   1.678   3.327
 1875SOL    HW1  912   2.768   1.660   3.232
 1875SOL    HW2  913   2.822   1.772   3.337
 1877SOL     OW  914   2.021   1.137   3.328
 1877SOL    HW1  915   2.043   1.076   3.404
 1877SOL    HW2  916   2.031   1.088   3.242
 1878SOL     OW  917   3.209   1.059   3.096
 1878SOL    HW1  918   3.233   0.996   3.022
 1878SOL    HW2  919   3.119   1.099   3.078
 1879SOL     OW  920   3.164   0.855   2.171
 1879SOL    HW1  921   3.078   0.824   2.213
 1879SOL    HW2  922   3.160   0.841   2.072
 1880SOL     OW  923   3.621   1.747   3.016
 1880SOL    HW1  924   3.682   1.777   2.943
 1880SOL    HW2  925   3.583   1.658   2.994
 1881SOL     OW  926   3.114   1.731   2.990
 1881SOL    HW1  927   3.198   1.736   2.936
 1881SOL    HW2  928   3.091   1.635   3.008
 1882SOL     OW  929   1.945   1.258   2.884
 1882SOL    HW1  930   1.940   1.257   2.984
 1882SOL    HW2  931   1.862   1.217   2.846
 1883SOL     OW  932   2.550   1.662   3.578
 1883SOL    HW1  933   2.494   1.743   3.587
 1883SOL    HW2  934   2.602   1.666   3.492
 1885SOL     OW  935   3.250   1.573   2.339
 1885SOL    HW1  936   3.317   1.585   2.265
 1885SOL    HW2  937   3.210   1.662   2.362
 1886SOL     OW  938   1.992   1.794   3.713
 1886SOL    HW1  939   1.951   1.720   3.766
 1886SOL    HW2  940   2.056   1.845   3.771
 1887SOL     OW  941   3.142   0.927   2.534
 1887SOL    HW1  942   3.202   0.846   2.536
 1887SOL    HW2  943   3.182   0.996   2.474
 1888SOL     OW  944   2.692   1.273   3.284
 1888SOL    HW1  945   2.687   1.306   3.379
 1888SOL    HW2  946   2.606   1.292   3.238
 1889SOL     OW  947   2.534   1.616   2.016
 1889SOL    HW1  948   2.543   1.626   1.917
 1889SOL    HW2  949   2.494   1.527   2.037
 1890SOL     OW  950   3.512   1.720   3.256
 1890SOL    HW1  951   3.565   1.730   3.172
 1890SOL    HW2  952   3.485   1.810   3.290
 1893SOL     OW  953   3.056   1.612   1.893
 1893SOL    HW1  954   3.062   1.519   1.930
 1893SOL    HW2  955   2.997   1.612   1.813
 1894SOL     OW  956   2.684   1.002   3.234
 1894SOL    HW1  957   2.724   1.001   3.142
 1894SOL    HW2  958   2.694   1.094   3.274
 1895SOL     OW  959   2.778   0.910   2.153
 1895SOL    HW1  960   2.841   0.948   2.085
 1895SOL    HW2  961   2.818   0.827   2.192
 1896SOL     OW  962   3.366   1.607   1.906
 1896SOL    HW1  963   3.274   1.644   1.913
 1896SOL    HW2  964   3.404   1.627   1.816
 1897SOL     OW  965   2.234   1.288   3.352
 1897SOL    HW1  966   2.221   1.381   3.318
 1897SOL    HW2  967   2.150   1.236   3.339
 1898SOL     OW  968   3.476   1.292   3.151
 1898SOL    HW1  969   3.536   1.295   3.231
 1898SOL    HW2  970   3.401   1.356   3.164
 1899SOL     OW  971   2.901   1.098   2.558
 1899SOL    HW1  972   2.831   1.051   2.612
 1899SOL    HW2  973   2.960   1.030   2.515
 1901SOL     OW  974   2.452   1.487   2.353
 1901SOL    HW1  975   2.494   1.429   2.283
 1901SOL    HW2  976   2.408   1.566   2.309
 1903SOL     OW  977   2.117   1.348   2.152
 1903SOL    HW1  978   2.021   1.349   2.125
 1903SOL    HW2  979   2.129   1.401   2.236
 1909SOL     OW  980   3.045   1.335   1.981
 1909SOL    HW1  981   2.946   1.324   1.983
 1909SOL    HW2  982   3.079   1.350   2.074
 1911SOL     OW  983   3.355   1.767   2.821
 1911SOL    HW1  984   3.388   1.831   2.752
 1911SOL    HW2  985   3.421   1.761   2.896
 1914SOL     OW  986   2.252   1.741   3.422
 1914SOL    HW1  987   2.161   1.782   3.420
 1914SOL    HW2  988   2.245   1.647   3.454
 1917SOL     OW  989   2.456   0.745   2.514
 1917SOL    HW1  990   2.506   0.830   2.495
 1917SOL    HW2  991   2.368   0.747   2.466
 1920SOL     OW  992   2.721   1.374   1.878
 1920SOL    HW1  993   2.675   1.389   1.966
 1920SOL    HW2  994   2.765   1.459   1.848
 1921SOL     OW  995   2.523   1.790   2.815
 1921SOL    HW1  996   2.477   1.878   2.802
 1921SOL    HW2  997   2.622   1.802   2.808
 1922SOL     OW  998   2.721   0.956   2.723
 1922SOL    HW1  999   2.775   0.887   2.771
 1922SOL    HW2 1000   2.689   1.025   2.789
 1923SOL     OW 1001   2.945   0.984   1.949
 1923SOL    HW1 1002   2.922   1.037   1.867
 1923SOL    HW2 1003   3.026   0.928   1.930
 1924SOL     OW 1004   3.723   1.569   2.713
 1924SOL    HW1 1005   3.652   1.557   2.643
 1924SOL    HW2 1006   3.724   1.490   2.773
 1925SOL     OW 1007   2.083   1.314   3.706
 1925SOL    HW1 1008   2.018   1.241   3.685
 1925SOL    HW2 1009   2.087   1.328   3.804
 1926SOL     OW 1010   1.941   1.240   2.515
 1926SOL    HW1 1011   1.940   1.193   2.603
 1926SOL    HW2 1012   2.023   1.212   2.464
 1927SOL     OW 1013   2.534   1.391   3.486
 1927SOL    HW1 1014   2.456   1.341   3.524
 1927SOL    HW2 1015   2.531   1.486   3.517
 1930SOL     OW 1016   3.567   1.487   2.966
 1930SOL    HW1 1017   3.474   1.462   2.939
 1930SOL    HW2 1018   3.593   1.437   3.048
 1932SOL     OW 1019   2.674   1.586   2.549
 1932SOL    HW1 1020   2.706   1.596   2.455
 1932SOL    HW2 1021   2.595   1.524   2.551
 1935SOL     OW 1022   2.632   1.330   2.163
 1935SOL    HW1 1023   2.586   1.243   2.180
 1935SOL    HW2 1024   2.723   1.327   2.204
 1936SOL     OW 1025   2.480   1.567   3.146
 1936SOL    HW1 1026   2.475   1.649   3.203
 1936SOL    HW2 1027   2.569   1.564   3.101
 1940SOL     OW 1028   1.901   1.077   2.162
 1940SOL    HW1 1029   2.000   1.066   2.153
 1940SOL    HW2 1030   1.861   0.991   2.194
 1941SOL     OW 1031   2.737   1.646   2.199
 1941SOL    HW1 1032   2.660   1.611   2.145
 1941SOL    HW2 1033   2.705   1.717   2.261
 1959SOL     OW 1034   1.889   1.596   3.841
 1959SOL    HW1 1035   1.870   1.500   3.862
 1959SOL    HW2 1036   1.856   1.654   3.916
 1981SOL     OW 1037   2.973   1.776   3.961
 1981SOL    HW1 1038   2.913   1.714   4.011
 1981SOL    HW2 1039   3.004   1.732   3.876
 1983SOL     OW 1040   2.326   1.743   4.047
 1983SOL    HW1 1041   2.359   1.782   4.133
 1983SOL    HW2 1042   2.402   1.736   3.982
 2004SOL     OW 1043   2.350   1.385   3.898
 2004SOL    HW1 1044   2.263   1.370   3.945
 2004SOL    HW2 1045   2.333   1.411   3.803
 2047SOL     OW 1046   2.534   1.616   3.878
 2047SOL    HW1 1047   2.543   1.626   3.779
 2047SOL    HW2 1048   2.494   1.527   3.899
 2050SOL     OW 1049   3.056   1.612   3.755
 2050SOL    HW1 1050   3.062   1.519   3.792
 2050SOL    HW2 1051   2.997   1.612   3.675
 2053SOL     OW 1052   3.366   1.607   3.768
 2053SOL    HW1 1053   3.274   1.644   3.775
 2053SOL    HW2 1054   3.404   1.627   3.678
 2067SOL     OW 1055   2.721   1.374   3.740
 2067SOL    HW1 1056   2.675   1.389   3.828
 2067SOL    HW2 1057   2.765   1.459   3.710
 2084SOL     OW 1058   2.737   1.646   4.061
 2084SOL    HW1 1059   2.660   1.611   4.007
 2084SOL    HW2 1060   2.705   1.717   4.123
 2086SOL     OW 1061   2.087   2.137   0.996
 2086SOL    HW1 1062   2.122   2.120   1.088
 2086SOL    HW2 1063   1.999   2.092   0.984
 2088SOL     OW 1064   2.431   3.137   1.165
 2088SOL    HW1 1065   2.338   3.130   1.128
 2088SOL    HW2 1066   2.442   3.226   1.209
 2092SOL     OW 1067   2.630   3.006   1.023
 2092SOL    HW1 1068   2.552   3.023   1.083
 2092SOL    HW2 1069   2.664   3.093   0.987
 2093SOL     OW 1070   2.712   2.660   1.823
 2093SOL    HW1 1071   2.708   2.736   1.888
 2093SOL    HW2 1072   2.734   2.696   1.732
 2095SOL     OW 1073   2.548   3.023   1.803
 2095SOL    HW1 1074   2.608   3.102   1.817
 2095SOL    HW2 1075   2.462   3.054   1.762
 2096SOL     OW 1076   2.197   3.297   1.061
 2096SOL    HW1 1077   2.119   3.266   1.008
 2096SOL    HW2 1078   2.255   3.355   1.004
 2097SOL     OW 1079   3.322   3.367   1.339
 2097SOL    HW1 1080   3.346   3.461   1.365
 2097SOL    HW2 1081   3.306   3.313   1.421
 2098SOL     OW 1082   2.300   2.254   1.499
 2098SOL    HW1 1083   2.382   2.198   1.508
 2098SOL    HW2 1084   2.219   2.196   1.503
 2101SOL     OW 1085   2.989   3.203   1.690
 2101SOL    HW1 1086   3.036   3.203   1.778
 2101SOL    HW2 1087   2.941   3.116   1.679
 2103SOL     OW 1088   2.102   2.953   0.886
 2103SOL    HW1 1089   2.116   2.869   0.938
 2103SOL    HW2 1090   2.047   3.017   0.941
 2104SOL     OW 1091   2.482   3.648   1.439
 2104SOL    HW1 1092   2.390   3.631   1.474
 2104SOL    HW2 1093   2.510   3.740   1.465
 2106SOL     OW 1094   3.456   1.976   1.480
 2106SOL    HW1 1095   3.438   2.043   1.408
 2106SOL    HW2 1096   3.453   2.022   1.569
 2112SOL     OW 1097   1.975   2.599   1.597
 2112SOL    HW1 1098   2.063   2.586   1.642
 2112SOL    HW2 1099   1.962   2.696   1.575
 2114SOL     OW 1100   3.155   3.090   1.423
 2114SOL    HW1 1101   3.192   3.017   1.365
 2114SOL    HW2 1102   3.207   3.095   1.508
 2116SOL     OW 1103   2.059   2.838   1.264
 2116SOL    HW1 1104   2.148   2.793   1.250
 2116SOL    HW2 1105   1.986   2.773   1.245
 2118SOL     OW 1106   3.049   3.654   1.616
 2118SOL    HW1 1107   3.073   3.714   1.540
 2118SOL    HW2 1108   3.056   3.559   1.586
 2119SOL     OW 1109   2.179   2.113   1.801
 2119SOL    HW1 1110   2.250   2.184   1.807
 2119SOL    HW2 1111   2.091   2.152   1.829
 2123SOL     OW 1112   3.143   2.207   0.944
 2123SOL    HW1 1113   3.057   2.157   0.931
 2123SOL    HW2 1114   3.205   2.153   1.000
 2125SOL     OW 1115   2.669   2.467   1.465
 2125SOL    HW1 1116   2.622   2.464   1.554
 2125SOL    HW2 1117   2.618   2.412   1.399
 2126SOL     OW 1118   3.256   2.331   1.674
 2126SOL    HW1 1119   3.236   2.374   1.762
 2126SOL    HW2 1120   3.334   2.269   1.683
 2127SOL     OW 1121   2.835   2.752   1.572
 2127SOL    HW1 1122   2.881   2.668   1.543
 2127SOL    HW2 1123   2.779   2.786   1.497
 2128SOL     OW 1124   2.853   2.272   1.242
 2128SOL    HW1 1125   2.776   2.306   1.296
 2128SOL    HW2 1126   2.819   2.221   1.163
 2131SOL     OW 1127   1.992   3.683   1.571
 2131SOL    HW1 1128   1.982   3.668   1.670
 2131SOL    HW2 1129   1.906   3.719   1.535
 2133SOL     OW 1130   3.581   2.447   1.831
 2133SOL    HW1 1131   3.555   2.536   1.795
 2133SOL    HW2 1132   3.579   2.379   1.758
 2135SOL     OW 1133   2.412   2.058   0.885
 2135SOL    HW1 1134   2.407   2.053   0.985
 2135SOL    HW2 1135   2.414   2.154   0.856
 2139SOL     OW 1136   3.089   3.412   1.506
 2139SOL    HW1 1137   3.095   3.335   1.570
 2139SOL    HW2 1138   3.037   3.386   1.426
 2142SOL     OW 1139   2.323   3.128   1.727
 2142SOL    HW1 1140   2.273   3.129   1.641
 2142SOL    HW2 1141   2.260   3.110   1.803
 2144SOL     OW 1142   2.064   2.147   1.498
 2144SOL    HW1 1143   1.984   2.207   1.485
 2144SOL    HW2 1144   2.054   2.098   1.584
 2148SOL     OW 1145   2.111   3.647   1.241
 2148SOL    HW1 1146   2.168   3.582   1.291
 2148SOL    HW2 1147   2.095   3.614   1.148
 2151SOL     OW 1148   3.409   2.084   1.729
 2151SOL    HW1 1149   3.404   2.121   1.821
 2151SOL    HW2 1150   3.337   2.015   1.717
 2153SOL     OW 1151   2.643   2.126   1.749
 2153SOL    HW1 1152   2.710   2.065   1.792
 2153SOL    HW2 1153   2.570   2.145   1.814
 2154SOL     OW 1154   2.750   3.376   1.195
 2154SOL    HW1 1155   2.727   3.351   1.101
 2154SOL    HW2 1156   2.811   3.307   1.234
 2155SOL     OW 1157   3.213   2.452   1.433
 2155SOL    HW1 1158   3.241   2.409   1.518
 2155SOL    HW2 1159   3.238   2.548   1.434
 2156SOL     OW 1160   2.665   3.264   0.924
 2156SOL    HW1 1161   2.755   3.278   0.882
 2156SOL    HW2 1162   2.594   3.266   0.853
 2157SOL     OW 1163   2.784   2.365   0.899
 2157SOL    HW1 1164   2.759   2.356   0.803
 2157SOL    HW2 1165   2.832   2.283   0.930
 2162SOL     OW 1166   2.938   2.545   1.464
 2162SOL    HW1 1167   2.858   2.484   1.467
 2162SOL    HW2 1168   3.019   2.492   1.440
 2167SOL     OW 1169   1.940   2.418   1.386
 2167SOL    HW1 1170   2.032   2.417   1.345
 2167SOL    HW2 1171   1.934   2.492   1.453
 2168SOL     OW 1172   2.423   2.084   1.147
 2168SOL    HW1 1173   2.461   2.000   1.184
 2168SOL    HW2 1174   2.335   2.103   1.191
 2172SOL     OW 1175   3.328   2.452   0.992
 2172SOL    HW1 1176   3.298   2.357   0.999
 2172SOL    HW2 1177   3.401   2.468   1.058
 2178SOL     OW 1178   3.616   3.085   1.588
 2178SOL    HW1 1179   3.707   3.046   1.575
 2178SOL    HW2 1180   3.624   3.181   1.612
 2179SOL     OW 1181   2.926   3.209   1.340
 2179SOL    HW1 1182   2.846   3.186   1.395
 2179SOL    HW2 1183   3.009   3.183   1.389
 2180SOL     OW 1184   3.454   3.491   1.625
 2180SOL    HW1 1185   3.481   3.525   1.535
 2180SOL    HW2 1186   3.533   3.453   1.671
 2181SOL     OW 1187   2.973   3.057   1.100
 2181SOL    HW1 1188   2.933   3.101   1.181
 2181SOL    HW2 1189   2.932   3.094   1.017
 2182SOL     OW 1190   3.500   2.961   1.079
 2182SOL    HW1 1191   3.505   3.042   1.138
 2182SOL    HW2 1192   3.414   2.963   1.028
 2183SOL     OW 1193   2.777   1.951   1.402
 2183SOL    HW1 1194   2.802   1.931   1.307
 2183SOL    HW2 1195   2.849   2.007   1.444
 2184SOL     OW 1196   2.842   2.978   1.719
 2184SOL    HW1 1197   2.743   2.984   1.729
 2184SOL    HW2 1198   2.865   2.898   1.663
 2186SOL     OW 1199   2.272   2.675   1.251
 2186SOL    HW1 1200   2.358   2.687   1.301
 2186SOL    HW2 1201   2.230   2.588   1.278
 2187SOL     OW 1202   3.136   2.248   1.262
 2187SOL    HW1 1203   3.157   2.322   1.326
 2187SOL    HW2 1204   3.047   2.265   1.219
 2188SOL     OW 1205   1.926   3.426   1.331
 2188SOL    HW1 1206   1.880   3.508   1.297
 2188SOL    HW2 1207   2.024   3.445   1.340
 2190SOL     OW 1208   2.428   2.399   0.865
 2190SOL    HW1 1209   2.440   2.465   0.791
 2190SOL    HW2 1210   2.474   2.433   0.948
 2192SOL     OW 1211   3.134   3.307   1.142
 2192SOL    HW1 1212   3.181   3.320   1.229
 2192SOL    HW2 1213   3.068   3.233   1.151
 2194SOL     OW 1214   2.216   3.372   1.329
 2194SOL    HW1 1215   2.195   3.328   1.242
 2194SOL    HW2 1216   2.313   3.398   1.332
 2195SOL     OW 1217   2.264   2.613   1.598
 2195SOL    HW1 1218   2.332   2.668   1.551
 2195SOL    HW2 1219   2.304   2.525   1.625
 2196SOL     OW 1220   3.449   2.641   1.670
 2196SOL    HW1 1221   3.357   2.679   1.665
 2196SOL    HW2 1222   3.509   2.688   1.605
 2197SOL     OW 1223   2.875   1.967   1.770
 2197SOL    HW1 1224   2.881   2.052   1.718
 2197SOL    HW2 1225   2.907   1.891   1.713
 2198SOL     OW 1226   2.366   1.912   1.740
 2198SOL    HW1 1227   2.324   1.855   1.670
 2198SOL    HW2 1228   2.300   1.981   1.772
 2199SOL     OW 1229   2.435   2.732   1.029
 2199SOL    HW1 1230   2.479   2.821   1.020
 2199SOL    HW2 1231   2.372   2.732   1.106
 2200SOL     OW 1232   3.222   2.724   1.045
 2200SOL    HW1 1233   3.147   2.724   0.979
 2200SOL    HW2 1234   3.259   2.632   1.054
 2202SOL     OW 1235   2.169   2.075   1.231
 2202SOL    HW1 1236   2.146   2.112   1.321
 2202SOL    HW2 1237   2.139   1.980   1.225
 2203SOL     OW 1238   1.899   3.172   1.282
 2203SOL    HW1 1239   1.952   3.123   1.350
 2203SOL    HW2 1240   1.921   3.270   1.287
 2204SOL     OW 1241   2.594   2.496   1.064
 2204SOL    HW1 1242   2.653   2.470   0.988
 2204SOL    HW2 1243   2.566   2.592   1.053
 2205SOL     OW 1244   3.590   2.797   1.854
 2205SOL    HW1 1245   3.544   2.790   1.765
 2205SOL    HW2 1246   3.528   2.841   1.920
 2208SOL     OW 1247   2.885   2.628   0.966
 2208SOL    HW1 1248   2.900   2.649   1.062
 2208SOL    HW2 1249   2.855   2.533   0.957
 2209SOL     OW 1250   2.842   3.435   1.700
 2209SOL    HW1 1251   2.822   3.479   1.612
 2209SOL    HW2 1252   2.881   3.344   1.684
 2210SOL     OW 1253   3.721   3.380   1.605
 2210SOL    HW1 1254   3.735   3.407   1.510
 2210SOL    HW2 1255   3.804   3.402   1.658
 2211SOL     OW 1256   2.212   2.760   1.804
 2211SOL    HW1 1257   2.288   2.804   1.852
 2211SOL    HW2 1258   2.247   2.713   1.722
 2215SOL     OW 1259   2.181   2.672   0.949
 2215SOL    HW1 1260   2.274   2.708   0.954
 2215SOL    HW2 1261   2.175   2.587   1.001
 2216SOL     OW 1262   2.201   2.371   1.006
 2216SOL    HW1 1263   2.149   2.288   0.989
 2216SOL    HW2 1264   2.278   2.376   0.942
 2217SOL     OW 1265   3.000   2.242   1.678
 2217SOL    HW1 1266   2.955   2.305   1.742
 2217SOL    HW2 1267   3.093   2.273   1.661
 2218SOL     OW 1268   3.022   2.069   1.477
 2218SOL    HW1 1269   3.022   2.133   1.554
 2218SOL    HW2 1270   3.050   2.117   1.394
 2222SOL     OW 1271   2.864   2.658   1.238
 2222SOL    HW1 1272   2.905   2.626   1.324
 2222SOL    HW2 1273   2.768   2.631   1.235
 2223SOL     OW 1274   1.902   2.406   1.114
 2223SOL    HW1 1275   1.987   2.373   1.073
 2223SOL    HW2 1276   1.915   2.421   1.212
 2224SOL     OW 1277   2.051   2.382   1.722
 2224SOL    HW1 1278   2.110   2.342   1.652
 2224SOL    HW2 1279   1.993   2.453   1.681
 2225SOL     OW 1280   3.231   2.812   1.660
 2225SOL    HW1 1281   3.270   2.901   1.680
 2225SOL    HW2 1282   3.241   2.792   1.563
 2227SOL     OW 1283   3.519   2.466   1.206
 2227SOL    HW1 1284   3.481   2.397   1.268
 2227SOL    HW2 1285   3.601   2.430   1.162
 2228SOL     OW 1286   2.114   3.426   1.744
 2228SOL    HW1 1287   2.084   3.483   1.820
 2228SOL    HW2 1288   2.107   3.329   1.770
 2229SOL     OW 1289   2.533   2.326   1.269
 2229SOL    HW1 1290   2.499   2.237   1.239
 2229SOL    HW2 1291   2.559   2.380   1.189
 2230SOL     OW 1292   2.792   3.540   1.465
 2230SOL    HW1 1293   2.768   3.522   1.370
 2230SOL    HW2 1294   2.822   3.634   1.475
 2232SOL     OW 1295   2.021   2.999   1.466
 2232SOL    HW1 1296   2.043   2.938   1.542
 2232SOL    HW2 1297   2.031   2.950   1.380
 2233SOL     OW 1298   3.209   2.921   1.234
 2233SOL    HW1 1299   3.233   2.858   1.160
 2233SOL    HW2 1300   3.119   2.961   1.216
 2237SOL     OW 1301   1.945   3.120   1.022
 2237SOL    HW1 1302   1.940   3.119   1.122
 2237SOL    HW2 1303   1.862   3.079   0.984
 2238SOL     OW 1304   2.550   3.524   1.716
 2238SOL    HW1 1305   2.494   3.605   1.725
 2238SOL    HW2 1306   2.602   3.528   1.630
 2242SOL     OW 1307   1.992   3.656   1.851
 2242SOL    HW1 1308   1.951   3.582   1.904
 2242SOL    HW2 1309   2.056   3.707   1.909
 2244SOL     OW 1310   2.692   3.135   1.422
 2244SOL    HW1 1311   2.687   3.168   1.517
 2244SOL    HW2 1312   2.606   3.154   1.376
 2250SOL     OW 1313   2.684   2.864   1.372
 2250SOL    HW1 1314   2.724   2.863   1.280
 2250SOL    HW2 1315   2.694   2.956   1.412
 2253SOL     OW 1316   2.234   3.150   1.490
 2253SOL    HW1 1317   2.221   3.243   1.456
 2253SOL    HW2 1318   2.150   3.098   1.477
 2254SOL     OW 1319   3.476   3.154   1.289
 2254SOL    HW1 1320   3.536   3.157   1.369
 2254SOL    HW2 1321   3.401   3.218   1.302
 2256SOL     OW 1322   2.876   2.098   0.971
 2256SOL    HW1 1323   2.868   2.062   0.878
 2256SOL    HW2 1324   2.874   2.022   1.036
 2258SOL     OW 1325   3.571   2.247   1.381
 2258SOL    HW1 1326   3.644   2.316   1.385
 2258SOL    HW2 1327   3.599   2.172   1.322
 2260SOL     OW 1328   1.967   2.875   1.726
 2260SOL    HW1 1329   1.890   2.842   1.780
 2260SOL    HW2 1330   2.052   2.845   1.768
 2261SOL     OW 1331   2.534   2.065   1.489
 2261SOL    HW1 1332   2.624   2.049   1.449
 2261SOL    HW2 1333   2.542   2.070   1.588
 2262SOL     OW 1334   3.302   2.718   1.398
 2262SOL    HW1 1335   3.245   2.770   1.335
 2262SOL    HW2 1336   3.398   2.730   1.374
 2265SOL     OW 1337   2.475   2.704   1.431
 2265SOL    HW1 1338   2.531   2.785   1.414
 2265SOL    HW2 1339   2.534   2.624   1.434
 2267SOL     OW 1340   2.578   2.427   1.708
 2267SOL    HW1 1341   2.597   2.492   1.782
 2267SOL    HW2 1342   2.638   2.347   1.717
 2268SOL     OW 1343   3.312   3.082   1.633
 2268SOL    HW1 1344   3.303   3.072   1.732
 2268SOL    HW2 1345   3.408   3.075   1.607
 2269SOL     OW 1346   2.252   3.603   1.560
 2269SOL    HW1 1347   2.161   3.644   1.558
 2269SOL    HW2 1348   2.245   3.509   1.592
 2270SOL     OW 1349   3.536   2.745   1.254
 2270SOL    HW1 1350   3.509   2.656   1.217
 2270SOL    HW2 1351   3.537   2.813   1.181
 2273SOL     OW 1352   3.639   2.204   1.642
 2273SOL    HW1 1353   3.622   2.235   1.548
 2273SOL    HW2 1354   3.555   2.167   1.680
 2274SOL     OW 1355   3.592   2.796   1.517
 2274SOL    HW1 1356   3.630   2.887   1.532
 2274SOL    HW2 1357   3.584   2.779   1.418
 2277SOL     OW 1358   2.721   2.818   0.861
 2277SOL    HW1 1359   2.775   2.749   0.909
 2277SOL    HW2 1360   2.689   2.887   0.927
 2280SOL     OW 1361   2.083   3.176   1.844
 2280SOL    HW1 1362   2.018   3.103   1.823
 2280SOL    HW2 1363   2.087   3.190   1.942
 2282SOL     OW 1364   2.534   3.253   1.624
 2282SOL    HW1 1365   2.456   3.203   1.662
 2282SOL    HW2 1366   2.531   3.348   1.655
 2283SOL     OW 1367   3.686   2.054   1.227
 2283SOL    HW1 1368   3.682   1.964   1.271
 2283SOL    HW2 1369   3.689   2.043   1.128
 2286SOL     OW 1370   2.179   2.409   1.280
 2286SOL    HW1 1371   2.217   2.350   1.352
 2286SOL    HW2 1372   2.219   2.383   1.192
 2288SOL     OW 1373   3.286   2.076   1.112
 2288SOL    HW1 1374   3.338   2.011   1.167
 2288SOL    HW2 1375   3.237   2.139   1.173
 2289SOL     OW 1376   2.863   1.896   1.154
 2289SOL    HW1 1377   2.800   1.824   1.123
 2289SOL    HW2 1378   2.956   1.860   1.154
 2291SOL     OW 1379   2.480   3.429   1.284
 2291SOL    HW1 1380   2.475   3.511   1.341
 2291SOL    HW2 1381   2.569   3.426   1.239
 2296SOL     OW 1382   2.092   2.490   1.975
 2296SOL    HW1 1383   1.999   2.488   2.012
 2296SOL    HW2 1384   2.093   2.451   1.883
 2297SOL     OW 1385   2.087   2.137   2.858
 2297SOL    HW1 1386   2.122   2.120   2.950
 2297SOL    HW2 1387   1.999   2.092   2.846
 2298SOL     OW 1388   1.881   2.230   2.509
 2298SOL    HW1 1389   1.799   2.273   2.548
 2298SOL    HW2 1390   1.853   2.157   2.446
 2299SOL     OW 1391   2.431   3.137   3.027
 2299SOL    HW1 1392   2.338   3.130   2.990
 2299SOL    HW2 1393   2.442   3.226   3.071
 2300SOL     OW 1394   3.417   3.373   2.565
 2300SOL    HW1 1395   3.360   3.357   2.646
 2300SOL    HW2 1396   3.358   3.383   2.485
 2301SOL     OW 1397   2.997   2.565   2.579
 2301SOL    HW1 1398   3.054   2.643   2.554
 2301SOL    HW2 1399   2.937   2.591   2.655
 2302SOL     OW 1400   3.617   2.469   2.093
 2302SOL    HW1 1401   3.605   2.456   1.994
 2302SOL    HW2 1402   3.587   2.388   2.142
 2303SOL     OW 1403   2.630   3.006   2.885
 2303SOL    HW1 1404   2.552   3.023   2.945
 2303SOL    HW2 1405   2.664   3.093   2.849
 2304SOL     OW 1406   2.712   2.660   3.685
 2304SOL    HW1 1407   2.708   2.736   3.750
 2304SOL    HW2 1408   2.734   2.696   3.594
 2305SOL     OW 1409   2.547   2.874   2.527
 2305SOL    HW1 1410   2.616   2.858   2.597
 2305SOL    HW2 1411   2.474   2.931   2.565
 2306SOL     OW 1412   2.548   3.023   3.665
 2306SOL    HW1 1413   2.608   3.102   3.679
 2306SOL    HW2 1414   2.462   3.054   3.624
 2307SOL     OW 1415   2.197   3.297   2.923
 2307SOL    HW1 1416   2.119   3.266   2.870
 2307SOL    HW2 1417   2.255   3.355   2.866
 2308SOL     OW 1418   3.322   3.367   3.201
 2308SOL    HW1 1419   3.346   3.461   3.227
 2308SOL    HW2 1420   3.306   3.313   3.283
 2309SOL     OW 1421   2.300   2.254   3.361
 2309SOL    HW1 1422   2.382   2.198   3.370
 2309SOL    HW2 1423   2.219   2.196   3.365
 2310SOL     OW 1424   3.465   2.309   2.599
 2310SOL    HW1 1425   3.391   2.355   2.549
 2310SOL    HW2 1426   3.516   2.377   2.652
 2311SOL     OW 1427   2.093   3.575   2.345
 2311SOL    HW1 1428   2.127   3.652   2.399
 2311SOL    HW2 1429   2.137   3.575   2.255
 2312SOL     OW 1430   2.989   3.203   3.552
 2312SOL    HW1 1431   3.036   3.203   3.640
 2312SOL    HW2 1432   2.941   3.116   3.541
 2313SOL     OW 1433   2.092   3.296   2.400
 2313SOL    HW1 1434   2.066   3.392   2.400
 2313SOL    HW2 1435   2.021   3.242   2.445
 2314SOL     OW 1436   2.102   2.953   2.748
 2314SOL    HW1 1437   2.116   2.869   2.800
 2314SOL    HW2 1438   2.047   3.017   2.803
 2315SOL     OW 1439   2.482   3.648   3.301
 2315SOL    HW1 1440   2.390   3.631   3.336
 2315SOL    HW2 1441   2.510   3.740   3.327
 2316SOL     OW 1442   2.468   2.826   1.985
 2316SOL    HW1 1443   2.475   2.910   1.931
 2316SOL    HW2 1444   2.514   2.839   2.073
 2317SOL     OW 1445   3.456   1.976   3.342
 2317SOL    HW1 1446   3.438   2.043   3.270
 2317SOL    HW2 1447   3.453   2.022   3.431
 2318SOL     OW 1448   1.984   2.505   2.425
 2318SOL    HW1 1449   1.939   2.417   2.442
 2318SOL    HW2 1450   1.983   2.559   2.509
 2319SOL     OW 1451   3.704   3.629   2.221
 2319SOL    HW1 1452   3.758   3.600   2.301
 2319SOL    HW2 1453   3.734   3.719   2.192
 2320SOL     OW 1454   1.889   3.458   1.979
 2320SOL    HW1 1455   1.870   3.362   2.000
 2320SOL    HW2 1456   1.856   3.516   2.054
 2321SOL     OW 1457   3.551   2.784   2.474
 2321SOL    HW1 1458   3.646   2.755   2.482
 2321SOL    HW2 1459   3.543   2.849   2.399
 2322SOL     OW 1460   3.503   2.970   2.294
 2322SOL    HW1 1461   3.589   2.972   2.242
 2322SOL    HW2 1462   3.517   3.017   2.382
 2323SOL     OW 1463   1.975   2.599   3.459
 2323SOL    HW1 1464   2.063   2.586   3.504
 2323SOL    HW2 1465   1.962   2.696   3.437
 2324SOL     OW 1466   2.475   3.227   2.588
 2324SOL    HW1 1467   2.426   3.140   2.597
 2324SOL    HW2 1468   2.452   3.270   2.501
 2325SOL     OW 1469   3.155   3.090   3.285
 2325SOL    HW1 1470   3.192   3.017   3.227
 2325SOL    HW2 1471   3.207   3.095   3.370
 2326SOL     OW 1472   2.671   1.866   2.364
 2326SOL    HW1 1473   2.711   1.957   2.355
 2326SOL    HW2 1474   2.571   1.874   2.370
 2327SOL     OW 1475   2.059   2.838   3.126
 2327SOL    HW1 1476   2.148   2.793   3.112
 2327SOL    HW2 1477   1.986   2.773   3.107
 2328SOL     OW 1478   3.387   2.861   2.052
 2328SOL    HW1 1479   3.324   2.785   2.065
 2328SOL    HW2 1480   3.435   2.879   2.138
 2329SOL     OW 1481   3.049   3.654   3.478
 2329SOL    HW1 1482   3.073   3.714   3.402
 2329SOL    HW2 1483   3.056   3.559   3.448
 2330SOL     OW 1484   2.179   2.113   3.663
 2330SOL    HW1 1485   2.250   2.184   3.669
 2330SOL    HW2 1486   2.091   2.152   3.691
 2331SOL     OW 1487   3.328   3.279   2.815
 2331SOL    HW1 1488   3.269   3.285   2.895
 2331SOL    HW2 1489   3.313   3.191   2.769
 2332SOL     OW 1490   3.529   3.576   2.434
 2332SOL    HW1 1491   3.488   3.553   2.346
 2332SOL    HW2 1492   3.511   3.502   2.499
 2333SOL     OW 1493   2.460   2.591   2.132
 2333SOL    HW1 1494   2.484   2.660   2.064
 2333SOL    HW2 1495   2.382   2.624   2.186
 2334SOL     OW 1496   3.143   2.207   2.806
 2334SOL    HW1 1497   3.057   2.157   2.793
 2334SOL    HW2 1498   3.205   2.153   2.862
 2335SOL     OW 1499   3.438   3.524   2.169
 2335SOL    HW1 1500   3.527   3.570   2.172
 2335SOL    HW2 1501   3.417   3.500   2.074
 2336SOL     OW 1502   2.669   2.467   3.327
 2336SOL    HW1 1503   2.622   2.464   3.416
 2336SOL    HW2 1504   2.618   2.412   3.261
 2337SOL     OW 1505   3.256   2.331   3.536
 2337SOL    HW1 1506   3.236   2.374   3.624
 2337SOL    HW2 1507   3.334   2.269   3.545
 2338SOL     OW 1508   2.835   2.752   3.434
 2338SOL    HW1 1509   2.881   2.668   3.405
 2338SOL    HW2 1510   2.779   2.786   3.359
 2339SOL     OW 1511   2.853   2.272   3.104
 2339SOL    HW1 1512   2.776   2.306   3.158
 2339SOL    HW2 1513   2.819   2.221   3.025
 2340SOL     OW 1514   2.903   2.563   2.291
 2340SOL    HW1 1515   2.929   2.559   2.387
 2340SOL    HW2 1516   2.818   2.512   2.277
 2341SOL     OW 1517   1.938   2.673   2.651
 2341SOL    HW1 1518   2.037   2.661   2.660
 2341SOL    HW2 1519   1.914   2.768   2.672
 2342SOL     OW 1520   1.992   3.683   3.433
 2342SOL    HW1 1521   1.982   3.668   3.532
 2342SOL    HW2 1522   1.906   3.719   3.397
 2343SOL     OW 1523   2.727   2.210   2.057
 2343SOL    HW1 1524   2.786   2.273   2.008
 2343SOL    HW2 1525   2.746   2.116   2.028
 2344SOL     OW 1526   3.581   2.447   3.693
 2344SOL    HW1 1527   3.555   2.536   3.657
 2344SOL    HW2 1528   3.579   2.379   3.620
 2345SOL     OW 1529   3.224   3.006   2.407
 2345SOL    HW1 1530   3.307   2.977   2.359
 2345SOL    HW2 1531   3.175   3.073   2.351
 2346SOL     OW 1532   2.412   2.058   2.747
 2346SOL    HW1 1533   2.407   2.053   2.847
 2346SOL    HW2 1534   2.414   2.154   2.718
 2347SOL     OW 1535   2.870   3.318   2.339
 2347SOL    HW1 1536   2.824   3.390   2.287
 2347SOL    HW2 1537   2.866   3.338   2.437
 2348SOL     OW 1538   2.213   3.663   2.715
 2348SOL    HW1 1539   2.263   3.577   2.721
 2348SOL    HW2 1540   2.278   3.740   2.712
 2349SOL     OW 1541   3.657   2.928   2.735
 2349SOL    HW1 1542   3.595   2.913   2.659
 2349SOL    HW2 1543   3.605   2.939   2.820
 2350SOL     OW 1544   3.089   3.412   3.368
 2350SOL    HW1 1545   3.095   3.335   3.432
 2350SOL    HW2 1546   3.037   3.386   3.288
 2351SOL     OW 1547   2.183   2.805   2.104
 2351SOL    HW1 1548   2.265   2.844   2.062
 2351SOL    HW2 1549   2.156   2.723   2.055
 2352SOL     OW 1550   3.320   2.597   2.590
 2352SOL    HW1 1551   3.315   2.532   2.665
 2352SOL    HW2 1552   3.400   2.656   2.603
 2353SOL     OW 1553   2.323   3.128   3.589
 2353SOL    HW1 1554   2.273   3.129   3.503
 2353SOL    HW2 1555   2.260   3.110   3.665
 2354SOL     OW 1556   2.973   3.638   2.099
 2354SOL    HW1 1557   2.913   3.576   2.149
 2354SOL    HW2 1558   3.004   3.594   2.014
 2355SOL     OW 1559   2.064   2.147   3.360
 2355SOL    HW1 1560   1.984   2.207   3.347
 2355SOL    HW2 1561   2.054   2.098   3.446
 2356SOL     OW 1562   3.494   3.239   1.943
 2356SOL    HW1 1563   3.462   3.333   1.933
 2356SOL    HW2 1564   3.418   3.176   1.931
 2357SOL     OW 1565   2.326   3.605   2.185
 2357SOL    HW1 1566   2.359   3.644   2.271
 2357SOL    HW2 1567   2.402   3.598   2.120
 2358SOL     OW 1568   3.262   1.969   2.288
 2358SOL    HW1 1569   3.238   1.932   2.198
 2358SOL    HW2 1570   3.361   1.985   2.292
 2359SOL     OW 1571   2.111   3.647   3.103
 2359SOL    HW1 1572   2.168   3.582   3.153
 2359SOL    HW2 1573   2.095   3.614   3.010
 2360SOL     OW 1574   2.802   3.560   2.766
 2360SOL    HW1 1575   2.882   3.503   2.787
 2360SOL    HW2 1576   2.753   3.520   2.689
 2361SOL     OW 1577   3.409   2.084   3.591
 2361SOL    HW1 1578   3.404   2.121   3.683
 2361SOL    HW2 1579   3.337   2.015   3.579
 2362SOL     OW 1580   2.476   1.984   1.979
 2362SOL    HW1 1581   2.574   1.962   1.986
 2362SOL    HW2 1582   2.445   1.967   1.886
 2363SOL     OW 1583   2.643   2.126   3.611
 2363SOL    HW1 1584   2.710   2.065   3.654
 2363SOL    HW2 1585   2.570   2.145   3.676
 2364SOL     OW 1586   2.750   3.376   3.057
 2364SOL    HW1 1587   2.727   3.351   2.963
 2364SOL    HW2 1588   2.811   3.307   3.096
 2365SOL     OW 1589   3.213   2.452   3.295
 2365SOL    HW1 1590   3.241   2.409   3.380
 2365SOL    HW2 1591   3.238   2.548   3.296
 2366SOL     OW 1592   2.665   3.264   2.786
 2366SOL    HW1 1593   2.755   3.278   2.744
 2366SOL    HW2 1594   2.594   3.266   2.715
 2367SOL     OW 1595   2.401   1.926   2.374
 2367SOL    HW1 1596   2.320   1.927   2.432
 2367SOL    HW2 1597   2.404   2.009   2.319
 2368SOL     OW 1598   3.296   3.050   1.903
 2368SOL    HW1 1599   3.328   2.974   1.960
 2368SOL    HW2 1600   3.204   3.077   1.933
 2369SOL     OW 1601   2.159   1.897   2.033
 2369SOL    HW1 1602   2.208   1.981   2.012
 2369SOL    HW2 1603   2.221   1.832   2.078
 2370SOL     OW 1604   2.797   2.098   2.342
 2370SOL    HW1 1605   2.749   2.139   2.264
 2370SOL    HW2 1606   2.896   2.096   2.323
 2371SOL     OW 1607   2.938   2.545   3.326
 2371SOL    HW1 1608   2.858   2.484   3.329
 2371SOL    HW2 1609   3.019   2.492   3.302
 2372SOL     OW 1610   3.089   3.432   2.655
 2372SOL    HW1 1611   3.110   3.506   2.590
 2372SOL    HW2 1612   3.157   3.432   2.728
 2373SOL     OW 1613   2.321   3.014   2.603
 2373SOL    HW1 1614   2.250   2.987   2.668
 2373SOL    HW2 1615   2.295   2.986   2.510
 2374SOL     OW 1616   3.133   3.659   2.453
 2374SOL    HW1 1617   3.177   3.723   2.389
 2374SOL    HW2 1618   3.083   3.711   2.523
 2375SOL     OW 1619   2.894   2.411   1.878
 2375SOL    HW1 1620   2.853   2.493   1.839
 2375SOL    HW2 1621   2.958   2.437   1.951
 2376SOL     OW 1622   1.940   2.418   3.248
 2376SOL    HW1 1623   2.032   2.417   3.207
 2376SOL    HW2 1624   1.934   2.492   3.315
 2377SOL     OW 1625   2.423   2.084   3.009
 2377SOL    HW1 1626   2.461   2.000   3.046
 2377SOL    HW2 1627   2.335   2.103   3.053
 2378SOL     OW 1628   2.879   1.901   2.615
 2378SOL    HW1 1629   2.807   1.906   2.546
 2378SOL    HW2 1630   2.855   1.832   2.684
 2379SOL     OW 1631   3.291   3.035   2.729
 2379SOL    HW1 1632   3.236   2.951   2.722
 2379SOL    HW2 1633   3.317   3.064   2.637
 2380SOL     OW 1634   3.328   2.452   2.854
 2380SOL    HW1 1635   3.298   2.357   2.861
 2380SOL    HW2 1636   3.401   2.468   2.920
 2381SOL     OW 1637   3.719   2.695   2.239
 2381SOL    HW1 1638   3.761   2.631   2.303
 2381SOL    HW2 1639   3.681   2.644   2.161
 2382SOL     OW 1640   2.350   3.247   2.036
 2382SOL    HW1 1641   2.263   3.232   2.083
 2382SOL    HW2 1642   2.333   3.273   1.941
 2383SOL     OW 1643   3.526   3.142   2.519
 2383SOL    HW1 1644   3.625   3.150   2.533
 2383SOL    HW2 1645   3.481   3.226   2.550
 2384SOL     OW 1646   3.252   2.437   1.940
 2384SOL    HW1 1647   3.198   2.416   2.021
 2384SOL    HW2 1648   3.343   2.396   1.949
 2385SOL     OW 1649   2.389   2.118   2.190
 2385SOL    HW1 1650   2.416   2.059   2.115
 2385SOL    HW2 1651   2.389   2.213   2.159
 2386SOL     OW 1652   3.616   3.085   3.450
 2386SOL    HW1 1653   3.707   3.046   3.437
 2386SOL    HW2 1654   3.624   3.181   3.474
 2387SOL     OW 1655   2.926   3.209   3.202
 2387SOL    HW1 1656   2.846   3.186   3.257
 2387SOL    HW2 1657   3.009   3.183   3.251
 2388SOL     OW 1658   3.454   3.491   3.487
 2388SOL    HW1 1659   3.481   3.525   3.397
 2388SOL    HW2 1660   3.533   3.453   3.533
 2389SOL     OW 1661   2.973   3.057   2.962
 2389SOL    HW1 1662   2.933   3.101   3.043
 2389SOL    HW2 1663   2.932   3.094   2.879
 2390SOL     OW 1664   3.500   2.961   2.941
 2390SOL    HW1 1665   3.505   3.042   3.000
 2390SOL    HW2 1666   3.414   2.963   2.890
 2391SOL     OW 1667   2.777   1.951   3.264
 2391SOL    HW1 1668   2.802   1.931   3.169
 2391SOL    HW2 1669   2.849   2.007   3.306
 2392SOL     OW 1670   2.842   2.978   3.581
 2392SOL    HW1 1671   2.743   2.984   3.591
 2392SOL    HW2 1672   2.865   2.898   3.525
 2393SOL     OW 1673   2.567   2.912   2.230
 2393SOL    HW1 1674   2.553   2.919   2.329
 2393SOL    HW2 1675   2.651   2.861   2.212
 2394SOL     OW 1676   2.272   2.675   3.113
 2394SOL    HW1 1677   2.358   2.687   3.163
 2394SOL    HW2 1678   2.230   2.588   3.140
 2395SOL     OW 1679   3.136   2.248   3.124
 2395SOL    HW1 1680   3.157   2.322   3.188
 2395SOL    HW2 1681   3.047   2.265   3.081
 2396SOL     OW 1682   1.926   3.426   3.193
 2396SOL    HW1 1683   1.880   3.508   3.159
 2396SOL    HW2 1684   2.024   3.445   3.202
 2397SOL     OW 1685   3.114   3.210   2.250
 2397SOL    HW1 1686   3.164   3.287   2.290
 2397SOL    HW2 1687   3.019   3.212   2.282
 2398SOL     OW 1688   3.134   3.307   3.004
 2398SOL    HW1 1689   3.181   3.320   3.091
 2398SOL    HW2 1690   3.068   3.233   3.013
 2399SOL     OW 1691   3.444   2.501   2.334
 2399SOL    HW1 1692   3.413   2.562   2.407
 2399SOL    HW2 1693   3.494   2.553   2.265
 2400SOL     OW 1694   2.216   3.372   3.191
 2400SOL    HW1 1695   2.195   3.328   3.104
 2400SOL    HW2 1696   2.313   3.398   3.194
 2401SOL     OW 1697   2.264   2.613   3.460
 2401SOL    HW1 1698   2.332   2.668   3.413
 2401SOL    HW2 1699   2.304   2.525   3.487
 2402SOL     OW 1700   3.449   2.641   3.532
 2402SOL    HW1 1701   3.357   2.679   3.527
 2402SOL    HW2 1702   3.509   2.688   3.467
 2403SOL     OW 1703   2.875   1.967   3.632
 2403SOL    HW1 1704   2.881   2.052   3.580
 2403SOL    HW2 1705   2.907   1.891   3.575
 2404SOL     OW 1706   2.366   1.912   3.602
 2404SOL    HW1 1707   2.324   1.855   3.532
 2404SOL    HW2 1708   2.300   1.981   3.634
 2405SOL     OW 1709   2.435   2.732   2.891
 2405SOL    HW1 1710   2.479   2.821   2.882
 2405SOL    HW2 1711   2.372   2.732   2.968
 2406SOL     OW 1712   3.222   2.724   2.907
 2406SOL    HW1 1713   3.147   2.724   2.841
 2406SOL    HW2 1714   3.259   2.632   2.916
 2407SOL     OW 1715   3.071   2.387   2.137
 2407SOL    HW1 1716   3.084   2.303   2.191
 2407SOL    HW2 1717   3.042   2.461   2.197
 2408SOL     OW 1718   2.169   2.075   3.093
 2408SOL    HW1 1719   2.146   2.112   3.183
 2408SOL    HW2 1720   2.139   1.980   3.087
 2409SOL     OW 1721   1.899   3.172   3.144
 2409SOL    HW1 1722   1.952   3.123   3.212
 2409SOL    HW2 1723   1.921   3.270   3.149
 2410SOL     OW 1724   3.590   2.797   3.716
 2410SOL    HW1 1725   3.544   2.790   3.627
 2410SOL    HW2 1726   3.528   2.841   3.782
 2411SOL     OW 1727   2.169   1.925   2.480
 2411SOL    HW1 1728   2.158   2.019   2.513
 2411SOL    HW2 1729   2.164   1.862   2.557
 2412SOL     OW 1730   3.484   2.229   2.236
 2412SOL    HW1 1731   3.486   2.153   2.300
 2412SOL    HW2 1732   3.436   2.306   2.276
 2413SOL     OW 1733   2.885   2.628   2.828
 2413SOL    HW1 1734   2.900   2.649   2.924
 2413SOL    HW2 1735   2.855   2.533   2.819
 2414SOL     OW 1736   2.842   3.435   3.562
 2414SOL    HW1 1737   2.822   3.479   3.474
 2414SOL    HW2 1738   2.881   3.344   3.546
 2416SOL     OW 1739   2.212   2.760   3.666
 2416SOL    HW1 1740   2.288   2.804   3.714
 2416SOL    HW2 1741   2.247   2.713   3.584
 2417SOL     OW 1742   3.402   2.136   1.987
 2417SOL    HW1 1743   3.341   2.061   2.010
 2417SOL    HW2 1744   3.424   2.188   2.070
 2418SOL     OW 1745   3.165   2.700   1.904
 2418SOL    HW1 1746   3.199   2.607   1.919
 2418SOL    HW2 1747   3.183   2.727   1.809
 2419SOL     OW 1748   2.930   3.195   2.711
 2419SOL    HW1 1749   2.937   3.111   2.656
 2419SOL    HW2 1750   2.992   3.264   2.675
 2420SOL     OW 1751   2.181   2.672   2.811
 2420SOL    HW1 1752   2.274   2.708   2.816
 2420SOL    HW2 1753   2.175   2.587   2.863
 2421SOL     OW 1754   2.201   2.371   2.868
 2421SOL    HW1 1755   2.149   2.288   2.851
 2421SOL    HW2 1756   2.278   2.376   2.804
 2422SOL     OW 1757   3.000   2.242   3.540
 2422SOL    HW1 1758   2.955   2.305   3.604
 2422SOL    HW2 1759   3.093   2.273   3.523
 2423SOL     OW 1760   3.022   2.069   3.339
 2423SOL    HW1 1761   3.022   2.133   3.416
 2423SOL    HW2 1762   3.050   2.117   3.256
 2424SOL     OW 1763   1.870   3.188   2.062
 2424SOL    HW1 1764   1.777   3.209   2.031
 2424SOL    HW2 1765   1.880   3.089   2.075
 2425SOL     OW 1766   1.950   3.663   2.789
 2425SOL    HW1 1767   1.908   3.577   2.762
 2425SOL    HW2 1768   2.044   3.666   2.755
 2426SOL     OW 1769   2.366   3.430   2.772
 2426SOL    HW1 1770   2.432   3.504   2.781
 2426SOL    HW2 1771   2.410   3.351   2.730
 2427SOL     OW 1772   2.864   2.658   3.100
 2427SOL    HW1 1773   2.905   2.626   3.186
 2427SOL    HW2 1774   2.768   2.631   3.097
 2428SOL     OW 1775   1.902   2.406   2.976
 2428SOL    HW1 1776   1.987   2.373   2.935
 2428SOL    HW2 1777   1.915   2.421   3.074
 2429SOL     OW 1778   2.051   2.382   3.584
 2429SOL    HW1 1779   2.110   2.342   3.514
 2429SOL    HW2 1780   1.993   2.453   3.543
 2430SOL     OW 1781   3.231   2.812   3.522
 2430SOL    HW1 1782   3.270   2.901   3.542
 2430SOL    HW2 1783   3.241   2.792   3.425
 2431SOL     OW 1784   2.677   2.434   2.187
 2431SOL    HW1 1785   2.684   2.345   2.141
 2431SOL    HW2 1786   2.583   2.468   2.179
 2432SOL     OW 1787   3.519   2.466   3.068
 2432SOL    HW1 1788   3.481   2.397   3.130
 2432SOL    HW2 1789   3.601   2.430   3.024
 2433SOL     OW 1790   2.114   3.426   3.606
 2433SOL    HW1 1791   2.084   3.483   3.682
 2433SOL    HW2 1792   2.107   3.329   3.632
 2434SOL     OW 1793   2.792   3.540   3.327
 2434SOL    HW1 1794   2.768   3.522   3.232
 2434SOL    HW2 1795   2.822   3.634   3.337
 2435SOL     OW 1796   2.335   2.362   2.053
 2435SOL    HW1 1797   2.396   2.442   2.057
 2435SOL    HW2 1798   2.240   2.393   2.060
 2436SOL     OW 1799   2.021   2.999   3.328
 2436SOL    HW1 1800   2.043   2.938   3.404
 2436SOL    HW2 1801   2.031   2.950   3.242
 2437SOL     OW 1802   3.209   2.921   3.096
 2437SOL    HW1 1803   3.233   2.858   3.022
 2437SOL    HW2 1804   3.119   2.961   3.078
 2438SOL     OW 1805   3.164   2.717   2.171
 2438SOL    HW1 1806   3.078   2.686   2.213
 2438SOL    HW2 1807   3.160   2.703   2.072
 2439SOL     OW 1808   3.621   3.609   3.016
 2439SOL    HW1 1809   3.682   3.639   2.943
 2439SOL    HW2 1810   3.583   3.520   2.994
 2440SOL     OW 1811   3.114   3.593   2.990
 2440SOL    HW1 1812   3.198   3.598   2.936
 2440SOL    HW2 1813   3.091   3.497   3.008
 2441SOL     OW 1814   1.945   3.120   2.884
 2441SOL    HW1 1815   1.940   3.119   2.984
 2441SOL    HW2 1816   1.862   3.079   2.846
 2442SOL     OW 1817   2.550   3.524   3.578
 2442SOL    HW1 1818   2.494   3.605   3.587
 2442SOL    HW2 1819   2.602   3.528   3.492
 2443SOL     OW 1820   3.588   1.997   2.385
 2443SOL    HW1 1821   3.661   1.980   2.318
 2443SOL    HW2 1822   3.557   1.910   2.423
 2444SOL     OW 1823   3.250   3.435   2.339
 2444SOL    HW1 1824   3.317   3.447   2.265
 2444SOL    HW2 1825   3.210   3.524   2.362
 2445SOL     OW 1826   1.992   3.656   3.713
 2445SOL    HW1 1827   1.951   3.582   3.766
 2445SOL    HW2 1828   2.056   3.707   3.771
 2446SOL     OW 1829   3.142   2.789   2.534
 2446SOL    HW1 1830   3.202   2.708   2.536
 2446SOL    HW2 1831   3.182   2.858   2.474
 2447SOL     OW 1832   2.692   3.135   3.284
 2447SOL    HW1 1833   2.687   3.168   3.379
 2447SOL    HW2 1834   2.606   3.154   3.238
 2448SOL     OW 1835   2.534   3.478   2.016
 2448SOL    HW1 1836   2.543   3.488   1.917
 2448SOL    HW2 1837   2.494   3.389   2.037
 2449SOL     OW 1838   3.512   3.582   3.256
 2449SOL    HW1 1839   3.565   3.592   3.172
 2449SOL    HW2 1840   3.485   3.672   3.290
 2450SOL     OW 1841   3.703   2.037   2.825
 2450SOL    HW1 1842   3.742   1.952   2.789
 2450SOL    HW2 1843   3.605   2.039   2.806
 2451SOL     OW 1844   2.125   2.188   2.582
 2451SOL    HW1 1845   2.046   2.239   2.548
 2451SOL    HW2 1846   2.116   2.173   2.680
 2452SOL     OW 1847   3.056   3.474   1.893
 2452SOL    HW1 1848   3.062   3.381   1.930
 2452SOL    HW2 1849   2.997   3.474   1.813
 2453SOL     OW 1850   2.684   2.864   3.234
 2453SOL    HW1 1851   2.724   2.863   3.142
 2453SOL    HW2 1852   2.694   2.956   3.274
 2454SOL     OW 1853   2.778   2.772   2.153
 2454SOL    HW1 1854   2.841   2.810   2.085
 2454SOL    HW2 1855   2.818   2.689   2.192
 2455SOL     OW 1856   3.366   3.469   1.906
 2455SOL    HW1 1857   3.274   3.506   1.913
 2455SOL    HW2 1858   3.404   3.489   1.816
 2456SOL     OW 1859   2.234   3.150   3.352
 2456SOL    HW1 1860   2.221   3.243   3.318
 2456SOL    HW2 1861   2.150   3.098   3.339
 2457SOL     OW 1862   3.476   3.154   3.151
 2457SOL    HW1 1863   3.536   3.157   3.231
 2457SOL    HW2 1864   3.401   3.218   3.164
 2458SOL     OW 1865   2.901   2.960   2.558
 2458SOL    HW1 1866   2.831   2.913   2.612
 2458SOL    HW2 1867   2.960   2.892   2.515
 2459SOL     OW 1868   2.876   2.098   2.833
 2459SOL    HW1 1869   2.868   2.062   2.740
 2459SOL    HW2 1870   2.874   2.022   2.898
 2460SOL     OW 1871   2.452   3.349   2.353
 2460SOL    HW1 1872   2.494   3.291   2.283
 2460SOL    HW2 1873   2.408   3.428   2.309
 2461SOL     OW 1874   3.571   2.247   3.243
 2461SOL    HW1 1875   3.644   2.316   3.247
 2461SOL    HW2 1876   3.599   2.172   3.184
 2462SOL     OW 1877   2.117   3.210   2.152
 2462SOL    HW1 1878   2.021   3.211   2.125
 2462SOL    HW2 1879   2.129   3.263   2.236
 2463SOL     OW 1880   1.967   2.875   3.588
 2463SOL    HW1 1881   1.890   2.842   3.642
 2463SOL    HW2 1882   2.052   2.845   3.630
 2464SOL     OW 1883   2.534   2.065   3.351
 2464SOL    HW1 1884   2.624   2.049   3.311
 2464SOL    HW2 1885   2.542   2.070   3.450
 2465SOL     OW 1886   1.937   2.207   1.895
 2465SOL    HW1 1887   1.845   2.179   1.866
 2465SOL    HW2 1888   1.968   2.284   1.839
 2466SOL     OW 1889   3.302   2.718   3.260
 2466SOL    HW1 1890   3.245   2.770   3.197
 2466SOL    HW2 1891   3.398   2.730   3.236
 2467SOL     OW 1892   1.934   2.028   2.180
 2467SOL    HW1 1893   1.917   2.111   2.126
 2467SOL    HW2 1894   2.024   1.991   2.158
 2468SOL     OW 1895   3.045   3.197   1.981
 2468SOL    HW1 1896   2.946   3.186   1.983
 2468SOL    HW2 1897   3.079   3.212   2.074
 2469SOL     OW 1898   2.475   2.704   3.293
 2469SOL    HW1 1899   2.531   2.785   3.276
 2469SOL    HW2 1900   2.534   2.624   3.296
 2470SOL     OW 1901   3.355   3.629   2.821
 2470SOL    HW1 1902   3.388   3.693   2.752
 2470SOL    HW2 1903   3.421   3.623   2.896
 2471SOL     OW 1904   2.578   2.427   3.570
 2471SOL    HW1 1905   2.597   2.492   3.644
 2471SOL    HW2 1906   2.638   2.347   3.579
 2472SOL     OW 1907   3.312   3.082   3.495
 2472SOL    HW1 1908   3.303   3.072   3.594
 2472SOL    HW2 1909   3.408   3.075   3.469
 2473SOL     OW 1910   2.252   3.603   3.422
 2473SOL    HW1 1911   2.161   3.644   3.420
 2473SOL    HW2 1912   2.245   3.509   3.454
 2474SOL     OW 1913   3.536   2.745   3.116
 2474SOL    HW1 1914   3.509   2.656   3.079
 2474SOL    HW2 1915   3.537   2.813   3.043
 2475SOL     OW 1916   3.087   2.187   2.311
 2475SOL    HW1 1917   3.152   2.113   2.300
 2475SOL    HW2 1918   3.107   2.237   2.395
 2476SOL     OW 1919   3.639   2.204   3.504
 2476SOL    HW1 1920   3.622   2.235   3.410
 2476SOL    HW2 1921   3.555   2.167   3.542
 2477SOL     OW 1922   3.592   2.796   3.379
 2477SOL    HW1 1923   3.630   2.887   3.394
 2477SOL    HW2 1924   3.584   2.779   3.280
 2478SOL     OW 1925   2.721   3.236   1.878
 2478SOL    HW1 1926   2.675   3.251   1.966
 2478SOL    HW2 1927   2.765   3.321   1.848
 2479SOL     OW 1928   2.523   3.652   2.815
 2479SOL    HW1 1929   2.477   3.740   2.802
 2479SOL    HW2 1930   2.622   3.664   2.808
 2480SOL     OW 1931   2.721   2.818   2.723
 2480SOL    HW1 1932   2.775   2.749   2.771
 2480SOL    HW2 1933   2.689   2.887   2.789
 2481SOL     OW 1934   2.945   2.846   1.949
 2481SOL    HW1 1935   2.922   2.899   1.867
 2481SOL    HW2 1936   3.026   2.790   1.930
 2482SOL     OW 1937   3.723   3.431   2.713
 2482SOL    HW1 1938   3.652   3.419   2.643
 2482SOL    HW2 1939   3.724   3.352   2.773
 2483SOL     OW 1940   2.083   3.176   3.706
 2483SOL    HW1 1941   2.018   3.103   3.685
 2483SOL    HW2 1942   2.087   3.190   3.804
 2484SOL     OW 1943   1.941   3.102   2.515
 2484SOL    HW1 1944   1.940   3.055   2.603
 2484SOL    HW2 1945   2.023   3.074   2.464
 2485SOL     OW 1946   2.534   3.253   3.486
 2485SOL    HW1 1947   2.456   3.203   3.524
 2485SOL    HW2 1948   2.531   3.348   3.517
 2486SOL     OW 1949   3.686   2.054   3.089
 2486SOL    HW1 1950   3.682   1.964   3.133
 2486SOL    HW2 1951   3.689   2.043   2.990
 2487SOL     OW 1952   3.567   3.349   2.966
 2487SOL    HW1 1953   3.474   3.324   2.939
 2487SOL    HW2 1954   3.593   3.299   3.048
 2488SOL     OW 1955   2.179   2.409   3.142
 2488SOL    HW1 1956   2.217   2.350   3.214
 2488SOL    HW2 1957   2.219   2.383   3.054
 2489SOL     OW 1958   2.674   3.448   2.549
 2489SOL    HW1 1959   2.706   3.458   2.455
 2489SOL    HW2 1960   2.595   3.386   2.551
 2490SOL     OW 1961   3.286   2.076   2.974
 2490SOL    HW1 1962   3.338   2.011   3.029
 2490SOL    HW2 1963   3.237   2.139   3.035
 2491SOL     OW 1964   2.863   1.896   3.016
 2491SOL    HW1 1965   2.800   1.824   2.985
 2491SOL    HW2 1966   2.956   1.860   3.016
 2492SOL     OW 1967   2.632   3.192   2.163
 2492SOL    HW1 1968   2.586   3.105   2.180
 2492SOL    HW2 1969   2.723   3.189   2.204
 2493SOL     OW 1970   2.480   3.429   3.146
 2493SOL    HW1 1971   2.475   3.511   3.203
 2493SOL    HW2 1972   2.569   3.426   3.101
 2494SOL     OW 1973   3.214   1.914   2.030
 2494SOL    HW1 1974   3.249   1.873   1.946
 2494SOL    HW2 1975   3.124   1.876   2.050
 2495SOL     OW 1976   3.162   2.315   2.553
 2495SOL    HW1 1977   3.103   2.395   2.557
 2495SOL    HW2 1978   3.177   2.280   2.646
 2496SOL     OW 1979   3.455   2.083   2.744
 2496SOL    HW1 1980   3.371   2.082   2.798
 2496SOL    HW2 1981   3.457   2.166   2.688
 2497SOL     OW 1982   1.901   2.939   2.162
 2497SOL    HW1 1983   2.000   2.928   2.153
 2497SOL    HW2 1984   1.861   2.853   2.194
 2498SOL     OW 1985   2.737   3.508   2.199
 2498SOL    HW1 1986   2.660   3.473   2.145
 2498SOL    HW2 1987   2.705   3.579   2.261
 2499SOL     OW 1988   2.092   2.490   3.837
 2499SOL    HW1 1989   1.999   2.488   3.874
 2499SOL    HW2 1990   2.093   2.451   3.745
 2513SOL     OW 1991   2.468   2.826   3.847
 2513SOL    HW1 1992   2.475   2.910   3.793
 2513SOL    HW2 1993   2.514   2.839   3.935
 2516SOL     OW 1994   1.889   3.458   3.841
 2516SOL    HW1 1995   1.870   3.362   3.862
 2516SOL    HW2 1996   1.856   3.516   3.916
 2522SOL     OW 1997   3.387   2.861   3.914
 2522SOL    HW1 1998   3.324   2.785   3.927
 2522SOL    HW2 1999   3.435   2.879   4.000
 2525SOL     OW 2000   2.460   2.591   3.994
 2525SOL    HW1 2001   2.484   2.660   3.926
 2525SOL    HW2 2002   2.382   2.624   4.048
 2528SOL     OW 2003   2.903   2.563   4.153
 2528SOL    HW1 2004   2.929   2.559   4.249
 2528SOL    HW2 2005   2.818   2.512   4.139
 2530SOL     OW 2006   2.727   2.210   3.919
 2530SOL    HW1 2007   2.786   2.273   3.870
 2530SOL    HW2 2008   2.746   2.116   3.890
 2536SOL     OW 2009   2.183   2.805   3.966
 2536SOL    HW1 2010   2.265   2.844   3.924
 2536SOL    HW2 2011   2.156   2.723   3.917
 2544SOL     OW 2012   2.244   2.562   4.204
 2544SOL    HW1 2013   2.289   2.472   4.201
 2544SOL    HW2 2014   2.150   2.551   4.237
 2545SOL     OW 2015   2.476   1.984   3.841
 2545SOL    HW1 2016   2.574   1.962   3.848
 2545SOL    HW2 2017   2.445   1.967   3.748
 2549SOL     OW 2018   3.296   3.050   3.765
 2549SOL    HW1 2019   3.328   2.974   3.822
 2549SOL    HW2 2020   3.204   3.077   3.795
 2550SOL     OW 2021   2.159   1.897   3.895
 2550SOL    HW1 2022   2.208   1.981   3.874
 2550SOL    HW2 2023   2.221   1.832   3.940
 2551SOL     OW 2024   2.797   2.098   4.204
 2551SOL    HW1 2025   2.749   2.139   4.126
 2551SOL    HW2 2026   2.896   2.096   4.185
 2555SOL     OW 2027   2.894   2.411   3.740
 2555SOL    HW1 2028   2.853   2.493   3.701
 2555SOL    HW2 2029   2.958   2.437   3.813
 2561SOL     OW 2030   2.350   3.247   3.898
 2561SOL    HW1 2031   2.263   3.232   3.945
 2561SOL    HW2 2032   2.333   3.273   3.803
 2563SOL     OW 2033   3.252   2.437   3.802
 2563SOL    HW1 2034   3.198   2.416   3.883
 2563SOL    HW2 2035   3.343   2.396   3.811
 2564SOL     OW 2036   2.389   2.118   4.052
 2564SOL    HW1 2037   2.416   2.059   3.977
 2564SOL    HW2 2038   2.389   2.213   4.021
 2567SOL     OW 2039   2.567   2.912   4.092
 2567SOL    HW1 2040   2.553   2.919   4.191
 2567SOL    HW2 2041   2.651   2.861   4.074
 2576SOL     OW 2042   3.071   2.387   3.999
 2576SOL    HW1 2043   3.084   2.303   4.053
 2576SOL    HW2 2044   3.042   2.461   4.059
 2582SOL     OW 2045   3.402   2.136   3.849
 2582SOL    HW1 2046   3.341   2.061   3.872
 2582SOL    HW2 2047   3.424   2.188   3.932
 2583SOL     OW 2048   3.165   2.700   3.766
 2583SOL    HW1 2049   3.199   2.607   3.781
 2583SOL    HW2 2050   3.183   2.727   3.671
 2588SOL     OW 2051   1.870   3.188   3.924
 2588SOL    HW1 2052   1.777   3.209   3.893
 2588SOL    HW2 2053   1.880   3.089   3.937
 2593SOL     OW 2054   2.677   2.434   4.049
 2593SOL    HW1 2055   2.684   2.345   4.003
 2593SOL    HW2 2056   2.583   2.468   4.041
 2596SOL     OW 2057   2.335   2.362   3.915
 2596SOL    HW1 2058   2.396   2.442   3.919
 2596SOL    HW2 2059   2.240   2.393   3.922
 2598SOL     OW 2060   3.164   2.717   4.033
 2598SOL    HW1 2061   3.078   2.686   4.075
 2598SOL    HW2 2062   3.160   2.703   3.934
 2604SOL     OW 2063   2.534   3.478   3.878
 2604SOL    HW1 2064   2.543   3.488   3.779
 2604SOL    HW2 2065   2.494   3.389   3.899
 2607SOL     OW 2066   3.056   3.474   3.755
 2607SOL    HW1 2067   3.062   3.381   3.792
 2607SOL    HW2 2068   2.997   3.474   3.675
 2609SOL     OW 2069   2.778   2.772   4.015
 2609SOL    HW1 2070   2.841   2.810   3.947
 2609SOL    HW2 2071   2.818   2.689   4.054
 2615SOL     OW 2072   2.117   3.210   4.014
 2615SOL    HW1 2073   2.021   3.211   3.987
 2615SOL    HW2 2074   2.129   3.263   4.098
 2616SOL     OW 2075   1.937   2.207   3.757
 2616SOL    HW1 2076   1.845   2.179   3.728
 2616SOL    HW2 2077   1.968   2.284   3.701
 2617SOL     OW 2078   1.934   2.028   4.042
 2617SOL    HW1 2079   1.917   2.111   3.988
 2617SOL    HW2 2080   2.024   1.991   4.020
 2618SOL     OW 2081   3.045   3.197   3.843
 2618SOL    HW1 2082   2.946   3.186   3.845
 2618SOL    HW2 2083   3.079   3.212   3.936
 2624SOL     OW 2084   2.721   3.236   3.740
 2624SOL    HW1 2085   2.675   3.251   3.828
 2624SOL    HW2 2086   2.765   3.321   3.710
 2627SOL     OW 2087   2.945   2.846   3.811
 2627SOL    HW1 2088   2.922   2.899   3.729
 2627SOL    HW2 2089   3.026   2.790   3.792
 2631SOL     OW 2090   2.290   2.286   4.244
 2631SOL    HW1 2091   2.320   2.214   4.182
 2631SOL    HW2 2092   2.251   2.246   4.327
 2636SOL     OW 2093   2.632   3.192   4.025
 2636SOL    HW1 2094   2.586   3.105   4.042
 2636SOL    HW2 2095   2.723   3.189   4.066
 2637SOL     OW 2096   3.214   1.914   3.892
 2637SOL    HW1 2097   3.249   1.873   3.808
 2637SOL    HW2 2098   3.124   1.876   3.912
 2640SOL     OW 2099   1.901   2.939   4.024
 2640SOL    HW1 2100   2.000   2.928   4.015
 2640SOL    HW2 2101   1.861   2.853   4.056
 2664SOL     OW 2102   2.179   3.975   1.801
 2664SOL    HW1 2103   2.250   4.046   1.807
 2664SOL    HW2 2104   2.091   4.014   1.829
 2685SOL     OW 2105   2.643   3.988   1.749
 2685SOL    HW1 2106   2.710   3.927   1.792
 2685SOL    HW2 2107   2.570   4.007   1.814
 2705SOL     OW 2108   2.777   3.813   1.402
 2705SOL    HW1 2109   2.802   3.793   1.307
 2705SOL    HW2 2110   2.849   3.869   1.444
 2715SOL     OW 2111   2.875   3.829   1.770
 2715SOL    HW1 2112   2.881   3.914   1.718
 2715SOL    HW2 2113   2.907   3.753   1.713
 2716SOL     OW 2114   2.366   3.774   1.740
 2716SOL    HW1 2115   2.324   3.717   1.670
 2716SOL    HW2 2116   2.300   3.843   1.772
 2757SOL     OW 2117   2.534   3.927   1.489
 2757SOL    HW1 2118   2.624   3.911   1.449
 2757SOL    HW2 2119   2.542   3.932   1.588
 2781SOL     OW 2120   2.087   3.999   2.858
 2781SOL    HW1 2121   2.122   3.982   2.950
 2781SOL    HW2 2122   1.999   3.954   2.846
 2782SOL     OW 2123   1.881   4.092   2.509
 2782SOL    HW1 2124   1.799   4.135   2.548
 2782SOL    HW2 2125   1.853   4.019   2.446
 2799SOL     OW 2126   2.671   3.728   2.364
 2799SOL    HW1 2127   2.711   3.819   2.355
 2799SOL    HW2 2128   2.571   3.736   2.370
 2804SOL     OW 2129   3.143   4.069   2.806
 2804SOL    HW1 2130   3.057   4.019   2.793
 2804SOL    HW2 2131   3.205   4.015   2.862
 2808SOL     OW 2132   2.853   4.134   3.104
 2808SOL    HW1 2133   2.776   4.168   3.158
 2808SOL    HW2 2134   2.819   4.083   3.025
 2811SOL     OW 2135   2.727   4.072   2.057
 2811SOL    HW1 2136   2.786   4.135   2.008
 2811SOL    HW2 2137   2.746   3.978   2.028
 2814SOL     OW 2138   2.412   3.920   2.747
 2814SOL    HW1 2139   2.407   3.915   2.847
 2814SOL    HW2 2140   2.414   4.016   2.718
 2818SOL     OW 2141   2.064   4.009   3.360
 2818SOL    HW1 2142   1.984   4.069   3.347
 2818SOL    HW2 2143   2.054   3.960   3.446
 2819SOL     OW 2144   3.262   3.831   2.288
 2819SOL    HW1 2145   3.238   3.794   2.198
 2819SOL    HW2 2146   3.361   3.847   2.292
 2822SOL     OW 2147   2.476   3.846   1.979
 2822SOL    HW1 2148   2.574   3.824   1.986
 2822SOL    HW2 2149   2.445   3.829   1.886
 2825SOL     OW 2150   2.784   4.227   2.761
 2825SOL    HW1 2151   2.759   4.218   2.665
 2825SOL    HW2 2152   2.832   4.145   2.792
 2826SOL     OW 2153   2.401   3.788   2.374
 2826SOL    HW1 2154   2.320   3.789   2.432
 2826SOL    HW2 2155   2.404   3.871   2.319
 2827SOL     OW 2156   2.159   3.759   2.033
 2827SOL    HW1 2157   2.208   3.843   2.012
 2827SOL    HW2 2158   2.221   3.694   2.078
 2828SOL     OW 2159   2.797   3.960   2.342
 2828SOL    HW1 2160   2.749   4.001   2.264
 2828SOL    HW2 2161   2.896   3.958   2.323
 2833SOL     OW 2162   2.423   3.946   3.009
 2833SOL    HW1 2163   2.461   3.862   3.046
 2833SOL    HW2 2164   2.335   3.965   3.053
 2834SOL     OW 2165   2.728   4.178   2.504
 2834SOL    HW1 2166   2.696   4.250   2.442
 2834SOL    HW2 2167   2.752   4.097   2.451
 2835SOL     OW 2168   2.879   3.763   2.615
 2835SOL    HW1 2169   2.807   3.768   2.546
 2835SOL    HW2 2170   2.855   3.694   2.684
 2840SOL     OW 2171   2.389   3.980   2.190
 2840SOL    HW1 2172   2.416   3.921   2.115
 2840SOL    HW2 2173   2.389   4.075   2.159
 2843SOL     OW 2174   2.777   3.813   3.264
 2843SOL    HW1 2175   2.802   3.793   3.169
 2843SOL    HW2 2176   2.849   3.869   3.306
 2849SOL     OW 2177   2.428   4.261   2.727
 2849SOL    HW1 2178   2.440   4.327   2.653
 2849SOL    HW2 2179   2.474   4.295   2.810
 2853SOL     OW 2180   2.875   3.829   3.632
 2853SOL    HW1 2181   2.881   3.914   3.580
 2853SOL    HW2 2182   2.907   3.753   3.575
 2854SOL     OW 2183   2.366   3.774   3.602
 2854SOL    HW1 2184   2.324   3.717   3.532
 2854SOL    HW2 2185   2.300   3.843   3.634
 2858SOL     OW 2186   2.169   3.937   3.093
 2858SOL    HW1 2187   2.146   3.974   3.183
 2858SOL    HW2 2188   2.139   3.842   3.087
 2861SOL     OW 2189   2.169   3.787   2.480
 2861SOL    HW1 2190   2.158   3.881   2.513
 2861SOL    HW2 2191   2.164   3.724   2.557
 2870SOL     OW 2192   3.022   3.931   3.339
 2870SOL    HW1 2193   3.022   3.995   3.416
 2870SOL    HW2 2194   3.050   3.979   3.256
 2878SOL     OW 2195   2.335   4.224   2.053
 2878SOL    HW1 2196   2.396   4.304   2.057
 2878SOL    HW2 2197   2.240   4.255   2.060
 2882SOL     OW 2198   3.588   3.859   2.385
 2882SOL    HW1 2199   3.661   3.842   2.318
 2882SOL    HW2 2200   3.557   3.772   2.423
 2885SOL     OW 2201   2.125   4.050   2.582
 2885SOL    HW1 2202   2.046   4.101   2.548
 2885SOL    HW2 2203   2.116   4.035   2.680
 2891SOL     OW 2204   2.876   3.960   2.833
 2891SOL    HW1 2205   2.868   3.924   2.740
 2891SOL    HW2 2206   2.874   3.884   2.898
 2894SOL     OW 2207   2.534   3.927   3.351
 2894SOL    HW1 2208   2.624   3.911   3.311
 2894SOL    HW2 2209   2.542   3.932   3.450
 2895SOL     OW 2210   1.937   4.069   1.895
 2895SOL    HW1 2211   1.845   4.041   1.866
 2895SOL    HW2 2212   1.968   4.146   1.839
 2897SOL     OW 2213   1.934   3.890   2.180
 2897SOL    HW1 2214   1.917   3.973   2.126
 2897SOL    HW2 2215   2.024   3.853   2.158
 2902SOL     OW 2216   3.087   4.049   2.311
 2902SOL    HW1 2217   3.152   3.975   2.300
 2902SOL    HW2 2218   3.107   4.099   2.395
 2910SOL     OW 2219   2.290   4.148   2.382
 2910SOL    HW1 2220   2.320   4.076   2.320
 2910SOL    HW2 2221   2.251   4.108   2.465
 2912SOL     OW 2222   3.286   3.938   2.974
 2912SOL    HW1 2223   3.338   3.873   3.029
 2912SOL    HW2 2224   3.237   4.001   3.035
 2913SOL     OW 2225   2.863   3.758   3.016
 2913SOL    HW1 2226   2.800   3.686   2.985
 2913SOL    HW2 2227   2.956   3.722   3.016
 2915SOL     OW 2228   3.214   3.776   2.030
 2915SOL    HW1 2229   3.249   3.735   1.946
 2915SOL    HW2 2230   3.124   3.738   2.050
 2917SOL     OW 2231   3.455   3.945   2.744
 2917SOL    HW1 2232   3.371   3.944   2.798
 2917SOL    HW2 2233   3.457   4.028   2.688
 3048SOL     OW 2234   3.854   1.821   1.571
 3048SOL    HW1 2235   3.844   1.806   1.670
 3048SOL    HW2 2236   3.768   1.857   1.535
 3127SOL     OW 2237   3.854   1.794   1.851
 3127SOL    HW1 2238   3.813   1.720   1.904
 3127SOL    HW2 2239   3.918   1.845   1.909
 3170SOL     OW 2240   3.955   1.713   2.345
 3170SOL    HW1 2241   3.989   1.790   2.399
 3170SOL    HW2 2242   3.999   1.713   2.255
 3177SOL     OW 2243   3.751   1.596   1.979
 3177SOL    HW1 2244   3.732   1.500   2.000
 3177SOL    HW2 2245   3.718   1.654   2.054
 3189SOL     OW 2246   3.854   1.821   3.433
 3189SOL    HW1 2247   3.844   1.806   3.532
 3189SOL    HW2 2248   3.768   1.857   3.397
 3193SOL     OW 2249   4.075   1.801   2.715
 3193SOL    HW1 2250   4.125   1.715   2.721
 3193SOL    HW2 2251   4.140   1.878   2.712
 3200SOL     OW 2252   3.973   1.785   3.103
 3200SOL    HW1 2253   4.030   1.720   3.153
 3200SOL    HW2 2254   3.957   1.752   3.010
 3228SOL     OW 2255   3.788   1.564   3.193
 3228SOL    HW1 2256   3.742   1.646   3.159
 3228SOL    HW2 2257   3.886   1.583   3.202
 3252SOL     OW 2258   3.732   1.326   2.062
 3252SOL    HW1 2259   3.639   1.347   2.031
 3252SOL    HW2 2260   3.742   1.227   2.075
 3253SOL     OW 2261   3.812   1.801   2.789
 3253SOL    HW1 2262   3.770   1.715   2.762
 3253SOL    HW2 2263   3.906   1.804   2.755
 3419SOL     OW 2264   3.837   2.599   1.597
 3419SOL    HW1 2265   3.925   2.586   1.642
 3419SOL    HW2 2266   3.824   2.696   1.575
 3423SOL     OW 2267   4.041   2.113   1.801
 3423SOL    HW1 2268   4.112   2.184   1.807
 3423SOL    HW2 2269   3.953   2.152   1.829
 3439SOL     OW 2270   3.926   2.147   1.498
 3439SOL    HW1 2271   3.846   2.207   1.485
 3439SOL    HW2 2272   3.916   2.098   1.584
 3458SOL     OW 2273   3.802   2.418   1.386
 3458SOL    HW1 2274   3.894   2.417   1.345
 3458SOL    HW2 2275   3.796   2.492   1.453
 3487SOL     OW 2276   4.074   2.760   1.804
 3487SOL    HW1 2277   4.150   2.804   1.852
 3487SOL    HW2 2278   4.109   2.713   1.722
 3498SOL     OW 2279   3.913   2.382   1.722
 3498SOL    HW1 2280   3.972   2.342   1.652
 3498SOL    HW2 2281   3.855   2.453   1.681
 3520SOL     OW 2282   3.829   2.875   1.726
 3520SOL    HW1 2283   3.752   2.842   1.780
 3520SOL    HW2 2284   3.914   2.845   1.768
 3531SOL     OW 2285   3.945   3.176   1.844
 3531SOL    HW1 2286   3.880   3.103   1.823
 3531SOL    HW2 2287   3.949   3.190   1.942
 3542SOL     OW 2288   3.954   2.490   1.975
 3542SOL    HW1 2289   3.861   2.488   2.012
 3542SOL    HW2 2290   3.955   2.451   1.883
 3543SOL     OW 2291   3.949   2.137   2.858
 3543SOL    HW1 2292   3.984   2.120   2.950
 3543SOL    HW2 2293   3.861   2.092   2.846
 3544SOL     OW 2294   3.743   2.230   2.509
 3544SOL    HW1 2295   3.661   2.273   2.548
 3544SOL    HW2 2296   3.715   2.157   2.446
 3555SOL     OW 2297   3.954   3.296   2.400
 3555SOL    HW1 2298   3.928   3.392   2.400
 3555SOL    HW2 2299   3.883   3.242   2.445
 3556SOL     OW 2300   3.964   2.953   2.748
 3556SOL    HW1 2301   3.978   2.869   2.800
 3556SOL    HW2 2302   3.909   3.017   2.803
 3559SOL     OW 2303   3.846   2.505   2.425
 3559SOL    HW1 2304   3.801   2.417   2.442
 3559SOL    HW2 2305   3.845   2.559   2.509
 3560SOL     OW 2306   3.751   3.458   1.979
 3560SOL    HW1 2307   3.732   3.362   2.000
 3560SOL    HW2 2308   3.718   3.516   2.054
 3561SOL     OW 2309   3.837   2.599   3.459
 3561SOL    HW1 2310   3.925   2.586   3.504
 3561SOL    HW2 2311   3.824   2.696   3.437
 3564SOL     OW 2312   3.921   2.838   3.126
 3564SOL    HW1 2313   4.010   2.793   3.112
 3564SOL    HW2 2314   3.848   2.773   3.107
 3571SOL     OW 2315   3.800   2.673   2.651
 3571SOL    HW1 2316   3.899   2.661   2.660
 3571SOL    HW2 2317   3.776   2.768   2.672
 3578SOL     OW 2318   4.045   2.805   2.104
 3578SOL    HW1 2319   4.127   2.844   2.062
 3578SOL    HW2 2320   4.018   2.723   2.055
 3581SOL     OW 2321   3.926   2.147   3.360
 3581SOL    HW1 2322   3.846   2.207   3.347
 3581SOL    HW2 2323   3.916   2.098   3.446
 3585SOL     OW 2324   4.106   2.562   2.342
 3585SOL    HW1 2325   4.151   2.472   2.339
 3585SOL    HW2 2326   4.012   2.551   2.375
 3592SOL     OW 2327   4.021   1.897   2.033
 3592SOL    HW1 2328   4.070   1.981   2.012
 3592SOL    HW2 2329   4.083   1.832   2.078
 3596SOL     OW 2330   4.183   3.014   2.603
 3596SOL    HW1 2331   4.112   2.987   2.668
 3596SOL    HW2 2332   4.157   2.986   2.510
 3599SOL     OW 2333   3.802   2.418   3.248
 3599SOL    HW1 2334   3.894   2.417   3.207
 3599SOL    HW2 2335   3.796   2.492   3.315
 3610SOL     OW 2336   4.134   2.675   3.113
 3610SOL    HW1 2337   4.220   2.687   3.163
 3610SOL    HW2 2338   4.092   2.588   3.140
 3611SOL     OW 2339   3.788   3.426   3.193
 3611SOL    HW1 2340   3.742   3.508   3.159
 3611SOL    HW2 2341   3.886   3.445   3.202
 3612SOL     OW 2342   4.091   2.962   2.363
 3612SOL    HW1 2343   4.084   3.045   2.307
 3612SOL    HW2 2344   4.095   2.882   2.303
 3622SOL     OW 2345   4.031   2.075   3.093
 3622SOL    HW1 2346   4.008   2.112   3.183
 3622SOL    HW2 2347   4.001   1.980   3.087
 3623SOL     OW 2348   3.761   3.172   3.144
 3623SOL    HW1 2349   3.814   3.123   3.212
 3623SOL    HW2 2350   3.783   3.270   3.149
 3625SOL     OW 2351   4.031   1.925   2.480
 3625SOL    HW1 2352   4.020   2.019   2.513
 3625SOL    HW2 2353   4.026   1.862   2.557
 3631SOL     OW 2354   4.043   2.672   2.811
 3631SOL    HW1 2355   4.136   2.708   2.816
 3631SOL    HW2 2356   4.037   2.587   2.863
 3632SOL     OW 2357   4.063   2.371   2.868
 3632SOL    HW1 2358   4.011   2.288   2.851
 3632SOL    HW2 2359   4.140   2.376   2.804
 3635SOL     OW 2360   3.732   3.188   2.062
 3635SOL    HW1 2361   3.639   3.209   2.031
 3635SOL    HW2 2362   3.742   3.089   2.075
 3636SOL     OW 2363   3.812   3.663   2.789
 3636SOL    HW1 2364   3.770   3.577   2.762
 3636SOL    HW2 2365   3.906   3.666   2.755
 3639SOL     OW 2366   3.764   2.406   2.976
 3639SOL    HW1 2367   3.849   2.373   2.935
 3639SOL    HW2 2368   3.777   2.421   3.074
 3640SOL     OW 2369   3.913   2.382   3.584
 3640SOL    HW1 2370   3.972   2.342   3.514
 3640SOL    HW2 2371   3.855   2.453   3.543
 3645SOL     OW 2372   4.197   2.362   2.053
 3645SOL    HW1 2373   4.258   2.442   2.057
 3645SOL    HW2 2374   4.102   2.393   2.060
 3646SOL     OW 2375   3.883   2.999   3.328
 3646SOL    HW1 2376   3.905   2.938   3.404
 3646SOL    HW2 2377   3.893   2.950   3.242
 3648SOL     OW 2378   3.807   3.120   2.884
 3648SOL    HW1 2379   3.802   3.119   2.984
 3648SOL    HW2 2380   3.724   3.079   2.846
 3653SOL     OW 2381   3.987   2.188   2.582
 3653SOL    HW1 2382   3.908   2.239   2.548
 3653SOL    HW2 2383   3.978   2.173   2.680
 3660SOL     OW 2384   3.979   3.210   2.152
 3660SOL    HW1 2385   3.883   3.211   2.125
 3660SOL    HW2 2386   3.991   3.263   2.236
 3661SOL     OW 2387   3.829   2.875   3.588
 3661SOL    HW1 2388   3.752   2.842   3.642
 3661SOL    HW2 2389   3.914   2.845   3.630
 3663SOL     OW 2390   3.799   2.207   1.895
 3663SOL    HW1 2391   3.707   2.179   1.866
 3663SOL    HW2 2392   3.830   2.284   1.839
 3664SOL     OW 2393   3.796   2.028   2.180
 3664SOL    HW1 2394   3.779   2.111   2.126
 3664SOL    HW2 2395   3.886   1.991   2.158
 3674SOL     OW 2396   3.803   3.102   2.515
 3674SOL    HW1 2397   3.802   3.055   2.603
 3674SOL    HW2 2398   3.885   3.074   2.464
 3676SOL     OW 2399   4.152   2.286   2.382
 3676SOL    HW1 2400   4.182   2.214   2.320
 3676SOL    HW2 2401   4.113   2.246   2.465
 3677SOL     OW 2402   4.041   2.409   3.142
 3677SOL    HW1 2403   4.079   2.350   3.214
 3677SOL    HW2 2404   4.081   2.383   3.054
 3682SOL     OW 2405   3.763   2.939   2.162
 3682SOL    HW1 2406   3.862   2.928   2.153
 3682SOL    HW2 2407   3.723   2.853   2.194
   4.98499   4.98499   4.98499
