; mobley_667278_GMX.itp created by acpype (v: 2023.10.27) on Thu May 21 00:10:13 2026

[ atomtypes ]
;name   bond_type     mass     charge   ptype   sigma         epsilon       Amb
 ca       ca          0.00000  0.00000   A     3.31521e-01   4.13379e-01 ; 1.86  0.0988
 cp       cp          0.00000  0.00000   A     3.31521e-01   4.13379e-01 ; 1.86  0.0988
 cl       cl          0.00000  0.00000   A     3.46595e-01   1.10374e+00 ; 1.95  0.2638
 ha       ha          0.00000  0.00000   A     2.62548e-01   6.73624e-02 ; 1.47  0.0161

[ moleculetype ]
;name            nrexcl
 mobley_667278    3

[ atoms ]
;   nr  type  resi  res  atom  cgnr     charge      mass       ; qtot   bond_type
     1   ca     1   MOL    C1    1    -0.092000     12.01000 ; qtot -0.092
     2   ca     1   MOL    C2    2    -0.120000     12.01000 ; qtot -0.212
     3   ca     1   MOL    C3    3    -0.092000     12.01000 ; qtot -0.304
     4   cp     1   MOL    C4    4    -0.039000     12.01000 ; qtot -0.343
     5   cp     1   MOL    C5    5    -0.025000     12.01000 ; qtot -0.368
     6   ca     1   MOL    C6    6     0.031400     12.01000 ; qtot -0.337
     7   ca     1   MOL    C7    7     0.018400     12.01000 ; qtot -0.318
     8   ca     1   MOL    C8    8     0.043400     12.01000 ; qtot -0.275
     9   ca     1   MOL    C9    9     0.039400     12.01000 ; qtot -0.235
    10   ca     1   MOL   C10   10     0.012400     12.01000 ; qtot -0.223
    11   ca     1   MOL   C11   11     0.028400     12.01000 ; qtot -0.195
    12   ca     1   MOL   C12   12     0.018400     12.01000 ; qtot -0.176
    13   cl     1   MOL   CL1   13    -0.055400     35.45000 ; qtot -0.232
    14   cl     1   MOL   CL2   14    -0.051400     35.45000 ; qtot -0.283
    15   cl     1   MOL   CL3   15    -0.046400     35.45000 ; qtot -0.329
    16   cl     1   MOL   CL4   16    -0.042400     35.45000 ; qtot -0.372
    17   cl     1   MOL   CL5   17    -0.039400     35.45000 ; qtot -0.411
    18   cl     1   MOL   CL6   18    -0.033400     35.45000 ; qtot -0.445
    19   cl     1   MOL   CL7   19    -0.035400     35.45000 ; qtot -0.480
    20   ha     1   MOL    H1   20     0.154000      1.00800 ; qtot -0.326
    21   ha     1   MOL    H2   21     0.159000      1.00800 ; qtot -0.167
    22   ha     1   MOL    H3   22     0.167000      1.00800 ; qtot 0.000

[ bonds ]
;   ai     aj funct   r             k
     1      2   1    1.3986e-01    2.9644e+05 ;     C1 - C2    
     1      4   1    1.4056e-01    2.8959e+05 ;     C1 - C4    
     1     20   1    1.0860e-01    3.0183e+05 ;     C1 - H1    
     2      6   1    1.3986e-01    2.9644e+05 ;     C2 - C6    
     2     21   1    1.0860e-01    3.0183e+05 ;     C2 - H2    
     3      5   1    1.4056e-01    2.8959e+05 ;     C3 - C5    
     3      7   1    1.3986e-01    2.9644e+05 ;     C3 - C7    
     3     22   1    1.0860e-01    3.0183e+05 ;     C3 - H3    
     4      5   1    1.4829e-01    2.2541e+05 ;     C4 - C5    
     4      8   1    1.4056e-01    2.8959e+05 ;     C4 - C8    
     5      9   1    1.4056e-01    2.8959e+05 ;     C5 - C9    
     6     10   1    1.3986e-01    2.9644e+05 ;     C6 - C10   
     6     13   1    1.7572e-01    1.5730e+05 ;     C6 - CL1   
     7     11   1    1.3986e-01    2.9644e+05 ;     C7 - C11   
     7     14   1    1.7572e-01    1.5730e+05 ;     C7 - CL2   
     8     10   1    1.3986e-01    2.9644e+05 ;     C8 - C10   
     8     15   1    1.7572e-01    1.5730e+05 ;     C8 - CL3   
     9     12   1    1.3986e-01    2.9644e+05 ;     C9 - C12   
     9     16   1    1.7572e-01    1.5730e+05 ;     C9 - CL4   
    10     17   1    1.7572e-01    1.5730e+05 ;    C10 - CL5   
    11     12   1    1.3986e-01    2.9644e+05 ;    C11 - C12   
    11     18   1    1.7572e-01    1.5730e+05 ;    C11 - CL6   
    12     19   1    1.7572e-01    1.5730e+05 ;    C12 - CL7   

[ pairs ]
;   ai     aj    funct
     1      3      1 ;     C1 - C3    
     1      9      1 ;     C1 - C9    
     1     10      1 ;     C1 - C10   
     1     13      1 ;     C1 - CL1   
     1     15      1 ;     C1 - CL3   
     2      5      1 ;     C2 - C5    
     2      8      1 ;     C2 - C8    
     2     17      1 ;     C2 - CL5   
     3      8      1 ;     C3 - C8    
     3     12      1 ;     C3 - C12   
     3     16      1 ;     C3 - CL4   
     3     18      1 ;     C3 - CL6   
     4      6      1 ;     C4 - C6    
     4      7      1 ;     C4 - C7    
     4     12      1 ;     C4 - C12   
     4     16      1 ;     C4 - CL4   
     4     17      1 ;     C4 - CL5   
     4     21      1 ;     C4 - H2    
     4     22      1 ;     C4 - H3    
     5     10      1 ;     C5 - C10   
     5     11      1 ;     C5 - C11   
     5     14      1 ;     C5 - CL2   
     5     15      1 ;     C5 - CL3   
     5     19      1 ;     C5 - CL7   
     6     15      1 ;     C6 - CL3   
     7      9      1 ;     C7 - C9    
     7     19      1 ;     C7 - CL7   
     8      9      1 ;     C8 - C9    
     8     13      1 ;     C8 - CL1   
     9     18      1 ;     C9 - CL6   
     9     22      1 ;     C9 - H3    
    10     21      1 ;    C10 - H2    
    11     16      1 ;    C11 - CL4   
    11     22      1 ;    C11 - H3    
    12     14      1 ;    C12 - CL2   
    13     17      1 ;    CL1 - CL5   
    13     21      1 ;    CL1 - H2    
    14     18      1 ;    CL2 - CL6   
    14     22      1 ;    CL2 - H3    
    15     17      1 ;    CL3 - CL5   
    16     19      1 ;    CL4 - CL7   
    18     19      1 ;    CL6 - CL7   
    20      5      1 ;     H1 - C5    
    20      6      1 ;     H1 - C6    
    20      8      1 ;     H1 - C8    
    20     21      1 ;     H1 - H2    

[ angles ]
;   ai     aj     ak    funct   theta         cth
     1      2      6      1    1.2002e+02    5.3279e+02 ;     C1 - C2     - C6    
     1      2     21      1    1.1988e+02    3.7572e+02 ;     C1 - C2     - H2    
     1      4      5      1    1.2110e+02    5.1296e+02 ;     C1 - C4     - C5    
     1      4      8      1    1.1841e+02    5.3379e+02 ;     C1 - C4     - C8    
     2      1      4      1    1.2073e+02    5.2995e+02 ;     C2 - C1     - C4    
     2      1     20      1    1.1988e+02    3.7572e+02 ;     C2 - C1     - H1    
     2      6     10      1    1.2002e+02    5.3279e+02 ;     C2 - C6     - C10   
     2      6     13      1    1.1938e+02    5.3605e+02 ;     C2 - C6     - CL1   
     3      5      4      1    1.2110e+02    5.1296e+02 ;     C3 - C5     - C4    
     3      5      9      1    1.1841e+02    5.3379e+02 ;     C3 - C5     - C9    
     3      7     11      1    1.2002e+02    5.3279e+02 ;     C3 - C7     - C11   
     3      7     14      1    1.1938e+02    5.3605e+02 ;     C3 - C7     - CL2   
     4      1     20      1    1.1982e+02    3.7430e+02 ;     C4 - C1     - H1    
     4      5      9      1    1.2110e+02    5.1296e+02 ;     C4 - C5     - C9    
     4      8     10      1    1.2073e+02    5.2995e+02 ;     C4 - C8     - C10   
     4      8     15      1    1.2044e+02    5.3304e+02 ;     C4 - C8     - CL3   
     5      3      7      1    1.2073e+02    5.2995e+02 ;     C5 - C3     - C7    
     5      3     22      1    1.1982e+02    3.7430e+02 ;     C5 - C3     - H3    
     5      4      8      1    1.2110e+02    5.1296e+02 ;     C5 - C4     - C8    
     5      9     12      1    1.2073e+02    5.2995e+02 ;     C5 - C9     - C12   
     5      9     16      1    1.2044e+02    5.3304e+02 ;     C5 - C9     - CL4   
     6      2     21      1    1.1988e+02    3.7572e+02 ;     C6 - C2     - H2    
     6     10      8      1    1.2002e+02    5.3279e+02 ;     C6 - C10    - C8    
     6     10     17      1    1.1938e+02    5.3605e+02 ;     C6 - C10    - CL5   
     7      3     22      1    1.1988e+02    3.7572e+02 ;     C7 - C3     - H3    
     7     11     12      1    1.2002e+02    5.3279e+02 ;     C7 - C11    - C12   
     7     11     18      1    1.1938e+02    5.3605e+02 ;     C7 - C11    - CL6   
     8     10     17      1    1.1938e+02    5.3605e+02 ;     C8 - C10    - CL5   
     9     12     11      1    1.2002e+02    5.3279e+02 ;     C9 - C12    - C11   
     9     12     19      1    1.1938e+02    5.3605e+02 ;     C9 - C12    - CL7   
    10      6     13      1    1.1938e+02    5.3605e+02 ;    C10 - C6     - CL1   
    10      8     15      1    1.1938e+02    5.3605e+02 ;    C10 - C8     - CL3   
    11      7     14      1    1.1938e+02    5.3605e+02 ;    C11 - C7     - CL2   
    11     12     19      1    1.1938e+02    5.3605e+02 ;    C11 - C12    - CL7   
    12      9     16      1    1.1938e+02    5.3605e+02 ;    C12 - C9     - CL4   
    12     11     18      1    1.1938e+02    5.3605e+02 ;    C12 - C11    - CL6   

[ dihedrals ] ; propers
; for gromacs 4.5 or higher, using funct 9
;    i      j      k      l   func   phase     kd      pn
     1      2      6     10      9   180.00  15.16700   2 ;     C1-    C2-    C6-   C10
     1      2      6     13      9   180.00  15.16700   2 ;     C1-    C2-    C6-   CL1
     1      4      5      3      9   180.00   3.20076   2 ;     C1-    C4-    C5-    C3
     1      4      5      9      9   180.00   3.20076   2 ;     C1-    C4-    C5-    C9
     1      4      8     10      9   180.00  15.16700   2 ;     C1-    C4-    C8-   C10
     1      4      8     15      9   180.00  15.16700   2 ;     C1-    C4-    C8-   CL3
     2      1      4      5      9   180.00  15.16700   2 ;     C2-    C1-    C4-    C5
     2      1      4      8      9   180.00  15.16700   2 ;     C2-    C1-    C4-    C8
     2      6     10      8      9   180.00  15.16700   2 ;     C2-    C6-   C10-    C8
     2      6     10     17      9   180.00  15.16700   2 ;     C2-    C6-   C10-   CL5
     3      5      4      8      9   180.00   3.20076   2 ;     C3-    C5-    C4-    C8
     3      5      9     12      9   180.00  15.16700   2 ;     C3-    C5-    C9-   C12
     3      5      9     16      9   180.00  15.16700   2 ;     C3-    C5-    C9-   CL4
     3      7     11     12      9   180.00  15.16700   2 ;     C3-    C7-   C11-   C12
     3      7     11     18      9   180.00  15.16700   2 ;     C3-    C7-   C11-   CL6
     4      1      2      6      9   180.00  15.16700   2 ;     C4-    C1-    C2-    C6
     4      1      2     21      9   180.00  15.16700   2 ;     C4-    C1-    C2-    H2
     4      5      3      7      9   180.00  15.16700   2 ;     C4-    C5-    C3-    C7
     4      5      3     22      9   180.00  15.16700   2 ;     C4-    C5-    C3-    H3
     4      5      9     12      9   180.00  15.16700   2 ;     C4-    C5-    C9-   C12
     4      5      9     16      9   180.00  15.16700   2 ;     C4-    C5-    C9-   CL4
     4      8     10      6      9   180.00  15.16700   2 ;     C4-    C8-   C10-    C6
     4      8     10     17      9   180.00  15.16700   2 ;     C4-    C8-   C10-   CL5
     5      3      7     11      9   180.00  15.16700   2 ;     C5-    C3-    C7-   C11
     5      3      7     14      9   180.00  15.16700   2 ;     C5-    C3-    C7-   CL2
     5      4      8     10      9   180.00  15.16700   2 ;     C5-    C4-    C8-   C10
     5      4      8     15      9   180.00  15.16700   2 ;     C5-    C4-    C8-   CL3
     5      9     12     11      9   180.00  15.16700   2 ;     C5-    C9-   C12-   C11
     5      9     12     19      9   180.00  15.16700   2 ;     C5-    C9-   C12-   CL7
     6     10      8     15      9   180.00  15.16700   2 ;     C6-   C10-    C8-   CL3
     7      3      5      9      9   180.00  15.16700   2 ;     C7-    C3-    C5-    C9
     7     11     12      9      9   180.00  15.16700   2 ;     C7-   C11-   C12-    C9
     7     11     12     19      9   180.00  15.16700   2 ;     C7-   C11-   C12-   CL7
     8      4      5      9      9   180.00   3.20076   2 ;     C8-    C4-    C5-    C9
     8     10      6     13      9   180.00  15.16700   2 ;     C8-   C10-    C6-   CL1
     9      5      3     22      9   180.00  15.16700   2 ;     C9-    C5-    C3-    H3
     9     12     11     18      9   180.00  15.16700   2 ;     C9-   C12-   C11-   CL6
    10      6      2     21      9   180.00  15.16700   2 ;    C10-    C6-    C2-    H2
    11      7      3     22      9   180.00  15.16700   2 ;    C11-    C7-    C3-    H3
    11     12      9     16      9   180.00  15.16700   2 ;    C11-   C12-    C9-   CL4
    12     11      7     14      9   180.00  15.16700   2 ;    C12-   C11-    C7-   CL2
    13      6      2     21      9   180.00  15.16700   2 ;    CL1-    C6-    C2-    H2
    13      6     10     17      9   180.00  15.16700   2 ;    CL1-    C6-   C10-   CL5
    14      7      3     22      9   180.00  15.16700   2 ;    CL2-    C7-    C3-    H3
    14      7     11     18      9   180.00  15.16700   2 ;    CL2-    C7-   C11-   CL6
    15      8     10     17      9   180.00  15.16700   2 ;    CL3-    C8-   C10-   CL5
    16      9     12     19      9   180.00  15.16700   2 ;    CL4-    C9-   C12-   CL7
    18     11     12     19      9   180.00  15.16700   2 ;    CL6-   C11-   C12-   CL7
    20      1      2      6      9   180.00  15.16700   2 ;     H1-    C1-    C2-    C6
    20      1      2     21      9   180.00  15.16700   2 ;     H1-    C1-    C2-    H2
    20      1      4      5      9   180.00  15.16700   2 ;     H1-    C1-    C4-    C5
    20      1      4      8      9   180.00  15.16700   2 ;     H1-    C1-    C4-    C8

[ dihedrals ] ; impropers
; treated as propers in GROMACS to use correct AMBER analytical function
;    i      j      k      l   func   phase     kd      pn
     1      6      2     21      4   180.00   4.60240   2 ;     C1-    C6-    C2-    H2
     1      8      4      5      4   180.00   4.60240   2 ;     C1-    C8-    C4-    C5
     2     10      6     13      4   180.00   4.60240   2 ;     C2-   C10-    C6-   CL1
     3      9      5      4      4   180.00   4.60240   2 ;     C3-    C9-    C5-    C4
     3     11      7     14      4   180.00   4.60240   2 ;     C3-   C11-    C7-   CL2
     6      8     10     17      4   180.00   4.60240   2 ;     C6-    C8-   C10-   CL5
     7      5      3     22      4   180.00   4.60240   2 ;     C7-    C5-    C3-    H3
     7     12     11     18      4   180.00   4.60240   2 ;     C7-   C12-   C11-   CL6
     9     11     12     19      4   180.00   4.60240   2 ;     C9-   C11-   C12-   CL7
    10     15      8      4      4   180.00   4.60240   2 ;    C10-   CL3-    C8-    C4
    12     16      9      5      4   180.00   4.60240   2 ;    C12-   CL4-    C9-    C5
    20      1      4      2      4   180.00   4.60240   2 ;     H1-    C1-    C4-    C2
