mobley_3370989_GMX.gro created by acpype (v: 2023.10.27) on Tue May 19 12:43:41 2026
 2423
    1MOL     C1    1   2.127   2.194   2.103
    1MOL     C2    2   2.195   2.130   2.221
    1MOL     F1    3   2.170   2.203   2.333
    1MOL     F2    4   2.329   2.130   2.203
    1MOL     H1    5   2.163   2.297   2.090
    1MOL     H2    6   2.149   2.139   2.011
    1MOL     H3    7   2.019   2.198   2.118
    1MOL     H4    8   2.161   2.027   2.238
    6SOL     OW    9   1.555   1.511   0.703
    6SOL    HW1   10   1.498   1.495   0.784
    6SOL    HW2   11   1.496   1.521   0.623
   14SOL     OW   12   1.460   1.505   1.339
   14SOL    HW1   13   1.484   1.599   1.365
   14SOL    HW2   14   1.444   1.451   1.421
   18SOL     OW   15   1.127   1.341   1.690
   18SOL    HW1   16   1.174   1.341   1.778
   18SOL    HW2   17   1.079   1.254   1.679
   21SOL     OW   18   0.620   1.786   1.439
   21SOL    HW1   19   0.528   1.769   1.474
   21SOL    HW2   20   0.648   1.878   1.465
   31SOL     OW   21   1.293   1.228   1.423
   31SOL    HW1   22   1.330   1.155   1.365
   31SOL    HW2   23   1.345   1.233   1.508
   35SOL     OW   24   1.187   1.792   1.616
   35SOL    HW1   25   1.211   1.852   1.540
   35SOL    HW2   26   1.194   1.697   1.586
   37SOL     OW   27   1.466   1.417   0.953
   37SOL    HW1   28   1.407   1.423   1.033
   37SOL    HW2   29   1.451   1.329   0.907
   38SOL     OW   30   1.667   1.714   0.572
   38SOL    HW1   31   1.626   1.691   0.484
   38SOL    HW2   32   1.649   1.640   0.637
   50SOL     OW   33   1.719   0.585   1.831
   50SOL    HW1   34   1.693   0.674   1.795
   50SOL    HW2   35   1.717   0.517   1.758
   55SOL     OW   36   1.795   1.066   0.873
   55SOL    HW1   37   1.733   1.051   0.797
   55SOL    HW2   38   1.743   1.077   0.958
   56SOL     OW   39   1.227   1.550   1.506
   56SOL    HW1   40   1.233   1.473   1.570
   56SOL    HW2   41   1.175   1.524   1.426
   71SOL     OW   42   0.888   1.514   1.195
   71SOL    HW1   43   0.865   1.489   1.101
   71SOL    HW2   44   0.949   1.445   1.234
   80SOL     OW   45   1.227   1.570   0.793
   80SOL    HW1   46   1.248   1.644   0.728
   80SOL    HW2   47   1.295   1.570   0.866
   88SOL     OW   48   1.429   1.173   0.867
   88SOL    HW1   49   1.374   1.089   0.860
   88SOL    HW2   50   1.455   1.202   0.775
   95SOL     OW   51   1.754   1.223   1.588
   95SOL    HW1   52   1.845   1.184   1.575
   95SOL    HW2   53   1.762   1.319   1.612
   96SOL     OW   54   1.064   1.347   1.340
   96SOL    HW1   55   0.984   1.324   1.395
   96SOL    HW2   56   1.147   1.321   1.389
   97SOL     OW   57   1.592   1.629   1.625
   97SOL    HW1   58   1.619   1.663   1.535
   97SOL    HW2   59   1.671   1.591   1.671
   98SOL     OW   60   1.111   1.195   1.100
   98SOL    HW1   61   1.071   1.239   1.181
   98SOL    HW2   62   1.070   1.232   1.017
   99SOL     OW   63   1.638   1.099   1.079
   99SOL    HW1   64   1.643   1.180   1.138
   99SOL    HW2   65   1.552   1.101   1.028
  101SOL     OW   66   0.980   1.116   1.719
  101SOL    HW1   67   0.881   1.122   1.729
  101SOL    HW2   68   1.003   1.036   1.663
  109SOL     OW   69   1.272   1.445   1.142
  109SOL    HW1   70   1.319   1.458   1.229
  109SOL    HW2   71   1.206   1.371   1.151
  113SOL     OW   72   1.587   0.779   1.670
  113SOL    HW1   73   1.495   0.817   1.665
  113SOL    HW2   74   1.647   0.826   1.605
  122SOL     OW   75   1.728   0.935   1.854
  122SOL    HW1   76   1.682   0.928   1.765
  122SOL    HW2   77   1.666   0.979   1.920
  126SOL     OW   78   0.980   1.573   1.700
  126SOL    HW1   79   0.960   1.617   1.612
  126SOL    HW2   80   1.019   1.482   1.684
  127SOL     OW   81   1.859   1.518   1.605
  127SOL    HW1   82   1.873   1.545   1.510
  127SOL    HW2   83   1.942   1.540   1.658
  142SOL     OW   84   1.369   0.950   1.660
  142SOL    HW1   85   1.408   1.039   1.680
  142SOL    HW2   86   1.379   0.930   1.563
  147SOL     OW   87   0.930   1.678   1.465
  147SOL    HW1   88   0.906   1.660   1.370
  147SOL    HW2   89   0.960   1.772   1.475
  150SOL     OW   90   1.347   1.059   1.234
  150SOL    HW1   91   1.371   0.996   1.160
  150SOL    HW2   92   1.257   1.099   1.216
  152SOL     OW   93   1.759   1.747   1.154
  152SOL    HW1   94   1.820   1.777   1.081
  152SOL    HW2   95   1.721   1.658   1.132
  153SOL     OW   96   1.252   1.731   1.128
  153SOL    HW1   97   1.336   1.736   1.074
  153SOL    HW2   98   1.229   1.635   1.146
  155SOL     OW   99   0.688   1.662   1.716
  155SOL    HW1  100   0.632   1.743   1.725
  155SOL    HW2  101   0.740   1.666   1.630
  161SOL     OW  102   0.830   1.273   1.422
  161SOL    HW1  103   0.825   1.306   1.517
  161SOL    HW2  104   0.744   1.292   1.376
  163SOL     OW  105   1.650   1.720   1.394
  163SOL    HW1  106   1.703   1.730   1.310
  163SOL    HW2  107   1.623   1.810   1.428
  171SOL     OW  108   1.614   1.292   1.289
  171SOL    HW1  109   1.674   1.295   1.369
  171SOL    HW2  110   1.539   1.356   1.302
  180SOL     OW  111   1.440   0.856   1.398
  180SOL    HW1  112   1.383   0.908   1.335
  180SOL    HW2  113   1.536   0.868   1.374
  184SOL     OW  114   1.493   1.767   0.959
  184SOL    HW1  115   1.526   1.831   0.890
  184SOL    HW2  116   1.559   1.761   1.034
  186SOL     OW  117   1.450   1.220   1.633
  186SOL    HW1  118   1.441   1.210   1.732
  186SOL    HW2  119   1.546   1.213   1.607
  188SOL     OW  120   1.674   0.883   1.254
  188SOL    HW1  121   1.647   0.794   1.217
  188SOL    HW2  122   1.675   0.951   1.181
  192SOL     OW  123   1.730   0.934   1.517
  192SOL    HW1  124   1.768   1.025   1.532
  192SOL    HW2  125   1.722   0.917   1.418
  197SOL     OW  126   1.861   1.569   0.851
  197SOL    HW1  127   1.790   1.557   0.781
  197SOL    HW2  128   1.862   1.490   0.911
  200SOL     OW  129   0.672   1.391   1.624
  200SOL    HW1  130   0.594   1.341   1.662
  200SOL    HW2  131   0.669   1.486   1.655
  203SOL     OW  132   1.705   1.487   1.104
  203SOL    HW1  133   1.612   1.462   1.077
  203SOL    HW2  134   1.731   1.437   1.186
  219SOL     OW  135   1.555   1.511   2.565
  219SOL    HW1  136   1.498   1.495   2.646
  219SOL    HW2  137   1.496   1.521   2.485
  221SOL     OW  138   1.755   0.607   2.093
  221SOL    HW1  139   1.743   0.594   1.994
  221SOL    HW2  140   1.725   0.526   2.142
  227SOL     OW  141   1.460   1.505   3.201
  227SOL    HW1  142   1.484   1.599   3.227
  227SOL    HW2  143   1.444   1.451   3.283
  238SOL     OW  144   1.842   1.767   2.221
  238SOL    HW1  145   1.896   1.738   2.301
  238SOL    HW2  146   1.872   1.857   2.192
  240SOL     OW  147   1.689   0.922   2.474
  240SOL    HW1  148   1.784   0.893   2.482
  240SOL    HW2  149   1.681   0.987   2.399
  241SOL     OW  150   1.641   1.108   2.294
  241SOL    HW1  151   1.727   1.110   2.242
  241SOL    HW2  152   1.655   1.155   2.382
  243SOL     OW  153   0.613   1.365   2.588
  243SOL    HW1  154   0.564   1.278   2.597
  243SOL    HW2  155   0.590   1.408   2.501
  244SOL     OW  156   1.293   1.228   3.285
  244SOL    HW1  157   1.330   1.155   3.227
  244SOL    HW2  158   1.345   1.233   3.370
  247SOL     OW  159   1.525   0.999   2.052
  247SOL    HW1  160   1.462   0.923   2.065
  247SOL    HW2  161   1.573   1.017   2.138
  248SOL     OW  162   1.187   1.792   3.478
  248SOL    HW1  163   1.211   1.852   3.402
  248SOL    HW2  164   1.194   1.697   3.448
  250SOL     OW  165   1.466   1.417   2.815
  250SOL    HW1  166   1.407   1.423   2.895
  250SOL    HW2  167   1.451   1.329   2.769
  251SOL     OW  168   1.667   1.714   2.434
  251SOL    HW1  169   1.626   1.691   2.346
  251SOL    HW2  170   1.649   1.640   2.499
  254SOL     OW  171   1.576   1.662   2.169
  254SOL    HW1  172   1.665   1.708   2.172
  254SOL    HW2  173   1.555   1.638   2.074
  264SOL     OW  174   1.362   1.144   2.407
  264SOL    HW1  175   1.445   1.115   2.359
  264SOL    HW2  176   1.313   1.211   2.351
  266SOL     OW  177   1.008   1.456   2.339
  266SOL    HW1  178   0.962   1.528   2.287
  266SOL    HW2  179   1.004   1.476   2.437
  268SOL     OW  180   1.795   1.066   2.735
  268SOL    HW1  181   1.733   1.051   2.659
  268SOL    HW2  182   1.743   1.077   2.820
  269SOL     OW  183   1.227   1.550   3.368
  269SOL    HW1  184   1.233   1.473   3.432
  269SOL    HW2  185   1.175   1.524   3.288
  271SOL     OW  186   1.458   0.735   2.590
  271SOL    HW1  187   1.453   0.670   2.665
  271SOL    HW2  188   1.538   0.794   2.603
  273SOL     OW  189   1.111   1.776   2.099
  273SOL    HW1  190   1.051   1.714   2.149
  273SOL    HW2  191   1.142   1.732   2.014
  275SOL     OW  192   1.632   1.377   1.943
  275SOL    HW1  193   1.600   1.471   1.933
  275SOL    HW2  194   1.556   1.314   1.931
  276SOL     OW  195   0.464   1.743   2.185
  276SOL    HW1  196   0.497   1.782   2.271
  276SOL    HW2  197   0.540   1.736   2.120
  279SOL     OW  198   0.940   1.698   2.766
  279SOL    HW1  199   1.020   1.641   2.787
  279SOL    HW2  200   0.891   1.658   2.689
  284SOL     OW  201   0.888   1.514   3.057
  284SOL    HW1  202   0.865   1.489   2.963
  284SOL    HW2  203   0.949   1.445   3.096
  286SOL     OW  204   0.803   1.402   2.786
  286SOL    HW1  205   0.893   1.416   2.744
  286SOL    HW2  206   0.732   1.404   2.715
  289SOL     OW  207   1.434   1.188   1.903
  289SOL    HW1  208   1.466   1.112   1.960
  289SOL    HW2  209   1.342   1.215   1.933
  293SOL     OW  210   1.227   1.570   2.655
  293SOL    HW1  211   1.248   1.644   2.590
  293SOL    HW2  212   1.295   1.570   2.728
  295SOL     OW  213   1.271   1.797   2.453
  295SOL    HW1  214   1.315   1.861   2.389
  295SOL    HW2  215   1.221   1.849   2.523
  301SOL     OW  216   1.429   1.173   2.729
  301SOL    HW1  217   1.374   1.089   2.722
  301SOL    HW2  218   1.455   1.202   2.637
  303SOL     OW  219   1.857   0.833   2.239
  303SOL    HW1  220   1.899   0.769   2.303
  303SOL    HW2  221   1.819   0.782   2.161
  305SOL     OW  222   1.664   1.280   2.519
  305SOL    HW1  223   1.763   1.288   2.533
  305SOL    HW2  224   1.619   1.364   2.550
  306SOL     OW  225   1.390   0.575   1.940
  306SOL    HW1  226   1.336   0.554   2.021
  306SOL    HW2  227   1.481   0.534   1.949
  308SOL     OW  228   1.754   1.223   3.450
  308SOL    HW1  229   1.845   1.184   3.437
  308SOL    HW2  230   1.762   1.319   3.474
  309SOL     OW  231   1.064   1.347   3.202
  309SOL    HW1  232   0.984   1.324   3.257
  309SOL    HW2  233   1.147   1.321   3.251
  310SOL     OW  234   1.592   1.629   3.487
  310SOL    HW1  235   1.619   1.663   3.397
  310SOL    HW2  236   1.671   1.591   3.533
  311SOL     OW  237   1.111   1.195   2.962
  311SOL    HW1  238   1.071   1.239   3.043
  311SOL    HW2  239   1.070   1.232   2.879
  312SOL     OW  240   1.638   1.099   2.941
  312SOL    HW1  241   1.643   1.180   3.000
  312SOL    HW2  242   1.552   1.101   2.890
  321SOL     OW  243   1.252   1.348   2.250
  321SOL    HW1  244   1.302   1.425   2.290
  321SOL    HW2  245   1.157   1.350   2.282
  322SOL     OW  246   1.272   1.445   3.004
  322SOL    HW1  247   1.319   1.458   3.091
  322SOL    HW2  248   1.206   1.371   3.013
  323SOL     OW  249   1.582   0.639   2.334
  323SOL    HW1  250   1.551   0.700   2.407
  323SOL    HW2  251   1.632   0.691   2.265
  330SOL     OW  252   1.360   0.862   2.907
  330SOL    HW1  253   1.285   0.862   2.841
  330SOL    HW2  254   1.397   0.770   2.916
  340SOL     OW  255   1.859   1.518   3.467
  340SOL    HW1  256   1.873   1.545   3.372
  340SOL    HW2  257   1.942   1.540   3.520
  343SOL     OW  258   1.303   0.838   1.904
  343SOL    HW1  259   1.337   0.745   1.919
  343SOL    HW2  260   1.321   0.865   1.809
  344SOL     OW  261   1.068   1.333   2.711
  344SOL    HW1  262   1.075   1.249   2.656
  344SOL    HW2  263   1.130   1.402   2.675
  360SOL     OW  264   0.930   1.678   3.327
  360SOL    HW1  265   0.906   1.660   3.232
  360SOL    HW2  266   0.960   1.772   3.337
  363SOL     OW  267   1.347   1.059   3.096
  363SOL    HW1  268   1.371   0.996   3.022
  363SOL    HW2  269   1.257   1.099   3.078
  364SOL     OW  270   1.302   0.855   2.171
  364SOL    HW1  271   1.216   0.824   2.213
  364SOL    HW2  272   1.298   0.841   2.072
  365SOL     OW  273   1.759   1.747   3.016
  365SOL    HW1  274   1.820   1.777   2.943
  365SOL    HW2  275   1.721   1.658   2.994
  366SOL     OW  276   1.252   1.731   2.990
  366SOL    HW1  277   1.336   1.736   2.936
  366SOL    HW2  278   1.229   1.635   3.008
  370SOL     OW  279   1.388   1.573   2.339
  370SOL    HW1  280   1.455   1.585   2.265
  370SOL    HW2  281   1.348   1.662   2.362
  372SOL     OW  282   1.280   0.927   2.534
  372SOL    HW1  283   1.340   0.846   2.536
  372SOL    HW2  284   1.320   0.996   2.474
  374SOL     OW  285   0.672   1.616   2.016
  374SOL    HW1  286   0.681   1.626   1.917
  374SOL    HW2  287   0.632   1.527   2.037
  375SOL     OW  288   1.650   1.720   3.256
  375SOL    HW1  289   1.703   1.730   3.172
  375SOL    HW2  290   1.623   1.810   3.290
  378SOL     OW  291   1.194   1.612   1.893
  378SOL    HW1  292   1.200   1.519   1.930
  378SOL    HW2  293   1.135   1.612   1.813
  380SOL     OW  294   0.916   0.910   2.153
  380SOL    HW1  295   0.979   0.948   2.085
  380SOL    HW2  296   0.956   0.827   2.192
  381SOL     OW  297   1.504   1.607   1.906
  381SOL    HW1  298   1.412   1.644   1.913
  381SOL    HW2  299   1.542   1.627   1.816
  383SOL     OW  300   1.614   1.292   3.151
  383SOL    HW1  301   1.674   1.295   3.231
  383SOL    HW2  302   1.539   1.356   3.164
  384SOL     OW  303   1.039   1.098   2.558
  384SOL    HW1  304   0.969   1.051   2.612
  384SOL    HW2  305   1.098   1.030   2.515
  386SOL     OW  306   0.590   1.487   2.353
  386SOL    HW1  307   0.632   1.429   2.283
  386SOL    HW2  308   0.546   1.566   2.309
  394SOL     OW  309   1.183   1.335   1.981
  394SOL    HW1  310   1.084   1.324   1.983
  394SOL    HW2  311   1.217   1.350   2.074
  396SOL     OW  312   1.493   1.767   2.821
  396SOL    HW1  313   1.526   1.831   2.752
  396SOL    HW2  314   1.559   1.761   2.896
  398SOL     OW  315   1.450   1.220   3.495
  398SOL    HW1  316   1.441   1.210   3.594
  398SOL    HW2  317   1.546   1.213   3.469
  400SOL     OW  318   1.674   0.883   3.116
  400SOL    HW1  319   1.647   0.794   3.079
  400SOL    HW2  320   1.675   0.951   3.043
  404SOL     OW  321   1.730   0.934   3.379
  404SOL    HW1  322   1.768   1.025   3.394
  404SOL    HW2  323   1.722   0.917   3.280
  405SOL     OW  324   0.859   1.374   1.878
  405SOL    HW1  325   0.813   1.389   1.966
  405SOL    HW2  326   0.903   1.459   1.848
  406SOL     OW  327   0.661   1.790   2.815
  406SOL    HW1  328   0.615   1.878   2.802
  406SOL    HW2  329   0.760   1.802   2.808
  408SOL     OW  330   1.083   0.984   1.949
  408SOL    HW1  331   1.060   1.037   1.867
  408SOL    HW2  332   1.164   0.928   1.930
  409SOL     OW  333   1.861   1.569   2.713
  409SOL    HW1  334   1.790   1.557   2.643
  409SOL    HW2  335   1.862   1.490   2.773
  415SOL     OW  336   1.705   1.487   2.966
  415SOL    HW1  337   1.612   1.462   2.939
  415SOL    HW2  338   1.731   1.437   3.048
  417SOL     OW  339   0.812   1.586   2.549
  417SOL    HW1  340   0.844   1.596   2.455
  417SOL    HW2  341   0.733   1.524   2.551
  420SOL     OW  342   0.770   1.330   2.163
  420SOL    HW1  343   0.724   1.243   2.180
  420SOL    HW2  344   0.861   1.327   2.204
  426SOL     OW  345   0.875   1.646   2.199
  426SOL    HW1  346   0.798   1.611   2.145
  426SOL    HW2  347   0.843   1.717   2.261
  498SOL     OW  348   0.850   2.660   1.823
  498SOL    HW1  349   0.846   2.736   1.888
  498SOL    HW2  350   0.872   2.696   1.732
  500SOL     OW  351   0.686   3.023   1.803
  500SOL    HW1  352   0.746   3.102   1.817
  500SOL    HW2  353   0.600   3.054   1.762
  502SOL     OW  354   1.460   3.367   1.339
  502SOL    HW1  355   1.484   3.461   1.365
  502SOL    HW2  356   1.444   3.313   1.421
  504SOL     OW  357   1.603   2.309   0.737
  504SOL    HW1  358   1.529   2.355   0.687
  504SOL    HW2  359   1.654   2.377   0.790
  506SOL     OW  360   1.127   3.203   1.690
  506SOL    HW1  361   1.174   3.203   1.778
  506SOL    HW2  362   1.079   3.116   1.679
  511SOL     OW  363   1.594   1.976   1.480
  511SOL    HW1  364   1.576   2.043   1.408
  511SOL    HW2  365   1.591   2.022   1.569
  515SOL     OW  366   1.689   2.784   0.612
  515SOL    HW1  367   1.784   2.755   0.620
  515SOL    HW2  368   1.681   2.849   0.537
  519SOL     OW  369   1.293   3.090   1.423
  519SOL    HW1  370   1.330   3.017   1.365
  519SOL    HW2  371   1.345   3.095   1.508
  525SOL     OW  372   1.466   3.279   0.953
  525SOL    HW1  373   1.407   3.285   1.033
  525SOL    HW2  374   1.451   3.191   0.907
  528SOL     OW  375   1.281   2.207   0.944
  528SOL    HW1  376   1.195   2.157   0.931
  528SOL    HW2  377   1.343   2.153   1.000
  530SOL     OW  378   0.807   2.467   1.465
  530SOL    HW1  379   0.760   2.464   1.554
  530SOL    HW2  380   0.756   2.412   1.399
  531SOL     OW  381   1.394   2.331   1.674
  531SOL    HW1  382   1.374   2.374   1.762
  531SOL    HW2  383   1.472   2.269   1.683
  532SOL     OW  384   0.973   2.752   1.572
  532SOL    HW1  385   1.019   2.668   1.543
  532SOL    HW2  386   0.917   2.786   1.497
  533SOL     OW  387   0.991   2.272   1.242
  533SOL    HW1  388   0.914   2.306   1.296
  533SOL    HW2  389   0.957   2.221   1.163
  538SOL     OW  390   1.719   2.447   1.831
  538SOL    HW1  391   1.693   2.536   1.795
  538SOL    HW2  392   1.717   2.379   1.758
  543SOL     OW  393   1.795   2.928   0.873
  543SOL    HW1  394   1.733   2.913   0.797
  543SOL    HW2  395   1.743   2.939   0.958
  544SOL     OW  396   1.227   3.412   1.506
  544SOL    HW1  397   1.233   3.335   1.570
  544SOL    HW2  398   1.175   3.386   1.426
  546SOL     OW  399   1.458   2.597   0.728
  546SOL    HW1  400   1.453   2.532   0.803
  546SOL    HW2  401   1.538   2.656   0.741
  556SOL     OW  402   1.547   2.084   1.729
  556SOL    HW1  403   1.542   2.121   1.821
  556SOL    HW2  404   1.475   2.015   1.717
  558SOL     OW  405   0.781   2.126   1.749
  558SOL    HW1  406   0.848   2.065   1.792
  558SOL    HW2  407   0.708   2.145   1.814
  560SOL     OW  408   1.351   2.452   1.433
  560SOL    HW1  409   1.379   2.409   1.518
  560SOL    HW2  410   1.376   2.548   1.434
  562SOL     OW  411   0.922   2.365   0.899
  562SOL    HW1  412   0.897   2.356   0.803
  562SOL    HW2  413   0.970   2.283   0.930
  567SOL     OW  414   1.076   2.545   1.464
  567SOL    HW1  415   0.996   2.484   1.467
  567SOL    HW2  416   1.157   2.492   1.440
  576SOL     OW  417   1.429   3.035   0.867
  576SOL    HW1  418   1.374   2.951   0.860
  576SOL    HW2  419   1.455   3.064   0.775
  577SOL     OW  420   1.466   2.452   0.992
  577SOL    HW1  421   1.436   2.357   0.999
  577SOL    HW2  422   1.539   2.468   1.058
  583SOL     OW  423   1.754   3.085   1.588
  583SOL    HW1  424   1.845   3.046   1.575
  583SOL    HW2  425   1.762   3.181   1.612
  584SOL     OW  426   1.064   3.209   1.340
  584SOL    HW1  427   0.984   3.186   1.395
  584SOL    HW2  428   1.147   3.183   1.389
  585SOL     OW  429   1.592   3.491   1.625
  585SOL    HW1  430   1.619   3.525   1.535
  585SOL    HW2  431   1.671   3.453   1.671
  586SOL     OW  432   1.111   3.057   1.100
  586SOL    HW1  433   1.071   3.101   1.181
  586SOL    HW2  434   1.070   3.094   1.017
  587SOL     OW  435   1.638   2.961   1.079
  587SOL    HW1  436   1.643   3.042   1.138
  587SOL    HW2  437   1.552   2.963   1.028
  588SOL     OW  438   0.915   1.951   1.402
  588SOL    HW1  439   0.940   1.931   1.307
  588SOL    HW2  440   0.987   2.007   1.444
  589SOL     OW  441   0.980   2.978   1.719
  589SOL    HW1  442   0.881   2.984   1.729
  589SOL    HW2  443   1.003   2.898   1.663
  592SOL     OW  444   1.274   2.248   1.262
  592SOL    HW1  445   1.295   2.322   1.326
  592SOL    HW2  446   1.185   2.265   1.219
  597SOL     OW  447   1.272   3.307   1.142
  597SOL    HW1  448   1.319   3.320   1.229
  597SOL    HW2  449   1.206   3.233   1.151
  601SOL     OW  450   1.587   2.641   1.670
  601SOL    HW1  451   1.495   2.679   1.665
  601SOL    HW2  452   1.647   2.688   1.605
  602SOL     OW  453   1.013   1.967   1.770
  602SOL    HW1  454   1.019   2.052   1.718
  602SOL    HW2  455   1.045   1.891   1.713
  603SOL     OW  456   0.504   1.912   1.740
  603SOL    HW1  457   0.462   1.855   1.670
  603SOL    HW2  458   0.438   1.981   1.772
  605SOL     OW  459   1.360   2.724   1.045
  605SOL    HW1  460   1.285   2.724   0.979
  605SOL    HW2  461   1.397   2.632   1.054
  610SOL     OW  462   1.728   2.797   1.854
  610SOL    HW1  463   1.682   2.790   1.765
  610SOL    HW2  464   1.666   2.841   1.920
  613SOL     OW  465   1.023   2.628   0.966
  613SOL    HW1  466   1.038   2.649   1.062
  613SOL    HW2  467   0.993   2.533   0.957
  614SOL     OW  468   0.980   3.435   1.700
  614SOL    HW1  469   0.960   3.479   1.612
  614SOL    HW2  470   1.019   3.344   1.684
  615SOL     OW  471   1.859   3.380   1.605
  615SOL    HW1  472   1.873   3.407   1.510
  615SOL    HW2  473   1.942   3.402   1.658
  622SOL     OW  474   1.138   2.242   1.678
  622SOL    HW1  475   1.093   2.305   1.742
  622SOL    HW2  476   1.231   2.273   1.661
  623SOL     OW  477   1.160   2.069   1.477
  623SOL    HW1  478   1.160   2.133   1.554
  623SOL    HW2  479   1.188   2.117   1.394
  627SOL     OW  480   1.002   2.658   1.238
  627SOL    HW1  481   1.043   2.626   1.324
  627SOL    HW2  482   0.906   2.631   1.235
  630SOL     OW  483   1.369   2.812   1.660
  630SOL    HW1  484   1.408   2.901   1.680
  630SOL    HW2  485   1.379   2.792   1.563
  632SOL     OW  486   1.657   2.466   1.206
  632SOL    HW1  487   1.619   2.397   1.268
  632SOL    HW2  488   1.739   2.430   1.162
  634SOL     OW  489   0.671   2.326   1.269
  634SOL    HW1  490   0.637   2.237   1.239
  634SOL    HW2  491   0.697   2.380   1.189
  638SOL     OW  492   1.347   2.921   1.234
  638SOL    HW1  493   1.371   2.858   1.160
  638SOL    HW2  494   1.257   2.961   1.216
  645SOL     OW  495   1.726   1.997   0.523
  645SOL    HW1  496   1.799   1.980   0.456
  645SOL    HW2  497   1.695   1.910   0.561
  651SOL     OW  498   1.650   3.582   1.394
  651SOL    HW1  499   1.703   3.592   1.310
  651SOL    HW2  500   1.623   3.672   1.428
  652SOL     OW  501   1.841   2.037   0.963
  652SOL    HW1  502   1.880   1.952   0.927
  652SOL    HW2  503   1.743   2.039   0.944
  655SOL     OW  504   0.822   2.864   1.372
  655SOL    HW1  505   0.862   2.863   1.280
  655SOL    HW2  506   0.832   2.956   1.412
  659SOL     OW  507   1.614   3.154   1.289
  659SOL    HW1  508   1.674   3.157   1.369
  659SOL    HW2  509   1.539   3.218   1.302
  661SOL     OW  510   1.014   2.098   0.971
  661SOL    HW1  511   1.006   2.062   0.878
  661SOL    HW2  512   1.012   2.022   1.036
  663SOL     OW  513   1.709   2.247   1.381
  663SOL    HW1  514   1.782   2.316   1.385
  663SOL    HW2  515   1.737   2.172   1.322
  666SOL     OW  516   0.672   2.065   1.489
  666SOL    HW1  517   0.762   2.049   1.449
  666SOL    HW2  518   0.680   2.070   1.588
  668SOL     OW  519   1.440   2.718   1.398
  668SOL    HW1  520   1.383   2.770   1.335
  668SOL    HW2  521   1.536   2.730   1.374
  671SOL     OW  522   0.613   2.704   1.431
  671SOL    HW1  523   0.669   2.785   1.414
  671SOL    HW2  524   0.672   2.624   1.434
  673SOL     OW  525   0.716   2.427   1.708
  673SOL    HW1  526   0.735   2.492   1.782
  673SOL    HW2  527   0.776   2.347   1.717
  674SOL     OW  528   1.450   3.082   1.633
  674SOL    HW1  529   1.441   3.072   1.732
  674SOL    HW2  530   1.546   3.075   1.607
  676SOL     OW  531   1.674   2.745   1.254
  676SOL    HW1  532   1.647   2.656   1.217
  676SOL    HW2  533   1.675   2.813   1.181
  679SOL     OW  534   1.777   2.204   1.642
  679SOL    HW1  535   1.760   2.235   1.548
  679SOL    HW2  536   1.693   2.167   1.680
  680SOL     OW  537   1.730   2.796   1.517
  680SOL    HW1  538   1.768   2.887   1.532
  680SOL    HW2  539   1.722   2.779   1.418
  689SOL     OW  540   1.824   2.054   1.227
  689SOL    HW1  541   1.820   1.964   1.271
  689SOL    HW2  542   1.827   2.043   1.128
  691SOL     OW  543   1.705   3.349   1.104
  691SOL    HW1  544   1.612   3.324   1.077
  691SOL    HW2  545   1.731   3.299   1.186
  694SOL     OW  546   1.424   2.076   1.112
  694SOL    HW1  547   1.476   2.011   1.167
  694SOL    HW2  548   1.375   2.139   1.173
  695SOL     OW  549   1.001   1.896   1.154
  695SOL    HW1  550   0.938   1.824   1.123
  695SOL    HW2  551   1.094   1.860   1.154
  699SOL     OW  552   1.300   2.315   0.691
  699SOL    HW1  553   1.241   2.395   0.695
  699SOL    HW2  554   1.315   2.280   0.784
  700SOL     OW  555   1.593   2.083   0.882
  700SOL    HW1  556   1.509   2.082   0.936
  700SOL    HW2  557   1.595   2.166   0.826
  707SOL     OW  558   1.555   3.373   2.565
  707SOL    HW1  559   1.498   3.357   2.646
  707SOL    HW2  560   1.496   3.383   2.485
  708SOL     OW  561   1.135   2.565   2.579
  708SOL    HW1  562   1.192   2.643   2.554
  708SOL    HW2  563   1.075   2.591   2.655
  709SOL     OW  564   1.755   2.469   2.093
  709SOL    HW1  565   1.743   2.456   1.994
  709SOL    HW2  566   1.725   2.388   2.142
  710SOL     OW  567   0.768   3.006   2.885
  710SOL    HW1  568   0.690   3.023   2.945
  710SOL    HW2  569   0.802   3.093   2.849
  712SOL     OW  570   0.685   2.874   2.527
  712SOL    HW1  571   0.754   2.858   2.597
  712SOL    HW2  572   0.612   2.931   2.565
  715SOL     OW  573   1.460   3.367   3.201
  715SOL    HW1  574   1.484   3.461   3.227
  715SOL    HW2  575   1.444   3.313   3.283
  717SOL     OW  576   1.603   2.309   2.599
  717SOL    HW1  577   1.529   2.355   2.549
  717SOL    HW2  578   1.654   2.377   2.652
  723SOL     OW  579   0.606   2.826   1.985
  723SOL    HW1  580   0.613   2.910   1.931
  723SOL    HW2  581   0.652   2.839   2.073
  724SOL     OW  582   1.594   1.976   3.342
  724SOL    HW1  583   1.576   2.043   3.270
  724SOL    HW2  584   1.591   2.022   3.431
  726SOL     OW  585   1.842   3.629   2.221
  726SOL    HW1  586   1.896   3.600   2.301
  726SOL    HW2  587   1.872   3.719   2.192
  728SOL     OW  588   1.689   2.784   2.474
  728SOL    HW1  589   1.784   2.755   2.482
  728SOL    HW2  590   1.681   2.849   2.399
  729SOL     OW  591   1.641   2.970   2.294
  729SOL    HW1  592   1.727   2.972   2.242
  729SOL    HW2  593   1.655   3.017   2.382
  732SOL     OW  594   1.293   3.090   3.285
  732SOL    HW1  595   1.330   3.017   3.227
  732SOL    HW2  596   1.345   3.095   3.370
  733SOL     OW  597   0.809   1.866   2.364
  733SOL    HW1  598   0.849   1.957   2.355
  733SOL    HW2  599   0.709   1.874   2.370
  735SOL     OW  600   1.525   2.861   2.052
  735SOL    HW1  601   1.462   2.785   2.065
  735SOL    HW2  602   1.573   2.879   2.138
  738SOL     OW  603   1.466   3.279   2.815
  738SOL    HW1  604   1.407   3.285   2.895
  738SOL    HW2  605   1.451   3.191   2.769
  739SOL     OW  606   1.667   3.576   2.434
  739SOL    HW1  607   1.626   3.553   2.346
  739SOL    HW2  608   1.649   3.502   2.499
  740SOL     OW  609   0.598   2.591   2.132
  740SOL    HW1  610   0.622   2.660   2.064
  740SOL    HW2  611   0.520   2.624   2.186
  741SOL     OW  612   1.281   2.207   2.806
  741SOL    HW1  613   1.195   2.157   2.793
  741SOL    HW2  614   1.343   2.153   2.862
  742SOL     OW  615   1.576   3.524   2.169
  742SOL    HW1  616   1.665   3.570   2.172
  742SOL    HW2  617   1.555   3.500   2.074
  744SOL     OW  618   1.394   2.331   3.536
  744SOL    HW1  619   1.374   2.374   3.624
  744SOL    HW2  620   1.472   2.269   3.545
  746SOL     OW  621   0.991   2.272   3.104
  746SOL    HW1  622   0.914   2.306   3.158
  746SOL    HW2  623   0.957   2.221   3.025
  747SOL     OW  624   1.041   2.563   2.291
  747SOL    HW1  625   1.067   2.559   2.387
  747SOL    HW2  626   0.956   2.512   2.277
  750SOL     OW  627   0.865   2.210   2.057
  750SOL    HW1  628   0.924   2.273   2.008
  750SOL    HW2  629   0.884   2.116   2.028
  751SOL     OW  630   1.719   2.447   3.693
  751SOL    HW1  631   1.693   2.536   3.657
  751SOL    HW2  632   1.717   2.379   3.620
  752SOL     OW  633   1.362   3.006   2.407
  752SOL    HW1  634   1.445   2.977   2.359
  752SOL    HW2  635   1.313   3.073   2.351
  753SOL     OW  636   0.550   2.058   2.747
  753SOL    HW1  637   0.545   2.053   2.847
  753SOL    HW2  638   0.552   2.154   2.718
  754SOL     OW  639   1.008   3.318   2.339
  754SOL    HW1  640   0.962   3.390   2.287
  754SOL    HW2  641   1.004   3.338   2.437
  756SOL     OW  642   1.795   2.928   2.735
  756SOL    HW1  643   1.733   2.913   2.659
  756SOL    HW2  644   1.743   2.939   2.820
  759SOL     OW  645   1.458   2.597   2.590
  759SOL    HW1  646   1.453   2.532   2.665
  759SOL    HW2  647   1.538   2.656   2.603
  763SOL     OW  648   1.632   3.239   1.943
  763SOL    HW1  649   1.600   3.333   1.933
  763SOL    HW2  650   1.556   3.176   1.931
  765SOL     OW  651   1.400   1.969   2.288
  765SOL    HW1  652   1.376   1.932   2.198
  765SOL    HW2  653   1.499   1.985   2.292
  769SOL     OW  654   1.547   2.084   3.591
  769SOL    HW1  655   1.542   2.121   3.683
  769SOL    HW2  656   1.475   2.015   3.579
  770SOL     OW  657   0.614   1.984   1.979
  770SOL    HW1  658   0.712   1.962   1.986
  770SOL    HW2  659   0.583   1.967   1.886
  773SOL     OW  660   1.351   2.452   3.295
  773SOL    HW1  661   1.379   2.409   3.380
  773SOL    HW2  662   1.376   2.548   3.296
  775SOL     OW  663   0.922   2.365   2.761
  775SOL    HW1  664   0.897   2.356   2.665
  775SOL    HW2  665   0.970   2.283   2.792
  776SOL     OW  666   0.539   1.926   2.374
  776SOL    HW1  667   0.458   1.927   2.432
  776SOL    HW2  668   0.542   2.009   2.319
  777SOL     OW  669   1.434   3.050   1.903
  777SOL    HW1  670   1.466   2.974   1.960
  777SOL    HW2  671   1.342   3.077   1.933
  779SOL     OW  672   0.935   2.098   2.342
  779SOL    HW1  673   0.887   2.139   2.264
  779SOL    HW2  674   1.034   2.096   2.323
  780SOL     OW  675   1.076   2.545   3.326
  780SOL    HW1  676   0.996   2.484   3.329
  780SOL    HW2  677   1.157   2.492   3.302
  781SOL     OW  678   1.227   3.432   2.655
  781SOL    HW1  679   1.248   3.506   2.590
  781SOL    HW2  680   1.295   3.432   2.728
  783SOL     OW  681   1.271   3.659   2.453
  783SOL    HW1  682   1.315   3.723   2.389
  783SOL    HW2  683   1.221   3.711   2.523
  784SOL     OW  684   1.032   2.411   1.878
  784SOL    HW1  685   0.991   2.493   1.839
  784SOL    HW2  686   1.096   2.437   1.951
  787SOL     OW  687   0.866   2.316   2.504
  787SOL    HW1  688   0.834   2.388   2.442
  787SOL    HW2  689   0.890   2.235   2.451
  788SOL     OW  690   1.017   1.901   2.615
  788SOL    HW1  691   0.945   1.906   2.546
  788SOL    HW2  692   0.993   1.832   2.684
  789SOL     OW  693   1.429   3.035   2.729
  789SOL    HW1  694   1.374   2.951   2.722
  789SOL    HW2  695   1.455   3.064   2.637
  790SOL     OW  696   1.466   2.452   2.854
  790SOL    HW1  697   1.436   2.357   2.861
  790SOL    HW2  698   1.539   2.468   2.920
  791SOL     OW  699   1.857   2.695   2.239
  791SOL    HW1  700   1.899   2.631   2.303
  791SOL    HW2  701   1.819   2.644   2.161
  793SOL     OW  702   1.664   3.142   2.519
  793SOL    HW1  703   1.763   3.150   2.533
  793SOL    HW2  704   1.619   3.226   2.550
  794SOL     OW  705   1.390   2.437   1.940
  794SOL    HW1  706   1.336   2.416   2.021
  794SOL    HW2  707   1.481   2.396   1.949
  795SOL     OW  708   0.527   2.118   2.190
  795SOL    HW1  709   0.554   2.059   2.115
  795SOL    HW2  710   0.527   2.213   2.159
  796SOL     OW  711   1.754   3.085   3.450
  796SOL    HW1  712   1.845   3.046   3.437
  796SOL    HW2  713   1.762   3.181   3.474
  799SOL     OW  714   1.111   3.057   2.962
  799SOL    HW1  715   1.071   3.101   3.043
  799SOL    HW2  716   1.070   3.094   2.879
  800SOL     OW  717   1.638   2.961   2.941
  800SOL    HW1  718   1.643   3.042   3.000
  800SOL    HW2  719   1.552   2.963   2.890
  801SOL     OW  720   0.915   1.951   3.264
  801SOL    HW1  721   0.940   1.931   3.169
  801SOL    HW2  722   0.987   2.007   3.306
  803SOL     OW  723   0.705   2.912   2.230
  803SOL    HW1  724   0.691   2.919   2.329
  803SOL    HW2  725   0.789   2.861   2.212
  805SOL     OW  726   1.274   2.248   3.124
  805SOL    HW1  727   1.295   2.322   3.188
  805SOL    HW2  728   1.185   2.265   3.081
  808SOL     OW  729   0.566   2.399   2.727
  808SOL    HW1  730   0.578   2.465   2.653
  808SOL    HW2  731   0.612   2.433   2.810
  809SOL     OW  732   1.252   3.210   2.250
  809SOL    HW1  733   1.302   3.287   2.290
  809SOL    HW2  734   1.157   3.212   2.282
  810SOL     OW  735   1.272   3.307   3.004
  810SOL    HW1  736   1.319   3.320   3.091
  810SOL    HW2  737   1.206   3.233   3.013
  811SOL     OW  738   1.582   2.501   2.334
  811SOL    HW1  739   1.551   2.562   2.407
  811SOL    HW2  740   1.632   2.553   2.265
  814SOL     OW  741   1.587   2.641   3.532
  814SOL    HW1  742   1.495   2.679   3.527
  814SOL    HW2  743   1.647   2.688   3.467
  818SOL     OW  744   1.360   2.724   2.907
  818SOL    HW1  745   1.285   2.724   2.841
  818SOL    HW2  746   1.397   2.632   2.916
  819SOL     OW  747   1.209   2.387   2.137
  819SOL    HW1  748   1.222   2.303   2.191
  819SOL    HW2  749   1.180   2.461   2.197
  822SOL     OW  750   0.732   2.496   2.926
  822SOL    HW1  751   0.791   2.470   2.850
  822SOL    HW2  752   0.704   2.592   2.915
  823SOL     OW  753   1.728   2.797   3.716
  823SOL    HW1  754   1.682   2.790   3.627
  823SOL    HW2  755   1.666   2.841   3.782
  825SOL     OW  756   1.622   2.229   2.236
  825SOL    HW1  757   1.624   2.153   2.300
  825SOL    HW2  758   1.574   2.306   2.276
  826SOL     OW  759   1.023   2.628   2.828
  826SOL    HW1  760   1.038   2.649   2.924
  826SOL    HW2  761   0.993   2.533   2.819
  830SOL     OW  762   1.540   2.136   1.987
  830SOL    HW1  763   1.479   2.061   2.010
  830SOL    HW2  764   1.562   2.188   2.070
  831SOL     OW  765   1.303   2.700   1.904
  831SOL    HW1  766   1.337   2.607   1.919
  831SOL    HW2  767   1.321   2.727   1.809
  832SOL     OW  768   1.068   3.195   2.711
  832SOL    HW1  769   1.075   3.111   2.656
  832SOL    HW2  770   1.130   3.264   2.675
  835SOL     OW  771   1.138   2.242   3.540
  835SOL    HW1  772   1.093   2.305   3.604
  835SOL    HW2  773   1.231   2.273   3.523
  836SOL     OW  774   1.160   2.069   3.339
  836SOL    HW1  775   1.160   2.133   3.416
  836SOL    HW2  776   1.188   2.117   3.256
  840SOL     OW  777   1.002   2.658   3.100
  840SOL    HW1  778   1.043   2.626   3.186
  840SOL    HW2  779   0.906   2.631   3.097
  843SOL     OW  780   1.369   2.812   3.522
  843SOL    HW1  781   1.408   2.901   3.542
  843SOL    HW2  782   1.379   2.792   3.425
  844SOL     OW  783   0.815   2.434   2.187
  844SOL    HW1  784   0.822   2.345   2.141
  844SOL    HW2  785   0.721   2.468   2.179
  845SOL     OW  786   1.657   2.466   3.068
  845SOL    HW1  787   1.619   2.397   3.130
  845SOL    HW2  788   1.739   2.430   3.024
  847SOL     OW  789   0.671   2.326   3.131
  847SOL    HW1  790   0.637   2.237   3.101
  847SOL    HW2  791   0.697   2.380   3.051
  849SOL     OW  792   0.473   2.362   2.053
  849SOL    HW1  793   0.534   2.442   2.057
  849SOL    HW2  794   0.378   2.393   2.060
  851SOL     OW  795   1.347   2.921   3.096
  851SOL    HW1  796   1.371   2.858   3.022
  851SOL    HW2  797   1.257   2.961   3.078
  852SOL     OW  798   1.302   2.717   2.171
  852SOL    HW1  799   1.216   2.686   2.213
  852SOL    HW2  800   1.298   2.703   2.072
  853SOL     OW  801   1.759   3.609   3.016
  853SOL    HW1  802   1.820   3.639   2.943
  853SOL    HW2  803   1.721   3.520   2.994
  857SOL     OW  804   1.726   1.997   2.385
  857SOL    HW1  805   1.799   1.980   2.318
  857SOL    HW2  806   1.695   1.910   2.423
  858SOL     OW  807   1.388   3.435   2.339
  858SOL    HW1  808   1.455   3.447   2.265
  858SOL    HW2  809   1.348   3.524   2.362
  860SOL     OW  810   1.280   2.789   2.534
  860SOL    HW1  811   1.340   2.708   2.536
  860SOL    HW2  812   1.320   2.858   2.474
  864SOL     OW  813   1.841   2.037   2.825
  864SOL    HW1  814   1.880   1.952   2.789
  864SOL    HW2  815   1.743   2.039   2.806
  866SOL     OW  816   1.194   3.474   1.893
  866SOL    HW1  817   1.200   3.381   1.930
  866SOL    HW2  818   1.135   3.474   1.813
  868SOL     OW  819   0.916   2.772   2.153
  868SOL    HW1  820   0.979   2.810   2.085
  868SOL    HW2  821   0.956   2.689   2.192
  869SOL     OW  822   1.504   3.469   1.906
  869SOL    HW1  823   1.412   3.506   1.913
  869SOL    HW2  824   1.542   3.489   1.816
  871SOL     OW  825   1.614   3.154   3.151
  871SOL    HW1  826   1.674   3.157   3.231
  871SOL    HW2  827   1.539   3.218   3.164
  872SOL     OW  828   1.039   2.960   2.558
  872SOL    HW1  829   0.969   2.913   2.612
  872SOL    HW2  830   1.098   2.892   2.515
  873SOL     OW  831   1.014   2.098   2.833
  873SOL    HW1  832   1.006   2.062   2.740
  873SOL    HW2  833   1.012   2.022   2.898
  875SOL     OW  834   1.709   2.247   3.243
  875SOL    HW1  835   1.782   2.316   3.247
  875SOL    HW2  836   1.737   2.172   3.184
  880SOL     OW  837   1.440   2.718   3.260
  880SOL    HW1  838   1.383   2.770   3.197
  880SOL    HW2  839   1.536   2.730   3.236
  882SOL     OW  840   1.183   3.197   1.981
  882SOL    HW1  841   1.084   3.186   1.983
  882SOL    HW2  842   1.217   3.212   2.074
  884SOL     OW  843   1.493   3.629   2.821
  884SOL    HW1  844   1.526   3.693   2.752
  884SOL    HW2  845   1.559   3.623   2.896
  886SOL     OW  846   1.450   3.082   3.495
  886SOL    HW1  847   1.441   3.072   3.594
  886SOL    HW2  848   1.546   3.075   3.469
  888SOL     OW  849   1.674   2.745   3.116
  888SOL    HW1  850   1.647   2.656   3.079
  888SOL    HW2  851   1.675   2.813   3.043
  889SOL     OW  852   1.225   2.187   2.311
  889SOL    HW1  853   1.290   2.113   2.300
  889SOL    HW2  854   1.245   2.237   2.395
  890SOL     OW  855   0.594   2.607   2.514
  890SOL    HW1  856   0.644   2.692   2.495
  890SOL    HW2  857   0.506   2.609   2.466
  891SOL     OW  858   1.777   2.204   3.504
  891SOL    HW1  859   1.760   2.235   3.410
  891SOL    HW2  860   1.693   2.167   3.542
  892SOL     OW  861   1.730   2.796   3.379
  892SOL    HW1  862   1.768   2.887   3.394
  892SOL    HW2  863   1.722   2.779   3.280
  893SOL     OW  864   0.859   3.236   1.878
  893SOL    HW1  865   0.813   3.251   1.966
  893SOL    HW2  866   0.903   3.321   1.848
  895SOL     OW  867   0.859   2.818   2.723
  895SOL    HW1  868   0.913   2.749   2.771
  895SOL    HW2  869   0.827   2.887   2.789
  896SOL     OW  870   1.083   2.846   1.949
  896SOL    HW1  871   1.060   2.899   1.867
  896SOL    HW2  872   1.164   2.790   1.930
  897SOL     OW  873   1.861   3.431   2.713
  897SOL    HW1  874   1.790   3.419   2.643
  897SOL    HW2  875   1.862   3.352   2.773
  901SOL     OW  876   1.824   2.054   3.089
  901SOL    HW1  877   1.820   1.964   3.133
  901SOL    HW2  878   1.827   2.043   2.990
  902SOL     OW  879   0.428   2.286   2.382
  902SOL    HW1  880   0.458   2.214   2.320
  902SOL    HW2  881   0.389   2.246   2.465
  903SOL     OW  882   1.705   3.349   2.966
  903SOL    HW1  883   1.612   3.324   2.939
  903SOL    HW2  884   1.731   3.299   3.048
  906SOL     OW  885   1.424   2.076   2.974
  906SOL    HW1  886   1.476   2.011   3.029
  906SOL    HW2  887   1.375   2.139   3.035
  907SOL     OW  888   1.001   1.896   3.016
  907SOL    HW1  889   0.938   1.824   2.985
  907SOL    HW2  890   1.094   1.860   3.016
  908SOL     OW  891   0.770   3.192   2.163
  908SOL    HW1  892   0.724   3.105   2.180
  908SOL    HW2  893   0.861   3.189   2.204
  910SOL     OW  894   1.352   1.914   2.030
  910SOL    HW1  895   1.387   1.873   1.946
  910SOL    HW2  896   1.262   1.876   2.050
  911SOL     OW  897   1.300   2.315   2.553
  911SOL    HW1  898   1.241   2.395   2.557
  911SOL    HW2  899   1.315   2.280   2.646
  912SOL     OW  900   1.593   2.083   2.744
  912SOL    HW1  901   1.509   2.082   2.798
  912SOL    HW2  902   1.595   2.166   2.688
  952SOL     OW  903   1.540   2.136   3.849
  952SOL    HW1  904   1.479   2.061   3.872
  952SOL    HW2  905   1.562   2.188   3.932
 1094SOL     OW  906   1.726   3.859   2.385
 1094SOL    HW1  907   1.799   3.842   2.318
 1094SOL    HW2  908   1.695   3.772   2.423
 1135SOL     OW  909   2.431   1.275   1.165
 1135SOL    HW1  910   2.338   1.268   1.128
 1135SOL    HW2  911   2.442   1.364   1.209
 1139SOL     OW  912   2.630   1.144   1.023
 1139SOL    HW1  913   2.552   1.161   1.083
 1139SOL    HW2  914   2.664   1.231   0.987
 1140SOL     OW  915   2.712   0.798   1.823
 1140SOL    HW1  916   2.708   0.874   1.888
 1140SOL    HW2  917   2.734   0.834   1.732
 1142SOL     OW  918   2.548   1.161   1.803
 1142SOL    HW1  919   2.608   1.240   1.817
 1142SOL    HW2  920   2.462   1.192   1.762
 1143SOL     OW  921   2.197   1.435   1.061
 1143SOL    HW1  922   2.119   1.404   1.008
 1143SOL    HW2  923   2.255   1.493   1.004
 1144SOL     OW  924   3.322   1.505   1.339
 1144SOL    HW1  925   3.346   1.599   1.365
 1144SOL    HW2  926   3.306   1.451   1.421
 1147SOL     OW  927   2.093   1.713   0.483
 1147SOL    HW1  928   2.127   1.790   0.537
 1147SOL    HW2  929   2.137   1.713   0.393
 1148SOL     OW  930   2.989   1.341   1.690
 1148SOL    HW1  931   3.036   1.341   1.778
 1148SOL    HW2  932   2.941   1.254   1.679
 1149SOL     OW  933   2.092   1.434   0.538
 1149SOL    HW1  934   2.066   1.530   0.538
 1149SOL    HW2  935   2.021   1.380   0.583
 1150SOL     OW  936   2.102   1.091   0.886
 1150SOL    HW1  937   2.116   1.007   0.938
 1150SOL    HW2  938   2.047   1.155   0.941
 1151SOL     OW  939   2.482   1.786   1.439
 1151SOL    HW1  940   2.390   1.769   1.474
 1151SOL    HW2  941   2.510   1.878   1.465
 1159SOL     OW  942   1.975   0.737   1.597
 1159SOL    HW1  943   2.063   0.724   1.642
 1159SOL    HW2  944   1.962   0.834   1.575
 1160SOL     OW  945   2.475   1.365   0.726
 1160SOL    HW1  946   2.426   1.278   0.735
 1160SOL    HW2  947   2.452   1.408   0.639
 1161SOL     OW  948   3.155   1.228   1.423
 1161SOL    HW1  949   3.192   1.155   1.365
 1161SOL    HW2  950   3.207   1.233   1.508
 1163SOL     OW  951   2.059   0.976   1.264
 1163SOL    HW1  952   2.148   0.931   1.250
 1163SOL    HW2  953   1.986   0.911   1.245
 1165SOL     OW  954   3.049   1.792   1.616
 1165SOL    HW1  955   3.073   1.852   1.540
 1165SOL    HW2  956   3.056   1.697   1.586
 1172SOL     OW  957   2.669   0.605   1.465
 1172SOL    HW1  958   2.622   0.602   1.554
 1172SOL    HW2  959   2.618   0.550   1.399
 1174SOL     OW  960   2.835   0.890   1.572
 1174SOL    HW1  961   2.881   0.806   1.543
 1174SOL    HW2  962   2.779   0.924   1.497
 1178SOL     OW  963   1.992   1.821   1.571
 1178SOL    HW1  964   1.982   1.806   1.670
 1178SOL    HW2  965   1.906   1.857   1.535
 1184SOL     OW  966   2.213   1.801   0.853
 1184SOL    HW1  967   2.263   1.715   0.859
 1184SOL    HW2  968   2.278   1.878   0.850
 1186SOL     OW  969   3.089   1.550   1.506
 1186SOL    HW1  970   3.095   1.473   1.570
 1186SOL    HW2  971   3.037   1.524   1.426
 1189SOL     OW  972   2.323   1.266   1.727
 1189SOL    HW1  973   2.273   1.267   1.641
 1189SOL    HW2  974   2.260   1.248   1.803
 1195SOL     OW  975   2.111   1.785   1.241
 1195SOL    HW1  976   2.168   1.720   1.291
 1195SOL    HW2  977   2.095   1.752   1.148
 1196SOL     OW  978   2.802   1.698   0.904
 1196SOL    HW1  979   2.882   1.641   0.925
 1196SOL    HW2  980   2.753   1.658   0.827
 1201SOL     OW  981   2.750   1.514   1.195
 1201SOL    HW1  982   2.727   1.489   1.101
 1201SOL    HW2  983   2.811   1.445   1.234
 1203SOL     OW  984   2.665   1.402   0.924
 1203SOL    HW1  985   2.755   1.416   0.882
 1203SOL    HW2  986   2.594   1.404   0.853
 1210SOL     OW  987   3.089   1.570   0.793
 1210SOL    HW1  988   3.110   1.644   0.728
 1210SOL    HW2  989   3.157   1.570   0.866
 1211SOL     OW  990   2.321   1.152   0.741
 1211SOL    HW1  991   2.250   1.125   0.806
 1211SOL    HW2  992   2.295   1.124   0.648
 1226SOL     OW  993   2.926   1.347   1.340
 1226SOL    HW1  994   2.846   1.324   1.395
 1226SOL    HW2  995   3.009   1.321   1.389
 1227SOL     OW  996   3.454   1.629   1.625
 1227SOL    HW1  997   3.481   1.663   1.535
 1227SOL    HW2  998   3.533   1.591   1.671
 1228SOL     OW  999   2.973   1.195   1.100
 1228SOL    HW1 1000   2.933   1.239   1.181
 1228SOL    HW2 1001   2.932   1.232   1.017
 1231SOL     OW 1002   2.842   1.116   1.719
 1231SOL    HW1 1003   2.743   1.122   1.729
 1231SOL    HW2 1004   2.865   1.036   1.663
 1233SOL     OW 1005   2.272   0.813   1.251
 1233SOL    HW1 1006   2.358   0.825   1.301
 1233SOL    HW2 1007   2.230   0.726   1.278
 1235SOL     OW 1008   1.926   1.564   1.331
 1235SOL    HW1 1009   1.880   1.646   1.297
 1235SOL    HW2 1010   2.024   1.583   1.340
 1239SOL     OW 1011   3.134   1.445   1.142
 1239SOL    HW1 1012   3.181   1.458   1.229
 1239SOL    HW2 1013   3.068   1.371   1.151
 1241SOL     OW 1014   2.216   1.510   1.329
 1241SOL    HW1 1015   2.195   1.466   1.242
 1241SOL    HW2 1016   2.313   1.536   1.332
 1242SOL     OW 1017   2.264   0.751   1.598
 1242SOL    HW1 1018   2.332   0.806   1.551
 1242SOL    HW2 1019   2.304   0.663   1.625
 1246SOL     OW 1020   2.435   0.870   1.029
 1246SOL    HW1 1021   2.479   0.959   1.020
 1246SOL    HW2 1022   2.372   0.870   1.106
 1250SOL     OW 1023   1.899   1.310   1.282
 1250SOL    HW1 1024   1.952   1.261   1.350
 1250SOL    HW2 1025   1.921   1.408   1.287
 1256SOL     OW 1026   2.842   1.573   1.700
 1256SOL    HW1 1027   2.822   1.617   1.612
 1256SOL    HW2 1028   2.881   1.482   1.684
 1257SOL     OW 1029   3.721   1.518   1.605
 1257SOL    HW1 1030   3.735   1.545   1.510
 1257SOL    HW2 1031   3.804   1.540   1.658
 1258SOL     OW 1032   2.212   0.898   1.804
 1258SOL    HW1 1033   2.288   0.942   1.852
 1258SOL    HW2 1034   2.247   0.851   1.722
 1261SOL     OW 1035   2.930   1.333   0.849
 1261SOL    HW1 1036   2.937   1.249   0.794
 1261SOL    HW2 1037   2.992   1.402   0.813
 1267SOL     OW 1038   1.950   1.801   0.927
 1267SOL    HW1 1039   1.908   1.715   0.900
 1267SOL    HW2 1040   2.044   1.804   0.893
 1268SOL     OW 1041   2.366   1.568   0.910
 1268SOL    HW1 1042   2.432   1.642   0.919
 1268SOL    HW2 1043   2.410   1.489   0.868
 1269SOL     OW 1044   2.864   0.796   1.238
 1269SOL    HW1 1045   2.905   0.764   1.324
 1269SOL    HW2 1046   2.768   0.769   1.235
 1271SOL     OW 1047   2.051   0.520   1.722
 1271SOL    HW1 1048   2.110   0.480   1.652
 1271SOL    HW2 1049   1.993   0.591   1.681
 1272SOL     OW 1050   3.231   0.950   1.660
 1272SOL    HW1 1051   3.270   1.039   1.680
 1272SOL    HW2 1052   3.241   0.930   1.563
 1275SOL     OW 1053   2.114   1.564   1.744
 1275SOL    HW1 1054   2.084   1.621   1.820
 1275SOL    HW2 1055   2.107   1.467   1.770
 1277SOL     OW 1056   2.792   1.678   1.465
 1277SOL    HW1 1057   2.768   1.660   1.370
 1277SOL    HW2 1058   2.822   1.772   1.475
 1279SOL     OW 1059   2.021   1.137   1.466
 1279SOL    HW1 1060   2.043   1.076   1.542
 1279SOL    HW2 1061   2.031   1.088   1.380
 1280SOL     OW 1062   3.209   1.059   1.234
 1280SOL    HW1 1063   3.233   0.996   1.160
 1280SOL    HW2 1064   3.119   1.099   1.216
 1283SOL     OW 1065   3.114   1.731   1.128
 1283SOL    HW1 1066   3.198   1.736   1.074
 1283SOL    HW2 1067   3.091   1.635   1.146
 1284SOL     OW 1068   1.945   1.258   1.022
 1284SOL    HW1 1069   1.940   1.257   1.122
 1284SOL    HW2 1070   1.862   1.217   0.984
 1285SOL     OW 1071   2.550   1.662   1.716
 1285SOL    HW1 1072   2.494   1.743   1.725
 1285SOL    HW2 1073   2.602   1.666   1.630
 1289SOL     OW 1074   1.992   1.794   1.851
 1289SOL    HW1 1075   1.951   1.720   1.904
 1289SOL    HW2 1076   2.056   1.845   1.909
 1291SOL     OW 1077   2.692   1.273   1.422
 1291SOL    HW1 1078   2.687   1.306   1.517
 1291SOL    HW2 1079   2.606   1.292   1.376
 1293SOL     OW 1080   3.512   1.720   1.394
 1293SOL    HW1 1081   3.565   1.730   1.310
 1293SOL    HW2 1082   3.485   1.810   1.428
 1297SOL     OW 1083   2.684   1.002   1.372
 1297SOL    HW1 1084   2.724   1.001   1.280
 1297SOL    HW2 1085   2.694   1.094   1.412
 1300SOL     OW 1086   2.234   1.288   1.490
 1300SOL    HW1 1087   2.221   1.381   1.456
 1300SOL    HW2 1088   2.150   1.236   1.477
 1307SOL     OW 1089   1.967   1.013   1.726
 1307SOL    HW1 1090   1.890   0.980   1.780
 1307SOL    HW2 1091   2.052   0.983   1.768
 1313SOL     OW 1092   2.475   0.842   1.431
 1313SOL    HW1 1093   2.531   0.923   1.414
 1313SOL    HW2 1094   2.534   0.762   1.434
 1314SOL     OW 1095   3.355   1.767   0.959
 1314SOL    HW1 1096   3.388   1.831   0.890
 1314SOL    HW2 1097   3.421   1.761   1.034
 1315SOL     OW 1098   2.578   0.565   1.708
 1315SOL    HW1 1099   2.597   0.630   1.782
 1315SOL    HW2 1100   2.638   0.485   1.717
 1316SOL     OW 1101   3.312   1.220   1.633
 1316SOL    HW1 1102   3.303   1.210   1.732
 1316SOL    HW2 1103   3.408   1.213   1.607
 1317SOL     OW 1104   2.252   1.741   1.560
 1317SOL    HW1 1105   2.161   1.782   1.558
 1317SOL    HW2 1106   2.245   1.647   1.592
 1324SOL     OW 1107   2.523   1.790   0.953
 1324SOL    HW1 1108   2.477   1.878   0.940
 1324SOL    HW2 1109   2.622   1.802   0.946
 1328SOL     OW 1110   2.083   1.314   1.844
 1328SOL    HW1 1111   2.018   1.241   1.823
 1328SOL    HW2 1112   2.087   1.328   1.942
 1329SOL     OW 1113   1.941   1.240   0.653
 1329SOL    HW1 1114   1.940   1.193   0.741
 1329SOL    HW2 1115   2.023   1.212   0.602
 1330SOL     OW 1116   2.534   1.391   1.624
 1330SOL    HW1 1117   2.456   1.341   1.662
 1330SOL    HW2 1118   2.531   1.486   1.655
 1335SOL     OW 1119   2.674   1.586   0.687
 1335SOL    HW1 1120   2.706   1.596   0.593
 1335SOL    HW2 1121   2.595   1.524   0.689
 1339SOL     OW 1122   2.480   1.567   1.284
 1339SOL    HW1 1123   2.475   1.649   1.341
 1339SOL    HW2 1124   2.569   1.564   1.239
 1345SOL     OW 1125   2.092   0.628   1.975
 1345SOL    HW1 1126   1.999   0.626   2.012
 1345SOL    HW2 1127   2.093   0.589   1.883
 1348SOL     OW 1128   2.431   1.275   3.027
 1348SOL    HW1 1129   2.338   1.268   2.990
 1348SOL    HW2 1130   2.442   1.364   3.071
 1349SOL     OW 1131   3.417   1.511   2.565
 1349SOL    HW1 1132   3.360   1.495   2.646
 1349SOL    HW2 1133   3.358   1.521   2.485
 1350SOL     OW 1134   2.997   0.703   2.579
 1350SOL    HW1 1135   3.054   0.781   2.554
 1350SOL    HW2 1136   2.937   0.729   2.655
 1352SOL     OW 1137   2.630   1.144   2.885
 1352SOL    HW1 1138   2.552   1.161   2.945
 1352SOL    HW2 1139   2.664   1.231   2.849
 1354SOL     OW 1140   2.547   1.012   2.527
 1354SOL    HW1 1141   2.616   0.996   2.597
 1354SOL    HW2 1142   2.474   1.069   2.565
 1356SOL     OW 1143   2.197   1.435   2.923
 1356SOL    HW1 1144   2.119   1.404   2.870
 1356SOL    HW2 1145   2.255   1.493   2.866
 1357SOL     OW 1146   3.322   1.505   3.201
 1357SOL    HW1 1147   3.346   1.599   3.227
 1357SOL    HW2 1148   3.306   1.451   3.283
 1360SOL     OW 1149   2.093   1.713   2.345
 1360SOL    HW1 1150   2.127   1.790   2.399
 1360SOL    HW2 1151   2.137   1.713   2.255
 1362SOL     OW 1152   2.092   1.434   2.400
 1362SOL    HW1 1153   2.066   1.530   2.400
 1362SOL    HW2 1154   2.021   1.380   2.445
 1363SOL     OW 1155   2.102   1.091   2.748
 1363SOL    HW1 1156   2.116   1.007   2.800
 1363SOL    HW2 1157   2.047   1.155   2.803
 1364SOL     OW 1158   2.482   1.786   3.301
 1364SOL    HW1 1159   2.390   1.769   3.336
 1364SOL    HW2 1160   2.510   1.878   3.327
 1365SOL     OW 1161   2.468   0.964   1.985
 1365SOL    HW1 1162   2.475   1.048   1.931
 1365SOL    HW2 1163   2.514   0.977   2.073
 1367SOL     OW 1164   1.984   0.643   2.425
 1367SOL    HW1 1165   1.939   0.555   2.442
 1367SOL    HW2 1166   1.983   0.697   2.509
 1368SOL     OW 1167   3.704   1.767   2.221
 1368SOL    HW1 1168   3.758   1.738   2.301
 1368SOL    HW2 1169   3.734   1.857   2.192
 1369SOL     OW 1170   1.889   1.596   1.979
 1369SOL    HW1 1171   1.870   1.500   2.000
 1369SOL    HW2 1172   1.856   1.654   2.054
 1371SOL     OW 1173   3.503   1.108   2.294
 1371SOL    HW1 1174   3.589   1.110   2.242
 1371SOL    HW2 1175   3.517   1.155   2.382
 1373SOL     OW 1176   2.475   1.365   2.588
 1373SOL    HW1 1177   2.426   1.278   2.597
 1373SOL    HW2 1178   2.452   1.408   2.501
 1374SOL     OW 1179   3.155   1.228   3.285
 1374SOL    HW1 1180   3.192   1.155   3.227
 1374SOL    HW2 1181   3.207   1.233   3.370
 1376SOL     OW 1182   2.059   0.976   3.126
 1376SOL    HW1 1183   2.148   0.931   3.112
 1376SOL    HW2 1184   1.986   0.911   3.107
 1377SOL     OW 1185   3.387   0.999   2.052
 1377SOL    HW1 1186   3.324   0.923   2.065
 1377SOL    HW2 1187   3.435   1.017   2.138
 1378SOL     OW 1188   3.049   1.792   3.478
 1378SOL    HW1 1189   3.073   1.852   3.402
 1378SOL    HW2 1190   3.056   1.697   3.448
 1380SOL     OW 1191   3.328   1.417   2.815
 1380SOL    HW1 1192   3.269   1.423   2.895
 1380SOL    HW2 1193   3.313   1.329   2.769
 1381SOL     OW 1194   3.529   1.714   2.434
 1381SOL    HW1 1195   3.488   1.691   2.346
 1381SOL    HW2 1196   3.511   1.640   2.499
 1382SOL     OW 1197   2.460   0.729   2.132
 1382SOL    HW1 1198   2.484   0.798   2.064
 1382SOL    HW2 1199   2.382   0.762   2.186
 1384SOL     OW 1200   3.438   1.662   2.169
 1384SOL    HW1 1201   3.527   1.708   2.172
 1384SOL    HW2 1202   3.417   1.638   2.074
 1389SOL     OW 1203   2.903   0.701   2.291
 1389SOL    HW1 1204   2.929   0.697   2.387
 1389SOL    HW2 1205   2.818   0.650   2.277
 1390SOL     OW 1206   1.938   0.811   2.651
 1390SOL    HW1 1207   2.037   0.799   2.660
 1390SOL    HW2 1208   1.914   0.906   2.672
 1391SOL     OW 1209   1.992   1.821   3.433
 1391SOL    HW1 1210   1.982   1.806   3.532
 1391SOL    HW2 1211   1.906   1.857   3.397
 1394SOL     OW 1212   3.224   1.144   2.407
 1394SOL    HW1 1213   3.307   1.115   2.359
 1394SOL    HW2 1214   3.175   1.211   2.351
 1396SOL     OW 1215   2.870   1.456   2.339
 1396SOL    HW1 1216   2.824   1.528   2.287
 1396SOL    HW2 1217   2.866   1.476   2.437
 1397SOL     OW 1218   2.213   1.801   2.715
 1397SOL    HW1 1219   2.263   1.715   2.721
 1397SOL    HW2 1220   2.278   1.878   2.712
 1399SOL     OW 1221   3.089   1.550   3.368
 1399SOL    HW1 1222   3.095   1.473   3.432
 1399SOL    HW2 1223   3.037   1.524   3.288
 1400SOL     OW 1224   2.183   0.943   2.104
 1400SOL    HW1 1225   2.265   0.982   2.062
 1400SOL    HW2 1226   2.156   0.861   2.055
 1402SOL     OW 1227   2.323   1.266   3.589
 1402SOL    HW1 1228   2.273   1.267   3.503
 1402SOL    HW2 1229   2.260   1.248   3.665
 1403SOL     OW 1230   2.973   1.776   2.099
 1403SOL    HW1 1231   2.913   1.714   2.149
 1403SOL    HW2 1232   3.004   1.732   2.014
 1405SOL     OW 1233   3.494   1.377   1.943
 1405SOL    HW1 1234   3.462   1.471   1.933
 1405SOL    HW2 1235   3.418   1.314   1.931
 1406SOL     OW 1236   2.326   1.743   2.185
 1406SOL    HW1 1237   2.359   1.782   2.271
 1406SOL    HW2 1238   2.402   1.736   2.120
 1408SOL     OW 1239   2.111   1.785   3.103
 1408SOL    HW1 1240   2.168   1.720   3.153
 1408SOL    HW2 1241   2.095   1.752   3.010
 1409SOL     OW 1242   2.802   1.698   2.766
 1409SOL    HW1 1243   2.882   1.641   2.787
 1409SOL    HW2 1244   2.753   1.658   2.689
 1410SOL     OW 1245   2.244   0.700   2.342
 1410SOL    HW1 1246   2.289   0.610   2.339
 1410SOL    HW2 1247   2.150   0.689   2.375
 1414SOL     OW 1248   2.750   1.514   3.057
 1414SOL    HW1 1249   2.727   1.489   2.963
 1414SOL    HW2 1250   2.811   1.445   3.096
 1416SOL     OW 1251   2.665   1.402   2.786
 1416SOL    HW1 1252   2.755   1.416   2.744
 1416SOL    HW2 1253   2.594   1.404   2.715
 1419SOL     OW 1254   3.296   1.188   1.903
 1419SOL    HW1 1255   3.328   1.112   1.960
 1419SOL    HW2 1256   3.204   1.215   1.933
 1423SOL     OW 1257   3.089   1.570   2.655
 1423SOL    HW1 1258   3.110   1.644   2.590
 1423SOL    HW2 1259   3.157   1.570   2.728
 1424SOL     OW 1260   2.321   1.152   2.603
 1424SOL    HW1 1261   2.250   1.125   2.668
 1424SOL    HW2 1262   2.295   1.124   2.510
 1425SOL     OW 1263   3.133   1.797   2.453
 1425SOL    HW1 1264   3.177   1.861   2.389
 1425SOL    HW2 1265   3.083   1.849   2.523
 1426SOL     OW 1266   2.894   0.549   1.878
 1426SOL    HW1 1267   2.853   0.631   1.839
 1426SOL    HW2 1268   2.958   0.575   1.951
 1431SOL     OW 1269   3.291   1.173   2.729
 1431SOL    HW1 1270   3.236   1.089   2.722
 1431SOL    HW2 1271   3.317   1.202   2.637
 1434SOL     OW 1272   2.350   1.385   2.036
 1434SOL    HW1 1273   2.263   1.370   2.083
 1434SOL    HW2 1274   2.333   1.411   1.941
 1435SOL     OW 1275   3.526   1.280   2.519
 1435SOL    HW1 1276   3.625   1.288   2.533
 1435SOL    HW2 1277   3.481   1.364   2.550
 1439SOL     OW 1278   2.926   1.347   3.202
 1439SOL    HW1 1279   2.846   1.324   3.257
 1439SOL    HW2 1280   3.009   1.321   3.251
 1441SOL     OW 1281   2.973   1.195   2.962
 1441SOL    HW1 1282   2.933   1.239   3.043
 1441SOL    HW2 1283   2.932   1.232   2.879
 1445SOL     OW 1284   2.567   1.050   2.230
 1445SOL    HW1 1285   2.553   1.057   2.329
 1445SOL    HW2 1286   2.651   0.999   2.212
 1446SOL     OW 1287   2.272   0.813   3.113
 1446SOL    HW1 1288   2.358   0.825   3.163
 1446SOL    HW2 1289   2.230   0.726   3.140
 1448SOL     OW 1290   1.926   1.564   3.193
 1448SOL    HW1 1291   1.880   1.646   3.159
 1448SOL    HW2 1292   2.024   1.583   3.202
 1449SOL     OW 1293   2.229   1.100   2.363
 1449SOL    HW1 1294   2.222   1.183   2.307
 1449SOL    HW2 1295   2.233   1.020   2.303
 1450SOL     OW 1296   2.428   0.537   2.727
 1450SOL    HW1 1297   2.440   0.603   2.653
 1450SOL    HW2 1298   2.474   0.571   2.810
 1451SOL     OW 1299   3.114   1.348   2.250
 1451SOL    HW1 1300   3.164   1.425   2.290
 1451SOL    HW2 1301   3.019   1.350   2.282
 1452SOL     OW 1302   3.134   1.445   3.004
 1452SOL    HW1 1303   3.181   1.458   3.091
 1452SOL    HW2 1304   3.068   1.371   3.013
 1454SOL     OW 1305   2.216   1.510   3.191
 1454SOL    HW1 1306   2.195   1.466   3.104
 1454SOL    HW2 1307   2.313   1.536   3.194
 1459SOL     OW 1308   2.435   0.870   2.891
 1459SOL    HW1 1309   2.479   0.959   2.882
 1459SOL    HW2 1310   2.372   0.870   2.968
 1463SOL     OW 1311   1.899   1.310   3.144
 1463SOL    HW1 1312   1.952   1.261   3.212
 1463SOL    HW2 1313   1.921   1.408   3.149
 1464SOL     OW 1314   2.594   0.634   2.926
 1464SOL    HW1 1315   2.653   0.608   2.850
 1464SOL    HW2 1316   2.566   0.730   2.915
 1468SOL     OW 1317   2.885   0.766   2.828
 1468SOL    HW1 1318   2.900   0.787   2.924
 1468SOL    HW2 1319   2.855   0.671   2.819
 1469SOL     OW 1320   2.842   1.573   3.562
 1469SOL    HW1 1321   2.822   1.617   3.474
 1469SOL    HW2 1322   2.881   1.482   3.546
 1473SOL     OW 1323   3.165   0.838   1.904
 1473SOL    HW1 1324   3.199   0.745   1.919
 1473SOL    HW2 1325   3.183   0.865   1.809
 1474SOL     OW 1326   2.930   1.333   2.711
 1474SOL    HW1 1327   2.937   1.249   2.656
 1474SOL    HW2 1328   2.992   1.402   2.675
 1475SOL     OW 1329   2.181   0.810   2.811
 1475SOL    HW1 1330   2.274   0.846   2.816
 1475SOL    HW2 1331   2.175   0.725   2.863
 1476SOL     OW 1332   2.201   0.509   2.868
 1476SOL    HW1 1333   2.149   0.426   2.851
 1476SOL    HW2 1334   2.278   0.514   2.804
 1479SOL     OW 1335   1.870   1.326   2.062
 1479SOL    HW1 1336   1.777   1.347   2.031
 1479SOL    HW2 1337   1.880   1.227   2.075
 1480SOL     OW 1338   1.950   1.801   2.789
 1480SOL    HW1 1339   1.908   1.715   2.762
 1480SOL    HW2 1340   2.044   1.804   2.755
 1481SOL     OW 1341   2.366   1.568   2.772
 1481SOL    HW1 1342   2.432   1.642   2.781
 1481SOL    HW2 1343   2.410   1.489   2.730
 1482SOL     OW 1344   2.864   0.796   3.100
 1482SOL    HW1 1345   2.905   0.764   3.186
 1482SOL    HW2 1346   2.768   0.769   3.097
 1486SOL     OW 1347   2.677   0.572   2.187
 1486SOL    HW1 1348   2.684   0.483   2.141
 1486SOL    HW2 1349   2.583   0.606   2.179
 1488SOL     OW 1350   2.114   1.564   3.606
 1488SOL    HW1 1351   2.084   1.621   3.682
 1488SOL    HW2 1352   2.107   1.467   3.632
 1490SOL     OW 1353   2.792   1.678   3.327
 1490SOL    HW1 1354   2.768   1.660   3.232
 1490SOL    HW2 1355   2.822   1.772   3.337
 1491SOL     OW 1356   2.335   0.500   2.053
 1491SOL    HW1 1357   2.396   0.580   2.057
 1491SOL    HW2 1358   2.240   0.531   2.060
 1492SOL     OW 1359   2.021   1.137   3.328
 1492SOL    HW1 1360   2.043   1.076   3.404
 1492SOL    HW2 1361   2.031   1.088   3.242
 1493SOL     OW 1362   3.209   1.059   3.096
 1493SOL    HW1 1363   3.233   0.996   3.022
 1493SOL    HW2 1364   3.119   1.099   3.078
 1494SOL     OW 1365   3.164   0.855   2.171
 1494SOL    HW1 1366   3.078   0.824   2.213
 1494SOL    HW2 1367   3.160   0.841   2.072
 1495SOL     OW 1368   3.621   1.747   3.016
 1495SOL    HW1 1369   3.682   1.777   2.943
 1495SOL    HW2 1370   3.583   1.658   2.994
 1496SOL     OW 1371   3.114   1.731   2.990
 1496SOL    HW1 1372   3.198   1.736   2.936
 1496SOL    HW2 1373   3.091   1.635   3.008
 1497SOL     OW 1374   1.945   1.258   2.884
 1497SOL    HW1 1375   1.940   1.257   2.984
 1497SOL    HW2 1376   1.862   1.217   2.846
 1498SOL     OW 1377   2.550   1.662   3.578
 1498SOL    HW1 1378   2.494   1.743   3.587
 1498SOL    HW2 1379   2.602   1.666   3.492
 1500SOL     OW 1380   3.250   1.573   2.339
 1500SOL    HW1 1381   3.317   1.585   2.265
 1500SOL    HW2 1382   3.210   1.662   2.362
 1501SOL     OW 1383   1.992   1.794   3.713
 1501SOL    HW1 1384   1.951   1.720   3.766
 1501SOL    HW2 1385   2.056   1.845   3.771
 1502SOL     OW 1386   3.142   0.927   2.534
 1502SOL    HW1 1387   3.202   0.846   2.536
 1502SOL    HW2 1388   3.182   0.996   2.474
 1503SOL     OW 1389   2.692   1.273   3.284
 1503SOL    HW1 1390   2.687   1.306   3.379
 1503SOL    HW2 1391   2.606   1.292   3.238
 1504SOL     OW 1392   2.534   1.616   2.016
 1504SOL    HW1 1393   2.543   1.626   1.917
 1504SOL    HW2 1394   2.494   1.527   2.037
 1505SOL     OW 1395   3.512   1.720   3.256
 1505SOL    HW1 1396   3.565   1.730   3.172
 1505SOL    HW2 1397   3.485   1.810   3.290
 1508SOL     OW 1398   3.056   1.612   1.893
 1508SOL    HW1 1399   3.062   1.519   1.930
 1508SOL    HW2 1400   2.997   1.612   1.813
 1509SOL     OW 1401   2.684   1.002   3.234
 1509SOL    HW1 1402   2.724   1.001   3.142
 1509SOL    HW2 1403   2.694   1.094   3.274
 1510SOL     OW 1404   2.778   0.910   2.153
 1510SOL    HW1 1405   2.841   0.948   2.085
 1510SOL    HW2 1406   2.818   0.827   2.192
 1511SOL     OW 1407   3.366   1.607   1.906
 1511SOL    HW1 1408   3.274   1.644   1.913
 1511SOL    HW2 1409   3.404   1.627   1.816
 1512SOL     OW 1410   2.234   1.288   3.352
 1512SOL    HW1 1411   2.221   1.381   3.318
 1512SOL    HW2 1412   2.150   1.236   3.339
 1514SOL     OW 1413   2.901   1.098   2.558
 1514SOL    HW1 1414   2.831   1.051   2.612
 1514SOL    HW2 1415   2.960   1.030   2.515
 1516SOL     OW 1416   2.452   1.487   2.353
 1516SOL    HW1 1417   2.494   1.429   2.283
 1516SOL    HW2 1418   2.408   1.566   2.309
 1518SOL     OW 1419   2.117   1.348   2.152
 1518SOL    HW1 1420   2.021   1.349   2.125
 1518SOL    HW2 1421   2.129   1.401   2.236
 1524SOL     OW 1422   3.045   1.335   1.981
 1524SOL    HW1 1423   2.946   1.324   1.983
 1524SOL    HW2 1424   3.079   1.350   2.074
 1525SOL     OW 1425   2.475   0.842   3.293
 1525SOL    HW1 1426   2.531   0.923   3.276
 1525SOL    HW2 1427   2.534   0.762   3.296
 1526SOL     OW 1428   3.355   1.767   2.821
 1526SOL    HW1 1429   3.388   1.831   2.752
 1526SOL    HW2 1430   3.421   1.761   2.896
 1529SOL     OW 1431   2.252   1.741   3.422
 1529SOL    HW1 1432   2.161   1.782   3.420
 1529SOL    HW2 1433   2.245   1.647   3.454
 1532SOL     OW 1434   2.456   0.745   2.514
 1532SOL    HW1 1435   2.506   0.830   2.495
 1532SOL    HW2 1436   2.368   0.747   2.466
 1535SOL     OW 1437   2.721   1.374   1.878
 1535SOL    HW1 1438   2.675   1.389   1.966
 1535SOL    HW2 1439   2.765   1.459   1.848
 1536SOL     OW 1440   2.523   1.790   2.815
 1536SOL    HW1 1441   2.477   1.878   2.802
 1536SOL    HW2 1442   2.622   1.802   2.808
 1537SOL     OW 1443   2.721   0.956   2.723
 1537SOL    HW1 1444   2.775   0.887   2.771
 1537SOL    HW2 1445   2.689   1.025   2.789
 1538SOL     OW 1446   2.945   0.984   1.949
 1538SOL    HW1 1447   2.922   1.037   1.867
 1538SOL    HW2 1448   3.026   0.928   1.930
 1539SOL     OW 1449   3.723   1.569   2.713
 1539SOL    HW1 1450   3.652   1.557   2.643
 1539SOL    HW2 1451   3.724   1.490   2.773
 1540SOL     OW 1452   2.083   1.314   3.706
 1540SOL    HW1 1453   2.018   1.241   3.685
 1540SOL    HW2 1454   2.087   1.328   3.804
 1541SOL     OW 1455   1.941   1.240   2.515
 1541SOL    HW1 1456   1.940   1.193   2.603
 1541SOL    HW2 1457   2.023   1.212   2.464
 1542SOL     OW 1458   2.534   1.391   3.486
 1542SOL    HW1 1459   2.456   1.341   3.524
 1542SOL    HW2 1460   2.531   1.486   3.517
 1544SOL     OW 1461   2.290   0.424   2.382
 1544SOL    HW1 1462   2.320   0.352   2.320
 1544SOL    HW2 1463   2.251   0.384   2.465
 1545SOL     OW 1464   3.567   1.487   2.966
 1545SOL    HW1 1465   3.474   1.462   2.939
 1545SOL    HW2 1466   3.593   1.437   3.048
 1547SOL     OW 1467   2.674   1.586   2.549
 1547SOL    HW1 1468   2.706   1.596   2.455
 1547SOL    HW2 1469   2.595   1.524   2.551
 1550SOL     OW 1470   2.632   1.330   2.163
 1550SOL    HW1 1471   2.586   1.243   2.180
 1550SOL    HW2 1472   2.723   1.327   2.204
 1551SOL     OW 1473   2.480   1.567   3.146
 1551SOL    HW1 1474   2.475   1.649   3.203
 1551SOL    HW2 1475   2.569   1.564   3.101
 1555SOL     OW 1476   1.901   1.077   2.162
 1555SOL    HW1 1477   2.000   1.066   2.153
 1555SOL    HW2 1478   1.861   0.991   2.194
 1556SOL     OW 1479   2.737   1.646   2.199
 1556SOL    HW1 1480   2.660   1.611   2.145
 1556SOL    HW2 1481   2.705   1.717   2.261
 1563SOL     OW 1482   1.889   1.596   3.841
 1563SOL    HW1 1483   1.870   1.500   3.862
 1563SOL    HW2 1484   1.856   1.654   3.916
 1621SOL     OW 1485   2.087   2.137   0.996
 1621SOL    HW1 1486   2.122   2.120   1.088
 1621SOL    HW2 1487   1.999   2.092   0.984
 1622SOL     OW 1488   1.881   2.230   0.647
 1622SOL    HW1 1489   1.799   2.273   0.686
 1622SOL    HW2 1490   1.853   2.157   0.584
 1623SOL     OW 1491   2.431   3.137   1.165
 1623SOL    HW1 1492   2.338   3.130   1.128
 1623SOL    HW2 1493   2.442   3.226   1.209
 1625SOL     OW 1494   2.997   2.565   0.717
 1625SOL    HW1 1495   3.054   2.643   0.692
 1625SOL    HW2 1496   2.937   2.591   0.793
 1627SOL     OW 1497   2.630   3.006   1.023
 1627SOL    HW1 1498   2.552   3.023   1.083
 1627SOL    HW2 1499   2.664   3.093   0.987
 1628SOL     OW 1500   2.712   2.660   1.823
 1628SOL    HW1 1501   2.708   2.736   1.888
 1628SOL    HW2 1502   2.734   2.696   1.732
 1629SOL     OW 1503   2.547   2.874   0.665
 1629SOL    HW1 1504   2.616   2.858   0.735
 1629SOL    HW2 1505   2.474   2.931   0.703
 1630SOL     OW 1506   2.548   3.023   1.803
 1630SOL    HW1 1507   2.608   3.102   1.817
 1630SOL    HW2 1508   2.462   3.054   1.762
 1631SOL     OW 1509   2.197   3.297   1.061
 1631SOL    HW1 1510   2.119   3.266   1.008
 1631SOL    HW2 1511   2.255   3.355   1.004
 1633SOL     OW 1512   2.300   2.254   1.499
 1633SOL    HW1 1513   2.382   2.198   1.508
 1633SOL    HW2 1514   2.219   2.196   1.503
 1636SOL     OW 1515   2.989   3.203   1.690
 1636SOL    HW1 1516   3.036   3.203   1.778
 1636SOL    HW2 1517   2.941   3.116   1.679
 1638SOL     OW 1518   2.102   2.953   0.886
 1638SOL    HW1 1519   2.116   2.869   0.938
 1638SOL    HW2 1520   2.047   3.017   0.941
 1639SOL     OW 1521   2.482   3.648   1.439
 1639SOL    HW1 1522   2.390   3.631   1.474
 1639SOL    HW2 1523   2.510   3.740   1.465
 1641SOL     OW 1524   3.456   1.976   1.480
 1641SOL    HW1 1525   3.438   2.043   1.408
 1641SOL    HW2 1526   3.453   2.022   1.569
 1642SOL     OW 1527   1.984   2.505   0.563
 1642SOL    HW1 1528   1.939   2.417   0.580
 1642SOL    HW2 1529   1.983   2.559   0.647
 1647SOL     OW 1530   1.975   2.599   1.597
 1647SOL    HW1 1531   2.063   2.586   1.642
 1647SOL    HW2 1532   1.962   2.696   1.575
 1649SOL     OW 1533   3.155   3.090   1.423
 1649SOL    HW1 1534   3.192   3.017   1.365
 1649SOL    HW2 1535   3.207   3.095   1.508
 1650SOL     OW 1536   2.671   1.866   0.502
 1650SOL    HW1 1537   2.711   1.957   0.493
 1650SOL    HW2 1538   2.571   1.874   0.508
 1651SOL     OW 1539   2.059   2.838   1.264
 1651SOL    HW1 1540   2.148   2.793   1.250
 1651SOL    HW2 1541   1.986   2.773   1.245
 1654SOL     OW 1542   2.179   2.113   1.801
 1654SOL    HW1 1543   2.250   2.184   1.807
 1654SOL    HW2 1544   2.091   2.152   1.829
 1658SOL     OW 1545   3.143   2.207   0.944
 1658SOL    HW1 1546   3.057   2.157   0.931
 1658SOL    HW2 1547   3.205   2.153   1.000
 1660SOL     OW 1548   2.669   2.467   1.465
 1660SOL    HW1 1549   2.622   2.464   1.554
 1660SOL    HW2 1550   2.618   2.412   1.399
 1661SOL     OW 1551   3.256   2.331   1.674
 1661SOL    HW1 1552   3.236   2.374   1.762
 1661SOL    HW2 1553   3.334   2.269   1.683
 1662SOL     OW 1554   2.835   2.752   1.572
 1662SOL    HW1 1555   2.881   2.668   1.543
 1662SOL    HW2 1556   2.779   2.786   1.497
 1663SOL     OW 1557   2.853   2.272   1.242
 1663SOL    HW1 1558   2.776   2.306   1.296
 1663SOL    HW2 1559   2.819   2.221   1.163
 1665SOL     OW 1560   1.938   2.673   0.789
 1665SOL    HW1 1561   2.037   2.661   0.798
 1665SOL    HW2 1562   1.914   2.768   0.810
 1666SOL     OW 1563   1.992   3.683   1.571
 1666SOL    HW1 1564   1.982   3.668   1.670
 1666SOL    HW2 1565   1.906   3.719   1.535
 1668SOL     OW 1566   3.581   2.447   1.831
 1668SOL    HW1 1567   3.555   2.536   1.795
 1668SOL    HW2 1568   3.579   2.379   1.758
 1670SOL     OW 1569   2.412   2.058   0.885
 1670SOL    HW1 1570   2.407   2.053   0.985
 1670SOL    HW2 1571   2.414   2.154   0.856
 1674SOL     OW 1572   3.089   3.412   1.506
 1674SOL    HW1 1573   3.095   3.335   1.570
 1674SOL    HW2 1574   3.037   3.386   1.426
 1677SOL     OW 1575   2.323   3.128   1.727
 1677SOL    HW1 1576   2.273   3.129   1.641
 1677SOL    HW2 1577   2.260   3.110   1.803
 1679SOL     OW 1578   2.064   2.147   1.498
 1679SOL    HW1 1579   1.984   2.207   1.485
 1679SOL    HW2 1580   2.054   2.098   1.584
 1683SOL     OW 1581   2.111   3.647   1.241
 1683SOL    HW1 1582   2.168   3.582   1.291
 1683SOL    HW2 1583   2.095   3.614   1.148
 1685SOL     OW 1584   2.244   2.562   0.480
 1685SOL    HW1 1585   2.289   2.472   0.477
 1685SOL    HW2 1586   2.150   2.551   0.513
 1686SOL     OW 1587   3.409   2.084   1.729
 1686SOL    HW1 1588   3.404   2.121   1.821
 1686SOL    HW2 1589   3.337   2.015   1.717
 1688SOL     OW 1590   2.643   2.126   1.749
 1688SOL    HW1 1591   2.710   2.065   1.792
 1688SOL    HW2 1592   2.570   2.145   1.814
 1689SOL     OW 1593   2.750   3.376   1.195
 1689SOL    HW1 1594   2.727   3.351   1.101
 1689SOL    HW2 1595   2.811   3.307   1.234
 1690SOL     OW 1596   3.213   2.452   1.433
 1690SOL    HW1 1597   3.241   2.409   1.518
 1690SOL    HW2 1598   3.238   2.548   1.434
 1691SOL     OW 1599   2.665   3.264   0.924
 1691SOL    HW1 1600   2.755   3.278   0.882
 1691SOL    HW2 1601   2.594   3.266   0.853
 1692SOL     OW 1602   2.784   2.365   0.899
 1692SOL    HW1 1603   2.759   2.356   0.803
 1692SOL    HW2 1604   2.832   2.283   0.930
 1693SOL     OW 1605   2.401   1.926   0.512
 1693SOL    HW1 1606   2.320   1.927   0.570
 1693SOL    HW2 1607   2.404   2.009   0.457
 1697SOL     OW 1608   2.938   2.545   1.464
 1697SOL    HW1 1609   2.858   2.484   1.467
 1697SOL    HW2 1610   3.019   2.492   1.440
 1699SOL     OW 1611   2.321   3.014   0.741
 1699SOL    HW1 1612   2.250   2.987   0.806
 1699SOL    HW2 1613   2.295   2.986   0.648
 1702SOL     OW 1614   1.940   2.418   1.386
 1702SOL    HW1 1615   2.032   2.417   1.345
 1702SOL    HW2 1616   1.934   2.492   1.453
 1703SOL     OW 1617   2.423   2.084   1.147
 1703SOL    HW1 1618   2.461   2.000   1.184
 1703SOL    HW2 1619   2.335   2.103   1.191
 1704SOL     OW 1620   2.728   2.316   0.642
 1704SOL    HW1 1621   2.696   2.388   0.580
 1704SOL    HW2 1622   2.752   2.235   0.589
 1705SOL     OW 1623   2.879   1.901   0.753
 1705SOL    HW1 1624   2.807   1.906   0.684
 1705SOL    HW2 1625   2.855   1.832   0.822
 1707SOL     OW 1626   3.328   2.452   0.992
 1707SOL    HW1 1627   3.298   2.357   0.999
 1707SOL    HW2 1628   3.401   2.468   1.058
 1714SOL     OW 1629   2.926   3.209   1.340
 1714SOL    HW1 1630   2.846   3.186   1.395
 1714SOL    HW2 1631   3.009   3.183   1.389
 1716SOL     OW 1632   2.973   3.057   1.100
 1716SOL    HW1 1633   2.933   3.101   1.181
 1716SOL    HW2 1634   2.932   3.094   1.017
 1718SOL     OW 1635   2.777   1.951   1.402
 1718SOL    HW1 1636   2.802   1.931   1.307
 1718SOL    HW2 1637   2.849   2.007   1.444
 1719SOL     OW 1638   2.842   2.978   1.719
 1719SOL    HW1 1639   2.743   2.984   1.729
 1719SOL    HW2 1640   2.865   2.898   1.663
 1721SOL     OW 1641   2.272   2.675   1.251
 1721SOL    HW1 1642   2.358   2.687   1.301
 1721SOL    HW2 1643   2.230   2.588   1.278
 1722SOL     OW 1644   3.136   2.248   1.262
 1722SOL    HW1 1645   3.157   2.322   1.326
 1722SOL    HW2 1646   3.047   2.265   1.219
 1723SOL     OW 1647   1.926   3.426   1.331
 1723SOL    HW1 1648   1.880   3.508   1.297
 1723SOL    HW2 1649   2.024   3.445   1.340
 1725SOL     OW 1650   2.428   2.399   0.865
 1725SOL    HW1 1651   2.440   2.465   0.791
 1725SOL    HW2 1652   2.474   2.433   0.948
 1729SOL     OW 1653   2.216   3.372   1.329
 1729SOL    HW1 1654   2.195   3.328   1.242
 1729SOL    HW2 1655   2.313   3.398   1.332
 1730SOL     OW 1656   2.264   2.613   1.598
 1730SOL    HW1 1657   2.332   2.668   1.551
 1730SOL    HW2 1658   2.304   2.525   1.625
 1731SOL     OW 1659   3.449   2.641   1.670
 1731SOL    HW1 1660   3.357   2.679   1.665
 1731SOL    HW2 1661   3.509   2.688   1.605
 1732SOL     OW 1662   2.875   1.967   1.770
 1732SOL    HW1 1663   2.881   2.052   1.718
 1732SOL    HW2 1664   2.907   1.891   1.713
 1733SOL     OW 1665   2.366   1.912   1.740
 1733SOL    HW1 1666   2.324   1.855   1.670
 1733SOL    HW2 1667   2.300   1.981   1.772
 1734SOL     OW 1668   2.435   2.732   1.029
 1734SOL    HW1 1669   2.479   2.821   1.020
 1734SOL    HW2 1670   2.372   2.732   1.106
 1735SOL     OW 1671   3.222   2.724   1.045
 1735SOL    HW1 1672   3.147   2.724   0.979
 1735SOL    HW2 1673   3.259   2.632   1.054
 1737SOL     OW 1674   2.169   2.075   1.231
 1737SOL    HW1 1675   2.146   2.112   1.321
 1737SOL    HW2 1676   2.139   1.980   1.225
 1738SOL     OW 1677   1.899   3.172   1.282
 1738SOL    HW1 1678   1.952   3.123   1.350
 1738SOL    HW2 1679   1.921   3.270   1.287
 1739SOL     OW 1680   2.594   2.496   1.064
 1739SOL    HW1 1681   2.653   2.470   0.988
 1739SOL    HW2 1682   2.566   2.592   1.053
 1740SOL     OW 1683   3.590   2.797   1.854
 1740SOL    HW1 1684   3.544   2.790   1.765
 1740SOL    HW2 1685   3.528   2.841   1.920
 1741SOL     OW 1686   2.169   1.925   0.618
 1741SOL    HW1 1687   2.158   2.019   0.651
 1741SOL    HW2 1688   2.164   1.862   0.695
 1743SOL     OW 1689   2.885   2.628   0.966
 1743SOL    HW1 1690   2.900   2.649   1.062
 1743SOL    HW2 1691   2.855   2.533   0.957
 1744SOL     OW 1692   2.842   3.435   1.700
 1744SOL    HW1 1693   2.822   3.479   1.612
 1744SOL    HW2 1694   2.881   3.344   1.684
 1746SOL     OW 1695   2.212   2.760   1.804
 1746SOL    HW1 1696   2.288   2.804   1.852
 1746SOL    HW2 1697   2.247   2.713   1.722
 1750SOL     OW 1698   2.181   2.672   0.949
 1750SOL    HW1 1699   2.274   2.708   0.954
 1750SOL    HW2 1700   2.175   2.587   1.001
 1751SOL     OW 1701   2.201   2.371   1.006
 1751SOL    HW1 1702   2.149   2.288   0.989
 1751SOL    HW2 1703   2.278   2.376   0.942
 1752SOL     OW 1704   3.000   2.242   1.678
 1752SOL    HW1 1705   2.955   2.305   1.742
 1752SOL    HW2 1706   3.093   2.273   1.661
 1753SOL     OW 1707   3.022   2.069   1.477
 1753SOL    HW1 1708   3.022   2.133   1.554
 1753SOL    HW2 1709   3.050   2.117   1.394
 1756SOL     OW 1710   2.366   3.430   0.910
 1756SOL    HW1 1711   2.432   3.504   0.919
 1756SOL    HW2 1712   2.410   3.351   0.868
 1757SOL     OW 1713   2.864   2.658   1.238
 1757SOL    HW1 1714   2.905   2.626   1.324
 1757SOL    HW2 1715   2.768   2.631   1.235
 1758SOL     OW 1716   1.902   2.406   1.114
 1758SOL    HW1 1717   1.987   2.373   1.073
 1758SOL    HW2 1718   1.915   2.421   1.212
 1759SOL     OW 1719   2.051   2.382   1.722
 1759SOL    HW1 1720   2.110   2.342   1.652
 1759SOL    HW2 1721   1.993   2.453   1.681
 1760SOL     OW 1722   3.231   2.812   1.660
 1760SOL    HW1 1723   3.270   2.901   1.680
 1760SOL    HW2 1724   3.241   2.792   1.563
 1762SOL     OW 1725   3.519   2.466   1.206
 1762SOL    HW1 1726   3.481   2.397   1.268
 1762SOL    HW2 1727   3.601   2.430   1.162
 1763SOL     OW 1728   2.114   3.426   1.744
 1763SOL    HW1 1729   2.084   3.483   1.820
 1763SOL    HW2 1730   2.107   3.329   1.770
 1764SOL     OW 1731   2.533   2.326   1.269
 1764SOL    HW1 1732   2.499   2.237   1.239
 1764SOL    HW2 1733   2.559   2.380   1.189
 1765SOL     OW 1734   2.792   3.540   1.465
 1765SOL    HW1 1735   2.768   3.522   1.370
 1765SOL    HW2 1736   2.822   3.634   1.475
 1767SOL     OW 1737   2.021   2.999   1.466
 1767SOL    HW1 1738   2.043   2.938   1.542
 1767SOL    HW2 1739   2.031   2.950   1.380
 1768SOL     OW 1740   3.209   2.921   1.234
 1768SOL    HW1 1741   3.233   2.858   1.160
 1768SOL    HW2 1742   3.119   2.961   1.216
 1772SOL     OW 1743   1.945   3.120   1.022
 1772SOL    HW1 1744   1.940   3.119   1.122
 1772SOL    HW2 1745   1.862   3.079   0.984
 1773SOL     OW 1746   2.550   3.524   1.716
 1773SOL    HW1 1747   2.494   3.605   1.725
 1773SOL    HW2 1748   2.602   3.528   1.630
 1777SOL     OW 1749   1.992   3.656   1.851
 1777SOL    HW1 1750   1.951   3.582   1.904
 1777SOL    HW2 1751   2.056   3.707   1.909
 1779SOL     OW 1752   2.692   3.135   1.422
 1779SOL    HW1 1753   2.687   3.168   1.517
 1779SOL    HW2 1754   2.606   3.154   1.376
 1783SOL     OW 1755   2.125   2.188   0.720
 1783SOL    HW1 1756   2.046   2.239   0.686
 1783SOL    HW2 1757   2.116   2.173   0.818
 1785SOL     OW 1758   2.684   2.864   1.372
 1785SOL    HW1 1759   2.724   2.863   1.280
 1785SOL    HW2 1760   2.694   2.956   1.412
 1788SOL     OW 1761   2.234   3.150   1.490
 1788SOL    HW1 1762   2.221   3.243   1.456
 1788SOL    HW2 1763   2.150   3.098   1.477
 1791SOL     OW 1764   2.876   2.098   0.971
 1791SOL    HW1 1765   2.868   2.062   0.878
 1791SOL    HW2 1766   2.874   2.022   1.036
 1793SOL     OW 1767   3.571   2.247   1.381
 1793SOL    HW1 1768   3.644   2.316   1.385
 1793SOL    HW2 1769   3.599   2.172   1.322
 1795SOL     OW 1770   1.967   2.875   1.726
 1795SOL    HW1 1771   1.890   2.842   1.780
 1795SOL    HW2 1772   2.052   2.845   1.768
 1796SOL     OW 1773   2.534   2.065   1.489
 1796SOL    HW1 1774   2.624   2.049   1.449
 1796SOL    HW2 1775   2.542   2.070   1.588
 1798SOL     OW 1776   3.302   2.718   1.398
 1798SOL    HW1 1777   3.245   2.770   1.335
 1798SOL    HW2 1778   3.398   2.730   1.374
 1801SOL     OW 1779   2.475   2.704   1.431
 1801SOL    HW1 1780   2.531   2.785   1.414
 1801SOL    HW2 1781   2.534   2.624   1.434
 1803SOL     OW 1782   2.578   2.427   1.708
 1803SOL    HW1 1783   2.597   2.492   1.782
 1803SOL    HW2 1784   2.638   2.347   1.717
 1804SOL     OW 1785   3.312   3.082   1.633
 1804SOL    HW1 1786   3.303   3.072   1.732
 1804SOL    HW2 1787   3.408   3.075   1.607
 1805SOL     OW 1788   2.252   3.603   1.560
 1805SOL    HW1 1789   2.161   3.644   1.558
 1805SOL    HW2 1790   2.245   3.509   1.592
 1806SOL     OW 1791   3.536   2.745   1.254
 1806SOL    HW1 1792   3.509   2.656   1.217
 1806SOL    HW2 1793   3.537   2.813   1.181
 1808SOL     OW 1794   2.456   2.607   0.652
 1808SOL    HW1 1795   2.506   2.692   0.633
 1808SOL    HW2 1796   2.368   2.609   0.604
 1809SOL     OW 1797   3.639   2.204   1.642
 1809SOL    HW1 1798   3.622   2.235   1.548
 1809SOL    HW2 1799   3.555   2.167   1.680
 1810SOL     OW 1800   3.592   2.796   1.517
 1810SOL    HW1 1801   3.630   2.887   1.532
 1810SOL    HW2 1802   3.584   2.779   1.418
 1813SOL     OW 1803   2.721   2.818   0.861
 1813SOL    HW1 1804   2.775   2.749   0.909
 1813SOL    HW2 1805   2.689   2.887   0.927
 1816SOL     OW 1806   2.083   3.176   1.844
 1816SOL    HW1 1807   2.018   3.103   1.823
 1816SOL    HW2 1808   2.087   3.190   1.942
 1817SOL     OW 1809   1.941   3.102   0.653
 1817SOL    HW1 1810   1.940   3.055   0.741
 1817SOL    HW2 1811   2.023   3.074   0.602
 1818SOL     OW 1812   2.534   3.253   1.624
 1818SOL    HW1 1813   2.456   3.203   1.662
 1818SOL    HW2 1814   2.531   3.348   1.655
 1819SOL     OW 1815   3.686   2.054   1.227
 1819SOL    HW1 1816   3.682   1.964   1.271
 1819SOL    HW2 1817   3.689   2.043   1.128
 1820SOL     OW 1818   2.290   2.286   0.520
 1820SOL    HW1 1819   2.320   2.214   0.458
 1820SOL    HW2 1820   2.251   2.246   0.603
 1822SOL     OW 1821   2.179   2.409   1.280
 1822SOL    HW1 1822   2.217   2.350   1.352
 1822SOL    HW2 1823   2.219   2.383   1.192
 1824SOL     OW 1824   3.286   2.076   1.112
 1824SOL    HW1 1825   3.338   2.011   1.167
 1824SOL    HW2 1826   3.237   2.139   1.173
 1825SOL     OW 1827   2.863   1.896   1.154
 1825SOL    HW1 1828   2.800   1.824   1.123
 1825SOL    HW2 1829   2.956   1.860   1.154
 1827SOL     OW 1830   2.480   3.429   1.284
 1827SOL    HW1 1831   2.475   3.511   1.341
 1827SOL    HW2 1832   2.569   3.426   1.239
 1829SOL     OW 1833   3.162   2.315   0.691
 1829SOL    HW1 1834   3.103   2.395   0.695
 1829SOL    HW2 1835   3.177   2.280   0.784
 1833SOL     OW 1836   2.092   2.490   1.975
 1833SOL    HW1 1837   1.999   2.488   2.012
 1833SOL    HW2 1838   2.093   2.451   1.883
 1834SOL     OW 1839   2.087   2.137   2.858
 1834SOL    HW1 1840   2.122   2.120   2.950
 1834SOL    HW2 1841   1.999   2.092   2.846
 1835SOL     OW 1842   1.881   2.230   2.509
 1835SOL    HW1 1843   1.799   2.273   2.548
 1835SOL    HW2 1844   1.853   2.157   2.446
 1836SOL     OW 1845   2.431   3.137   3.027
 1836SOL    HW1 1846   2.338   3.130   2.990
 1836SOL    HW2 1847   2.442   3.226   3.071
 1837SOL     OW 1848   3.417   3.373   2.565
 1837SOL    HW1 1849   3.360   3.357   2.646
 1837SOL    HW2 1850   3.358   3.383   2.485
 1838SOL     OW 1851   2.997   2.565   2.579
 1838SOL    HW1 1852   3.054   2.643   2.554
 1838SOL    HW2 1853   2.937   2.591   2.655
 1839SOL     OW 1854   3.617   2.469   2.093
 1839SOL    HW1 1855   3.605   2.456   1.994
 1839SOL    HW2 1856   3.587   2.388   2.142
 1840SOL     OW 1857   2.630   3.006   2.885
 1840SOL    HW1 1858   2.552   3.023   2.945
 1840SOL    HW2 1859   2.664   3.093   2.849
 1841SOL     OW 1860   2.712   2.660   3.685
 1841SOL    HW1 1861   2.708   2.736   3.750
 1841SOL    HW2 1862   2.734   2.696   3.594
 1842SOL     OW 1863   2.547   2.874   2.527
 1842SOL    HW1 1864   2.616   2.858   2.597
 1842SOL    HW2 1865   2.474   2.931   2.565
 1843SOL     OW 1866   2.548   3.023   3.665
 1843SOL    HW1 1867   2.608   3.102   3.679
 1843SOL    HW2 1868   2.462   3.054   3.624
 1844SOL     OW 1869   2.197   3.297   2.923
 1844SOL    HW1 1870   2.119   3.266   2.870
 1844SOL    HW2 1871   2.255   3.355   2.866
 1846SOL     OW 1872   2.300   2.254   3.361
 1846SOL    HW1 1873   2.382   2.198   3.370
 1846SOL    HW2 1874   2.219   2.196   3.365
 1847SOL     OW 1875   3.465   2.309   2.599
 1847SOL    HW1 1876   3.391   2.355   2.549
 1847SOL    HW2 1877   3.516   2.377   2.652
 1848SOL     OW 1878   2.093   3.575   2.345
 1848SOL    HW1 1879   2.127   3.652   2.399
 1848SOL    HW2 1880   2.137   3.575   2.255
 1850SOL     OW 1881   2.092   3.296   2.400
 1850SOL    HW1 1882   2.066   3.392   2.400
 1850SOL    HW2 1883   2.021   3.242   2.445
 1851SOL     OW 1884   2.102   2.953   2.748
 1851SOL    HW1 1885   2.116   2.869   2.800
 1851SOL    HW2 1886   2.047   3.017   2.803
 1853SOL     OW 1887   2.468   2.826   1.985
 1853SOL    HW1 1888   2.475   2.910   1.931
 1853SOL    HW2 1889   2.514   2.839   2.073
 1854SOL     OW 1890   3.456   1.976   3.342
 1854SOL    HW1 1891   3.438   2.043   3.270
 1854SOL    HW2 1892   3.453   2.022   3.431
 1855SOL     OW 1893   1.984   2.505   2.425
 1855SOL    HW1 1894   1.939   2.417   2.442
 1855SOL    HW2 1895   1.983   2.559   2.509
 1857SOL     OW 1896   1.889   3.458   1.979
 1857SOL    HW1 1897   1.870   3.362   2.000
 1857SOL    HW2 1898   1.856   3.516   2.054
 1858SOL     OW 1899   3.551   2.784   2.474
 1858SOL    HW1 1900   3.646   2.755   2.482
 1858SOL    HW2 1901   3.543   2.849   2.399
 1859SOL     OW 1902   3.503   2.970   2.294
 1859SOL    HW1 1903   3.589   2.972   2.242
 1859SOL    HW2 1904   3.517   3.017   2.382
 1860SOL     OW 1905   1.975   2.599   3.459
 1860SOL    HW1 1906   2.063   2.586   3.504
 1860SOL    HW2 1907   1.962   2.696   3.437
 1861SOL     OW 1908   2.475   3.227   2.588
 1861SOL    HW1 1909   2.426   3.140   2.597
 1861SOL    HW2 1910   2.452   3.270   2.501
 1862SOL     OW 1911   3.155   3.090   3.285
 1862SOL    HW1 1912   3.192   3.017   3.227
 1862SOL    HW2 1913   3.207   3.095   3.370
 1863SOL     OW 1914   2.671   1.866   2.364
 1863SOL    HW1 1915   2.711   1.957   2.355
 1863SOL    HW2 1916   2.571   1.874   2.370
 1864SOL     OW 1917   2.059   2.838   3.126
 1864SOL    HW1 1918   2.148   2.793   3.112
 1864SOL    HW2 1919   1.986   2.773   3.107
 1865SOL     OW 1920   3.387   2.861   2.052
 1865SOL    HW1 1921   3.324   2.785   2.065
 1865SOL    HW2 1922   3.435   2.879   2.138
 1867SOL     OW 1923   2.179   2.113   3.663
 1867SOL    HW1 1924   2.250   2.184   3.669
 1867SOL    HW2 1925   2.091   2.152   3.691
 1868SOL     OW 1926   3.328   3.279   2.815
 1868SOL    HW1 1927   3.269   3.285   2.895
 1868SOL    HW2 1928   3.313   3.191   2.769
 1870SOL     OW 1929   2.460   2.591   2.132
 1870SOL    HW1 1930   2.484   2.660   2.064
 1870SOL    HW2 1931   2.382   2.624   2.186
 1871SOL     OW 1932   3.143   2.207   2.806
 1871SOL    HW1 1933   3.057   2.157   2.793
 1871SOL    HW2 1934   3.205   2.153   2.862
 1873SOL     OW 1935   2.669   2.467   3.327
 1873SOL    HW1 1936   2.622   2.464   3.416
 1873SOL    HW2 1937   2.618   2.412   3.261
 1874SOL     OW 1938   3.256   2.331   3.536
 1874SOL    HW1 1939   3.236   2.374   3.624
 1874SOL    HW2 1940   3.334   2.269   3.545
 1875SOL     OW 1941   2.835   2.752   3.434
 1875SOL    HW1 1942   2.881   2.668   3.405
 1875SOL    HW2 1943   2.779   2.786   3.359
 1876SOL     OW 1944   2.853   2.272   3.104
 1876SOL    HW1 1945   2.776   2.306   3.158
 1876SOL    HW2 1946   2.819   2.221   3.025
 1877SOL     OW 1947   2.903   2.563   2.291
 1877SOL    HW1 1948   2.929   2.559   2.387
 1877SOL    HW2 1949   2.818   2.512   2.277
 1878SOL     OW 1950   1.938   2.673   2.651
 1878SOL    HW1 1951   2.037   2.661   2.660
 1878SOL    HW2 1952   1.914   2.768   2.672
 1880SOL     OW 1953   2.727   2.210   2.057
 1880SOL    HW1 1954   2.786   2.273   2.008
 1880SOL    HW2 1955   2.746   2.116   2.028
 1882SOL     OW 1956   3.224   3.006   2.407
 1882SOL    HW1 1957   3.307   2.977   2.359
 1882SOL    HW2 1958   3.175   3.073   2.351
 1883SOL     OW 1959   2.412   2.058   2.747
 1883SOL    HW1 1960   2.407   2.053   2.847
 1883SOL    HW2 1961   2.414   2.154   2.718
 1884SOL     OW 1962   2.870   3.318   2.339
 1884SOL    HW1 1963   2.824   3.390   2.287
 1884SOL    HW2 1964   2.866   3.338   2.437
 1885SOL     OW 1965   2.213   3.663   2.715
 1885SOL    HW1 1966   2.263   3.577   2.721
 1885SOL    HW2 1967   2.278   3.740   2.712
 1886SOL     OW 1968   3.657   2.928   2.735
 1886SOL    HW1 1969   3.595   2.913   2.659
 1886SOL    HW2 1970   3.605   2.939   2.820
 1888SOL     OW 1971   2.183   2.805   2.104
 1888SOL    HW1 1972   2.265   2.844   2.062
 1888SOL    HW2 1973   2.156   2.723   2.055
 1889SOL     OW 1974   3.320   2.597   2.590
 1889SOL    HW1 1975   3.315   2.532   2.665
 1889SOL    HW2 1976   3.400   2.656   2.603
 1890SOL     OW 1977   2.323   3.128   3.589
 1890SOL    HW1 1978   2.273   3.129   3.503
 1890SOL    HW2 1979   2.260   3.110   3.665
 1891SOL     OW 1980   2.973   3.638   2.099
 1891SOL    HW1 1981   2.913   3.576   2.149
 1891SOL    HW2 1982   3.004   3.594   2.014
 1892SOL     OW 1983   2.064   2.147   3.360
 1892SOL    HW1 1984   1.984   2.207   3.347
 1892SOL    HW2 1985   2.054   2.098   3.446
 1893SOL     OW 1986   3.494   3.239   1.943
 1893SOL    HW1 1987   3.462   3.333   1.933
 1893SOL    HW2 1988   3.418   3.176   1.931
 1894SOL     OW 1989   2.326   3.605   2.185
 1894SOL    HW1 1990   2.359   3.644   2.271
 1894SOL    HW2 1991   2.402   3.598   2.120
 1895SOL     OW 1992   3.262   1.969   2.288
 1895SOL    HW1 1993   3.238   1.932   2.198
 1895SOL    HW2 1994   3.361   1.985   2.292
 1896SOL     OW 1995   2.111   3.647   3.103
 1896SOL    HW1 1996   2.168   3.582   3.153
 1896SOL    HW2 1997   2.095   3.614   3.010
 1897SOL     OW 1998   2.802   3.560   2.766
 1897SOL    HW1 1999   2.882   3.503   2.787
 1897SOL    HW2 2000   2.753   3.520   2.689
 1898SOL     OW 2001   2.244   2.562   2.342
 1898SOL    HW1 2002   2.289   2.472   2.339
 1898SOL    HW2 2003   2.150   2.551   2.375
 1900SOL     OW 2004   2.476   1.984   1.979
 1900SOL    HW1 2005   2.574   1.962   1.986
 1900SOL    HW2 2006   2.445   1.967   1.886
 1901SOL     OW 2007   2.643   2.126   3.611
 1901SOL    HW1 2008   2.710   2.065   3.654
 1901SOL    HW2 2009   2.570   2.145   3.676
 1902SOL     OW 2010   2.750   3.376   3.057
 1902SOL    HW1 2011   2.727   3.351   2.963
 1902SOL    HW2 2012   2.811   3.307   3.096
 1903SOL     OW 2013   3.213   2.452   3.295
 1903SOL    HW1 2014   3.241   2.409   3.380
 1903SOL    HW2 2015   3.238   2.548   3.296
 1904SOL     OW 2016   2.665   3.264   2.786
 1904SOL    HW1 2017   2.755   3.278   2.744
 1904SOL    HW2 2018   2.594   3.266   2.715
 1905SOL     OW 2019   2.784   2.365   2.761
 1905SOL    HW1 2020   2.759   2.356   2.665
 1905SOL    HW2 2021   2.832   2.283   2.792
 1906SOL     OW 2022   2.401   1.926   2.374
 1906SOL    HW1 2023   2.320   1.927   2.432
 1906SOL    HW2 2024   2.404   2.009   2.319
 1907SOL     OW 2025   3.296   3.050   1.903
 1907SOL    HW1 2026   3.328   2.974   1.960
 1907SOL    HW2 2027   3.204   3.077   1.933
 1908SOL     OW 2028   2.159   1.897   2.033
 1908SOL    HW1 2029   2.208   1.981   2.012
 1908SOL    HW2 2030   2.221   1.832   2.078
 1909SOL     OW 2031   2.797   2.098   2.342
 1909SOL    HW1 2032   2.749   2.139   2.264
 1909SOL    HW2 2033   2.896   2.096   2.323
 1910SOL     OW 2034   2.938   2.545   3.326
 1910SOL    HW1 2035   2.858   2.484   3.329
 1910SOL    HW2 2036   3.019   2.492   3.302
 1911SOL     OW 2037   3.089   3.432   2.655
 1911SOL    HW1 2038   3.110   3.506   2.590
 1911SOL    HW2 2039   3.157   3.432   2.728
 1912SOL     OW 2040   2.321   3.014   2.603
 1912SOL    HW1 2041   2.250   2.987   2.668
 1912SOL    HW2 2042   2.295   2.986   2.510
 1914SOL     OW 2043   2.894   2.411   1.878
 1914SOL    HW1 2044   2.853   2.493   1.839
 1914SOL    HW2 2045   2.958   2.437   1.951
 1915SOL     OW 2046   1.940   2.418   3.248
 1915SOL    HW1 2047   2.032   2.417   3.207
 1915SOL    HW2 2048   1.934   2.492   3.315
 1916SOL     OW 2049   2.423   2.084   3.009
 1916SOL    HW1 2050   2.461   2.000   3.046
 1916SOL    HW2 2051   2.335   2.103   3.053
 1917SOL     OW 2052   2.728   2.316   2.504
 1917SOL    HW1 2053   2.696   2.388   2.442
 1917SOL    HW2 2054   2.752   2.235   2.451
 1918SOL     OW 2055   2.879   1.901   2.615
 1918SOL    HW1 2056   2.807   1.906   2.546
 1918SOL    HW2 2057   2.855   1.832   2.684
 1919SOL     OW 2058   3.291   3.035   2.729
 1919SOL    HW1 2059   3.236   2.951   2.722
 1919SOL    HW2 2060   3.317   3.064   2.637
 1920SOL     OW 2061   3.328   2.452   2.854
 1920SOL    HW1 2062   3.298   2.357   2.861
 1920SOL    HW2 2063   3.401   2.468   2.920
 1921SOL     OW 2064   3.719   2.695   2.239
 1921SOL    HW1 2065   3.761   2.631   2.303
 1921SOL    HW2 2066   3.681   2.644   2.161
 1922SOL     OW 2067   2.350   3.247   2.036
 1922SOL    HW1 2068   2.263   3.232   2.083
 1922SOL    HW2 2069   2.333   3.273   1.941
 1923SOL     OW 2070   3.526   3.142   2.519
 1923SOL    HW1 2071   3.625   3.150   2.533
 1923SOL    HW2 2072   3.481   3.226   2.550
 1924SOL     OW 2073   3.252   2.437   1.940
 1924SOL    HW1 2074   3.198   2.416   2.021
 1924SOL    HW2 2075   3.343   2.396   1.949
 1926SOL     OW 2076   2.926   3.209   3.202
 1926SOL    HW1 2077   2.846   3.186   3.257
 1926SOL    HW2 2078   3.009   3.183   3.251
 1928SOL     OW 2079   2.973   3.057   2.962
 1928SOL    HW1 2080   2.933   3.101   3.043
 1928SOL    HW2 2081   2.932   3.094   2.879
 1929SOL     OW 2082   3.500   2.961   2.941
 1929SOL    HW1 2083   3.505   3.042   3.000
 1929SOL    HW2 2084   3.414   2.963   2.890
 1930SOL     OW 2085   2.777   1.951   3.264
 1930SOL    HW1 2086   2.802   1.931   3.169
 1930SOL    HW2 2087   2.849   2.007   3.306
 1931SOL     OW 2088   2.842   2.978   3.581
 1931SOL    HW1 2089   2.743   2.984   3.591
 1931SOL    HW2 2090   2.865   2.898   3.525
 1932SOL     OW 2091   2.567   2.912   2.230
 1932SOL    HW1 2092   2.553   2.919   2.329
 1932SOL    HW2 2093   2.651   2.861   2.212
 1933SOL     OW 2094   2.272   2.675   3.113
 1933SOL    HW1 2095   2.358   2.687   3.163
 1933SOL    HW2 2096   2.230   2.588   3.140
 1934SOL     OW 2097   3.136   2.248   3.124
 1934SOL    HW1 2098   3.157   2.322   3.188
 1934SOL    HW2 2099   3.047   2.265   3.081
 1935SOL     OW 2100   1.926   3.426   3.193
 1935SOL    HW1 2101   1.880   3.508   3.159
 1935SOL    HW2 2102   2.024   3.445   3.202
 1936SOL     OW 2103   2.229   2.962   2.363
 1936SOL    HW1 2104   2.222   3.045   2.307
 1936SOL    HW2 2105   2.233   2.882   2.303
 1937SOL     OW 2106   2.428   2.399   2.727
 1937SOL    HW1 2107   2.440   2.465   2.653
 1937SOL    HW2 2108   2.474   2.433   2.810
 1938SOL     OW 2109   3.114   3.210   2.250
 1938SOL    HW1 2110   3.164   3.287   2.290
 1938SOL    HW2 2111   3.019   3.212   2.282
 1939SOL     OW 2112   3.134   3.307   3.004
 1939SOL    HW1 2113   3.181   3.320   3.091
 1939SOL    HW2 2114   3.068   3.233   3.013
 1940SOL     OW 2115   3.444   2.501   2.334
 1940SOL    HW1 2116   3.413   2.562   2.407
 1940SOL    HW2 2117   3.494   2.553   2.265
 1941SOL     OW 2118   2.216   3.372   3.191
 1941SOL    HW1 2119   2.195   3.328   3.104
 1941SOL    HW2 2120   2.313   3.398   3.194
 1942SOL     OW 2121   2.264   2.613   3.460
 1942SOL    HW1 2122   2.332   2.668   3.413
 1942SOL    HW2 2123   2.304   2.525   3.487
 1944SOL     OW 2124   2.875   1.967   3.632
 1944SOL    HW1 2125   2.881   2.052   3.580
 1944SOL    HW2 2126   2.907   1.891   3.575
 1945SOL     OW 2127   2.366   1.912   3.602
 1945SOL    HW1 2128   2.324   1.855   3.532
 1945SOL    HW2 2129   2.300   1.981   3.634
 1946SOL     OW 2130   2.435   2.732   2.891
 1946SOL    HW1 2131   2.479   2.821   2.882
 1946SOL    HW2 2132   2.372   2.732   2.968
 1947SOL     OW 2133   3.222   2.724   2.907
 1947SOL    HW1 2134   3.147   2.724   2.841
 1947SOL    HW2 2135   3.259   2.632   2.916
 1948SOL     OW 2136   3.071   2.387   2.137
 1948SOL    HW1 2137   3.084   2.303   2.191
 1948SOL    HW2 2138   3.042   2.461   2.197
 1949SOL     OW 2139   2.169   2.075   3.093
 1949SOL    HW1 2140   2.146   2.112   3.183
 1949SOL    HW2 2141   2.139   1.980   3.087
 1950SOL     OW 2142   1.899   3.172   3.144
 1950SOL    HW1 2143   1.952   3.123   3.212
 1950SOL    HW2 2144   1.921   3.270   3.149
 1951SOL     OW 2145   2.594   2.496   2.926
 1951SOL    HW1 2146   2.653   2.470   2.850
 1951SOL    HW2 2147   2.566   2.592   2.915
 1953SOL     OW 2148   2.169   1.925   2.480
 1953SOL    HW1 2149   2.158   2.019   2.513
 1953SOL    HW2 2150   2.164   1.862   2.557
 1954SOL     OW 2151   3.484   2.229   2.236
 1954SOL    HW1 2152   3.486   2.153   2.300
 1954SOL    HW2 2153   3.436   2.306   2.276
 1955SOL     OW 2154   2.885   2.628   2.828
 1955SOL    HW1 2155   2.900   2.649   2.924
 1955SOL    HW2 2156   2.855   2.533   2.819
 1958SOL     OW 2157   2.212   2.760   3.666
 1958SOL    HW1 2158   2.288   2.804   3.714
 1958SOL    HW2 2159   2.247   2.713   3.584
 1959SOL     OW 2160   3.402   2.136   1.987
 1959SOL    HW1 2161   3.341   2.061   2.010
 1959SOL    HW2 2162   3.424   2.188   2.070
 1960SOL     OW 2163   3.165   2.700   1.904
 1960SOL    HW1 2164   3.199   2.607   1.919
 1960SOL    HW2 2165   3.183   2.727   1.809
 1961SOL     OW 2166   2.930   3.195   2.711
 1961SOL    HW1 2167   2.937   3.111   2.656
 1961SOL    HW2 2168   2.992   3.264   2.675
 1962SOL     OW 2169   2.181   2.672   2.811
 1962SOL    HW1 2170   2.274   2.708   2.816
 1962SOL    HW2 2171   2.175   2.587   2.863
 1963SOL     OW 2172   2.201   2.371   2.868
 1963SOL    HW1 2173   2.149   2.288   2.851
 1963SOL    HW2 2174   2.278   2.376   2.804
 1964SOL     OW 2175   3.000   2.242   3.540
 1964SOL    HW1 2176   2.955   2.305   3.604
 1964SOL    HW2 2177   3.093   2.273   3.523
 1965SOL     OW 2178   3.022   2.069   3.339
 1965SOL    HW1 2179   3.022   2.133   3.416
 1965SOL    HW2 2180   3.050   2.117   3.256
 1966SOL     OW 2181   1.870   3.188   2.062
 1966SOL    HW1 2182   1.777   3.209   2.031
 1966SOL    HW2 2183   1.880   3.089   2.075
 1967SOL     OW 2184   1.950   3.663   2.789
 1967SOL    HW1 2185   1.908   3.577   2.762
 1967SOL    HW2 2186   2.044   3.666   2.755
 1968SOL     OW 2187   2.366   3.430   2.772
 1968SOL    HW1 2188   2.432   3.504   2.781
 1968SOL    HW2 2189   2.410   3.351   2.730
 1969SOL     OW 2190   2.864   2.658   3.100
 1969SOL    HW1 2191   2.905   2.626   3.186
 1969SOL    HW2 2192   2.768   2.631   3.097
 1970SOL     OW 2193   1.902   2.406   2.976
 1970SOL    HW1 2194   1.987   2.373   2.935
 1970SOL    HW2 2195   1.915   2.421   3.074
 1971SOL     OW 2196   2.051   2.382   3.584
 1971SOL    HW1 2197   2.110   2.342   3.514
 1971SOL    HW2 2198   1.993   2.453   3.543
 1973SOL     OW 2199   2.677   2.434   2.187
 1973SOL    HW1 2200   2.684   2.345   2.141
 1973SOL    HW2 2201   2.583   2.468   2.179
 1974SOL     OW 2202   3.519   2.466   3.068
 1974SOL    HW1 2203   3.481   2.397   3.130
 1974SOL    HW2 2204   3.601   2.430   3.024
 1976SOL     OW 2205   2.533   2.326   3.131
 1976SOL    HW1 2206   2.499   2.237   3.101
 1976SOL    HW2 2207   2.559   2.380   3.051
 1978SOL     OW 2208   2.021   2.999   3.328
 1978SOL    HW1 2209   2.043   2.938   3.404
 1978SOL    HW2 2210   2.031   2.950   3.242
 1979SOL     OW 2211   3.209   2.921   3.096
 1979SOL    HW1 2212   3.233   2.858   3.022
 1979SOL    HW2 2213   3.119   2.961   3.078
 1980SOL     OW 2214   3.164   2.717   2.171
 1980SOL    HW1 2215   3.078   2.686   2.213
 1980SOL    HW2 2216   3.160   2.703   2.072
 1983SOL     OW 2217   1.945   3.120   2.884
 1983SOL    HW1 2218   1.940   3.119   2.984
 1983SOL    HW2 2219   1.862   3.079   2.846
 1985SOL     OW 2220   3.588   1.997   2.385
 1985SOL    HW1 2221   3.661   1.980   2.318
 1985SOL    HW2 2222   3.557   1.910   2.423
 1986SOL     OW 2223   3.250   3.435   2.339
 1986SOL    HW1 2224   3.317   3.447   2.265
 1986SOL    HW2 2225   3.210   3.524   2.362
 1988SOL     OW 2226   3.142   2.789   2.534
 1988SOL    HW1 2227   3.202   2.708   2.536
 1988SOL    HW2 2228   3.182   2.858   2.474
 1989SOL     OW 2229   2.692   3.135   3.284
 1989SOL    HW1 2230   2.687   3.168   3.379
 1989SOL    HW2 2231   2.606   3.154   3.238
 1990SOL     OW 2232   2.534   3.478   2.016
 1990SOL    HW1 2233   2.543   3.488   1.917
 1990SOL    HW2 2234   2.494   3.389   2.037
 1992SOL     OW 2235   3.703   2.037   2.825
 1992SOL    HW1 2236   3.742   1.952   2.789
 1992SOL    HW2 2237   3.605   2.039   2.806
 1993SOL     OW 2238   2.125   2.188   2.582
 1993SOL    HW1 2239   2.046   2.239   2.548
 1993SOL    HW2 2240   2.116   2.173   2.680
 1994SOL     OW 2241   3.056   3.474   1.893
 1994SOL    HW1 2242   3.062   3.381   1.930
 1994SOL    HW2 2243   2.997   3.474   1.813
 1995SOL     OW 2244   2.684   2.864   3.234
 1995SOL    HW1 2245   2.724   2.863   3.142
 1995SOL    HW2 2246   2.694   2.956   3.274
 1996SOL     OW 2247   2.778   2.772   2.153
 1996SOL    HW1 2248   2.841   2.810   2.085
 1996SOL    HW2 2249   2.818   2.689   2.192
 1997SOL     OW 2250   3.366   3.469   1.906
 1997SOL    HW1 2251   3.274   3.506   1.913
 1997SOL    HW2 2252   3.404   3.489   1.816
 1998SOL     OW 2253   2.234   3.150   3.352
 1998SOL    HW1 2254   2.221   3.243   3.318
 1998SOL    HW2 2255   2.150   3.098   3.339
 2000SOL     OW 2256   2.901   2.960   2.558
 2000SOL    HW1 2257   2.831   2.913   2.612
 2000SOL    HW2 2258   2.960   2.892   2.515
 2001SOL     OW 2259   2.876   2.098   2.833
 2001SOL    HW1 2260   2.868   2.062   2.740
 2001SOL    HW2 2261   2.874   2.022   2.898
 2002SOL     OW 2262   2.452   3.349   2.353
 2002SOL    HW1 2263   2.494   3.291   2.283
 2002SOL    HW2 2264   2.408   3.428   2.309
 2003SOL     OW 2265   3.571   2.247   3.243
 2003SOL    HW1 2266   3.644   2.316   3.247
 2003SOL    HW2 2267   3.599   2.172   3.184
 2004SOL     OW 2268   2.117   3.210   2.152
 2004SOL    HW1 2269   2.021   3.211   2.125
 2004SOL    HW2 2270   2.129   3.263   2.236
 2005SOL     OW 2271   1.967   2.875   3.588
 2005SOL    HW1 2272   1.890   2.842   3.642
 2005SOL    HW2 2273   2.052   2.845   3.630
 2006SOL     OW 2274   2.534   2.065   3.351
 2006SOL    HW1 2275   2.624   2.049   3.311
 2006SOL    HW2 2276   2.542   2.070   3.450
 2007SOL     OW 2277   1.937   2.207   1.895
 2007SOL    HW1 2278   1.845   2.179   1.866
 2007SOL    HW2 2279   1.968   2.284   1.839
 2008SOL     OW 2280   3.302   2.718   3.260
 2008SOL    HW1 2281   3.245   2.770   3.197
 2008SOL    HW2 2282   3.398   2.730   3.236
 2009SOL     OW 2283   3.045   3.197   1.981
 2009SOL    HW1 2284   2.946   3.186   1.983
 2009SOL    HW2 2285   3.079   3.212   2.074
 2010SOL     OW 2286   2.475   2.704   3.293
 2010SOL    HW1 2287   2.531   2.785   3.276
 2010SOL    HW2 2288   2.534   2.624   3.296
 2012SOL     OW 2289   2.578   2.427   3.570
 2012SOL    HW1 2290   2.597   2.492   3.644
 2012SOL    HW2 2291   2.638   2.347   3.579
 2015SOL     OW 2292   3.536   2.745   3.116
 2015SOL    HW1 2293   3.509   2.656   3.079
 2015SOL    HW2 2294   3.537   2.813   3.043
 2016SOL     OW 2295   3.087   2.187   2.311
 2016SOL    HW1 2296   3.152   2.113   2.300
 2016SOL    HW2 2297   3.107   2.237   2.395
 2017SOL     OW 2298   2.456   2.607   2.514
 2017SOL    HW1 2299   2.506   2.692   2.495
 2017SOL    HW2 2300   2.368   2.609   2.466
 2020SOL     OW 2301   2.721   3.236   1.878
 2020SOL    HW1 2302   2.675   3.251   1.966
 2020SOL    HW2 2303   2.765   3.321   1.848
 2021SOL     OW 2304   2.523   3.652   2.815
 2021SOL    HW1 2305   2.477   3.740   2.802
 2021SOL    HW2 2306   2.622   3.664   2.808
 2022SOL     OW 2307   2.721   2.818   2.723
 2022SOL    HW1 2308   2.775   2.749   2.771
 2022SOL    HW2 2309   2.689   2.887   2.789
 2023SOL     OW 2310   2.945   2.846   1.949
 2023SOL    HW1 2311   2.922   2.899   1.867
 2023SOL    HW2 2312   3.026   2.790   1.930
 2026SOL     OW 2313   1.941   3.102   2.515
 2026SOL    HW1 2314   1.940   3.055   2.603
 2026SOL    HW2 2315   2.023   3.074   2.464
 2027SOL     OW 2316   2.534   3.253   3.486
 2027SOL    HW1 2317   2.456   3.203   3.524
 2027SOL    HW2 2318   2.531   3.348   3.517
 2028SOL     OW 2319   3.686   2.054   3.089
 2028SOL    HW1 2320   3.682   1.964   3.133
 2028SOL    HW2 2321   3.689   2.043   2.990
 2030SOL     OW 2322   2.179   2.409   3.142
 2030SOL    HW1 2323   2.217   2.350   3.214
 2030SOL    HW2 2324   2.219   2.383   3.054
 2031SOL     OW 2325   2.674   3.448   2.549
 2031SOL    HW1 2326   2.706   3.458   2.455
 2031SOL    HW2 2327   2.595   3.386   2.551
 2032SOL     OW 2328   3.286   2.076   2.974
 2032SOL    HW1 2329   3.338   2.011   3.029
 2032SOL    HW2 2330   3.237   2.139   3.035
 2033SOL     OW 2331   2.863   1.896   3.016
 2033SOL    HW1 2332   2.800   1.824   2.985
 2033SOL    HW2 2333   2.956   1.860   3.016
 2034SOL     OW 2334   2.632   3.192   2.163
 2034SOL    HW1 2335   2.586   3.105   2.180
 2034SOL    HW2 2336   2.723   3.189   2.204
 2035SOL     OW 2337   2.480   3.429   3.146
 2035SOL    HW1 2338   2.475   3.511   3.203
 2035SOL    HW2 2339   2.569   3.426   3.101
 2036SOL     OW 2340   3.214   1.914   2.030
 2036SOL    HW1 2341   3.249   1.873   1.946
 2036SOL    HW2 2342   3.124   1.876   2.050
 2037SOL     OW 2343   3.162   2.315   2.553
 2037SOL    HW1 2344   3.103   2.395   2.557
 2037SOL    HW2 2345   3.177   2.280   2.646
 2038SOL     OW 2346   3.455   2.083   2.744
 2038SOL    HW1 2347   3.371   2.082   2.798
 2038SOL    HW2 2348   3.457   2.166   2.688
 2039SOL     OW 2349   1.901   2.939   2.162
 2039SOL    HW1 2350   2.000   2.928   2.153
 2039SOL    HW2 2351   1.861   2.853   2.194
 2040SOL     OW 2352   2.737   3.508   2.199
 2040SOL    HW1 2353   2.660   3.473   2.145
 2040SOL    HW2 2354   2.705   3.579   2.261
 2041SOL     OW 2355   2.092   2.490   3.837
 2041SOL    HW1 2356   1.999   2.488   3.874
 2041SOL    HW2 2357   2.093   2.451   3.745
 2061SOL     OW 2358   2.476   1.984   3.841
 2061SOL    HW1 2359   2.574   1.962   3.848
 2061SOL    HW2 2360   2.445   1.967   3.748
 2063SOL     OW 2361   2.159   1.897   3.895
 2063SOL    HW1 2362   2.208   1.981   3.874
 2063SOL    HW2 2363   2.221   1.832   3.940
 2067SOL     OW 2364   2.894   2.411   3.740
 2067SOL    HW1 2365   2.853   2.493   3.701
 2067SOL    HW2 2366   2.958   2.437   3.813
 2082SOL     OW 2367   2.335   2.362   3.915
 2082SOL    HW1 2368   2.396   2.442   3.919
 2082SOL    HW2 2369   2.240   2.393   3.922
 2092SOL     OW 2370   1.937   2.207   3.757
 2092SOL    HW1 2371   1.845   2.179   3.728
 2092SOL    HW2 2372   1.968   2.284   3.701
 2138SOL     OW 2373   2.366   3.774   1.740
 2138SOL    HW1 2374   2.324   3.717   1.670
 2138SOL    HW2 2375   2.300   3.843   1.772
 2179SOL     OW 2376   2.671   3.728   2.364
 2179SOL    HW1 2377   2.711   3.819   2.355
 2179SOL    HW2 2378   2.571   3.736   2.370
 2191SOL     OW 2379   2.476   3.846   1.979
 2191SOL    HW1 2380   2.574   3.824   1.986
 2191SOL    HW2 2381   2.445   3.829   1.886
 2194SOL     OW 2382   2.401   3.788   2.374
 2194SOL    HW1 2383   2.320   3.789   2.432
 2194SOL    HW2 2384   2.404   3.871   2.319
 2195SOL     OW 2385   2.159   3.759   2.033
 2195SOL    HW1 2386   2.208   3.843   2.012
 2195SOL    HW2 2387   2.221   3.694   2.078
 2209SOL     OW 2388   2.169   3.787   2.480
 2209SOL    HW1 2389   2.158   3.881   2.513
 2209SOL    HW2 2390   2.164   3.724   2.557
 2227SOL     OW 2391   1.934   3.890   2.180
 2227SOL    HW1 2392   1.917   3.973   2.126
 2227SOL    HW2 2393   2.024   3.853   2.158
 2310SOL     OW 2394   3.854   1.794   1.851
 2310SOL    HW1 2395   3.813   1.720   1.904
 2310SOL    HW2 2396   3.918   1.845   1.909
 2335SOL     OW 2397   3.751   1.596   1.979
 2335SOL    HW1 2398   3.732   1.500   2.000
 2335SOL    HW2 2399   3.718   1.654   2.054
 2368SOL     OW 2400   3.732   1.326   2.062
 2368SOL    HW1 2401   3.639   1.347   2.031
 2368SOL    HW2 2402   3.742   1.227   2.075
 2369SOL     OW 2403   3.812   1.801   2.789
 2369SOL    HW1 2404   3.770   1.715   2.762
 2369SOL    HW2 2405   3.906   1.804   2.755
 2484SOL     OW 2406   3.743   2.230   2.509
 2484SOL    HW1 2407   3.661   2.273   2.548
 2484SOL    HW2 2408   3.715   2.157   2.446
 2491SOL     OW 2409   3.846   2.505   2.425
 2491SOL    HW1 2410   3.801   2.417   2.442
 2491SOL    HW2 2411   3.845   2.559   2.509
 2497SOL     OW 2412   3.800   2.673   2.651
 2497SOL    HW1 2413   3.899   2.661   2.660
 2497SOL    HW2 2414   3.776   2.768   2.672
 2541SOL     OW 2415   3.799   2.207   1.895
 2541SOL    HW1 2416   3.707   2.179   1.866
 2541SOL    HW2 2417   3.830   2.284   1.839
 2542SOL     OW 2418   3.796   2.028   2.180
 2542SOL    HW1 2419   3.779   2.111   2.126
 2542SOL    HW2 2420   3.886   1.991   2.158
 2549SOL     OW 2421   3.763   2.939   2.162
 2549SOL    HW1 2422   3.862   2.928   2.153
 2549SOL    HW2 2423   3.723   2.853   2.194
   4.32897   4.32897   4.32897
