; mobley_6353617_GMX.top created by acpype (v: 2023.10.27) on Thu May 21 00:21:57 2026

[ defaults ]
; nbfunc        comb-rule       gen-pairs       fudgeLJ fudgeQQ
1               2               yes             0.5     0.8333333333

; Include mobley_6353617_GMX.itp topology
#include "mobley_6353617_GMX.itp"

; Ligand position restraints
#ifdef POSRES_LIG
#include "posre_mobley_6353617.itp"
#endif


#include "/home/carla/github/Solvation-openMM/DADES/common/SOL.TIP3P.itp"

[ system ]
mobley_6353617 in water

[ molecules ]
; Compound        nmols
 mobley_6353617   1     
SOL 793
