mobley_49274_GMX.gro created by acpype (v: 2023.10.27) on Tue May 19 12:47:48 2026
 2422
    1MOL     C1    1   2.519   2.603   2.856
    1MOL     C2    2   2.514   2.526   2.764
    1MOL     C3    3   2.404   2.378   2.161
    1MOL     C4    4   2.507   2.432   2.652
    1MOL     C5    5   2.410   2.474   2.278
    1MOL     C6    6   2.462   2.502   2.524
    1MOL     C7    7   2.459   2.405   2.405
    1MOL     H1    8   2.524   2.671   2.938
    1MOL     H2    9   2.369   2.429   2.071
    1MOL     H3   10   2.334   2.295   2.182
    1MOL     H4   11   2.502   2.335   2.140
    1MOL     H5   12   2.605   2.386   2.636
    1MOL     H6   13   2.437   2.351   2.676
    1MOL     H7   14   2.478   2.557   2.252
    1MOL     H8   15   2.311   2.518   2.294
    1MOL     H9   16   2.362   2.546   2.538
    1MOL    H10   17   2.530   2.585   2.501
    1MOL    H11   18   2.559   2.363   2.389
    1MOL    H12   19   2.392   2.321   2.429
   14SOL     OW   20   1.460   1.505   1.339
   14SOL    HW1   21   1.484   1.599   1.365
   14SOL    HW2   22   1.444   1.451   1.421
   35SOL     OW   23   1.187   1.792   1.616
   35SOL    HW1   24   1.211   1.852   1.540
   35SOL    HW2   25   1.194   1.697   1.586
   56SOL     OW   26   1.227   1.550   1.506
   56SOL    HW1   27   1.233   1.473   1.570
   56SOL    HW2   28   1.175   1.524   1.426
   95SOL     OW   29   1.754   1.223   1.588
   95SOL    HW1   30   1.845   1.184   1.575
   95SOL    HW2   31   1.762   1.319   1.612
   97SOL     OW   32   1.592   1.629   1.625
   97SOL    HW1   33   1.619   1.663   1.535
   97SOL    HW2   34   1.671   1.591   1.671
  122SOL     OW   35   1.728   0.935   1.854
  122SOL    HW1   36   1.682   0.928   1.765
  122SOL    HW2   37   1.666   0.979   1.920
  127SOL     OW   38   1.859   1.518   1.605
  127SOL    HW1   39   1.873   1.545   1.510
  127SOL    HW2   40   1.942   1.540   1.658
  152SOL     OW   41   1.759   1.747   1.154
  152SOL    HW1   42   1.820   1.777   1.081
  152SOL    HW2   43   1.721   1.658   1.132
  163SOL     OW   44   1.650   1.720   1.394
  163SOL    HW1   45   1.703   1.730   1.310
  163SOL    HW2   46   1.623   1.810   1.428
  186SOL     OW   47   1.450   1.220   1.633
  186SOL    HW1   48   1.441   1.210   1.732
  186SOL    HW2   49   1.546   1.213   1.607
  219SOL     OW   50   1.555   1.511   2.565
  219SOL    HW1   51   1.498   1.495   2.646
  219SOL    HW2   52   1.496   1.521   2.485
  227SOL     OW   53   1.460   1.505   3.201
  227SOL    HW1   54   1.484   1.599   3.227
  227SOL    HW2   55   1.444   1.451   3.283
  238SOL     OW   56   1.842   1.767   2.221
  238SOL    HW1   57   1.896   1.738   2.301
  238SOL    HW2   58   1.872   1.857   2.192
  240SOL     OW   59   1.689   0.922   2.474
  240SOL    HW1   60   1.784   0.893   2.482
  240SOL    HW2   61   1.681   0.987   2.399
  241SOL     OW   62   1.641   1.108   2.294
  241SOL    HW1   63   1.727   1.110   2.242
  241SOL    HW2   64   1.655   1.155   2.382
  247SOL     OW   65   1.525   0.999   2.052
  247SOL    HW1   66   1.462   0.923   2.065
  247SOL    HW2   67   1.573   1.017   2.138
  248SOL     OW   68   1.187   1.792   3.478
  248SOL    HW1   69   1.211   1.852   3.402
  248SOL    HW2   70   1.194   1.697   3.448
  250SOL     OW   71   1.466   1.417   2.815
  250SOL    HW1   72   1.407   1.423   2.895
  250SOL    HW2   73   1.451   1.329   2.769
  251SOL     OW   74   1.667   1.714   2.434
  251SOL    HW1   75   1.626   1.691   2.346
  251SOL    HW2   76   1.649   1.640   2.499
  254SOL     OW   77   1.576   1.662   2.169
  254SOL    HW1   78   1.665   1.708   2.172
  254SOL    HW2   79   1.555   1.638   2.074
  264SOL     OW   80   1.362   1.144   2.407
  264SOL    HW1   81   1.445   1.115   2.359
  264SOL    HW2   82   1.313   1.211   2.351
  266SOL     OW   83   1.008   1.456   2.339
  266SOL    HW1   84   0.962   1.528   2.287
  266SOL    HW2   85   1.004   1.476   2.437
  268SOL     OW   86   1.795   1.066   2.735
  268SOL    HW1   87   1.733   1.051   2.659
  268SOL    HW2   88   1.743   1.077   2.820
  269SOL     OW   89   1.227   1.550   3.368
  269SOL    HW1   90   1.233   1.473   3.432
  269SOL    HW2   91   1.175   1.524   3.288
  273SOL     OW   92   1.111   1.776   2.099
  273SOL    HW1   93   1.051   1.714   2.149
  273SOL    HW2   94   1.142   1.732   2.014
  275SOL     OW   95   1.632   1.377   1.943
  275SOL    HW1   96   1.600   1.471   1.933
  275SOL    HW2   97   1.556   1.314   1.931
  279SOL     OW   98   0.940   1.698   2.766
  279SOL    HW1   99   1.020   1.641   2.787
  279SOL    HW2  100   0.891   1.658   2.689
  289SOL     OW  101   1.434   1.188   1.903
  289SOL    HW1  102   1.466   1.112   1.960
  289SOL    HW2  103   1.342   1.215   1.933
  293SOL     OW  104   1.227   1.570   2.655
  293SOL    HW1  105   1.248   1.644   2.590
  293SOL    HW2  106   1.295   1.570   2.728
  295SOL     OW  107   1.271   1.797   2.453
  295SOL    HW1  108   1.315   1.861   2.389
  295SOL    HW2  109   1.221   1.849   2.523
  301SOL     OW  110   1.429   1.173   2.729
  301SOL    HW1  111   1.374   1.089   2.722
  301SOL    HW2  112   1.455   1.202   2.637
  303SOL     OW  113   1.857   0.833   2.239
  303SOL    HW1  114   1.899   0.769   2.303
  303SOL    HW2  115   1.819   0.782   2.161
  305SOL     OW  116   1.664   1.280   2.519
  305SOL    HW1  117   1.763   1.288   2.533
  305SOL    HW2  118   1.619   1.364   2.550
  308SOL     OW  119   1.754   1.223   3.450
  308SOL    HW1  120   1.845   1.184   3.437
  308SOL    HW2  121   1.762   1.319   3.474
  310SOL     OW  122   1.592   1.629   3.487
  310SOL    HW1  123   1.619   1.663   3.397
  310SOL    HW2  124   1.671   1.591   3.533
  312SOL     OW  125   1.638   1.099   2.941
  312SOL    HW1  126   1.643   1.180   3.000
  312SOL    HW2  127   1.552   1.101   2.890
  321SOL     OW  128   1.252   1.348   2.250
  321SOL    HW1  129   1.302   1.425   2.290
  321SOL    HW2  130   1.157   1.350   2.282
  322SOL     OW  131   1.272   1.445   3.004
  322SOL    HW1  132   1.319   1.458   3.091
  322SOL    HW2  133   1.206   1.371   3.013
  340SOL     OW  134   1.859   1.518   3.467
  340SOL    HW1  135   1.873   1.545   3.372
  340SOL    HW2  136   1.942   1.540   3.520
  365SOL     OW  137   1.759   1.747   3.016
  365SOL    HW1  138   1.820   1.777   2.943
  365SOL    HW2  139   1.721   1.658   2.994
  366SOL     OW  140   1.252   1.731   2.990
  366SOL    HW1  141   1.336   1.736   2.936
  366SOL    HW2  142   1.229   1.635   3.008
  370SOL     OW  143   1.388   1.573   2.339
  370SOL    HW1  144   1.455   1.585   2.265
  370SOL    HW2  145   1.348   1.662   2.362
  375SOL     OW  146   1.650   1.720   3.256
  375SOL    HW1  147   1.703   1.730   3.172
  375SOL    HW2  148   1.623   1.810   3.290
  378SOL     OW  149   1.194   1.612   1.893
  378SOL    HW1  150   1.200   1.519   1.930
  378SOL    HW2  151   1.135   1.612   1.813
  381SOL     OW  152   1.504   1.607   1.906
  381SOL    HW1  153   1.412   1.644   1.913
  381SOL    HW2  154   1.542   1.627   1.816
  383SOL     OW  155   1.614   1.292   3.151
  383SOL    HW1  156   1.674   1.295   3.231
  383SOL    HW2  157   1.539   1.356   3.164
  394SOL     OW  158   1.183   1.335   1.981
  394SOL    HW1  159   1.084   1.324   1.983
  394SOL    HW2  160   1.217   1.350   2.074
  396SOL     OW  161   1.493   1.767   2.821
  396SOL    HW1  162   1.526   1.831   2.752
  396SOL    HW2  163   1.559   1.761   2.896
  409SOL     OW  164   1.861   1.569   2.713
  409SOL    HW1  165   1.790   1.557   2.643
  409SOL    HW2  166   1.862   1.490   2.773
  415SOL     OW  167   1.705   1.487   2.966
  415SOL    HW1  168   1.612   1.462   2.939
  415SOL    HW2  169   1.731   1.437   3.048
  426SOL     OW  170   0.875   1.646   2.199
  426SOL    HW1  171   0.798   1.611   2.145
  426SOL    HW2  172   0.843   1.717   2.261
  566SOL     OW  173   0.850   2.660   1.823
  566SOL    HW1  174   0.846   2.736   1.888
  566SOL    HW2  175   0.872   2.696   1.732
  570SOL     OW  176   1.460   3.367   1.339
  570SOL    HW1  177   1.484   3.461   1.365
  570SOL    HW2  178   1.444   3.313   1.421
  574SOL     OW  179   1.127   3.203   1.690
  574SOL    HW1  180   1.174   3.203   1.778
  574SOL    HW2  181   1.079   3.116   1.679
  579SOL     OW  182   1.594   1.976   1.480
  579SOL    HW1  183   1.576   2.043   1.408
  579SOL    HW2  184   1.591   2.022   1.569
  587SOL     OW  185   1.293   3.090   1.423
  587SOL    HW1  186   1.330   3.017   1.365
  587SOL    HW2  187   1.345   3.095   1.508
  599SOL     OW  188   1.394   2.331   1.674
  599SOL    HW1  189   1.374   2.374   1.762
  599SOL    HW2  190   1.472   2.269   1.683
  600SOL     OW  191   0.973   2.752   1.572
  600SOL    HW1  192   1.019   2.668   1.543
  600SOL    HW2  193   0.917   2.786   1.497
  606SOL     OW  194   1.719   2.447   1.831
  606SOL    HW1  195   1.693   2.536   1.795
  606SOL    HW2  196   1.717   2.379   1.758
  611SOL     OW  197   1.795   2.928   0.873
  611SOL    HW1  198   1.733   2.913   0.797
  611SOL    HW2  199   1.743   2.939   0.958
  624SOL     OW  200   1.547   2.084   1.729
  624SOL    HW1  201   1.542   2.121   1.821
  624SOL    HW2  202   1.475   2.015   1.717
  628SOL     OW  203   1.351   2.452   1.433
  628SOL    HW1  204   1.379   2.409   1.518
  628SOL    HW2  205   1.376   2.548   1.434
  634SOL     OW  206   1.076   2.545   1.464
  634SOL    HW1  207   0.996   2.484   1.467
  634SOL    HW2  208   1.157   2.492   1.440
  644SOL     OW  209   1.466   2.452   0.992
  644SOL    HW1  210   1.436   2.357   0.999
  644SOL    HW2  211   1.539   2.468   1.058
  650SOL     OW  212   1.754   3.085   1.588
  650SOL    HW1  213   1.845   3.046   1.575
  650SOL    HW2  214   1.762   3.181   1.612
  652SOL     OW  215   1.592   3.491   1.625
  652SOL    HW1  216   1.619   3.525   1.535
  652SOL    HW2  217   1.671   3.453   1.671
  654SOL     OW  218   1.638   2.961   1.079
  654SOL    HW1  219   1.643   3.042   1.138
  654SOL    HW2  220   1.552   2.963   1.028
  656SOL     OW  221   0.980   2.978   1.719
  656SOL    HW1  222   0.881   2.984   1.729
  656SOL    HW2  223   1.003   2.898   1.663
  659SOL     OW  224   1.274   2.248   1.262
  659SOL    HW1  225   1.295   2.322   1.326
  659SOL    HW2  226   1.185   2.265   1.219
  668SOL     OW  227   1.587   2.641   1.670
  668SOL    HW1  228   1.495   2.679   1.665
  668SOL    HW2  229   1.647   2.688   1.605
  669SOL     OW  230   1.013   1.967   1.770
  669SOL    HW1  231   1.019   2.052   1.718
  669SOL    HW2  232   1.045   1.891   1.713
  677SOL     OW  233   1.728   2.797   1.854
  677SOL    HW1  234   1.682   2.790   1.765
  677SOL    HW2  235   1.666   2.841   1.920
  682SOL     OW  236   1.859   3.380   1.605
  682SOL    HW1  237   1.873   3.407   1.510
  682SOL    HW2  238   1.942   3.402   1.658
  689SOL     OW  239   1.138   2.242   1.678
  689SOL    HW1  240   1.093   2.305   1.742
  689SOL    HW2  241   1.231   2.273   1.661
  690SOL     OW  242   1.160   2.069   1.477
  690SOL    HW1  243   1.160   2.133   1.554
  690SOL    HW2  244   1.188   2.117   1.394
  697SOL     OW  245   1.369   2.812   1.660
  697SOL    HW1  246   1.408   2.901   1.680
  697SOL    HW2  247   1.379   2.792   1.563
  699SOL     OW  248   1.657   2.466   1.206
  699SOL    HW1  249   1.619   2.397   1.268
  699SOL    HW2  250   1.739   2.430   1.162
  705SOL     OW  251   1.347   2.921   1.234
  705SOL    HW1  252   1.371   2.858   1.160
  705SOL    HW2  253   1.257   2.961   1.216
  718SOL     OW  254   1.650   3.582   1.394
  718SOL    HW1  255   1.703   3.592   1.310
  718SOL    HW2  256   1.623   3.672   1.428
  719SOL     OW  257   1.841   2.037   0.963
  719SOL    HW1  258   1.880   1.952   0.927
  719SOL    HW2  259   1.743   2.039   0.944
  726SOL     OW  260   1.614   3.154   1.289
  726SOL    HW1  261   1.674   3.157   1.369
  726SOL    HW2  262   1.539   3.218   1.302
  730SOL     OW  263   1.709   2.247   1.381
  730SOL    HW1  264   1.782   2.316   1.385
  730SOL    HW2  265   1.737   2.172   1.322
  735SOL     OW  266   1.440   2.718   1.398
  735SOL    HW1  267   1.383   2.770   1.335
  735SOL    HW2  268   1.536   2.730   1.374
  741SOL     OW  269   1.450   3.082   1.633
  741SOL    HW1  270   1.441   3.072   1.732
  741SOL    HW2  271   1.546   3.075   1.607
  743SOL     OW  272   1.674   2.745   1.254
  743SOL    HW1  273   1.647   2.656   1.217
  743SOL    HW2  274   1.675   2.813   1.181
  746SOL     OW  275   1.777   2.204   1.642
  746SOL    HW1  276   1.760   2.235   1.548
  746SOL    HW2  277   1.693   2.167   1.680
  747SOL     OW  278   1.730   2.796   1.517
  747SOL    HW1  279   1.768   2.887   1.532
  747SOL    HW2  280   1.722   2.779   1.418
  756SOL     OW  281   1.824   2.054   1.227
  756SOL    HW1  282   1.820   1.964   1.271
  756SOL    HW2  283   1.827   2.043   1.128
  758SOL     OW  284   1.705   3.349   1.104
  758SOL    HW1  285   1.612   3.324   1.077
  758SOL    HW2  286   1.731   3.299   1.186
  761SOL     OW  287   1.424   2.076   1.112
  761SOL    HW1  288   1.476   2.011   1.167
  761SOL    HW2  289   1.375   2.139   1.173
  774SOL     OW  290   1.555   3.373   2.565
  774SOL    HW1  291   1.498   3.357   2.646
  774SOL    HW2  292   1.496   3.383   2.485
  775SOL     OW  293   1.135   2.565   2.579
  775SOL    HW1  294   1.192   2.643   2.554
  775SOL    HW2  295   1.075   2.591   2.655
  776SOL     OW  296   1.755   2.469   2.093
  776SOL    HW1  297   1.743   2.456   1.994
  776SOL    HW2  298   1.725   2.388   2.142
  782SOL     OW  299   1.460   3.367   3.201
  782SOL    HW1  300   1.484   3.461   3.227
  782SOL    HW2  301   1.444   3.313   3.283
  784SOL     OW  302   1.603   2.309   2.599
  784SOL    HW1  303   1.529   2.355   2.549
  784SOL    HW2  304   1.654   2.377   2.652
  791SOL     OW  305   1.594   1.976   3.342
  791SOL    HW1  306   1.576   2.043   3.270
  791SOL    HW2  307   1.591   2.022   3.431
  793SOL     OW  308   1.842   3.629   2.221
  793SOL    HW1  309   1.896   3.600   2.301
  793SOL    HW2  310   1.872   3.719   2.192
  795SOL     OW  311   1.689   2.784   2.474
  795SOL    HW1  312   1.784   2.755   2.482
  795SOL    HW2  313   1.681   2.849   2.399
  796SOL     OW  314   1.641   2.970   2.294
  796SOL    HW1  315   1.727   2.972   2.242
  796SOL    HW2  316   1.655   3.017   2.382
  799SOL     OW  317   1.293   3.090   3.285
  799SOL    HW1  318   1.330   3.017   3.227
  799SOL    HW2  319   1.345   3.095   3.370
  800SOL     OW  320   0.809   1.866   2.364
  800SOL    HW1  321   0.849   1.957   2.355
  800SOL    HW2  322   0.709   1.874   2.370
  802SOL     OW  323   1.525   2.861   2.052
  802SOL    HW1  324   1.462   2.785   2.065
  802SOL    HW2  325   1.573   2.879   2.138
  805SOL     OW  326   1.466   3.279   2.815
  805SOL    HW1  327   1.407   3.285   2.895
  805SOL    HW2  328   1.451   3.191   2.769
  806SOL     OW  329   1.667   3.576   2.434
  806SOL    HW1  330   1.626   3.553   2.346
  806SOL    HW2  331   1.649   3.502   2.499
  808SOL     OW  332   1.281   2.207   2.806
  808SOL    HW1  333   1.195   2.157   2.793
  808SOL    HW2  334   1.343   2.153   2.862
  809SOL     OW  335   1.576   3.524   2.169
  809SOL    HW1  336   1.665   3.570   2.172
  809SOL    HW2  337   1.555   3.500   2.074
  811SOL     OW  338   1.394   2.331   3.536
  811SOL    HW1  339   1.374   2.374   3.624
  811SOL    HW2  340   1.472   2.269   3.545
  813SOL     OW  341   0.991   2.272   3.104
  813SOL    HW1  342   0.914   2.306   3.158
  813SOL    HW2  343   0.957   2.221   3.025
  814SOL     OW  344   1.041   2.563   2.291
  814SOL    HW1  345   1.067   2.559   2.387
  814SOL    HW2  346   0.956   2.512   2.277
  817SOL     OW  347   0.865   2.210   2.057
  817SOL    HW1  348   0.924   2.273   2.008
  817SOL    HW2  349   0.884   2.116   2.028
  818SOL     OW  350   1.719   2.447   3.693
  818SOL    HW1  351   1.693   2.536   3.657
  818SOL    HW2  352   1.717   2.379   3.620
  819SOL     OW  353   1.362   3.006   2.407
  819SOL    HW1  354   1.445   2.977   2.359
  819SOL    HW2  355   1.313   3.073   2.351
  821SOL     OW  356   1.008   3.318   2.339
  821SOL    HW1  357   0.962   3.390   2.287
  821SOL    HW2  358   1.004   3.338   2.437
  823SOL     OW  359   1.795   2.928   2.735
  823SOL    HW1  360   1.733   2.913   2.659
  823SOL    HW2  361   1.743   2.939   2.820
  826SOL     OW  362   1.458   2.597   2.590
  826SOL    HW1  363   1.453   2.532   2.665
  826SOL    HW2  364   1.538   2.656   2.603
  830SOL     OW  365   1.632   3.239   1.943
  830SOL    HW1  366   1.600   3.333   1.933
  830SOL    HW2  367   1.556   3.176   1.931
  832SOL     OW  368   1.400   1.969   2.288
  832SOL    HW1  369   1.376   1.932   2.198
  832SOL    HW2  370   1.499   1.985   2.292
  836SOL     OW  371   1.547   2.084   3.591
  836SOL    HW1  372   1.542   2.121   3.683
  836SOL    HW2  373   1.475   2.015   3.579
  840SOL     OW  374   1.351   2.452   3.295
  840SOL    HW1  375   1.379   2.409   3.380
  840SOL    HW2  376   1.376   2.548   3.296
  842SOL     OW  377   0.922   2.365   2.761
  842SOL    HW1  378   0.897   2.356   2.665
  842SOL    HW2  379   0.970   2.283   2.792
  844SOL     OW  380   1.434   3.050   1.903
  844SOL    HW1  381   1.466   2.974   1.960
  844SOL    HW2  382   1.342   3.077   1.933
  846SOL     OW  383   0.935   2.098   2.342
  846SOL    HW1  384   0.887   2.139   2.264
  846SOL    HW2  385   1.034   2.096   2.323
  847SOL     OW  386   1.076   2.545   3.326
  847SOL    HW1  387   0.996   2.484   3.329
  847SOL    HW2  388   1.157   2.492   3.302
  848SOL     OW  389   1.227   3.432   2.655
  848SOL    HW1  390   1.248   3.506   2.590
  848SOL    HW2  391   1.295   3.432   2.728
  850SOL     OW  392   1.271   3.659   2.453
  850SOL    HW1  393   1.315   3.723   2.389
  850SOL    HW2  394   1.221   3.711   2.523
  851SOL     OW  395   1.032   2.411   1.878
  851SOL    HW1  396   0.991   2.493   1.839
  851SOL    HW2  397   1.096   2.437   1.951
  854SOL     OW  398   0.866   2.316   2.504
  854SOL    HW1  399   0.834   2.388   2.442
  854SOL    HW2  400   0.890   2.235   2.451
  855SOL     OW  401   1.017   1.901   2.615
  855SOL    HW1  402   0.945   1.906   2.546
  855SOL    HW2  403   0.993   1.832   2.684
  856SOL     OW  404   1.429   3.035   2.729
  856SOL    HW1  405   1.374   2.951   2.722
  856SOL    HW2  406   1.455   3.064   2.637
  857SOL     OW  407   1.466   2.452   2.854
  857SOL    HW1  408   1.436   2.357   2.861
  857SOL    HW2  409   1.539   2.468   2.920
  858SOL     OW  410   1.857   2.695   2.239
  858SOL    HW1  411   1.899   2.631   2.303
  858SOL    HW2  412   1.819   2.644   2.161
  860SOL     OW  413   1.664   3.142   2.519
  860SOL    HW1  414   1.763   3.150   2.533
  860SOL    HW2  415   1.619   3.226   2.550
  861SOL     OW  416   1.390   2.437   1.940
  861SOL    HW1  417   1.336   2.416   2.021
  861SOL    HW2  418   1.481   2.396   1.949
  863SOL     OW  419   1.754   3.085   3.450
  863SOL    HW1  420   1.845   3.046   3.437
  863SOL    HW2  421   1.762   3.181   3.474
  864SOL     OW  422   1.064   3.209   3.202
  864SOL    HW1  423   0.984   3.186   3.257
  864SOL    HW2  424   1.147   3.183   3.251
  865SOL     OW  425   1.592   3.491   3.487
  865SOL    HW1  426   1.619   3.525   3.397
  865SOL    HW2  427   1.671   3.453   3.533
  866SOL     OW  428   1.111   3.057   2.962
  866SOL    HW1  429   1.071   3.101   3.043
  866SOL    HW2  430   1.070   3.094   2.879
  867SOL     OW  431   1.638   2.961   2.941
  867SOL    HW1  432   1.643   3.042   3.000
  867SOL    HW2  433   1.552   2.963   2.890
  872SOL     OW  434   1.274   2.248   3.124
  872SOL    HW1  435   1.295   2.322   3.188
  872SOL    HW2  436   1.185   2.265   3.081
  876SOL     OW  437   1.252   3.210   2.250
  876SOL    HW1  438   1.302   3.287   2.290
  876SOL    HW2  439   1.157   3.212   2.282
  877SOL     OW  440   1.272   3.307   3.004
  877SOL    HW1  441   1.319   3.320   3.091
  877SOL    HW2  442   1.206   3.233   3.013
  878SOL     OW  443   1.582   2.501   2.334
  878SOL    HW1  444   1.551   2.562   2.407
  878SOL    HW2  445   1.632   2.553   2.265
  881SOL     OW  446   1.587   2.641   3.532
  881SOL    HW1  447   1.495   2.679   3.527
  881SOL    HW2  448   1.647   2.688   3.467
  885SOL     OW  449   1.360   2.724   2.907
  885SOL    HW1  450   1.285   2.724   2.841
  885SOL    HW2  451   1.397   2.632   2.916
  886SOL     OW  452   1.209   2.387   2.137
  886SOL    HW1  453   1.222   2.303   2.191
  886SOL    HW2  454   1.180   2.461   2.197
  889SOL     OW  455   0.732   2.496   2.926
  889SOL    HW1  456   0.791   2.470   2.850
  889SOL    HW2  457   0.704   2.592   2.915
  890SOL     OW  458   1.728   2.797   3.716
  890SOL    HW1  459   1.682   2.790   3.627
  890SOL    HW2  460   1.666   2.841   3.782
  892SOL     OW  461   1.622   2.229   2.236
  892SOL    HW1  462   1.624   2.153   2.300
  892SOL    HW2  463   1.574   2.306   2.276
  893SOL     OW  464   1.023   2.628   2.828
  893SOL    HW1  465   1.038   2.649   2.924
  893SOL    HW2  466   0.993   2.533   2.819
  895SOL     OW  467   1.859   3.380   3.467
  895SOL    HW1  468   1.873   3.407   3.372
  895SOL    HW2  469   1.942   3.402   3.520
  897SOL     OW  470   1.540   2.136   1.987
  897SOL    HW1  471   1.479   2.061   2.010
  897SOL    HW2  472   1.562   2.188   2.070
  898SOL     OW  473   1.303   2.700   1.904
  898SOL    HW1  474   1.337   2.607   1.919
  898SOL    HW2  475   1.321   2.727   1.809
  899SOL     OW  476   1.068   3.195   2.711
  899SOL    HW1  477   1.075   3.111   2.656
  899SOL    HW2  478   1.130   3.264   2.675
  902SOL     OW  479   1.138   2.242   3.540
  902SOL    HW1  480   1.093   2.305   3.604
  902SOL    HW2  481   1.231   2.273   3.523
  903SOL     OW  482   1.160   2.069   3.339
  903SOL    HW1  483   1.160   2.133   3.416
  903SOL    HW2  484   1.188   2.117   3.256
  907SOL     OW  485   1.002   2.658   3.100
  907SOL    HW1  486   1.043   2.626   3.186
  907SOL    HW2  487   0.906   2.631   3.097
  910SOL     OW  488   1.369   2.812   3.522
  910SOL    HW1  489   1.408   2.901   3.542
  910SOL    HW2  490   1.379   2.792   3.425
  911SOL     OW  491   0.815   2.434   2.187
  911SOL    HW1  492   0.822   2.345   2.141
  911SOL    HW2  493   0.721   2.468   2.179
  912SOL     OW  494   1.657   2.466   3.068
  912SOL    HW1  495   1.619   2.397   3.130
  912SOL    HW2  496   1.739   2.430   3.024
  918SOL     OW  497   1.347   2.921   3.096
  918SOL    HW1  498   1.371   2.858   3.022
  918SOL    HW2  499   1.257   2.961   3.078
  919SOL     OW  500   1.302   2.717   2.171
  919SOL    HW1  501   1.216   2.686   2.213
  919SOL    HW2  502   1.298   2.703   2.072
  920SOL     OW  503   1.759   3.609   3.016
  920SOL    HW1  504   1.820   3.639   2.943
  920SOL    HW2  505   1.721   3.520   2.994
  921SOL     OW  506   1.252   3.593   2.990
  921SOL    HW1  507   1.336   3.598   2.936
  921SOL    HW2  508   1.229   3.497   3.008
  924SOL     OW  509   1.726   1.997   2.385
  924SOL    HW1  510   1.799   1.980   2.318
  924SOL    HW2  511   1.695   1.910   2.423
  925SOL     OW  512   1.388   3.435   2.339
  925SOL    HW1  513   1.455   3.447   2.265
  925SOL    HW2  514   1.348   3.524   2.362
  927SOL     OW  515   1.280   2.789   2.534
  927SOL    HW1  516   1.340   2.708   2.536
  927SOL    HW2  517   1.320   2.858   2.474
  930SOL     OW  518   1.650   3.582   3.256
  930SOL    HW1  519   1.703   3.592   3.172
  930SOL    HW2  520   1.623   3.672   3.290
  931SOL     OW  521   1.841   2.037   2.825
  931SOL    HW1  522   1.880   1.952   2.789
  931SOL    HW2  523   1.743   2.039   2.806
  933SOL     OW  524   1.194   3.474   1.893
  933SOL    HW1  525   1.200   3.381   1.930
  933SOL    HW2  526   1.135   3.474   1.813
  935SOL     OW  527   0.916   2.772   2.153
  935SOL    HW1  528   0.979   2.810   2.085
  935SOL    HW2  529   0.956   2.689   2.192
  936SOL     OW  530   1.504   3.469   1.906
  936SOL    HW1  531   1.412   3.506   1.913
  936SOL    HW2  532   1.542   3.489   1.816
  938SOL     OW  533   1.614   3.154   3.151
  938SOL    HW1  534   1.674   3.157   3.231
  938SOL    HW2  535   1.539   3.218   3.164
  939SOL     OW  536   1.039   2.960   2.558
  939SOL    HW1  537   0.969   2.913   2.612
  939SOL    HW2  538   1.098   2.892   2.515
  940SOL     OW  539   1.014   2.098   2.833
  940SOL    HW1  540   1.006   2.062   2.740
  940SOL    HW2  541   1.012   2.022   2.898
  942SOL     OW  542   1.709   2.247   3.243
  942SOL    HW1  543   1.782   2.316   3.247
  942SOL    HW2  544   1.737   2.172   3.184
  947SOL     OW  545   1.440   2.718   3.260
  947SOL    HW1  546   1.383   2.770   3.197
  947SOL    HW2  547   1.536   2.730   3.236
  949SOL     OW  548   1.183   3.197   1.981
  949SOL    HW1  549   1.084   3.186   1.983
  949SOL    HW2  550   1.217   3.212   2.074
  951SOL     OW  551   1.493   3.629   2.821
  951SOL    HW1  552   1.526   3.693   2.752
  951SOL    HW2  553   1.559   3.623   2.896
  953SOL     OW  554   1.450   3.082   3.495
  953SOL    HW1  555   1.441   3.072   3.594
  953SOL    HW2  556   1.546   3.075   3.469
  955SOL     OW  557   1.674   2.745   3.116
  955SOL    HW1  558   1.647   2.656   3.079
  955SOL    HW2  559   1.675   2.813   3.043
  956SOL     OW  560   1.225   2.187   2.311
  956SOL    HW1  561   1.290   2.113   2.300
  956SOL    HW2  562   1.245   2.237   2.395
  958SOL     OW  563   1.777   2.204   3.504
  958SOL    HW1  564   1.760   2.235   3.410
  958SOL    HW2  565   1.693   2.167   3.542
  959SOL     OW  566   1.730   2.796   3.379
  959SOL    HW1  567   1.768   2.887   3.394
  959SOL    HW2  568   1.722   2.779   3.280
  962SOL     OW  569   0.859   2.818   2.723
  962SOL    HW1  570   0.913   2.749   2.771
  962SOL    HW2  571   0.827   2.887   2.789
  963SOL     OW  572   1.083   2.846   1.949
  963SOL    HW1  573   1.060   2.899   1.867
  963SOL    HW2  574   1.164   2.790   1.930
  964SOL     OW  575   1.861   3.431   2.713
  964SOL    HW1  576   1.790   3.419   2.643
  964SOL    HW2  577   1.862   3.352   2.773
  968SOL     OW  578   1.824   2.054   3.089
  968SOL    HW1  579   1.820   1.964   3.133
  968SOL    HW2  580   1.827   2.043   2.990
  970SOL     OW  581   1.705   3.349   2.966
  970SOL    HW1  582   1.612   3.324   2.939
  970SOL    HW2  583   1.731   3.299   3.048
  973SOL     OW  584   1.424   2.076   2.974
  973SOL    HW1  585   1.476   2.011   3.029
  973SOL    HW2  586   1.375   2.139   3.035
  974SOL     OW  587   1.001   1.896   3.016
  974SOL    HW1  588   0.938   1.824   2.985
  974SOL    HW2  589   1.094   1.860   3.016
  977SOL     OW  590   1.352   1.914   2.030
  977SOL    HW1  591   1.387   1.873   1.946
  977SOL    HW2  592   1.262   1.876   2.050
  978SOL     OW  593   1.300   2.315   2.553
  978SOL    HW1  594   1.241   2.395   2.557
  978SOL    HW2  595   1.315   2.280   2.646
  979SOL     OW  596   1.593   2.083   2.744
  979SOL    HW1  597   1.509   2.082   2.798
  979SOL    HW2  598   1.595   2.166   2.688
  987SOL     OW  599   1.755   2.469   3.955
  987SOL    HW1  600   1.743   2.456   3.856
  987SOL    HW2  601   1.725   2.388   4.004
 1004SOL     OW  602   1.525   2.861   3.914
 1004SOL    HW1  603   1.462   2.785   3.927
 1004SOL    HW2  604   1.573   2.879   4.000
 1021SOL     OW  605   1.632   3.239   3.805
 1021SOL    HW1  606   1.600   3.333   3.795
 1021SOL    HW2  607   1.556   3.176   3.793
 1031SOL     OW  608   1.434   3.050   3.765
 1031SOL    HW1  609   1.466   2.974   3.822
 1031SOL    HW2  610   1.342   3.077   3.795
 1042SOL     OW  611   1.857   2.695   4.101
 1042SOL    HW1  612   1.899   2.631   4.165
 1042SOL    HW2  613   1.819   2.644   4.023
 1045SOL     OW  614   1.390   2.437   3.802
 1045SOL    HW1  615   1.336   2.416   3.883
 1045SOL    HW2  616   1.481   2.396   3.811
 1063SOL     OW  617   1.540   2.136   3.849
 1063SOL    HW1  618   1.479   2.061   3.872
 1063SOL    HW2  619   1.562   2.188   3.932
 1064SOL     OW  620   1.303   2.700   3.766
 1064SOL    HW1  621   1.337   2.607   3.781
 1064SOL    HW2  622   1.321   2.727   3.671
 1286SOL     OW  623   1.400   3.831   2.288
 1286SOL    HW1  624   1.376   3.794   2.198
 1286SOL    HW2  625   1.499   3.847   2.292
 1350SOL     OW  626   1.726   3.859   2.385
 1350SOL    HW1  627   1.799   3.842   2.318
 1350SOL    HW2  628   1.695   3.772   2.423
 1352SOL     OW  629   1.841   3.899   2.825
 1352SOL    HW1  630   1.880   3.814   2.789
 1352SOL    HW2  631   1.743   3.901   2.806
 1374SOL     OW  632   1.824   3.916   3.089
 1374SOL    HW1  633   1.820   3.826   3.133
 1374SOL    HW2  634   1.827   3.905   2.990
 1380SOL     OW  635   1.352   3.776   2.030
 1380SOL    HW1  636   1.387   3.735   1.946
 1380SOL    HW2  637   1.262   3.738   2.050
 1382SOL     OW  638   1.593   3.945   2.744
 1382SOL    HW1  639   1.509   3.944   2.798
 1382SOL    HW2  640   1.595   4.028   2.688
 1474SOL     OW  641   2.431   1.275   1.165
 1474SOL    HW1  642   2.338   1.268   1.128
 1474SOL    HW2  643   2.442   1.364   1.209
 1479SOL     OW  644   2.712   0.798   1.823
 1479SOL    HW1  645   2.708   0.874   1.888
 1479SOL    HW2  646   2.734   0.834   1.732
 1481SOL     OW  647   2.548   1.161   1.803
 1481SOL    HW1  648   2.608   1.240   1.817
 1481SOL    HW2  649   2.462   1.192   1.762
 1482SOL     OW  650   2.197   1.435   1.061
 1482SOL    HW1  651   2.119   1.404   1.008
 1482SOL    HW2  652   2.255   1.493   1.004
 1483SOL     OW  653   3.322   1.505   1.339
 1483SOL    HW1  654   3.346   1.599   1.365
 1483SOL    HW2  655   3.306   1.451   1.421
 1487SOL     OW  656   2.989   1.341   1.690
 1487SOL    HW1  657   3.036   1.341   1.778
 1487SOL    HW2  658   2.941   1.254   1.679
 1490SOL     OW  659   2.482   1.786   1.439
 1490SOL    HW1  660   2.390   1.769   1.474
 1490SOL    HW2  661   2.510   1.878   1.465
 1500SOL     OW  662   3.155   1.228   1.423
 1500SOL    HW1  663   3.192   1.155   1.365
 1500SOL    HW2  664   3.207   1.233   1.508
 1504SOL     OW  665   3.049   1.792   1.616
 1504SOL    HW1  666   3.073   1.852   1.540
 1504SOL    HW2  667   3.056   1.697   1.586
 1517SOL     OW  668   1.992   1.821   1.571
 1517SOL    HW1  669   1.982   1.806   1.670
 1517SOL    HW2  670   1.906   1.857   1.535
 1523SOL     OW  671   2.213   1.801   0.853
 1523SOL    HW1  672   2.263   1.715   0.859
 1523SOL    HW2  673   2.278   1.878   0.850
 1525SOL     OW  674   3.089   1.550   1.506
 1525SOL    HW1  675   3.095   1.473   1.570
 1525SOL    HW2  676   3.037   1.524   1.426
 1528SOL     OW  677   2.323   1.266   1.727
 1528SOL    HW1  678   2.273   1.267   1.641
 1528SOL    HW2  679   2.260   1.248   1.803
 1534SOL     OW  680   2.111   1.785   1.241
 1534SOL    HW1  681   2.168   1.720   1.291
 1534SOL    HW2  682   2.095   1.752   1.148
 1535SOL     OW  683   2.802   1.698   0.904
 1535SOL    HW1  684   2.882   1.641   0.925
 1535SOL    HW2  685   2.753   1.658   0.827
 1540SOL     OW  686   2.750   1.514   1.195
 1540SOL    HW1  687   2.727   1.489   1.101
 1540SOL    HW2  688   2.811   1.445   1.234
 1565SOL     OW  689   2.926   1.347   1.340
 1565SOL    HW1  690   2.846   1.324   1.395
 1565SOL    HW2  691   3.009   1.321   1.389
 1566SOL     OW  692   3.454   1.629   1.625
 1566SOL    HW1  693   3.481   1.663   1.535
 1566SOL    HW2  694   3.533   1.591   1.671
 1570SOL     OW  695   2.842   1.116   1.719
 1570SOL    HW1  696   2.743   1.122   1.729
 1570SOL    HW2  697   2.865   1.036   1.663
 1574SOL     OW  698   1.926   1.564   1.331
 1574SOL    HW1  699   1.880   1.646   1.297
 1574SOL    HW2  700   2.024   1.583   1.340
 1578SOL     OW  701   3.134   1.445   1.142
 1578SOL    HW1  702   3.181   1.458   1.229
 1578SOL    HW2  703   3.068   1.371   1.151
 1580SOL     OW  704   2.216   1.510   1.329
 1580SOL    HW1  705   2.195   1.466   1.242
 1580SOL    HW2  706   2.313   1.536   1.332
 1589SOL     OW  707   1.899   1.310   1.282
 1589SOL    HW1  708   1.952   1.261   1.350
 1589SOL    HW2  709   1.921   1.408   1.287
 1595SOL     OW  710   2.842   1.573   1.700
 1595SOL    HW1  711   2.822   1.617   1.612
 1595SOL    HW2  712   2.881   1.482   1.684
 1596SOL     OW  713   3.721   1.518   1.605
 1596SOL    HW1  714   3.735   1.545   1.510
 1596SOL    HW2  715   3.804   1.540   1.658
 1597SOL     OW  716   2.212   0.898   1.804
 1597SOL    HW1  717   2.288   0.942   1.852
 1597SOL    HW2  718   2.247   0.851   1.722
 1606SOL     OW  719   1.950   1.801   0.927
 1606SOL    HW1  720   1.908   1.715   0.900
 1606SOL    HW2  721   2.044   1.804   0.893
 1607SOL     OW  722   2.366   1.568   0.910
 1607SOL    HW1  723   2.432   1.642   0.919
 1607SOL    HW2  724   2.410   1.489   0.868
 1614SOL     OW  725   2.114   1.564   1.744
 1614SOL    HW1  726   2.084   1.621   1.820
 1614SOL    HW2  727   2.107   1.467   1.770
 1616SOL     OW  728   2.792   1.678   1.465
 1616SOL    HW1  729   2.768   1.660   1.370
 1616SOL    HW2  730   2.822   1.772   1.475
 1618SOL     OW  731   2.021   1.137   1.466
 1618SOL    HW1  732   2.043   1.076   1.542
 1618SOL    HW2  733   2.031   1.088   1.380
 1622SOL     OW  734   3.114   1.731   1.128
 1622SOL    HW1  735   3.198   1.736   1.074
 1622SOL    HW2  736   3.091   1.635   1.146
 1624SOL     OW  737   2.550   1.662   1.716
 1624SOL    HW1  738   2.494   1.743   1.725
 1624SOL    HW2  739   2.602   1.666   1.630
 1628SOL     OW  740   1.992   1.794   1.851
 1628SOL    HW1  741   1.951   1.720   1.904
 1628SOL    HW2  742   2.056   1.845   1.909
 1630SOL     OW  743   2.692   1.273   1.422
 1630SOL    HW1  744   2.687   1.306   1.517
 1630SOL    HW2  745   2.606   1.292   1.376
 1632SOL     OW  746   3.512   1.720   1.394
 1632SOL    HW1  747   3.565   1.730   1.310
 1632SOL    HW2  748   3.485   1.810   1.428
 1639SOL     OW  749   2.234   1.288   1.490
 1639SOL    HW1  750   2.221   1.381   1.456
 1639SOL    HW2  751   2.150   1.236   1.477
 1646SOL     OW  752   1.967   1.013   1.726
 1646SOL    HW1  753   1.890   0.980   1.780
 1646SOL    HW2  754   2.052   0.983   1.768
 1654SOL     OW  755   3.312   1.220   1.633
 1654SOL    HW1  756   3.303   1.210   1.732
 1654SOL    HW2  757   3.408   1.213   1.607
 1655SOL     OW  758   2.252   1.741   1.560
 1655SOL    HW1  759   2.161   1.782   1.558
 1655SOL    HW2  760   2.245   1.647   1.592
 1662SOL     OW  761   2.523   1.790   0.953
 1662SOL    HW1  762   2.477   1.878   0.940
 1662SOL    HW2  763   2.622   1.802   0.946
 1666SOL     OW  764   2.083   1.314   1.844
 1666SOL    HW1  765   2.018   1.241   1.823
 1666SOL    HW2  766   2.087   1.328   1.942
 1668SOL     OW  767   2.534   1.391   1.624
 1668SOL    HW1  768   2.456   1.341   1.662
 1668SOL    HW2  769   2.531   1.486   1.655
 1677SOL     OW  770   2.480   1.567   1.284
 1677SOL    HW1  771   2.475   1.649   1.341
 1677SOL    HW2  772   2.569   1.564   1.239
 1686SOL     OW  773   2.431   1.275   3.027
 1686SOL    HW1  774   2.338   1.268   2.990
 1686SOL    HW2  775   2.442   1.364   3.071
 1687SOL     OW  776   3.417   1.511   2.565
 1687SOL    HW1  777   3.360   1.495   2.646
 1687SOL    HW2  778   3.358   1.521   2.485
 1690SOL     OW  779   2.630   1.144   2.885
 1690SOL    HW1  780   2.552   1.161   2.945
 1690SOL    HW2  781   2.664   1.231   2.849
 1692SOL     OW  782   2.547   1.012   2.527
 1692SOL    HW1  783   2.616   0.996   2.597
 1692SOL    HW2  784   2.474   1.069   2.565
 1693SOL     OW  785   2.548   1.161   3.665
 1693SOL    HW1  786   2.608   1.240   3.679
 1693SOL    HW2  787   2.462   1.192   3.624
 1694SOL     OW  788   2.197   1.435   2.923
 1694SOL    HW1  789   2.119   1.404   2.870
 1694SOL    HW2  790   2.255   1.493   2.866
 1695SOL     OW  791   3.322   1.505   3.201
 1695SOL    HW1  792   3.346   1.599   3.227
 1695SOL    HW2  793   3.306   1.451   3.283
 1698SOL     OW  794   2.093   1.713   2.345
 1698SOL    HW1  795   2.127   1.790   2.399
 1698SOL    HW2  796   2.137   1.713   2.255
 1699SOL     OW  797   2.989   1.341   3.552
 1699SOL    HW1  798   3.036   1.341   3.640
 1699SOL    HW2  799   2.941   1.254   3.541
 1700SOL     OW  800   2.092   1.434   2.400
 1700SOL    HW1  801   2.066   1.530   2.400
 1700SOL    HW2  802   2.021   1.380   2.445
 1701SOL     OW  803   2.102   1.091   2.748
 1701SOL    HW1  804   2.116   1.007   2.800
 1701SOL    HW2  805   2.047   1.155   2.803
 1702SOL     OW  806   2.482   1.786   3.301
 1702SOL    HW1  807   2.390   1.769   3.336
 1702SOL    HW2  808   2.510   1.878   3.327
 1703SOL     OW  809   2.468   0.964   1.985
 1703SOL    HW1  810   2.475   1.048   1.931
 1703SOL    HW2  811   2.514   0.977   2.073
 1706SOL     OW  812   3.704   1.767   2.221
 1706SOL    HW1  813   3.758   1.738   2.301
 1706SOL    HW2  814   3.734   1.857   2.192
 1707SOL     OW  815   1.889   1.596   1.979
 1707SOL    HW1  816   1.870   1.500   2.000
 1707SOL    HW2  817   1.856   1.654   2.054
 1709SOL     OW  818   3.503   1.108   2.294
 1709SOL    HW1  819   3.589   1.110   2.242
 1709SOL    HW2  820   3.517   1.155   2.382
 1711SOL     OW  821   2.475   1.365   2.588
 1711SOL    HW1  822   2.426   1.278   2.597
 1711SOL    HW2  823   2.452   1.408   2.501
 1712SOL     OW  824   3.155   1.228   3.285
 1712SOL    HW1  825   3.192   1.155   3.227
 1712SOL    HW2  826   3.207   1.233   3.370
 1714SOL     OW  827   2.059   0.976   3.126
 1714SOL    HW1  828   2.148   0.931   3.112
 1714SOL    HW2  829   1.986   0.911   3.107
 1715SOL     OW  830   3.387   0.999   2.052
 1715SOL    HW1  831   3.324   0.923   2.065
 1715SOL    HW2  832   3.435   1.017   2.138
 1716SOL     OW  833   3.049   1.792   3.478
 1716SOL    HW1  834   3.073   1.852   3.402
 1716SOL    HW2  835   3.056   1.697   3.448
 1718SOL     OW  836   3.328   1.417   2.815
 1718SOL    HW1  837   3.269   1.423   2.895
 1718SOL    HW2  838   3.313   1.329   2.769
 1719SOL     OW  839   3.529   1.714   2.434
 1719SOL    HW1  840   3.488   1.691   2.346
 1719SOL    HW2  841   3.511   1.640   2.499
 1720SOL     OW  842   2.460   0.729   2.132
 1720SOL    HW1  843   2.484   0.798   2.064
 1720SOL    HW2  844   2.382   0.762   2.186
 1722SOL     OW  845   3.438   1.662   2.169
 1722SOL    HW1  846   3.527   1.708   2.172
 1722SOL    HW2  847   3.417   1.638   2.074
 1728SOL     OW  848   1.938   0.811   2.651
 1728SOL    HW1  849   2.037   0.799   2.660
 1728SOL    HW2  850   1.914   0.906   2.672
 1729SOL     OW  851   1.992   1.821   3.433
 1729SOL    HW1  852   1.982   1.806   3.532
 1729SOL    HW2  853   1.906   1.857   3.397
 1732SOL     OW  854   3.224   1.144   2.407
 1732SOL    HW1  855   3.307   1.115   2.359
 1732SOL    HW2  856   3.175   1.211   2.351
 1734SOL     OW  857   2.870   1.456   2.339
 1734SOL    HW1  858   2.824   1.528   2.287
 1734SOL    HW2  859   2.866   1.476   2.437
 1735SOL     OW  860   2.213   1.801   2.715
 1735SOL    HW1  861   2.263   1.715   2.721
 1735SOL    HW2  862   2.278   1.878   2.712
 1737SOL     OW  863   3.089   1.550   3.368
 1737SOL    HW1  864   3.095   1.473   3.432
 1737SOL    HW2  865   3.037   1.524   3.288
 1738SOL     OW  866   2.183   0.943   2.104
 1738SOL    HW1  867   2.265   0.982   2.062
 1738SOL    HW2  868   2.156   0.861   2.055
 1740SOL     OW  869   2.323   1.266   3.589
 1740SOL    HW1  870   2.273   1.267   3.503
 1740SOL    HW2  871   2.260   1.248   3.665
 1741SOL     OW  872   2.973   1.776   2.099
 1741SOL    HW1  873   2.913   1.714   2.149
 1741SOL    HW2  874   3.004   1.732   2.014
 1743SOL     OW  875   3.494   1.377   1.943
 1743SOL    HW1  876   3.462   1.471   1.933
 1743SOL    HW2  877   3.418   1.314   1.931
 1744SOL     OW  878   2.326   1.743   2.185
 1744SOL    HW1  879   2.359   1.782   2.271
 1744SOL    HW2  880   2.402   1.736   2.120
 1746SOL     OW  881   2.111   1.785   3.103
 1746SOL    HW1  882   2.168   1.720   3.153
 1746SOL    HW2  883   2.095   1.752   3.010
 1747SOL     OW  884   2.802   1.698   2.766
 1747SOL    HW1  885   2.882   1.641   2.787
 1747SOL    HW2  886   2.753   1.658   2.689
 1748SOL     OW  887   2.244   0.700   2.342
 1748SOL    HW1  888   2.289   0.610   2.339
 1748SOL    HW2  889   2.150   0.689   2.375
 1752SOL     OW  890   2.750   1.514   3.057
 1752SOL    HW1  891   2.727   1.489   2.963
 1752SOL    HW2  892   2.811   1.445   3.096
 1754SOL     OW  893   2.665   1.402   2.786
 1754SOL    HW1  894   2.755   1.416   2.744
 1754SOL    HW2  895   2.594   1.404   2.715
 1757SOL     OW  896   3.296   1.188   1.903
 1757SOL    HW1  897   3.328   1.112   1.960
 1757SOL    HW2  898   3.204   1.215   1.933
 1761SOL     OW  899   3.089   1.570   2.655
 1761SOL    HW1  900   3.110   1.644   2.590
 1761SOL    HW2  901   3.157   1.570   2.728
 1762SOL     OW  902   2.321   1.152   2.603
 1762SOL    HW1  903   2.250   1.125   2.668
 1762SOL    HW2  904   2.295   1.124   2.510
 1763SOL     OW  905   3.133   1.797   2.453
 1763SOL    HW1  906   3.177   1.861   2.389
 1763SOL    HW2  907   3.083   1.849   2.523
 1769SOL     OW  908   3.291   1.173   2.729
 1769SOL    HW1  909   3.236   1.089   2.722
 1769SOL    HW2  910   3.317   1.202   2.637
 1772SOL     OW  911   2.350   1.385   2.036
 1772SOL    HW1  912   2.263   1.370   2.083
 1772SOL    HW2  913   2.333   1.411   1.941
 1773SOL     OW  914   3.526   1.280   2.519
 1773SOL    HW1  915   3.625   1.288   2.533
 1773SOL    HW2  916   3.481   1.364   2.550
 1777SOL     OW  917   2.926   1.347   3.202
 1777SOL    HW1  918   2.846   1.324   3.257
 1777SOL    HW2  919   3.009   1.321   3.251
 1778SOL     OW  920   3.454   1.629   3.487
 1778SOL    HW1  921   3.481   1.663   3.397
 1778SOL    HW2  922   3.533   1.591   3.533
 1779SOL     OW  923   2.973   1.195   2.962
 1779SOL    HW1  924   2.933   1.239   3.043
 1779SOL    HW2  925   2.932   1.232   2.879
 1780SOL     OW  926   3.500   1.099   2.941
 1780SOL    HW1  927   3.505   1.180   3.000
 1780SOL    HW2  928   3.414   1.101   2.890
 1782SOL     OW  929   2.842   1.116   3.581
 1782SOL    HW1  930   2.743   1.122   3.591
 1782SOL    HW2  931   2.865   1.036   3.525
 1783SOL     OW  932   2.567   1.050   2.230
 1783SOL    HW1  933   2.553   1.057   2.329
 1783SOL    HW2  934   2.651   0.999   2.212
 1784SOL     OW  935   2.272   0.813   3.113
 1784SOL    HW1  936   2.358   0.825   3.163
 1784SOL    HW2  937   2.230   0.726   3.140
 1786SOL     OW  938   1.926   1.564   3.193
 1786SOL    HW1  939   1.880   1.646   3.159
 1786SOL    HW2  940   2.024   1.583   3.202
 1787SOL     OW  941   2.229   1.100   2.363
 1787SOL    HW1  942   2.222   1.183   2.307
 1787SOL    HW2  943   2.233   1.020   2.303
 1789SOL     OW  944   3.114   1.348   2.250
 1789SOL    HW1  945   3.164   1.425   2.290
 1789SOL    HW2  946   3.019   1.350   2.282
 1790SOL     OW  947   3.134   1.445   3.004
 1790SOL    HW1  948   3.181   1.458   3.091
 1790SOL    HW2  949   3.068   1.371   3.013
 1792SOL     OW  950   2.216   1.510   3.191
 1792SOL    HW1  951   2.195   1.466   3.104
 1792SOL    HW2  952   2.313   1.536   3.194
 1797SOL     OW  953   2.435   0.870   2.891
 1797SOL    HW1  954   2.479   0.959   2.882
 1797SOL    HW2  955   2.372   0.870   2.968
 1801SOL     OW  956   1.899   1.310   3.144
 1801SOL    HW1  957   1.952   1.261   3.212
 1801SOL    HW2  958   1.921   1.408   3.149
 1806SOL     OW  959   2.885   0.766   2.828
 1806SOL    HW1  960   2.900   0.787   2.924
 1806SOL    HW2  961   2.855   0.671   2.819
 1807SOL     OW  962   2.842   1.573   3.562
 1807SOL    HW1  963   2.822   1.617   3.474
 1807SOL    HW2  964   2.881   1.482   3.546
 1812SOL     OW  965   2.930   1.333   2.711
 1812SOL    HW1  966   2.937   1.249   2.656
 1812SOL    HW2  967   2.992   1.402   2.675
 1813SOL     OW  968   2.181   0.810   2.811
 1813SOL    HW1  969   2.274   0.846   2.816
 1813SOL    HW2  970   2.175   0.725   2.863
 1817SOL     OW  971   1.870   1.326   2.062
 1817SOL    HW1  972   1.777   1.347   2.031
 1817SOL    HW2  973   1.880   1.227   2.075
 1818SOL     OW  974   1.950   1.801   2.789
 1818SOL    HW1  975   1.908   1.715   2.762
 1818SOL    HW2  976   2.044   1.804   2.755
 1819SOL     OW  977   2.366   1.568   2.772
 1819SOL    HW1  978   2.432   1.642   2.781
 1819SOL    HW2  979   2.410   1.489   2.730
 1826SOL     OW  980   2.114   1.564   3.606
 1826SOL    HW1  981   2.084   1.621   3.682
 1826SOL    HW2  982   2.107   1.467   3.632
 1828SOL     OW  983   2.792   1.678   3.327
 1828SOL    HW1  984   2.768   1.660   3.232
 1828SOL    HW2  985   2.822   1.772   3.337
 1830SOL     OW  986   2.021   1.137   3.328
 1830SOL    HW1  987   2.043   1.076   3.404
 1830SOL    HW2  988   2.031   1.088   3.242
 1831SOL     OW  989   3.209   1.059   3.096
 1831SOL    HW1  990   3.233   0.996   3.022
 1831SOL    HW2  991   3.119   1.099   3.078
 1832SOL     OW  992   3.164   0.855   2.171
 1832SOL    HW1  993   3.078   0.824   2.213
 1832SOL    HW2  994   3.160   0.841   2.072
 1833SOL     OW  995   3.621   1.747   3.016
 1833SOL    HW1  996   3.682   1.777   2.943
 1833SOL    HW2  997   3.583   1.658   2.994
 1834SOL     OW  998   3.114   1.731   2.990
 1834SOL    HW1  999   3.198   1.736   2.936
 1834SOL    HW2 1000   3.091   1.635   3.008
 1835SOL     OW 1001   1.945   1.258   2.884
 1835SOL    HW1 1002   1.940   1.257   2.984
 1835SOL    HW2 1003   1.862   1.217   2.846
 1836SOL     OW 1004   2.550   1.662   3.578
 1836SOL    HW1 1005   2.494   1.743   3.587
 1836SOL    HW2 1006   2.602   1.666   3.492
 1838SOL     OW 1007   3.250   1.573   2.339
 1838SOL    HW1 1008   3.317   1.585   2.265
 1838SOL    HW2 1009   3.210   1.662   2.362
 1839SOL     OW 1010   1.992   1.794   3.713
 1839SOL    HW1 1011   1.951   1.720   3.766
 1839SOL    HW2 1012   2.056   1.845   3.771
 1840SOL     OW 1013   3.142   0.927   2.534
 1840SOL    HW1 1014   3.202   0.846   2.536
 1840SOL    HW2 1015   3.182   0.996   2.474
 1841SOL     OW 1016   2.692   1.273   3.284
 1841SOL    HW1 1017   2.687   1.306   3.379
 1841SOL    HW2 1018   2.606   1.292   3.238
 1842SOL     OW 1019   2.534   1.616   2.016
 1842SOL    HW1 1020   2.543   1.626   1.917
 1842SOL    HW2 1021   2.494   1.527   2.037
 1843SOL     OW 1022   3.512   1.720   3.256
 1843SOL    HW1 1023   3.565   1.730   3.172
 1843SOL    HW2 1024   3.485   1.810   3.290
 1846SOL     OW 1025   3.056   1.612   1.893
 1846SOL    HW1 1026   3.062   1.519   1.930
 1846SOL    HW2 1027   2.997   1.612   1.813
 1847SOL     OW 1028   2.684   1.002   3.234
 1847SOL    HW1 1029   2.724   1.001   3.142
 1847SOL    HW2 1030   2.694   1.094   3.274
 1848SOL     OW 1031   2.778   0.910   2.153
 1848SOL    HW1 1032   2.841   0.948   2.085
 1848SOL    HW2 1033   2.818   0.827   2.192
 1849SOL     OW 1034   3.366   1.607   1.906
 1849SOL    HW1 1035   3.274   1.644   1.913
 1849SOL    HW2 1036   3.404   1.627   1.816
 1850SOL     OW 1037   2.234   1.288   3.352
 1850SOL    HW1 1038   2.221   1.381   3.318
 1850SOL    HW2 1039   2.150   1.236   3.339
 1851SOL     OW 1040   3.476   1.292   3.151
 1851SOL    HW1 1041   3.536   1.295   3.231
 1851SOL    HW2 1042   3.401   1.356   3.164
 1852SOL     OW 1043   2.901   1.098   2.558
 1852SOL    HW1 1044   2.831   1.051   2.612
 1852SOL    HW2 1045   2.960   1.030   2.515
 1854SOL     OW 1046   2.452   1.487   2.353
 1854SOL    HW1 1047   2.494   1.429   2.283
 1854SOL    HW2 1048   2.408   1.566   2.309
 1856SOL     OW 1049   2.117   1.348   2.152
 1856SOL    HW1 1050   2.021   1.349   2.125
 1856SOL    HW2 1051   2.129   1.401   2.236
 1862SOL     OW 1052   3.045   1.335   1.981
 1862SOL    HW1 1053   2.946   1.324   1.983
 1862SOL    HW2 1054   3.079   1.350   2.074
 1864SOL     OW 1055   3.355   1.767   2.821
 1864SOL    HW1 1056   3.388   1.831   2.752
 1864SOL    HW2 1057   3.421   1.761   2.896
 1867SOL     OW 1058   2.252   1.741   3.422
 1867SOL    HW1 1059   2.161   1.782   3.420
 1867SOL    HW2 1060   2.245   1.647   3.454
 1870SOL     OW 1061   2.456   0.745   2.514
 1870SOL    HW1 1062   2.506   0.830   2.495
 1870SOL    HW2 1063   2.368   0.747   2.466
 1873SOL     OW 1064   2.721   1.374   1.878
 1873SOL    HW1 1065   2.675   1.389   1.966
 1873SOL    HW2 1066   2.765   1.459   1.848
 1874SOL     OW 1067   2.523   1.790   2.815
 1874SOL    HW1 1068   2.477   1.878   2.802
 1874SOL    HW2 1069   2.622   1.802   2.808
 1875SOL     OW 1070   2.721   0.956   2.723
 1875SOL    HW1 1071   2.775   0.887   2.771
 1875SOL    HW2 1072   2.689   1.025   2.789
 1876SOL     OW 1073   2.945   0.984   1.949
 1876SOL    HW1 1074   2.922   1.037   1.867
 1876SOL    HW2 1075   3.026   0.928   1.930
 1877SOL     OW 1076   3.723   1.569   2.713
 1877SOL    HW1 1077   3.652   1.557   2.643
 1877SOL    HW2 1078   3.724   1.490   2.773
 1878SOL     OW 1079   2.083   1.314   3.706
 1878SOL    HW1 1080   2.018   1.241   3.685
 1878SOL    HW2 1081   2.087   1.328   3.804
 1879SOL     OW 1082   1.941   1.240   2.515
 1879SOL    HW1 1083   1.940   1.193   2.603
 1879SOL    HW2 1084   2.023   1.212   2.464
 1880SOL     OW 1085   2.534   1.391   3.486
 1880SOL    HW1 1086   2.456   1.341   3.524
 1880SOL    HW2 1087   2.531   1.486   3.517
 1883SOL     OW 1088   3.567   1.487   2.966
 1883SOL    HW1 1089   3.474   1.462   2.939
 1883SOL    HW2 1090   3.593   1.437   3.048
 1885SOL     OW 1091   2.674   1.586   2.549
 1885SOL    HW1 1092   2.706   1.596   2.455
 1885SOL    HW2 1093   2.595   1.524   2.551
 1888SOL     OW 1094   2.632   1.330   2.163
 1888SOL    HW1 1095   2.586   1.243   2.180
 1888SOL    HW2 1096   2.723   1.327   2.204
 1889SOL     OW 1097   2.480   1.567   3.146
 1889SOL    HW1 1098   2.475   1.649   3.203
 1889SOL    HW2 1099   2.569   1.564   3.101
 1893SOL     OW 1100   1.901   1.077   2.162
 1893SOL    HW1 1101   2.000   1.066   2.153
 1893SOL    HW2 1102   1.861   0.991   2.194
 1894SOL     OW 1103   2.737   1.646   2.199
 1894SOL    HW1 1104   2.660   1.611   2.145
 1894SOL    HW2 1105   2.705   1.717   2.261
 1911SOL     OW 1106   1.889   1.596   3.841
 1911SOL    HW1 1107   1.870   1.500   3.862
 1911SOL    HW2 1108   1.856   1.654   3.916
 1933SOL     OW 1109   2.973   1.776   3.961
 1933SOL    HW1 1110   2.913   1.714   4.011
 1933SOL    HW2 1111   3.004   1.732   3.876
 1935SOL     OW 1112   2.326   1.743   4.047
 1935SOL    HW1 1113   2.359   1.782   4.133
 1935SOL    HW2 1114   2.402   1.736   3.982
 1956SOL     OW 1115   2.350   1.385   3.898
 1956SOL    HW1 1116   2.263   1.370   3.945
 1956SOL    HW2 1117   2.333   1.411   3.803
 1994SOL     OW 1118   2.534   1.616   3.878
 1994SOL    HW1 1119   2.543   1.626   3.779
 1994SOL    HW2 1120   2.494   1.527   3.899
 1997SOL     OW 1121   3.056   1.612   3.755
 1997SOL    HW1 1122   3.062   1.519   3.792
 1997SOL    HW2 1123   2.997   1.612   3.675
 2011SOL     OW 1124   2.721   1.374   3.740
 2011SOL    HW1 1125   2.675   1.389   3.828
 2011SOL    HW2 1126   2.765   1.459   3.710
 2028SOL     OW 1127   2.087   2.137   0.996
 2028SOL    HW1 1128   2.122   2.120   1.088
 2028SOL    HW2 1129   1.999   2.092   0.984
 2030SOL     OW 1130   2.431   3.137   1.165
 2030SOL    HW1 1131   2.338   3.130   1.128
 2030SOL    HW2 1132   2.442   3.226   1.209
 2034SOL     OW 1133   2.630   3.006   1.023
 2034SOL    HW1 1134   2.552   3.023   1.083
 2034SOL    HW2 1135   2.664   3.093   0.987
 2035SOL     OW 1136   2.712   2.660   1.823
 2035SOL    HW1 1137   2.708   2.736   1.888
 2035SOL    HW2 1138   2.734   2.696   1.732
 2037SOL     OW 1139   2.548   3.023   1.803
 2037SOL    HW1 1140   2.608   3.102   1.817
 2037SOL    HW2 1141   2.462   3.054   1.762
 2038SOL     OW 1142   2.197   3.297   1.061
 2038SOL    HW1 1143   2.119   3.266   1.008
 2038SOL    HW2 1144   2.255   3.355   1.004
 2039SOL     OW 1145   3.322   3.367   1.339
 2039SOL    HW1 1146   3.346   3.461   1.365
 2039SOL    HW2 1147   3.306   3.313   1.421
 2040SOL     OW 1148   2.300   2.254   1.499
 2040SOL    HW1 1149   2.382   2.198   1.508
 2040SOL    HW2 1150   2.219   2.196   1.503
 2043SOL     OW 1151   2.989   3.203   1.690
 2043SOL    HW1 1152   3.036   3.203   1.778
 2043SOL    HW2 1153   2.941   3.116   1.679
 2045SOL     OW 1154   2.102   2.953   0.886
 2045SOL    HW1 1155   2.116   2.869   0.938
 2045SOL    HW2 1156   2.047   3.017   0.941
 2046SOL     OW 1157   2.482   3.648   1.439
 2046SOL    HW1 1158   2.390   3.631   1.474
 2046SOL    HW2 1159   2.510   3.740   1.465
 2048SOL     OW 1160   3.456   1.976   1.480
 2048SOL    HW1 1161   3.438   2.043   1.408
 2048SOL    HW2 1162   3.453   2.022   1.569
 2054SOL     OW 1163   1.975   2.599   1.597
 2054SOL    HW1 1164   2.063   2.586   1.642
 2054SOL    HW2 1165   1.962   2.696   1.575
 2056SOL     OW 1166   3.155   3.090   1.423
 2056SOL    HW1 1167   3.192   3.017   1.365
 2056SOL    HW2 1168   3.207   3.095   1.508
 2058SOL     OW 1169   2.059   2.838   1.264
 2058SOL    HW1 1170   2.148   2.793   1.250
 2058SOL    HW2 1171   1.986   2.773   1.245
 2060SOL     OW 1172   3.049   3.654   1.616
 2060SOL    HW1 1173   3.073   3.714   1.540
 2060SOL    HW2 1174   3.056   3.559   1.586
 2061SOL     OW 1175   2.179   2.113   1.801
 2061SOL    HW1 1176   2.250   2.184   1.807
 2061SOL    HW2 1177   2.091   2.152   1.829
 2065SOL     OW 1178   3.143   2.207   0.944
 2065SOL    HW1 1179   3.057   2.157   0.931
 2065SOL    HW2 1180   3.205   2.153   1.000
 2067SOL     OW 1181   2.669   2.467   1.465
 2067SOL    HW1 1182   2.622   2.464   1.554
 2067SOL    HW2 1183   2.618   2.412   1.399
 2068SOL     OW 1184   3.256   2.331   1.674
 2068SOL    HW1 1185   3.236   2.374   1.762
 2068SOL    HW2 1186   3.334   2.269   1.683
 2069SOL     OW 1187   2.835   2.752   1.572
 2069SOL    HW1 1188   2.881   2.668   1.543
 2069SOL    HW2 1189   2.779   2.786   1.497
 2070SOL     OW 1190   2.853   2.272   1.242
 2070SOL    HW1 1191   2.776   2.306   1.296
 2070SOL    HW2 1192   2.819   2.221   1.163
 2072SOL     OW 1193   1.938   2.673   0.789
 2072SOL    HW1 1194   2.037   2.661   0.798
 2072SOL    HW2 1195   1.914   2.768   0.810
 2073SOL     OW 1196   1.992   3.683   1.571
 2073SOL    HW1 1197   1.982   3.668   1.670
 2073SOL    HW2 1198   1.906   3.719   1.535
 2075SOL     OW 1199   3.581   2.447   1.831
 2075SOL    HW1 1200   3.555   2.536   1.795
 2075SOL    HW2 1201   3.579   2.379   1.758
 2077SOL     OW 1202   2.412   2.058   0.885
 2077SOL    HW1 1203   2.407   2.053   0.985
 2077SOL    HW2 1204   2.414   2.154   0.856
 2081SOL     OW 1205   3.089   3.412   1.506
 2081SOL    HW1 1206   3.095   3.335   1.570
 2081SOL    HW2 1207   3.037   3.386   1.426
 2084SOL     OW 1208   2.323   3.128   1.727
 2084SOL    HW1 1209   2.273   3.129   1.641
 2084SOL    HW2 1210   2.260   3.110   1.803
 2086SOL     OW 1211   2.064   2.147   1.498
 2086SOL    HW1 1212   1.984   2.207   1.485
 2086SOL    HW2 1213   2.054   2.098   1.584
 2090SOL     OW 1214   2.111   3.647   1.241
 2090SOL    HW1 1215   2.168   3.582   1.291
 2090SOL    HW2 1216   2.095   3.614   1.148
 2093SOL     OW 1217   3.409   2.084   1.729
 2093SOL    HW1 1218   3.404   2.121   1.821
 2093SOL    HW2 1219   3.337   2.015   1.717
 2095SOL     OW 1220   2.643   2.126   1.749
 2095SOL    HW1 1221   2.710   2.065   1.792
 2095SOL    HW2 1222   2.570   2.145   1.814
 2096SOL     OW 1223   2.750   3.376   1.195
 2096SOL    HW1 1224   2.727   3.351   1.101
 2096SOL    HW2 1225   2.811   3.307   1.234
 2097SOL     OW 1226   3.213   2.452   1.433
 2097SOL    HW1 1227   3.241   2.409   1.518
 2097SOL    HW2 1228   3.238   2.548   1.434
 2098SOL     OW 1229   2.665   3.264   0.924
 2098SOL    HW1 1230   2.755   3.278   0.882
 2098SOL    HW2 1231   2.594   3.266   0.853
 2099SOL     OW 1232   2.784   2.365   0.899
 2099SOL    HW1 1233   2.759   2.356   0.803
 2099SOL    HW2 1234   2.832   2.283   0.930
 2103SOL     OW 1235   2.938   2.545   1.464
 2103SOL    HW1 1236   2.858   2.484   1.467
 2103SOL    HW2 1237   3.019   2.492   1.440
 2108SOL     OW 1238   1.940   2.418   1.386
 2108SOL    HW1 1239   2.032   2.417   1.345
 2108SOL    HW2 1240   1.934   2.492   1.453
 2109SOL     OW 1241   2.423   2.084   1.147
 2109SOL    HW1 1242   2.461   2.000   1.184
 2109SOL    HW2 1243   2.335   2.103   1.191
 2113SOL     OW 1244   3.328   2.452   0.992
 2113SOL    HW1 1245   3.298   2.357   0.999
 2113SOL    HW2 1246   3.401   2.468   1.058
 2119SOL     OW 1247   3.616   3.085   1.588
 2119SOL    HW1 1248   3.707   3.046   1.575
 2119SOL    HW2 1249   3.624   3.181   1.612
 2120SOL     OW 1250   2.926   3.209   1.340
 2120SOL    HW1 1251   2.846   3.186   1.395
 2120SOL    HW2 1252   3.009   3.183   1.389
 2121SOL     OW 1253   3.454   3.491   1.625
 2121SOL    HW1 1254   3.481   3.525   1.535
 2121SOL    HW2 1255   3.533   3.453   1.671
 2122SOL     OW 1256   2.973   3.057   1.100
 2122SOL    HW1 1257   2.933   3.101   1.181
 2122SOL    HW2 1258   2.932   3.094   1.017
 2124SOL     OW 1259   2.777   1.951   1.402
 2124SOL    HW1 1260   2.802   1.931   1.307
 2124SOL    HW2 1261   2.849   2.007   1.444
 2125SOL     OW 1262   2.842   2.978   1.719
 2125SOL    HW1 1263   2.743   2.984   1.729
 2125SOL    HW2 1264   2.865   2.898   1.663
 2127SOL     OW 1265   2.272   2.675   1.251
 2127SOL    HW1 1266   2.358   2.687   1.301
 2127SOL    HW2 1267   2.230   2.588   1.278
 2128SOL     OW 1268   3.136   2.248   1.262
 2128SOL    HW1 1269   3.157   2.322   1.326
 2128SOL    HW2 1270   3.047   2.265   1.219
 2129SOL     OW 1271   1.926   3.426   1.331
 2129SOL    HW1 1272   1.880   3.508   1.297
 2129SOL    HW2 1273   2.024   3.445   1.340
 2131SOL     OW 1274   2.428   2.399   0.865
 2131SOL    HW1 1275   2.440   2.465   0.791
 2131SOL    HW2 1276   2.474   2.433   0.948
 2133SOL     OW 1277   3.134   3.307   1.142
 2133SOL    HW1 1278   3.181   3.320   1.229
 2133SOL    HW2 1279   3.068   3.233   1.151
 2135SOL     OW 1280   2.216   3.372   1.329
 2135SOL    HW1 1281   2.195   3.328   1.242
 2135SOL    HW2 1282   2.313   3.398   1.332
 2136SOL     OW 1283   2.264   2.613   1.598
 2136SOL    HW1 1284   2.332   2.668   1.551
 2136SOL    HW2 1285   2.304   2.525   1.625
 2137SOL     OW 1286   3.449   2.641   1.670
 2137SOL    HW1 1287   3.357   2.679   1.665
 2137SOL    HW2 1288   3.509   2.688   1.605
 2138SOL     OW 1289   2.875   1.967   1.770
 2138SOL    HW1 1290   2.881   2.052   1.718
 2138SOL    HW2 1291   2.907   1.891   1.713
 2139SOL     OW 1292   2.366   1.912   1.740
 2139SOL    HW1 1293   2.324   1.855   1.670
 2139SOL    HW2 1294   2.300   1.981   1.772
 2140SOL     OW 1295   2.435   2.732   1.029
 2140SOL    HW1 1296   2.479   2.821   1.020
 2140SOL    HW2 1297   2.372   2.732   1.106
 2141SOL     OW 1298   3.222   2.724   1.045
 2141SOL    HW1 1299   3.147   2.724   0.979
 2141SOL    HW2 1300   3.259   2.632   1.054
 2143SOL     OW 1301   2.169   2.075   1.231
 2143SOL    HW1 1302   2.146   2.112   1.321
 2143SOL    HW2 1303   2.139   1.980   1.225
 2144SOL     OW 1304   1.899   3.172   1.282
 2144SOL    HW1 1305   1.952   3.123   1.350
 2144SOL    HW2 1306   1.921   3.270   1.287
 2145SOL     OW 1307   2.594   2.496   1.064
 2145SOL    HW1 1308   2.653   2.470   0.988
 2145SOL    HW2 1309   2.566   2.592   1.053
 2146SOL     OW 1310   3.590   2.797   1.854
 2146SOL    HW1 1311   3.544   2.790   1.765
 2146SOL    HW2 1312   3.528   2.841   1.920
 2149SOL     OW 1313   2.885   2.628   0.966
 2149SOL    HW1 1314   2.900   2.649   1.062
 2149SOL    HW2 1315   2.855   2.533   0.957
 2150SOL     OW 1316   2.842   3.435   1.700
 2150SOL    HW1 1317   2.822   3.479   1.612
 2150SOL    HW2 1318   2.881   3.344   1.684
 2151SOL     OW 1319   3.721   3.380   1.605
 2151SOL    HW1 1320   3.735   3.407   1.510
 2151SOL    HW2 1321   3.804   3.402   1.658
 2152SOL     OW 1322   2.212   2.760   1.804
 2152SOL    HW1 1323   2.288   2.804   1.852
 2152SOL    HW2 1324   2.247   2.713   1.722
 2156SOL     OW 1325   2.181   2.672   0.949
 2156SOL    HW1 1326   2.274   2.708   0.954
 2156SOL    HW2 1327   2.175   2.587   1.001
 2157SOL     OW 1328   2.201   2.371   1.006
 2157SOL    HW1 1329   2.149   2.288   0.989
 2157SOL    HW2 1330   2.278   2.376   0.942
 2158SOL     OW 1331   3.000   2.242   1.678
 2158SOL    HW1 1332   2.955   2.305   1.742
 2158SOL    HW2 1333   3.093   2.273   1.661
 2159SOL     OW 1334   3.022   2.069   1.477
 2159SOL    HW1 1335   3.022   2.133   1.554
 2159SOL    HW2 1336   3.050   2.117   1.394
 2163SOL     OW 1337   2.864   2.658   1.238
 2163SOL    HW1 1338   2.905   2.626   1.324
 2163SOL    HW2 1339   2.768   2.631   1.235
 2164SOL     OW 1340   1.902   2.406   1.114
 2164SOL    HW1 1341   1.987   2.373   1.073
 2164SOL    HW2 1342   1.915   2.421   1.212
 2165SOL     OW 1343   2.051   2.382   1.722
 2165SOL    HW1 1344   2.110   2.342   1.652
 2165SOL    HW2 1345   1.993   2.453   1.681
 2166SOL     OW 1346   3.231   2.812   1.660
 2166SOL    HW1 1347   3.270   2.901   1.680
 2166SOL    HW2 1348   3.241   2.792   1.563
 2168SOL     OW 1349   3.519   2.466   1.206
 2168SOL    HW1 1350   3.481   2.397   1.268
 2168SOL    HW2 1351   3.601   2.430   1.162
 2169SOL     OW 1352   2.114   3.426   1.744
 2169SOL    HW1 1353   2.084   3.483   1.820
 2169SOL    HW2 1354   2.107   3.329   1.770
 2170SOL     OW 1355   2.533   2.326   1.269
 2170SOL    HW1 1356   2.499   2.237   1.239
 2170SOL    HW2 1357   2.559   2.380   1.189
 2171SOL     OW 1358   2.792   3.540   1.465
 2171SOL    HW1 1359   2.768   3.522   1.370
 2171SOL    HW2 1360   2.822   3.634   1.475
 2173SOL     OW 1361   2.021   2.999   1.466
 2173SOL    HW1 1362   2.043   2.938   1.542
 2173SOL    HW2 1363   2.031   2.950   1.380
 2174SOL     OW 1364   3.209   2.921   1.234
 2174SOL    HW1 1365   3.233   2.858   1.160
 2174SOL    HW2 1366   3.119   2.961   1.216
 2178SOL     OW 1367   1.945   3.120   1.022
 2178SOL    HW1 1368   1.940   3.119   1.122
 2178SOL    HW2 1369   1.862   3.079   0.984
 2179SOL     OW 1370   2.550   3.524   1.716
 2179SOL    HW1 1371   2.494   3.605   1.725
 2179SOL    HW2 1372   2.602   3.528   1.630
 2183SOL     OW 1373   1.992   3.656   1.851
 2183SOL    HW1 1374   1.951   3.582   1.904
 2183SOL    HW2 1375   2.056   3.707   1.909
 2185SOL     OW 1376   2.692   3.135   1.422
 2185SOL    HW1 1377   2.687   3.168   1.517
 2185SOL    HW2 1378   2.606   3.154   1.376
 2189SOL     OW 1379   2.125   2.188   0.720
 2189SOL    HW1 1380   2.046   2.239   0.686
 2189SOL    HW2 1381   2.116   2.173   0.818
 2191SOL     OW 1382   2.684   2.864   1.372
 2191SOL    HW1 1383   2.724   2.863   1.280
 2191SOL    HW2 1384   2.694   2.956   1.412
 2194SOL     OW 1385   2.234   3.150   1.490
 2194SOL    HW1 1386   2.221   3.243   1.456
 2194SOL    HW2 1387   2.150   3.098   1.477
 2195SOL     OW 1388   3.476   3.154   1.289
 2195SOL    HW1 1389   3.536   3.157   1.369
 2195SOL    HW2 1390   3.401   3.218   1.302
 2197SOL     OW 1391   2.876   2.098   0.971
 2197SOL    HW1 1392   2.868   2.062   0.878
 2197SOL    HW2 1393   2.874   2.022   1.036
 2199SOL     OW 1394   3.571   2.247   1.381
 2199SOL    HW1 1395   3.644   2.316   1.385
 2199SOL    HW2 1396   3.599   2.172   1.322
 2201SOL     OW 1397   1.967   2.875   1.726
 2201SOL    HW1 1398   1.890   2.842   1.780
 2201SOL    HW2 1399   2.052   2.845   1.768
 2202SOL     OW 1400   2.534   2.065   1.489
 2202SOL    HW1 1401   2.624   2.049   1.449
 2202SOL    HW2 1402   2.542   2.070   1.588
 2203SOL     OW 1403   3.302   2.718   1.398
 2203SOL    HW1 1404   3.245   2.770   1.335
 2203SOL    HW2 1405   3.398   2.730   1.374
 2206SOL     OW 1406   2.475   2.704   1.431
 2206SOL    HW1 1407   2.531   2.785   1.414
 2206SOL    HW2 1408   2.534   2.624   1.434
 2208SOL     OW 1409   2.578   2.427   1.708
 2208SOL    HW1 1410   2.597   2.492   1.782
 2208SOL    HW2 1411   2.638   2.347   1.717
 2209SOL     OW 1412   3.312   3.082   1.633
 2209SOL    HW1 1413   3.303   3.072   1.732
 2209SOL    HW2 1414   3.408   3.075   1.607
 2210SOL     OW 1415   2.252   3.603   1.560
 2210SOL    HW1 1416   2.161   3.644   1.558
 2210SOL    HW2 1417   2.245   3.509   1.592
 2211SOL     OW 1418   3.536   2.745   1.254
 2211SOL    HW1 1419   3.509   2.656   1.217
 2211SOL    HW2 1420   3.537   2.813   1.181
 2214SOL     OW 1421   3.639   2.204   1.642
 2214SOL    HW1 1422   3.622   2.235   1.548
 2214SOL    HW2 1423   3.555   2.167   1.680
 2215SOL     OW 1424   3.592   2.796   1.517
 2215SOL    HW1 1425   3.630   2.887   1.532
 2215SOL    HW2 1426   3.584   2.779   1.418
 2218SOL     OW 1427   2.721   2.818   0.861
 2218SOL    HW1 1428   2.775   2.749   0.909
 2218SOL    HW2 1429   2.689   2.887   0.927
 2221SOL     OW 1430   2.083   3.176   1.844
 2221SOL    HW1 1431   2.018   3.103   1.823
 2221SOL    HW2 1432   2.087   3.190   1.942
 2223SOL     OW 1433   2.534   3.253   1.624
 2223SOL    HW1 1434   2.456   3.203   1.662
 2223SOL    HW2 1435   2.531   3.348   1.655
 2224SOL     OW 1436   3.686   2.054   1.227
 2224SOL    HW1 1437   3.682   1.964   1.271
 2224SOL    HW2 1438   3.689   2.043   1.128
 2227SOL     OW 1439   2.179   2.409   1.280
 2227SOL    HW1 1440   2.217   2.350   1.352
 2227SOL    HW2 1441   2.219   2.383   1.192
 2229SOL     OW 1442   3.286   2.076   1.112
 2229SOL    HW1 1443   3.338   2.011   1.167
 2229SOL    HW2 1444   3.237   2.139   1.173
 2230SOL     OW 1445   2.863   1.896   1.154
 2230SOL    HW1 1446   2.800   1.824   1.123
 2230SOL    HW2 1447   2.956   1.860   1.154
 2232SOL     OW 1448   2.480   3.429   1.284
 2232SOL    HW1 1449   2.475   3.511   1.341
 2232SOL    HW2 1450   2.569   3.426   1.239
 2238SOL     OW 1451   2.092   2.490   1.975
 2238SOL    HW1 1452   1.999   2.488   2.012
 2238SOL    HW2 1453   2.093   2.451   1.883
 2239SOL     OW 1454   2.087   2.137   2.858
 2239SOL    HW1 1455   2.122   2.120   2.950
 2239SOL    HW2 1456   1.999   2.092   2.846
 2240SOL     OW 1457   1.881   2.230   2.509
 2240SOL    HW1 1458   1.799   2.273   2.548
 2240SOL    HW2 1459   1.853   2.157   2.446
 2241SOL     OW 1460   2.431   3.137   3.027
 2241SOL    HW1 1461   2.338   3.130   2.990
 2241SOL    HW2 1462   2.442   3.226   3.071
 2242SOL     OW 1463   3.417   3.373   2.565
 2242SOL    HW1 1464   3.360   3.357   2.646
 2242SOL    HW2 1465   3.358   3.383   2.485
 2243SOL     OW 1466   2.997   2.565   2.579
 2243SOL    HW1 1467   3.054   2.643   2.554
 2243SOL    HW2 1468   2.937   2.591   2.655
 2244SOL     OW 1469   3.617   2.469   2.093
 2244SOL    HW1 1470   3.605   2.456   1.994
 2244SOL    HW2 1471   3.587   2.388   2.142
 2245SOL     OW 1472   2.630   3.006   2.885
 2245SOL    HW1 1473   2.552   3.023   2.945
 2245SOL    HW2 1474   2.664   3.093   2.849
 2246SOL     OW 1475   2.712   2.660   3.685
 2246SOL    HW1 1476   2.708   2.736   3.750
 2246SOL    HW2 1477   2.734   2.696   3.594
 2247SOL     OW 1478   2.547   2.874   2.527
 2247SOL    HW1 1479   2.616   2.858   2.597
 2247SOL    HW2 1480   2.474   2.931   2.565
 2248SOL     OW 1481   2.548   3.023   3.665
 2248SOL    HW1 1482   2.608   3.102   3.679
 2248SOL    HW2 1483   2.462   3.054   3.624
 2249SOL     OW 1484   2.197   3.297   2.923
 2249SOL    HW1 1485   2.119   3.266   2.870
 2249SOL    HW2 1486   2.255   3.355   2.866
 2250SOL     OW 1487   3.322   3.367   3.201
 2250SOL    HW1 1488   3.346   3.461   3.227
 2250SOL    HW2 1489   3.306   3.313   3.283
 2251SOL     OW 1490   2.300   2.254   3.361
 2251SOL    HW1 1491   2.382   2.198   3.370
 2251SOL    HW2 1492   2.219   2.196   3.365
 2252SOL     OW 1493   3.465   2.309   2.599
 2252SOL    HW1 1494   3.391   2.355   2.549
 2252SOL    HW2 1495   3.516   2.377   2.652
 2253SOL     OW 1496   2.093   3.575   2.345
 2253SOL    HW1 1497   2.127   3.652   2.399
 2253SOL    HW2 1498   2.137   3.575   2.255
 2254SOL     OW 1499   2.989   3.203   3.552
 2254SOL    HW1 1500   3.036   3.203   3.640
 2254SOL    HW2 1501   2.941   3.116   3.541
 2255SOL     OW 1502   2.092   3.296   2.400
 2255SOL    HW1 1503   2.066   3.392   2.400
 2255SOL    HW2 1504   2.021   3.242   2.445
 2256SOL     OW 1505   2.102   2.953   2.748
 2256SOL    HW1 1506   2.116   2.869   2.800
 2256SOL    HW2 1507   2.047   3.017   2.803
 2257SOL     OW 1508   2.482   3.648   3.301
 2257SOL    HW1 1509   2.390   3.631   3.336
 2257SOL    HW2 1510   2.510   3.740   3.327
 2258SOL     OW 1511   2.468   2.826   1.985
 2258SOL    HW1 1512   2.475   2.910   1.931
 2258SOL    HW2 1513   2.514   2.839   2.073
 2259SOL     OW 1514   3.456   1.976   3.342
 2259SOL    HW1 1515   3.438   2.043   3.270
 2259SOL    HW2 1516   3.453   2.022   3.431
 2260SOL     OW 1517   1.984   2.505   2.425
 2260SOL    HW1 1518   1.939   2.417   2.442
 2260SOL    HW2 1519   1.983   2.559   2.509
 2261SOL     OW 1520   3.704   3.629   2.221
 2261SOL    HW1 1521   3.758   3.600   2.301
 2261SOL    HW2 1522   3.734   3.719   2.192
 2262SOL     OW 1523   1.889   3.458   1.979
 2262SOL    HW1 1524   1.870   3.362   2.000
 2262SOL    HW2 1525   1.856   3.516   2.054
 2263SOL     OW 1526   3.551   2.784   2.474
 2263SOL    HW1 1527   3.646   2.755   2.482
 2263SOL    HW2 1528   3.543   2.849   2.399
 2264SOL     OW 1529   3.503   2.970   2.294
 2264SOL    HW1 1530   3.589   2.972   2.242
 2264SOL    HW2 1531   3.517   3.017   2.382
 2265SOL     OW 1532   1.975   2.599   3.459
 2265SOL    HW1 1533   2.063   2.586   3.504
 2265SOL    HW2 1534   1.962   2.696   3.437
 2266SOL     OW 1535   2.475   3.227   2.588
 2266SOL    HW1 1536   2.426   3.140   2.597
 2266SOL    HW2 1537   2.452   3.270   2.501
 2267SOL     OW 1538   3.155   3.090   3.285
 2267SOL    HW1 1539   3.192   3.017   3.227
 2267SOL    HW2 1540   3.207   3.095   3.370
 2268SOL     OW 1541   2.671   1.866   2.364
 2268SOL    HW1 1542   2.711   1.957   2.355
 2268SOL    HW2 1543   2.571   1.874   2.370
 2269SOL     OW 1544   2.059   2.838   3.126
 2269SOL    HW1 1545   2.148   2.793   3.112
 2269SOL    HW2 1546   1.986   2.773   3.107
 2270SOL     OW 1547   3.387   2.861   2.052
 2270SOL    HW1 1548   3.324   2.785   2.065
 2270SOL    HW2 1549   3.435   2.879   2.138
 2271SOL     OW 1550   3.049   3.654   3.478
 2271SOL    HW1 1551   3.073   3.714   3.402
 2271SOL    HW2 1552   3.056   3.559   3.448
 2272SOL     OW 1553   2.179   2.113   3.663
 2272SOL    HW1 1554   2.250   2.184   3.669
 2272SOL    HW2 1555   2.091   2.152   3.691
 2273SOL     OW 1556   3.328   3.279   2.815
 2273SOL    HW1 1557   3.269   3.285   2.895
 2273SOL    HW2 1558   3.313   3.191   2.769
 2274SOL     OW 1559   3.529   3.576   2.434
 2274SOL    HW1 1560   3.488   3.553   2.346
 2274SOL    HW2 1561   3.511   3.502   2.499
 2275SOL     OW 1562   3.143   2.207   2.806
 2275SOL    HW1 1563   3.057   2.157   2.793
 2275SOL    HW2 1564   3.205   2.153   2.862
 2276SOL     OW 1565   3.438   3.524   2.169
 2276SOL    HW1 1566   3.527   3.570   2.172
 2276SOL    HW2 1567   3.417   3.500   2.074
 2277SOL     OW 1568   2.669   2.467   3.327
 2277SOL    HW1 1569   2.622   2.464   3.416
 2277SOL    HW2 1570   2.618   2.412   3.261
 2278SOL     OW 1571   3.256   2.331   3.536
 2278SOL    HW1 1572   3.236   2.374   3.624
 2278SOL    HW2 1573   3.334   2.269   3.545
 2279SOL     OW 1574   2.835   2.752   3.434
 2279SOL    HW1 1575   2.881   2.668   3.405
 2279SOL    HW2 1576   2.779   2.786   3.359
 2280SOL     OW 1577   2.853   2.272   3.104
 2280SOL    HW1 1578   2.776   2.306   3.158
 2280SOL    HW2 1579   2.819   2.221   3.025
 2281SOL     OW 1580   2.903   2.563   2.291
 2281SOL    HW1 1581   2.929   2.559   2.387
 2281SOL    HW2 1582   2.818   2.512   2.277
 2282SOL     OW 1583   1.938   2.673   2.651
 2282SOL    HW1 1584   2.037   2.661   2.660
 2282SOL    HW2 1585   1.914   2.768   2.672
 2283SOL     OW 1586   1.992   3.683   3.433
 2283SOL    HW1 1587   1.982   3.668   3.532
 2283SOL    HW2 1588   1.906   3.719   3.397
 2284SOL     OW 1589   2.727   2.210   2.057
 2284SOL    HW1 1590   2.786   2.273   2.008
 2284SOL    HW2 1591   2.746   2.116   2.028
 2285SOL     OW 1592   3.581   2.447   3.693
 2285SOL    HW1 1593   3.555   2.536   3.657
 2285SOL    HW2 1594   3.579   2.379   3.620
 2286SOL     OW 1595   3.224   3.006   2.407
 2286SOL    HW1 1596   3.307   2.977   2.359
 2286SOL    HW2 1597   3.175   3.073   2.351
 2287SOL     OW 1598   2.412   2.058   2.747
 2287SOL    HW1 1599   2.407   2.053   2.847
 2287SOL    HW2 1600   2.414   2.154   2.718
 2288SOL     OW 1601   2.870   3.318   2.339
 2288SOL    HW1 1602   2.824   3.390   2.287
 2288SOL    HW2 1603   2.866   3.338   2.437
 2289SOL     OW 1604   2.213   3.663   2.715
 2289SOL    HW1 1605   2.263   3.577   2.721
 2289SOL    HW2 1606   2.278   3.740   2.712
 2290SOL     OW 1607   3.657   2.928   2.735
 2290SOL    HW1 1608   3.595   2.913   2.659
 2290SOL    HW2 1609   3.605   2.939   2.820
 2291SOL     OW 1610   3.089   3.412   3.368
 2291SOL    HW1 1611   3.095   3.335   3.432
 2291SOL    HW2 1612   3.037   3.386   3.288
 2292SOL     OW 1613   2.183   2.805   2.104
 2292SOL    HW1 1614   2.265   2.844   2.062
 2292SOL    HW2 1615   2.156   2.723   2.055
 2293SOL     OW 1616   3.320   2.597   2.590
 2293SOL    HW1 1617   3.315   2.532   2.665
 2293SOL    HW2 1618   3.400   2.656   2.603
 2294SOL     OW 1619   2.323   3.128   3.589
 2294SOL    HW1 1620   2.273   3.129   3.503
 2294SOL    HW2 1621   2.260   3.110   3.665
 2295SOL     OW 1622   2.973   3.638   2.099
 2295SOL    HW1 1623   2.913   3.576   2.149
 2295SOL    HW2 1624   3.004   3.594   2.014
 2296SOL     OW 1625   2.064   2.147   3.360
 2296SOL    HW1 1626   1.984   2.207   3.347
 2296SOL    HW2 1627   2.054   2.098   3.446
 2297SOL     OW 1628   3.494   3.239   1.943
 2297SOL    HW1 1629   3.462   3.333   1.933
 2297SOL    HW2 1630   3.418   3.176   1.931
 2298SOL     OW 1631   2.326   3.605   2.185
 2298SOL    HW1 1632   2.359   3.644   2.271
 2298SOL    HW2 1633   2.402   3.598   2.120
 2299SOL     OW 1634   3.262   1.969   2.288
 2299SOL    HW1 1635   3.238   1.932   2.198
 2299SOL    HW2 1636   3.361   1.985   2.292
 2300SOL     OW 1637   2.111   3.647   3.103
 2300SOL    HW1 1638   2.168   3.582   3.153
 2300SOL    HW2 1639   2.095   3.614   3.010
 2301SOL     OW 1640   2.802   3.560   2.766
 2301SOL    HW1 1641   2.882   3.503   2.787
 2301SOL    HW2 1642   2.753   3.520   2.689
 2302SOL     OW 1643   3.409   2.084   3.591
 2302SOL    HW1 1644   3.404   2.121   3.683
 2302SOL    HW2 1645   3.337   2.015   3.579
 2303SOL     OW 1646   2.476   1.984   1.979
 2303SOL    HW1 1647   2.574   1.962   1.986
 2303SOL    HW2 1648   2.445   1.967   1.886
 2304SOL     OW 1649   2.643   2.126   3.611
 2304SOL    HW1 1650   2.710   2.065   3.654
 2304SOL    HW2 1651   2.570   2.145   3.676
 2305SOL     OW 1652   2.750   3.376   3.057
 2305SOL    HW1 1653   2.727   3.351   2.963
 2305SOL    HW2 1654   2.811   3.307   3.096
 2306SOL     OW 1655   3.213   2.452   3.295
 2306SOL    HW1 1656   3.241   2.409   3.380
 2306SOL    HW2 1657   3.238   2.548   3.296
 2307SOL     OW 1658   2.665   3.264   2.786
 2307SOL    HW1 1659   2.755   3.278   2.744
 2307SOL    HW2 1660   2.594   3.266   2.715
 2308SOL     OW 1661   2.784   2.365   2.761
 2308SOL    HW1 1662   2.759   2.356   2.665
 2308SOL    HW2 1663   2.832   2.283   2.792
 2309SOL     OW 1664   2.401   1.926   2.374
 2309SOL    HW1 1665   2.320   1.927   2.432
 2309SOL    HW2 1666   2.404   2.009   2.319
 2310SOL     OW 1667   3.296   3.050   1.903
 2310SOL    HW1 1668   3.328   2.974   1.960
 2310SOL    HW2 1669   3.204   3.077   1.933
 2311SOL     OW 1670   2.159   1.897   2.033
 2311SOL    HW1 1671   2.208   1.981   2.012
 2311SOL    HW2 1672   2.221   1.832   2.078
 2312SOL     OW 1673   2.797   2.098   2.342
 2312SOL    HW1 1674   2.749   2.139   2.264
 2312SOL    HW2 1675   2.896   2.096   2.323
 2313SOL     OW 1676   2.938   2.545   3.326
 2313SOL    HW1 1677   2.858   2.484   3.329
 2313SOL    HW2 1678   3.019   2.492   3.302
 2314SOL     OW 1679   3.089   3.432   2.655
 2314SOL    HW1 1680   3.110   3.506   2.590
 2314SOL    HW2 1681   3.157   3.432   2.728
 2315SOL     OW 1682   2.321   3.014   2.603
 2315SOL    HW1 1683   2.250   2.987   2.668
 2315SOL    HW2 1684   2.295   2.986   2.510
 2316SOL     OW 1685   3.133   3.659   2.453
 2316SOL    HW1 1686   3.177   3.723   2.389
 2316SOL    HW2 1687   3.083   3.711   2.523
 2317SOL     OW 1688   2.894   2.411   1.878
 2317SOL    HW1 1689   2.853   2.493   1.839
 2317SOL    HW2 1690   2.958   2.437   1.951
 2318SOL     OW 1691   1.940   2.418   3.248
 2318SOL    HW1 1692   2.032   2.417   3.207
 2318SOL    HW2 1693   1.934   2.492   3.315
 2319SOL     OW 1694   2.423   2.084   3.009
 2319SOL    HW1 1695   2.461   2.000   3.046
 2319SOL    HW2 1696   2.335   2.103   3.053
 2320SOL     OW 1697   2.728   2.316   2.504
 2320SOL    HW1 1698   2.696   2.388   2.442
 2320SOL    HW2 1699   2.752   2.235   2.451
 2321SOL     OW 1700   2.879   1.901   2.615
 2321SOL    HW1 1701   2.807   1.906   2.546
 2321SOL    HW2 1702   2.855   1.832   2.684
 2322SOL     OW 1703   3.291   3.035   2.729
 2322SOL    HW1 1704   3.236   2.951   2.722
 2322SOL    HW2 1705   3.317   3.064   2.637
 2323SOL     OW 1706   3.328   2.452   2.854
 2323SOL    HW1 1707   3.298   2.357   2.861
 2323SOL    HW2 1708   3.401   2.468   2.920
 2324SOL     OW 1709   3.719   2.695   2.239
 2324SOL    HW1 1710   3.761   2.631   2.303
 2324SOL    HW2 1711   3.681   2.644   2.161
 2325SOL     OW 1712   2.350   3.247   2.036
 2325SOL    HW1 1713   2.263   3.232   2.083
 2325SOL    HW2 1714   2.333   3.273   1.941
 2326SOL     OW 1715   3.526   3.142   2.519
 2326SOL    HW1 1716   3.625   3.150   2.533
 2326SOL    HW2 1717   3.481   3.226   2.550
 2327SOL     OW 1718   3.252   2.437   1.940
 2327SOL    HW1 1719   3.198   2.416   2.021
 2327SOL    HW2 1720   3.343   2.396   1.949
 2328SOL     OW 1721   3.616   3.085   3.450
 2328SOL    HW1 1722   3.707   3.046   3.437
 2328SOL    HW2 1723   3.624   3.181   3.474
 2329SOL     OW 1724   2.926   3.209   3.202
 2329SOL    HW1 1725   2.846   3.186   3.257
 2329SOL    HW2 1726   3.009   3.183   3.251
 2330SOL     OW 1727   3.454   3.491   3.487
 2330SOL    HW1 1728   3.481   3.525   3.397
 2330SOL    HW2 1729   3.533   3.453   3.533
 2331SOL     OW 1730   2.973   3.057   2.962
 2331SOL    HW1 1731   2.933   3.101   3.043
 2331SOL    HW2 1732   2.932   3.094   2.879
 2332SOL     OW 1733   3.500   2.961   2.941
 2332SOL    HW1 1734   3.505   3.042   3.000
 2332SOL    HW2 1735   3.414   2.963   2.890
 2333SOL     OW 1736   2.777   1.951   3.264
 2333SOL    HW1 1737   2.802   1.931   3.169
 2333SOL    HW2 1738   2.849   2.007   3.306
 2334SOL     OW 1739   2.842   2.978   3.581
 2334SOL    HW1 1740   2.743   2.984   3.591
 2334SOL    HW2 1741   2.865   2.898   3.525
 2335SOL     OW 1742   2.567   2.912   2.230
 2335SOL    HW1 1743   2.553   2.919   2.329
 2335SOL    HW2 1744   2.651   2.861   2.212
 2336SOL     OW 1745   2.272   2.675   3.113
 2336SOL    HW1 1746   2.358   2.687   3.163
 2336SOL    HW2 1747   2.230   2.588   3.140
 2337SOL     OW 1748   3.136   2.248   3.124
 2337SOL    HW1 1749   3.157   2.322   3.188
 2337SOL    HW2 1750   3.047   2.265   3.081
 2338SOL     OW 1751   1.926   3.426   3.193
 2338SOL    HW1 1752   1.880   3.508   3.159
 2338SOL    HW2 1753   2.024   3.445   3.202
 2339SOL     OW 1754   2.229   2.962   2.363
 2339SOL    HW1 1755   2.222   3.045   2.307
 2339SOL    HW2 1756   2.233   2.882   2.303
 2340SOL     OW 1757   3.114   3.210   2.250
 2340SOL    HW1 1758   3.164   3.287   2.290
 2340SOL    HW2 1759   3.019   3.212   2.282
 2341SOL     OW 1760   3.134   3.307   3.004
 2341SOL    HW1 1761   3.181   3.320   3.091
 2341SOL    HW2 1762   3.068   3.233   3.013
 2342SOL     OW 1763   3.444   2.501   2.334
 2342SOL    HW1 1764   3.413   2.562   2.407
 2342SOL    HW2 1765   3.494   2.553   2.265
 2343SOL     OW 1766   2.216   3.372   3.191
 2343SOL    HW1 1767   2.195   3.328   3.104
 2343SOL    HW2 1768   2.313   3.398   3.194
 2344SOL     OW 1769   2.264   2.613   3.460
 2344SOL    HW1 1770   2.332   2.668   3.413
 2344SOL    HW2 1771   2.304   2.525   3.487
 2345SOL     OW 1772   3.449   2.641   3.532
 2345SOL    HW1 1773   3.357   2.679   3.527
 2345SOL    HW2 1774   3.509   2.688   3.467
 2346SOL     OW 1775   2.875   1.967   3.632
 2346SOL    HW1 1776   2.881   2.052   3.580
 2346SOL    HW2 1777   2.907   1.891   3.575
 2347SOL     OW 1778   2.366   1.912   3.602
 2347SOL    HW1 1779   2.324   1.855   3.532
 2347SOL    HW2 1780   2.300   1.981   3.634
 2348SOL     OW 1781   3.222   2.724   2.907
 2348SOL    HW1 1782   3.147   2.724   2.841
 2348SOL    HW2 1783   3.259   2.632   2.916
 2349SOL     OW 1784   3.071   2.387   2.137
 2349SOL    HW1 1785   3.084   2.303   2.191
 2349SOL    HW2 1786   3.042   2.461   2.197
 2350SOL     OW 1787   2.169   2.075   3.093
 2350SOL    HW1 1788   2.146   2.112   3.183
 2350SOL    HW2 1789   2.139   1.980   3.087
 2351SOL     OW 1790   1.899   3.172   3.144
 2351SOL    HW1 1791   1.952   3.123   3.212
 2351SOL    HW2 1792   1.921   3.270   3.149
 2352SOL     OW 1793   3.590   2.797   3.716
 2352SOL    HW1 1794   3.544   2.790   3.627
 2352SOL    HW2 1795   3.528   2.841   3.782
 2353SOL     OW 1796   2.169   1.925   2.480
 2353SOL    HW1 1797   2.158   2.019   2.513
 2353SOL    HW2 1798   2.164   1.862   2.557
 2354SOL     OW 1799   3.484   2.229   2.236
 2354SOL    HW1 1800   3.486   2.153   2.300
 2354SOL    HW2 1801   3.436   2.306   2.276
 2355SOL     OW 1802   2.885   2.628   2.828
 2355SOL    HW1 1803   2.900   2.649   2.924
 2355SOL    HW2 1804   2.855   2.533   2.819
 2356SOL     OW 1805   2.842   3.435   3.562
 2356SOL    HW1 1806   2.822   3.479   3.474
 2356SOL    HW2 1807   2.881   3.344   3.546
 2358SOL     OW 1808   2.212   2.760   3.666
 2358SOL    HW1 1809   2.288   2.804   3.714
 2358SOL    HW2 1810   2.247   2.713   3.584
 2359SOL     OW 1811   3.402   2.136   1.987
 2359SOL    HW1 1812   3.341   2.061   2.010
 2359SOL    HW2 1813   3.424   2.188   2.070
 2360SOL     OW 1814   3.165   2.700   1.904
 2360SOL    HW1 1815   3.199   2.607   1.919
 2360SOL    HW2 1816   3.183   2.727   1.809
 2361SOL     OW 1817   2.930   3.195   2.711
 2361SOL    HW1 1818   2.937   3.111   2.656
 2361SOL    HW2 1819   2.992   3.264   2.675
 2362SOL     OW 1820   2.181   2.672   2.811
 2362SOL    HW1 1821   2.274   2.708   2.816
 2362SOL    HW2 1822   2.175   2.587   2.863
 2363SOL     OW 1823   2.201   2.371   2.868
 2363SOL    HW1 1824   2.149   2.288   2.851
 2363SOL    HW2 1825   2.278   2.376   2.804
 2364SOL     OW 1826   3.000   2.242   3.540
 2364SOL    HW1 1827   2.955   2.305   3.604
 2364SOL    HW2 1828   3.093   2.273   3.523
 2365SOL     OW 1829   3.022   2.069   3.339
 2365SOL    HW1 1830   3.022   2.133   3.416
 2365SOL    HW2 1831   3.050   2.117   3.256
 2366SOL     OW 1832   1.870   3.188   2.062
 2366SOL    HW1 1833   1.777   3.209   2.031
 2366SOL    HW2 1834   1.880   3.089   2.075
 2367SOL     OW 1835   1.950   3.663   2.789
 2367SOL    HW1 1836   1.908   3.577   2.762
 2367SOL    HW2 1837   2.044   3.666   2.755
 2368SOL     OW 1838   2.366   3.430   2.772
 2368SOL    HW1 1839   2.432   3.504   2.781
 2368SOL    HW2 1840   2.410   3.351   2.730
 2369SOL     OW 1841   2.864   2.658   3.100
 2369SOL    HW1 1842   2.905   2.626   3.186
 2369SOL    HW2 1843   2.768   2.631   3.097
 2370SOL     OW 1844   1.902   2.406   2.976
 2370SOL    HW1 1845   1.987   2.373   2.935
 2370SOL    HW2 1846   1.915   2.421   3.074
 2371SOL     OW 1847   2.051   2.382   3.584
 2371SOL    HW1 1848   2.110   2.342   3.514
 2371SOL    HW2 1849   1.993   2.453   3.543
 2372SOL     OW 1850   3.231   2.812   3.522
 2372SOL    HW1 1851   3.270   2.901   3.542
 2372SOL    HW2 1852   3.241   2.792   3.425
 2373SOL     OW 1853   2.677   2.434   2.187
 2373SOL    HW1 1854   2.684   2.345   2.141
 2373SOL    HW2 1855   2.583   2.468   2.179
 2374SOL     OW 1856   3.519   2.466   3.068
 2374SOL    HW1 1857   3.481   2.397   3.130
 2374SOL    HW2 1858   3.601   2.430   3.024
 2375SOL     OW 1859   2.114   3.426   3.606
 2375SOL    HW1 1860   2.084   3.483   3.682
 2375SOL    HW2 1861   2.107   3.329   3.632
 2376SOL     OW 1862   2.533   2.326   3.131
 2376SOL    HW1 1863   2.499   2.237   3.101
 2376SOL    HW2 1864   2.559   2.380   3.051
 2377SOL     OW 1865   2.792   3.540   3.327
 2377SOL    HW1 1866   2.768   3.522   3.232
 2377SOL    HW2 1867   2.822   3.634   3.337
 2378SOL     OW 1868   2.021   2.999   3.328
 2378SOL    HW1 1869   2.043   2.938   3.404
 2378SOL    HW2 1870   2.031   2.950   3.242
 2379SOL     OW 1871   3.209   2.921   3.096
 2379SOL    HW1 1872   3.233   2.858   3.022
 2379SOL    HW2 1873   3.119   2.961   3.078
 2380SOL     OW 1874   3.164   2.717   2.171
 2380SOL    HW1 1875   3.078   2.686   2.213
 2380SOL    HW2 1876   3.160   2.703   2.072
 2381SOL     OW 1877   3.621   3.609   3.016
 2381SOL    HW1 1878   3.682   3.639   2.943
 2381SOL    HW2 1879   3.583   3.520   2.994
 2382SOL     OW 1880   3.114   3.593   2.990
 2382SOL    HW1 1881   3.198   3.598   2.936
 2382SOL    HW2 1882   3.091   3.497   3.008
 2383SOL     OW 1883   1.945   3.120   2.884
 2383SOL    HW1 1884   1.940   3.119   2.984
 2383SOL    HW2 1885   1.862   3.079   2.846
 2384SOL     OW 1886   2.550   3.524   3.578
 2384SOL    HW1 1887   2.494   3.605   3.587
 2384SOL    HW2 1888   2.602   3.528   3.492
 2385SOL     OW 1889   3.588   1.997   2.385
 2385SOL    HW1 1890   3.661   1.980   2.318
 2385SOL    HW2 1891   3.557   1.910   2.423
 2386SOL     OW 1892   3.250   3.435   2.339
 2386SOL    HW1 1893   3.317   3.447   2.265
 2386SOL    HW2 1894   3.210   3.524   2.362
 2387SOL     OW 1895   1.992   3.656   3.713
 2387SOL    HW1 1896   1.951   3.582   3.766
 2387SOL    HW2 1897   2.056   3.707   3.771
 2388SOL     OW 1898   3.142   2.789   2.534
 2388SOL    HW1 1899   3.202   2.708   2.536
 2388SOL    HW2 1900   3.182   2.858   2.474
 2389SOL     OW 1901   2.692   3.135   3.284
 2389SOL    HW1 1902   2.687   3.168   3.379
 2389SOL    HW2 1903   2.606   3.154   3.238
 2390SOL     OW 1904   2.534   3.478   2.016
 2390SOL    HW1 1905   2.543   3.488   1.917
 2390SOL    HW2 1906   2.494   3.389   2.037
 2391SOL     OW 1907   3.512   3.582   3.256
 2391SOL    HW1 1908   3.565   3.592   3.172
 2391SOL    HW2 1909   3.485   3.672   3.290
 2392SOL     OW 1910   3.703   2.037   2.825
 2392SOL    HW1 1911   3.742   1.952   2.789
 2392SOL    HW2 1912   3.605   2.039   2.806
 2393SOL     OW 1913   2.125   2.188   2.582
 2393SOL    HW1 1914   2.046   2.239   2.548
 2393SOL    HW2 1915   2.116   2.173   2.680
 2394SOL     OW 1916   3.056   3.474   1.893
 2394SOL    HW1 1917   3.062   3.381   1.930
 2394SOL    HW2 1918   2.997   3.474   1.813
 2395SOL     OW 1919   2.684   2.864   3.234
 2395SOL    HW1 1920   2.724   2.863   3.142
 2395SOL    HW2 1921   2.694   2.956   3.274
 2396SOL     OW 1922   2.778   2.772   2.153
 2396SOL    HW1 1923   2.841   2.810   2.085
 2396SOL    HW2 1924   2.818   2.689   2.192
 2397SOL     OW 1925   3.366   3.469   1.906
 2397SOL    HW1 1926   3.274   3.506   1.913
 2397SOL    HW2 1927   3.404   3.489   1.816
 2398SOL     OW 1928   2.234   3.150   3.352
 2398SOL    HW1 1929   2.221   3.243   3.318
 2398SOL    HW2 1930   2.150   3.098   3.339
 2399SOL     OW 1931   3.476   3.154   3.151
 2399SOL    HW1 1932   3.536   3.157   3.231
 2399SOL    HW2 1933   3.401   3.218   3.164
 2400SOL     OW 1934   2.901   2.960   2.558
 2400SOL    HW1 1935   2.831   2.913   2.612
 2400SOL    HW2 1936   2.960   2.892   2.515
 2401SOL     OW 1937   2.876   2.098   2.833
 2401SOL    HW1 1938   2.868   2.062   2.740
 2401SOL    HW2 1939   2.874   2.022   2.898
 2402SOL     OW 1940   2.452   3.349   2.353
 2402SOL    HW1 1941   2.494   3.291   2.283
 2402SOL    HW2 1942   2.408   3.428   2.309
 2403SOL     OW 1943   3.571   2.247   3.243
 2403SOL    HW1 1944   3.644   2.316   3.247
 2403SOL    HW2 1945   3.599   2.172   3.184
 2404SOL     OW 1946   2.117   3.210   2.152
 2404SOL    HW1 1947   2.021   3.211   2.125
 2404SOL    HW2 1948   2.129   3.263   2.236
 2405SOL     OW 1949   1.967   2.875   3.588
 2405SOL    HW1 1950   1.890   2.842   3.642
 2405SOL    HW2 1951   2.052   2.845   3.630
 2406SOL     OW 1952   2.534   2.065   3.351
 2406SOL    HW1 1953   2.624   2.049   3.311
 2406SOL    HW2 1954   2.542   2.070   3.450
 2407SOL     OW 1955   1.937   2.207   1.895
 2407SOL    HW1 1956   1.845   2.179   1.866
 2407SOL    HW2 1957   1.968   2.284   1.839
 2408SOL     OW 1958   3.302   2.718   3.260
 2408SOL    HW1 1959   3.245   2.770   3.197
 2408SOL    HW2 1960   3.398   2.730   3.236
 2409SOL     OW 1961   1.934   2.028   2.180
 2409SOL    HW1 1962   1.917   2.111   2.126
 2409SOL    HW2 1963   2.024   1.991   2.158
 2410SOL     OW 1964   3.045   3.197   1.981
 2410SOL    HW1 1965   2.946   3.186   1.983
 2410SOL    HW2 1966   3.079   3.212   2.074
 2411SOL     OW 1967   2.475   2.704   3.293
 2411SOL    HW1 1968   2.531   2.785   3.276
 2411SOL    HW2 1969   2.534   2.624   3.296
 2412SOL     OW 1970   3.355   3.629   2.821
 2412SOL    HW1 1971   3.388   3.693   2.752
 2412SOL    HW2 1972   3.421   3.623   2.896
 2413SOL     OW 1973   2.578   2.427   3.570
 2413SOL    HW1 1974   2.597   2.492   3.644
 2413SOL    HW2 1975   2.638   2.347   3.579
 2414SOL     OW 1976   3.312   3.082   3.495
 2414SOL    HW1 1977   3.303   3.072   3.594
 2414SOL    HW2 1978   3.408   3.075   3.469
 2415SOL     OW 1979   2.252   3.603   3.422
 2415SOL    HW1 1980   2.161   3.644   3.420
 2415SOL    HW2 1981   2.245   3.509   3.454
 2416SOL     OW 1982   3.536   2.745   3.116
 2416SOL    HW1 1983   3.509   2.656   3.079
 2416SOL    HW2 1984   3.537   2.813   3.043
 2417SOL     OW 1985   3.087   2.187   2.311
 2417SOL    HW1 1986   3.152   2.113   2.300
 2417SOL    HW2 1987   3.107   2.237   2.395
 2418SOL     OW 1988   3.639   2.204   3.504
 2418SOL    HW1 1989   3.622   2.235   3.410
 2418SOL    HW2 1990   3.555   2.167   3.542
 2419SOL     OW 1991   3.592   2.796   3.379
 2419SOL    HW1 1992   3.630   2.887   3.394
 2419SOL    HW2 1993   3.584   2.779   3.280
 2420SOL     OW 1994   2.721   3.236   1.878
 2420SOL    HW1 1995   2.675   3.251   1.966
 2420SOL    HW2 1996   2.765   3.321   1.848
 2421SOL     OW 1997   2.523   3.652   2.815
 2421SOL    HW1 1998   2.477   3.740   2.802
 2421SOL    HW2 1999   2.622   3.664   2.808
 2422SOL     OW 2000   2.721   2.818   2.723
 2422SOL    HW1 2001   2.775   2.749   2.771
 2422SOL    HW2 2002   2.689   2.887   2.789
 2423SOL     OW 2003   2.945   2.846   1.949
 2423SOL    HW1 2004   2.922   2.899   1.867
 2423SOL    HW2 2005   3.026   2.790   1.930
 2424SOL     OW 2006   3.723   3.431   2.713
 2424SOL    HW1 2007   3.652   3.419   2.643
 2424SOL    HW2 2008   3.724   3.352   2.773
 2425SOL     OW 2009   2.083   3.176   3.706
 2425SOL    HW1 2010   2.018   3.103   3.685
 2425SOL    HW2 2011   2.087   3.190   3.804
 2426SOL     OW 2012   1.941   3.102   2.515
 2426SOL    HW1 2013   1.940   3.055   2.603
 2426SOL    HW2 2014   2.023   3.074   2.464
 2427SOL     OW 2015   2.534   3.253   3.486
 2427SOL    HW1 2016   2.456   3.203   3.524
 2427SOL    HW2 2017   2.531   3.348   3.517
 2428SOL     OW 2018   3.686   2.054   3.089
 2428SOL    HW1 2019   3.682   1.964   3.133
 2428SOL    HW2 2020   3.689   2.043   2.990
 2429SOL     OW 2021   3.567   3.349   2.966
 2429SOL    HW1 2022   3.474   3.324   2.939
 2429SOL    HW2 2023   3.593   3.299   3.048
 2430SOL     OW 2024   2.179   2.409   3.142
 2430SOL    HW1 2025   2.217   2.350   3.214
 2430SOL    HW2 2026   2.219   2.383   3.054
 2431SOL     OW 2027   2.674   3.448   2.549
 2431SOL    HW1 2028   2.706   3.458   2.455
 2431SOL    HW2 2029   2.595   3.386   2.551
 2432SOL     OW 2030   3.286   2.076   2.974
 2432SOL    HW1 2031   3.338   2.011   3.029
 2432SOL    HW2 2032   3.237   2.139   3.035
 2433SOL     OW 2033   2.863   1.896   3.016
 2433SOL    HW1 2034   2.800   1.824   2.985
 2433SOL    HW2 2035   2.956   1.860   3.016
 2434SOL     OW 2036   2.632   3.192   2.163
 2434SOL    HW1 2037   2.586   3.105   2.180
 2434SOL    HW2 2038   2.723   3.189   2.204
 2435SOL     OW 2039   2.480   3.429   3.146
 2435SOL    HW1 2040   2.475   3.511   3.203
 2435SOL    HW2 2041   2.569   3.426   3.101
 2436SOL     OW 2042   3.214   1.914   2.030
 2436SOL    HW1 2043   3.249   1.873   1.946
 2436SOL    HW2 2044   3.124   1.876   2.050
 2437SOL     OW 2045   3.162   2.315   2.553
 2437SOL    HW1 2046   3.103   2.395   2.557
 2437SOL    HW2 2047   3.177   2.280   2.646
 2438SOL     OW 2048   3.455   2.083   2.744
 2438SOL    HW1 2049   3.371   2.082   2.798
 2438SOL    HW2 2050   3.457   2.166   2.688
 2439SOL     OW 2051   1.901   2.939   2.162
 2439SOL    HW1 2052   2.000   2.928   2.153
 2439SOL    HW2 2053   1.861   2.853   2.194
 2440SOL     OW 2054   2.737   3.508   2.199
 2440SOL    HW1 2055   2.660   3.473   2.145
 2440SOL    HW2 2056   2.705   3.579   2.261
 2441SOL     OW 2057   2.092   2.490   3.837
 2441SOL    HW1 2058   1.999   2.488   3.874
 2441SOL    HW2 2059   2.093   2.451   3.745
 2454SOL     OW 2060   2.468   2.826   3.847
 2454SOL    HW1 2061   2.475   2.910   3.793
 2454SOL    HW2 2062   2.514   2.839   3.935
 2457SOL     OW 2063   1.889   3.458   3.841
 2457SOL    HW1 2064   1.870   3.362   3.862
 2457SOL    HW2 2065   1.856   3.516   3.916
 2463SOL     OW 2066   3.387   2.861   3.914
 2463SOL    HW1 2067   3.324   2.785   3.927
 2463SOL    HW2 2068   3.435   2.879   4.000
 2466SOL     OW 2069   2.460   2.591   3.994
 2466SOL    HW1 2070   2.484   2.660   3.926
 2466SOL    HW2 2071   2.382   2.624   4.048
 2469SOL     OW 2072   2.903   2.563   4.153
 2469SOL    HW1 2073   2.929   2.559   4.249
 2469SOL    HW2 2074   2.818   2.512   4.139
 2471SOL     OW 2075   2.727   2.210   3.919
 2471SOL    HW1 2076   2.786   2.273   3.870
 2471SOL    HW2 2077   2.746   2.116   3.890
 2477SOL     OW 2078   2.183   2.805   3.966
 2477SOL    HW1 2079   2.265   2.844   3.924
 2477SOL    HW2 2080   2.156   2.723   3.917
 2485SOL     OW 2081   2.244   2.562   4.204
 2485SOL    HW1 2082   2.289   2.472   4.201
 2485SOL    HW2 2083   2.150   2.551   4.237
 2486SOL     OW 2084   2.476   1.984   3.841
 2486SOL    HW1 2085   2.574   1.962   3.848
 2486SOL    HW2 2086   2.445   1.967   3.748
 2490SOL     OW 2087   3.296   3.050   3.765
 2490SOL    HW1 2088   3.328   2.974   3.822
 2490SOL    HW2 2089   3.204   3.077   3.795
 2491SOL     OW 2090   2.159   1.897   3.895
 2491SOL    HW1 2091   2.208   1.981   3.874
 2491SOL    HW2 2092   2.221   1.832   3.940
 2496SOL     OW 2093   2.894   2.411   3.740
 2496SOL    HW1 2094   2.853   2.493   3.701
 2496SOL    HW2 2095   2.958   2.437   3.813
 2502SOL     OW 2096   2.350   3.247   3.898
 2502SOL    HW1 2097   2.263   3.232   3.945
 2502SOL    HW2 2098   2.333   3.273   3.803
 2504SOL     OW 2099   3.252   2.437   3.802
 2504SOL    HW1 2100   3.198   2.416   3.883
 2504SOL    HW2 2101   3.343   2.396   3.811
 2505SOL     OW 2102   2.389   2.118   4.052
 2505SOL    HW1 2103   2.416   2.059   3.977
 2505SOL    HW2 2104   2.389   2.213   4.021
 2508SOL     OW 2105   2.567   2.912   4.092
 2508SOL    HW1 2106   2.553   2.919   4.191
 2508SOL    HW2 2107   2.651   2.861   4.074
 2516SOL     OW 2108   3.071   2.387   3.999
 2516SOL    HW1 2109   3.084   2.303   4.053
 2516SOL    HW2 2110   3.042   2.461   4.059
 2522SOL     OW 2111   3.402   2.136   3.849
 2522SOL    HW1 2112   3.341   2.061   3.872
 2522SOL    HW2 2113   3.424   2.188   3.932
 2523SOL     OW 2114   3.165   2.700   3.766
 2523SOL    HW1 2115   3.199   2.607   3.781
 2523SOL    HW2 2116   3.183   2.727   3.671
 2527SOL     OW 2117   1.870   3.188   3.924
 2527SOL    HW1 2118   1.777   3.209   3.893
 2527SOL    HW2 2119   1.880   3.089   3.937
 2532SOL     OW 2120   2.677   2.434   4.049
 2532SOL    HW1 2121   2.684   2.345   4.003
 2532SOL    HW2 2122   2.583   2.468   4.041
 2534SOL     OW 2123   2.335   2.362   3.915
 2534SOL    HW1 2124   2.396   2.442   3.919
 2534SOL    HW2 2125   2.240   2.393   3.922
 2535SOL     OW 2126   3.164   2.717   4.033
 2535SOL    HW1 2127   3.078   2.686   4.075
 2535SOL    HW2 2128   3.160   2.703   3.934
 2541SOL     OW 2129   2.534   3.478   3.878
 2541SOL    HW1 2130   2.543   3.488   3.779
 2541SOL    HW2 2131   2.494   3.389   3.899
 2544SOL     OW 2132   3.056   3.474   3.755
 2544SOL    HW1 2133   3.062   3.381   3.792
 2544SOL    HW2 2134   2.997   3.474   3.675
 2545SOL     OW 2135   2.778   2.772   4.015
 2545SOL    HW1 2136   2.841   2.810   3.947
 2545SOL    HW2 2137   2.818   2.689   4.054
 2550SOL     OW 2138   2.117   3.210   4.014
 2550SOL    HW1 2139   2.021   3.211   3.987
 2550SOL    HW2 2140   2.129   3.263   4.098
 2551SOL     OW 2141   1.937   2.207   3.757
 2551SOL    HW1 2142   1.845   2.179   3.728
 2551SOL    HW2 2143   1.968   2.284   3.701
 2552SOL     OW 2144   1.934   2.028   4.042
 2552SOL    HW1 2145   1.917   2.111   3.988
 2552SOL    HW2 2146   2.024   1.991   4.020
 2553SOL     OW 2147   3.045   3.197   3.843
 2553SOL    HW1 2148   2.946   3.186   3.845
 2553SOL    HW2 2149   3.079   3.212   3.936
 2558SOL     OW 2150   2.721   3.236   3.740
 2558SOL    HW1 2151   2.675   3.251   3.828
 2558SOL    HW2 2152   2.765   3.321   3.710
 2561SOL     OW 2153   2.945   2.846   3.811
 2561SOL    HW1 2154   2.922   2.899   3.729
 2561SOL    HW2 2155   3.026   2.790   3.792
 2568SOL     OW 2156   2.632   3.192   4.025
 2568SOL    HW1 2157   2.586   3.105   4.042
 2568SOL    HW2 2158   2.723   3.189   4.066
 2569SOL     OW 2159   3.214   1.914   3.892
 2569SOL    HW1 2160   3.249   1.873   3.808
 2569SOL    HW2 2161   3.124   1.876   3.912
 2572SOL     OW 2162   1.901   2.939   4.024
 2572SOL    HW1 2163   2.000   2.928   4.015
 2572SOL    HW2 2164   1.861   2.853   4.056
 2595SOL     OW 2165   2.179   3.975   1.801
 2595SOL    HW1 2166   2.250   4.046   1.807
 2595SOL    HW2 2167   2.091   4.014   1.829
 2615SOL     OW 2168   2.643   3.988   1.749
 2615SOL    HW1 2169   2.710   3.927   1.792
 2615SOL    HW2 2170   2.570   4.007   1.814
 2634SOL     OW 2171   2.777   3.813   1.402
 2634SOL    HW1 2172   2.802   3.793   1.307
 2634SOL    HW2 2173   2.849   3.869   1.444
 2643SOL     OW 2174   2.875   3.829   1.770
 2643SOL    HW1 2175   2.881   3.914   1.718
 2643SOL    HW2 2176   2.907   3.753   1.713
 2644SOL     OW 2177   2.366   3.774   1.740
 2644SOL    HW1 2178   2.324   3.717   1.670
 2644SOL    HW2 2179   2.300   3.843   1.772
 2683SOL     OW 2180   2.534   3.927   1.489
 2683SOL    HW1 2181   2.624   3.911   1.449
 2683SOL    HW2 2182   2.542   3.932   1.588
 2707SOL     OW 2183   2.087   3.999   2.858
 2707SOL    HW1 2184   2.122   3.982   2.950
 2707SOL    HW2 2185   1.999   3.954   2.846
 2708SOL     OW 2186   1.881   4.092   2.509
 2708SOL    HW1 2187   1.799   4.135   2.548
 2708SOL    HW2 2188   1.853   4.019   2.446
 2724SOL     OW 2189   2.671   3.728   2.364
 2724SOL    HW1 2190   2.711   3.819   2.355
 2724SOL    HW2 2191   2.571   3.736   2.370
 2729SOL     OW 2192   3.143   4.069   2.806
 2729SOL    HW1 2193   3.057   4.019   2.793
 2729SOL    HW2 2194   3.205   4.015   2.862
 2736SOL     OW 2195   2.727   4.072   2.057
 2736SOL    HW1 2196   2.786   4.135   2.008
 2736SOL    HW2 2197   2.746   3.978   2.028
 2738SOL     OW 2198   2.412   3.920   2.747
 2738SOL    HW1 2199   2.407   3.915   2.847
 2738SOL    HW2 2200   2.414   4.016   2.718
 2743SOL     OW 2201   3.262   3.831   2.288
 2743SOL    HW1 2202   3.238   3.794   2.198
 2743SOL    HW2 2203   3.361   3.847   2.292
 2746SOL     OW 2204   2.476   3.846   1.979
 2746SOL    HW1 2205   2.574   3.824   1.986
 2746SOL    HW2 2206   2.445   3.829   1.886
 2750SOL     OW 2207   2.401   3.788   2.374
 2750SOL    HW1 2208   2.320   3.789   2.432
 2750SOL    HW2 2209   2.404   3.871   2.319
 2751SOL     OW 2210   2.159   3.759   2.033
 2751SOL    HW1 2211   2.208   3.843   2.012
 2751SOL    HW2 2212   2.221   3.694   2.078
 2752SOL     OW 2213   2.797   3.960   2.342
 2752SOL    HW1 2214   2.749   4.001   2.264
 2752SOL    HW2 2215   2.896   3.958   2.323
 2757SOL     OW 2216   2.423   3.946   3.009
 2757SOL    HW1 2217   2.461   3.862   3.046
 2757SOL    HW2 2218   2.335   3.965   3.053
 2758SOL     OW 2219   2.728   4.178   2.504
 2758SOL    HW1 2220   2.696   4.250   2.442
 2758SOL    HW2 2221   2.752   4.097   2.451
 2759SOL     OW 2222   2.879   3.763   2.615
 2759SOL    HW1 2223   2.807   3.768   2.546
 2759SOL    HW2 2224   2.855   3.694   2.684
 2764SOL     OW 2225   2.389   3.980   2.190
 2764SOL    HW1 2226   2.416   3.921   2.115
 2764SOL    HW2 2227   2.389   4.075   2.159
 2767SOL     OW 2228   2.777   3.813   3.264
 2767SOL    HW1 2229   2.802   3.793   3.169
 2767SOL    HW2 2230   2.849   3.869   3.306
 2777SOL     OW 2231   2.366   3.774   3.602
 2777SOL    HW1 2232   2.324   3.717   3.532
 2777SOL    HW2 2233   2.300   3.843   3.634
 2781SOL     OW 2234   2.169   3.937   3.093
 2781SOL    HW1 2235   2.146   3.974   3.183
 2781SOL    HW2 2236   2.139   3.842   3.087
 2784SOL     OW 2237   2.169   3.787   2.480
 2784SOL    HW1 2238   2.158   3.881   2.513
 2784SOL    HW2 2239   2.164   3.724   2.557
 2808SOL     OW 2240   2.125   4.050   2.582
 2808SOL    HW1 2241   2.046   4.101   2.548
 2808SOL    HW2 2242   2.116   4.035   2.680
 2812SOL     OW 2243   2.876   3.960   2.833
 2812SOL    HW1 2244   2.868   3.924   2.740
 2812SOL    HW2 2245   2.874   3.884   2.898
 2815SOL     OW 2246   2.534   3.927   3.351
 2815SOL    HW1 2247   2.624   3.911   3.311
 2815SOL    HW2 2248   2.542   3.932   3.450
 2816SOL     OW 2249   1.937   4.069   1.895
 2816SOL    HW1 2250   1.845   4.041   1.866
 2816SOL    HW2 2251   1.968   4.146   1.839
 2818SOL     OW 2252   1.934   3.890   2.180
 2818SOL    HW1 2253   1.917   3.973   2.126
 2818SOL    HW2 2254   2.024   3.853   2.158
 2823SOL     OW 2255   3.087   4.049   2.311
 2823SOL    HW1 2256   3.152   3.975   2.300
 2823SOL    HW2 2257   3.107   4.099   2.395
 2830SOL     OW 2258   2.290   4.148   2.382
 2830SOL    HW1 2259   2.320   4.076   2.320
 2830SOL    HW2 2260   2.251   4.108   2.465
 2832SOL     OW 2261   3.286   3.938   2.974
 2832SOL    HW1 2262   3.338   3.873   3.029
 2832SOL    HW2 2263   3.237   4.001   3.035
 2833SOL     OW 2264   2.863   3.758   3.016
 2833SOL    HW1 2265   2.800   3.686   2.985
 2833SOL    HW2 2266   2.956   3.722   3.016
 2835SOL     OW 2267   3.214   3.776   2.030
 2835SOL    HW1 2268   3.249   3.735   1.946
 2835SOL    HW2 2269   3.124   3.738   2.050
 2955SOL     OW 2270   3.854   1.821   1.571
 2955SOL    HW1 2271   3.844   1.806   1.670
 2955SOL    HW2 2272   3.768   1.857   1.535
 3027SOL     OW 2273   3.854   1.794   1.851
 3027SOL    HW1 2274   3.813   1.720   1.904
 3027SOL    HW2 2275   3.918   1.845   1.909
 3070SOL     OW 2276   3.955   1.713   2.345
 3070SOL    HW1 2277   3.989   1.790   2.399
 3070SOL    HW2 2278   3.999   1.713   2.255
 3077SOL     OW 2279   3.751   1.596   1.979
 3077SOL    HW1 2280   3.732   1.500   2.000
 3077SOL    HW2 2281   3.718   1.654   2.054
 3093SOL     OW 2282   4.075   1.801   2.715
 3093SOL    HW1 2283   4.125   1.715   2.721
 3093SOL    HW2 2284   4.140   1.878   2.712
 3098SOL     OW 2285   3.973   1.785   3.103
 3098SOL    HW1 2286   4.030   1.720   3.153
 3098SOL    HW2 2287   3.957   1.752   3.010
 3123SOL     OW 2288   3.788   1.564   3.193
 3123SOL    HW1 2289   3.742   1.646   3.159
 3123SOL    HW2 2290   3.886   1.583   3.202
 3144SOL     OW 2291   3.732   1.326   2.062
 3144SOL    HW1 2292   3.639   1.347   2.031
 3144SOL    HW2 2293   3.742   1.227   2.075
 3145SOL     OW 2294   3.812   1.801   2.789
 3145SOL    HW1 2295   3.770   1.715   2.762
 3145SOL    HW2 2296   3.906   1.804   2.755
 3296SOL     OW 2297   3.837   2.599   1.597
 3296SOL    HW1 2298   3.925   2.586   1.642
 3296SOL    HW2 2299   3.824   2.696   1.575
 3300SOL     OW 2300   4.041   2.113   1.801
 3300SOL    HW1 2301   4.112   2.184   1.807
 3300SOL    HW2 2302   3.953   2.152   1.829
 3314SOL     OW 2303   3.926   2.147   1.498
 3314SOL    HW1 2304   3.846   2.207   1.485
 3314SOL    HW2 2305   3.916   2.098   1.584
 3331SOL     OW 2306   3.802   2.418   1.386
 3331SOL    HW1 2307   3.894   2.417   1.345
 3331SOL    HW2 2308   3.796   2.492   1.453
 3357SOL     OW 2309   4.074   2.760   1.804
 3357SOL    HW1 2310   4.150   2.804   1.852
 3357SOL    HW2 2311   4.109   2.713   1.722
 3368SOL     OW 2312   3.913   2.382   1.722
 3368SOL    HW1 2313   3.972   2.342   1.652
 3368SOL    HW2 2314   3.855   2.453   1.681
 3390SOL     OW 2315   3.829   2.875   1.726
 3390SOL    HW1 2316   3.752   2.842   1.780
 3390SOL    HW2 2317   3.914   2.845   1.768
 3401SOL     OW 2318   3.945   3.176   1.844
 3401SOL    HW1 2319   3.880   3.103   1.823
 3401SOL    HW2 2320   3.949   3.190   1.942
 3412SOL     OW 2321   3.954   2.490   1.975
 3412SOL    HW1 2322   3.861   2.488   2.012
 3412SOL    HW2 2323   3.955   2.451   1.883
 3413SOL     OW 2324   3.949   2.137   2.858
 3413SOL    HW1 2325   3.984   2.120   2.950
 3413SOL    HW2 2326   3.861   2.092   2.846
 3414SOL     OW 2327   3.743   2.230   2.509
 3414SOL    HW1 2328   3.661   2.273   2.548
 3414SOL    HW2 2329   3.715   2.157   2.446
 3424SOL     OW 2330   3.954   3.296   2.400
 3424SOL    HW1 2331   3.928   3.392   2.400
 3424SOL    HW2 2332   3.883   3.242   2.445
 3425SOL     OW 2333   3.964   2.953   2.748
 3425SOL    HW1 2334   3.978   2.869   2.800
 3425SOL    HW2 2335   3.909   3.017   2.803
 3428SOL     OW 2336   3.846   2.505   2.425
 3428SOL    HW1 2337   3.801   2.417   2.442
 3428SOL    HW2 2338   3.845   2.559   2.509
 3429SOL     OW 2339   3.751   3.458   1.979
 3429SOL    HW1 2340   3.732   3.362   2.000
 3429SOL    HW2 2341   3.718   3.516   2.054
 3430SOL     OW 2342   3.837   2.599   3.459
 3430SOL    HW1 2343   3.925   2.586   3.504
 3430SOL    HW2 2344   3.824   2.696   3.437
 3433SOL     OW 2345   3.921   2.838   3.126
 3433SOL    HW1 2346   4.010   2.793   3.112
 3433SOL    HW2 2347   3.848   2.773   3.107
 3440SOL     OW 2348   3.800   2.673   2.651
 3440SOL    HW1 2349   3.899   2.661   2.660
 3440SOL    HW2 2350   3.776   2.768   2.672
 3446SOL     OW 2351   4.045   2.805   2.104
 3446SOL    HW1 2352   4.127   2.844   2.062
 3446SOL    HW2 2353   4.018   2.723   2.055
 3448SOL     OW 2354   3.926   2.147   3.360
 3448SOL    HW1 2355   3.846   2.207   3.347
 3448SOL    HW2 2356   3.916   2.098   3.446
 3452SOL     OW 2357   4.106   2.562   2.342
 3452SOL    HW1 2358   4.151   2.472   2.339
 3452SOL    HW2 2359   4.012   2.551   2.375
 3459SOL     OW 2360   4.021   1.897   2.033
 3459SOL    HW1 2361   4.070   1.981   2.012
 3459SOL    HW2 2362   4.083   1.832   2.078
 3465SOL     OW 2363   3.802   2.418   3.248
 3465SOL    HW1 2364   3.894   2.417   3.207
 3465SOL    HW2 2365   3.796   2.492   3.315
 3476SOL     OW 2366   4.091   2.962   2.363
 3476SOL    HW1 2367   4.084   3.045   2.307
 3476SOL    HW2 2368   4.095   2.882   2.303
 3485SOL     OW 2369   4.031   2.075   3.093
 3485SOL    HW1 2370   4.008   2.112   3.183
 3485SOL    HW2 2371   4.001   1.980   3.087
 3486SOL     OW 2372   3.761   3.172   3.144
 3486SOL    HW1 2373   3.814   3.123   3.212
 3486SOL    HW2 2374   3.783   3.270   3.149
 3488SOL     OW 2375   4.031   1.925   2.480
 3488SOL    HW1 2376   4.020   2.019   2.513
 3488SOL    HW2 2377   4.026   1.862   2.557
 3493SOL     OW 2378   4.043   2.672   2.811
 3493SOL    HW1 2379   4.136   2.708   2.816
 3493SOL    HW2 2380   4.037   2.587   2.863
 3494SOL     OW 2381   4.063   2.371   2.868
 3494SOL    HW1 2382   4.011   2.288   2.851
 3494SOL    HW2 2383   4.140   2.376   2.804
 3497SOL     OW 2384   3.732   3.188   2.062
 3497SOL    HW1 2385   3.639   3.209   2.031
 3497SOL    HW2 2386   3.742   3.089   2.075
 3501SOL     OW 2387   3.764   2.406   2.976
 3501SOL    HW1 2388   3.849   2.373   2.935
 3501SOL    HW2 2389   3.777   2.421   3.074
 3507SOL     OW 2390   4.197   2.362   2.053
 3507SOL    HW1 2391   4.258   2.442   2.057
 3507SOL    HW2 2392   4.102   2.393   2.060
 3508SOL     OW 2393   3.883   2.999   3.328
 3508SOL    HW1 2394   3.905   2.938   3.404
 3508SOL    HW2 2395   3.893   2.950   3.242
 3510SOL     OW 2396   3.807   3.120   2.884
 3510SOL    HW1 2397   3.802   3.119   2.984
 3510SOL    HW2 2398   3.724   3.079   2.846
 3515SOL     OW 2399   3.987   2.188   2.582
 3515SOL    HW1 2400   3.908   2.239   2.548
 3515SOL    HW2 2401   3.978   2.173   2.680
 3522SOL     OW 2402   3.979   3.210   2.152
 3522SOL    HW1 2403   3.883   3.211   2.125
 3522SOL    HW2 2404   3.991   3.263   2.236
 3525SOL     OW 2405   3.799   2.207   1.895
 3525SOL    HW1 2406   3.707   2.179   1.866
 3525SOL    HW2 2407   3.830   2.284   1.839
 3526SOL     OW 2408   3.796   2.028   2.180
 3526SOL    HW1 2409   3.779   2.111   2.126
 3526SOL    HW2 2410   3.886   1.991   2.158
 3536SOL     OW 2411   3.803   3.102   2.515
 3536SOL    HW1 2412   3.802   3.055   2.603
 3536SOL    HW2 2413   3.885   3.074   2.464
 3538SOL     OW 2414   4.152   2.286   2.382
 3538SOL    HW1 2415   4.182   2.214   2.320
 3538SOL    HW2 2416   4.113   2.246   2.465
 3539SOL     OW 2417   4.041   2.409   3.142
 3539SOL    HW1 2418   4.079   2.350   3.214
 3539SOL    HW2 2419   4.081   2.383   3.054
 3544SOL     OW 2420   3.763   2.939   2.162
 3544SOL    HW1 2421   3.862   2.928   2.153
 3544SOL    HW2 2422   3.723   2.853   2.194
   4.91339   4.91339   4.91339
