; mobley_1527293_GMX.itp created by acpype (v: 2023.10.27) on Thu May 21 00:04:11 2026

[ atomtypes ]
;name   bond_type     mass     charge   ptype   sigma         epsilon       Amb
 ca       ca          0.00000  0.00000   A     3.31521e-01   4.13379e-01 ; 1.86  0.0988
 cp       cp          0.00000  0.00000   A     3.31521e-01   4.13379e-01 ; 1.86  0.0988
 c        c           0.00000  0.00000   A     3.31521e-01   4.13379e-01 ; 1.86  0.0988
 c3       c3          0.00000  0.00000   A     3.39771e-01   4.51035e-01 ; 1.91  0.1078
 o        o           0.00000  0.00000   A     3.04812e-01   6.12119e-01 ; 1.71  0.1463
 oh       oh          0.00000  0.00000   A     3.24287e-01   3.89112e-01 ; 1.82  0.0930
 f        f           0.00000  0.00000   A     3.03422e-01   3.48109e-01 ; 1.70  0.0832
 ha       ha          0.00000  0.00000   A     2.62548e-01   6.73624e-02 ; 1.47  0.0161
 hc       hc          0.00000  0.00000   A     2.60018e-01   8.70272e-02 ; 1.46  0.0208
 ho       ho          0.00000  0.00000   A     5.37925e-02   1.96648e-02 ; 0.30  0.0047

[ moleculetype ]
;name            nrexcl
 mobley_1527293   3

[ atoms ]
;   nr  type  resi  res  atom  cgnr     charge      mass       ; qtot   bond_type
     1   ca     1   MOL    C1    1    -0.122000     12.01000 ; qtot -0.122
     2   ca     1   MOL    C2    2    -0.131500     12.01000 ; qtot -0.253
     3   ca     1   MOL    C3    3    -0.131500     12.01000 ; qtot -0.385
     4   ca     1   MOL    C4    4    -0.110000     12.01000 ; qtot -0.495
     5   ca     1   MOL    C5    5    -0.110000     12.01000 ; qtot -0.605
     6   ca     1   MOL    C6    6    -0.102000     12.01000 ; qtot -0.707
     7   ca     1   MOL    C7    7    -0.132000     12.01000 ; qtot -0.839
     8   ca     1   MOL    C8    8    -0.154000     12.01000 ; qtot -0.993
     9   cp     1   MOL    C9    9    -0.045000     12.01000 ; qtot -1.038
    10   cp     1   MOL   C10   10    -0.058000     12.01000 ; qtot -1.096
    11   ca     1   MOL   C11   11    -0.067300     12.01000 ; qtot -1.163
    12   ca     1   MOL   C12   12     0.136900     12.01000 ; qtot -1.026
    13    c     1   MOL   C13   13     0.639101     12.01000 ; qtot -0.387
    14   c3     1   MOL   C14   14    -0.092100     12.01000 ; qtot -0.479
    15   c3     1   MOL   C15   15    -0.058400     12.01000 ; qtot -0.538
    16    o     1   MOL    O1   16    -0.548000     16.00000 ; qtot -1.086
    17   oh     1   MOL    O2   17    -0.605100     16.00000 ; qtot -1.691
    18    f     1   MOL    F1   18    -0.133900     19.00000 ; qtot -1.825
    19   ha     1   MOL    H1   19     0.133000      1.00800 ; qtot -1.692
    20   ha     1   MOL    H2   20     0.134000      1.00800 ; qtot -1.558
    21   ha     1   MOL    H3   21     0.134000      1.00800 ; qtot -1.424
    22   ha     1   MOL    H4   22     0.137500      1.00800 ; qtot -1.286
    23   ha     1   MOL    H5   23     0.137500      1.00800 ; qtot -1.149
    24   ha     1   MOL    H6   24     0.144000      1.00800 ; qtot -1.005
    25   ha     1   MOL    H7   25     0.139000      1.00800 ; qtot -0.866
    26   ha     1   MOL    H8   26     0.172000      1.00800 ; qtot -0.694
    27   hc     1   MOL    H9   27     0.053033      1.00800 ; qtot -0.641
    28   hc     1   MOL   H10   28     0.053033      1.00800 ; qtot -0.588
    29   hc     1   MOL   H11   29     0.053033      1.00800 ; qtot -0.535
    30   hc     1   MOL   H12   30     0.089700      1.00800 ; qtot -0.445
    31   ho     1   MOL   H13   31     0.445000      1.00800 ; qtot -0.000

[ bonds ]
;   ai     aj funct   r             k
     1      2   1    1.3986e-01    2.9644e+05 ;     C1 - C2    
     1      3   1    1.3986e-01    2.9644e+05 ;     C1 - C3    
     1     19   1    1.0860e-01    3.0183e+05 ;     C1 - H1    
     2      4   1    1.3986e-01    2.9644e+05 ;     C2 - C4    
     2     20   1    1.0860e-01    3.0183e+05 ;     C2 - H2    
     3      5   1    1.3986e-01    2.9644e+05 ;     C3 - C5    
     3     21   1    1.0860e-01    3.0183e+05 ;     C3 - H3    
     4      9   1    1.4056e-01    2.8959e+05 ;     C4 - C9    
     4     22   1    1.0860e-01    3.0183e+05 ;     C4 - H4    
     5      9   1    1.4056e-01    2.8959e+05 ;     C5 - C9    
     5     23   1    1.0860e-01    3.0183e+05 ;     C5 - H5    
     6      7   1    1.3986e-01    2.9644e+05 ;     C6 - C7    
     6     10   1    1.4056e-01    2.8959e+05 ;     C6 - C10   
     6     24   1    1.0860e-01    3.0183e+05 ;     C6 - H6    
     7     11   1    1.3986e-01    2.9644e+05 ;     C7 - C11   
     7     25   1    1.0860e-01    3.0183e+05 ;     C7 - H7    
     8     11   1    1.3986e-01    2.9644e+05 ;     C8 - C11   
     8     12   1    1.3986e-01    2.9644e+05 ;     C8 - C12   
     8     26   1    1.0860e-01    3.0183e+05 ;     C8 - H8    
     9     10   1    1.4829e-01    2.2541e+05 ;     C9 - C10   
    10     12   1    1.4056e-01    2.8959e+05 ;    C10 - C12   
    11     15   1    1.5147e-01    2.0410e+05 ;    C11 - C15   
    12     18   1    1.3502e-01    2.8070e+05 ;    C12 - F1    
    13     15   1    1.5270e-01    1.9652e+05 ;    C13 - C15   
    13     16   1    1.2190e-01    4.9421e+05 ;    C13 - O1    
    13     17   1    1.3556e-01    3.0064e+05 ;    C13 - O2    
    14     15   1    1.5354e-01    1.9154e+05 ;    C14 - C15   
    14     27   1    1.0962e-01    2.8891e+05 ;    C14 - H9    
    14     28   1    1.0962e-01    2.8891e+05 ;    C14 - H10   
    14     29   1    1.0962e-01    2.8891e+05 ;    C14 - H11   
    15     30   1    1.0962e-01    2.8891e+05 ;    C15 - H12   
    17     31   1    9.7250e-02    4.4811e+05 ;     O2 - H13   

[ pairs ]
;   ai     aj    funct
     1      9      1 ;     C1 - C9    
     1     22      1 ;     C1 - H4    
     1     23      1 ;     C1 - H5    
     2      5      1 ;     C2 - C5    
     2     10      1 ;     C2 - C10   
     2     21      1 ;     C2 - H3    
     3      4      1 ;     C3 - C4    
     3     10      1 ;     C3 - C10   
     3     20      1 ;     C3 - H2    
     4      6      1 ;     C4 - C6    
     4     12      1 ;     C4 - C12   
     4     23      1 ;     C4 - H5    
     5      6      1 ;     C5 - C6    
     5     12      1 ;     C5 - C12   
     5     22      1 ;     C5 - H4    
     6      8      1 ;     C6 - C8    
     6     15      1 ;     C6 - C15   
     6     18      1 ;     C6 - F1    
     7      9      1 ;     C7 - C9    
     7     12      1 ;     C7 - C12   
     7     13      1 ;     C7 - C13   
     7     14      1 ;     C7 - C14   
     7     26      1 ;     C7 - H8    
     7     30      1 ;     C7 - H12   
     8      9      1 ;     C8 - C9    
     8     13      1 ;     C8 - C13   
     8     14      1 ;     C8 - C14   
     8     25      1 ;     C8 - H7    
     8     30      1 ;     C8 - H12   
     9     18      1 ;     C9 - F1    
     9     20      1 ;     C9 - H2    
     9     21      1 ;     C9 - H3    
     9     24      1 ;     C9 - H6    
    10     11      1 ;    C10 - C11   
    10     22      1 ;    C10 - H4    
    10     23      1 ;    C10 - H5    
    10     25      1 ;    C10 - H7    
    10     26      1 ;    C10 - H8    
    11     16      1 ;    C11 - O1    
    11     17      1 ;    C11 - O2    
    11     18      1 ;    C11 - F1    
    11     24      1 ;    C11 - H6    
    11     27      1 ;    C11 - H9    
    11     28      1 ;    C11 - H10   
    11     29      1 ;    C11 - H11   
    12     15      1 ;    C12 - C15   
    12     24      1 ;    C12 - H6    
    13     27      1 ;    C13 - H9    
    13     28      1 ;    C13 - H10   
    13     29      1 ;    C13 - H11   
    14     16      1 ;    C14 - O1    
    14     17      1 ;    C14 - O2    
    15     25      1 ;    C15 - H7    
    15     26      1 ;    C15 - H8    
    15     31      1 ;    C15 - H13   
    16     30      1 ;     O1 - H12   
    16     31      1 ;     O1 - H13   
    17     30      1 ;     O2 - H12   
    18     26      1 ;     F1 - H8    
    19      4      1 ;     H1 - C4    
    19      5      1 ;     H1 - C5    
    19     20      1 ;     H1 - H2    
    19     21      1 ;     H1 - H3    
    20     22      1 ;     H2 - H4    
    21     23      1 ;     H3 - H5    
    24     25      1 ;     H6 - H7    
    27     30      1 ;     H9 - H12   
    28     30      1 ;    H10 - H12   
    29     30      1 ;    H11 - H12   

[ angles ]
;   ai     aj     ak    funct   theta         cth
     1      2      4      1    1.2002e+02    5.3279e+02 ;     C1 - C2     - C4    
     1      2     20      1    1.1988e+02    3.7572e+02 ;     C1 - C2     - H2    
     1      3      5      1    1.2002e+02    5.3279e+02 ;     C1 - C3     - C5    
     1      3     21      1    1.1988e+02    3.7572e+02 ;     C1 - C3     - H3    
     2      1      3      1    1.2002e+02    5.3279e+02 ;     C2 - C1     - C3    
     2      1     19      1    1.1988e+02    3.7572e+02 ;     C2 - C1     - H1    
     2      4      9      1    1.2073e+02    5.2995e+02 ;     C2 - C4     - C9    
     2      4     22      1    1.1988e+02    3.7572e+02 ;     C2 - C4     - H4    
     3      1     19      1    1.1988e+02    3.7572e+02 ;     C3 - C1     - H1    
     3      5      9      1    1.2073e+02    5.2995e+02 ;     C3 - C5     - C9    
     3      5     23      1    1.1988e+02    3.7572e+02 ;     C3 - C5     - H5    
     4      2     20      1    1.1988e+02    3.7572e+02 ;     C4 - C2     - H2    
     4      9      5      1    1.1841e+02    5.3379e+02 ;     C4 - C9     - C5    
     4      9     10      1    1.2110e+02    5.1296e+02 ;     C4 - C9     - C10   
     5      3     21      1    1.1988e+02    3.7572e+02 ;     C5 - C3     - H3    
     5      9     10      1    1.2110e+02    5.1296e+02 ;     C5 - C9     - C10   
     6      7     11      1    1.2002e+02    5.3279e+02 ;     C6 - C7     - C11   
     6      7     25      1    1.1988e+02    3.7572e+02 ;     C6 - C7     - H7    
     6     10      9      1    1.2110e+02    5.1296e+02 ;     C6 - C10    - C9    
     6     10     12      1    1.1841e+02    5.3379e+02 ;     C6 - C10    - C12   
     7      6     10      1    1.2073e+02    5.2995e+02 ;     C7 - C6     - C10   
     7      6     24      1    1.1988e+02    3.7572e+02 ;     C7 - C6     - H6    
     7     11      8      1    1.2002e+02    5.3279e+02 ;     C7 - C11    - C8    
     7     11     15      1    1.2083e+02    5.0827e+02 ;     C7 - C11    - C15   
     8     11     15      1    1.2083e+02    5.0827e+02 ;     C8 - C11    - C15   
     8     12     10      1    1.2073e+02    5.2995e+02 ;     C8 - C12    - C10   
     8     12     18      1    1.1896e+02    6.7404e+02 ;     C8 - C12    - F1    
     9      4     22      1    1.1982e+02    3.7430e+02 ;     C9 - C4     - H4    
     9      5     23      1    1.1982e+02    3.7430e+02 ;     C9 - C5     - H5    
     9     10     12      1    1.2110e+02    5.1296e+02 ;     C9 - C10    - C12   
    10      6     24      1    1.1982e+02    3.7430e+02 ;    C10 - C6     - H6    
    10     12     18      1    1.1943e+02    6.7095e+02 ;    C10 - C12    - F1    
    11      7     25      1    1.1988e+02    3.7572e+02 ;    C11 - C7     - H7    
    11      8     12      1    1.2002e+02    5.3279e+02 ;    C11 - C8     - C12   
    11      8     26      1    1.1988e+02    3.7572e+02 ;    C11 - C8     - H8    
    11     15     13      1    1.1116e+02    5.0911e+02 ;    C11 - C15    - C13   
    11     15     14      1    1.1242e+02    5.0484e+02 ;    C11 - C15    - C14   
    11     15     30      1    1.1063e+02    3.6493e+02 ;    C11 - C15    - H12   
    12      8     26      1    1.1988e+02    3.7572e+02 ;    C12 - C8     - H8    
    13     15     14      1    1.1143e+02    5.0509e+02 ;    C13 - C15    - C14   
    13     15     30      1    1.0895e+02    3.6510e+02 ;    C13 - C15    - H12   
    13     17     31      1    1.0654e+02    5.7287e+02 ;    C13 - O2     - H13   
    14     15     30      1    1.0968e+02    3.6208e+02 ;    C14 - C15    - H12   
    15     13     16      1    1.2290e+02    6.3973e+02 ;    C15 - C13    - O1    
    15     13     17      1    1.1274e+02    6.4785e+02 ;    C15 - C13    - O2    
    15     14     27      1    1.0968e+02    3.6208e+02 ;    C15 - C14    - H9    
    15     14     28      1    1.0968e+02    3.6208e+02 ;    C15 - C14    - H10   
    15     14     29      1    1.0968e+02    3.6208e+02 ;    C15 - C14    - H11   
    16     13     17      1    1.2209e+02    8.5379e+02 ;     O1 - C13    - O2    
    27     14     28      1    1.0773e+02    2.9957e+02 ;     H9 - C14    - H10   
    27     14     29      1    1.0773e+02    2.9957e+02 ;     H9 - C14    - H11   
    28     14     29      1    1.0773e+02    2.9957e+02 ;    H10 - C14    - H11   

[ dihedrals ] ; propers
; for gromacs 4.5 or higher, using funct 9
;    i      j      k      l   func   phase     kd      pn
     1      2      4      9      9   180.00  15.16700   2 ;     C1-    C2-    C4-    C9
     1      2      4     22      9   180.00  15.16700   2 ;     C1-    C2-    C4-    H4
     1      3      5      9      9   180.00  15.16700   2 ;     C1-    C3-    C5-    C9
     1      3      5     23      9   180.00  15.16700   2 ;     C1-    C3-    C5-    H5
     2      1      3      5      9   180.00  15.16700   2 ;     C2-    C1-    C3-    C5
     2      1      3     21      9   180.00  15.16700   2 ;     C2-    C1-    C3-    H3
     2      4      9      5      9   180.00  15.16700   2 ;     C2-    C4-    C9-    C5
     2      4      9     10      9   180.00  15.16700   2 ;     C2-    C4-    C9-   C10
     3      1      2      4      9   180.00  15.16700   2 ;     C3-    C1-    C2-    C4
     3      1      2     20      9   180.00  15.16700   2 ;     C3-    C1-    C2-    H2
     3      5      9      4      9   180.00  15.16700   2 ;     C3-    C5-    C9-    C4
     3      5      9     10      9   180.00  15.16700   2 ;     C3-    C5-    C9-   C10
     4      9      5     23      9   180.00  15.16700   2 ;     C4-    C9-    C5-    H5
     4      9     10      6      9   180.00   3.20076   2 ;     C4-    C9-   C10-    C6
     4      9     10     12      9   180.00   3.20076   2 ;     C4-    C9-   C10-   C12
     5      9      4     22      9   180.00  15.16700   2 ;     C5-    C9-    C4-    H4
     5      9     10      6      9   180.00   3.20076   2 ;     C5-    C9-   C10-    C6
     5      9     10     12      9   180.00   3.20076   2 ;     C5-    C9-   C10-   C12
     6      7     11      8      9   180.00  15.16700   2 ;     C6-    C7-   C11-    C8
     6      7     11     15      9   180.00  15.16700   2 ;     C6-    C7-   C11-   C15
     6     10     12      8      9   180.00  15.16700   2 ;     C6-   C10-   C12-    C8
     6     10     12     18      9   180.00  15.16700   2 ;     C6-   C10-   C12-    F1
     7      6     10      9      9   180.00  15.16700   2 ;     C7-    C6-   C10-    C9
     7      6     10     12      9   180.00  15.16700   2 ;     C7-    C6-   C10-   C12
     7     11      8     12      9   180.00  15.16700   2 ;     C7-   C11-    C8-   C12
     7     11      8     26      9   180.00  15.16700   2 ;     C7-   C11-    C8-    H8
     7     11     15     13      9     0.00   0.00000   0 ;     C7-   C11-   C15-   C13
     7     11     15     14      9   180.00   1.00416   2 ;     C7-   C11-   C15-   C14
     7     11     15     30      9     0.00   0.00000   0 ;     C7-   C11-   C15-   H12
     8     11      7     25      9   180.00  15.16700   2 ;     C8-   C11-    C7-    H7
     8     11     15     13      9     0.00   0.00000   0 ;     C8-   C11-   C15-   C13
     8     11     15     14      9   180.00   1.00416   2 ;     C8-   C11-   C15-   C14
     8     11     15     30      9     0.00   0.00000   0 ;     C8-   C11-   C15-   H12
     8     12     10      9      9   180.00  15.16700   2 ;     C8-   C12-   C10-    C9
     9      4      2     20      9   180.00  15.16700   2 ;     C9-    C4-    C2-    H2
     9      5      3     21      9   180.00  15.16700   2 ;     C9-    C5-    C3-    H3
     9     10      6     24      9   180.00  15.16700   2 ;     C9-   C10-    C6-    H6
     9     10     12     18      9   180.00  15.16700   2 ;     C9-   C10-   C12-    F1
    10      6      7     11      9   180.00  15.16700   2 ;    C10-    C6-    C7-   C11
    10      6      7     25      9   180.00  15.16700   2 ;    C10-    C6-    C7-    H7
    10      9      4     22      9   180.00  15.16700   2 ;    C10-    C9-    C4-    H4
    10      9      5     23      9   180.00  15.16700   2 ;    C10-    C9-    C5-    H5
    10     12      8     11      9   180.00  15.16700   2 ;    C10-   C12-    C8-   C11
    10     12      8     26      9   180.00  15.16700   2 ;    C10-   C12-    C8-    H8
    11      7      6     24      9   180.00  15.16700   2 ;    C11-    C7-    C6-    H6
    11      8     12     18      9   180.00  15.16700   2 ;    C11-    C8-   C12-    F1
    11     15     13     16      9   180.00   0.00000   2 ;    C11-   C15-   C13-    O1
    11     15     13     17      9   180.00   0.00000   2 ;    C11-   C15-   C13-    O2
    11     15     14     27      9     0.00   0.65084   3 ;    C11-   C15-   C14-    H9
    11     15     14     28      9     0.00   0.65084   3 ;    C11-   C15-   C14-   H10
    11     15     14     29      9     0.00   0.65084   3 ;    C11-   C15-   C14-   H11
    12      8     11     15      9   180.00  15.16700   2 ;    C12-    C8-   C11-   C15
    12     10      6     24      9   180.00  15.16700   2 ;    C12-   C10-    C6-    H6
    13     15     14     27      9     0.00   0.65084   3 ;    C13-   C15-   C14-    H9
    13     15     14     28      9     0.00   0.65084   3 ;    C13-   C15-   C14-   H10
    13     15     14     29      9     0.00   0.65084   3 ;    C13-   C15-   C14-   H11
    14     15     13     16      9     0.00   2.84512   1 ;    C14-   C15-   C13-    O1
    14     15     13     16      9   180.00   0.83680   2 ;    C14-   C15-   C13-    O1
    14     15     13     16      9   180.00   1.84096   3 ;    C14-   C15-   C13-    O1
    14     15     13     17      9   180.00   0.00000   2 ;    C14-   C15-   C13-    O2
    15     11      7     25      9   180.00  15.16700   2 ;    C15-   C11-    C7-    H7
    15     11      8     26      9   180.00  15.16700   2 ;    C15-   C11-    C8-    H8
    15     13     17     31      9   180.00   7.53120   2 ;    C15-   C13-    O2-   H13
    16     13     15     30      9     0.00  16.86152   1 ;     O1-   C13-   C15-   H12
    16     13     15     30      9   180.00  15.31344   2 ;     O1-   C13-   C15-   H12
    16     13     17     31      9     0.00   7.94960   1 ;     O1-   C13-    O2-   H13
    16     13     17     31      9   180.00   9.62320   2 ;     O1-   C13-    O2-   H13
    17     13     15     30      9   180.00   0.00000   2 ;     O2-   C13-   C15-   H12
    18     12      8     26      9   180.00  15.16700   2 ;     F1-   C12-    C8-    H8
    19      1      2      4      9   180.00  15.16700   2 ;     H1-    C1-    C2-    C4
    19      1      2     20      9   180.00  15.16700   2 ;     H1-    C1-    C2-    H2
    19      1      3      5      9   180.00  15.16700   2 ;     H1-    C1-    C3-    C5
    19      1      3     21      9   180.00  15.16700   2 ;     H1-    C1-    C3-    H3
    20      2      4     22      9   180.00  15.16700   2 ;     H2-    C2-    C4-    H4
    21      3      5     23      9   180.00  15.16700   2 ;     H3-    C3-    C5-    H5
    24      6      7     25      9   180.00  15.16700   2 ;     H6-    C6-    C7-    H7
    27     14     15     30      9     0.00   0.50208   3 ;     H9-   C14-   C15-   H12
    28     14     15     30      9     0.00   0.50208   3 ;    H10-   C14-   C15-   H12
    29     14     15     30      9     0.00   0.50208   3 ;    H11-   C14-   C15-   H12

[ dihedrals ] ; impropers
; treated as propers in GROMACS to use correct AMBER analytical function
;    i      j      k      l   func   phase     kd      pn
     1      4      2     20      4   180.00   4.60240   2 ;     C1-    C4-    C2-    H2
     1      5      3     21      4   180.00   4.60240   2 ;     C1-    C5-    C3-    H3
     2      9      4     22      4   180.00   4.60240   2 ;     C2-    C9-    C4-    H4
     3      9      5     23      4   180.00   4.60240   2 ;     C3-    C9-    C5-    H5
     4      5      9     10      4   180.00   4.60240   2 ;     C4-    C5-    C9-   C10
     6     11      7     25      4   180.00   4.60240   2 ;     C6-   C11-    C7-    H7
     6     12     10      9      4   180.00   4.60240   2 ;     C6-   C12-   C10-    C9
     7      8     11     15      4   180.00   4.60240   2 ;     C7-    C8-   C11-   C15
     7     10      6     24      4   180.00   4.60240   2 ;     C7-   C10-    C6-    H6
     8     10     12     18      4   180.00   4.60240   2 ;     C8-   C10-   C12-    F1
    11     12      8     26      4   180.00   4.60240   2 ;    C11-   C12-    C8-    H8
    15     16     13     17      4   180.00   4.60240   2 ;    C15-    O1-   C13-    O2
    19      1      3      2      4   180.00   4.60240   2 ;     H1-    C1-    C3-    C2
