; mobley_3201701_GMX.itp created by acpype (v: 2023.10.27) on Wed May 20 23:50:27 2026

[ atomtypes ]
;name   bond_type     mass     charge   ptype   sigma         epsilon       Amb
 ca       ca          0.00000  0.00000   A     3.31521e-01   4.13379e-01 ; 1.86  0.0988
 c        c           0.00000  0.00000   A     3.31521e-01   4.13379e-01 ; 1.86  0.0988
 c3       c3          0.00000  0.00000   A     3.39771e-01   4.51035e-01 ; 1.91  0.1078
 nb       nb          0.00000  0.00000   A     3.38417e-01   3.93714e-01 ; 1.90  0.0941
 nh       nh          0.00000  0.00000   A     3.18995e-01   8.99560e-01 ; 1.79  0.2150
 n        n           0.00000  0.00000   A     3.18086e-01   6.84502e-01 ; 1.79  0.1636
 o        o           0.00000  0.00000   A     3.04812e-01   6.12119e-01 ; 1.71  0.1463
 os       os          0.00000  0.00000   A     3.15610e-01   3.03758e-01 ; 1.77  0.0726
 hc       hc          0.00000  0.00000   A     2.60018e-01   8.70272e-02 ; 1.46  0.0208
 h1       h1          0.00000  0.00000   A     2.42200e-01   8.70272e-02 ; 1.36  0.0208

[ moleculetype ]
;name            nrexcl
 mobley_3201701   3

[ atoms ]
;   nr  type  resi  res  atom  cgnr     charge      mass       ; qtot   bond_type
     1   ca     1   MOL    C1    1    -0.359900     12.01000 ; qtot -0.360
     2   ca     1   MOL    C2    2     0.491600     12.01000 ; qtot 0.132
     3   ca     1   MOL    C3    3     0.705600     12.01000 ; qtot 0.837
     4   ca     1   MOL    C4    4     0.893897     12.01000 ; qtot 1.731
     5    c     1   MOL    C5    5     0.763100     12.01000 ; qtot 2.494
     6   c3     1   MOL    C6    6    -0.027800     12.01000 ; qtot 2.466
     7   c3     1   MOL    C7    7    -0.154400     12.01000 ; qtot 2.312
     8   c3     1   MOL    C8    8     0.193600     12.01000 ; qtot 2.506
     9   c3     1   MOL    C9    9     0.193600     12.01000 ; qtot 2.699
    10   c3     1   MOL   C10   10     0.081300     12.01000 ; qtot 2.781
    11   c3     1   MOL   C11   11     0.081300     12.01000 ; qtot 2.862
    12   nb     1   MOL    N1   12    -0.758000     14.01000 ; qtot 2.104
    13   nb     1   MOL    N2   13    -0.790000     14.01000 ; qtot 1.314
    14   nh     1   MOL    N3   14    -0.738300     14.01000 ; qtot 0.576
    15    n     1   MOL    N4   15    -0.450800     14.01000 ; qtot 0.125
    16    o     1   MOL    O1   16    -0.530000     16.00000 ; qtot -0.405
    17   os     1   MOL    O2   17    -0.489400     16.00000 ; qtot -0.895
    18   hc     1   MOL    H1   18     0.046700      1.00800 ; qtot -0.848
    19   hc     1   MOL    H2   19     0.046700      1.00800 ; qtot -0.801
    20   hc     1   MOL    H3   20     0.046700      1.00800 ; qtot -0.755
    21   hc     1   MOL    H4   21     0.059367      1.00800 ; qtot -0.695
    22   hc     1   MOL    H5   22     0.059367      1.00800 ; qtot -0.636
    23   hc     1   MOL    H6   23     0.059367      1.00800 ; qtot -0.576
    24   h1     1   MOL    H7   24     0.046367      1.00800 ; qtot -0.530
    25   h1     1   MOL    H8   25     0.046367      1.00800 ; qtot -0.484
    26   h1     1   MOL    H9   26     0.046367      1.00800 ; qtot -0.437
    27   h1     1   MOL   H10   27     0.046367      1.00800 ; qtot -0.391
    28   h1     1   MOL   H11   28     0.046367      1.00800 ; qtot -0.345
    29   h1     1   MOL   H12   29     0.046367      1.00800 ; qtot -0.298
    30   h1     1   MOL   H13   30     0.049700      1.00800 ; qtot -0.248
    31   h1     1   MOL   H14   31     0.049700      1.00800 ; qtot -0.199
    32   h1     1   MOL   H15   32     0.049700      1.00800 ; qtot -0.149
    33   h1     1   MOL   H16   33     0.049700      1.00800 ; qtot -0.099
    34   h1     1   MOL   H17   34     0.049700      1.00800 ; qtot -0.050
    35   h1     1   MOL   H18   35     0.049700      1.00800 ; qtot 0.000

[ bonds ]
;   ai     aj funct   r             k
     1      2   1    1.3986e-01    2.9644e+05 ;     C1 - C2    
     1      3   1    1.3986e-01    2.9644e+05 ;     C1 - C3    
     1      6   1    1.5147e-01    2.0410e+05 ;     C1 - C6    
     2      7   1    1.5147e-01    2.0410e+05 ;     C2 - C7    
     2     12   1    1.3392e-01    3.2341e+05 ;     C2 - N1    
     3     13   1    1.3392e-01    3.2341e+05 ;     C3 - N2    
     3     17   1    1.3688e-01    2.8731e+05 ;     C3 - O2    
     4     12   1    1.3392e-01    3.2341e+05 ;     C4 - N1    
     4     13   1    1.3392e-01    3.2341e+05 ;     C4 - N2    
     4     14   1    1.4030e-01    2.6011e+05 ;     C4 - N3    
     5     15   1    1.3967e-01    2.6565e+05 ;     C5 - N4    
     5     16   1    1.2190e-01    4.9421e+05 ;     C5 - O1    
     5     17   1    1.3621e-01    2.9398e+05 ;     C5 - O2    
     6     18   1    1.0962e-01    2.8891e+05 ;     C6 - H1    
     6     19   1    1.0962e-01    2.8891e+05 ;     C6 - H2    
     6     20   1    1.0962e-01    2.8891e+05 ;     C6 - H3    
     7     21   1    1.0962e-01    2.8891e+05 ;     C7 - H4    
     7     22   1    1.0962e-01    2.8891e+05 ;     C7 - H5    
     7     23   1    1.0962e-01    2.8891e+05 ;     C7 - H6    
     8     14   1    1.4613e-01    2.1499e+05 ;     C8 - N3    
     8     24   1    1.0969e-01    2.8804e+05 ;     C8 - H7    
     8     25   1    1.0969e-01    2.8804e+05 ;     C8 - H8    
     8     26   1    1.0969e-01    2.8804e+05 ;     C8 - H9    
     9     14   1    1.4613e-01    2.1499e+05 ;     C9 - N3    
     9     27   1    1.0969e-01    2.8804e+05 ;     C9 - H10   
     9     28   1    1.0969e-01    2.8804e+05 ;     C9 - H11   
     9     29   1    1.0969e-01    2.8804e+05 ;     C9 - H12   
    10     15   1    1.4643e-01    2.1293e+05 ;    C10 - N4    
    10     30   1    1.0969e-01    2.8804e+05 ;    C10 - H13   
    10     31   1    1.0969e-01    2.8804e+05 ;    C10 - H14   
    10     32   1    1.0969e-01    2.8804e+05 ;    C10 - H15   
    11     15   1    1.4643e-01    2.1293e+05 ;    C11 - N4    
    11     33   1    1.0969e-01    2.8804e+05 ;    C11 - H16   
    11     34   1    1.0969e-01    2.8804e+05 ;    C11 - H17   
    11     35   1    1.0969e-01    2.8804e+05 ;    C11 - H18   

[ pairs ]
;   ai     aj    funct
     1      4      1 ;     C1 - C4    
     1      5      1 ;     C1 - C5    
     1     21      1 ;     C1 - H4    
     1     22      1 ;     C1 - H5    
     1     23      1 ;     C1 - H6    
     2     13      1 ;     C2 - N2    
     2     14      1 ;     C2 - N3    
     2     17      1 ;     C2 - O2    
     2     18      1 ;     C2 - H1    
     2     19      1 ;     C2 - H2    
     2     20      1 ;     C2 - H3    
     3      7      1 ;     C3 - C7    
     3     12      1 ;     C3 - N1    
     3     14      1 ;     C3 - N3    
     3     15      1 ;     C3 - N4    
     3     16      1 ;     C3 - O1    
     3     18      1 ;     C3 - H1    
     3     19      1 ;     C3 - H2    
     3     20      1 ;     C3 - H3    
     4      7      1 ;     C4 - C7    
     4     17      1 ;     C4 - O2    
     4     24      1 ;     C4 - H7    
     4     25      1 ;     C4 - H8    
     4     26      1 ;     C4 - H9    
     4     27      1 ;     C4 - H10   
     4     28      1 ;     C4 - H11   
     4     29      1 ;     C4 - H12   
     5     13      1 ;     C5 - N2    
     5     30      1 ;     C5 - H13   
     5     31      1 ;     C5 - H14   
     5     32      1 ;     C5 - H15   
     5     33      1 ;     C5 - H16   
     5     34      1 ;     C5 - H17   
     5     35      1 ;     C5 - H18   
     6      7      1 ;     C6 - C7    
     6     12      1 ;     C6 - N1    
     6     13      1 ;     C6 - N2    
     6     17      1 ;     C6 - O2    
     8     12      1 ;     C8 - N1    
     8     13      1 ;     C8 - N2    
     8     27      1 ;     C8 - H10   
     8     28      1 ;     C8 - H11   
     8     29      1 ;     C8 - H12   
     9     12      1 ;     C9 - N1    
     9     13      1 ;     C9 - N2    
     9     24      1 ;     C9 - H7    
     9     25      1 ;     C9 - H8    
     9     26      1 ;     C9 - H9    
    10     16      1 ;    C10 - O1    
    10     17      1 ;    C10 - O2    
    10     33      1 ;    C10 - H16   
    10     34      1 ;    C10 - H17   
    10     35      1 ;    C10 - H18   
    11     16      1 ;    C11 - O1    
    11     17      1 ;    C11 - O2    
    11     30      1 ;    C11 - H13   
    11     31      1 ;    C11 - H14   
    11     32      1 ;    C11 - H15   
    12     21      1 ;     N1 - H4    
    12     22      1 ;     N1 - H5    
    12     23      1 ;     N1 - H6    

[ angles ]
;   ai     aj     ak    funct   theta         cth
     1      2      7      1    1.2083e+02    5.0827e+02 ;     C1 - C2     - C7    
     1      2     12      1    1.2294e+02    5.7045e+02 ;     C1 - C2     - N1    
     1      3     13      1    1.2294e+02    5.7045e+02 ;     C1 - C3     - N2    
     1      3     17      1    1.1911e+02    6.6107e+02 ;     C1 - C3     - O2    
     1      6     18      1    1.1063e+02    3.6493e+02 ;     C1 - C6     - H1    
     1      6     19      1    1.1063e+02    3.6493e+02 ;     C1 - C6     - H2    
     1      6     20      1    1.1063e+02    3.6493e+02 ;     C1 - C6     - H3    
     2      1      3      1    1.2002e+02    5.3279e+02 ;     C2 - C1     - C3    
     2      1      6      1    1.2083e+02    5.0827e+02 ;     C2 - C1     - C6    
     2      7     21      1    1.1063e+02    3.6493e+02 ;     C2 - C7     - H4    
     2      7     22      1    1.1063e+02    3.6493e+02 ;     C2 - C7     - H5    
     2      7     23      1    1.1063e+02    3.6493e+02 ;     C2 - C7     - H6    
     2     12      4      1    1.1724e+02    6.9580e+02 ;     C2 - N1     - C4    
     3      1      6      1    1.2083e+02    5.0827e+02 ;     C3 - C1     - C6    
     3     13      4      1    1.1724e+02    6.9580e+02 ;     C3 - N2     - C4    
     3     17      5      1    1.2129e+02    7.4776e+02 ;     C3 - O2     - C5    
     4     14      8      1    1.1953e+02    6.4383e+02 ;     C4 - N3     - C8    
     4     14      9      1    1.1953e+02    6.4383e+02 ;     C4 - N3     - C9    
     5     15     10      1    1.1883e+02    6.4634e+02 ;     C5 - N4     - C10   
     5     15     11      1    1.1883e+02    6.4634e+02 ;     C5 - N4     - C11   
     7      2     12      1    1.1664e+02    5.5815e+02 ;     C7 - C2     - N1    
     8     14      9      1    1.1656e+02    6.3957e+02 ;     C8 - N3     - C9    
    10     15     11      1    1.1675e+02    6.3773e+02 ;    C10 - N4     - C11   
    12      4     13      1    1.2730e+02    6.0886e+02 ;     N1 - C4     - N2    
    12      4     14      1    1.1713e+02    6.1932e+02 ;     N1 - C4     - N3    
    13      3     17      1    1.1976e+02    7.1521e+02 ;     N2 - C3     - O2    
    13      4     14      1    1.1713e+02    6.1932e+02 ;     N2 - C4     - N3    
    14      8     24      1    1.0968e+02    4.0141e+02 ;     N3 - C8     - H7    
    14      8     25      1    1.0968e+02    4.0141e+02 ;     N3 - C8     - H8    
    14      8     26      1    1.0968e+02    4.0141e+02 ;     N3 - C8     - H9    
    14      9     27      1    1.0968e+02    4.0141e+02 ;     N3 - C9     - H10   
    14      9     28      1    1.0968e+02    4.0141e+02 ;     N3 - C9     - H11   
    14      9     29      1    1.0968e+02    4.0141e+02 ;     N3 - C9     - H12   
    15      5     16      1    1.2257e+02    7.2534e+02 ;     N4 - C5     - O1    
    15      5     17      1    1.0993e+02    7.3270e+02 ;     N4 - C5     - O2    
    15     10     30      1    1.0876e+02    4.0242e+02 ;     N4 - C10    - H13   
    15     10     31      1    1.0876e+02    4.0242e+02 ;     N4 - C10    - H14   
    15     10     32      1    1.0876e+02    4.0242e+02 ;     N4 - C10    - H15   
    15     11     33      1    1.0876e+02    4.0242e+02 ;     N4 - C11    - H16   
    15     11     34      1    1.0876e+02    4.0242e+02 ;     N4 - C11    - H17   
    15     11     35      1    1.0876e+02    4.0242e+02 ;     N4 - C11    - H18   
    16      5     17      1    1.2320e+02    8.4734e+02 ;     O1 - C5     - O2    
    18      6     19      1    1.0773e+02    2.9957e+02 ;     H1 - C6     - H2    
    18      6     20      1    1.0773e+02    2.9957e+02 ;     H1 - C6     - H3    
    19      6     20      1    1.0773e+02    2.9957e+02 ;     H2 - C6     - H3    
    21      7     22      1    1.0773e+02    2.9957e+02 ;     H4 - C7     - H5    
    21      7     23      1    1.0773e+02    2.9957e+02 ;     H4 - C7     - H6    
    22      7     23      1    1.0773e+02    2.9957e+02 ;     H5 - C7     - H6    
    24      8     25      1    1.0855e+02    2.9824e+02 ;     H7 - C8     - H8    
    24      8     26      1    1.0855e+02    2.9824e+02 ;     H7 - C8     - H9    
    25      8     26      1    1.0855e+02    2.9824e+02 ;     H8 - C8     - H9    
    27      9     28      1    1.0855e+02    2.9824e+02 ;    H10 - C9     - H11   
    27      9     29      1    1.0855e+02    2.9824e+02 ;    H10 - C9     - H12   
    28      9     29      1    1.0855e+02    2.9824e+02 ;    H11 - C9     - H12   
    30     10     31      1    1.0855e+02    2.9824e+02 ;    H13 - C10    - H14   
    30     10     32      1    1.0855e+02    2.9824e+02 ;    H13 - C10    - H15   
    31     10     32      1    1.0855e+02    2.9824e+02 ;    H14 - C10    - H15   
    33     11     34      1    1.0855e+02    2.9824e+02 ;    H16 - C11    - H17   
    33     11     35      1    1.0855e+02    2.9824e+02 ;    H16 - C11    - H18   
    34     11     35      1    1.0855e+02    2.9824e+02 ;    H17 - C11    - H18   

[ dihedrals ] ; propers
; for gromacs 4.5 or higher, using funct 9
;    i      j      k      l   func   phase     kd      pn
     1      2      7     21      9     0.00   0.00000   0 ;     C1-    C2-    C7-    H4
     1      2      7     22      9     0.00   0.00000   0 ;     C1-    C2-    C7-    H5
     1      2      7     23      9     0.00   0.00000   0 ;     C1-    C2-    C7-    H6
     1      2     12      4      9   180.00  20.08320   2 ;     C1-    C2-    N1-    C4
     1      3     13      4      9   180.00  20.08320   2 ;     C1-    C3-    N2-    C4
     1      3     17      5      9   180.00   4.10032   2 ;     C1-    C3-    O2-    C5
     2      1      3     13      9   180.00  15.16700   2 ;     C2-    C1-    C3-    N2
     2      1      3     17      9   180.00  15.16700   2 ;     C2-    C1-    C3-    O2
     2      1      6     18      9     0.00   0.00000   0 ;     C2-    C1-    C6-    H1
     2      1      6     19      9     0.00   0.00000   0 ;     C2-    C1-    C6-    H2
     2      1      6     20      9     0.00   0.00000   0 ;     C2-    C1-    C6-    H3
     2     12      4     13      9   180.00  20.08320   2 ;     C2-    N1-    C4-    N2
     2     12      4     14      9   180.00  20.08320   2 ;     C2-    N1-    C4-    N3
     3      1      2      7      9   180.00  15.16700   2 ;     C3-    C1-    C2-    C7
     3      1      2     12      9   180.00  15.16700   2 ;     C3-    C1-    C2-    N1
     3      1      6     18      9     0.00   0.00000   0 ;     C3-    C1-    C6-    H1
     3      1      6     19      9     0.00   0.00000   0 ;     C3-    C1-    C6-    H2
     3      1      6     20      9     0.00   0.00000   0 ;     C3-    C1-    C6-    H3
     3     13      4     12      9   180.00  20.08320   2 ;     C3-    N2-    C4-    N1
     3     13      4     14      9   180.00  20.08320   2 ;     C3-    N2-    C4-    N3
     3     17      5     15      9   180.00  11.29680   2 ;     C3-    O2-    C5-    N4
     3     17      5     16      9     0.00   0.33472   3 ;     C3-    O2-    C5-    O1
     3     17      5     16      9     0.00   7.23832   1 ;     C3-    O2-    C5-    O1
     3     17      5     16      9   180.00   8.99560   2 ;     C3-    O2-    C5-    O1
     4     12      2      7      9   180.00  20.08320   2 ;     C4-    N1-    C2-    C7
     4     13      3     17      9   180.00  20.08320   2 ;     C4-    N2-    C3-    O2
     4     14      8     24      9     0.00   1.38909   2 ;     C4-    N3-    C8-    H7
     4     14      8     25      9     0.00   1.38909   2 ;     C4-    N3-    C8-    H8
     4     14      8     26      9     0.00   1.38909   2 ;     C4-    N3-    C8-    H9
     4     14      9     27      9     0.00   1.38909   2 ;     C4-    N3-    C9-   H10
     4     14      9     28      9     0.00   1.38909   2 ;     C4-    N3-    C9-   H11
     4     14      9     29      9     0.00   1.38909   2 ;     C4-    N3-    C9-   H12
     5     15     10     30      9   180.00   0.00000   2 ;     C5-    N4-   C10-   H13
     5     15     10     31      9   180.00   0.00000   2 ;     C5-    N4-   C10-   H14
     5     15     10     32      9   180.00   0.00000   2 ;     C5-    N4-   C10-   H15
     5     15     11     33      9   180.00   0.00000   2 ;     C5-    N4-   C11-   H16
     5     15     11     34      9   180.00   0.00000   2 ;     C5-    N4-   C11-   H17
     5     15     11     35      9   180.00   0.00000   2 ;     C5-    N4-   C11-   H18
     5     17      3     13      9   180.00   3.76560   2 ;     C5-    O2-    C3-    N2
     6      1      2      7      9   180.00  15.16700   2 ;     C6-    C1-    C2-    C7
     6      1      2     12      9   180.00  15.16700   2 ;     C6-    C1-    C2-    N1
     6      1      3     13      9   180.00  15.16700   2 ;     C6-    C1-    C3-    N2
     6      1      3     17      9   180.00  15.16700   2 ;     C6-    C1-    C3-    O2
     8     14      4     12      9   180.00   4.39320   2 ;     C8-    N3-    C4-    N1
     8     14      4     13      9   180.00   4.39320   2 ;     C8-    N3-    C4-    N2
     8     14      9     27      9     0.00   0.00000   0 ;     C8-    N3-    C9-   H10
     8     14      9     28      9     0.00   0.00000   0 ;     C8-    N3-    C9-   H11
     8     14      9     29      9     0.00   0.00000   0 ;     C8-    N3-    C9-   H12
     9     14      4     12      9   180.00   4.39320   2 ;     C9-    N3-    C4-    N1
     9     14      4     13      9   180.00   4.39320   2 ;     C9-    N3-    C4-    N2
     9     14      8     24      9     0.00   0.00000   0 ;     C9-    N3-    C8-    H7
     9     14      8     25      9     0.00   0.00000   0 ;     C9-    N3-    C8-    H8
     9     14      8     26      9     0.00   0.00000   0 ;     C9-    N3-    C8-    H9
    10     15      5     16      9   180.00  10.46000   2 ;    C10-    N4-    C5-    O1
    10     15      5     17      9   180.00  10.46000   2 ;    C10-    N4-    C5-    O2
    10     15     11     33      9     0.00   0.00000   0 ;    C10-    N4-   C11-   H16
    10     15     11     34      9     0.00   0.00000   0 ;    C10-    N4-   C11-   H17
    10     15     11     35      9     0.00   0.00000   0 ;    C10-    N4-   C11-   H18
    11     15      5     16      9   180.00  10.46000   2 ;    C11-    N4-    C5-    O1
    11     15      5     17      9   180.00  10.46000   2 ;    C11-    N4-    C5-    O2
    11     15     10     30      9     0.00   0.00000   0 ;    C11-    N4-   C10-   H13
    11     15     10     31      9     0.00   0.00000   0 ;    C11-    N4-   C10-   H14
    11     15     10     32      9     0.00   0.00000   0 ;    C11-    N4-   C10-   H15
    12      2      7     21      9     0.00   0.00000   0 ;     N1-    C2-    C7-    H4
    12      2      7     22      9     0.00   0.00000   0 ;     N1-    C2-    C7-    H5
    12      2      7     23      9     0.00   0.00000   0 ;     N1-    C2-    C7-    H6

[ dihedrals ] ; impropers
; treated as propers in GROMACS to use correct AMBER analytical function
;    i      j      k      l   func   phase     kd      pn
     1     13      3     17      4   180.00   4.60240   2 ;     C1-    N2-    C3-    O2
     5     10     15     11      4   180.00   4.60240   2 ;     C5-   C10-    N4-   C11
     6      1      3      2      4   180.00   4.60240   2 ;     C6-    C1-    C3-    C2
     7      1      2     12      4   180.00   4.60240   2 ;     C7-    C1-    C2-    N1
     8      9     14      4      4   180.00   4.60240   2 ;     C8-    C9-    N3-    C4
    12     13      4     14      4   180.00   4.60240   2 ;     N1-    N2-    C4-    N3
    15     16      5     17      4   180.00   4.60240   2 ;     N4-    O1-    C5-    O2
