; mobley_9197172_GMX.itp created by acpype (v: 2023.10.27) on Thu May 21 00:13:10 2026

[ atomtypes ]
;name   bond_type     mass     charge   ptype   sigma         epsilon       Amb
 c2       c2          0.00000  0.00000   A     3.31521e-01   4.13379e-01 ; 1.86  0.0988
 c3       c3          0.00000  0.00000   A     3.39771e-01   4.51035e-01 ; 1.91  0.1078
 ha       ha          0.00000  0.00000   A     2.62548e-01   6.73624e-02 ; 1.47  0.0161
 hc       hc          0.00000  0.00000   A     2.60018e-01   8.70272e-02 ; 1.46  0.0208

[ moleculetype ]
;name            nrexcl
 mobley_9197172   3

[ atoms ]
;   nr  type  resi  res  atom  cgnr     charge      mass       ; qtot   bond_type
     1   c2     1   MOL    C1    1    -0.227000     12.01000 ; qtot -0.227
     2   c2     1   MOL    C2    2    -0.163200     12.01000 ; qtot -0.390
     3   c3     1   MOL    C3    3    -0.092100     12.01000 ; qtot -0.482
     4   c3     1   MOL    C4    4    -0.052200     12.01000 ; qtot -0.535
     5   c3     1   MOL    C5    5    -0.080400     12.01000 ; qtot -0.615
     6   c3     1   MOL    C6    6    -0.076400     12.01000 ; qtot -0.691
     7   c3     1   MOL    C7    7    -0.079400     12.01000 ; qtot -0.771
     8   c3     1   MOL    C8    8    -0.079400     12.01000 ; qtot -0.850
     9   ha     1   MOL    H1    9     0.110500      1.00800 ; qtot -0.740
    10   ha     1   MOL    H2   10     0.110500      1.00800 ; qtot -0.629
    11   ha     1   MOL    H3   11     0.118000      1.00800 ; qtot -0.511
    12   hc     1   MOL    H4   12     0.032700      1.00800 ; qtot -0.478
    13   hc     1   MOL    H5   13     0.032700      1.00800 ; qtot -0.446
    14   hc     1   MOL    H6   14     0.032700      1.00800 ; qtot -0.413
    15   hc     1   MOL    H7   15     0.046700      1.00800 ; qtot -0.366
    16   hc     1   MOL    H8   16     0.046700      1.00800 ; qtot -0.320
    17   hc     1   MOL    H9   17     0.038700      1.00800 ; qtot -0.281
    18   hc     1   MOL   H10   18     0.038700      1.00800 ; qtot -0.242
    19   hc     1   MOL   H11   19     0.041700      1.00800 ; qtot -0.201
    20   hc     1   MOL   H12   20     0.041700      1.00800 ; qtot -0.159
    21   hc     1   MOL   H13   21     0.039700      1.00800 ; qtot -0.119
    22   hc     1   MOL   H14   22     0.039700      1.00800 ; qtot -0.079
    23   hc     1   MOL   H15   23     0.039700      1.00800 ; qtot -0.040
    24   hc     1   MOL   H16   24     0.039700      1.00800 ; qtot -0.000

[ bonds ]
;   ai     aj funct   r             k
     1      2   1    1.3379e-01    3.6484e+05 ;     C1 - C2    
     1      9   1    1.0882e-01    2.9898e+05 ;     C1 - H1    
     1     10   1    1.0882e-01    2.9898e+05 ;     C1 - H2    
     2      4   1    1.5088e-01    2.0786e+05 ;     C2 - C4    
     2     11   1    1.0882e-01    2.9898e+05 ;     C2 - H3    
     3      5   1    1.5354e-01    1.9154e+05 ;     C3 - C5    
     3     12   1    1.0962e-01    2.8891e+05 ;     C3 - H4    
     3     13   1    1.0962e-01    2.8891e+05 ;     C3 - H5    
     3     14   1    1.0962e-01    2.8891e+05 ;     C3 - H6    
     4      6   1    1.5354e-01    1.9154e+05 ;     C4 - C6    
     4     15   1    1.0962e-01    2.8891e+05 ;     C4 - H7    
     4     16   1    1.0962e-01    2.8891e+05 ;     C4 - H8    
     5      7   1    1.5354e-01    1.9154e+05 ;     C5 - C7    
     5     17   1    1.0962e-01    2.8891e+05 ;     C5 - H9    
     5     18   1    1.0962e-01    2.8891e+05 ;     C5 - H10   
     6      8   1    1.5354e-01    1.9154e+05 ;     C6 - C8    
     6     19   1    1.0962e-01    2.8891e+05 ;     C6 - H11   
     6     20   1    1.0962e-01    2.8891e+05 ;     C6 - H12   
     7      8   1    1.5354e-01    1.9154e+05 ;     C7 - C8    
     7     21   1    1.0962e-01    2.8891e+05 ;     C7 - H13   
     7     22   1    1.0962e-01    2.8891e+05 ;     C7 - H14   
     8     23   1    1.0962e-01    2.8891e+05 ;     C8 - H15   
     8     24   1    1.0962e-01    2.8891e+05 ;     C8 - H16   

[ pairs ]
;   ai     aj    funct
     1      6      1 ;     C1 - C6    
     1     15      1 ;     C1 - H7    
     1     16      1 ;     C1 - H8    
     2      8      1 ;     C2 - C8    
     2     19      1 ;     C2 - H11   
     2     20      1 ;     C2 - H12   
     3      8      1 ;     C3 - C8    
     3     21      1 ;     C3 - H13   
     3     22      1 ;     C3 - H14   
     4      7      1 ;     C4 - C7    
     4     23      1 ;     C4 - H15   
     4     24      1 ;     C4 - H16   
     5      6      1 ;     C5 - C6    
     5     23      1 ;     C5 - H15   
     5     24      1 ;     C5 - H16   
     6     11      1 ;     C6 - H3    
     6     21      1 ;     C6 - H13   
     6     22      1 ;     C6 - H14   
     7     12      1 ;     C7 - H4    
     7     13      1 ;     C7 - H5    
     7     14      1 ;     C7 - H6    
     7     19      1 ;     C7 - H11   
     7     20      1 ;     C7 - H12   
     8     15      1 ;     C8 - H7    
     8     16      1 ;     C8 - H8    
     8     17      1 ;     C8 - H9    
     8     18      1 ;     C8 - H10   
     9      4      1 ;     H1 - C4    
     9     11      1 ;     H1 - H3    
    10      4      1 ;     H2 - C4    
    10     11      1 ;     H2 - H3    
    11     15      1 ;     H3 - H7    
    11     16      1 ;     H3 - H8    
    12     17      1 ;     H4 - H9    
    12     18      1 ;     H4 - H10   
    13     17      1 ;     H5 - H9    
    13     18      1 ;     H5 - H10   
    14     17      1 ;     H6 - H9    
    14     18      1 ;     H6 - H10   
    15     19      1 ;     H7 - H11   
    15     20      1 ;     H7 - H12   
    16     19      1 ;     H8 - H11   
    16     20      1 ;     H8 - H12   
    17     21      1 ;     H9 - H13   
    17     22      1 ;     H9 - H14   
    18     21      1 ;    H10 - H13   
    18     22      1 ;    H10 - H14   
    19     23      1 ;    H11 - H15   
    19     24      1 ;    H11 - H16   
    20     23      1 ;    H12 - H15   
    20     24      1 ;    H12 - H16   
    21     23      1 ;    H13 - H15   
    21     24      1 ;    H13 - H16   
    22     23      1 ;    H14 - H15   
    22     24      1 ;    H14 - H16   

[ angles ]
;   ai     aj     ak    funct   theta         cth
     1      2      4      1    1.2495e+02    5.0944e+02 ;     C1 - C2     - C4    
     1      2     11      1    1.2039e+02    3.8802e+02 ;     C1 - C2     - H3    
     2      1      9      1    1.2039e+02    3.8802e+02 ;     C2 - C1     - H1    
     2      1     10      1    1.2039e+02    3.8802e+02 ;     C2 - C1     - H2    
     2      4      6      1    1.1258e+02    5.0543e+02 ;     C2 - C4     - C6    
     2      4     15      1    1.1065e+02    3.6618e+02 ;     C2 - C4     - H7    
     2      4     16      1    1.1065e+02    3.6618e+02 ;     C2 - C4     - H8    
     3      5      7      1    1.1263e+02    5.0099e+02 ;     C3 - C5     - C7    
     3      5     17      1    1.0968e+02    3.6208e+02 ;     C3 - C5     - H9    
     3      5     18      1    1.0968e+02    3.6208e+02 ;     C3 - C5     - H10   
     4      2     11      1    1.1505e+02    3.5941e+02 ;     C4 - C2     - H3    
     4      6      8      1    1.1263e+02    5.0099e+02 ;     C4 - C6     - C8    
     4      6     19      1    1.0968e+02    3.6208e+02 ;     C4 - C6     - H11   
     4      6     20      1    1.0968e+02    3.6208e+02 ;     C4 - C6     - H12   
     5      3     12      1    1.0968e+02    3.6208e+02 ;     C5 - C3     - H4    
     5      3     13      1    1.0968e+02    3.6208e+02 ;     C5 - C3     - H5    
     5      3     14      1    1.0968e+02    3.6208e+02 ;     C5 - C3     - H6    
     5      7      8      1    1.1263e+02    5.0099e+02 ;     C5 - C7     - C8    
     5      7     21      1    1.0968e+02    3.6208e+02 ;     C5 - C7     - H13   
     5      7     22      1    1.0968e+02    3.6208e+02 ;     C5 - C7     - H14   
     6      4     15      1    1.0968e+02    3.6208e+02 ;     C6 - C4     - H7    
     6      4     16      1    1.0968e+02    3.6208e+02 ;     C6 - C4     - H8    
     6      8      7      1    1.1263e+02    5.0099e+02 ;     C6 - C8     - C7    
     6      8     23      1    1.0968e+02    3.6208e+02 ;     C6 - C8     - H15   
     6      8     24      1    1.0968e+02    3.6208e+02 ;     C6 - C8     - H16   
     7      5     17      1    1.0968e+02    3.6208e+02 ;     C7 - C5     - H9    
     7      5     18      1    1.0968e+02    3.6208e+02 ;     C7 - C5     - H10   
     7      8     23      1    1.0968e+02    3.6208e+02 ;     C7 - C8     - H15   
     7      8     24      1    1.0968e+02    3.6208e+02 ;     C7 - C8     - H16   
     8      6     19      1    1.0968e+02    3.6208e+02 ;     C8 - C6     - H11   
     8      6     20      1    1.0968e+02    3.6208e+02 ;     C8 - C6     - H12   
     8      7     21      1    1.0968e+02    3.6208e+02 ;     C8 - C7     - H13   
     8      7     22      1    1.0968e+02    3.6208e+02 ;     C8 - C7     - H14   
     9      1     10      1    1.1666e+02    2.9003e+02 ;     H1 - C1     - H2    
    12      3     13      1    1.0773e+02    2.9957e+02 ;     H4 - C3     - H5    
    12      3     14      1    1.0773e+02    2.9957e+02 ;     H4 - C3     - H6    
    13      3     14      1    1.0773e+02    2.9957e+02 ;     H5 - C3     - H6    
    15      4     16      1    1.0773e+02    2.9957e+02 ;     H7 - C4     - H8    
    17      5     18      1    1.0773e+02    2.9957e+02 ;     H9 - C5     - H10   
    19      6     20      1    1.0773e+02    2.9957e+02 ;    H11 - C6     - H12   
    21      7     22      1    1.0773e+02    2.9957e+02 ;    H13 - C7     - H14   
    23      8     24      1    1.0773e+02    2.9957e+02 ;    H15 - C8     - H16   

[ dihedrals ] ; propers
; for gromacs 4.5 or higher, using funct 9
;    i      j      k      l   func   phase     kd      pn
     1      2      4      6      9     0.00   0.00000   0 ;     C1-    C2-    C4-    C6
     1      2      4     15      9   180.00   1.08784   3 ;     C1-    C2-    C4-    H7
     1      2      4     16      9   180.00   1.08784   3 ;     C1-    C2-    C4-    H8
     2      4      6      8      9     0.00   0.65084   3 ;     C2-    C4-    C6-    C8
     2      4      6     19      9     0.00   0.65084   3 ;     C2-    C4-    C6-   H11
     2      4      6     20      9     0.00   0.65084   3 ;     C2-    C4-    C6-   H12
     3      5      7      8      9     0.00   2.17568   3 ;     C3-    C5-    C7-    C8
     3      5      7     21      9     0.00   0.54392   3 ;     C3-    C5-    C7-   H13
     3      5      7     22      9     0.00   0.54392   3 ;     C3-    C5-    C7-   H14
     4      6      8      7      9     0.00   2.17568   3 ;     C4-    C6-    C8-    C7
     4      6      8     23      9     0.00   0.54392   3 ;     C4-    C6-    C8-   H15
     4      6      8     24      9     0.00   0.54392   3 ;     C4-    C6-    C8-   H16
     5      7      8      6      9     0.00   2.17568   3 ;     C5-    C7-    C8-    C6
     5      7      8     23      9     0.00   0.54392   3 ;     C5-    C7-    C8-   H15
     5      7      8     24      9     0.00   0.54392   3 ;     C5-    C7-    C8-   H16
     6      4      2     11      9     0.00   0.00000   0 ;     C6-    C4-    C2-    H3
     6      8      7     21      9     0.00   0.54392   3 ;     C6-    C8-    C7-   H13
     6      8      7     22      9     0.00   0.54392   3 ;     C6-    C8-    C7-   H14
     7      5      3     12      9     0.00   0.54392   3 ;     C7-    C5-    C3-    H4
     7      5      3     13      9     0.00   0.54392   3 ;     C7-    C5-    C3-    H5
     7      5      3     14      9     0.00   0.54392   3 ;     C7-    C5-    C3-    H6
     7      8      6     19      9     0.00   0.54392   3 ;     C7-    C8-    C6-   H11
     7      8      6     20      9     0.00   0.54392   3 ;     C7-    C8-    C6-   H12
     8      6      4     15      9     0.00   0.54392   3 ;     C8-    C6-    C4-    H7
     8      6      4     16      9     0.00   0.54392   3 ;     C8-    C6-    C4-    H8
     8      7      5     17      9     0.00   0.54392   3 ;     C8-    C7-    C5-    H9
     8      7      5     18      9     0.00   0.54392   3 ;     C8-    C7-    C5-   H10
     9      1      2      4      9   180.00  27.82360   2 ;     H1-    C1-    C2-    C4
     9      1      2     11      9   180.00  27.82360   2 ;     H1-    C1-    C2-    H3
    10      1      2      4      9   180.00  27.82360   2 ;     H2-    C1-    C2-    C4
    10      1      2     11      9   180.00  27.82360   2 ;     H2-    C1-    C2-    H3
    11      2      4     15      9     0.00   0.00000   0 ;     H3-    C2-    C4-    H7
    11      2      4     16      9     0.00   0.00000   0 ;     H3-    C2-    C4-    H8
    12      3      5     17      9     0.00   0.50208   3 ;     H4-    C3-    C5-    H9
    12      3      5     18      9     0.00   0.50208   3 ;     H4-    C3-    C5-   H10
    13      3      5     17      9     0.00   0.50208   3 ;     H5-    C3-    C5-    H9
    13      3      5     18      9     0.00   0.50208   3 ;     H5-    C3-    C5-   H10
    14      3      5     17      9     0.00   0.50208   3 ;     H6-    C3-    C5-    H9
    14      3      5     18      9     0.00   0.50208   3 ;     H6-    C3-    C5-   H10
    15      4      6     19      9     0.00   0.50208   3 ;     H7-    C4-    C6-   H11
    15      4      6     20      9     0.00   0.50208   3 ;     H7-    C4-    C6-   H12
    16      4      6     19      9     0.00   0.50208   3 ;     H8-    C4-    C6-   H11
    16      4      6     20      9     0.00   0.50208   3 ;     H8-    C4-    C6-   H12
    17      5      7     21      9     0.00   0.50208   3 ;     H9-    C5-    C7-   H13
    17      5      7     22      9     0.00   0.50208   3 ;     H9-    C5-    C7-   H14
    18      5      7     21      9     0.00   0.50208   3 ;    H10-    C5-    C7-   H13
    18      5      7     22      9     0.00   0.50208   3 ;    H10-    C5-    C7-   H14
    19      6      8     23      9     0.00   0.50208   3 ;    H11-    C6-    C8-   H15
    19      6      8     24      9     0.00   0.50208   3 ;    H11-    C6-    C8-   H16
    20      6      8     23      9     0.00   0.50208   3 ;    H12-    C6-    C8-   H15
    20      6      8     24      9     0.00   0.50208   3 ;    H12-    C6-    C8-   H16
    21      7      8     23      9     0.00   0.50208   3 ;    H13-    C7-    C8-   H15
    21      7      8     24      9     0.00   0.50208   3 ;    H13-    C7-    C8-   H16
    22      7      8     23      9     0.00   0.50208   3 ;    H14-    C7-    C8-   H15
    22      7      8     24      9     0.00   0.50208   3 ;    H14-    C7-    C8-   H16

[ dihedrals ] ; impropers
; treated as propers in GROMACS to use correct AMBER analytical function
;    i      j      k      l   func   phase     kd      pn
     1      4      2     11      4   180.00   4.60240   2 ;     C1-    C4-    C2-    H3
    10      1      9      2      4   180.00   4.60240   2 ;     H2-    C1-    H1-    C2
