; mobley_4479135_GMX.itp created by acpype (v: 2023.10.27) on Thu May 21 00:12:50 2026

[ atomtypes ]
;name   bond_type     mass     charge   ptype   sigma         epsilon       Amb
 ca       ca          0.00000  0.00000   A     3.31521e-01   4.13379e-01 ; 1.86  0.0988
 c2       c2          0.00000  0.00000   A     3.31521e-01   4.13379e-01 ; 1.86  0.0988
 ce       ce          0.00000  0.00000   A     3.31521e-01   4.13379e-01 ; 1.86  0.0988
 ha       ha          0.00000  0.00000   A     2.62548e-01   6.73624e-02 ; 1.47  0.0161

[ moleculetype ]
;name            nrexcl
 mobley_4479135   3

[ atoms ]
;   nr  type  resi  res  atom  cgnr     charge      mass       ; qtot   bond_type
     1   ca     1   MOL    C1    1    -0.127000     12.01000 ; qtot -0.127
     2   ca     1   MOL    C2    2    -0.127000     12.01000 ; qtot -0.254
     3   ca     1   MOL    C3    3    -0.133000     12.01000 ; qtot -0.387
     4   ca     1   MOL    C4    4    -0.133000     12.01000 ; qtot -0.520
     5   ca     1   MOL    C5    5    -0.133000     12.01000 ; qtot -0.653
     6   ca     1   MOL    C6    6    -0.133000     12.01000 ; qtot -0.786
     7   ca     1   MOL    C7    7    -0.117000     12.01000 ; qtot -0.903
     8   ca     1   MOL    C8    8    -0.117000     12.01000 ; qtot -1.020
     9   ca     1   MOL    C9    9    -0.117000     12.01000 ; qtot -1.137
    10   ca     1   MOL   C10   10    -0.117000     12.01000 ; qtot -1.254
    11   ca     1   MOL   C11   11    -0.055800     12.01000 ; qtot -1.310
    12   ca     1   MOL   C12   12    -0.055800     12.01000 ; qtot -1.366
    13   c2     1   MOL   C13   13    -0.201000     12.01000 ; qtot -1.567
    14   ce     1   MOL   C14   14    -0.009400     12.01000 ; qtot -1.576
    15   ha     1   MOL    H1   15     0.131000      1.00800 ; qtot -1.445
    16   ha     1   MOL    H2   16     0.131000      1.00800 ; qtot -1.314
    17   ha     1   MOL    H3   17     0.131500      1.00800 ; qtot -1.183
    18   ha     1   MOL    H4   18     0.131500      1.00800 ; qtot -1.051
    19   ha     1   MOL    H5   19     0.131500      1.00800 ; qtot -0.920
    20   ha     1   MOL    H6   20     0.131500      1.00800 ; qtot -0.788
    21   ha     1   MOL    H7   21     0.137500      1.00800 ; qtot -0.651
    22   ha     1   MOL    H8   22     0.137500      1.00800 ; qtot -0.513
    23   ha     1   MOL    H9   23     0.137500      1.00800 ; qtot -0.376
    24   ha     1   MOL   H10   24     0.137500      1.00800 ; qtot -0.238
    25   ha     1   MOL   H11   25     0.119000      1.00800 ; qtot -0.119
    26   ha     1   MOL   H12   26     0.119000      1.00800 ; qtot -0.000

[ bonds ]
;   ai     aj funct   r             k
     1      3   1    1.3986e-01    2.9644e+05 ;     C1 - C3    
     1      4   1    1.3986e-01    2.9644e+05 ;     C1 - C4    
     1     15   1    1.0860e-01    3.0183e+05 ;     C1 - H1    
     2      5   1    1.3986e-01    2.9644e+05 ;     C2 - C5    
     2      6   1    1.3986e-01    2.9644e+05 ;     C2 - C6    
     2     16   1    1.0860e-01    3.0183e+05 ;     C2 - H2    
     3      7   1    1.3986e-01    2.9644e+05 ;     C3 - C7    
     3     17   1    1.0860e-01    3.0183e+05 ;     C3 - H3    
     4      8   1    1.3986e-01    2.9644e+05 ;     C4 - C8    
     4     18   1    1.0860e-01    3.0183e+05 ;     C4 - H4    
     5      9   1    1.3986e-01    2.9644e+05 ;     C5 - C9    
     5     19   1    1.0860e-01    3.0183e+05 ;     C5 - H5    
     6     10   1    1.3986e-01    2.9644e+05 ;     C6 - C10   
     6     20   1    1.0860e-01    3.0183e+05 ;     C6 - H6    
     7     11   1    1.3986e-01    2.9644e+05 ;     C7 - C11   
     7     21   1    1.0860e-01    3.0183e+05 ;     C7 - H7    
     8     11   1    1.3986e-01    2.9644e+05 ;     C8 - C11   
     8     22   1    1.0860e-01    3.0183e+05 ;     C8 - H8    
     9     12   1    1.3986e-01    2.9644e+05 ;     C9 - C12   
     9     23   1    1.0860e-01    3.0183e+05 ;     C9 - H9    
    10     12   1    1.3986e-01    2.9644e+05 ;    C10 - C12   
    10     24   1    1.0860e-01    3.0183e+05 ;    C10 - H10   
    11     14   1    1.4800e-01    2.2748e+05 ;    C11 - C14   
    12     14   1    1.4800e-01    2.2748e+05 ;    C12 - C14   
    13     14   1    1.3457e-01    3.5505e+05 ;    C13 - C14   
    13     25   1    1.0882e-01    2.9898e+05 ;    C13 - H11   
    13     26   1    1.0882e-01    2.9898e+05 ;    C13 - H12   

[ pairs ]
;   ai     aj    funct
     1     11      1 ;     C1 - C11   
     1     21      1 ;     C1 - H7    
     1     22      1 ;     C1 - H8    
     2     12      1 ;     C2 - C12   
     2     23      1 ;     C2 - H9    
     2     24      1 ;     C2 - H10   
     3      8      1 ;     C3 - C8    
     3     14      1 ;     C3 - C14   
     3     18      1 ;     C3 - H4    
     4      7      1 ;     C4 - C7    
     4     14      1 ;     C4 - C14   
     4     17      1 ;     C4 - H3    
     5     10      1 ;     C5 - C10   
     5     14      1 ;     C5 - C14   
     5     20      1 ;     C5 - H6    
     6      9      1 ;     C6 - C9    
     6     14      1 ;     C6 - C14   
     6     19      1 ;     C6 - H5    
     7     12      1 ;     C7 - C12   
     7     13      1 ;     C7 - C13   
     7     22      1 ;     C7 - H8    
     8     12      1 ;     C8 - C12   
     8     13      1 ;     C8 - C13   
     8     21      1 ;     C8 - H7    
     9     11      1 ;     C9 - C11   
     9     13      1 ;     C9 - C13   
     9     16      1 ;     C9 - H2    
     9     24      1 ;     C9 - H10   
    10     11      1 ;    C10 - C11   
    10     13      1 ;    C10 - C13   
    10     16      1 ;    C10 - H2    
    10     23      1 ;    C10 - H9    
    11     17      1 ;    C11 - H3    
    11     18      1 ;    C11 - H4    
    11     25      1 ;    C11 - H11   
    11     26      1 ;    C11 - H12   
    12     19      1 ;    C12 - H5    
    12     20      1 ;    C12 - H6    
    12     25      1 ;    C12 - H11   
    12     26      1 ;    C12 - H12   
    14     21      1 ;    C14 - H7    
    14     22      1 ;    C14 - H8    
    14     23      1 ;    C14 - H9    
    14     24      1 ;    C14 - H10   
    15      7      1 ;     H1 - C7    
    15      8      1 ;     H1 - C8    
    15     17      1 ;     H1 - H3    
    15     18      1 ;     H1 - H4    
    16     19      1 ;     H2 - H5    
    16     20      1 ;     H2 - H6    
    17     21      1 ;     H3 - H7    
    18     22      1 ;     H4 - H8    
    19     23      1 ;     H5 - H9    
    20     24      1 ;     H6 - H10   

[ angles ]
;   ai     aj     ak    funct   theta         cth
     1      3      7      1    1.2002e+02    5.3279e+02 ;     C1 - C3     - C7    
     1      3     17      1    1.1988e+02    3.7572e+02 ;     C1 - C3     - H3    
     1      4      8      1    1.2002e+02    5.3279e+02 ;     C1 - C4     - C8    
     1      4     18      1    1.1988e+02    3.7572e+02 ;     C1 - C4     - H4    
     2      5      9      1    1.2002e+02    5.3279e+02 ;     C2 - C5     - C9    
     2      5     19      1    1.1988e+02    3.7572e+02 ;     C2 - C5     - H5    
     2      6     10      1    1.2002e+02    5.3279e+02 ;     C2 - C6     - C10   
     2      6     20      1    1.1988e+02    3.7572e+02 ;     C2 - C6     - H6    
     3      1      4      1    1.2002e+02    5.3279e+02 ;     C3 - C1     - C4    
     3      1     15      1    1.1988e+02    3.7572e+02 ;     C3 - C1     - H1    
     3      7     11      1    1.2002e+02    5.3279e+02 ;     C3 - C7     - C11   
     3      7     21      1    1.1988e+02    3.7572e+02 ;     C3 - C7     - H7    
     4      1     15      1    1.1988e+02    3.7572e+02 ;     C4 - C1     - H1    
     4      8     11      1    1.2002e+02    5.3279e+02 ;     C4 - C8     - C11   
     4      8     22      1    1.1988e+02    3.7572e+02 ;     C4 - C8     - H8    
     5      2      6      1    1.2002e+02    5.3279e+02 ;     C5 - C2     - C6    
     5      2     16      1    1.1988e+02    3.7572e+02 ;     C5 - C2     - H2    
     5      9     12      1    1.2002e+02    5.3279e+02 ;     C5 - C9     - C12   
     5      9     23      1    1.1988e+02    3.7572e+02 ;     C5 - C9     - H9    
     6      2     16      1    1.1988e+02    3.7572e+02 ;     C6 - C2     - H2    
     6     10     12      1    1.2002e+02    5.3279e+02 ;     C6 - C10    - C12   
     6     10     24      1    1.1988e+02    3.7572e+02 ;     C6 - C10    - H10   
     7      3     17      1    1.1988e+02    3.7572e+02 ;     C7 - C3     - H3    
     7     11      8      1    1.2002e+02    5.3279e+02 ;     C7 - C11    - C8    
     7     11     14      1    1.2079e+02    5.1530e+02 ;     C7 - C11    - C14   
     8      4     18      1    1.1988e+02    3.7572e+02 ;     C8 - C4     - H4    
     8     11     14      1    1.2079e+02    5.1530e+02 ;     C8 - C11    - C14   
     9      5     19      1    1.1988e+02    3.7572e+02 ;     C9 - C5     - H5    
     9     12     10      1    1.2002e+02    5.3279e+02 ;     C9 - C12    - C10   
     9     12     14      1    1.2079e+02    5.1530e+02 ;     C9 - C12    - C14   
    10      6     20      1    1.1988e+02    3.7572e+02 ;    C10 - C6     - H6    
    10     12     14      1    1.2079e+02    5.1530e+02 ;    C10 - C12    - C14   
    11      7     21      1    1.1988e+02    3.7572e+02 ;    C11 - C7     - H7    
    11      8     22      1    1.1988e+02    3.7572e+02 ;    C11 - C8     - H8    
    11     14     12      1    1.1816e+02    5.0744e+02 ;    C11 - C14    - C12   
    11     14     13      1    1.2298e+02    5.1873e+02 ;    C11 - C14    - C13   
    12      9     23      1    1.1988e+02    3.7572e+02 ;    C12 - C9     - H9    
    12     10     24      1    1.1988e+02    3.7572e+02 ;    C12 - C10    - H10   
    12     14     13      1    1.2298e+02    5.1873e+02 ;    C12 - C14    - C13   
    14     13     25      1    1.2049e+02    3.8618e+02 ;    C14 - C13    - H11   
    14     13     26      1    1.2049e+02    3.8618e+02 ;    C14 - C13    - H12   
    25     13     26      1    1.1666e+02    2.9003e+02 ;    H11 - C13    - H12   

[ dihedrals ] ; propers
; for gromacs 4.5 or higher, using funct 9
;    i      j      k      l   func   phase     kd      pn
     1      3      7     11      9   180.00  15.16700   2 ;     C1-    C3-    C7-   C11
     1      3      7     21      9   180.00  15.16700   2 ;     C1-    C3-    C7-    H7
     1      4      8     11      9   180.00  15.16700   2 ;     C1-    C4-    C8-   C11
     1      4      8     22      9   180.00  15.16700   2 ;     C1-    C4-    C8-    H8
     2      5      9     12      9   180.00  15.16700   2 ;     C2-    C5-    C9-   C12
     2      5      9     23      9   180.00  15.16700   2 ;     C2-    C5-    C9-    H9
     2      6     10     12      9   180.00  15.16700   2 ;     C2-    C6-   C10-   C12
     2      6     10     24      9   180.00  15.16700   2 ;     C2-    C6-   C10-   H10
     3      1      4      8      9   180.00  15.16700   2 ;     C3-    C1-    C4-    C8
     3      1      4     18      9   180.00  15.16700   2 ;     C3-    C1-    C4-    H4
     3      7     11      8      9   180.00  15.16700   2 ;     C3-    C7-   C11-    C8
     3      7     11     14      9   180.00  15.16700   2 ;     C3-    C7-   C11-   C14
     4      1      3      7      9   180.00  15.16700   2 ;     C4-    C1-    C3-    C7
     4      1      3     17      9   180.00  15.16700   2 ;     C4-    C1-    C3-    H3
     4      8     11      7      9   180.00  15.16700   2 ;     C4-    C8-   C11-    C7
     4      8     11     14      9   180.00  15.16700   2 ;     C4-    C8-   C11-   C14
     5      2      6     10      9   180.00  15.16700   2 ;     C5-    C2-    C6-   C10
     5      2      6     20      9   180.00  15.16700   2 ;     C5-    C2-    C6-    H6
     5      9     12     10      9   180.00  15.16700   2 ;     C5-    C9-   C12-   C10
     5      9     12     14      9   180.00  15.16700   2 ;     C5-    C9-   C12-   C14
     6      2      5      9      9   180.00  15.16700   2 ;     C6-    C2-    C5-    C9
     6      2      5     19      9   180.00  15.16700   2 ;     C6-    C2-    C5-    H5
     6     10     12      9      9   180.00  15.16700   2 ;     C6-   C10-   C12-    C9
     6     10     12     14      9   180.00  15.16700   2 ;     C6-   C10-   C12-   C14
     7     11      8     22      9   180.00  15.16700   2 ;     C7-   C11-    C8-    H8
     7     11     14     12      9   180.00   3.36812   2 ;     C7-   C11-   C14-   C12
     7     11     14     13      9   180.00   2.44764   2 ;     C7-   C11-   C14-   C13
     8     11      7     21      9   180.00  15.16700   2 ;     C8-   C11-    C7-    H7
     8     11     14     12      9   180.00   3.36812   2 ;     C8-   C11-   C14-   C12
     8     11     14     13      9   180.00   2.44764   2 ;     C8-   C11-   C14-   C13
     9      5      2     16      9   180.00  15.16700   2 ;     C9-    C5-    C2-    H2
     9     12     10     24      9   180.00  15.16700   2 ;     C9-   C12-   C10-   H10
     9     12     14     11      9   180.00   3.36812   2 ;     C9-   C12-   C14-   C11
     9     12     14     13      9   180.00   2.44764   2 ;     C9-   C12-   C14-   C13
    10      6      2     16      9   180.00  15.16700   2 ;    C10-    C6-    C2-    H2
    10     12      9     23      9   180.00  15.16700   2 ;    C10-   C12-    C9-    H9
    10     12     14     11      9   180.00   3.36812   2 ;    C10-   C12-   C14-   C11
    10     12     14     13      9   180.00   2.44764   2 ;    C10-   C12-   C14-   C13
    11      7      3     17      9   180.00  15.16700   2 ;    C11-    C7-    C3-    H3
    11      8      4     18      9   180.00  15.16700   2 ;    C11-    C8-    C4-    H4
    11     14     13     25      9   180.00  27.82360   2 ;    C11-   C14-   C13-   H11
    11     14     13     26      9   180.00  27.82360   2 ;    C11-   C14-   C13-   H12
    12      9      5     19      9   180.00  15.16700   2 ;    C12-    C9-    C5-    H5
    12     10      6     20      9   180.00  15.16700   2 ;    C12-   C10-    C6-    H6
    12     14     13     25      9   180.00  27.82360   2 ;    C12-   C14-   C13-   H11
    12     14     13     26      9   180.00  27.82360   2 ;    C12-   C14-   C13-   H12
    14     11      7     21      9   180.00  15.16700   2 ;    C14-   C11-    C7-    H7
    14     11      8     22      9   180.00  15.16700   2 ;    C14-   C11-    C8-    H8
    14     12      9     23      9   180.00  15.16700   2 ;    C14-   C12-    C9-    H9
    14     12     10     24      9   180.00  15.16700   2 ;    C14-   C12-   C10-   H10
    15      1      3      7      9   180.00  15.16700   2 ;     H1-    C1-    C3-    C7
    15      1      3     17      9   180.00  15.16700   2 ;     H1-    C1-    C3-    H3
    15      1      4      8      9   180.00  15.16700   2 ;     H1-    C1-    C4-    C8
    15      1      4     18      9   180.00  15.16700   2 ;     H1-    C1-    C4-    H4
    16      2      5     19      9   180.00  15.16700   2 ;     H2-    C2-    C5-    H5
    16      2      6     20      9   180.00  15.16700   2 ;     H2-    C2-    C6-    H6
    17      3      7     21      9   180.00  15.16700   2 ;     H3-    C3-    C7-    H7
    18      4      8     22      9   180.00  15.16700   2 ;     H4-    C4-    C8-    H8
    19      5      9     23      9   180.00  15.16700   2 ;     H5-    C5-    C9-    H9
    20      6     10     24      9   180.00  15.16700   2 ;     H6-    C6-   C10-   H10

[ dihedrals ] ; impropers
; treated as propers in GROMACS to use correct AMBER analytical function
;    i      j      k      l   func   phase     kd      pn
     1      7      3     17      4   180.00   4.60240   2 ;     C1-    C7-    C3-    H3
     1      8      4     18      4   180.00   4.60240   2 ;     C1-    C8-    C4-    H4
     2      9      5     19      4   180.00   4.60240   2 ;     C2-    C9-    C5-    H5
     2     10      6     20      4   180.00   4.60240   2 ;     C2-   C10-    C6-    H6
     3     11      7     21      4   180.00   4.60240   2 ;     C3-   C11-    C7-    H7
     4     11      8     22      4   180.00   4.60240   2 ;     C4-   C11-    C8-    H8
     5      6      2     16      4   180.00   4.60240   2 ;     C5-    C6-    C2-    H2
     5     12      9     23      4   180.00   4.60240   2 ;     C5-   C12-    C9-    H9
     6     12     10     24      4   180.00   4.60240   2 ;     C6-   C12-   C10-   H10
     7      8     11     14      4   180.00   4.60240   2 ;     C7-    C8-   C11-   C14
     9     10     12     14      4   180.00   4.60240   2 ;     C9-   C10-   C12-   C14
    13     11     14     12      4   180.00   4.60240   2 ;    C13-   C11-   C14-   C12
    14     25     13     26      4   180.00   4.60240   2 ;    C14-   H11-   C13-   H12
    15      1      4      3      4   180.00   4.60240   2 ;     H1-    C1-    C4-    C3
