mobley_1803862_GMX.gro created by acpype (v: 2023.10.27) on Tue May 19 12:32:40 2026
 2420
    1MOL     C1    1   2.106   2.173   2.206
    1MOL     C2    2   2.370   2.191   2.356
    1MOL     C3    3   2.355   2.347   2.161
    1MOL     C4    4   2.146   2.294   2.290
    1MOL     C5    5   2.298   2.314   2.299
    1MOL     H1    6   1.997   2.158   2.212
    1MOL     H2    7   2.154   2.082   2.242
    1MOL     H3    8   2.131   2.187   2.100
    1MOL     H4    9   2.348   2.101   2.297
    1MOL     H5   10   2.340   2.172   2.459
    1MOL     H6   11   2.478   2.206   2.356
    1MOL     H7   12   2.338   2.265   2.090
    1MOL     H8   13   2.463   2.365   2.166
    1MOL     H9   14   2.308   2.437   2.120
    1MOL    H10   15   2.099   2.384   2.248
    1MOL    H11   16   2.106   2.280   2.391
    1MOL    H12   17   2.319   2.399   2.365
   14SOL     OW   18   1.460   1.505   1.339
   14SOL    HW1   19   1.484   1.599   1.365
   14SOL    HW2   20   1.444   1.451   1.421
   18SOL     OW   21   1.127   1.341   1.690
   18SOL    HW1   22   1.174   1.341   1.778
   18SOL    HW2   23   1.079   1.254   1.679
   31SOL     OW   24   1.293   1.228   1.423
   31SOL    HW1   25   1.330   1.155   1.365
   31SOL    HW2   26   1.345   1.233   1.508
   35SOL     OW   27   1.187   1.792   1.616
   35SOL    HW1   28   1.211   1.852   1.540
   35SOL    HW2   29   1.194   1.697   1.586
   37SOL     OW   30   1.466   1.417   0.953
   37SOL    HW1   31   1.407   1.423   1.033
   37SOL    HW2   32   1.451   1.329   0.907
   56SOL     OW   33   1.227   1.550   1.506
   56SOL    HW1   34   1.233   1.473   1.570
   56SOL    HW2   35   1.175   1.524   1.426
   95SOL     OW   36   1.754   1.223   1.588
   95SOL    HW1   37   1.845   1.184   1.575
   95SOL    HW2   38   1.762   1.319   1.612
   96SOL     OW   39   1.064   1.347   1.340
   96SOL    HW1   40   0.984   1.324   1.395
   96SOL    HW2   41   1.147   1.321   1.389
   97SOL     OW   42   1.592   1.629   1.625
   97SOL    HW1   43   1.619   1.663   1.535
   97SOL    HW2   44   1.671   1.591   1.671
   99SOL     OW   45   1.638   1.099   1.079
   99SOL    HW1   46   1.643   1.180   1.138
   99SOL    HW2   47   1.552   1.101   1.028
  101SOL     OW   48   0.980   1.116   1.719
  101SOL    HW1   49   0.881   1.122   1.729
  101SOL    HW2   50   1.003   1.036   1.663
  109SOL     OW   51   1.272   1.445   1.142
  109SOL    HW1   52   1.319   1.458   1.229
  109SOL    HW2   53   1.206   1.371   1.151
  113SOL     OW   54   1.587   0.779   1.670
  113SOL    HW1   55   1.495   0.817   1.665
  113SOL    HW2   56   1.647   0.826   1.605
  122SOL     OW   57   1.728   0.935   1.854
  122SOL    HW1   58   1.682   0.928   1.765
  122SOL    HW2   59   1.666   0.979   1.920
  126SOL     OW   60   0.980   1.573   1.700
  126SOL    HW1   61   0.960   1.617   1.612
  126SOL    HW2   62   1.019   1.482   1.684
  127SOL     OW   63   1.859   1.518   1.605
  127SOL    HW1   64   1.873   1.545   1.510
  127SOL    HW2   65   1.942   1.540   1.658
  142SOL     OW   66   1.369   0.950   1.660
  142SOL    HW1   67   1.408   1.039   1.680
  142SOL    HW2   68   1.379   0.930   1.563
  147SOL     OW   69   0.930   1.678   1.465
  147SOL    HW1   70   0.906   1.660   1.370
  147SOL    HW2   71   0.960   1.772   1.475
  152SOL     OW   72   1.759   1.747   1.154
  152SOL    HW1   73   1.820   1.777   1.081
  152SOL    HW2   74   1.721   1.658   1.132
  153SOL     OW   75   1.252   1.731   1.128
  153SOL    HW1   76   1.336   1.736   1.074
  153SOL    HW2   77   1.229   1.635   1.146
  155SOL     OW   78   0.688   1.662   1.716
  155SOL    HW1   79   0.632   1.743   1.725
  155SOL    HW2   80   0.740   1.666   1.630
  163SOL     OW   81   1.650   1.720   1.394
  163SOL    HW1   82   1.703   1.730   1.310
  163SOL    HW2   83   1.623   1.810   1.428
  171SOL     OW   84   1.614   1.292   1.289
  171SOL    HW1   85   1.674   1.295   1.369
  171SOL    HW2   86   1.539   1.356   1.302
  184SOL     OW   87   1.493   1.767   0.959
  184SOL    HW1   88   1.526   1.831   0.890
  184SOL    HW2   89   1.559   1.761   1.034
  186SOL     OW   90   1.450   1.220   1.633
  186SOL    HW1   91   1.441   1.210   1.732
  186SOL    HW2   92   1.546   1.213   1.607
  188SOL     OW   93   1.674   0.883   1.254
  188SOL    HW1   94   1.647   0.794   1.217
  188SOL    HW2   95   1.675   0.951   1.181
  192SOL     OW   96   1.730   0.934   1.517
  192SOL    HW1   97   1.768   1.025   1.532
  192SOL    HW2   98   1.722   0.917   1.418
  197SOL     OW   99   1.861   1.569   0.851
  197SOL    HW1  100   1.790   1.557   0.781
  197SOL    HW2  101   1.862   1.490   0.911
  203SOL     OW  102   1.705   1.487   1.104
  203SOL    HW1  103   1.612   1.462   1.077
  203SOL    HW2  104   1.731   1.437   1.186
  219SOL     OW  105   1.555   1.511   2.565
  219SOL    HW1  106   1.498   1.495   2.646
  219SOL    HW2  107   1.496   1.521   2.485
  221SOL     OW  108   1.755   0.607   2.093
  221SOL    HW1  109   1.743   0.594   1.994
  221SOL    HW2  110   1.725   0.526   2.142
  227SOL     OW  111   1.460   1.505   3.201
  227SOL    HW1  112   1.484   1.599   3.227
  227SOL    HW2  113   1.444   1.451   3.283
  238SOL     OW  114   1.842   1.767   2.221
  238SOL    HW1  115   1.896   1.738   2.301
  238SOL    HW2  116   1.872   1.857   2.192
  240SOL     OW  117   1.689   0.922   2.474
  240SOL    HW1  118   1.784   0.893   2.482
  240SOL    HW2  119   1.681   0.987   2.399
  241SOL     OW  120   1.641   1.108   2.294
  241SOL    HW1  121   1.727   1.110   2.242
  241SOL    HW2  122   1.655   1.155   2.382
  244SOL     OW  123   1.293   1.228   3.285
  244SOL    HW1  124   1.330   1.155   3.227
  244SOL    HW2  125   1.345   1.233   3.370
  247SOL     OW  126   1.525   0.999   2.052
  247SOL    HW1  127   1.462   0.923   2.065
  247SOL    HW2  128   1.573   1.017   2.138
  248SOL     OW  129   1.187   1.792   3.478
  248SOL    HW1  130   1.211   1.852   3.402
  248SOL    HW2  131   1.194   1.697   3.448
  250SOL     OW  132   1.466   1.417   2.815
  250SOL    HW1  133   1.407   1.423   2.895
  250SOL    HW2  134   1.451   1.329   2.769
  251SOL     OW  135   1.667   1.714   2.434
  251SOL    HW1  136   1.626   1.691   2.346
  251SOL    HW2  137   1.649   1.640   2.499
  254SOL     OW  138   1.576   1.662   2.169
  254SOL    HW1  139   1.665   1.708   2.172
  254SOL    HW2  140   1.555   1.638   2.074
  264SOL     OW  141   1.362   1.144   2.407
  264SOL    HW1  142   1.445   1.115   2.359
  264SOL    HW2  143   1.313   1.211   2.351
  266SOL     OW  144   1.008   1.456   2.339
  266SOL    HW1  145   0.962   1.528   2.287
  266SOL    HW2  146   1.004   1.476   2.437
  268SOL     OW  147   1.795   1.066   2.735
  268SOL    HW1  148   1.733   1.051   2.659
  268SOL    HW2  149   1.743   1.077   2.820
  269SOL     OW  150   1.227   1.550   3.368
  269SOL    HW1  151   1.233   1.473   3.432
  269SOL    HW2  152   1.175   1.524   3.288
  271SOL     OW  153   1.458   0.735   2.590
  271SOL    HW1  154   1.453   0.670   2.665
  271SOL    HW2  155   1.538   0.794   2.603
  273SOL     OW  156   1.111   1.776   2.099
  273SOL    HW1  157   1.051   1.714   2.149
  273SOL    HW2  158   1.142   1.732   2.014
  275SOL     OW  159   1.632   1.377   1.943
  275SOL    HW1  160   1.600   1.471   1.933
  275SOL    HW2  161   1.556   1.314   1.931
  279SOL     OW  162   0.940   1.698   2.766
  279SOL    HW1  163   1.020   1.641   2.787
  279SOL    HW2  164   0.891   1.658   2.689
  284SOL     OW  165   0.888   1.514   3.057
  284SOL    HW1  166   0.865   1.489   2.963
  284SOL    HW2  167   0.949   1.445   3.096
  286SOL     OW  168   0.803   1.402   2.786
  286SOL    HW1  169   0.893   1.416   2.744
  286SOL    HW2  170   0.732   1.404   2.715
  289SOL     OW  171   1.434   1.188   1.903
  289SOL    HW1  172   1.466   1.112   1.960
  289SOL    HW2  173   1.342   1.215   1.933
  293SOL     OW  174   1.227   1.570   2.655
  293SOL    HW1  175   1.248   1.644   2.590
  293SOL    HW2  176   1.295   1.570   2.728
  295SOL     OW  177   1.271   1.797   2.453
  295SOL    HW1  178   1.315   1.861   2.389
  295SOL    HW2  179   1.221   1.849   2.523
  301SOL     OW  180   1.429   1.173   2.729
  301SOL    HW1  181   1.374   1.089   2.722
  301SOL    HW2  182   1.455   1.202   2.637
  303SOL     OW  183   1.857   0.833   2.239
  303SOL    HW1  184   1.899   0.769   2.303
  303SOL    HW2  185   1.819   0.782   2.161
  305SOL     OW  186   1.664   1.280   2.519
  305SOL    HW1  187   1.763   1.288   2.533
  305SOL    HW2  188   1.619   1.364   2.550
  308SOL     OW  189   1.754   1.223   3.450
  308SOL    HW1  190   1.845   1.184   3.437
  308SOL    HW2  191   1.762   1.319   3.474
  309SOL     OW  192   1.064   1.347   3.202
  309SOL    HW1  193   0.984   1.324   3.257
  309SOL    HW2  194   1.147   1.321   3.251
  310SOL     OW  195   1.592   1.629   3.487
  310SOL    HW1  196   1.619   1.663   3.397
  310SOL    HW2  197   1.671   1.591   3.533
  311SOL     OW  198   1.111   1.195   2.962
  311SOL    HW1  199   1.071   1.239   3.043
  311SOL    HW2  200   1.070   1.232   2.879
  312SOL     OW  201   1.638   1.099   2.941
  312SOL    HW1  202   1.643   1.180   3.000
  312SOL    HW2  203   1.552   1.101   2.890
  321SOL     OW  204   1.252   1.348   2.250
  321SOL    HW1  205   1.302   1.425   2.290
  321SOL    HW2  206   1.157   1.350   2.282
  322SOL     OW  207   1.272   1.445   3.004
  322SOL    HW1  208   1.319   1.458   3.091
  322SOL    HW2  209   1.206   1.371   3.013
  323SOL     OW  210   1.582   0.639   2.334
  323SOL    HW1  211   1.551   0.700   2.407
  323SOL    HW2  212   1.632   0.691   2.265
  330SOL     OW  213   1.360   0.862   2.907
  330SOL    HW1  214   1.285   0.862   2.841
  330SOL    HW2  215   1.397   0.770   2.916
  340SOL     OW  216   1.859   1.518   3.467
  340SOL    HW1  217   1.873   1.545   3.372
  340SOL    HW2  218   1.942   1.540   3.520
  343SOL     OW  219   1.303   0.838   1.904
  343SOL    HW1  220   1.337   0.745   1.919
  343SOL    HW2  221   1.321   0.865   1.809
  344SOL     OW  222   1.068   1.333   2.711
  344SOL    HW1  223   1.075   1.249   2.656
  344SOL    HW2  224   1.130   1.402   2.675
  360SOL     OW  225   0.930   1.678   3.327
  360SOL    HW1  226   0.906   1.660   3.232
  360SOL    HW2  227   0.960   1.772   3.337
  363SOL     OW  228   1.347   1.059   3.096
  363SOL    HW1  229   1.371   0.996   3.022
  363SOL    HW2  230   1.257   1.099   3.078
  364SOL     OW  231   1.302   0.855   2.171
  364SOL    HW1  232   1.216   0.824   2.213
  364SOL    HW2  233   1.298   0.841   2.072
  365SOL     OW  234   1.759   1.747   3.016
  365SOL    HW1  235   1.820   1.777   2.943
  365SOL    HW2  236   1.721   1.658   2.994
  366SOL     OW  237   1.252   1.731   2.990
  366SOL    HW1  238   1.336   1.736   2.936
  366SOL    HW2  239   1.229   1.635   3.008
  370SOL     OW  240   1.388   1.573   2.339
  370SOL    HW1  241   1.455   1.585   2.265
  370SOL    HW2  242   1.348   1.662   2.362
  372SOL     OW  243   1.280   0.927   2.534
  372SOL    HW1  244   1.340   0.846   2.536
  372SOL    HW2  245   1.320   0.996   2.474
  374SOL     OW  246   0.672   1.616   2.016
  374SOL    HW1  247   0.681   1.626   1.917
  374SOL    HW2  248   0.632   1.527   2.037
  375SOL     OW  249   1.650   1.720   3.256
  375SOL    HW1  250   1.703   1.730   3.172
  375SOL    HW2  251   1.623   1.810   3.290
  378SOL     OW  252   1.194   1.612   1.893
  378SOL    HW1  253   1.200   1.519   1.930
  378SOL    HW2  254   1.135   1.612   1.813
  381SOL     OW  255   1.504   1.607   1.906
  381SOL    HW1  256   1.412   1.644   1.913
  381SOL    HW2  257   1.542   1.627   1.816
  383SOL     OW  258   1.614   1.292   3.151
  383SOL    HW1  259   1.674   1.295   3.231
  383SOL    HW2  260   1.539   1.356   3.164
  384SOL     OW  261   1.039   1.098   2.558
  384SOL    HW1  262   0.969   1.051   2.612
  384SOL    HW2  263   1.098   1.030   2.515
  394SOL     OW  264   1.183   1.335   1.981
  394SOL    HW1  265   1.084   1.324   1.983
  394SOL    HW2  266   1.217   1.350   2.074
  396SOL     OW  267   1.493   1.767   2.821
  396SOL    HW1  268   1.526   1.831   2.752
  396SOL    HW2  269   1.559   1.761   2.896
  400SOL     OW  270   1.674   0.883   3.116
  400SOL    HW1  271   1.647   0.794   3.079
  400SOL    HW2  272   1.675   0.951   3.043
  405SOL     OW  273   0.859   1.374   1.878
  405SOL    HW1  274   0.813   1.389   1.966
  405SOL    HW2  275   0.903   1.459   1.848
  406SOL     OW  276   0.661   1.790   2.815
  406SOL    HW1  277   0.615   1.878   2.802
  406SOL    HW2  278   0.760   1.802   2.808
  408SOL     OW  279   1.083   0.984   1.949
  408SOL    HW1  280   1.060   1.037   1.867
  408SOL    HW2  281   1.164   0.928   1.930
  409SOL     OW  282   1.861   1.569   2.713
  409SOL    HW1  283   1.790   1.557   2.643
  409SOL    HW2  284   1.862   1.490   2.773
  415SOL     OW  285   1.705   1.487   2.966
  415SOL    HW1  286   1.612   1.462   2.939
  415SOL    HW2  287   1.731   1.437   3.048
  417SOL     OW  288   0.812   1.586   2.549
  417SOL    HW1  289   0.844   1.596   2.455
  417SOL    HW2  290   0.733   1.524   2.551
  420SOL     OW  291   0.770   1.330   2.163
  420SOL    HW1  292   0.724   1.243   2.180
  420SOL    HW2  293   0.861   1.327   2.204
  426SOL     OW  294   0.875   1.646   2.199
  426SOL    HW1  295   0.798   1.611   2.145
  426SOL    HW2  296   0.843   1.717   2.261
  522SOL     OW  297   0.850   2.660   1.823
  522SOL    HW1  298   0.846   2.736   1.888
  522SOL    HW2  299   0.872   2.696   1.732
  526SOL     OW  300   1.460   3.367   1.339
  526SOL    HW1  301   1.484   3.461   1.365
  526SOL    HW2  302   1.444   3.313   1.421
  528SOL     OW  303   1.603   2.309   0.737
  528SOL    HW1  304   1.529   2.355   0.687
  528SOL    HW2  305   1.654   2.377   0.790
  530SOL     OW  306   1.127   3.203   1.690
  530SOL    HW1  307   1.174   3.203   1.778
  530SOL    HW2  308   1.079   3.116   1.679
  535SOL     OW  309   1.594   1.976   1.480
  535SOL    HW1  310   1.576   2.043   1.408
  535SOL    HW2  311   1.591   2.022   1.569
  543SOL     OW  312   1.293   3.090   1.423
  543SOL    HW1  313   1.330   3.017   1.365
  543SOL    HW2  314   1.345   3.095   1.508
  552SOL     OW  315   1.281   2.207   0.944
  552SOL    HW1  316   1.195   2.157   0.931
  552SOL    HW2  317   1.343   2.153   1.000
  554SOL     OW  318   0.807   2.467   1.465
  554SOL    HW1  319   0.760   2.464   1.554
  554SOL    HW2  320   0.756   2.412   1.399
  555SOL     OW  321   1.394   2.331   1.674
  555SOL    HW1  322   1.374   2.374   1.762
  555SOL    HW2  323   1.472   2.269   1.683
  556SOL     OW  324   0.973   2.752   1.572
  556SOL    HW1  325   1.019   2.668   1.543
  556SOL    HW2  326   0.917   2.786   1.497
  557SOL     OW  327   0.991   2.272   1.242
  557SOL    HW1  328   0.914   2.306   1.296
  557SOL    HW2  329   0.957   2.221   1.163
  562SOL     OW  330   1.719   2.447   1.831
  562SOL    HW1  331   1.693   2.536   1.795
  562SOL    HW2  332   1.717   2.379   1.758
  567SOL     OW  333   1.795   2.928   0.873
  567SOL    HW1  334   1.733   2.913   0.797
  567SOL    HW2  335   1.743   2.939   0.958
  568SOL     OW  336   1.227   3.412   1.506
  568SOL    HW1  337   1.233   3.335   1.570
  568SOL    HW2  338   1.175   3.386   1.426
  570SOL     OW  339   1.458   2.597   0.728
  570SOL    HW1  340   1.453   2.532   0.803
  570SOL    HW2  341   1.538   2.656   0.741
  580SOL     OW  342   1.547   2.084   1.729
  580SOL    HW1  343   1.542   2.121   1.821
  580SOL    HW2  344   1.475   2.015   1.717
  581SOL     OW  345   0.781   2.126   1.749
  581SOL    HW1  346   0.848   2.065   1.792
  581SOL    HW2  347   0.708   2.145   1.814
  583SOL     OW  348   1.351   2.452   1.433
  583SOL    HW1  349   1.379   2.409   1.518
  583SOL    HW2  350   1.376   2.548   1.434
  589SOL     OW  351   1.076   2.545   1.464
  589SOL    HW1  352   0.996   2.484   1.467
  589SOL    HW2  353   1.157   2.492   1.440
  598SOL     OW  354   1.429   3.035   0.867
  598SOL    HW1  355   1.374   2.951   0.860
  598SOL    HW2  356   1.455   3.064   0.775
  599SOL     OW  357   1.466   2.452   0.992
  599SOL    HW1  358   1.436   2.357   0.999
  599SOL    HW2  359   1.539   2.468   1.058
  605SOL     OW  360   1.754   3.085   1.588
  605SOL    HW1  361   1.845   3.046   1.575
  605SOL    HW2  362   1.762   3.181   1.612
  606SOL     OW  363   1.064   3.209   1.340
  606SOL    HW1  364   0.984   3.186   1.395
  606SOL    HW2  365   1.147   3.183   1.389
  607SOL     OW  366   1.592   3.491   1.625
  607SOL    HW1  367   1.619   3.525   1.535
  607SOL    HW2  368   1.671   3.453   1.671
  609SOL     OW  369   1.638   2.961   1.079
  609SOL    HW1  370   1.643   3.042   1.138
  609SOL    HW2  371   1.552   2.963   1.028
  610SOL     OW  372   0.915   1.951   1.402
  610SOL    HW1  373   0.940   1.931   1.307
  610SOL    HW2  374   0.987   2.007   1.444
  611SOL     OW  375   0.980   2.978   1.719
  611SOL    HW1  376   0.881   2.984   1.729
  611SOL    HW2  377   1.003   2.898   1.663
  614SOL     OW  378   1.274   2.248   1.262
  614SOL    HW1  379   1.295   2.322   1.326
  614SOL    HW2  380   1.185   2.265   1.219
  623SOL     OW  381   1.587   2.641   1.670
  623SOL    HW1  382   1.495   2.679   1.665
  623SOL    HW2  383   1.647   2.688   1.605
  624SOL     OW  384   1.013   1.967   1.770
  624SOL    HW1  385   1.019   2.052   1.718
  624SOL    HW2  386   1.045   1.891   1.713
  627SOL     OW  387   1.360   2.724   1.045
  627SOL    HW1  388   1.285   2.724   0.979
  627SOL    HW2  389   1.397   2.632   1.054
  632SOL     OW  390   1.728   2.797   1.854
  632SOL    HW1  391   1.682   2.790   1.765
  632SOL    HW2  392   1.666   2.841   1.920
  637SOL     OW  393   1.859   3.380   1.605
  637SOL    HW1  394   1.873   3.407   1.510
  637SOL    HW2  395   1.942   3.402   1.658
  644SOL     OW  396   1.138   2.242   1.678
  644SOL    HW1  397   1.093   2.305   1.742
  644SOL    HW2  398   1.231   2.273   1.661
  645SOL     OW  399   1.160   2.069   1.477
  645SOL    HW1  400   1.160   2.133   1.554
  645SOL    HW2  401   1.188   2.117   1.394
  649SOL     OW  402   1.002   2.658   1.238
  649SOL    HW1  403   1.043   2.626   1.324
  649SOL    HW2  404   0.906   2.631   1.235
  652SOL     OW  405   1.369   2.812   1.660
  652SOL    HW1  406   1.408   2.901   1.680
  652SOL    HW2  407   1.379   2.792   1.563
  654SOL     OW  408   1.657   2.466   1.206
  654SOL    HW1  409   1.619   2.397   1.268
  654SOL    HW2  410   1.739   2.430   1.162
  660SOL     OW  411   1.347   2.921   1.234
  660SOL    HW1  412   1.371   2.858   1.160
  660SOL    HW2  413   1.257   2.961   1.216
  673SOL     OW  414   1.650   3.582   1.394
  673SOL    HW1  415   1.703   3.592   1.310
  673SOL    HW2  416   1.623   3.672   1.428
  674SOL     OW  417   1.841   2.037   0.963
  674SOL    HW1  418   1.880   1.952   0.927
  674SOL    HW2  419   1.743   2.039   0.944
  677SOL     OW  420   0.822   2.864   1.372
  677SOL    HW1  421   0.862   2.863   1.280
  677SOL    HW2  422   0.832   2.956   1.412
  681SOL     OW  423   1.614   3.154   1.289
  681SOL    HW1  424   1.674   3.157   1.369
  681SOL    HW2  425   1.539   3.218   1.302
  683SOL     OW  426   1.014   2.098   0.971
  683SOL    HW1  427   1.006   2.062   0.878
  683SOL    HW2  428   1.012   2.022   1.036
  685SOL     OW  429   1.709   2.247   1.381
  685SOL    HW1  430   1.782   2.316   1.385
  685SOL    HW2  431   1.737   2.172   1.322
  688SOL     OW  432   0.672   2.065   1.489
  688SOL    HW1  433   0.762   2.049   1.449
  688SOL    HW2  434   0.680   2.070   1.588
  690SOL     OW  435   1.440   2.718   1.398
  690SOL    HW1  436   1.383   2.770   1.335
  690SOL    HW2  437   1.536   2.730   1.374
  695SOL     OW  438   0.716   2.427   1.708
  695SOL    HW1  439   0.735   2.492   1.782
  695SOL    HW2  440   0.776   2.347   1.717
  696SOL     OW  441   1.450   3.082   1.633
  696SOL    HW1  442   1.441   3.072   1.732
  696SOL    HW2  443   1.546   3.075   1.607
  698SOL     OW  444   1.674   2.745   1.254
  698SOL    HW1  445   1.647   2.656   1.217
  698SOL    HW2  446   1.675   2.813   1.181
  701SOL     OW  447   1.777   2.204   1.642
  701SOL    HW1  448   1.760   2.235   1.548
  701SOL    HW2  449   1.693   2.167   1.680
  702SOL     OW  450   1.730   2.796   1.517
  702SOL    HW1  451   1.768   2.887   1.532
  702SOL    HW2  452   1.722   2.779   1.418
  711SOL     OW  453   1.824   2.054   1.227
  711SOL    HW1  454   1.820   1.964   1.271
  711SOL    HW2  455   1.827   2.043   1.128
  713SOL     OW  456   1.705   3.349   1.104
  713SOL    HW1  457   1.612   3.324   1.077
  713SOL    HW2  458   1.731   3.299   1.186
  716SOL     OW  459   1.424   2.076   1.112
  716SOL    HW1  460   1.476   2.011   1.167
  716SOL    HW2  461   1.375   2.139   1.173
  717SOL     OW  462   1.001   1.896   1.154
  717SOL    HW1  463   0.938   1.824   1.123
  717SOL    HW2  464   1.094   1.860   1.154
  722SOL     OW  465   1.593   2.083   0.882
  722SOL    HW1  466   1.509   2.082   0.936
  722SOL    HW2  467   1.595   2.166   0.826
  729SOL     OW  468   1.555   3.373   2.565
  729SOL    HW1  469   1.498   3.357   2.646
  729SOL    HW2  470   1.496   3.383   2.485
  730SOL     OW  471   1.135   2.565   2.579
  730SOL    HW1  472   1.192   2.643   2.554
  730SOL    HW2  473   1.075   2.591   2.655
  731SOL     OW  474   1.755   2.469   2.093
  731SOL    HW1  475   1.743   2.456   1.994
  731SOL    HW2  476   1.725   2.388   2.142
  732SOL     OW  477   0.768   3.006   2.885
  732SOL    HW1  478   0.690   3.023   2.945
  732SOL    HW2  479   0.802   3.093   2.849
  734SOL     OW  480   0.685   2.874   2.527
  734SOL    HW1  481   0.754   2.858   2.597
  734SOL    HW2  482   0.612   2.931   2.565
  737SOL     OW  483   1.460   3.367   3.201
  737SOL    HW1  484   1.484   3.461   3.227
  737SOL    HW2  485   1.444   3.313   3.283
  739SOL     OW  486   1.603   2.309   2.599
  739SOL    HW1  487   1.529   2.355   2.549
  739SOL    HW2  488   1.654   2.377   2.652
  745SOL     OW  489   0.606   2.826   1.985
  745SOL    HW1  490   0.613   2.910   1.931
  745SOL    HW2  491   0.652   2.839   2.073
  746SOL     OW  492   1.594   1.976   3.342
  746SOL    HW1  493   1.576   2.043   3.270
  746SOL    HW2  494   1.591   2.022   3.431
  748SOL     OW  495   1.842   3.629   2.221
  748SOL    HW1  496   1.896   3.600   2.301
  748SOL    HW2  497   1.872   3.719   2.192
  750SOL     OW  498   1.689   2.784   2.474
  750SOL    HW1  499   1.784   2.755   2.482
  750SOL    HW2  500   1.681   2.849   2.399
  751SOL     OW  501   1.641   2.970   2.294
  751SOL    HW1  502   1.727   2.972   2.242
  751SOL    HW2  503   1.655   3.017   2.382
  754SOL     OW  504   1.293   3.090   3.285
  754SOL    HW1  505   1.330   3.017   3.227
  754SOL    HW2  506   1.345   3.095   3.370
  755SOL     OW  507   0.809   1.866   2.364
  755SOL    HW1  508   0.849   1.957   2.355
  755SOL    HW2  509   0.709   1.874   2.370
  757SOL     OW  510   1.525   2.861   2.052
  757SOL    HW1  511   1.462   2.785   2.065
  757SOL    HW2  512   1.573   2.879   2.138
  760SOL     OW  513   1.466   3.279   2.815
  760SOL    HW1  514   1.407   3.285   2.895
  760SOL    HW2  515   1.451   3.191   2.769
  761SOL     OW  516   1.667   3.576   2.434
  761SOL    HW1  517   1.626   3.553   2.346
  761SOL    HW2  518   1.649   3.502   2.499
  762SOL     OW  519   0.598   2.591   2.132
  762SOL    HW1  520   0.622   2.660   2.064
  762SOL    HW2  521   0.520   2.624   2.186
  763SOL     OW  522   1.281   2.207   2.806
  763SOL    HW1  523   1.195   2.157   2.793
  763SOL    HW2  524   1.343   2.153   2.862
  764SOL     OW  525   1.576   3.524   2.169
  764SOL    HW1  526   1.665   3.570   2.172
  764SOL    HW2  527   1.555   3.500   2.074
  766SOL     OW  528   1.394   2.331   3.536
  766SOL    HW1  529   1.374   2.374   3.624
  766SOL    HW2  530   1.472   2.269   3.545
  768SOL     OW  531   0.991   2.272   3.104
  768SOL    HW1  532   0.914   2.306   3.158
  768SOL    HW2  533   0.957   2.221   3.025
  769SOL     OW  534   1.041   2.563   2.291
  769SOL    HW1  535   1.067   2.559   2.387
  769SOL    HW2  536   0.956   2.512   2.277
  772SOL     OW  537   0.865   2.210   2.057
  772SOL    HW1  538   0.924   2.273   2.008
  772SOL    HW2  539   0.884   2.116   2.028
  773SOL     OW  540   1.719   2.447   3.693
  773SOL    HW1  541   1.693   2.536   3.657
  773SOL    HW2  542   1.717   2.379   3.620
  774SOL     OW  543   1.362   3.006   2.407
  774SOL    HW1  544   1.445   2.977   2.359
  774SOL    HW2  545   1.313   3.073   2.351
  775SOL     OW  546   0.550   2.058   2.747
  775SOL    HW1  547   0.545   2.053   2.847
  775SOL    HW2  548   0.552   2.154   2.718
  776SOL     OW  549   1.008   3.318   2.339
  776SOL    HW1  550   0.962   3.390   2.287
  776SOL    HW2  551   1.004   3.338   2.437
  778SOL     OW  552   1.795   2.928   2.735
  778SOL    HW1  553   1.733   2.913   2.659
  778SOL    HW2  554   1.743   2.939   2.820
  781SOL     OW  555   1.458   2.597   2.590
  781SOL    HW1  556   1.453   2.532   2.665
  781SOL    HW2  557   1.538   2.656   2.603
  785SOL     OW  558   1.632   3.239   1.943
  785SOL    HW1  559   1.600   3.333   1.933
  785SOL    HW2  560   1.556   3.176   1.931
  787SOL     OW  561   1.400   1.969   2.288
  787SOL    HW1  562   1.376   1.932   2.198
  787SOL    HW2  563   1.499   1.985   2.292
  791SOL     OW  564   1.547   2.084   3.591
  791SOL    HW1  565   1.542   2.121   3.683
  791SOL    HW2  566   1.475   2.015   3.579
  792SOL     OW  567   0.614   1.984   1.979
  792SOL    HW1  568   0.712   1.962   1.986
  792SOL    HW2  569   0.583   1.967   1.886
  795SOL     OW  570   1.351   2.452   3.295
  795SOL    HW1  571   1.379   2.409   3.380
  795SOL    HW2  572   1.376   2.548   3.296
  797SOL     OW  573   0.922   2.365   2.761
  797SOL    HW1  574   0.897   2.356   2.665
  797SOL    HW2  575   0.970   2.283   2.792
  798SOL     OW  576   0.539   1.926   2.374
  798SOL    HW1  577   0.458   1.927   2.432
  798SOL    HW2  578   0.542   2.009   2.319
  799SOL     OW  579   1.434   3.050   1.903
  799SOL    HW1  580   1.466   2.974   1.960
  799SOL    HW2  581   1.342   3.077   1.933
  801SOL     OW  582   0.935   2.098   2.342
  801SOL    HW1  583   0.887   2.139   2.264
  801SOL    HW2  584   1.034   2.096   2.323
  802SOL     OW  585   1.076   2.545   3.326
  802SOL    HW1  586   0.996   2.484   3.329
  802SOL    HW2  587   1.157   2.492   3.302
  803SOL     OW  588   1.227   3.432   2.655
  803SOL    HW1  589   1.248   3.506   2.590
  803SOL    HW2  590   1.295   3.432   2.728
  805SOL     OW  591   1.271   3.659   2.453
  805SOL    HW1  592   1.315   3.723   2.389
  805SOL    HW2  593   1.221   3.711   2.523
  806SOL     OW  594   1.032   2.411   1.878
  806SOL    HW1  595   0.991   2.493   1.839
  806SOL    HW2  596   1.096   2.437   1.951
  809SOL     OW  597   0.866   2.316   2.504
  809SOL    HW1  598   0.834   2.388   2.442
  809SOL    HW2  599   0.890   2.235   2.451
  810SOL     OW  600   1.017   1.901   2.615
  810SOL    HW1  601   0.945   1.906   2.546
  810SOL    HW2  602   0.993   1.832   2.684
  811SOL     OW  603   1.429   3.035   2.729
  811SOL    HW1  604   1.374   2.951   2.722
  811SOL    HW2  605   1.455   3.064   2.637
  812SOL     OW  606   1.466   2.452   2.854
  812SOL    HW1  607   1.436   2.357   2.861
  812SOL    HW2  608   1.539   2.468   2.920
  813SOL     OW  609   1.857   2.695   2.239
  813SOL    HW1  610   1.899   2.631   2.303
  813SOL    HW2  611   1.819   2.644   2.161
  815SOL     OW  612   1.664   3.142   2.519
  815SOL    HW1  613   1.763   3.150   2.533
  815SOL    HW2  614   1.619   3.226   2.550
  816SOL     OW  615   1.390   2.437   1.940
  816SOL    HW1  616   1.336   2.416   2.021
  816SOL    HW2  617   1.481   2.396   1.949
  817SOL     OW  618   0.527   2.118   2.190
  817SOL    HW1  619   0.554   2.059   2.115
  817SOL    HW2  620   0.527   2.213   2.159
  818SOL     OW  621   1.754   3.085   3.450
  818SOL    HW1  622   1.845   3.046   3.437
  818SOL    HW2  623   1.762   3.181   3.474
  819SOL     OW  624   1.064   3.209   3.202
  819SOL    HW1  625   0.984   3.186   3.257
  819SOL    HW2  626   1.147   3.183   3.251
  821SOL     OW  627   1.111   3.057   2.962
  821SOL    HW1  628   1.071   3.101   3.043
  821SOL    HW2  629   1.070   3.094   2.879
  822SOL     OW  630   1.638   2.961   2.941
  822SOL    HW1  631   1.643   3.042   3.000
  822SOL    HW2  632   1.552   2.963   2.890
  823SOL     OW  633   0.915   1.951   3.264
  823SOL    HW1  634   0.940   1.931   3.169
  823SOL    HW2  635   0.987   2.007   3.306
  825SOL     OW  636   0.705   2.912   2.230
  825SOL    HW1  637   0.691   2.919   2.329
  825SOL    HW2  638   0.789   2.861   2.212
  827SOL     OW  639   1.274   2.248   3.124
  827SOL    HW1  640   1.295   2.322   3.188
  827SOL    HW2  641   1.185   2.265   3.081
  830SOL     OW  642   0.566   2.399   2.727
  830SOL    HW1  643   0.578   2.465   2.653
  830SOL    HW2  644   0.612   2.433   2.810
  831SOL     OW  645   1.252   3.210   2.250
  831SOL    HW1  646   1.302   3.287   2.290
  831SOL    HW2  647   1.157   3.212   2.282
  832SOL     OW  648   1.272   3.307   3.004
  832SOL    HW1  649   1.319   3.320   3.091
  832SOL    HW2  650   1.206   3.233   3.013
  833SOL     OW  651   1.582   2.501   2.334
  833SOL    HW1  652   1.551   2.562   2.407
  833SOL    HW2  653   1.632   2.553   2.265
  836SOL     OW  654   1.587   2.641   3.532
  836SOL    HW1  655   1.495   2.679   3.527
  836SOL    HW2  656   1.647   2.688   3.467
  840SOL     OW  657   1.360   2.724   2.907
  840SOL    HW1  658   1.285   2.724   2.841
  840SOL    HW2  659   1.397   2.632   2.916
  841SOL     OW  660   1.209   2.387   2.137
  841SOL    HW1  661   1.222   2.303   2.191
  841SOL    HW2  662   1.180   2.461   2.197
  844SOL     OW  663   0.732   2.496   2.926
  844SOL    HW1  664   0.791   2.470   2.850
  844SOL    HW2  665   0.704   2.592   2.915
  845SOL     OW  666   1.728   2.797   3.716
  845SOL    HW1  667   1.682   2.790   3.627
  845SOL    HW2  668   1.666   2.841   3.782
  847SOL     OW  669   1.622   2.229   2.236
  847SOL    HW1  670   1.624   2.153   2.300
  847SOL    HW2  671   1.574   2.306   2.276
  848SOL     OW  672   1.023   2.628   2.828
  848SOL    HW1  673   1.038   2.649   2.924
  848SOL    HW2  674   0.993   2.533   2.819
  850SOL     OW  675   1.859   3.380   3.467
  850SOL    HW1  676   1.873   3.407   3.372
  850SOL    HW2  677   1.942   3.402   3.520
  852SOL     OW  678   1.540   2.136   1.987
  852SOL    HW1  679   1.479   2.061   2.010
  852SOL    HW2  680   1.562   2.188   2.070
  853SOL     OW  681   1.303   2.700   1.904
  853SOL    HW1  682   1.337   2.607   1.919
  853SOL    HW2  683   1.321   2.727   1.809
  854SOL     OW  684   1.068   3.195   2.711
  854SOL    HW1  685   1.075   3.111   2.656
  854SOL    HW2  686   1.130   3.264   2.675
  857SOL     OW  687   1.138   2.242   3.540
  857SOL    HW1  688   1.093   2.305   3.604
  857SOL    HW2  689   1.231   2.273   3.523
  858SOL     OW  690   1.160   2.069   3.339
  858SOL    HW1  691   1.160   2.133   3.416
  858SOL    HW2  692   1.188   2.117   3.256
  862SOL     OW  693   1.002   2.658   3.100
  862SOL    HW1  694   1.043   2.626   3.186
  862SOL    HW2  695   0.906   2.631   3.097
  865SOL     OW  696   1.369   2.812   3.522
  865SOL    HW1  697   1.408   2.901   3.542
  865SOL    HW2  698   1.379   2.792   3.425
  866SOL     OW  699   0.815   2.434   2.187
  866SOL    HW1  700   0.822   2.345   2.141
  866SOL    HW2  701   0.721   2.468   2.179
  867SOL     OW  702   1.657   2.466   3.068
  867SOL    HW1  703   1.619   2.397   3.130
  867SOL    HW2  704   1.739   2.430   3.024
  871SOL     OW  705   0.473   2.362   2.053
  871SOL    HW1  706   0.534   2.442   2.057
  871SOL    HW2  707   0.378   2.393   2.060
  873SOL     OW  708   1.347   2.921   3.096
  873SOL    HW1  709   1.371   2.858   3.022
  873SOL    HW2  710   1.257   2.961   3.078
  874SOL     OW  711   1.302   2.717   2.171
  874SOL    HW1  712   1.216   2.686   2.213
  874SOL    HW2  713   1.298   2.703   2.072
  875SOL     OW  714   1.759   3.609   3.016
  875SOL    HW1  715   1.820   3.639   2.943
  875SOL    HW2  716   1.721   3.520   2.994
  879SOL     OW  717   1.726   1.997   2.385
  879SOL    HW1  718   1.799   1.980   2.318
  879SOL    HW2  719   1.695   1.910   2.423
  880SOL     OW  720   1.388   3.435   2.339
  880SOL    HW1  721   1.455   3.447   2.265
  880SOL    HW2  722   1.348   3.524   2.362
  882SOL     OW  723   1.280   2.789   2.534
  882SOL    HW1  724   1.340   2.708   2.536
  882SOL    HW2  725   1.320   2.858   2.474
  885SOL     OW  726   1.650   3.582   3.256
  885SOL    HW1  727   1.703   3.592   3.172
  885SOL    HW2  728   1.623   3.672   3.290
  886SOL     OW  729   1.841   2.037   2.825
  886SOL    HW1  730   1.880   1.952   2.789
  886SOL    HW2  731   1.743   2.039   2.806
  888SOL     OW  732   1.194   3.474   1.893
  888SOL    HW1  733   1.200   3.381   1.930
  888SOL    HW2  734   1.135   3.474   1.813
  890SOL     OW  735   0.916   2.772   2.153
  890SOL    HW1  736   0.979   2.810   2.085
  890SOL    HW2  737   0.956   2.689   2.192
  891SOL     OW  738   1.504   3.469   1.906
  891SOL    HW1  739   1.412   3.506   1.913
  891SOL    HW2  740   1.542   3.489   1.816
  893SOL     OW  741   1.614   3.154   3.151
  893SOL    HW1  742   1.674   3.157   3.231
  893SOL    HW2  743   1.539   3.218   3.164
  894SOL     OW  744   1.039   2.960   2.558
  894SOL    HW1  745   0.969   2.913   2.612
  894SOL    HW2  746   1.098   2.892   2.515
  895SOL     OW  747   1.014   2.098   2.833
  895SOL    HW1  748   1.006   2.062   2.740
  895SOL    HW2  749   1.012   2.022   2.898
  897SOL     OW  750   1.709   2.247   3.243
  897SOL    HW1  751   1.782   2.316   3.247
  897SOL    HW2  752   1.737   2.172   3.184
  902SOL     OW  753   1.440   2.718   3.260
  902SOL    HW1  754   1.383   2.770   3.197
  902SOL    HW2  755   1.536   2.730   3.236
  904SOL     OW  756   1.183   3.197   1.981
  904SOL    HW1  757   1.084   3.186   1.983
  904SOL    HW2  758   1.217   3.212   2.074
  906SOL     OW  759   1.493   3.629   2.821
  906SOL    HW1  760   1.526   3.693   2.752
  906SOL    HW2  761   1.559   3.623   2.896
  908SOL     OW  762   1.450   3.082   3.495
  908SOL    HW1  763   1.441   3.072   3.594
  908SOL    HW2  764   1.546   3.075   3.469
  910SOL     OW  765   1.674   2.745   3.116
  910SOL    HW1  766   1.647   2.656   3.079
  910SOL    HW2  767   1.675   2.813   3.043
  911SOL     OW  768   1.225   2.187   2.311
  911SOL    HW1  769   1.290   2.113   2.300
  911SOL    HW2  770   1.245   2.237   2.395
  912SOL     OW  771   0.594   2.607   2.514
  912SOL    HW1  772   0.644   2.692   2.495
  912SOL    HW2  773   0.506   2.609   2.466
  913SOL     OW  774   1.777   2.204   3.504
  913SOL    HW1  775   1.760   2.235   3.410
  913SOL    HW2  776   1.693   2.167   3.542
  914SOL     OW  777   1.730   2.796   3.379
  914SOL    HW1  778   1.768   2.887   3.394
  914SOL    HW2  779   1.722   2.779   3.280
  915SOL     OW  780   0.859   3.236   1.878
  915SOL    HW1  781   0.813   3.251   1.966
  915SOL    HW2  782   0.903   3.321   1.848
  917SOL     OW  783   0.859   2.818   2.723
  917SOL    HW1  784   0.913   2.749   2.771
  917SOL    HW2  785   0.827   2.887   2.789
  918SOL     OW  786   1.083   2.846   1.949
  918SOL    HW1  787   1.060   2.899   1.867
  918SOL    HW2  788   1.164   2.790   1.930
  919SOL     OW  789   1.861   3.431   2.713
  919SOL    HW1  790   1.790   3.419   2.643
  919SOL    HW2  791   1.862   3.352   2.773
  923SOL     OW  792   1.824   2.054   3.089
  923SOL    HW1  793   1.820   1.964   3.133
  923SOL    HW2  794   1.827   2.043   2.990
  925SOL     OW  795   1.705   3.349   2.966
  925SOL    HW1  796   1.612   3.324   2.939
  925SOL    HW2  797   1.731   3.299   3.048
  928SOL     OW  798   1.424   2.076   2.974
  928SOL    HW1  799   1.476   2.011   3.029
  928SOL    HW2  800   1.375   2.139   3.035
  929SOL     OW  801   1.001   1.896   3.016
  929SOL    HW1  802   0.938   1.824   2.985
  929SOL    HW2  803   1.094   1.860   3.016
  930SOL     OW  804   0.770   3.192   2.163
  930SOL    HW1  805   0.724   3.105   2.180
  930SOL    HW2  806   0.861   3.189   2.204
  932SOL     OW  807   1.352   1.914   2.030
  932SOL    HW1  808   1.387   1.873   1.946
  932SOL    HW2  809   1.262   1.876   2.050
  933SOL     OW  810   1.300   2.315   2.553
  933SOL    HW1  811   1.241   2.395   2.557
  933SOL    HW2  812   1.315   2.280   2.646
  934SOL     OW  813   1.593   2.083   2.744
  934SOL    HW1  814   1.509   2.082   2.798
  934SOL    HW2  815   1.595   2.166   2.688
  939SOL     OW  816   1.755   2.469   3.955
  939SOL    HW1  817   1.743   2.456   3.856
  939SOL    HW2  818   1.725   2.388   4.004
  983SOL     OW  819   1.390   2.437   3.802
  983SOL    HW1  820   1.336   2.416   3.883
  983SOL    HW2  821   1.481   2.396   3.811
  993SOL     OW  822   1.540   2.136   3.849
  993SOL    HW1  823   1.479   2.061   3.872
  993SOL    HW2  824   1.562   2.188   3.932
 1136SOL     OW  825   1.400   3.831   2.288
 1136SOL    HW1  826   1.376   3.794   2.198
 1136SOL    HW2  827   1.499   3.847   2.292
 1179SOL     OW  828   1.726   3.859   2.385
 1179SOL    HW1  829   1.799   3.842   2.318
 1179SOL    HW2  830   1.695   3.772   2.423
 1181SOL     OW  831   1.841   3.899   2.825
 1181SOL    HW1  832   1.880   3.814   2.789
 1181SOL    HW2  833   1.743   3.901   2.806
 1199SOL     OW  834   1.352   3.776   2.030
 1199SOL    HW1  835   1.387   3.735   1.946
 1199SOL    HW2  836   1.262   3.738   2.050
 1244SOL     OW  837   2.431   1.275   1.165
 1244SOL    HW1  838   2.338   1.268   1.128
 1244SOL    HW2  839   2.442   1.364   1.209
 1248SOL     OW  840   2.630   1.144   1.023
 1248SOL    HW1  841   2.552   1.161   1.083
 1248SOL    HW2  842   2.664   1.231   0.987
 1249SOL     OW  843   2.712   0.798   1.823
 1249SOL    HW1  844   2.708   0.874   1.888
 1249SOL    HW2  845   2.734   0.834   1.732
 1251SOL     OW  846   2.548   1.161   1.803
 1251SOL    HW1  847   2.608   1.240   1.817
 1251SOL    HW2  848   2.462   1.192   1.762
 1252SOL     OW  849   2.197   1.435   1.061
 1252SOL    HW1  850   2.119   1.404   1.008
 1252SOL    HW2  851   2.255   1.493   1.004
 1253SOL     OW  852   3.322   1.505   1.339
 1253SOL    HW1  853   3.346   1.599   1.365
 1253SOL    HW2  854   3.306   1.451   1.421
 1257SOL     OW  855   2.989   1.341   1.690
 1257SOL    HW1  856   3.036   1.341   1.778
 1257SOL    HW2  857   2.941   1.254   1.679
 1260SOL     OW  858   2.482   1.786   1.439
 1260SOL    HW1  859   2.390   1.769   1.474
 1260SOL    HW2  860   2.510   1.878   1.465
 1268SOL     OW  861   1.975   0.737   1.597
 1268SOL    HW1  862   2.063   0.724   1.642
 1268SOL    HW2  863   1.962   0.834   1.575
 1269SOL     OW  864   2.475   1.365   0.726
 1269SOL    HW1  865   2.426   1.278   0.735
 1269SOL    HW2  866   2.452   1.408   0.639
 1270SOL     OW  867   3.155   1.228   1.423
 1270SOL    HW1  868   3.192   1.155   1.365
 1270SOL    HW2  869   3.207   1.233   1.508
 1272SOL     OW  870   2.059   0.976   1.264
 1272SOL    HW1  871   2.148   0.931   1.250
 1272SOL    HW2  872   1.986   0.911   1.245
 1274SOL     OW  873   3.049   1.792   1.616
 1274SOL    HW1  874   3.073   1.852   1.540
 1274SOL    HW2  875   3.056   1.697   1.586
 1283SOL     OW  876   2.835   0.890   1.572
 1283SOL    HW1  877   2.881   0.806   1.543
 1283SOL    HW2  878   2.779   0.924   1.497
 1287SOL     OW  879   1.992   1.821   1.571
 1287SOL    HW1  880   1.982   1.806   1.670
 1287SOL    HW2  881   1.906   1.857   1.535
 1293SOL     OW  882   2.213   1.801   0.853
 1293SOL    HW1  883   2.263   1.715   0.859
 1293SOL    HW2  884   2.278   1.878   0.850
 1295SOL     OW  885   3.089   1.550   1.506
 1295SOL    HW1  886   3.095   1.473   1.570
 1295SOL    HW2  887   3.037   1.524   1.426
 1298SOL     OW  888   2.323   1.266   1.727
 1298SOL    HW1  889   2.273   1.267   1.641
 1298SOL    HW2  890   2.260   1.248   1.803
 1304SOL     OW  891   2.111   1.785   1.241
 1304SOL    HW1  892   2.168   1.720   1.291
 1304SOL    HW2  893   2.095   1.752   1.148
 1305SOL     OW  894   2.802   1.698   0.904
 1305SOL    HW1  895   2.882   1.641   0.925
 1305SOL    HW2  896   2.753   1.658   0.827
 1310SOL     OW  897   2.750   1.514   1.195
 1310SOL    HW1  898   2.727   1.489   1.101
 1310SOL    HW2  899   2.811   1.445   1.234
 1312SOL     OW  900   2.665   1.402   0.924
 1312SOL    HW1  901   2.755   1.416   0.882
 1312SOL    HW2  902   2.594   1.404   0.853
 1335SOL     OW  903   2.926   1.347   1.340
 1335SOL    HW1  904   2.846   1.324   1.395
 1335SOL    HW2  905   3.009   1.321   1.389
 1336SOL     OW  906   3.454   1.629   1.625
 1336SOL    HW1  907   3.481   1.663   1.535
 1336SOL    HW2  908   3.533   1.591   1.671
 1337SOL     OW  909   2.973   1.195   1.100
 1337SOL    HW1  910   2.933   1.239   1.181
 1337SOL    HW2  911   2.932   1.232   1.017
 1340SOL     OW  912   2.842   1.116   1.719
 1340SOL    HW1  913   2.743   1.122   1.729
 1340SOL    HW2  914   2.865   1.036   1.663
 1342SOL     OW  915   2.272   0.813   1.251
 1342SOL    HW1  916   2.358   0.825   1.301
 1342SOL    HW2  917   2.230   0.726   1.278
 1344SOL     OW  918   1.926   1.564   1.331
 1344SOL    HW1  919   1.880   1.646   1.297
 1344SOL    HW2  920   2.024   1.583   1.340
 1348SOL     OW  921   3.134   1.445   1.142
 1348SOL    HW1  922   3.181   1.458   1.229
 1348SOL    HW2  923   3.068   1.371   1.151
 1350SOL     OW  924   2.216   1.510   1.329
 1350SOL    HW1  925   2.195   1.466   1.242
 1350SOL    HW2  926   2.313   1.536   1.332
 1351SOL     OW  927   2.264   0.751   1.598
 1351SOL    HW1  928   2.332   0.806   1.551
 1351SOL    HW2  929   2.304   0.663   1.625
 1359SOL     OW  930   1.899   1.310   1.282
 1359SOL    HW1  931   1.952   1.261   1.350
 1359SOL    HW2  932   1.921   1.408   1.287
 1365SOL     OW  933   2.842   1.573   1.700
 1365SOL    HW1  934   2.822   1.617   1.612
 1365SOL    HW2  935   2.881   1.482   1.684
 1366SOL     OW  936   3.721   1.518   1.605
 1366SOL    HW1  937   3.735   1.545   1.510
 1366SOL    HW2  938   3.804   1.540   1.658
 1367SOL     OW  939   2.212   0.898   1.804
 1367SOL    HW1  940   2.288   0.942   1.852
 1367SOL    HW2  941   2.247   0.851   1.722
 1376SOL     OW  942   1.950   1.801   0.927
 1376SOL    HW1  943   1.908   1.715   0.900
 1376SOL    HW2  944   2.044   1.804   0.893
 1377SOL     OW  945   2.366   1.568   0.910
 1377SOL    HW1  946   2.432   1.642   0.919
 1377SOL    HW2  947   2.410   1.489   0.868
 1381SOL     OW  948   3.231   0.950   1.660
 1381SOL    HW1  949   3.270   1.039   1.680
 1381SOL    HW2  950   3.241   0.930   1.563
 1384SOL     OW  951   2.114   1.564   1.744
 1384SOL    HW1  952   2.084   1.621   1.820
 1384SOL    HW2  953   2.107   1.467   1.770
 1386SOL     OW  954   2.792   1.678   1.465
 1386SOL    HW1  955   2.768   1.660   1.370
 1386SOL    HW2  956   2.822   1.772   1.475
 1388SOL     OW  957   2.021   1.137   1.466
 1388SOL    HW1  958   2.043   1.076   1.542
 1388SOL    HW2  959   2.031   1.088   1.380
 1392SOL     OW  960   3.114   1.731   1.128
 1392SOL    HW1  961   3.198   1.736   1.074
 1392SOL    HW2  962   3.091   1.635   1.146
 1393SOL     OW  963   1.945   1.258   1.022
 1393SOL    HW1  964   1.940   1.257   1.122
 1393SOL    HW2  965   1.862   1.217   0.984
 1394SOL     OW  966   2.550   1.662   1.716
 1394SOL    HW1  967   2.494   1.743   1.725
 1394SOL    HW2  968   2.602   1.666   1.630
 1398SOL     OW  969   1.992   1.794   1.851
 1398SOL    HW1  970   1.951   1.720   1.904
 1398SOL    HW2  971   2.056   1.845   1.909
 1400SOL     OW  972   2.692   1.273   1.422
 1400SOL    HW1  973   2.687   1.306   1.517
 1400SOL    HW2  974   2.606   1.292   1.376
 1402SOL     OW  975   3.512   1.720   1.394
 1402SOL    HW1  976   3.565   1.730   1.310
 1402SOL    HW2  977   3.485   1.810   1.428
 1406SOL     OW  978   2.684   1.002   1.372
 1406SOL    HW1  979   2.724   1.001   1.280
 1406SOL    HW2  980   2.694   1.094   1.412
 1409SOL     OW  981   2.234   1.288   1.490
 1409SOL    HW1  982   2.221   1.381   1.456
 1409SOL    HW2  983   2.150   1.236   1.477
 1416SOL     OW  984   1.967   1.013   1.726
 1416SOL    HW1  985   1.890   0.980   1.780
 1416SOL    HW2  986   2.052   0.983   1.768
 1421SOL     OW  987   2.475   0.842   1.431
 1421SOL    HW1  988   2.531   0.923   1.414
 1421SOL    HW2  989   2.534   0.762   1.434
 1422SOL     OW  990   3.355   1.767   0.959
 1422SOL    HW1  991   3.388   1.831   0.890
 1422SOL    HW2  992   3.421   1.761   1.034
 1424SOL     OW  993   3.312   1.220   1.633
 1424SOL    HW1  994   3.303   1.210   1.732
 1424SOL    HW2  995   3.408   1.213   1.607
 1425SOL     OW  996   2.252   1.741   1.560
 1425SOL    HW1  997   2.161   1.782   1.558
 1425SOL    HW2  998   2.245   1.647   1.592
 1432SOL     OW  999   2.523   1.790   0.953
 1432SOL    HW1 1000   2.477   1.878   0.940
 1432SOL    HW2 1001   2.622   1.802   0.946
 1436SOL     OW 1002   2.083   1.314   1.844
 1436SOL    HW1 1003   2.018   1.241   1.823
 1436SOL    HW2 1004   2.087   1.328   1.942
 1438SOL     OW 1005   2.534   1.391   1.624
 1438SOL    HW1 1006   2.456   1.341   1.662
 1438SOL    HW2 1007   2.531   1.486   1.655
 1443SOL     OW 1008   2.674   1.586   0.687
 1443SOL    HW1 1009   2.706   1.596   0.593
 1443SOL    HW2 1010   2.595   1.524   0.689
 1447SOL     OW 1011   2.480   1.567   1.284
 1447SOL    HW1 1012   2.475   1.649   1.341
 1447SOL    HW2 1013   2.569   1.564   1.239
 1453SOL     OW 1014   2.092   0.628   1.975
 1453SOL    HW1 1015   1.999   0.626   2.012
 1453SOL    HW2 1016   2.093   0.589   1.883
 1456SOL     OW 1017   2.431   1.275   3.027
 1456SOL    HW1 1018   2.338   1.268   2.990
 1456SOL    HW2 1019   2.442   1.364   3.071
 1457SOL     OW 1020   3.417   1.511   2.565
 1457SOL    HW1 1021   3.360   1.495   2.646
 1457SOL    HW2 1022   3.358   1.521   2.485
 1458SOL     OW 1023   2.997   0.703   2.579
 1458SOL    HW1 1024   3.054   0.781   2.554
 1458SOL    HW2 1025   2.937   0.729   2.655
 1460SOL     OW 1026   2.630   1.144   2.885
 1460SOL    HW1 1027   2.552   1.161   2.945
 1460SOL    HW2 1028   2.664   1.231   2.849
 1462SOL     OW 1029   2.547   1.012   2.527
 1462SOL    HW1 1030   2.616   0.996   2.597
 1462SOL    HW2 1031   2.474   1.069   2.565
 1464SOL     OW 1032   2.197   1.435   2.923
 1464SOL    HW1 1033   2.119   1.404   2.870
 1464SOL    HW2 1034   2.255   1.493   2.866
 1465SOL     OW 1035   3.322   1.505   3.201
 1465SOL    HW1 1036   3.346   1.599   3.227
 1465SOL    HW2 1037   3.306   1.451   3.283
 1468SOL     OW 1038   2.093   1.713   2.345
 1468SOL    HW1 1039   2.127   1.790   2.399
 1468SOL    HW2 1040   2.137   1.713   2.255
 1469SOL     OW 1041   2.989   1.341   3.552
 1469SOL    HW1 1042   3.036   1.341   3.640
 1469SOL    HW2 1043   2.941   1.254   3.541
 1470SOL     OW 1044   2.092   1.434   2.400
 1470SOL    HW1 1045   2.066   1.530   2.400
 1470SOL    HW2 1046   2.021   1.380   2.445
 1471SOL     OW 1047   2.102   1.091   2.748
 1471SOL    HW1 1048   2.116   1.007   2.800
 1471SOL    HW2 1049   2.047   1.155   2.803
 1472SOL     OW 1050   2.482   1.786   3.301
 1472SOL    HW1 1051   2.390   1.769   3.336
 1472SOL    HW2 1052   2.510   1.878   3.327
 1473SOL     OW 1053   2.468   0.964   1.985
 1473SOL    HW1 1054   2.475   1.048   1.931
 1473SOL    HW2 1055   2.514   0.977   2.073
 1475SOL     OW 1056   1.984   0.643   2.425
 1475SOL    HW1 1057   1.939   0.555   2.442
 1475SOL    HW2 1058   1.983   0.697   2.509
 1476SOL     OW 1059   3.704   1.767   2.221
 1476SOL    HW1 1060   3.758   1.738   2.301
 1476SOL    HW2 1061   3.734   1.857   2.192
 1477SOL     OW 1062   1.889   1.596   1.979
 1477SOL    HW1 1063   1.870   1.500   2.000
 1477SOL    HW2 1064   1.856   1.654   2.054
 1479SOL     OW 1065   3.503   1.108   2.294
 1479SOL    HW1 1066   3.589   1.110   2.242
 1479SOL    HW2 1067   3.517   1.155   2.382
 1481SOL     OW 1068   2.475   1.365   2.588
 1481SOL    HW1 1069   2.426   1.278   2.597
 1481SOL    HW2 1070   2.452   1.408   2.501
 1482SOL     OW 1071   3.155   1.228   3.285
 1482SOL    HW1 1072   3.192   1.155   3.227
 1482SOL    HW2 1073   3.207   1.233   3.370
 1484SOL     OW 1074   2.059   0.976   3.126
 1484SOL    HW1 1075   2.148   0.931   3.112
 1484SOL    HW2 1076   1.986   0.911   3.107
 1485SOL     OW 1077   3.387   0.999   2.052
 1485SOL    HW1 1078   3.324   0.923   2.065
 1485SOL    HW2 1079   3.435   1.017   2.138
 1486SOL     OW 1080   3.049   1.792   3.478
 1486SOL    HW1 1081   3.073   1.852   3.402
 1486SOL    HW2 1082   3.056   1.697   3.448
 1488SOL     OW 1083   3.328   1.417   2.815
 1488SOL    HW1 1084   3.269   1.423   2.895
 1488SOL    HW2 1085   3.313   1.329   2.769
 1489SOL     OW 1086   3.529   1.714   2.434
 1489SOL    HW1 1087   3.488   1.691   2.346
 1489SOL    HW2 1088   3.511   1.640   2.499
 1490SOL     OW 1089   2.460   0.729   2.132
 1490SOL    HW1 1090   2.484   0.798   2.064
 1490SOL    HW2 1091   2.382   0.762   2.186
 1492SOL     OW 1092   3.438   1.662   2.169
 1492SOL    HW1 1093   3.527   1.708   2.172
 1492SOL    HW2 1094   3.417   1.638   2.074
 1497SOL     OW 1095   2.903   0.701   2.291
 1497SOL    HW1 1096   2.929   0.697   2.387
 1497SOL    HW2 1097   2.818   0.650   2.277
 1498SOL     OW 1098   1.938   0.811   2.651
 1498SOL    HW1 1099   2.037   0.799   2.660
 1498SOL    HW2 1100   1.914   0.906   2.672
 1499SOL     OW 1101   1.992   1.821   3.433
 1499SOL    HW1 1102   1.982   1.806   3.532
 1499SOL    HW2 1103   1.906   1.857   3.397
 1502SOL     OW 1104   3.224   1.144   2.407
 1502SOL    HW1 1105   3.307   1.115   2.359
 1502SOL    HW2 1106   3.175   1.211   2.351
 1504SOL     OW 1107   2.870   1.456   2.339
 1504SOL    HW1 1108   2.824   1.528   2.287
 1504SOL    HW2 1109   2.866   1.476   2.437
 1505SOL     OW 1110   2.213   1.801   2.715
 1505SOL    HW1 1111   2.263   1.715   2.721
 1505SOL    HW2 1112   2.278   1.878   2.712
 1507SOL     OW 1113   3.089   1.550   3.368
 1507SOL    HW1 1114   3.095   1.473   3.432
 1507SOL    HW2 1115   3.037   1.524   3.288
 1508SOL     OW 1116   2.183   0.943   2.104
 1508SOL    HW1 1117   2.265   0.982   2.062
 1508SOL    HW2 1118   2.156   0.861   2.055
 1510SOL     OW 1119   2.323   1.266   3.589
 1510SOL    HW1 1120   2.273   1.267   3.503
 1510SOL    HW2 1121   2.260   1.248   3.665
 1511SOL     OW 1122   2.973   1.776   2.099
 1511SOL    HW1 1123   2.913   1.714   2.149
 1511SOL    HW2 1124   3.004   1.732   2.014
 1513SOL     OW 1125   3.494   1.377   1.943
 1513SOL    HW1 1126   3.462   1.471   1.933
 1513SOL    HW2 1127   3.418   1.314   1.931
 1514SOL     OW 1128   2.326   1.743   2.185
 1514SOL    HW1 1129   2.359   1.782   2.271
 1514SOL    HW2 1130   2.402   1.736   2.120
 1516SOL     OW 1131   2.111   1.785   3.103
 1516SOL    HW1 1132   2.168   1.720   3.153
 1516SOL    HW2 1133   2.095   1.752   3.010
 1517SOL     OW 1134   2.802   1.698   2.766
 1517SOL    HW1 1135   2.882   1.641   2.787
 1517SOL    HW2 1136   2.753   1.658   2.689
 1518SOL     OW 1137   2.244   0.700   2.342
 1518SOL    HW1 1138   2.289   0.610   2.339
 1518SOL    HW2 1139   2.150   0.689   2.375
 1522SOL     OW 1140   2.750   1.514   3.057
 1522SOL    HW1 1141   2.727   1.489   2.963
 1522SOL    HW2 1142   2.811   1.445   3.096
 1524SOL     OW 1143   2.665   1.402   2.786
 1524SOL    HW1 1144   2.755   1.416   2.744
 1524SOL    HW2 1145   2.594   1.404   2.715
 1527SOL     OW 1146   3.296   1.188   1.903
 1527SOL    HW1 1147   3.328   1.112   1.960
 1527SOL    HW2 1148   3.204   1.215   1.933
 1531SOL     OW 1149   3.089   1.570   2.655
 1531SOL    HW1 1150   3.110   1.644   2.590
 1531SOL    HW2 1151   3.157   1.570   2.728
 1532SOL     OW 1152   2.321   1.152   2.603
 1532SOL    HW1 1153   2.250   1.125   2.668
 1532SOL    HW2 1154   2.295   1.124   2.510
 1533SOL     OW 1155   3.133   1.797   2.453
 1533SOL    HW1 1156   3.177   1.861   2.389
 1533SOL    HW2 1157   3.083   1.849   2.523
 1539SOL     OW 1158   3.291   1.173   2.729
 1539SOL    HW1 1159   3.236   1.089   2.722
 1539SOL    HW2 1160   3.317   1.202   2.637
 1542SOL     OW 1161   2.350   1.385   2.036
 1542SOL    HW1 1162   2.263   1.370   2.083
 1542SOL    HW2 1163   2.333   1.411   1.941
 1543SOL     OW 1164   3.526   1.280   2.519
 1543SOL    HW1 1165   3.625   1.288   2.533
 1543SOL    HW2 1166   3.481   1.364   2.550
 1547SOL     OW 1167   2.926   1.347   3.202
 1547SOL    HW1 1168   2.846   1.324   3.257
 1547SOL    HW2 1169   3.009   1.321   3.251
 1549SOL     OW 1170   2.973   1.195   2.962
 1549SOL    HW1 1171   2.933   1.239   3.043
 1549SOL    HW2 1172   2.932   1.232   2.879
 1553SOL     OW 1173   2.567   1.050   2.230
 1553SOL    HW1 1174   2.553   1.057   2.329
 1553SOL    HW2 1175   2.651   0.999   2.212
 1554SOL     OW 1176   2.272   0.813   3.113
 1554SOL    HW1 1177   2.358   0.825   3.163
 1554SOL    HW2 1178   2.230   0.726   3.140
 1556SOL     OW 1179   1.926   1.564   3.193
 1556SOL    HW1 1180   1.880   1.646   3.159
 1556SOL    HW2 1181   2.024   1.583   3.202
 1557SOL     OW 1182   2.229   1.100   2.363
 1557SOL    HW1 1183   2.222   1.183   2.307
 1557SOL    HW2 1184   2.233   1.020   2.303
 1558SOL     OW 1185   2.428   0.537   2.727
 1558SOL    HW1 1186   2.440   0.603   2.653
 1558SOL    HW2 1187   2.474   0.571   2.810
 1559SOL     OW 1188   3.114   1.348   2.250
 1559SOL    HW1 1189   3.164   1.425   2.290
 1559SOL    HW2 1190   3.019   1.350   2.282
 1560SOL     OW 1191   3.134   1.445   3.004
 1560SOL    HW1 1192   3.181   1.458   3.091
 1560SOL    HW2 1193   3.068   1.371   3.013
 1562SOL     OW 1194   2.216   1.510   3.191
 1562SOL    HW1 1195   2.195   1.466   3.104
 1562SOL    HW2 1196   2.313   1.536   3.194
 1567SOL     OW 1197   2.435   0.870   2.891
 1567SOL    HW1 1198   2.479   0.959   2.882
 1567SOL    HW2 1199   2.372   0.870   2.968
 1571SOL     OW 1200   1.899   1.310   3.144
 1571SOL    HW1 1201   1.952   1.261   3.212
 1571SOL    HW2 1202   1.921   1.408   3.149
 1572SOL     OW 1203   2.594   0.634   2.926
 1572SOL    HW1 1204   2.653   0.608   2.850
 1572SOL    HW2 1205   2.566   0.730   2.915
 1576SOL     OW 1206   2.885   0.766   2.828
 1576SOL    HW1 1207   2.900   0.787   2.924
 1576SOL    HW2 1208   2.855   0.671   2.819
 1577SOL     OW 1209   2.842   1.573   3.562
 1577SOL    HW1 1210   2.822   1.617   3.474
 1577SOL    HW2 1211   2.881   1.482   3.546
 1581SOL     OW 1212   3.165   0.838   1.904
 1581SOL    HW1 1213   3.199   0.745   1.919
 1581SOL    HW2 1214   3.183   0.865   1.809
 1582SOL     OW 1215   2.930   1.333   2.711
 1582SOL    HW1 1216   2.937   1.249   2.656
 1582SOL    HW2 1217   2.992   1.402   2.675
 1583SOL     OW 1218   2.181   0.810   2.811
 1583SOL    HW1 1219   2.274   0.846   2.816
 1583SOL    HW2 1220   2.175   0.725   2.863
 1587SOL     OW 1221   1.870   1.326   2.062
 1587SOL    HW1 1222   1.777   1.347   2.031
 1587SOL    HW2 1223   1.880   1.227   2.075
 1588SOL     OW 1224   1.950   1.801   2.789
 1588SOL    HW1 1225   1.908   1.715   2.762
 1588SOL    HW2 1226   2.044   1.804   2.755
 1589SOL     OW 1227   2.366   1.568   2.772
 1589SOL    HW1 1228   2.432   1.642   2.781
 1589SOL    HW2 1229   2.410   1.489   2.730
 1590SOL     OW 1230   2.864   0.796   3.100
 1590SOL    HW1 1231   2.905   0.764   3.186
 1590SOL    HW2 1232   2.768   0.769   3.097
 1594SOL     OW 1233   2.677   0.572   2.187
 1594SOL    HW1 1234   2.684   0.483   2.141
 1594SOL    HW2 1235   2.583   0.606   2.179
 1596SOL     OW 1236   2.114   1.564   3.606
 1596SOL    HW1 1237   2.084   1.621   3.682
 1596SOL    HW2 1238   2.107   1.467   3.632
 1598SOL     OW 1239   2.792   1.678   3.327
 1598SOL    HW1 1240   2.768   1.660   3.232
 1598SOL    HW2 1241   2.822   1.772   3.337
 1599SOL     OW 1242   2.335   0.500   2.053
 1599SOL    HW1 1243   2.396   0.580   2.057
 1599SOL    HW2 1244   2.240   0.531   2.060
 1600SOL     OW 1245   2.021   1.137   3.328
 1600SOL    HW1 1246   2.043   1.076   3.404
 1600SOL    HW2 1247   2.031   1.088   3.242
 1601SOL     OW 1248   3.209   1.059   3.096
 1601SOL    HW1 1249   3.233   0.996   3.022
 1601SOL    HW2 1250   3.119   1.099   3.078
 1602SOL     OW 1251   3.164   0.855   2.171
 1602SOL    HW1 1252   3.078   0.824   2.213
 1602SOL    HW2 1253   3.160   0.841   2.072
 1603SOL     OW 1254   3.621   1.747   3.016
 1603SOL    HW1 1255   3.682   1.777   2.943
 1603SOL    HW2 1256   3.583   1.658   2.994
 1604SOL     OW 1257   3.114   1.731   2.990
 1604SOL    HW1 1258   3.198   1.736   2.936
 1604SOL    HW2 1259   3.091   1.635   3.008
 1605SOL     OW 1260   1.945   1.258   2.884
 1605SOL    HW1 1261   1.940   1.257   2.984
 1605SOL    HW2 1262   1.862   1.217   2.846
 1606SOL     OW 1263   2.550   1.662   3.578
 1606SOL    HW1 1264   2.494   1.743   3.587
 1606SOL    HW2 1265   2.602   1.666   3.492
 1608SOL     OW 1266   3.250   1.573   2.339
 1608SOL    HW1 1267   3.317   1.585   2.265
 1608SOL    HW2 1268   3.210   1.662   2.362
 1609SOL     OW 1269   1.992   1.794   3.713
 1609SOL    HW1 1270   1.951   1.720   3.766
 1609SOL    HW2 1271   2.056   1.845   3.771
 1610SOL     OW 1272   3.142   0.927   2.534
 1610SOL    HW1 1273   3.202   0.846   2.536
 1610SOL    HW2 1274   3.182   0.996   2.474
 1611SOL     OW 1275   2.692   1.273   3.284
 1611SOL    HW1 1276   2.687   1.306   3.379
 1611SOL    HW2 1277   2.606   1.292   3.238
 1612SOL     OW 1278   2.534   1.616   2.016
 1612SOL    HW1 1279   2.543   1.626   1.917
 1612SOL    HW2 1280   2.494   1.527   2.037
 1613SOL     OW 1281   3.512   1.720   3.256
 1613SOL    HW1 1282   3.565   1.730   3.172
 1613SOL    HW2 1283   3.485   1.810   3.290
 1616SOL     OW 1284   3.056   1.612   1.893
 1616SOL    HW1 1285   3.062   1.519   1.930
 1616SOL    HW2 1286   2.997   1.612   1.813
 1617SOL     OW 1287   2.684   1.002   3.234
 1617SOL    HW1 1288   2.724   1.001   3.142
 1617SOL    HW2 1289   2.694   1.094   3.274
 1618SOL     OW 1290   2.778   0.910   2.153
 1618SOL    HW1 1291   2.841   0.948   2.085
 1618SOL    HW2 1292   2.818   0.827   2.192
 1619SOL     OW 1293   3.366   1.607   1.906
 1619SOL    HW1 1294   3.274   1.644   1.913
 1619SOL    HW2 1295   3.404   1.627   1.816
 1620SOL     OW 1296   2.234   1.288   3.352
 1620SOL    HW1 1297   2.221   1.381   3.318
 1620SOL    HW2 1298   2.150   1.236   3.339
 1621SOL     OW 1299   3.476   1.292   3.151
 1621SOL    HW1 1300   3.536   1.295   3.231
 1621SOL    HW2 1301   3.401   1.356   3.164
 1622SOL     OW 1302   2.901   1.098   2.558
 1622SOL    HW1 1303   2.831   1.051   2.612
 1622SOL    HW2 1304   2.960   1.030   2.515
 1624SOL     OW 1305   2.452   1.487   2.353
 1624SOL    HW1 1306   2.494   1.429   2.283
 1624SOL    HW2 1307   2.408   1.566   2.309
 1626SOL     OW 1308   2.117   1.348   2.152
 1626SOL    HW1 1309   2.021   1.349   2.125
 1626SOL    HW2 1310   2.129   1.401   2.236
 1632SOL     OW 1311   3.045   1.335   1.981
 1632SOL    HW1 1312   2.946   1.324   1.983
 1632SOL    HW2 1313   3.079   1.350   2.074
 1633SOL     OW 1314   2.475   0.842   3.293
 1633SOL    HW1 1315   2.531   0.923   3.276
 1633SOL    HW2 1316   2.534   0.762   3.296
 1634SOL     OW 1317   3.355   1.767   2.821
 1634SOL    HW1 1318   3.388   1.831   2.752
 1634SOL    HW2 1319   3.421   1.761   2.896
 1637SOL     OW 1320   2.252   1.741   3.422
 1637SOL    HW1 1321   2.161   1.782   3.420
 1637SOL    HW2 1322   2.245   1.647   3.454
 1640SOL     OW 1323   2.456   0.745   2.514
 1640SOL    HW1 1324   2.506   0.830   2.495
 1640SOL    HW2 1325   2.368   0.747   2.466
 1643SOL     OW 1326   2.721   1.374   1.878
 1643SOL    HW1 1327   2.675   1.389   1.966
 1643SOL    HW2 1328   2.765   1.459   1.848
 1644SOL     OW 1329   2.523   1.790   2.815
 1644SOL    HW1 1330   2.477   1.878   2.802
 1644SOL    HW2 1331   2.622   1.802   2.808
 1645SOL     OW 1332   2.721   0.956   2.723
 1645SOL    HW1 1333   2.775   0.887   2.771
 1645SOL    HW2 1334   2.689   1.025   2.789
 1646SOL     OW 1335   2.945   0.984   1.949
 1646SOL    HW1 1336   2.922   1.037   1.867
 1646SOL    HW2 1337   3.026   0.928   1.930
 1647SOL     OW 1338   3.723   1.569   2.713
 1647SOL    HW1 1339   3.652   1.557   2.643
 1647SOL    HW2 1340   3.724   1.490   2.773
 1648SOL     OW 1341   2.083   1.314   3.706
 1648SOL    HW1 1342   2.018   1.241   3.685
 1648SOL    HW2 1343   2.087   1.328   3.804
 1649SOL     OW 1344   1.941   1.240   2.515
 1649SOL    HW1 1345   1.940   1.193   2.603
 1649SOL    HW2 1346   2.023   1.212   2.464
 1650SOL     OW 1347   2.534   1.391   3.486
 1650SOL    HW1 1348   2.456   1.341   3.524
 1650SOL    HW2 1349   2.531   1.486   3.517
 1653SOL     OW 1350   3.567   1.487   2.966
 1653SOL    HW1 1351   3.474   1.462   2.939
 1653SOL    HW2 1352   3.593   1.437   3.048
 1655SOL     OW 1353   2.674   1.586   2.549
 1655SOL    HW1 1354   2.706   1.596   2.455
 1655SOL    HW2 1355   2.595   1.524   2.551
 1658SOL     OW 1356   2.632   1.330   2.163
 1658SOL    HW1 1357   2.586   1.243   2.180
 1658SOL    HW2 1358   2.723   1.327   2.204
 1659SOL     OW 1359   2.480   1.567   3.146
 1659SOL    HW1 1360   2.475   1.649   3.203
 1659SOL    HW2 1361   2.569   1.564   3.101
 1663SOL     OW 1362   1.901   1.077   2.162
 1663SOL    HW1 1363   2.000   1.066   2.153
 1663SOL    HW2 1364   1.861   0.991   2.194
 1664SOL     OW 1365   2.737   1.646   2.199
 1664SOL    HW1 1366   2.660   1.611   2.145
 1664SOL    HW2 1367   2.705   1.717   2.261
 1676SOL     OW 1368   1.889   1.596   3.841
 1676SOL    HW1 1369   1.870   1.500   3.862
 1676SOL    HW2 1370   1.856   1.654   3.916
 1730SOL     OW 1371   2.534   1.616   3.878
 1730SOL    HW1 1372   2.543   1.626   3.779
 1730SOL    HW2 1373   2.494   1.527   3.899
 1742SOL     OW 1374   2.721   1.374   3.740
 1742SOL    HW1 1375   2.675   1.389   3.828
 1742SOL    HW2 1376   2.765   1.459   3.710
 1754SOL     OW 1377   2.087   2.137   0.996
 1754SOL    HW1 1378   2.122   2.120   1.088
 1754SOL    HW2 1379   1.999   2.092   0.984
 1755SOL     OW 1380   1.881   2.230   0.647
 1755SOL    HW1 1381   1.799   2.273   0.686
 1755SOL    HW2 1382   1.853   2.157   0.584
 1756SOL     OW 1383   2.431   3.137   1.165
 1756SOL    HW1 1384   2.338   3.130   1.128
 1756SOL    HW2 1385   2.442   3.226   1.209
 1758SOL     OW 1386   2.997   2.565   0.717
 1758SOL    HW1 1387   3.054   2.643   0.692
 1758SOL    HW2 1388   2.937   2.591   0.793
 1760SOL     OW 1389   2.630   3.006   1.023
 1760SOL    HW1 1390   2.552   3.023   1.083
 1760SOL    HW2 1391   2.664   3.093   0.987
 1761SOL     OW 1392   2.712   2.660   1.823
 1761SOL    HW1 1393   2.708   2.736   1.888
 1761SOL    HW2 1394   2.734   2.696   1.732
 1762SOL     OW 1395   2.547   2.874   0.665
 1762SOL    HW1 1396   2.616   2.858   0.735
 1762SOL    HW2 1397   2.474   2.931   0.703
 1763SOL     OW 1398   2.548   3.023   1.803
 1763SOL    HW1 1399   2.608   3.102   1.817
 1763SOL    HW2 1400   2.462   3.054   1.762
 1764SOL     OW 1401   2.197   3.297   1.061
 1764SOL    HW1 1402   2.119   3.266   1.008
 1764SOL    HW2 1403   2.255   3.355   1.004
 1765SOL     OW 1404   3.322   3.367   1.339
 1765SOL    HW1 1405   3.346   3.461   1.365
 1765SOL    HW2 1406   3.306   3.313   1.421
 1766SOL     OW 1407   2.300   2.254   1.499
 1766SOL    HW1 1408   2.382   2.198   1.508
 1766SOL    HW2 1409   2.219   2.196   1.503
 1769SOL     OW 1410   2.989   3.203   1.690
 1769SOL    HW1 1411   3.036   3.203   1.778
 1769SOL    HW2 1412   2.941   3.116   1.679
 1771SOL     OW 1413   2.102   2.953   0.886
 1771SOL    HW1 1414   2.116   2.869   0.938
 1771SOL    HW2 1415   2.047   3.017   0.941
 1772SOL     OW 1416   2.482   3.648   1.439
 1772SOL    HW1 1417   2.390   3.631   1.474
 1772SOL    HW2 1418   2.510   3.740   1.465
 1774SOL     OW 1419   3.456   1.976   1.480
 1774SOL    HW1 1420   3.438   2.043   1.408
 1774SOL    HW2 1421   3.453   2.022   1.569
 1775SOL     OW 1422   1.984   2.505   0.563
 1775SOL    HW1 1423   1.939   2.417   0.580
 1775SOL    HW2 1424   1.983   2.559   0.647
 1780SOL     OW 1425   1.975   2.599   1.597
 1780SOL    HW1 1426   2.063   2.586   1.642
 1780SOL    HW2 1427   1.962   2.696   1.575
 1782SOL     OW 1428   3.155   3.090   1.423
 1782SOL    HW1 1429   3.192   3.017   1.365
 1782SOL    HW2 1430   3.207   3.095   1.508
 1784SOL     OW 1431   2.059   2.838   1.264
 1784SOL    HW1 1432   2.148   2.793   1.250
 1784SOL    HW2 1433   1.986   2.773   1.245
 1786SOL     OW 1434   3.049   3.654   1.616
 1786SOL    HW1 1435   3.073   3.714   1.540
 1786SOL    HW2 1436   3.056   3.559   1.586
 1787SOL     OW 1437   2.179   2.113   1.801
 1787SOL    HW1 1438   2.250   2.184   1.807
 1787SOL    HW2 1439   2.091   2.152   1.829
 1791SOL     OW 1440   3.143   2.207   0.944
 1791SOL    HW1 1441   3.057   2.157   0.931
 1791SOL    HW2 1442   3.205   2.153   1.000
 1793SOL     OW 1443   2.669   2.467   1.465
 1793SOL    HW1 1444   2.622   2.464   1.554
 1793SOL    HW2 1445   2.618   2.412   1.399
 1794SOL     OW 1446   3.256   2.331   1.674
 1794SOL    HW1 1447   3.236   2.374   1.762
 1794SOL    HW2 1448   3.334   2.269   1.683
 1795SOL     OW 1449   2.835   2.752   1.572
 1795SOL    HW1 1450   2.881   2.668   1.543
 1795SOL    HW2 1451   2.779   2.786   1.497
 1796SOL     OW 1452   2.853   2.272   1.242
 1796SOL    HW1 1453   2.776   2.306   1.296
 1796SOL    HW2 1454   2.819   2.221   1.163
 1798SOL     OW 1455   1.938   2.673   0.789
 1798SOL    HW1 1456   2.037   2.661   0.798
 1798SOL    HW2 1457   1.914   2.768   0.810
 1799SOL     OW 1458   1.992   3.683   1.571
 1799SOL    HW1 1459   1.982   3.668   1.670
 1799SOL    HW2 1460   1.906   3.719   1.535
 1801SOL     OW 1461   3.581   2.447   1.831
 1801SOL    HW1 1462   3.555   2.536   1.795
 1801SOL    HW2 1463   3.579   2.379   1.758
 1803SOL     OW 1464   2.412   2.058   0.885
 1803SOL    HW1 1465   2.407   2.053   0.985
 1803SOL    HW2 1466   2.414   2.154   0.856
 1807SOL     OW 1467   3.089   3.412   1.506
 1807SOL    HW1 1468   3.095   3.335   1.570
 1807SOL    HW2 1469   3.037   3.386   1.426
 1810SOL     OW 1470   2.323   3.128   1.727
 1810SOL    HW1 1471   2.273   3.129   1.641
 1810SOL    HW2 1472   2.260   3.110   1.803
 1812SOL     OW 1473   2.064   2.147   1.498
 1812SOL    HW1 1474   1.984   2.207   1.485
 1812SOL    HW2 1475   2.054   2.098   1.584
 1816SOL     OW 1476   2.111   3.647   1.241
 1816SOL    HW1 1477   2.168   3.582   1.291
 1816SOL    HW2 1478   2.095   3.614   1.148
 1819SOL     OW 1479   3.409   2.084   1.729
 1819SOL    HW1 1480   3.404   2.121   1.821
 1819SOL    HW2 1481   3.337   2.015   1.717
 1820SOL     OW 1482   2.643   2.126   1.749
 1820SOL    HW1 1483   2.710   2.065   1.792
 1820SOL    HW2 1484   2.570   2.145   1.814
 1821SOL     OW 1485   2.750   3.376   1.195
 1821SOL    HW1 1486   2.727   3.351   1.101
 1821SOL    HW2 1487   2.811   3.307   1.234
 1822SOL     OW 1488   3.213   2.452   1.433
 1822SOL    HW1 1489   3.241   2.409   1.518
 1822SOL    HW2 1490   3.238   2.548   1.434
 1823SOL     OW 1491   2.665   3.264   0.924
 1823SOL    HW1 1492   2.755   3.278   0.882
 1823SOL    HW2 1493   2.594   3.266   0.853
 1824SOL     OW 1494   2.784   2.365   0.899
 1824SOL    HW1 1495   2.759   2.356   0.803
 1824SOL    HW2 1496   2.832   2.283   0.930
 1825SOL     OW 1497   2.401   1.926   0.512
 1825SOL    HW1 1498   2.320   1.927   0.570
 1825SOL    HW2 1499   2.404   2.009   0.457
 1828SOL     OW 1500   2.938   2.545   1.464
 1828SOL    HW1 1501   2.858   2.484   1.467
 1828SOL    HW2 1502   3.019   2.492   1.440
 1830SOL     OW 1503   2.321   3.014   0.741
 1830SOL    HW1 1504   2.250   2.987   0.806
 1830SOL    HW2 1505   2.295   2.986   0.648
 1833SOL     OW 1506   1.940   2.418   1.386
 1833SOL    HW1 1507   2.032   2.417   1.345
 1833SOL    HW2 1508   1.934   2.492   1.453
 1834SOL     OW 1509   2.423   2.084   1.147
 1834SOL    HW1 1510   2.461   2.000   1.184
 1834SOL    HW2 1511   2.335   2.103   1.191
 1835SOL     OW 1512   2.728   2.316   0.642
 1835SOL    HW1 1513   2.696   2.388   0.580
 1835SOL    HW2 1514   2.752   2.235   0.589
 1836SOL     OW 1515   2.879   1.901   0.753
 1836SOL    HW1 1516   2.807   1.906   0.684
 1836SOL    HW2 1517   2.855   1.832   0.822
 1838SOL     OW 1518   3.328   2.452   0.992
 1838SOL    HW1 1519   3.298   2.357   0.999
 1838SOL    HW2 1520   3.401   2.468   1.058
 1844SOL     OW 1521   3.616   3.085   1.588
 1844SOL    HW1 1522   3.707   3.046   1.575
 1844SOL    HW2 1523   3.624   3.181   1.612
 1845SOL     OW 1524   2.926   3.209   1.340
 1845SOL    HW1 1525   2.846   3.186   1.395
 1845SOL    HW2 1526   3.009   3.183   1.389
 1847SOL     OW 1527   2.973   3.057   1.100
 1847SOL    HW1 1528   2.933   3.101   1.181
 1847SOL    HW2 1529   2.932   3.094   1.017
 1849SOL     OW 1530   2.777   1.951   1.402
 1849SOL    HW1 1531   2.802   1.931   1.307
 1849SOL    HW2 1532   2.849   2.007   1.444
 1850SOL     OW 1533   2.842   2.978   1.719
 1850SOL    HW1 1534   2.743   2.984   1.729
 1850SOL    HW2 1535   2.865   2.898   1.663
 1852SOL     OW 1536   2.272   2.675   1.251
 1852SOL    HW1 1537   2.358   2.687   1.301
 1852SOL    HW2 1538   2.230   2.588   1.278
 1853SOL     OW 1539   3.136   2.248   1.262
 1853SOL    HW1 1540   3.157   2.322   1.326
 1853SOL    HW2 1541   3.047   2.265   1.219
 1854SOL     OW 1542   1.926   3.426   1.331
 1854SOL    HW1 1543   1.880   3.508   1.297
 1854SOL    HW2 1544   2.024   3.445   1.340
 1856SOL     OW 1545   2.428   2.399   0.865
 1856SOL    HW1 1546   2.440   2.465   0.791
 1856SOL    HW2 1547   2.474   2.433   0.948
 1858SOL     OW 1548   3.134   3.307   1.142
 1858SOL    HW1 1549   3.181   3.320   1.229
 1858SOL    HW2 1550   3.068   3.233   1.151
 1860SOL     OW 1551   2.216   3.372   1.329
 1860SOL    HW1 1552   2.195   3.328   1.242
 1860SOL    HW2 1553   2.313   3.398   1.332
 1861SOL     OW 1554   2.264   2.613   1.598
 1861SOL    HW1 1555   2.332   2.668   1.551
 1861SOL    HW2 1556   2.304   2.525   1.625
 1862SOL     OW 1557   3.449   2.641   1.670
 1862SOL    HW1 1558   3.357   2.679   1.665
 1862SOL    HW2 1559   3.509   2.688   1.605
 1863SOL     OW 1560   2.875   1.967   1.770
 1863SOL    HW1 1561   2.881   2.052   1.718
 1863SOL    HW2 1562   2.907   1.891   1.713
 1864SOL     OW 1563   2.366   1.912   1.740
 1864SOL    HW1 1564   2.324   1.855   1.670
 1864SOL    HW2 1565   2.300   1.981   1.772
 1865SOL     OW 1566   2.435   2.732   1.029
 1865SOL    HW1 1567   2.479   2.821   1.020
 1865SOL    HW2 1568   2.372   2.732   1.106
 1866SOL     OW 1569   3.222   2.724   1.045
 1866SOL    HW1 1570   3.147   2.724   0.979
 1866SOL    HW2 1571   3.259   2.632   1.054
 1868SOL     OW 1572   2.169   2.075   1.231
 1868SOL    HW1 1573   2.146   2.112   1.321
 1868SOL    HW2 1574   2.139   1.980   1.225
 1869SOL     OW 1575   1.899   3.172   1.282
 1869SOL    HW1 1576   1.952   3.123   1.350
 1869SOL    HW2 1577   1.921   3.270   1.287
 1870SOL     OW 1578   2.594   2.496   1.064
 1870SOL    HW1 1579   2.653   2.470   0.988
 1870SOL    HW2 1580   2.566   2.592   1.053
 1871SOL     OW 1581   3.590   2.797   1.854
 1871SOL    HW1 1582   3.544   2.790   1.765
 1871SOL    HW2 1583   3.528   2.841   1.920
 1872SOL     OW 1584   2.169   1.925   0.618
 1872SOL    HW1 1585   2.158   2.019   0.651
 1872SOL    HW2 1586   2.164   1.862   0.695
 1874SOL     OW 1587   2.885   2.628   0.966
 1874SOL    HW1 1588   2.900   2.649   1.062
 1874SOL    HW2 1589   2.855   2.533   0.957
 1875SOL     OW 1590   2.842   3.435   1.700
 1875SOL    HW1 1591   2.822   3.479   1.612
 1875SOL    HW2 1592   2.881   3.344   1.684
 1877SOL     OW 1593   2.212   2.760   1.804
 1877SOL    HW1 1594   2.288   2.804   1.852
 1877SOL    HW2 1595   2.247   2.713   1.722
 1881SOL     OW 1596   2.181   2.672   0.949
 1881SOL    HW1 1597   2.274   2.708   0.954
 1881SOL    HW2 1598   2.175   2.587   1.001
 1882SOL     OW 1599   2.201   2.371   1.006
 1882SOL    HW1 1600   2.149   2.288   0.989
 1882SOL    HW2 1601   2.278   2.376   0.942
 1883SOL     OW 1602   3.000   2.242   1.678
 1883SOL    HW1 1603   2.955   2.305   1.742
 1883SOL    HW2 1604   3.093   2.273   1.661
 1884SOL     OW 1605   3.022   2.069   1.477
 1884SOL    HW1 1606   3.022   2.133   1.554
 1884SOL    HW2 1607   3.050   2.117   1.394
 1887SOL     OW 1608   2.366   3.430   0.910
 1887SOL    HW1 1609   2.432   3.504   0.919
 1887SOL    HW2 1610   2.410   3.351   0.868
 1888SOL     OW 1611   2.864   2.658   1.238
 1888SOL    HW1 1612   2.905   2.626   1.324
 1888SOL    HW2 1613   2.768   2.631   1.235
 1889SOL     OW 1614   1.902   2.406   1.114
 1889SOL    HW1 1615   1.987   2.373   1.073
 1889SOL    HW2 1616   1.915   2.421   1.212
 1890SOL     OW 1617   2.051   2.382   1.722
 1890SOL    HW1 1618   2.110   2.342   1.652
 1890SOL    HW2 1619   1.993   2.453   1.681
 1891SOL     OW 1620   3.231   2.812   1.660
 1891SOL    HW1 1621   3.270   2.901   1.680
 1891SOL    HW2 1622   3.241   2.792   1.563
 1893SOL     OW 1623   3.519   2.466   1.206
 1893SOL    HW1 1624   3.481   2.397   1.268
 1893SOL    HW2 1625   3.601   2.430   1.162
 1894SOL     OW 1626   2.114   3.426   1.744
 1894SOL    HW1 1627   2.084   3.483   1.820
 1894SOL    HW2 1628   2.107   3.329   1.770
 1895SOL     OW 1629   2.533   2.326   1.269
 1895SOL    HW1 1630   2.499   2.237   1.239
 1895SOL    HW2 1631   2.559   2.380   1.189
 1896SOL     OW 1632   2.792   3.540   1.465
 1896SOL    HW1 1633   2.768   3.522   1.370
 1896SOL    HW2 1634   2.822   3.634   1.475
 1898SOL     OW 1635   2.021   2.999   1.466
 1898SOL    HW1 1636   2.043   2.938   1.542
 1898SOL    HW2 1637   2.031   2.950   1.380
 1899SOL     OW 1638   3.209   2.921   1.234
 1899SOL    HW1 1639   3.233   2.858   1.160
 1899SOL    HW2 1640   3.119   2.961   1.216
 1903SOL     OW 1641   1.945   3.120   1.022
 1903SOL    HW1 1642   1.940   3.119   1.122
 1903SOL    HW2 1643   1.862   3.079   0.984
 1904SOL     OW 1644   2.550   3.524   1.716
 1904SOL    HW1 1645   2.494   3.605   1.725
 1904SOL    HW2 1646   2.602   3.528   1.630
 1908SOL     OW 1647   1.992   3.656   1.851
 1908SOL    HW1 1648   1.951   3.582   1.904
 1908SOL    HW2 1649   2.056   3.707   1.909
 1910SOL     OW 1650   2.692   3.135   1.422
 1910SOL    HW1 1651   2.687   3.168   1.517
 1910SOL    HW2 1652   2.606   3.154   1.376
 1914SOL     OW 1653   2.125   2.188   0.720
 1914SOL    HW1 1654   2.046   2.239   0.686
 1914SOL    HW2 1655   2.116   2.173   0.818
 1916SOL     OW 1656   2.684   2.864   1.372
 1916SOL    HW1 1657   2.724   2.863   1.280
 1916SOL    HW2 1658   2.694   2.956   1.412
 1919SOL     OW 1659   2.234   3.150   1.490
 1919SOL    HW1 1660   2.221   3.243   1.456
 1919SOL    HW2 1661   2.150   3.098   1.477
 1920SOL     OW 1662   3.476   3.154   1.289
 1920SOL    HW1 1663   3.536   3.157   1.369
 1920SOL    HW2 1664   3.401   3.218   1.302
 1922SOL     OW 1665   2.876   2.098   0.971
 1922SOL    HW1 1666   2.868   2.062   0.878
 1922SOL    HW2 1667   2.874   2.022   1.036
 1924SOL     OW 1668   3.571   2.247   1.381
 1924SOL    HW1 1669   3.644   2.316   1.385
 1924SOL    HW2 1670   3.599   2.172   1.322
 1926SOL     OW 1671   1.967   2.875   1.726
 1926SOL    HW1 1672   1.890   2.842   1.780
 1926SOL    HW2 1673   2.052   2.845   1.768
 1927SOL     OW 1674   2.534   2.065   1.489
 1927SOL    HW1 1675   2.624   2.049   1.449
 1927SOL    HW2 1676   2.542   2.070   1.588
 1929SOL     OW 1677   3.302   2.718   1.398
 1929SOL    HW1 1678   3.245   2.770   1.335
 1929SOL    HW2 1679   3.398   2.730   1.374
 1931SOL     OW 1680   2.475   2.704   1.431
 1931SOL    HW1 1681   2.531   2.785   1.414
 1931SOL    HW2 1682   2.534   2.624   1.434
 1933SOL     OW 1683   2.578   2.427   1.708
 1933SOL    HW1 1684   2.597   2.492   1.782
 1933SOL    HW2 1685   2.638   2.347   1.717
 1934SOL     OW 1686   3.312   3.082   1.633
 1934SOL    HW1 1687   3.303   3.072   1.732
 1934SOL    HW2 1688   3.408   3.075   1.607
 1935SOL     OW 1689   2.252   3.603   1.560
 1935SOL    HW1 1690   2.161   3.644   1.558
 1935SOL    HW2 1691   2.245   3.509   1.592
 1936SOL     OW 1692   3.536   2.745   1.254
 1936SOL    HW1 1693   3.509   2.656   1.217
 1936SOL    HW2 1694   3.537   2.813   1.181
 1938SOL     OW 1695   2.456   2.607   0.652
 1938SOL    HW1 1696   2.506   2.692   0.633
 1938SOL    HW2 1697   2.368   2.609   0.604
 1939SOL     OW 1698   3.639   2.204   1.642
 1939SOL    HW1 1699   3.622   2.235   1.548
 1939SOL    HW2 1700   3.555   2.167   1.680
 1940SOL     OW 1701   3.592   2.796   1.517
 1940SOL    HW1 1702   3.630   2.887   1.532
 1940SOL    HW2 1703   3.584   2.779   1.418
 1943SOL     OW 1704   2.721   2.818   0.861
 1943SOL    HW1 1705   2.775   2.749   0.909
 1943SOL    HW2 1706   2.689   2.887   0.927
 1946SOL     OW 1707   2.083   3.176   1.844
 1946SOL    HW1 1708   2.018   3.103   1.823
 1946SOL    HW2 1709   2.087   3.190   1.942
 1948SOL     OW 1710   2.534   3.253   1.624
 1948SOL    HW1 1711   2.456   3.203   1.662
 1948SOL    HW2 1712   2.531   3.348   1.655
 1949SOL     OW 1713   3.686   2.054   1.227
 1949SOL    HW1 1714   3.682   1.964   1.271
 1949SOL    HW2 1715   3.689   2.043   1.128
 1950SOL     OW 1716   2.290   2.286   0.520
 1950SOL    HW1 1717   2.320   2.214   0.458
 1950SOL    HW2 1718   2.251   2.246   0.603
 1952SOL     OW 1719   2.179   2.409   1.280
 1952SOL    HW1 1720   2.217   2.350   1.352
 1952SOL    HW2 1721   2.219   2.383   1.192
 1954SOL     OW 1722   3.286   2.076   1.112
 1954SOL    HW1 1723   3.338   2.011   1.167
 1954SOL    HW2 1724   3.237   2.139   1.173
 1955SOL     OW 1725   2.863   1.896   1.154
 1955SOL    HW1 1726   2.800   1.824   1.123
 1955SOL    HW2 1727   2.956   1.860   1.154
 1957SOL     OW 1728   2.480   3.429   1.284
 1957SOL    HW1 1729   2.475   3.511   1.341
 1957SOL    HW2 1730   2.569   3.426   1.239
 1963SOL     OW 1731   2.092   2.490   1.975
 1963SOL    HW1 1732   1.999   2.488   2.012
 1963SOL    HW2 1733   2.093   2.451   1.883
 1964SOL     OW 1734   2.087   2.137   2.858
 1964SOL    HW1 1735   2.122   2.120   2.950
 1964SOL    HW2 1736   1.999   2.092   2.846
 1965SOL     OW 1737   1.881   2.230   2.509
 1965SOL    HW1 1738   1.799   2.273   2.548
 1965SOL    HW2 1739   1.853   2.157   2.446
 1966SOL     OW 1740   2.431   3.137   3.027
 1966SOL    HW1 1741   2.338   3.130   2.990
 1966SOL    HW2 1742   2.442   3.226   3.071
 1967SOL     OW 1743   3.417   3.373   2.565
 1967SOL    HW1 1744   3.360   3.357   2.646
 1967SOL    HW2 1745   3.358   3.383   2.485
 1968SOL     OW 1746   2.997   2.565   2.579
 1968SOL    HW1 1747   3.054   2.643   2.554
 1968SOL    HW2 1748   2.937   2.591   2.655
 1969SOL     OW 1749   3.617   2.469   2.093
 1969SOL    HW1 1750   3.605   2.456   1.994
 1969SOL    HW2 1751   3.587   2.388   2.142
 1970SOL     OW 1752   2.630   3.006   2.885
 1970SOL    HW1 1753   2.552   3.023   2.945
 1970SOL    HW2 1754   2.664   3.093   2.849
 1971SOL     OW 1755   2.712   2.660   3.685
 1971SOL    HW1 1756   2.708   2.736   3.750
 1971SOL    HW2 1757   2.734   2.696   3.594
 1972SOL     OW 1758   2.547   2.874   2.527
 1972SOL    HW1 1759   2.616   2.858   2.597
 1972SOL    HW2 1760   2.474   2.931   2.565
 1973SOL     OW 1761   2.548   3.023   3.665
 1973SOL    HW1 1762   2.608   3.102   3.679
 1973SOL    HW2 1763   2.462   3.054   3.624
 1974SOL     OW 1764   2.197   3.297   2.923
 1974SOL    HW1 1765   2.119   3.266   2.870
 1974SOL    HW2 1766   2.255   3.355   2.866
 1976SOL     OW 1767   2.300   2.254   3.361
 1976SOL    HW1 1768   2.382   2.198   3.370
 1976SOL    HW2 1769   2.219   2.196   3.365
 1977SOL     OW 1770   3.465   2.309   2.599
 1977SOL    HW1 1771   3.391   2.355   2.549
 1977SOL    HW2 1772   3.516   2.377   2.652
 1978SOL     OW 1773   2.093   3.575   2.345
 1978SOL    HW1 1774   2.127   3.652   2.399
 1978SOL    HW2 1775   2.137   3.575   2.255
 1979SOL     OW 1776   2.989   3.203   3.552
 1979SOL    HW1 1777   3.036   3.203   3.640
 1979SOL    HW2 1778   2.941   3.116   3.541
 1980SOL     OW 1779   2.092   3.296   2.400
 1980SOL    HW1 1780   2.066   3.392   2.400
 1980SOL    HW2 1781   2.021   3.242   2.445
 1981SOL     OW 1782   2.102   2.953   2.748
 1981SOL    HW1 1783   2.116   2.869   2.800
 1981SOL    HW2 1784   2.047   3.017   2.803
 1982SOL     OW 1785   2.482   3.648   3.301
 1982SOL    HW1 1786   2.390   3.631   3.336
 1982SOL    HW2 1787   2.510   3.740   3.327
 1983SOL     OW 1788   2.468   2.826   1.985
 1983SOL    HW1 1789   2.475   2.910   1.931
 1983SOL    HW2 1790   2.514   2.839   2.073
 1984SOL     OW 1791   3.456   1.976   3.342
 1984SOL    HW1 1792   3.438   2.043   3.270
 1984SOL    HW2 1793   3.453   2.022   3.431
 1985SOL     OW 1794   1.984   2.505   2.425
 1985SOL    HW1 1795   1.939   2.417   2.442
 1985SOL    HW2 1796   1.983   2.559   2.509
 1987SOL     OW 1797   1.889   3.458   1.979
 1987SOL    HW1 1798   1.870   3.362   2.000
 1987SOL    HW2 1799   1.856   3.516   2.054
 1988SOL     OW 1800   3.551   2.784   2.474
 1988SOL    HW1 1801   3.646   2.755   2.482
 1988SOL    HW2 1802   3.543   2.849   2.399
 1989SOL     OW 1803   3.503   2.970   2.294
 1989SOL    HW1 1804   3.589   2.972   2.242
 1989SOL    HW2 1805   3.517   3.017   2.382
 1990SOL     OW 1806   1.975   2.599   3.459
 1990SOL    HW1 1807   2.063   2.586   3.504
 1990SOL    HW2 1808   1.962   2.696   3.437
 1991SOL     OW 1809   2.475   3.227   2.588
 1991SOL    HW1 1810   2.426   3.140   2.597
 1991SOL    HW2 1811   2.452   3.270   2.501
 1992SOL     OW 1812   3.155   3.090   3.285
 1992SOL    HW1 1813   3.192   3.017   3.227
 1992SOL    HW2 1814   3.207   3.095   3.370
 1993SOL     OW 1815   2.671   1.866   2.364
 1993SOL    HW1 1816   2.711   1.957   2.355
 1993SOL    HW2 1817   2.571   1.874   2.370
 1994SOL     OW 1818   2.059   2.838   3.126
 1994SOL    HW1 1819   2.148   2.793   3.112
 1994SOL    HW2 1820   1.986   2.773   3.107
 1995SOL     OW 1821   3.387   2.861   2.052
 1995SOL    HW1 1822   3.324   2.785   2.065
 1995SOL    HW2 1823   3.435   2.879   2.138
 1997SOL     OW 1824   2.179   2.113   3.663
 1997SOL    HW1 1825   2.250   2.184   3.669
 1997SOL    HW2 1826   2.091   2.152   3.691
 1998SOL     OW 1827   3.328   3.279   2.815
 1998SOL    HW1 1828   3.269   3.285   2.895
 1998SOL    HW2 1829   3.313   3.191   2.769
 2000SOL     OW 1830   2.460   2.591   2.132
 2000SOL    HW1 1831   2.484   2.660   2.064
 2000SOL    HW2 1832   2.382   2.624   2.186
 2001SOL     OW 1833   3.143   2.207   2.806
 2001SOL    HW1 1834   3.057   2.157   2.793
 2001SOL    HW2 1835   3.205   2.153   2.862
 2002SOL     OW 1836   3.438   3.524   2.169
 2002SOL    HW1 1837   3.527   3.570   2.172
 2002SOL    HW2 1838   3.417   3.500   2.074
 2003SOL     OW 1839   2.669   2.467   3.327
 2003SOL    HW1 1840   2.622   2.464   3.416
 2003SOL    HW2 1841   2.618   2.412   3.261
 2004SOL     OW 1842   3.256   2.331   3.536
 2004SOL    HW1 1843   3.236   2.374   3.624
 2004SOL    HW2 1844   3.334   2.269   3.545
 2005SOL     OW 1845   2.835   2.752   3.434
 2005SOL    HW1 1846   2.881   2.668   3.405
 2005SOL    HW2 1847   2.779   2.786   3.359
 2006SOL     OW 1848   2.853   2.272   3.104
 2006SOL    HW1 1849   2.776   2.306   3.158
 2006SOL    HW2 1850   2.819   2.221   3.025
 2007SOL     OW 1851   2.903   2.563   2.291
 2007SOL    HW1 1852   2.929   2.559   2.387
 2007SOL    HW2 1853   2.818   2.512   2.277
 2008SOL     OW 1854   1.938   2.673   2.651
 2008SOL    HW1 1855   2.037   2.661   2.660
 2008SOL    HW2 1856   1.914   2.768   2.672
 2010SOL     OW 1857   2.727   2.210   2.057
 2010SOL    HW1 1858   2.786   2.273   2.008
 2010SOL    HW2 1859   2.746   2.116   2.028
 2012SOL     OW 1860   3.224   3.006   2.407
 2012SOL    HW1 1861   3.307   2.977   2.359
 2012SOL    HW2 1862   3.175   3.073   2.351
 2013SOL     OW 1863   2.412   2.058   2.747
 2013SOL    HW1 1864   2.407   2.053   2.847
 2013SOL    HW2 1865   2.414   2.154   2.718
 2014SOL     OW 1866   2.870   3.318   2.339
 2014SOL    HW1 1867   2.824   3.390   2.287
 2014SOL    HW2 1868   2.866   3.338   2.437
 2015SOL     OW 1869   2.213   3.663   2.715
 2015SOL    HW1 1870   2.263   3.577   2.721
 2015SOL    HW2 1871   2.278   3.740   2.712
 2016SOL     OW 1872   3.657   2.928   2.735
 2016SOL    HW1 1873   3.595   2.913   2.659
 2016SOL    HW2 1874   3.605   2.939   2.820
 2018SOL     OW 1875   2.183   2.805   2.104
 2018SOL    HW1 1876   2.265   2.844   2.062
 2018SOL    HW2 1877   2.156   2.723   2.055
 2019SOL     OW 1878   3.320   2.597   2.590
 2019SOL    HW1 1879   3.315   2.532   2.665
 2019SOL    HW2 1880   3.400   2.656   2.603
 2020SOL     OW 1881   2.323   3.128   3.589
 2020SOL    HW1 1882   2.273   3.129   3.503
 2020SOL    HW2 1883   2.260   3.110   3.665
 2021SOL     OW 1884   2.973   3.638   2.099
 2021SOL    HW1 1885   2.913   3.576   2.149
 2021SOL    HW2 1886   3.004   3.594   2.014
 2022SOL     OW 1887   2.064   2.147   3.360
 2022SOL    HW1 1888   1.984   2.207   3.347
 2022SOL    HW2 1889   2.054   2.098   3.446
 2023SOL     OW 1890   3.494   3.239   1.943
 2023SOL    HW1 1891   3.462   3.333   1.933
 2023SOL    HW2 1892   3.418   3.176   1.931
 2024SOL     OW 1893   2.326   3.605   2.185
 2024SOL    HW1 1894   2.359   3.644   2.271
 2024SOL    HW2 1895   2.402   3.598   2.120
 2025SOL     OW 1896   3.262   1.969   2.288
 2025SOL    HW1 1897   3.238   1.932   2.198
 2025SOL    HW2 1898   3.361   1.985   2.292
 2026SOL     OW 1899   2.111   3.647   3.103
 2026SOL    HW1 1900   2.168   3.582   3.153
 2026SOL    HW2 1901   2.095   3.614   3.010
 2027SOL     OW 1902   2.802   3.560   2.766
 2027SOL    HW1 1903   2.882   3.503   2.787
 2027SOL    HW2 1904   2.753   3.520   2.689
 2028SOL     OW 1905   3.409   2.084   3.591
 2028SOL    HW1 1906   3.404   2.121   3.683
 2028SOL    HW2 1907   3.337   2.015   3.579
 2029SOL     OW 1908   2.476   1.984   1.979
 2029SOL    HW1 1909   2.574   1.962   1.986
 2029SOL    HW2 1910   2.445   1.967   1.886
 2030SOL     OW 1911   2.643   2.126   3.611
 2030SOL    HW1 1912   2.710   2.065   3.654
 2030SOL    HW2 1913   2.570   2.145   3.676
 2031SOL     OW 1914   2.750   3.376   3.057
 2031SOL    HW1 1915   2.727   3.351   2.963
 2031SOL    HW2 1916   2.811   3.307   3.096
 2032SOL     OW 1917   3.213   2.452   3.295
 2032SOL    HW1 1918   3.241   2.409   3.380
 2032SOL    HW2 1919   3.238   2.548   3.296
 2033SOL     OW 1920   2.665   3.264   2.786
 2033SOL    HW1 1921   2.755   3.278   2.744
 2033SOL    HW2 1922   2.594   3.266   2.715
 2034SOL     OW 1923   2.784   2.365   2.761
 2034SOL    HW1 1924   2.759   2.356   2.665
 2034SOL    HW2 1925   2.832   2.283   2.792
 2035SOL     OW 1926   3.296   3.050   1.903
 2035SOL    HW1 1927   3.328   2.974   1.960
 2035SOL    HW2 1928   3.204   3.077   1.933
 2036SOL     OW 1929   2.159   1.897   2.033
 2036SOL    HW1 1930   2.208   1.981   2.012
 2036SOL    HW2 1931   2.221   1.832   2.078
 2037SOL     OW 1932   2.797   2.098   2.342
 2037SOL    HW1 1933   2.749   2.139   2.264
 2037SOL    HW2 1934   2.896   2.096   2.323
 2038SOL     OW 1935   2.938   2.545   3.326
 2038SOL    HW1 1936   2.858   2.484   3.329
 2038SOL    HW2 1937   3.019   2.492   3.302
 2039SOL     OW 1938   3.089   3.432   2.655
 2039SOL    HW1 1939   3.110   3.506   2.590
 2039SOL    HW2 1940   3.157   3.432   2.728
 2040SOL     OW 1941   2.321   3.014   2.603
 2040SOL    HW1 1942   2.250   2.987   2.668
 2040SOL    HW2 1943   2.295   2.986   2.510
 2041SOL     OW 1944   3.133   3.659   2.453
 2041SOL    HW1 1945   3.177   3.723   2.389
 2041SOL    HW2 1946   3.083   3.711   2.523
 2042SOL     OW 1947   2.894   2.411   1.878
 2042SOL    HW1 1948   2.853   2.493   1.839
 2042SOL    HW2 1949   2.958   2.437   1.951
 2043SOL     OW 1950   1.940   2.418   3.248
 2043SOL    HW1 1951   2.032   2.417   3.207
 2043SOL    HW2 1952   1.934   2.492   3.315
 2044SOL     OW 1953   2.423   2.084   3.009
 2044SOL    HW1 1954   2.461   2.000   3.046
 2044SOL    HW2 1955   2.335   2.103   3.053
 2045SOL     OW 1956   2.728   2.316   2.504
 2045SOL    HW1 1957   2.696   2.388   2.442
 2045SOL    HW2 1958   2.752   2.235   2.451
 2046SOL     OW 1959   2.879   1.901   2.615
 2046SOL    HW1 1960   2.807   1.906   2.546
 2046SOL    HW2 1961   2.855   1.832   2.684
 2047SOL     OW 1962   3.291   3.035   2.729
 2047SOL    HW1 1963   3.236   2.951   2.722
 2047SOL    HW2 1964   3.317   3.064   2.637
 2048SOL     OW 1965   3.328   2.452   2.854
 2048SOL    HW1 1966   3.298   2.357   2.861
 2048SOL    HW2 1967   3.401   2.468   2.920
 2049SOL     OW 1968   3.719   2.695   2.239
 2049SOL    HW1 1969   3.761   2.631   2.303
 2049SOL    HW2 1970   3.681   2.644   2.161
 2050SOL     OW 1971   2.350   3.247   2.036
 2050SOL    HW1 1972   2.263   3.232   2.083
 2050SOL    HW2 1973   2.333   3.273   1.941
 2051SOL     OW 1974   3.526   3.142   2.519
 2051SOL    HW1 1975   3.625   3.150   2.533
 2051SOL    HW2 1976   3.481   3.226   2.550
 2052SOL     OW 1977   3.252   2.437   1.940
 2052SOL    HW1 1978   3.198   2.416   2.021
 2052SOL    HW2 1979   3.343   2.396   1.949
 2054SOL     OW 1980   2.926   3.209   3.202
 2054SOL    HW1 1981   2.846   3.186   3.257
 2054SOL    HW2 1982   3.009   3.183   3.251
 2056SOL     OW 1983   2.973   3.057   2.962
 2056SOL    HW1 1984   2.933   3.101   3.043
 2056SOL    HW2 1985   2.932   3.094   2.879
 2057SOL     OW 1986   3.500   2.961   2.941
 2057SOL    HW1 1987   3.505   3.042   3.000
 2057SOL    HW2 1988   3.414   2.963   2.890
 2058SOL     OW 1989   2.777   1.951   3.264
 2058SOL    HW1 1990   2.802   1.931   3.169
 2058SOL    HW2 1991   2.849   2.007   3.306
 2059SOL     OW 1992   2.842   2.978   3.581
 2059SOL    HW1 1993   2.743   2.984   3.591
 2059SOL    HW2 1994   2.865   2.898   3.525
 2060SOL     OW 1995   2.567   2.912   2.230
 2060SOL    HW1 1996   2.553   2.919   2.329
 2060SOL    HW2 1997   2.651   2.861   2.212
 2061SOL     OW 1998   2.272   2.675   3.113
 2061SOL    HW1 1999   2.358   2.687   3.163
 2061SOL    HW2 2000   2.230   2.588   3.140
 2062SOL     OW 2001   3.136   2.248   3.124
 2062SOL    HW1 2002   3.157   2.322   3.188
 2062SOL    HW2 2003   3.047   2.265   3.081
 2063SOL     OW 2004   1.926   3.426   3.193
 2063SOL    HW1 2005   1.880   3.508   3.159
 2063SOL    HW2 2006   2.024   3.445   3.202
 2064SOL     OW 2007   2.229   2.962   2.363
 2064SOL    HW1 2008   2.222   3.045   2.307
 2064SOL    HW2 2009   2.233   2.882   2.303
 2065SOL     OW 2010   2.428   2.399   2.727
 2065SOL    HW1 2011   2.440   2.465   2.653
 2065SOL    HW2 2012   2.474   2.433   2.810
 2066SOL     OW 2013   3.114   3.210   2.250
 2066SOL    HW1 2014   3.164   3.287   2.290
 2066SOL    HW2 2015   3.019   3.212   2.282
 2067SOL     OW 2016   3.134   3.307   3.004
 2067SOL    HW1 2017   3.181   3.320   3.091
 2067SOL    HW2 2018   3.068   3.233   3.013
 2068SOL     OW 2019   3.444   2.501   2.334
 2068SOL    HW1 2020   3.413   2.562   2.407
 2068SOL    HW2 2021   3.494   2.553   2.265
 2069SOL     OW 2022   2.216   3.372   3.191
 2069SOL    HW1 2023   2.195   3.328   3.104
 2069SOL    HW2 2024   2.313   3.398   3.194
 2070SOL     OW 2025   2.264   2.613   3.460
 2070SOL    HW1 2026   2.332   2.668   3.413
 2070SOL    HW2 2027   2.304   2.525   3.487
 2071SOL     OW 2028   3.449   2.641   3.532
 2071SOL    HW1 2029   3.357   2.679   3.527
 2071SOL    HW2 2030   3.509   2.688   3.467
 2072SOL     OW 2031   2.875   1.967   3.632
 2072SOL    HW1 2032   2.881   2.052   3.580
 2072SOL    HW2 2033   2.907   1.891   3.575
 2073SOL     OW 2034   2.366   1.912   3.602
 2073SOL    HW1 2035   2.324   1.855   3.532
 2073SOL    HW2 2036   2.300   1.981   3.634
 2074SOL     OW 2037   2.435   2.732   2.891
 2074SOL    HW1 2038   2.479   2.821   2.882
 2074SOL    HW2 2039   2.372   2.732   2.968
 2075SOL     OW 2040   3.222   2.724   2.907
 2075SOL    HW1 2041   3.147   2.724   2.841
 2075SOL    HW2 2042   3.259   2.632   2.916
 2076SOL     OW 2043   3.071   2.387   2.137
 2076SOL    HW1 2044   3.084   2.303   2.191
 2076SOL    HW2 2045   3.042   2.461   2.197
 2077SOL     OW 2046   2.169   2.075   3.093
 2077SOL    HW1 2047   2.146   2.112   3.183
 2077SOL    HW2 2048   2.139   1.980   3.087
 2078SOL     OW 2049   1.899   3.172   3.144
 2078SOL    HW1 2050   1.952   3.123   3.212
 2078SOL    HW2 2051   1.921   3.270   3.149
 2079SOL     OW 2052   2.594   2.496   2.926
 2079SOL    HW1 2053   2.653   2.470   2.850
 2079SOL    HW2 2054   2.566   2.592   2.915
 2081SOL     OW 2055   2.169   1.925   2.480
 2081SOL    HW1 2056   2.158   2.019   2.513
 2081SOL    HW2 2057   2.164   1.862   2.557
 2082SOL     OW 2058   3.484   2.229   2.236
 2082SOL    HW1 2059   3.486   2.153   2.300
 2082SOL    HW2 2060   3.436   2.306   2.276
 2083SOL     OW 2061   2.885   2.628   2.828
 2083SOL    HW1 2062   2.900   2.649   2.924
 2083SOL    HW2 2063   2.855   2.533   2.819
 2086SOL     OW 2064   2.212   2.760   3.666
 2086SOL    HW1 2065   2.288   2.804   3.714
 2086SOL    HW2 2066   2.247   2.713   3.584
 2087SOL     OW 2067   3.402   2.136   1.987
 2087SOL    HW1 2068   3.341   2.061   2.010
 2087SOL    HW2 2069   3.424   2.188   2.070
 2088SOL     OW 2070   3.165   2.700   1.904
 2088SOL    HW1 2071   3.199   2.607   1.919
 2088SOL    HW2 2072   3.183   2.727   1.809
 2089SOL     OW 2073   2.930   3.195   2.711
 2089SOL    HW1 2074   2.937   3.111   2.656
 2089SOL    HW2 2075   2.992   3.264   2.675
 2090SOL     OW 2076   2.181   2.672   2.811
 2090SOL    HW1 2077   2.274   2.708   2.816
 2090SOL    HW2 2078   2.175   2.587   2.863
 2091SOL     OW 2079   2.201   2.371   2.868
 2091SOL    HW1 2080   2.149   2.288   2.851
 2091SOL    HW2 2081   2.278   2.376   2.804
 2092SOL     OW 2082   3.000   2.242   3.540
 2092SOL    HW1 2083   2.955   2.305   3.604
 2092SOL    HW2 2084   3.093   2.273   3.523
 2093SOL     OW 2085   3.022   2.069   3.339
 2093SOL    HW1 2086   3.022   2.133   3.416
 2093SOL    HW2 2087   3.050   2.117   3.256
 2094SOL     OW 2088   1.870   3.188   2.062
 2094SOL    HW1 2089   1.777   3.209   2.031
 2094SOL    HW2 2090   1.880   3.089   2.075
 2095SOL     OW 2091   1.950   3.663   2.789
 2095SOL    HW1 2092   1.908   3.577   2.762
 2095SOL    HW2 2093   2.044   3.666   2.755
 2096SOL     OW 2094   2.366   3.430   2.772
 2096SOL    HW1 2095   2.432   3.504   2.781
 2096SOL    HW2 2096   2.410   3.351   2.730
 2097SOL     OW 2097   2.864   2.658   3.100
 2097SOL    HW1 2098   2.905   2.626   3.186
 2097SOL    HW2 2099   2.768   2.631   3.097
 2098SOL     OW 2100   1.902   2.406   2.976
 2098SOL    HW1 2101   1.987   2.373   2.935
 2098SOL    HW2 2102   1.915   2.421   3.074
 2099SOL     OW 2103   2.051   2.382   3.584
 2099SOL    HW1 2104   2.110   2.342   3.514
 2099SOL    HW2 2105   1.993   2.453   3.543
 2100SOL     OW 2106   3.231   2.812   3.522
 2100SOL    HW1 2107   3.270   2.901   3.542
 2100SOL    HW2 2108   3.241   2.792   3.425
 2101SOL     OW 2109   2.677   2.434   2.187
 2101SOL    HW1 2110   2.684   2.345   2.141
 2101SOL    HW2 2111   2.583   2.468   2.179
 2102SOL     OW 2112   3.519   2.466   3.068
 2102SOL    HW1 2113   3.481   2.397   3.130
 2102SOL    HW2 2114   3.601   2.430   3.024
 2103SOL     OW 2115   2.114   3.426   3.606
 2103SOL    HW1 2116   2.084   3.483   3.682
 2103SOL    HW2 2117   2.107   3.329   3.632
 2104SOL     OW 2118   2.533   2.326   3.131
 2104SOL    HW1 2119   2.499   2.237   3.101
 2104SOL    HW2 2120   2.559   2.380   3.051
 2105SOL     OW 2121   2.792   3.540   3.327
 2105SOL    HW1 2122   2.768   3.522   3.232
 2105SOL    HW2 2123   2.822   3.634   3.337
 2106SOL     OW 2124   2.021   2.999   3.328
 2106SOL    HW1 2125   2.043   2.938   3.404
 2106SOL    HW2 2126   2.031   2.950   3.242
 2107SOL     OW 2127   3.209   2.921   3.096
 2107SOL    HW1 2128   3.233   2.858   3.022
 2107SOL    HW2 2129   3.119   2.961   3.078
 2108SOL     OW 2130   3.164   2.717   2.171
 2108SOL    HW1 2131   3.078   2.686   2.213
 2108SOL    HW2 2132   3.160   2.703   2.072
 2110SOL     OW 2133   3.114   3.593   2.990
 2110SOL    HW1 2134   3.198   3.598   2.936
 2110SOL    HW2 2135   3.091   3.497   3.008
 2111SOL     OW 2136   1.945   3.120   2.884
 2111SOL    HW1 2137   1.940   3.119   2.984
 2111SOL    HW2 2138   1.862   3.079   2.846
 2113SOL     OW 2139   3.588   1.997   2.385
 2113SOL    HW1 2140   3.661   1.980   2.318
 2113SOL    HW2 2141   3.557   1.910   2.423
 2114SOL     OW 2142   3.250   3.435   2.339
 2114SOL    HW1 2143   3.317   3.447   2.265
 2114SOL    HW2 2144   3.210   3.524   2.362
 2116SOL     OW 2145   3.142   2.789   2.534
 2116SOL    HW1 2146   3.202   2.708   2.536
 2116SOL    HW2 2147   3.182   2.858   2.474
 2117SOL     OW 2148   2.692   3.135   3.284
 2117SOL    HW1 2149   2.687   3.168   3.379
 2117SOL    HW2 2150   2.606   3.154   3.238
 2118SOL     OW 2151   2.534   3.478   2.016
 2118SOL    HW1 2152   2.543   3.488   1.917
 2118SOL    HW2 2153   2.494   3.389   2.037
 2120SOL     OW 2154   3.703   2.037   2.825
 2120SOL    HW1 2155   3.742   1.952   2.789
 2120SOL    HW2 2156   3.605   2.039   2.806
 2121SOL     OW 2157   2.125   2.188   2.582
 2121SOL    HW1 2158   2.046   2.239   2.548
 2121SOL    HW2 2159   2.116   2.173   2.680
 2122SOL     OW 2160   3.056   3.474   1.893
 2122SOL    HW1 2161   3.062   3.381   1.930
 2122SOL    HW2 2162   2.997   3.474   1.813
 2123SOL     OW 2163   2.684   2.864   3.234
 2123SOL    HW1 2164   2.724   2.863   3.142
 2123SOL    HW2 2165   2.694   2.956   3.274
 2124SOL     OW 2166   2.778   2.772   2.153
 2124SOL    HW1 2167   2.841   2.810   2.085
 2124SOL    HW2 2168   2.818   2.689   2.192
 2125SOL     OW 2169   3.366   3.469   1.906
 2125SOL    HW1 2170   3.274   3.506   1.913
 2125SOL    HW2 2171   3.404   3.489   1.816
 2126SOL     OW 2172   2.234   3.150   3.352
 2126SOL    HW1 2173   2.221   3.243   3.318
 2126SOL    HW2 2174   2.150   3.098   3.339
 2127SOL     OW 2175   3.476   3.154   3.151
 2127SOL    HW1 2176   3.536   3.157   3.231
 2127SOL    HW2 2177   3.401   3.218   3.164
 2128SOL     OW 2178   2.901   2.960   2.558
 2128SOL    HW1 2179   2.831   2.913   2.612
 2128SOL    HW2 2180   2.960   2.892   2.515
 2129SOL     OW 2181   2.876   2.098   2.833
 2129SOL    HW1 2182   2.868   2.062   2.740
 2129SOL    HW2 2183   2.874   2.022   2.898
 2130SOL     OW 2184   2.452   3.349   2.353
 2130SOL    HW1 2185   2.494   3.291   2.283
 2130SOL    HW2 2186   2.408   3.428   2.309
 2131SOL     OW 2187   3.571   2.247   3.243
 2131SOL    HW1 2188   3.644   2.316   3.247
 2131SOL    HW2 2189   3.599   2.172   3.184
 2132SOL     OW 2190   2.117   3.210   2.152
 2132SOL    HW1 2191   2.021   3.211   2.125
 2132SOL    HW2 2192   2.129   3.263   2.236
 2133SOL     OW 2193   1.967   2.875   3.588
 2133SOL    HW1 2194   1.890   2.842   3.642
 2133SOL    HW2 2195   2.052   2.845   3.630
 2134SOL     OW 2196   2.534   2.065   3.351
 2134SOL    HW1 2197   2.624   2.049   3.311
 2134SOL    HW2 2198   2.542   2.070   3.450
 2135SOL     OW 2199   1.937   2.207   1.895
 2135SOL    HW1 2200   1.845   2.179   1.866
 2135SOL    HW2 2201   1.968   2.284   1.839
 2136SOL     OW 2202   3.302   2.718   3.260
 2136SOL    HW1 2203   3.245   2.770   3.197
 2136SOL    HW2 2204   3.398   2.730   3.236
 2137SOL     OW 2205   3.045   3.197   1.981
 2137SOL    HW1 2206   2.946   3.186   1.983
 2137SOL    HW2 2207   3.079   3.212   2.074
 2138SOL     OW 2208   2.475   2.704   3.293
 2138SOL    HW1 2209   2.531   2.785   3.276
 2138SOL    HW2 2210   2.534   2.624   3.296
 2140SOL     OW 2211   2.578   2.427   3.570
 2140SOL    HW1 2212   2.597   2.492   3.644
 2140SOL    HW2 2213   2.638   2.347   3.579
 2142SOL     OW 2214   2.252   3.603   3.422
 2142SOL    HW1 2215   2.161   3.644   3.420
 2142SOL    HW2 2216   2.245   3.509   3.454
 2143SOL     OW 2217   3.536   2.745   3.116
 2143SOL    HW1 2218   3.509   2.656   3.079
 2143SOL    HW2 2219   3.537   2.813   3.043
 2144SOL     OW 2220   3.087   2.187   2.311
 2144SOL    HW1 2221   3.152   2.113   2.300
 2144SOL    HW2 2222   3.107   2.237   2.395
 2145SOL     OW 2223   2.456   2.607   2.514
 2145SOL    HW1 2224   2.506   2.692   2.495
 2145SOL    HW2 2225   2.368   2.609   2.466
 2148SOL     OW 2226   2.721   3.236   1.878
 2148SOL    HW1 2227   2.675   3.251   1.966
 2148SOL    HW2 2228   2.765   3.321   1.848
 2149SOL     OW 2229   2.523   3.652   2.815
 2149SOL    HW1 2230   2.477   3.740   2.802
 2149SOL    HW2 2231   2.622   3.664   2.808
 2150SOL     OW 2232   2.721   2.818   2.723
 2150SOL    HW1 2233   2.775   2.749   2.771
 2150SOL    HW2 2234   2.689   2.887   2.789
 2151SOL     OW 2235   2.945   2.846   1.949
 2151SOL    HW1 2236   2.922   2.899   1.867
 2151SOL    HW2 2237   3.026   2.790   1.930
 2153SOL     OW 2238   2.083   3.176   3.706
 2153SOL    HW1 2239   2.018   3.103   3.685
 2153SOL    HW2 2240   2.087   3.190   3.804
 2154SOL     OW 2241   1.941   3.102   2.515
 2154SOL    HW1 2242   1.940   3.055   2.603
 2154SOL    HW2 2243   2.023   3.074   2.464
 2155SOL     OW 2244   2.534   3.253   3.486
 2155SOL    HW1 2245   2.456   3.203   3.524
 2155SOL    HW2 2246   2.531   3.348   3.517
 2156SOL     OW 2247   3.686   2.054   3.089
 2156SOL    HW1 2248   3.682   1.964   3.133
 2156SOL    HW2 2249   3.689   2.043   2.990
 2158SOL     OW 2250   2.179   2.409   3.142
 2158SOL    HW1 2251   2.217   2.350   3.214
 2158SOL    HW2 2252   2.219   2.383   3.054
 2159SOL     OW 2253   2.674   3.448   2.549
 2159SOL    HW1 2254   2.706   3.458   2.455
 2159SOL    HW2 2255   2.595   3.386   2.551
 2160SOL     OW 2256   3.286   2.076   2.974
 2160SOL    HW1 2257   3.338   2.011   3.029
 2160SOL    HW2 2258   3.237   2.139   3.035
 2161SOL     OW 2259   2.863   1.896   3.016
 2161SOL    HW1 2260   2.800   1.824   2.985
 2161SOL    HW2 2261   2.956   1.860   3.016
 2162SOL     OW 2262   2.632   3.192   2.163
 2162SOL    HW1 2263   2.586   3.105   2.180
 2162SOL    HW2 2264   2.723   3.189   2.204
 2163SOL     OW 2265   2.480   3.429   3.146
 2163SOL    HW1 2266   2.475   3.511   3.203
 2163SOL    HW2 2267   2.569   3.426   3.101
 2164SOL     OW 2268   3.214   1.914   2.030
 2164SOL    HW1 2269   3.249   1.873   1.946
 2164SOL    HW2 2270   3.124   1.876   2.050
 2165SOL     OW 2271   3.162   2.315   2.553
 2165SOL    HW1 2272   3.103   2.395   2.557
 2165SOL    HW2 2273   3.177   2.280   2.646
 2166SOL     OW 2274   3.455   2.083   2.744
 2166SOL    HW1 2275   3.371   2.082   2.798
 2166SOL    HW2 2276   3.457   2.166   2.688
 2167SOL     OW 2277   1.901   2.939   2.162
 2167SOL    HW1 2278   2.000   2.928   2.153
 2167SOL    HW2 2279   1.861   2.853   2.194
 2168SOL     OW 2280   2.737   3.508   2.199
 2168SOL    HW1 2281   2.660   3.473   2.145
 2168SOL    HW2 2282   2.705   3.579   2.261
 2169SOL     OW 2283   2.092   2.490   3.837
 2169SOL    HW1 2284   1.999   2.488   3.874
 2169SOL    HW2 2285   2.093   2.451   3.745
 2177SOL     OW 2286   2.468   2.826   3.847
 2177SOL    HW1 2287   2.475   2.910   3.793
 2177SOL    HW2 2288   2.514   2.839   3.935
 2187SOL     OW 2289   2.460   2.591   3.994
 2187SOL    HW1 2290   2.484   2.660   3.926
 2187SOL    HW2 2291   2.382   2.624   4.048
 2192SOL     OW 2292   2.727   2.210   3.919
 2192SOL    HW1 2293   2.786   2.273   3.870
 2192SOL    HW2 2294   2.746   2.116   3.890
 2197SOL     OW 2295   2.183   2.805   3.966
 2197SOL    HW1 2296   2.265   2.844   3.924
 2197SOL    HW2 2297   2.156   2.723   3.917
 2204SOL     OW 2298   2.476   1.984   3.841
 2204SOL    HW1 2299   2.574   1.962   3.848
 2204SOL    HW2 2300   2.445   1.967   3.748
 2207SOL     OW 2301   2.159   1.897   3.895
 2207SOL    HW1 2302   2.208   1.981   3.874
 2207SOL    HW2 2303   2.221   1.832   3.940
 2211SOL     OW 2304   2.894   2.411   3.740
 2211SOL    HW1 2305   2.853   2.493   3.701
 2211SOL    HW2 2306   2.958   2.437   3.813
 2230SOL     OW 2307   2.335   2.362   3.915
 2230SOL    HW1 2308   2.396   2.442   3.919
 2230SOL    HW2 2309   2.240   2.393   3.922
 2241SOL     OW 2310   1.937   2.207   3.757
 2241SOL    HW1 2311   1.845   2.179   3.728
 2241SOL    HW2 2312   1.968   2.284   3.701
 2248SOL     OW 2313   2.945   2.846   3.811
 2248SOL    HW1 2314   2.922   2.899   3.729
 2248SOL    HW2 2315   3.026   2.790   3.792
 2269SOL     OW 2316   2.179   3.975   1.801
 2269SOL    HW1 2317   2.250   4.046   1.807
 2269SOL    HW2 2318   2.091   4.014   1.829
 2302SOL     OW 2319   2.875   3.829   1.770
 2302SOL    HW1 2320   2.881   3.914   1.718
 2302SOL    HW2 2321   2.907   3.753   1.713
 2303SOL     OW 2322   2.366   3.774   1.740
 2303SOL    HW1 2323   2.324   3.717   1.670
 2303SOL    HW2 2324   2.300   3.843   1.772
 2354SOL     OW 2325   2.671   3.728   2.364
 2354SOL    HW1 2326   2.711   3.819   2.355
 2354SOL    HW2 2327   2.571   3.736   2.370
 2363SOL     OW 2328   2.412   3.920   2.747
 2363SOL    HW1 2329   2.407   3.915   2.847
 2363SOL    HW2 2330   2.414   4.016   2.718
 2369SOL     OW 2331   2.476   3.846   1.979
 2369SOL    HW1 2332   2.574   3.824   1.986
 2369SOL    HW2 2333   2.445   3.829   1.886
 2373SOL     OW 2334   2.401   3.788   2.374
 2373SOL    HW1 2335   2.320   3.789   2.432
 2373SOL    HW2 2336   2.404   3.871   2.319
 2374SOL     OW 2337   2.159   3.759   2.033
 2374SOL    HW1 2338   2.208   3.843   2.012
 2374SOL    HW2 2339   2.221   3.694   2.078
 2375SOL     OW 2340   2.797   3.960   2.342
 2375SOL    HW1 2341   2.749   4.001   2.264
 2375SOL    HW2 2342   2.896   3.958   2.323
 2381SOL     OW 2343   2.879   3.763   2.615
 2381SOL    HW1 2344   2.807   3.768   2.546
 2381SOL    HW2 2345   2.855   3.694   2.684
 2384SOL     OW 2346   2.389   3.980   2.190
 2384SOL    HW1 2347   2.416   3.921   2.115
 2384SOL    HW2 2348   2.389   4.075   2.159
 2396SOL     OW 2349   2.169   3.787   2.480
 2396SOL    HW1 2350   2.158   3.881   2.513
 2396SOL    HW2 2351   2.164   3.724   2.557
 2419SOL     OW 2352   1.934   3.890   2.180
 2419SOL    HW1 2353   1.917   3.973   2.126
 2419SOL    HW2 2354   2.024   3.853   2.158
 2428SOL     OW 2355   2.863   3.758   3.016
 2428SOL    HW1 2356   2.800   3.686   2.985
 2428SOL    HW2 2357   2.956   3.722   3.016
 2494SOL     OW 2358   3.854   1.821   1.571
 2494SOL    HW1 2359   3.844   1.806   1.670
 2494SOL    HW2 2360   3.768   1.857   1.535
 2538SOL     OW 2361   3.854   1.794   1.851
 2538SOL    HW1 2362   3.813   1.720   1.904
 2538SOL    HW2 2363   3.918   1.845   1.909
 2567SOL     OW 2364   3.955   1.713   2.345
 2567SOL    HW1 2365   3.989   1.790   2.399
 2567SOL    HW2 2366   3.999   1.713   2.255
 2573SOL     OW 2367   3.751   1.596   1.979
 2573SOL    HW1 2368   3.732   1.500   2.000
 2573SOL    HW2 2369   3.718   1.654   2.054
 2614SOL     OW 2370   3.732   1.326   2.062
 2614SOL    HW1 2371   3.639   1.347   2.031
 2614SOL    HW2 2372   3.742   1.227   2.075
 2615SOL     OW 2373   3.812   1.801   2.789
 2615SOL    HW1 2374   3.770   1.715   2.762
 2615SOL    HW2 2375   3.906   1.804   2.755
 2701SOL     OW 2376   3.837   2.599   1.597
 2701SOL    HW1 2377   3.925   2.586   1.642
 2701SOL    HW2 2378   3.824   2.696   1.575
 2721SOL     OW 2379   3.802   2.418   1.386
 2721SOL    HW1 2380   3.894   2.417   1.345
 2721SOL    HW2 2381   3.796   2.492   1.453
 2743SOL     OW 2382   3.913   2.382   1.722
 2743SOL    HW1 2383   3.972   2.342   1.652
 2743SOL    HW2 2384   3.855   2.453   1.681
 2755SOL     OW 2385   3.829   2.875   1.726
 2755SOL    HW1 2386   3.752   2.842   1.780
 2755SOL    HW2 2387   3.914   2.845   1.768
 2770SOL     OW 2388   3.954   2.490   1.975
 2770SOL    HW1 2389   3.861   2.488   2.012
 2770SOL    HW2 2390   3.955   2.451   1.883
 2772SOL     OW 2391   3.743   2.230   2.509
 2772SOL    HW1 2392   3.661   2.273   2.548
 2772SOL    HW2 2393   3.715   2.157   2.446
 2784SOL     OW 2394   3.846   2.505   2.425
 2784SOL    HW1 2395   3.801   2.417   2.442
 2784SOL    HW2 2396   3.845   2.559   2.509
 2792SOL     OW 2397   3.800   2.673   2.651
 2792SOL    HW1 2398   3.899   2.661   2.660
 2792SOL    HW2 2399   3.776   2.768   2.672
 2826SOL     OW 2400   3.732   3.188   2.062
 2826SOL    HW1 2401   3.639   3.209   2.031
 2826SOL    HW2 2402   3.742   3.089   2.075
 2829SOL     OW 2403   3.764   2.406   2.976
 2829SOL    HW1 2404   3.849   2.373   2.935
 2829SOL    HW2 2405   3.777   2.421   3.074
 2838SOL     OW 2406   3.987   2.188   2.582
 2838SOL    HW1 2407   3.908   2.239   2.548
 2838SOL    HW2 2408   3.978   2.173   2.680
 2844SOL     OW 2409   3.799   2.207   1.895
 2844SOL    HW1 2410   3.707   2.179   1.866
 2844SOL    HW2 2411   3.830   2.284   1.839
 2845SOL     OW 2412   3.796   2.028   2.180
 2845SOL    HW1 2413   3.779   2.111   2.126
 2845SOL    HW2 2414   3.886   1.991   2.158
 2851SOL     OW 2415   3.803   3.102   2.515
 2851SOL    HW1 2416   3.802   3.055   2.603
 2851SOL    HW2 2417   3.885   3.074   2.464
 2857SOL     OW 2418   3.763   2.939   2.162
 2857SOL    HW1 2419   3.862   2.928   2.153
 2857SOL    HW2 2420   3.723   2.853   2.194
   4.51198   4.51198   4.51198
