; mobley_2390199_GMX.itp created by acpype (v: 2023.10.27) on Wed May 20 23:42:57 2026

[ atomtypes ]
;name   bond_type     mass     charge   ptype   sigma         epsilon       Amb
 c        c           0.00000  0.00000   A     3.31521e-01   4.13379e-01 ; 1.86  0.0988
 c3       c3          0.00000  0.00000   A     3.39771e-01   4.51035e-01 ; 1.91  0.1078
 o        o           0.00000  0.00000   A     3.04812e-01   6.12119e-01 ; 1.71  0.1463
 hc       hc          0.00000  0.00000   A     2.60018e-01   8.70272e-02 ; 1.46  0.0208

[ moleculetype ]
;name            nrexcl
 mobley_2390199   3

[ atoms ]
;   nr  type  resi  res  atom  cgnr     charge      mass       ; qtot   bond_type
     1    c     1   MOL    C1    1     0.564100     12.01000 ; qtot 0.564
     2   c3     1   MOL    C2    2    -0.093100     12.01000 ; qtot 0.471
     3   c3     1   MOL    C3    3    -0.093100     12.01000 ; qtot 0.378
     4   c3     1   MOL    C4    4    -0.183400     12.01000 ; qtot 0.195
     5   c3     1   MOL    C5    5    -0.183400     12.01000 ; qtot 0.011
     6   c3     1   MOL    C6    6    -0.076400     12.01000 ; qtot -0.065
     7   c3     1   MOL    C7    7    -0.076400     12.01000 ; qtot -0.142
     8    o     1   MOL    O1    8    -0.530100     16.00000 ; qtot -0.672
     9   hc     1   MOL    H1    9     0.033700      1.00800 ; qtot -0.638
    10   hc     1   MOL    H2   10     0.033700      1.00800 ; qtot -0.604
    11   hc     1   MOL    H3   11     0.033700      1.00800 ; qtot -0.571
    12   hc     1   MOL    H4   12     0.033700      1.00800 ; qtot -0.537
    13   hc     1   MOL    H5   13     0.033700      1.00800 ; qtot -0.503
    14   hc     1   MOL    H6   14     0.033700      1.00800 ; qtot -0.470
    15   hc     1   MOL    H7   15     0.063200      1.00800 ; qtot -0.406
    16   hc     1   MOL    H8   16     0.063200      1.00800 ; qtot -0.343
    17   hc     1   MOL    H9   17     0.063200      1.00800 ; qtot -0.280
    18   hc     1   MOL   H10   18     0.063200      1.00800 ; qtot -0.217
    19   hc     1   MOL   H11   19     0.054200      1.00800 ; qtot -0.163
    20   hc     1   MOL   H12   20     0.054200      1.00800 ; qtot -0.108
    21   hc     1   MOL   H13   21     0.054200      1.00800 ; qtot -0.054
    22   hc     1   MOL   H14   22     0.054200      1.00800 ; qtot -0.000

[ bonds ]
;   ai     aj funct   r             k
     1      4   1    1.5270e-01    1.9652e+05 ;     C1 - C4    
     1      5   1    1.5270e-01    1.9652e+05 ;     C1 - C5    
     1      8   1    1.2190e-01    4.9421e+05 ;     C1 - O1    
     2      6   1    1.5354e-01    1.9154e+05 ;     C2 - C6    
     2      9   1    1.0962e-01    2.8891e+05 ;     C2 - H1    
     2     10   1    1.0962e-01    2.8891e+05 ;     C2 - H2    
     2     11   1    1.0962e-01    2.8891e+05 ;     C2 - H3    
     3      7   1    1.5354e-01    1.9154e+05 ;     C3 - C7    
     3     12   1    1.0962e-01    2.8891e+05 ;     C3 - H4    
     3     13   1    1.0962e-01    2.8891e+05 ;     C3 - H5    
     3     14   1    1.0962e-01    2.8891e+05 ;     C3 - H6    
     4      6   1    1.5354e-01    1.9154e+05 ;     C4 - C6    
     4     15   1    1.0962e-01    2.8891e+05 ;     C4 - H7    
     4     16   1    1.0962e-01    2.8891e+05 ;     C4 - H8    
     5      7   1    1.5354e-01    1.9154e+05 ;     C5 - C7    
     5     17   1    1.0962e-01    2.8891e+05 ;     C5 - H9    
     5     18   1    1.0962e-01    2.8891e+05 ;     C5 - H10   
     6     19   1    1.0962e-01    2.8891e+05 ;     C6 - H11   
     6     20   1    1.0962e-01    2.8891e+05 ;     C6 - H12   
     7     21   1    1.0962e-01    2.8891e+05 ;     C7 - H13   
     7     22   1    1.0962e-01    2.8891e+05 ;     C7 - H14   

[ pairs ]
;   ai     aj    funct
     1      2      1 ;     C1 - C2    
     1      3      1 ;     C1 - C3    
     1     19      1 ;     C1 - H11   
     1     20      1 ;     C1 - H12   
     1     21      1 ;     C1 - H13   
     1     22      1 ;     C1 - H14   
     2     15      1 ;     C2 - H7    
     2     16      1 ;     C2 - H8    
     3     17      1 ;     C3 - H9    
     3     18      1 ;     C3 - H10   
     4      7      1 ;     C4 - C7    
     4      9      1 ;     C4 - H1    
     4     10      1 ;     C4 - H2    
     4     11      1 ;     C4 - H3    
     4     17      1 ;     C4 - H9    
     4     18      1 ;     C4 - H10   
     5      6      1 ;     C5 - C6    
     5     12      1 ;     C5 - H4    
     5     13      1 ;     C5 - H5    
     5     14      1 ;     C5 - H6    
     5     15      1 ;     C5 - H7    
     5     16      1 ;     C5 - H8    
     8      6      1 ;     O1 - C6    
     8      7      1 ;     O1 - C7    
     8     15      1 ;     O1 - H7    
     8     16      1 ;     O1 - H8    
     8     17      1 ;     O1 - H9    
     8     18      1 ;     O1 - H10   
     9     19      1 ;     H1 - H11   
     9     20      1 ;     H1 - H12   
    10     19      1 ;     H2 - H11   
    10     20      1 ;     H2 - H12   
    11     19      1 ;     H3 - H11   
    11     20      1 ;     H3 - H12   
    12     21      1 ;     H4 - H13   
    12     22      1 ;     H4 - H14   
    13     21      1 ;     H5 - H13   
    13     22      1 ;     H5 - H14   
    14     21      1 ;     H6 - H13   
    14     22      1 ;     H6 - H14   
    15     19      1 ;     H7 - H11   
    15     20      1 ;     H7 - H12   
    16     19      1 ;     H8 - H11   
    16     20      1 ;     H8 - H12   
    17     21      1 ;     H9 - H13   
    17     22      1 ;     H9 - H14   
    18     21      1 ;    H10 - H13   
    18     22      1 ;    H10 - H14   

[ angles ]
;   ai     aj     ak    funct   theta         cth
     1      4      6      1    1.1143e+02    5.0509e+02 ;     C1 - C4     - C6    
     1      4     15      1    1.0895e+02    3.6510e+02 ;     C1 - C4     - H7    
     1      4     16      1    1.0895e+02    3.6510e+02 ;     C1 - C4     - H8    
     1      5      7      1    1.1143e+02    5.0509e+02 ;     C1 - C5     - C7    
     1      5     17      1    1.0895e+02    3.6510e+02 ;     C1 - C5     - H9    
     1      5     18      1    1.0895e+02    3.6510e+02 ;     C1 - C5     - H10   
     2      6      4      1    1.1263e+02    5.0099e+02 ;     C2 - C6     - C4    
     2      6     19      1    1.0968e+02    3.6208e+02 ;     C2 - C6     - H11   
     2      6     20      1    1.0968e+02    3.6208e+02 ;     C2 - C6     - H12   
     3      7      5      1    1.1263e+02    5.0099e+02 ;     C3 - C7     - C5    
     3      7     21      1    1.0968e+02    3.6208e+02 ;     C3 - C7     - H13   
     3      7     22      1    1.0968e+02    3.6208e+02 ;     C3 - C7     - H14   
     4      1      5      1    1.1668e+02    4.9497e+02 ;     C4 - C1     - C5    
     4      1      8      1    1.2290e+02    6.3973e+02 ;     C4 - C1     - O1    
     4      6     19      1    1.0968e+02    3.6208e+02 ;     C4 - C6     - H11   
     4      6     20      1    1.0968e+02    3.6208e+02 ;     C4 - C6     - H12   
     5      1      8      1    1.2290e+02    6.3973e+02 ;     C5 - C1     - O1    
     5      7     21      1    1.0968e+02    3.6208e+02 ;     C5 - C7     - H13   
     5      7     22      1    1.0968e+02    3.6208e+02 ;     C5 - C7     - H14   
     6      2      9      1    1.0968e+02    3.6208e+02 ;     C6 - C2     - H1    
     6      2     10      1    1.0968e+02    3.6208e+02 ;     C6 - C2     - H2    
     6      2     11      1    1.0968e+02    3.6208e+02 ;     C6 - C2     - H3    
     6      4     15      1    1.0968e+02    3.6208e+02 ;     C6 - C4     - H7    
     6      4     16      1    1.0968e+02    3.6208e+02 ;     C6 - C4     - H8    
     7      3     12      1    1.0968e+02    3.6208e+02 ;     C7 - C3     - H4    
     7      3     13      1    1.0968e+02    3.6208e+02 ;     C7 - C3     - H5    
     7      3     14      1    1.0968e+02    3.6208e+02 ;     C7 - C3     - H6    
     7      5     17      1    1.0968e+02    3.6208e+02 ;     C7 - C5     - H9    
     7      5     18      1    1.0968e+02    3.6208e+02 ;     C7 - C5     - H10   
     9      2     10      1    1.0773e+02    2.9957e+02 ;     H1 - C2     - H2    
     9      2     11      1    1.0773e+02    2.9957e+02 ;     H1 - C2     - H3    
    10      2     11      1    1.0773e+02    2.9957e+02 ;     H2 - C2     - H3    
    12      3     13      1    1.0773e+02    2.9957e+02 ;     H4 - C3     - H5    
    12      3     14      1    1.0773e+02    2.9957e+02 ;     H4 - C3     - H6    
    13      3     14      1    1.0773e+02    2.9957e+02 ;     H5 - C3     - H6    
    15      4     16      1    1.0773e+02    2.9957e+02 ;     H7 - C4     - H8    
    17      5     18      1    1.0773e+02    2.9957e+02 ;     H9 - C5     - H10   
    19      6     20      1    1.0773e+02    2.9957e+02 ;    H11 - C6     - H12   
    21      7     22      1    1.0773e+02    2.9957e+02 ;    H13 - C7     - H14   

[ dihedrals ] ; propers
; for gromacs 4.5 or higher, using funct 9
;    i      j      k      l   func   phase     kd      pn
     1      4      6      2      9     0.00   0.00000   0 ;     C1-    C4-    C6-    C2
     1      4      6      2      9     0.00   0.16736   2 ;     C1-    C4-    C6-    C2
     1      4      6      2      9   180.00   1.92464   1 ;     C1-    C4-    C6-    C2
     1      4      6     19      9     0.00   0.65084   3 ;     C1-    C4-    C6-   H11
     1      4      6     20      9     0.00   0.65084   3 ;     C1-    C4-    C6-   H12
     1      5      7      3      9     0.00   0.00000   0 ;     C1-    C5-    C7-    C3
     1      5      7      3      9     0.00   0.16736   2 ;     C1-    C5-    C7-    C3
     1      5      7      3      9   180.00   1.92464   1 ;     C1-    C5-    C7-    C3
     1      5      7     21      9     0.00   0.65084   3 ;     C1-    C5-    C7-   H13
     1      5      7     22      9     0.00   0.65084   3 ;     C1-    C5-    C7-   H14
     2      6      4     15      9     0.00   0.54392   3 ;     C2-    C6-    C4-    H7
     2      6      4     16      9     0.00   0.54392   3 ;     C2-    C6-    C4-    H8
     3      7      5     17      9     0.00   0.54392   3 ;     C3-    C7-    C5-    H9
     3      7      5     18      9     0.00   0.54392   3 ;     C3-    C7-    C5-   H10
     4      1      5      7      9   180.00   1.09621   2 ;     C4-    C1-    C5-    C7
     4      1      5     17      9   180.00   0.00000   3 ;     C4-    C1-    C5-    H9
     4      1      5     18      9   180.00   0.00000   3 ;     C4-    C1-    C5-   H10
     4      6      2      9      9     0.00   0.54392   3 ;     C4-    C6-    C2-    H1
     4      6      2     10      9     0.00   0.54392   3 ;     C4-    C6-    C2-    H2
     4      6      2     11      9     0.00   0.54392   3 ;     C4-    C6-    C2-    H3
     5      1      4      6      9   180.00   1.09621   2 ;     C5-    C1-    C4-    C6
     5      1      4     15      9   180.00   0.00000   3 ;     C5-    C1-    C4-    H7
     5      1      4     16      9   180.00   0.00000   3 ;     C5-    C1-    C4-    H8
     5      7      3     12      9     0.00   0.54392   3 ;     C5-    C7-    C3-    H4
     5      7      3     13      9     0.00   0.54392   3 ;     C5-    C7-    C3-    H5
     5      7      3     14      9     0.00   0.54392   3 ;     C5-    C7-    C3-    H6
     8      1      4      6      9     0.00   2.84512   1 ;     O1-    C1-    C4-    C6
     8      1      4      6      9   180.00   0.83680   2 ;     O1-    C1-    C4-    C6
     8      1      4      6      9   180.00   1.84096   3 ;     O1-    C1-    C4-    C6
     8      1      4     15      9     0.00  16.86152   1 ;     O1-    C1-    C4-    H7
     8      1      4     15      9   180.00  15.31344   2 ;     O1-    C1-    C4-    H7
     8      1      4     16      9     0.00  16.86152   1 ;     O1-    C1-    C4-    H8
     8      1      4     16      9   180.00  15.31344   2 ;     O1-    C1-    C4-    H8
     8      1      5      7      9     0.00   2.84512   1 ;     O1-    C1-    C5-    C7
     8      1      5      7      9   180.00   0.83680   2 ;     O1-    C1-    C5-    C7
     8      1      5      7      9   180.00   1.84096   3 ;     O1-    C1-    C5-    C7
     8      1      5     17      9     0.00  16.86152   1 ;     O1-    C1-    C5-    H9
     8      1      5     17      9   180.00  15.31344   2 ;     O1-    C1-    C5-    H9
     8      1      5     18      9     0.00  16.86152   1 ;     O1-    C1-    C5-   H10
     8      1      5     18      9   180.00  15.31344   2 ;     O1-    C1-    C5-   H10
     9      2      6     19      9     0.00   0.50208   3 ;     H1-    C2-    C6-   H11
     9      2      6     20      9     0.00   0.50208   3 ;     H1-    C2-    C6-   H12
    10      2      6     19      9     0.00   0.50208   3 ;     H2-    C2-    C6-   H11
    10      2      6     20      9     0.00   0.50208   3 ;     H2-    C2-    C6-   H12
    11      2      6     19      9     0.00   0.50208   3 ;     H3-    C2-    C6-   H11
    11      2      6     20      9     0.00   0.50208   3 ;     H3-    C2-    C6-   H12
    12      3      7     21      9     0.00   0.50208   3 ;     H4-    C3-    C7-   H13
    12      3      7     22      9     0.00   0.50208   3 ;     H4-    C3-    C7-   H14
    13      3      7     21      9     0.00   0.50208   3 ;     H5-    C3-    C7-   H13
    13      3      7     22      9     0.00   0.50208   3 ;     H5-    C3-    C7-   H14
    14      3      7     21      9     0.00   0.50208   3 ;     H6-    C3-    C7-   H13
    14      3      7     22      9     0.00   0.50208   3 ;     H6-    C3-    C7-   H14
    15      4      6     19      9     0.00   0.50208   3 ;     H7-    C4-    C6-   H11
    15      4      6     20      9     0.00   0.50208   3 ;     H7-    C4-    C6-   H12
    16      4      6     19      9     0.00   0.50208   3 ;     H8-    C4-    C6-   H11
    16      4      6     20      9     0.00   0.50208   3 ;     H8-    C4-    C6-   H12
    17      5      7     21      9     0.00   0.50208   3 ;     H9-    C5-    C7-   H13
    17      5      7     22      9     0.00   0.50208   3 ;     H9-    C5-    C7-   H14
    18      5      7     21      9     0.00   0.50208   3 ;    H10-    C5-    C7-   H13
    18      5      7     22      9     0.00   0.50208   3 ;    H10-    C5-    C7-   H14

[ dihedrals ] ; impropers
; treated as propers in GROMACS to use correct AMBER analytical function
;    i      j      k      l   func   phase     kd      pn
     8      1      5      4      4   180.00   4.60240   2 ;     O1-    C1-    C5-    C4
