; mobley_5616693_GMX.itp created by acpype (v: 2023.10.27) on Thu May 21 00:12:57 2026

[ atomtypes ]
;name   bond_type     mass     charge   ptype   sigma         epsilon       Amb
 c        c           0.00000  0.00000   A     3.31521e-01   4.13379e-01 ; 1.86  0.0988
 c6       c6          0.00000  0.00000   A     3.39771e-01   4.51035e-01 ; 1.91  0.1078
 c3       c3          0.00000  0.00000   A     3.39771e-01   4.51035e-01 ; 1.91  0.1078
 o        o           0.00000  0.00000   A     3.04812e-01   6.12119e-01 ; 1.71  0.1463
 hc       hc          0.00000  0.00000   A     2.60018e-01   8.70272e-02 ; 1.46  0.0208

[ moleculetype ]
;name            nrexcl
 mobley_5616693   3

[ atoms ]
;   nr  type  resi  res  atom  cgnr     charge      mass       ; qtot   bond_type
     1    c     1   MOL    C1    1     0.571099     12.01000 ; qtot 0.571
     2   c6     1   MOL    C2    2    -0.180400     12.01000 ; qtot 0.391
     3   c6     1   MOL    C3    3    -0.070400     12.01000 ; qtot 0.320
     4   c6     1   MOL    C4    4    -0.081400     12.01000 ; qtot 0.239
     5   c6     1   MOL    C5    5    -0.156700     12.01000 ; qtot 0.082
     6   c6     1   MOL    C6    6    -0.059700     12.01000 ; qtot 0.022
     7   c3     1   MOL    C7    7    -0.091100     12.01000 ; qtot -0.069
     8   c3     1   MOL    C8    8    -0.090100     12.01000 ; qtot -0.159
     9   c3     1   MOL    C9    9    -0.090100     12.01000 ; qtot -0.249
    10   c3     1   MOL   C10   10    -0.059700     12.01000 ; qtot -0.309
    11    o     1   MOL    O1   11    -0.532100     16.00000 ; qtot -0.841
    12   hc     1   MOL    H1   12     0.068200      1.00800 ; qtot -0.772
    13   hc     1   MOL    H2   13     0.068200      1.00800 ; qtot -0.704
    14   hc     1   MOL    H3   14     0.051200      1.00800 ; qtot -0.653
    15   hc     1   MOL    H4   15     0.051200      1.00800 ; qtot -0.602
    16   hc     1   MOL    H5   16     0.045200      1.00800 ; qtot -0.557
    17   hc     1   MOL    H6   17     0.045200      1.00800 ; qtot -0.511
    18   hc     1   MOL    H7   18     0.067700      1.00800 ; qtot -0.444
    19   hc     1   MOL    H8   19     0.054700      1.00800 ; qtot -0.389
    20   hc     1   MOL    H9   20     0.037033      1.00800 ; qtot -0.352
    21   hc     1   MOL   H10   21     0.037033      1.00800 ; qtot -0.315
    22   hc     1   MOL   H11   22     0.037033      1.00800 ; qtot -0.278
    23   hc     1   MOL   H12   23     0.035367      1.00800 ; qtot -0.243
    24   hc     1   MOL   H13   24     0.035367      1.00800 ; qtot -0.207
    25   hc     1   MOL   H14   25     0.035367      1.00800 ; qtot -0.172
    26   hc     1   MOL   H15   26     0.035367      1.00800 ; qtot -0.136
    27   hc     1   MOL   H16   27     0.035367      1.00800 ; qtot -0.101
    28   hc     1   MOL   H17   28     0.035367      1.00800 ; qtot -0.066
    29   hc     1   MOL   H18   29     0.065700      1.00800 ; qtot -0.000

[ bonds ]
;   ai     aj funct   r             k
     1      2   1    1.5287e-01    1.9550e+05 ;     C1 - C2    
     1      5   1    1.5287e-01    1.9550e+05 ;     C1 - C5    
     1     11   1    1.2190e-01    4.9421e+05 ;     C1 - O1    
     2      6   1    1.5384e-01    1.8979e+05 ;     C2 - C6    
     2     12   1    1.0979e-01    2.8681e+05 ;     C2 - H1    
     2     13   1    1.0979e-01    2.8681e+05 ;     C2 - H2    
     3      4   1    1.5384e-01    1.8979e+05 ;     C3 - C4    
     3      5   1    1.5384e-01    1.8979e+05 ;     C3 - C5    
     3     14   1    1.0979e-01    2.8681e+05 ;     C3 - H3    
     3     15   1    1.0979e-01    2.8681e+05 ;     C3 - H4    
     4      6   1    1.5384e-01    1.8979e+05 ;     C4 - C6    
     4     16   1    1.0979e-01    2.8681e+05 ;     C4 - H5    
     4     17   1    1.0979e-01    2.8681e+05 ;     C4 - H6    
     5     10   1    1.5428e-01    1.8728e+05 ;     C5 - C10   
     5     18   1    1.0979e-01    2.8681e+05 ;     C5 - H7    
     6      7   1    1.5428e-01    1.8728e+05 ;     C6 - C7    
     6     19   1    1.0979e-01    2.8681e+05 ;     C6 - H8    
     7     20   1    1.0962e-01    2.8891e+05 ;     C7 - H9    
     7     21   1    1.0962e-01    2.8891e+05 ;     C7 - H10   
     7     22   1    1.0962e-01    2.8891e+05 ;     C7 - H11   
     8     10   1    1.5354e-01    1.9154e+05 ;     C8 - C10   
     8     23   1    1.0962e-01    2.8891e+05 ;     C8 - H12   
     8     24   1    1.0962e-01    2.8891e+05 ;     C8 - H13   
     8     25   1    1.0962e-01    2.8891e+05 ;     C8 - H14   
     9     10   1    1.5354e-01    1.9154e+05 ;     C9 - C10   
     9     26   1    1.0962e-01    2.8891e+05 ;     C9 - H15   
     9     27   1    1.0962e-01    2.8891e+05 ;     C9 - H16   
     9     28   1    1.0962e-01    2.8891e+05 ;     C9 - H17   
    10     29   1    1.0962e-01    2.8891e+05 ;    C10 - H18   

[ pairs ]
;   ai     aj    funct
     1      4      1 ;     C1 - C4    
     1      7      1 ;     C1 - C7    
     1      8      1 ;     C1 - C8    
     1      9      1 ;     C1 - C9    
     1     14      1 ;     C1 - H3    
     1     15      1 ;     C1 - H4    
     1     19      1 ;     C1 - H8    
     1     29      1 ;     C1 - H18   
     2      3      1 ;     C2 - C3    
     2     10      1 ;     C2 - C10   
     2     16      1 ;     C2 - H5    
     2     17      1 ;     C2 - H6    
     2     18      1 ;     C2 - H7    
     2     20      1 ;     C2 - H9    
     2     21      1 ;     C2 - H10   
     2     22      1 ;     C2 - H11   
     3      7      1 ;     C3 - C7    
     3      8      1 ;     C3 - C8    
     3      9      1 ;     C3 - C9    
     3     19      1 ;     C3 - H8    
     3     29      1 ;     C3 - H18   
     4     10      1 ;     C4 - C10   
     4     12      1 ;     C4 - H1    
     4     13      1 ;     C4 - H2    
     4     18      1 ;     C4 - H7    
     4     20      1 ;     C4 - H9    
     4     21      1 ;     C4 - H10   
     4     22      1 ;     C4 - H11   
     5      6      1 ;     C5 - C6    
     5     12      1 ;     C5 - H1    
     5     13      1 ;     C5 - H2    
     5     16      1 ;     C5 - H5    
     5     17      1 ;     C5 - H6    
     5     23      1 ;     C5 - H12   
     5     24      1 ;     C5 - H13   
     5     25      1 ;     C5 - H14   
     5     26      1 ;     C5 - H15   
     5     27      1 ;     C5 - H16   
     5     28      1 ;     C5 - H17   
     6     14      1 ;     C6 - H3    
     6     15      1 ;     C6 - H4    
     7     12      1 ;     C7 - H1    
     7     13      1 ;     C7 - H2    
     7     16      1 ;     C7 - H5    
     7     17      1 ;     C7 - H6    
     8     18      1 ;     C8 - H7    
     8     26      1 ;     C8 - H15   
     8     27      1 ;     C8 - H16   
     8     28      1 ;     C8 - H17   
     9     18      1 ;     C9 - H7    
     9     23      1 ;     C9 - H12   
     9     24      1 ;     C9 - H13   
     9     25      1 ;     C9 - H14   
    10     14      1 ;    C10 - H3    
    10     15      1 ;    C10 - H4    
    11      3      1 ;     O1 - C3    
    11      6      1 ;     O1 - C6    
    11     10      1 ;     O1 - C10   
    11     12      1 ;     O1 - H1    
    11     13      1 ;     O1 - H2    
    11     18      1 ;     O1 - H7    
    12     19      1 ;     H1 - H8    
    13     19      1 ;     H2 - H8    
    14     16      1 ;     H3 - H5    
    14     17      1 ;     H3 - H6    
    14     18      1 ;     H3 - H7    
    15     16      1 ;     H4 - H5    
    15     17      1 ;     H4 - H6    
    15     18      1 ;     H4 - H7    
    16     19      1 ;     H5 - H8    
    17     19      1 ;     H6 - H8    
    18     29      1 ;     H7 - H18   
    19     20      1 ;     H8 - H9    
    19     21      1 ;     H8 - H10   
    19     22      1 ;     H8 - H11   
    23     29      1 ;    H12 - H18   
    24     29      1 ;    H13 - H18   
    25     29      1 ;    H14 - H18   
    26     29      1 ;    H15 - H18   
    27     29      1 ;    H16 - H18   
    28     29      1 ;    H17 - H18   

[ angles ]
;   ai     aj     ak    funct   theta         cth
     1      2      6      1    1.1143e+02    5.0434e+02 ;     C1 - C2     - C6    
     1      2     12      1    1.0767e+02    3.6685e+02 ;     C1 - C2     - H1    
     1      2     13      1    1.0767e+02    3.6685e+02 ;     C1 - C2     - H2    
     1      5      3      1    1.1143e+02    5.0434e+02 ;     C1 - C5     - C3    
     1      5     10      1    1.0869e+02    5.0986e+02 ;     C1 - C5     - C10   
     1      5     18      1    1.0767e+02    3.6685e+02 ;     C1 - C5     - H7    
     2      1      5      1    1.1566e+02    4.9656e+02 ;     C2 - C1     - C5    
     2      1     11      1    1.2234e+02    6.4065e+02 ;     C2 - C1     - O1    
     2      6      4      1    1.1106e+02    5.0359e+02 ;     C2 - C6     - C4    
     2      6      7      1    1.1143e+02    5.0200e+02 ;     C2 - C6     - C7    
     2      6     19      1    1.0945e+02    3.6175e+02 ;     C2 - C6     - H8    
     3      4      6      1    1.1106e+02    5.0359e+02 ;     C3 - C4     - C6    
     3      4     16      1    1.0945e+02    3.6175e+02 ;     C3 - C4     - H5    
     3      4     17      1    1.0945e+02    3.6175e+02 ;     C3 - C4     - H6    
     3      5     10      1    1.1143e+02    5.0200e+02 ;     C3 - C5     - C10   
     3      5     18      1    1.0945e+02    3.6175e+02 ;     C3 - C5     - H7    
     4      3      5      1    1.1106e+02    5.0359e+02 ;     C4 - C3     - C5    
     4      3     14      1    1.0945e+02    3.6175e+02 ;     C4 - C3     - H3    
     4      3     15      1    1.0945e+02    3.6175e+02 ;     C4 - C3     - H4    
     4      6      7      1    1.1143e+02    5.0200e+02 ;     C4 - C6     - C7    
     4      6     19      1    1.0945e+02    3.6175e+02 ;     C4 - C6     - H8    
     5      1     11      1    1.2234e+02    6.4065e+02 ;     C5 - C1     - O1    
     5      3     14      1    1.0945e+02    3.6175e+02 ;     C5 - C3     - H3    
     5      3     15      1    1.0945e+02    3.6175e+02 ;     C5 - C3     - H4    
     5     10      8      1    1.1393e+02    4.9698e+02 ;     C5 - C10    - C8    
     5     10      9      1    1.1393e+02    4.9698e+02 ;     C5 - C10    - C9    
     5     10     29      1    1.1063e+02    3.5890e+02 ;     C5 - C10    - H18   
     6      2     12      1    1.0945e+02    3.6175e+02 ;     C6 - C2     - H1    
     6      2     13      1    1.0945e+02    3.6175e+02 ;     C6 - C2     - H2    
     6      4     16      1    1.0945e+02    3.6175e+02 ;     C6 - C4     - H5    
     6      4     17      1    1.0945e+02    3.6175e+02 ;     C6 - C4     - H6    
     6      7     20      1    1.1063e+02    3.5890e+02 ;     C6 - C7     - H9    
     6      7     21      1    1.1063e+02    3.5890e+02 ;     C6 - C7     - H10   
     6      7     22      1    1.1063e+02    3.5890e+02 ;     C6 - C7     - H11   
     7      6     19      1    1.0746e+02    3.6418e+02 ;     C7 - C6     - H8    
     8     10      9      1    1.1263e+02    5.0099e+02 ;     C8 - C10    - C9    
     8     10     29      1    1.0968e+02    3.6208e+02 ;     C8 - C10    - H18   
     9     10     29      1    1.0968e+02    3.6208e+02 ;     C9 - C10    - H18   
    10      5     18      1    1.0746e+02    3.6418e+02 ;    C10 - C5     - H7    
    10      8     23      1    1.0968e+02    3.6208e+02 ;    C10 - C8     - H12   
    10      8     24      1    1.0968e+02    3.6208e+02 ;    C10 - C8     - H13   
    10      8     25      1    1.0968e+02    3.6208e+02 ;    C10 - C8     - H14   
    10      9     26      1    1.0968e+02    3.6208e+02 ;    C10 - C9     - H15   
    10      9     27      1    1.0968e+02    3.6208e+02 ;    C10 - C9     - H16   
    10      9     28      1    1.0968e+02    3.6208e+02 ;    C10 - C9     - H17   
    12      2     13      1    1.0662e+02    3.0066e+02 ;     H1 - C2     - H2    
    14      3     15      1    1.0662e+02    3.0066e+02 ;     H3 - C3     - H4    
    16      4     17      1    1.0662e+02    3.0066e+02 ;     H5 - C4     - H6    
    20      7     21      1    1.0773e+02    2.9957e+02 ;     H9 - C7     - H10   
    20      7     22      1    1.0773e+02    2.9957e+02 ;     H9 - C7     - H11   
    21      7     22      1    1.0773e+02    2.9957e+02 ;    H10 - C7     - H11   
    23      8     24      1    1.0773e+02    2.9957e+02 ;    H12 - C8     - H13   
    23      8     25      1    1.0773e+02    2.9957e+02 ;    H12 - C8     - H14   
    24      8     25      1    1.0773e+02    2.9957e+02 ;    H13 - C8     - H14   
    26      9     27      1    1.0773e+02    2.9957e+02 ;    H15 - C9     - H16   
    26      9     28      1    1.0773e+02    2.9957e+02 ;    H15 - C9     - H17   
    27      9     28      1    1.0773e+02    2.9957e+02 ;    H16 - C9     - H17   

[ dihedrals ] ; propers
; for gromacs 4.5 or higher, using funct 9
;    i      j      k      l   func   phase     kd      pn
     1      2      6      4      9     0.00   0.00000   0 ;     C1-    C2-    C6-    C4
     1      2      6      4      9     0.00   0.16736   2 ;     C1-    C2-    C6-    C4
     1      2      6      4      9   180.00   1.92464   1 ;     C1-    C2-    C6-    C4
     1      2      6      7      9     0.00   0.00000   0 ;     C1-    C2-    C6-    C7
     1      2      6      7      9     0.00   0.16736   2 ;     C1-    C2-    C6-    C7
     1      2      6      7      9   180.00   1.92464   1 ;     C1-    C2-    C6-    C7
     1      2      6     19      9     0.00   0.65084   3 ;     C1-    C2-    C6-    H8
     1      5      3      4      9     0.00   0.00000   0 ;     C1-    C5-    C3-    C4
     1      5      3      4      9     0.00   0.16736   2 ;     C1-    C5-    C3-    C4
     1      5      3      4      9   180.00   1.92464   1 ;     C1-    C5-    C3-    C4
     1      5      3     14      9     0.00   0.65084   3 ;     C1-    C5-    C3-    H3
     1      5      3     15      9     0.00   0.65084   3 ;     C1-    C5-    C3-    H4
     1      5     10      8      9     0.00   0.00000   0 ;     C1-    C5-   C10-    C8
     1      5     10      8      9     0.00   0.16736   2 ;     C1-    C5-   C10-    C8
     1      5     10      8      9   180.00   1.92464   1 ;     C1-    C5-   C10-    C8
     1      5     10      9      9     0.00   0.00000   0 ;     C1-    C5-   C10-    C9
     1      5     10      9      9     0.00   0.16736   2 ;     C1-    C5-   C10-    C9
     1      5     10      9      9   180.00   1.92464   1 ;     C1-    C5-   C10-    C9
     1      5     10     29      9     0.00   0.65084   3 ;     C1-    C5-   C10-   H18
     2      1      5      3      9   180.00   1.09621   2 ;     C2-    C1-    C5-    C3
     2      1      5     10      9   180.00   1.09621   2 ;     C2-    C1-    C5-   C10
     2      1      5     18      9   180.00   0.00000   3 ;     C2-    C1-    C5-    H7
     2      6      4      3      9     0.00   2.17568   3 ;     C2-    C6-    C4-    C3
     2      6      4     16      9     0.00   0.54392   3 ;     C2-    C6-    C4-    H5
     2      6      4     17      9     0.00   0.54392   3 ;     C2-    C6-    C4-    H6
     2      6      7     20      9     0.00   0.54392   3 ;     C2-    C6-    C7-    H9
     2      6      7     21      9     0.00   0.54392   3 ;     C2-    C6-    C7-   H10
     2      6      7     22      9     0.00   0.54392   3 ;     C2-    C6-    C7-   H11
     3      4      6      7      9     0.00   2.17568   3 ;     C3-    C4-    C6-    C7
     3      4      6     19      9     0.00   0.54392   3 ;     C3-    C4-    C6-    H8
     3      5     10      8      9     0.00   2.17568   3 ;     C3-    C5-   C10-    C8
     3      5     10      9      9     0.00   2.17568   3 ;     C3-    C5-   C10-    C9
     3      5     10     29      9     0.00   0.54392   3 ;     C3-    C5-   C10-   H18
     4      3      5     10      9     0.00   2.17568   3 ;     C4-    C3-    C5-   C10
     4      3      5     18      9     0.00   0.54392   3 ;     C4-    C3-    C5-    H7
     4      6      2     12      9     0.00   0.54392   3 ;     C4-    C6-    C2-    H1
     4      6      2     13      9     0.00   0.54392   3 ;     C4-    C6-    C2-    H2
     4      6      7     20      9     0.00   0.54392   3 ;     C4-    C6-    C7-    H9
     4      6      7     21      9     0.00   0.54392   3 ;     C4-    C6-    C7-   H10
     4      6      7     22      9     0.00   0.54392   3 ;     C4-    C6-    C7-   H11
     5      1      2      6      9   180.00   1.09621   2 ;     C5-    C1-    C2-    C6
     5      1      2     12      9   180.00   0.00000   3 ;     C5-    C1-    C2-    H1
     5      1      2     13      9   180.00   0.00000   3 ;     C5-    C1-    C2-    H2
     5      3      4      6      9     0.00   2.17568   3 ;     C5-    C3-    C4-    C6
     5      3      4     16      9     0.00   0.54392   3 ;     C5-    C3-    C4-    H5
     5      3      4     17      9     0.00   0.54392   3 ;     C5-    C3-    C4-    H6
     5     10      8     23      9     0.00   0.54392   3 ;     C5-   C10-    C8-   H12
     5     10      8     24      9     0.00   0.54392   3 ;     C5-   C10-    C8-   H13
     5     10      8     25      9     0.00   0.54392   3 ;     C5-   C10-    C8-   H14
     5     10      9     26      9     0.00   0.54392   3 ;     C5-   C10-    C9-   H15
     5     10      9     27      9     0.00   0.54392   3 ;     C5-   C10-    C9-   H16
     5     10      9     28      9     0.00   0.54392   3 ;     C5-   C10-    C9-   H17
     6      4      3     14      9     0.00   0.54392   3 ;     C6-    C4-    C3-    H3
     6      4      3     15      9     0.00   0.54392   3 ;     C6-    C4-    C3-    H4
     7      6      2     12      9     0.00   0.54392   3 ;     C7-    C6-    C2-    H1
     7      6      2     13      9     0.00   0.54392   3 ;     C7-    C6-    C2-    H2
     7      6      4     16      9     0.00   0.54392   3 ;     C7-    C6-    C4-    H5
     7      6      4     17      9     0.00   0.54392   3 ;     C7-    C6-    C4-    H6
     8     10      5     18      9     0.00   0.54392   3 ;     C8-   C10-    C5-    H7
     8     10      9     26      9     0.00   0.54392   3 ;     C8-   C10-    C9-   H15
     8     10      9     27      9     0.00   0.54392   3 ;     C8-   C10-    C9-   H16
     8     10      9     28      9     0.00   0.54392   3 ;     C8-   C10-    C9-   H17
     9     10      5     18      9     0.00   0.54392   3 ;     C9-   C10-    C5-    H7
     9     10      8     23      9     0.00   0.54392   3 ;     C9-   C10-    C8-   H12
     9     10      8     24      9     0.00   0.54392   3 ;     C9-   C10-    C8-   H13
     9     10      8     25      9     0.00   0.54392   3 ;     C9-   C10-    C8-   H14
    10      5      3     14      9     0.00   0.54392   3 ;    C10-    C5-    C3-    H3
    10      5      3     15      9     0.00   0.54392   3 ;    C10-    C5-    C3-    H4
    11      1      2      6      9     0.00   0.46024   2 ;     O1-    C1-    C2-    C6
    11      1      2      6      9     0.00  49.12016   1 ;     O1-    C1-    C2-    C6
    11      1      2      6      9   180.00   0.33472   3 ;     O1-    C1-    C2-    C6
    11      1      2     12      9     0.00  16.86152   1 ;     O1-    C1-    C2-    H1
    11      1      2     12      9   180.00  15.31344   2 ;     O1-    C1-    C2-    H1
    11      1      2     13      9     0.00  16.86152   1 ;     O1-    C1-    C2-    H2
    11      1      2     13      9   180.00  15.31344   2 ;     O1-    C1-    C2-    H2
    11      1      5      3      9     0.00   0.46024   2 ;     O1-    C1-    C5-    C3
    11      1      5      3      9     0.00  49.12016   1 ;     O1-    C1-    C5-    C3
    11      1      5      3      9   180.00   0.33472   3 ;     O1-    C1-    C5-    C3
    11      1      5     10      9     0.00   2.84512   1 ;     O1-    C1-    C5-   C10
    11      1      5     10      9   180.00   0.83680   2 ;     O1-    C1-    C5-   C10
    11      1      5     10      9   180.00   1.84096   3 ;     O1-    C1-    C5-   C10
    11      1      5     18      9     0.00  16.86152   1 ;     O1-    C1-    C5-    H7
    11      1      5     18      9   180.00  15.31344   2 ;     O1-    C1-    C5-    H7
    12      2      6     19      9     0.00   0.50208   3 ;     H1-    C2-    C6-    H8
    13      2      6     19      9     0.00   0.50208   3 ;     H2-    C2-    C6-    H8
    14      3      4     16      9     0.00   0.50208   3 ;     H3-    C3-    C4-    H5
    14      3      4     17      9     0.00   0.50208   3 ;     H3-    C3-    C4-    H6
    14      3      5     18      9     0.00   0.50208   3 ;     H3-    C3-    C5-    H7
    15      3      4     16      9     0.00   0.50208   3 ;     H4-    C3-    C4-    H5
    15      3      4     17      9     0.00   0.50208   3 ;     H4-    C3-    C4-    H6
    15      3      5     18      9     0.00   0.50208   3 ;     H4-    C3-    C5-    H7
    16      4      6     19      9     0.00   0.50208   3 ;     H5-    C4-    C6-    H8
    17      4      6     19      9     0.00   0.50208   3 ;     H6-    C4-    C6-    H8
    18      5     10     29      9     0.00   0.50208   3 ;     H7-    C5-   C10-   H18
    19      6      7     20      9     0.00   0.50208   3 ;     H8-    C6-    C7-    H9
    19      6      7     21      9     0.00   0.50208   3 ;     H8-    C6-    C7-   H10
    19      6      7     22      9     0.00   0.50208   3 ;     H8-    C6-    C7-   H11
    23      8     10     29      9     0.00   0.50208   3 ;    H12-    C8-   C10-   H18
    24      8     10     29      9     0.00   0.50208   3 ;    H13-    C8-   C10-   H18
    25      8     10     29      9     0.00   0.50208   3 ;    H14-    C8-   C10-   H18
    26      9     10     29      9     0.00   0.50208   3 ;    H15-    C9-   C10-   H18
    27      9     10     29      9     0.00   0.50208   3 ;    H16-    C9-   C10-   H18
    28      9     10     29      9     0.00   0.50208   3 ;    H17-    C9-   C10-   H18

[ dihedrals ] ; impropers
; treated as propers in GROMACS to use correct AMBER analytical function
;    i      j      k      l   func   phase     kd      pn
    11      1      5      2      4   180.00   4.60240   2 ;     O1-    C1-    C5-    C2
