mobley_8614858_GMX.gro created by acpype (v: 2023.10.27) on Tue May 19 14:09:41 2026
 2426
    1MOL     C1    1   2.303   2.756   2.279
    1MOL     C2    2   2.681   2.230   2.676
    1MOL     C3    3   2.310   2.609   2.320
    1MOL     C4    4   2.560   2.257   2.588
    1MOL     C5    5   2.427   2.578   2.413
    1MOL     C6    6   2.553   2.404   2.548
    1MOL     C7    7   2.432   2.431   2.457
    1MOL     H1    8   2.223   2.770   2.205
    1MOL     H2    9   2.397   2.789   2.234
    1MOL     H3   10   2.281   2.820   2.364
    1MOL     H4   11   2.774   2.254   2.623
    1MOL     H5   12   2.677   2.289   2.768
    1MOL     H6   13   2.685   2.124   2.703
    1MOL     H7   14   2.320   2.548   2.230
    1MOL     H8   15   2.216   2.580   2.368
    1MOL     H9   16   2.469   2.229   2.642
    1MOL    H10   17   2.566   2.194   2.498
    1MOL    H11   18   2.520   2.603   2.361
    1MOL    H12   19   2.422   2.642   2.502
    1MOL    H13   20   2.545   2.467   2.638
    1MOL    H14   21   2.645   2.433   2.496
    1MOL    H15   22   2.340   2.404   2.510
    1MOL    H16   23   2.439   2.367   2.368
   14SOL     OW   24   1.460   1.505   1.339
   14SOL    HW1   25   1.484   1.599   1.365
   14SOL    HW2   26   1.444   1.451   1.421
   35SOL     OW   27   1.187   1.792   1.616
   35SOL    HW1   28   1.211   1.852   1.540
   35SOL    HW2   29   1.194   1.697   1.586
   95SOL     OW   30   1.754   1.223   1.588
   95SOL    HW1   31   1.845   1.184   1.575
   95SOL    HW2   32   1.762   1.319   1.612
   97SOL     OW   33   1.592   1.629   1.625
   97SOL    HW1   34   1.619   1.663   1.535
   97SOL    HW2   35   1.671   1.591   1.671
  127SOL     OW   36   1.859   1.518   1.605
  127SOL    HW1   37   1.873   1.545   1.510
  127SOL    HW2   38   1.942   1.540   1.658
  152SOL     OW   39   1.759   1.747   1.154
  152SOL    HW1   40   1.820   1.777   1.081
  152SOL    HW2   41   1.721   1.658   1.132
  163SOL     OW   42   1.650   1.720   1.394
  163SOL    HW1   43   1.703   1.730   1.310
  163SOL    HW2   44   1.623   1.810   1.428
  219SOL     OW   45   1.555   1.511   2.565
  219SOL    HW1   46   1.498   1.495   2.646
  219SOL    HW2   47   1.496   1.521   2.485
  227SOL     OW   48   1.460   1.505   3.201
  227SOL    HW1   49   1.484   1.599   3.227
  227SOL    HW2   50   1.444   1.451   3.283
  238SOL     OW   51   1.842   1.767   2.221
  238SOL    HW1   52   1.896   1.738   2.301
  238SOL    HW2   53   1.872   1.857   2.192
  240SOL     OW   54   1.689   0.922   2.474
  240SOL    HW1   55   1.784   0.893   2.482
  240SOL    HW2   56   1.681   0.987   2.399
  241SOL     OW   57   1.641   1.108   2.294
  241SOL    HW1   58   1.727   1.110   2.242
  241SOL    HW2   59   1.655   1.155   2.382
  247SOL     OW   60   1.525   0.999   2.052
  247SOL    HW1   61   1.462   0.923   2.065
  247SOL    HW2   62   1.573   1.017   2.138
  248SOL     OW   63   1.187   1.792   3.478
  248SOL    HW1   64   1.211   1.852   3.402
  248SOL    HW2   65   1.194   1.697   3.448
  250SOL     OW   66   1.466   1.417   2.815
  250SOL    HW1   67   1.407   1.423   2.895
  250SOL    HW2   68   1.451   1.329   2.769
  251SOL     OW   69   1.667   1.714   2.434
  251SOL    HW1   70   1.626   1.691   2.346
  251SOL    HW2   71   1.649   1.640   2.499
  254SOL     OW   72   1.576   1.662   2.169
  254SOL    HW1   73   1.665   1.708   2.172
  254SOL    HW2   74   1.555   1.638   2.074
  264SOL     OW   75   1.362   1.144   2.407
  264SOL    HW1   76   1.445   1.115   2.359
  264SOL    HW2   77   1.313   1.211   2.351
  266SOL     OW   78   1.008   1.456   2.339
  266SOL    HW1   79   0.962   1.528   2.287
  266SOL    HW2   80   1.004   1.476   2.437
  268SOL     OW   81   1.795   1.066   2.735
  268SOL    HW1   82   1.733   1.051   2.659
  268SOL    HW2   83   1.743   1.077   2.820
  269SOL     OW   84   1.227   1.550   3.368
  269SOL    HW1   85   1.233   1.473   3.432
  269SOL    HW2   86   1.175   1.524   3.288
  273SOL     OW   87   1.111   1.776   2.099
  273SOL    HW1   88   1.051   1.714   2.149
  273SOL    HW2   89   1.142   1.732   2.014
  275SOL     OW   90   1.632   1.377   1.943
  275SOL    HW1   91   1.600   1.471   1.933
  275SOL    HW2   92   1.556   1.314   1.931
  279SOL     OW   93   0.940   1.698   2.766
  279SOL    HW1   94   1.020   1.641   2.787
  279SOL    HW2   95   0.891   1.658   2.689
  289SOL     OW   96   1.434   1.188   1.903
  289SOL    HW1   97   1.466   1.112   1.960
  289SOL    HW2   98   1.342   1.215   1.933
  293SOL     OW   99   1.227   1.570   2.655
  293SOL    HW1  100   1.248   1.644   2.590
  293SOL    HW2  101   1.295   1.570   2.728
  295SOL     OW  102   1.271   1.797   2.453
  295SOL    HW1  103   1.315   1.861   2.389
  295SOL    HW2  104   1.221   1.849   2.523
  301SOL     OW  105   1.429   1.173   2.729
  301SOL    HW1  106   1.374   1.089   2.722
  301SOL    HW2  107   1.455   1.202   2.637
  303SOL     OW  108   1.857   0.833   2.239
  303SOL    HW1  109   1.899   0.769   2.303
  303SOL    HW2  110   1.819   0.782   2.161
  305SOL     OW  111   1.664   1.280   2.519
  305SOL    HW1  112   1.763   1.288   2.533
  305SOL    HW2  113   1.619   1.364   2.550
  308SOL     OW  114   1.754   1.223   3.450
  308SOL    HW1  115   1.845   1.184   3.437
  308SOL    HW2  116   1.762   1.319   3.474
  310SOL     OW  117   1.592   1.629   3.487
  310SOL    HW1  118   1.619   1.663   3.397
  310SOL    HW2  119   1.671   1.591   3.533
  312SOL     OW  120   1.638   1.099   2.941
  312SOL    HW1  121   1.643   1.180   3.000
  312SOL    HW2  122   1.552   1.101   2.890
  321SOL     OW  123   1.252   1.348   2.250
  321SOL    HW1  124   1.302   1.425   2.290
  321SOL    HW2  125   1.157   1.350   2.282
  322SOL     OW  126   1.272   1.445   3.004
  322SOL    HW1  127   1.319   1.458   3.091
  322SOL    HW2  128   1.206   1.371   3.013
  340SOL     OW  129   1.859   1.518   3.467
  340SOL    HW1  130   1.873   1.545   3.372
  340SOL    HW2  131   1.942   1.540   3.520
  365SOL     OW  132   1.759   1.747   3.016
  365SOL    HW1  133   1.820   1.777   2.943
  365SOL    HW2  134   1.721   1.658   2.994
  366SOL     OW  135   1.252   1.731   2.990
  366SOL    HW1  136   1.336   1.736   2.936
  366SOL    HW2  137   1.229   1.635   3.008
  370SOL     OW  138   1.388   1.573   2.339
  370SOL    HW1  139   1.455   1.585   2.265
  370SOL    HW2  140   1.348   1.662   2.362
  375SOL     OW  141   1.650   1.720   3.256
  375SOL    HW1  142   1.703   1.730   3.172
  375SOL    HW2  143   1.623   1.810   3.290
  378SOL     OW  144   1.194   1.612   1.893
  378SOL    HW1  145   1.200   1.519   1.930
  378SOL    HW2  146   1.135   1.612   1.813
  381SOL     OW  147   1.504   1.607   1.906
  381SOL    HW1  148   1.412   1.644   1.913
  381SOL    HW2  149   1.542   1.627   1.816
  383SOL     OW  150   1.614   1.292   3.151
  383SOL    HW1  151   1.674   1.295   3.231
  383SOL    HW2  152   1.539   1.356   3.164
  394SOL     OW  153   1.183   1.335   1.981
  394SOL    HW1  154   1.084   1.324   1.983
  394SOL    HW2  155   1.217   1.350   2.074
  396SOL     OW  156   1.493   1.767   2.821
  396SOL    HW1  157   1.526   1.831   2.752
  396SOL    HW2  158   1.559   1.761   2.896
  409SOL     OW  159   1.861   1.569   2.713
  409SOL    HW1  160   1.790   1.557   2.643
  409SOL    HW2  161   1.862   1.490   2.773
  415SOL     OW  162   1.705   1.487   2.966
  415SOL    HW1  163   1.612   1.462   2.939
  415SOL    HW2  164   1.731   1.437   3.048
  573SOL     OW  165   0.850   2.660   1.823
  573SOL    HW1  166   0.846   2.736   1.888
  573SOL    HW2  167   0.872   2.696   1.732
  577SOL     OW  168   1.460   3.367   1.339
  577SOL    HW1  169   1.484   3.461   1.365
  577SOL    HW2  170   1.444   3.313   1.421
  581SOL     OW  171   1.127   3.203   1.690
  581SOL    HW1  172   1.174   3.203   1.778
  581SOL    HW2  173   1.079   3.116   1.679
  586SOL     OW  174   1.594   1.976   1.480
  586SOL    HW1  175   1.576   2.043   1.408
  586SOL    HW2  176   1.591   2.022   1.569
  594SOL     OW  177   1.293   3.090   1.423
  594SOL    HW1  178   1.330   3.017   1.365
  594SOL    HW2  179   1.345   3.095   1.508
  606SOL     OW  180   1.394   2.331   1.674
  606SOL    HW1  181   1.374   2.374   1.762
  606SOL    HW2  182   1.472   2.269   1.683
  607SOL     OW  183   0.973   2.752   1.572
  607SOL    HW1  184   1.019   2.668   1.543
  607SOL    HW2  185   0.917   2.786   1.497
  613SOL     OW  186   1.719   2.447   1.831
  613SOL    HW1  187   1.693   2.536   1.795
  613SOL    HW2  188   1.717   2.379   1.758
  618SOL     OW  189   1.795   2.928   0.873
  618SOL    HW1  190   1.733   2.913   0.797
  618SOL    HW2  191   1.743   2.939   0.958
  631SOL     OW  192   1.547   2.084   1.729
  631SOL    HW1  193   1.542   2.121   1.821
  631SOL    HW2  194   1.475   2.015   1.717
  635SOL     OW  195   1.351   2.452   1.433
  635SOL    HW1  196   1.379   2.409   1.518
  635SOL    HW2  197   1.376   2.548   1.434
  642SOL     OW  198   1.076   2.545   1.464
  642SOL    HW1  199   0.996   2.484   1.467
  642SOL    HW2  200   1.157   2.492   1.440
  652SOL     OW  201   1.466   2.452   0.992
  652SOL    HW1  202   1.436   2.357   0.999
  652SOL    HW2  203   1.539   2.468   1.058
  658SOL     OW  204   1.754   3.085   1.588
  658SOL    HW1  205   1.845   3.046   1.575
  658SOL    HW2  206   1.762   3.181   1.612
  660SOL     OW  207   1.592   3.491   1.625
  660SOL    HW1  208   1.619   3.525   1.535
  660SOL    HW2  209   1.671   3.453   1.671
  662SOL     OW  210   1.638   2.961   1.079
  662SOL    HW1  211   1.643   3.042   1.138
  662SOL    HW2  212   1.552   2.963   1.028
  664SOL     OW  213   0.980   2.978   1.719
  664SOL    HW1  214   0.881   2.984   1.729
  664SOL    HW2  215   1.003   2.898   1.663
  667SOL     OW  216   1.274   2.248   1.262
  667SOL    HW1  217   1.295   2.322   1.326
  667SOL    HW2  218   1.185   2.265   1.219
  676SOL     OW  219   1.587   2.641   1.670
  676SOL    HW1  220   1.495   2.679   1.665
  676SOL    HW2  221   1.647   2.688   1.605
  677SOL     OW  222   1.013   1.967   1.770
  677SOL    HW1  223   1.019   2.052   1.718
  677SOL    HW2  224   1.045   1.891   1.713
  685SOL     OW  225   1.728   2.797   1.854
  685SOL    HW1  226   1.682   2.790   1.765
  685SOL    HW2  227   1.666   2.841   1.920
  690SOL     OW  228   1.859   3.380   1.605
  690SOL    HW1  229   1.873   3.407   1.510
  690SOL    HW2  230   1.942   3.402   1.658
  697SOL     OW  231   1.138   2.242   1.678
  697SOL    HW1  232   1.093   2.305   1.742
  697SOL    HW2  233   1.231   2.273   1.661
  698SOL     OW  234   1.160   2.069   1.477
  698SOL    HW1  235   1.160   2.133   1.554
  698SOL    HW2  236   1.188   2.117   1.394
  705SOL     OW  237   1.369   2.812   1.660
  705SOL    HW1  238   1.408   2.901   1.680
  705SOL    HW2  239   1.379   2.792   1.563
  707SOL     OW  240   1.657   2.466   1.206
  707SOL    HW1  241   1.619   2.397   1.268
  707SOL    HW2  242   1.739   2.430   1.162
  713SOL     OW  243   1.347   2.921   1.234
  713SOL    HW1  244   1.371   2.858   1.160
  713SOL    HW2  245   1.257   2.961   1.216
  726SOL     OW  246   1.650   3.582   1.394
  726SOL    HW1  247   1.703   3.592   1.310
  726SOL    HW2  248   1.623   3.672   1.428
  727SOL     OW  249   1.841   2.037   0.963
  727SOL    HW1  250   1.880   1.952   0.927
  727SOL    HW2  251   1.743   2.039   0.944
  734SOL     OW  252   1.614   3.154   1.289
  734SOL    HW1  253   1.674   3.157   1.369
  734SOL    HW2  254   1.539   3.218   1.302
  738SOL     OW  255   1.709   2.247   1.381
  738SOL    HW1  256   1.782   2.316   1.385
  738SOL    HW2  257   1.737   2.172   1.322
  743SOL     OW  258   1.440   2.718   1.398
  743SOL    HW1  259   1.383   2.770   1.335
  743SOL    HW2  260   1.536   2.730   1.374
  749SOL     OW  261   1.450   3.082   1.633
  749SOL    HW1  262   1.441   3.072   1.732
  749SOL    HW2  263   1.546   3.075   1.607
  751SOL     OW  264   1.674   2.745   1.254
  751SOL    HW1  265   1.647   2.656   1.217
  751SOL    HW2  266   1.675   2.813   1.181
  754SOL     OW  267   1.777   2.204   1.642
  754SOL    HW1  268   1.760   2.235   1.548
  754SOL    HW2  269   1.693   2.167   1.680
  755SOL     OW  270   1.730   2.796   1.517
  755SOL    HW1  271   1.768   2.887   1.532
  755SOL    HW2  272   1.722   2.779   1.418
  764SOL     OW  273   1.824   2.054   1.227
  764SOL    HW1  274   1.820   1.964   1.271
  764SOL    HW2  275   1.827   2.043   1.128
  766SOL     OW  276   1.705   3.349   1.104
  766SOL    HW1  277   1.612   3.324   1.077
  766SOL    HW2  278   1.731   3.299   1.186
  769SOL     OW  279   1.424   2.076   1.112
  769SOL    HW1  280   1.476   2.011   1.167
  769SOL    HW2  281   1.375   2.139   1.173
  782SOL     OW  282   1.555   3.373   2.565
  782SOL    HW1  283   1.498   3.357   2.646
  782SOL    HW2  284   1.496   3.383   2.485
  783SOL     OW  285   1.135   2.565   2.579
  783SOL    HW1  286   1.192   2.643   2.554
  783SOL    HW2  287   1.075   2.591   2.655
  784SOL     OW  288   1.755   2.469   2.093
  784SOL    HW1  289   1.743   2.456   1.994
  784SOL    HW2  290   1.725   2.388   2.142
  790SOL     OW  291   1.460   3.367   3.201
  790SOL    HW1  292   1.484   3.461   3.227
  790SOL    HW2  293   1.444   3.313   3.283
  792SOL     OW  294   1.603   2.309   2.599
  792SOL    HW1  295   1.529   2.355   2.549
  792SOL    HW2  296   1.654   2.377   2.652
  799SOL     OW  297   1.594   1.976   3.342
  799SOL    HW1  298   1.576   2.043   3.270
  799SOL    HW2  299   1.591   2.022   3.431
  801SOL     OW  300   1.842   3.629   2.221
  801SOL    HW1  301   1.896   3.600   2.301
  801SOL    HW2  302   1.872   3.719   2.192
  803SOL     OW  303   1.689   2.784   2.474
  803SOL    HW1  304   1.784   2.755   2.482
  803SOL    HW2  305   1.681   2.849   2.399
  804SOL     OW  306   1.641   2.970   2.294
  804SOL    HW1  307   1.727   2.972   2.242
  804SOL    HW2  308   1.655   3.017   2.382
  807SOL     OW  309   1.293   3.090   3.285
  807SOL    HW1  310   1.330   3.017   3.227
  807SOL    HW2  311   1.345   3.095   3.370
  808SOL     OW  312   0.809   1.866   2.364
  808SOL    HW1  313   0.849   1.957   2.355
  808SOL    HW2  314   0.709   1.874   2.370
  810SOL     OW  315   1.525   2.861   2.052
  810SOL    HW1  316   1.462   2.785   2.065
  810SOL    HW2  317   1.573   2.879   2.138
  813SOL     OW  318   1.466   3.279   2.815
  813SOL    HW1  319   1.407   3.285   2.895
  813SOL    HW2  320   1.451   3.191   2.769
  814SOL     OW  321   1.667   3.576   2.434
  814SOL    HW1  322   1.626   3.553   2.346
  814SOL    HW2  323   1.649   3.502   2.499
  816SOL     OW  324   1.281   2.207   2.806
  816SOL    HW1  325   1.195   2.157   2.793
  816SOL    HW2  326   1.343   2.153   2.862
  817SOL     OW  327   1.576   3.524   2.169
  817SOL    HW1  328   1.665   3.570   2.172
  817SOL    HW2  329   1.555   3.500   2.074
  819SOL     OW  330   1.394   2.331   3.536
  819SOL    HW1  331   1.374   2.374   3.624
  819SOL    HW2  332   1.472   2.269   3.545
  821SOL     OW  333   0.991   2.272   3.104
  821SOL    HW1  334   0.914   2.306   3.158
  821SOL    HW2  335   0.957   2.221   3.025
  822SOL     OW  336   1.041   2.563   2.291
  822SOL    HW1  337   1.067   2.559   2.387
  822SOL    HW2  338   0.956   2.512   2.277
  825SOL     OW  339   0.865   2.210   2.057
  825SOL    HW1  340   0.924   2.273   2.008
  825SOL    HW2  341   0.884   2.116   2.028
  826SOL     OW  342   1.719   2.447   3.693
  826SOL    HW1  343   1.693   2.536   3.657
  826SOL    HW2  344   1.717   2.379   3.620
  827SOL     OW  345   1.362   3.006   2.407
  827SOL    HW1  346   1.445   2.977   2.359
  827SOL    HW2  347   1.313   3.073   2.351
  829SOL     OW  348   1.008   3.318   2.339
  829SOL    HW1  349   0.962   3.390   2.287
  829SOL    HW2  350   1.004   3.338   2.437
  831SOL     OW  351   1.795   2.928   2.735
  831SOL    HW1  352   1.733   2.913   2.659
  831SOL    HW2  353   1.743   2.939   2.820
  834SOL     OW  354   1.458   2.597   2.590
  834SOL    HW1  355   1.453   2.532   2.665
  834SOL    HW2  356   1.538   2.656   2.603
  838SOL     OW  357   1.632   3.239   1.943
  838SOL    HW1  358   1.600   3.333   1.933
  838SOL    HW2  359   1.556   3.176   1.931
  840SOL     OW  360   1.400   1.969   2.288
  840SOL    HW1  361   1.376   1.932   2.198
  840SOL    HW2  362   1.499   1.985   2.292
  844SOL     OW  363   1.547   2.084   3.591
  844SOL    HW1  364   1.542   2.121   3.683
  844SOL    HW2  365   1.475   2.015   3.579
  848SOL     OW  366   1.351   2.452   3.295
  848SOL    HW1  367   1.379   2.409   3.380
  848SOL    HW2  368   1.376   2.548   3.296
  850SOL     OW  369   0.922   2.365   2.761
  850SOL    HW1  370   0.897   2.356   2.665
  850SOL    HW2  371   0.970   2.283   2.792
  852SOL     OW  372   1.434   3.050   1.903
  852SOL    HW1  373   1.466   2.974   1.960
  852SOL    HW2  374   1.342   3.077   1.933
  854SOL     OW  375   0.935   2.098   2.342
  854SOL    HW1  376   0.887   2.139   2.264
  854SOL    HW2  377   1.034   2.096   2.323
  855SOL     OW  378   1.076   2.545   3.326
  855SOL    HW1  379   0.996   2.484   3.329
  855SOL    HW2  380   1.157   2.492   3.302
  856SOL     OW  381   1.227   3.432   2.655
  856SOL    HW1  382   1.248   3.506   2.590
  856SOL    HW2  383   1.295   3.432   2.728
  858SOL     OW  384   1.271   3.659   2.453
  858SOL    HW1  385   1.315   3.723   2.389
  858SOL    HW2  386   1.221   3.711   2.523
  859SOL     OW  387   1.032   2.411   1.878
  859SOL    HW1  388   0.991   2.493   1.839
  859SOL    HW2  389   1.096   2.437   1.951
  862SOL     OW  390   0.866   2.316   2.504
  862SOL    HW1  391   0.834   2.388   2.442
  862SOL    HW2  392   0.890   2.235   2.451
  863SOL     OW  393   1.017   1.901   2.615
  863SOL    HW1  394   0.945   1.906   2.546
  863SOL    HW2  395   0.993   1.832   2.684
  864SOL     OW  396   1.429   3.035   2.729
  864SOL    HW1  397   1.374   2.951   2.722
  864SOL    HW2  398   1.455   3.064   2.637
  865SOL     OW  399   1.466   2.452   2.854
  865SOL    HW1  400   1.436   2.357   2.861
  865SOL    HW2  401   1.539   2.468   2.920
  866SOL     OW  402   1.857   2.695   2.239
  866SOL    HW1  403   1.899   2.631   2.303
  866SOL    HW2  404   1.819   2.644   2.161
  868SOL     OW  405   1.664   3.142   2.519
  868SOL    HW1  406   1.763   3.150   2.533
  868SOL    HW2  407   1.619   3.226   2.550
  869SOL     OW  408   1.390   2.437   1.940
  869SOL    HW1  409   1.336   2.416   2.021
  869SOL    HW2  410   1.481   2.396   1.949
  871SOL     OW  411   1.754   3.085   3.450
  871SOL    HW1  412   1.845   3.046   3.437
  871SOL    HW2  413   1.762   3.181   3.474
  872SOL     OW  414   1.064   3.209   3.202
  872SOL    HW1  415   0.984   3.186   3.257
  872SOL    HW2  416   1.147   3.183   3.251
  873SOL     OW  417   1.592   3.491   3.487
  873SOL    HW1  418   1.619   3.525   3.397
  873SOL    HW2  419   1.671   3.453   3.533
  874SOL     OW  420   1.111   3.057   2.962
  874SOL    HW1  421   1.071   3.101   3.043
  874SOL    HW2  422   1.070   3.094   2.879
  875SOL     OW  423   1.638   2.961   2.941
  875SOL    HW1  424   1.643   3.042   3.000
  875SOL    HW2  425   1.552   2.963   2.890
  880SOL     OW  426   1.274   2.248   3.124
  880SOL    HW1  427   1.295   2.322   3.188
  880SOL    HW2  428   1.185   2.265   3.081
  884SOL     OW  429   1.252   3.210   2.250
  884SOL    HW1  430   1.302   3.287   2.290
  884SOL    HW2  431   1.157   3.212   2.282
  885SOL     OW  432   1.272   3.307   3.004
  885SOL    HW1  433   1.319   3.320   3.091
  885SOL    HW2  434   1.206   3.233   3.013
  886SOL     OW  435   1.582   2.501   2.334
  886SOL    HW1  436   1.551   2.562   2.407
  886SOL    HW2  437   1.632   2.553   2.265
  889SOL     OW  438   1.587   2.641   3.532
  889SOL    HW1  439   1.495   2.679   3.527
  889SOL    HW2  440   1.647   2.688   3.467
  893SOL     OW  441   1.360   2.724   2.907
  893SOL    HW1  442   1.285   2.724   2.841
  893SOL    HW2  443   1.397   2.632   2.916
  894SOL     OW  444   1.209   2.387   2.137
  894SOL    HW1  445   1.222   2.303   2.191
  894SOL    HW2  446   1.180   2.461   2.197
  897SOL     OW  447   0.732   2.496   2.926
  897SOL    HW1  448   0.791   2.470   2.850
  897SOL    HW2  449   0.704   2.592   2.915
  898SOL     OW  450   1.728   2.797   3.716
  898SOL    HW1  451   1.682   2.790   3.627
  898SOL    HW2  452   1.666   2.841   3.782
  900SOL     OW  453   1.622   2.229   2.236
  900SOL    HW1  454   1.624   2.153   2.300
  900SOL    HW2  455   1.574   2.306   2.276
  901SOL     OW  456   1.023   2.628   2.828
  901SOL    HW1  457   1.038   2.649   2.924
  901SOL    HW2  458   0.993   2.533   2.819
  903SOL     OW  459   1.859   3.380   3.467
  903SOL    HW1  460   1.873   3.407   3.372
  903SOL    HW2  461   1.942   3.402   3.520
  905SOL     OW  462   1.540   2.136   1.987
  905SOL    HW1  463   1.479   2.061   2.010
  905SOL    HW2  464   1.562   2.188   2.070
  906SOL     OW  465   1.303   2.700   1.904
  906SOL    HW1  466   1.337   2.607   1.919
  906SOL    HW2  467   1.321   2.727   1.809
  907SOL     OW  468   1.068   3.195   2.711
  907SOL    HW1  469   1.075   3.111   2.656
  907SOL    HW2  470   1.130   3.264   2.675
  910SOL     OW  471   1.138   2.242   3.540
  910SOL    HW1  472   1.093   2.305   3.604
  910SOL    HW2  473   1.231   2.273   3.523
  911SOL     OW  474   1.160   2.069   3.339
  911SOL    HW1  475   1.160   2.133   3.416
  911SOL    HW2  476   1.188   2.117   3.256
  915SOL     OW  477   1.002   2.658   3.100
  915SOL    HW1  478   1.043   2.626   3.186
  915SOL    HW2  479   0.906   2.631   3.097
  918SOL     OW  480   1.369   2.812   3.522
  918SOL    HW1  481   1.408   2.901   3.542
  918SOL    HW2  482   1.379   2.792   3.425
  919SOL     OW  483   0.815   2.434   2.187
  919SOL    HW1  484   0.822   2.345   2.141
  919SOL    HW2  485   0.721   2.468   2.179
  920SOL     OW  486   1.657   2.466   3.068
  920SOL    HW1  487   1.619   2.397   3.130
  920SOL    HW2  488   1.739   2.430   3.024
  926SOL     OW  489   1.347   2.921   3.096
  926SOL    HW1  490   1.371   2.858   3.022
  926SOL    HW2  491   1.257   2.961   3.078
  927SOL     OW  492   1.302   2.717   2.171
  927SOL    HW1  493   1.216   2.686   2.213
  927SOL    HW2  494   1.298   2.703   2.072
  928SOL     OW  495   1.759   3.609   3.016
  928SOL    HW1  496   1.820   3.639   2.943
  928SOL    HW2  497   1.721   3.520   2.994
  929SOL     OW  498   1.252   3.593   2.990
  929SOL    HW1  499   1.336   3.598   2.936
  929SOL    HW2  500   1.229   3.497   3.008
  932SOL     OW  501   1.726   1.997   2.385
  932SOL    HW1  502   1.799   1.980   2.318
  932SOL    HW2  503   1.695   1.910   2.423
  933SOL     OW  504   1.388   3.435   2.339
  933SOL    HW1  505   1.455   3.447   2.265
  933SOL    HW2  506   1.348   3.524   2.362
  935SOL     OW  507   1.280   2.789   2.534
  935SOL    HW1  508   1.340   2.708   2.536
  935SOL    HW2  509   1.320   2.858   2.474
  938SOL     OW  510   1.650   3.582   3.256
  938SOL    HW1  511   1.703   3.592   3.172
  938SOL    HW2  512   1.623   3.672   3.290
  939SOL     OW  513   1.841   2.037   2.825
  939SOL    HW1  514   1.880   1.952   2.789
  939SOL    HW2  515   1.743   2.039   2.806
  941SOL     OW  516   1.194   3.474   1.893
  941SOL    HW1  517   1.200   3.381   1.930
  941SOL    HW2  518   1.135   3.474   1.813
  943SOL     OW  519   0.916   2.772   2.153
  943SOL    HW1  520   0.979   2.810   2.085
  943SOL    HW2  521   0.956   2.689   2.192
  944SOL     OW  522   1.504   3.469   1.906
  944SOL    HW1  523   1.412   3.506   1.913
  944SOL    HW2  524   1.542   3.489   1.816
  946SOL     OW  525   1.614   3.154   3.151
  946SOL    HW1  526   1.674   3.157   3.231
  946SOL    HW2  527   1.539   3.218   3.164
  947SOL     OW  528   1.039   2.960   2.558
  947SOL    HW1  529   0.969   2.913   2.612
  947SOL    HW2  530   1.098   2.892   2.515
  948SOL     OW  531   1.014   2.098   2.833
  948SOL    HW1  532   1.006   2.062   2.740
  948SOL    HW2  533   1.012   2.022   2.898
  950SOL     OW  534   1.709   2.247   3.243
  950SOL    HW1  535   1.782   2.316   3.247
  950SOL    HW2  536   1.737   2.172   3.184
  955SOL     OW  537   1.440   2.718   3.260
  955SOL    HW1  538   1.383   2.770   3.197
  955SOL    HW2  539   1.536   2.730   3.236
  957SOL     OW  540   1.183   3.197   1.981
  957SOL    HW1  541   1.084   3.186   1.983
  957SOL    HW2  542   1.217   3.212   2.074
  959SOL     OW  543   1.493   3.629   2.821
  959SOL    HW1  544   1.526   3.693   2.752
  959SOL    HW2  545   1.559   3.623   2.896
  961SOL     OW  546   1.450   3.082   3.495
  961SOL    HW1  547   1.441   3.072   3.594
  961SOL    HW2  548   1.546   3.075   3.469
  963SOL     OW  549   1.674   2.745   3.116
  963SOL    HW1  550   1.647   2.656   3.079
  963SOL    HW2  551   1.675   2.813   3.043
  964SOL     OW  552   1.225   2.187   2.311
  964SOL    HW1  553   1.290   2.113   2.300
  964SOL    HW2  554   1.245   2.237   2.395
  966SOL     OW  555   1.777   2.204   3.504
  966SOL    HW1  556   1.760   2.235   3.410
  966SOL    HW2  557   1.693   2.167   3.542
  967SOL     OW  558   1.730   2.796   3.379
  967SOL    HW1  559   1.768   2.887   3.394
  967SOL    HW2  560   1.722   2.779   3.280
  970SOL     OW  561   0.859   2.818   2.723
  970SOL    HW1  562   0.913   2.749   2.771
  970SOL    HW2  563   0.827   2.887   2.789
  971SOL     OW  564   1.083   2.846   1.949
  971SOL    HW1  565   1.060   2.899   1.867
  971SOL    HW2  566   1.164   2.790   1.930
  972SOL     OW  567   1.861   3.431   2.713
  972SOL    HW1  568   1.790   3.419   2.643
  972SOL    HW2  569   1.862   3.352   2.773
  976SOL     OW  570   1.824   2.054   3.089
  976SOL    HW1  571   1.820   1.964   3.133
  976SOL    HW2  572   1.827   2.043   2.990
  978SOL     OW  573   1.705   3.349   2.966
  978SOL    HW1  574   1.612   3.324   2.939
  978SOL    HW2  575   1.731   3.299   3.048
  981SOL     OW  576   1.424   2.076   2.974
  981SOL    HW1  577   1.476   2.011   3.029
  981SOL    HW2  578   1.375   2.139   3.035
  982SOL     OW  579   1.001   1.896   3.016
  982SOL    HW1  580   0.938   1.824   2.985
  982SOL    HW2  581   1.094   1.860   3.016
  985SOL     OW  582   1.352   1.914   2.030
  985SOL    HW1  583   1.387   1.873   1.946
  985SOL    HW2  584   1.262   1.876   2.050
  986SOL     OW  585   1.300   2.315   2.553
  986SOL    HW1  586   1.241   2.395   2.557
  986SOL    HW2  587   1.315   2.280   2.646
  987SOL     OW  588   1.593   2.083   2.744
  987SOL    HW1  589   1.509   2.082   2.798
  987SOL    HW2  590   1.595   2.166   2.688
  996SOL     OW  591   1.755   2.469   3.955
  996SOL    HW1  592   1.743   2.456   3.856
  996SOL    HW2  593   1.725   2.388   4.004
 1013SOL     OW  594   1.525   2.861   3.914
 1013SOL    HW1  595   1.462   2.785   3.927
 1013SOL    HW2  596   1.573   2.879   4.000
 1030SOL     OW  597   1.632   3.239   3.805
 1030SOL    HW1  598   1.600   3.333   3.795
 1030SOL    HW2  599   1.556   3.176   3.793
 1040SOL     OW  600   1.434   3.050   3.765
 1040SOL    HW1  601   1.466   2.974   3.822
 1040SOL    HW2  602   1.342   3.077   3.795
 1051SOL     OW  603   1.857   2.695   4.101
 1051SOL    HW1  604   1.899   2.631   4.165
 1051SOL    HW2  605   1.819   2.644   4.023
 1054SOL     OW  606   1.390   2.437   3.802
 1054SOL    HW1  607   1.336   2.416   3.883
 1054SOL    HW2  608   1.481   2.396   3.811
 1072SOL     OW  609   1.540   2.136   3.849
 1072SOL    HW1  610   1.479   2.061   3.872
 1072SOL    HW2  611   1.562   2.188   3.932
 1073SOL     OW  612   1.303   2.700   3.766
 1073SOL    HW1  613   1.337   2.607   3.781
 1073SOL    HW2  614   1.321   2.727   3.671
 1304SOL     OW  615   1.400   3.831   2.288
 1304SOL    HW1  616   1.376   3.794   2.198
 1304SOL    HW2  617   1.499   3.847   2.292
 1368SOL     OW  618   1.726   3.859   2.385
 1368SOL    HW1  619   1.799   3.842   2.318
 1368SOL    HW2  620   1.695   3.772   2.423
 1370SOL     OW  621   1.841   3.899   2.825
 1370SOL    HW1  622   1.880   3.814   2.789
 1370SOL    HW2  623   1.743   3.901   2.806
 1393SOL     OW  624   1.824   3.916   3.089
 1393SOL    HW1  625   1.820   3.826   3.133
 1393SOL    HW2  626   1.827   3.905   2.990
 1399SOL     OW  627   1.352   3.776   2.030
 1399SOL    HW1  628   1.387   3.735   1.946
 1399SOL    HW2  629   1.262   3.738   2.050
 1401SOL     OW  630   1.593   3.945   2.744
 1401SOL    HW1  631   1.509   3.944   2.798
 1401SOL    HW2  632   1.595   4.028   2.688
 1501SOL     OW  633   2.431   1.275   1.165
 1501SOL    HW1  634   2.338   1.268   1.128
 1501SOL    HW2  635   2.442   1.364   1.209
 1508SOL     OW  636   2.548   1.161   1.803
 1508SOL    HW1  637   2.608   1.240   1.817
 1508SOL    HW2  638   2.462   1.192   1.762
 1509SOL     OW  639   2.197   1.435   1.061
 1509SOL    HW1  640   2.119   1.404   1.008
 1509SOL    HW2  641   2.255   1.493   1.004
 1510SOL     OW  642   3.322   1.505   1.339
 1510SOL    HW1  643   3.346   1.599   1.365
 1510SOL    HW2  644   3.306   1.451   1.421
 1514SOL     OW  645   2.989   1.341   1.690
 1514SOL    HW1  646   3.036   1.341   1.778
 1514SOL    HW2  647   2.941   1.254   1.679
 1517SOL     OW  648   2.482   1.786   1.439
 1517SOL    HW1  649   2.390   1.769   1.474
 1517SOL    HW2  650   2.510   1.878   1.465
 1527SOL     OW  651   3.155   1.228   1.423
 1527SOL    HW1  652   3.192   1.155   1.365
 1527SOL    HW2  653   3.207   1.233   1.508
 1531SOL     OW  654   3.049   1.792   1.616
 1531SOL    HW1  655   3.073   1.852   1.540
 1531SOL    HW2  656   3.056   1.697   1.586
 1544SOL     OW  657   1.992   1.821   1.571
 1544SOL    HW1  658   1.982   1.806   1.670
 1544SOL    HW2  659   1.906   1.857   1.535
 1550SOL     OW  660   2.213   1.801   0.853
 1550SOL    HW1  661   2.263   1.715   0.859
 1550SOL    HW2  662   2.278   1.878   0.850
 1552SOL     OW  663   3.089   1.550   1.506
 1552SOL    HW1  664   3.095   1.473   1.570
 1552SOL    HW2  665   3.037   1.524   1.426
 1555SOL     OW  666   2.323   1.266   1.727
 1555SOL    HW1  667   2.273   1.267   1.641
 1555SOL    HW2  668   2.260   1.248   1.803
 1561SOL     OW  669   2.111   1.785   1.241
 1561SOL    HW1  670   2.168   1.720   1.291
 1561SOL    HW2  671   2.095   1.752   1.148
 1562SOL     OW  672   2.802   1.698   0.904
 1562SOL    HW1  673   2.882   1.641   0.925
 1562SOL    HW2  674   2.753   1.658   0.827
 1567SOL     OW  675   2.750   1.514   1.195
 1567SOL    HW1  676   2.727   1.489   1.101
 1567SOL    HW2  677   2.811   1.445   1.234
 1592SOL     OW  678   2.926   1.347   1.340
 1592SOL    HW1  679   2.846   1.324   1.395
 1592SOL    HW2  680   3.009   1.321   1.389
 1593SOL     OW  681   3.454   1.629   1.625
 1593SOL    HW1  682   3.481   1.663   1.535
 1593SOL    HW2  683   3.533   1.591   1.671
 1597SOL     OW  684   2.842   1.116   1.719
 1597SOL    HW1  685   2.743   1.122   1.729
 1597SOL    HW2  686   2.865   1.036   1.663
 1601SOL     OW  687   1.926   1.564   1.331
 1601SOL    HW1  688   1.880   1.646   1.297
 1601SOL    HW2  689   2.024   1.583   1.340
 1607SOL     OW  690   2.216   1.510   1.329
 1607SOL    HW1  691   2.195   1.466   1.242
 1607SOL    HW2  692   2.313   1.536   1.332
 1616SOL     OW  693   1.899   1.310   1.282
 1616SOL    HW1  694   1.952   1.261   1.350
 1616SOL    HW2  695   1.921   1.408   1.287
 1622SOL     OW  696   2.842   1.573   1.700
 1622SOL    HW1  697   2.822   1.617   1.612
 1622SOL    HW2  698   2.881   1.482   1.684
 1623SOL     OW  699   3.721   1.518   1.605
 1623SOL    HW1  700   3.735   1.545   1.510
 1623SOL    HW2  701   3.804   1.540   1.658
 1624SOL     OW  702   2.212   0.898   1.804
 1624SOL    HW1  703   2.288   0.942   1.852
 1624SOL    HW2  704   2.247   0.851   1.722
 1633SOL     OW  705   1.950   1.801   0.927
 1633SOL    HW1  706   1.908   1.715   0.900
 1633SOL    HW2  707   2.044   1.804   0.893
 1641SOL     OW  708   2.114   1.564   1.744
 1641SOL    HW1  709   2.084   1.621   1.820
 1641SOL    HW2  710   2.107   1.467   1.770
 1643SOL     OW  711   2.792   1.678   1.465
 1643SOL    HW1  712   2.768   1.660   1.370
 1643SOL    HW2  713   2.822   1.772   1.475
 1645SOL     OW  714   2.021   1.137   1.466
 1645SOL    HW1  715   2.043   1.076   1.542
 1645SOL    HW2  716   2.031   1.088   1.380
 1649SOL     OW  717   3.114   1.731   1.128
 1649SOL    HW1  718   3.198   1.736   1.074
 1649SOL    HW2  719   3.091   1.635   1.146
 1651SOL     OW  720   2.550   1.662   1.716
 1651SOL    HW1  721   2.494   1.743   1.725
 1651SOL    HW2  722   2.602   1.666   1.630
 1655SOL     OW  723   1.992   1.794   1.851
 1655SOL    HW1  724   1.951   1.720   1.904
 1655SOL    HW2  725   2.056   1.845   1.909
 1657SOL     OW  726   2.692   1.273   1.422
 1657SOL    HW1  727   2.687   1.306   1.517
 1657SOL    HW2  728   2.606   1.292   1.376
 1659SOL     OW  729   3.512   1.720   1.394
 1659SOL    HW1  730   3.565   1.730   1.310
 1659SOL    HW2  731   3.485   1.810   1.428
 1666SOL     OW  732   2.234   1.288   1.490
 1666SOL    HW1  733   2.221   1.381   1.456
 1666SOL    HW2  734   2.150   1.236   1.477
 1673SOL     OW  735   1.967   1.013   1.726
 1673SOL    HW1  736   1.890   0.980   1.780
 1673SOL    HW2  737   2.052   0.983   1.768
 1681SOL     OW  738   3.312   1.220   1.633
 1681SOL    HW1  739   3.303   1.210   1.732
 1681SOL    HW2  740   3.408   1.213   1.607
 1682SOL     OW  741   2.252   1.741   1.560
 1682SOL    HW1  742   2.161   1.782   1.558
 1682SOL    HW2  743   2.245   1.647   1.592
 1689SOL     OW  744   2.523   1.790   0.953
 1689SOL    HW1  745   2.477   1.878   0.940
 1689SOL    HW2  746   2.622   1.802   0.946
 1693SOL     OW  747   2.083   1.314   1.844
 1693SOL    HW1  748   2.018   1.241   1.823
 1693SOL    HW2  749   2.087   1.328   1.942
 1695SOL     OW  750   2.534   1.391   1.624
 1695SOL    HW1  751   2.456   1.341   1.662
 1695SOL    HW2  752   2.531   1.486   1.655
 1704SOL     OW  753   2.480   1.567   1.284
 1704SOL    HW1  754   2.475   1.649   1.341
 1704SOL    HW2  755   2.569   1.564   1.239
 1713SOL     OW  756   2.431   1.275   3.027
 1713SOL    HW1  757   2.338   1.268   2.990
 1713SOL    HW2  758   2.442   1.364   3.071
 1714SOL     OW  759   3.417   1.511   2.565
 1714SOL    HW1  760   3.360   1.495   2.646
 1714SOL    HW2  761   3.358   1.521   2.485
 1717SOL     OW  762   2.630   1.144   2.885
 1717SOL    HW1  763   2.552   1.161   2.945
 1717SOL    HW2  764   2.664   1.231   2.849
 1719SOL     OW  765   2.547   1.012   2.527
 1719SOL    HW1  766   2.616   0.996   2.597
 1719SOL    HW2  767   2.474   1.069   2.565
 1720SOL     OW  768   2.548   1.161   3.665
 1720SOL    HW1  769   2.608   1.240   3.679
 1720SOL    HW2  770   2.462   1.192   3.624
 1721SOL     OW  771   2.197   1.435   2.923
 1721SOL    HW1  772   2.119   1.404   2.870
 1721SOL    HW2  773   2.255   1.493   2.866
 1722SOL     OW  774   3.322   1.505   3.201
 1722SOL    HW1  775   3.346   1.599   3.227
 1722SOL    HW2  776   3.306   1.451   3.283
 1725SOL     OW  777   2.093   1.713   2.345
 1725SOL    HW1  778   2.127   1.790   2.399
 1725SOL    HW2  779   2.137   1.713   2.255
 1726SOL     OW  780   2.989   1.341   3.552
 1726SOL    HW1  781   3.036   1.341   3.640
 1726SOL    HW2  782   2.941   1.254   3.541
 1727SOL     OW  783   2.092   1.434   2.400
 1727SOL    HW1  784   2.066   1.530   2.400
 1727SOL    HW2  785   2.021   1.380   2.445
 1728SOL     OW  786   2.102   1.091   2.748
 1728SOL    HW1  787   2.116   1.007   2.800
 1728SOL    HW2  788   2.047   1.155   2.803
 1729SOL     OW  789   2.482   1.786   3.301
 1729SOL    HW1  790   2.390   1.769   3.336
 1729SOL    HW2  791   2.510   1.878   3.327
 1730SOL     OW  792   2.468   0.964   1.985
 1730SOL    HW1  793   2.475   1.048   1.931
 1730SOL    HW2  794   2.514   0.977   2.073
 1733SOL     OW  795   3.704   1.767   2.221
 1733SOL    HW1  796   3.758   1.738   2.301
 1733SOL    HW2  797   3.734   1.857   2.192
 1734SOL     OW  798   1.889   1.596   1.979
 1734SOL    HW1  799   1.870   1.500   2.000
 1734SOL    HW2  800   1.856   1.654   2.054
 1736SOL     OW  801   3.503   1.108   2.294
 1736SOL    HW1  802   3.589   1.110   2.242
 1736SOL    HW2  803   3.517   1.155   2.382
 1738SOL     OW  804   2.475   1.365   2.588
 1738SOL    HW1  805   2.426   1.278   2.597
 1738SOL    HW2  806   2.452   1.408   2.501
 1739SOL     OW  807   3.155   1.228   3.285
 1739SOL    HW1  808   3.192   1.155   3.227
 1739SOL    HW2  809   3.207   1.233   3.370
 1741SOL     OW  810   2.059   0.976   3.126
 1741SOL    HW1  811   2.148   0.931   3.112
 1741SOL    HW2  812   1.986   0.911   3.107
 1742SOL     OW  813   3.387   0.999   2.052
 1742SOL    HW1  814   3.324   0.923   2.065
 1742SOL    HW2  815   3.435   1.017   2.138
 1743SOL     OW  816   3.049   1.792   3.478
 1743SOL    HW1  817   3.073   1.852   3.402
 1743SOL    HW2  818   3.056   1.697   3.448
 1745SOL     OW  819   3.328   1.417   2.815
 1745SOL    HW1  820   3.269   1.423   2.895
 1745SOL    HW2  821   3.313   1.329   2.769
 1746SOL     OW  822   3.529   1.714   2.434
 1746SOL    HW1  823   3.488   1.691   2.346
 1746SOL    HW2  824   3.511   1.640   2.499
 1747SOL     OW  825   2.460   0.729   2.132
 1747SOL    HW1  826   2.484   0.798   2.064
 1747SOL    HW2  827   2.382   0.762   2.186
 1749SOL     OW  828   3.438   1.662   2.169
 1749SOL    HW1  829   3.527   1.708   2.172
 1749SOL    HW2  830   3.417   1.638   2.074
 1755SOL     OW  831   1.938   0.811   2.651
 1755SOL    HW1  832   2.037   0.799   2.660
 1755SOL    HW2  833   1.914   0.906   2.672
 1756SOL     OW  834   1.992   1.821   3.433
 1756SOL    HW1  835   1.982   1.806   3.532
 1756SOL    HW2  836   1.906   1.857   3.397
 1759SOL     OW  837   3.224   1.144   2.407
 1759SOL    HW1  838   3.307   1.115   2.359
 1759SOL    HW2  839   3.175   1.211   2.351
 1761SOL     OW  840   2.870   1.456   2.339
 1761SOL    HW1  841   2.824   1.528   2.287
 1761SOL    HW2  842   2.866   1.476   2.437
 1762SOL     OW  843   2.213   1.801   2.715
 1762SOL    HW1  844   2.263   1.715   2.721
 1762SOL    HW2  845   2.278   1.878   2.712
 1764SOL     OW  846   3.089   1.550   3.368
 1764SOL    HW1  847   3.095   1.473   3.432
 1764SOL    HW2  848   3.037   1.524   3.288
 1765SOL     OW  849   2.183   0.943   2.104
 1765SOL    HW1  850   2.265   0.982   2.062
 1765SOL    HW2  851   2.156   0.861   2.055
 1767SOL     OW  852   2.323   1.266   3.589
 1767SOL    HW1  853   2.273   1.267   3.503
 1767SOL    HW2  854   2.260   1.248   3.665
 1768SOL     OW  855   2.973   1.776   2.099
 1768SOL    HW1  856   2.913   1.714   2.149
 1768SOL    HW2  857   3.004   1.732   2.014
 1770SOL     OW  858   3.494   1.377   1.943
 1770SOL    HW1  859   3.462   1.471   1.933
 1770SOL    HW2  860   3.418   1.314   1.931
 1771SOL     OW  861   2.326   1.743   2.185
 1771SOL    HW1  862   2.359   1.782   2.271
 1771SOL    HW2  863   2.402   1.736   2.120
 1773SOL     OW  864   2.111   1.785   3.103
 1773SOL    HW1  865   2.168   1.720   3.153
 1773SOL    HW2  866   2.095   1.752   3.010
 1774SOL     OW  867   2.802   1.698   2.766
 1774SOL    HW1  868   2.882   1.641   2.787
 1774SOL    HW2  869   2.753   1.658   2.689
 1775SOL     OW  870   2.244   0.700   2.342
 1775SOL    HW1  871   2.289   0.610   2.339
 1775SOL    HW2  872   2.150   0.689   2.375
 1779SOL     OW  873   2.750   1.514   3.057
 1779SOL    HW1  874   2.727   1.489   2.963
 1779SOL    HW2  875   2.811   1.445   3.096
 1781SOL     OW  876   2.665   1.402   2.786
 1781SOL    HW1  877   2.755   1.416   2.744
 1781SOL    HW2  878   2.594   1.404   2.715
 1784SOL     OW  879   3.296   1.188   1.903
 1784SOL    HW1  880   3.328   1.112   1.960
 1784SOL    HW2  881   3.204   1.215   1.933
 1788SOL     OW  882   3.089   1.570   2.655
 1788SOL    HW1  883   3.110   1.644   2.590
 1788SOL    HW2  884   3.157   1.570   2.728
 1789SOL     OW  885   2.321   1.152   2.603
 1789SOL    HW1  886   2.250   1.125   2.668
 1789SOL    HW2  887   2.295   1.124   2.510
 1790SOL     OW  888   3.133   1.797   2.453
 1790SOL    HW1  889   3.177   1.861   2.389
 1790SOL    HW2  890   3.083   1.849   2.523
 1796SOL     OW  891   3.291   1.173   2.729
 1796SOL    HW1  892   3.236   1.089   2.722
 1796SOL    HW2  893   3.317   1.202   2.637
 1799SOL     OW  894   2.350   1.385   2.036
 1799SOL    HW1  895   2.263   1.370   2.083
 1799SOL    HW2  896   2.333   1.411   1.941
 1800SOL     OW  897   3.526   1.280   2.519
 1800SOL    HW1  898   3.625   1.288   2.533
 1800SOL    HW2  899   3.481   1.364   2.550
 1804SOL     OW  900   2.926   1.347   3.202
 1804SOL    HW1  901   2.846   1.324   3.257
 1804SOL    HW2  902   3.009   1.321   3.251
 1805SOL     OW  903   3.454   1.629   3.487
 1805SOL    HW1  904   3.481   1.663   3.397
 1805SOL    HW2  905   3.533   1.591   3.533
 1806SOL     OW  906   2.973   1.195   2.962
 1806SOL    HW1  907   2.933   1.239   3.043
 1806SOL    HW2  908   2.932   1.232   2.879
 1807SOL     OW  909   3.500   1.099   2.941
 1807SOL    HW1  910   3.505   1.180   3.000
 1807SOL    HW2  911   3.414   1.101   2.890
 1809SOL     OW  912   2.842   1.116   3.581
 1809SOL    HW1  913   2.743   1.122   3.591
 1809SOL    HW2  914   2.865   1.036   3.525
 1810SOL     OW  915   2.567   1.050   2.230
 1810SOL    HW1  916   2.553   1.057   2.329
 1810SOL    HW2  917   2.651   0.999   2.212
 1811SOL     OW  918   2.272   0.813   3.113
 1811SOL    HW1  919   2.358   0.825   3.163
 1811SOL    HW2  920   2.230   0.726   3.140
 1813SOL     OW  921   1.926   1.564   3.193
 1813SOL    HW1  922   1.880   1.646   3.159
 1813SOL    HW2  923   2.024   1.583   3.202
 1814SOL     OW  924   2.229   1.100   2.363
 1814SOL    HW1  925   2.222   1.183   2.307
 1814SOL    HW2  926   2.233   1.020   2.303
 1816SOL     OW  927   3.114   1.348   2.250
 1816SOL    HW1  928   3.164   1.425   2.290
 1816SOL    HW2  929   3.019   1.350   2.282
 1817SOL     OW  930   3.134   1.445   3.004
 1817SOL    HW1  931   3.181   1.458   3.091
 1817SOL    HW2  932   3.068   1.371   3.013
 1819SOL     OW  933   2.216   1.510   3.191
 1819SOL    HW1  934   2.195   1.466   3.104
 1819SOL    HW2  935   2.313   1.536   3.194
 1824SOL     OW  936   2.435   0.870   2.891
 1824SOL    HW1  937   2.479   0.959   2.882
 1824SOL    HW2  938   2.372   0.870   2.968
 1828SOL     OW  939   1.899   1.310   3.144
 1828SOL    HW1  940   1.952   1.261   3.212
 1828SOL    HW2  941   1.921   1.408   3.149
 1833SOL     OW  942   2.885   0.766   2.828
 1833SOL    HW1  943   2.900   0.787   2.924
 1833SOL    HW2  944   2.855   0.671   2.819
 1834SOL     OW  945   2.842   1.573   3.562
 1834SOL    HW1  946   2.822   1.617   3.474
 1834SOL    HW2  947   2.881   1.482   3.546
 1839SOL     OW  948   2.930   1.333   2.711
 1839SOL    HW1  949   2.937   1.249   2.656
 1839SOL    HW2  950   2.992   1.402   2.675
 1840SOL     OW  951   2.181   0.810   2.811
 1840SOL    HW1  952   2.274   0.846   2.816
 1840SOL    HW2  953   2.175   0.725   2.863
 1844SOL     OW  954   1.870   1.326   2.062
 1844SOL    HW1  955   1.777   1.347   2.031
 1844SOL    HW2  956   1.880   1.227   2.075
 1845SOL     OW  957   1.950   1.801   2.789
 1845SOL    HW1  958   1.908   1.715   2.762
 1845SOL    HW2  959   2.044   1.804   2.755
 1846SOL     OW  960   2.366   1.568   2.772
 1846SOL    HW1  961   2.432   1.642   2.781
 1846SOL    HW2  962   2.410   1.489   2.730
 1853SOL     OW  963   2.114   1.564   3.606
 1853SOL    HW1  964   2.084   1.621   3.682
 1853SOL    HW2  965   2.107   1.467   3.632
 1855SOL     OW  966   2.792   1.678   3.327
 1855SOL    HW1  967   2.768   1.660   3.232
 1855SOL    HW2  968   2.822   1.772   3.337
 1857SOL     OW  969   2.021   1.137   3.328
 1857SOL    HW1  970   2.043   1.076   3.404
 1857SOL    HW2  971   2.031   1.088   3.242
 1858SOL     OW  972   3.209   1.059   3.096
 1858SOL    HW1  973   3.233   0.996   3.022
 1858SOL    HW2  974   3.119   1.099   3.078
 1859SOL     OW  975   3.164   0.855   2.171
 1859SOL    HW1  976   3.078   0.824   2.213
 1859SOL    HW2  977   3.160   0.841   2.072
 1860SOL     OW  978   3.621   1.747   3.016
 1860SOL    HW1  979   3.682   1.777   2.943
 1860SOL    HW2  980   3.583   1.658   2.994
 1861SOL     OW  981   3.114   1.731   2.990
 1861SOL    HW1  982   3.198   1.736   2.936
 1861SOL    HW2  983   3.091   1.635   3.008
 1862SOL     OW  984   1.945   1.258   2.884
 1862SOL    HW1  985   1.940   1.257   2.984
 1862SOL    HW2  986   1.862   1.217   2.846
 1863SOL     OW  987   2.550   1.662   3.578
 1863SOL    HW1  988   2.494   1.743   3.587
 1863SOL    HW2  989   2.602   1.666   3.492
 1865SOL     OW  990   3.250   1.573   2.339
 1865SOL    HW1  991   3.317   1.585   2.265
 1865SOL    HW2  992   3.210   1.662   2.362
 1866SOL     OW  993   1.992   1.794   3.713
 1866SOL    HW1  994   1.951   1.720   3.766
 1866SOL    HW2  995   2.056   1.845   3.771
 1867SOL     OW  996   3.142   0.927   2.534
 1867SOL    HW1  997   3.202   0.846   2.536
 1867SOL    HW2  998   3.182   0.996   2.474
 1868SOL     OW  999   2.692   1.273   3.284
 1868SOL    HW1 1000   2.687   1.306   3.379
 1868SOL    HW2 1001   2.606   1.292   3.238
 1869SOL     OW 1002   2.534   1.616   2.016
 1869SOL    HW1 1003   2.543   1.626   1.917
 1869SOL    HW2 1004   2.494   1.527   2.037
 1870SOL     OW 1005   3.512   1.720   3.256
 1870SOL    HW1 1006   3.565   1.730   3.172
 1870SOL    HW2 1007   3.485   1.810   3.290
 1873SOL     OW 1008   3.056   1.612   1.893
 1873SOL    HW1 1009   3.062   1.519   1.930
 1873SOL    HW2 1010   2.997   1.612   1.813
 1874SOL     OW 1011   2.684   1.002   3.234
 1874SOL    HW1 1012   2.724   1.001   3.142
 1874SOL    HW2 1013   2.694   1.094   3.274
 1875SOL     OW 1014   2.778   0.910   2.153
 1875SOL    HW1 1015   2.841   0.948   2.085
 1875SOL    HW2 1016   2.818   0.827   2.192
 1876SOL     OW 1017   3.366   1.607   1.906
 1876SOL    HW1 1018   3.274   1.644   1.913
 1876SOL    HW2 1019   3.404   1.627   1.816
 1877SOL     OW 1020   2.234   1.288   3.352
 1877SOL    HW1 1021   2.221   1.381   3.318
 1877SOL    HW2 1022   2.150   1.236   3.339
 1878SOL     OW 1023   3.476   1.292   3.151
 1878SOL    HW1 1024   3.536   1.295   3.231
 1878SOL    HW2 1025   3.401   1.356   3.164
 1879SOL     OW 1026   2.901   1.098   2.558
 1879SOL    HW1 1027   2.831   1.051   2.612
 1879SOL    HW2 1028   2.960   1.030   2.515
 1881SOL     OW 1029   2.452   1.487   2.353
 1881SOL    HW1 1030   2.494   1.429   2.283
 1881SOL    HW2 1031   2.408   1.566   2.309
 1883SOL     OW 1032   2.117   1.348   2.152
 1883SOL    HW1 1033   2.021   1.349   2.125
 1883SOL    HW2 1034   2.129   1.401   2.236
 1889SOL     OW 1035   3.045   1.335   1.981
 1889SOL    HW1 1036   2.946   1.324   1.983
 1889SOL    HW2 1037   3.079   1.350   2.074
 1891SOL     OW 1038   3.355   1.767   2.821
 1891SOL    HW1 1039   3.388   1.831   2.752
 1891SOL    HW2 1040   3.421   1.761   2.896
 1894SOL     OW 1041   2.252   1.741   3.422
 1894SOL    HW1 1042   2.161   1.782   3.420
 1894SOL    HW2 1043   2.245   1.647   3.454
 1897SOL     OW 1044   2.456   0.745   2.514
 1897SOL    HW1 1045   2.506   0.830   2.495
 1897SOL    HW2 1046   2.368   0.747   2.466
 1900SOL     OW 1047   2.721   1.374   1.878
 1900SOL    HW1 1048   2.675   1.389   1.966
 1900SOL    HW2 1049   2.765   1.459   1.848
 1901SOL     OW 1050   2.523   1.790   2.815
 1901SOL    HW1 1051   2.477   1.878   2.802
 1901SOL    HW2 1052   2.622   1.802   2.808
 1902SOL     OW 1053   2.721   0.956   2.723
 1902SOL    HW1 1054   2.775   0.887   2.771
 1902SOL    HW2 1055   2.689   1.025   2.789
 1903SOL     OW 1056   2.945   0.984   1.949
 1903SOL    HW1 1057   2.922   1.037   1.867
 1903SOL    HW2 1058   3.026   0.928   1.930
 1904SOL     OW 1059   3.723   1.569   2.713
 1904SOL    HW1 1060   3.652   1.557   2.643
 1904SOL    HW2 1061   3.724   1.490   2.773
 1905SOL     OW 1062   2.083   1.314   3.706
 1905SOL    HW1 1063   2.018   1.241   3.685
 1905SOL    HW2 1064   2.087   1.328   3.804
 1906SOL     OW 1065   1.941   1.240   2.515
 1906SOL    HW1 1066   1.940   1.193   2.603
 1906SOL    HW2 1067   2.023   1.212   2.464
 1907SOL     OW 1068   2.534   1.391   3.486
 1907SOL    HW1 1069   2.456   1.341   3.524
 1907SOL    HW2 1070   2.531   1.486   3.517
 1910SOL     OW 1071   3.567   1.487   2.966
 1910SOL    HW1 1072   3.474   1.462   2.939
 1910SOL    HW2 1073   3.593   1.437   3.048
 1912SOL     OW 1074   2.674   1.586   2.549
 1912SOL    HW1 1075   2.706   1.596   2.455
 1912SOL    HW2 1076   2.595   1.524   2.551
 1915SOL     OW 1077   2.632   1.330   2.163
 1915SOL    HW1 1078   2.586   1.243   2.180
 1915SOL    HW2 1079   2.723   1.327   2.204
 1916SOL     OW 1080   2.480   1.567   3.146
 1916SOL    HW1 1081   2.475   1.649   3.203
 1916SOL    HW2 1082   2.569   1.564   3.101
 1920SOL     OW 1083   1.901   1.077   2.162
 1920SOL    HW1 1084   2.000   1.066   2.153
 1920SOL    HW2 1085   1.861   0.991   2.194
 1921SOL     OW 1086   2.737   1.646   2.199
 1921SOL    HW1 1087   2.660   1.611   2.145
 1921SOL    HW2 1088   2.705   1.717   2.261
 1939SOL     OW 1089   1.889   1.596   3.841
 1939SOL    HW1 1090   1.870   1.500   3.862
 1939SOL    HW2 1091   1.856   1.654   3.916
 1961SOL     OW 1092   2.973   1.776   3.961
 1961SOL    HW1 1093   2.913   1.714   4.011
 1961SOL    HW2 1094   3.004   1.732   3.876
 1963SOL     OW 1095   2.326   1.743   4.047
 1963SOL    HW1 1096   2.359   1.782   4.133
 1963SOL    HW2 1097   2.402   1.736   3.982
 1984SOL     OW 1098   2.350   1.385   3.898
 1984SOL    HW1 1099   2.263   1.370   3.945
 1984SOL    HW2 1100   2.333   1.411   3.803
 2024SOL     OW 1101   2.534   1.616   3.878
 2024SOL    HW1 1102   2.543   1.626   3.779
 2024SOL    HW2 1103   2.494   1.527   3.899
 2027SOL     OW 1104   3.056   1.612   3.755
 2027SOL    HW1 1105   3.062   1.519   3.792
 2027SOL    HW2 1106   2.997   1.612   3.675
 2030SOL     OW 1107   3.366   1.607   3.768
 2030SOL    HW1 1108   3.274   1.644   3.775
 2030SOL    HW2 1109   3.404   1.627   3.678
 2043SOL     OW 1110   2.721   1.374   3.740
 2043SOL    HW1 1111   2.675   1.389   3.828
 2043SOL    HW2 1112   2.765   1.459   3.710
 2061SOL     OW 1113   2.087   2.137   0.996
 2061SOL    HW1 1114   2.122   2.120   1.088
 2061SOL    HW2 1115   1.999   2.092   0.984
 2063SOL     OW 1116   2.431   3.137   1.165
 2063SOL    HW1 1117   2.338   3.130   1.128
 2063SOL    HW2 1118   2.442   3.226   1.209
 2067SOL     OW 1119   2.630   3.006   1.023
 2067SOL    HW1 1120   2.552   3.023   1.083
 2067SOL    HW2 1121   2.664   3.093   0.987
 2068SOL     OW 1122   2.712   2.660   1.823
 2068SOL    HW1 1123   2.708   2.736   1.888
 2068SOL    HW2 1124   2.734   2.696   1.732
 2070SOL     OW 1125   2.548   3.023   1.803
 2070SOL    HW1 1126   2.608   3.102   1.817
 2070SOL    HW2 1127   2.462   3.054   1.762
 2071SOL     OW 1128   2.197   3.297   1.061
 2071SOL    HW1 1129   2.119   3.266   1.008
 2071SOL    HW2 1130   2.255   3.355   1.004
 2072SOL     OW 1131   3.322   3.367   1.339
 2072SOL    HW1 1132   3.346   3.461   1.365
 2072SOL    HW2 1133   3.306   3.313   1.421
 2073SOL     OW 1134   2.300   2.254   1.499
 2073SOL    HW1 1135   2.382   2.198   1.508
 2073SOL    HW2 1136   2.219   2.196   1.503
 2076SOL     OW 1137   2.989   3.203   1.690
 2076SOL    HW1 1138   3.036   3.203   1.778
 2076SOL    HW2 1139   2.941   3.116   1.679
 2078SOL     OW 1140   2.102   2.953   0.886
 2078SOL    HW1 1141   2.116   2.869   0.938
 2078SOL    HW2 1142   2.047   3.017   0.941
 2079SOL     OW 1143   2.482   3.648   1.439
 2079SOL    HW1 1144   2.390   3.631   1.474
 2079SOL    HW2 1145   2.510   3.740   1.465
 2081SOL     OW 1146   3.456   1.976   1.480
 2081SOL    HW1 1147   3.438   2.043   1.408
 2081SOL    HW2 1148   3.453   2.022   1.569
 2087SOL     OW 1149   1.975   2.599   1.597
 2087SOL    HW1 1150   2.063   2.586   1.642
 2087SOL    HW2 1151   1.962   2.696   1.575
 2089SOL     OW 1152   3.155   3.090   1.423
 2089SOL    HW1 1153   3.192   3.017   1.365
 2089SOL    HW2 1154   3.207   3.095   1.508
 2091SOL     OW 1155   2.059   2.838   1.264
 2091SOL    HW1 1156   2.148   2.793   1.250
 2091SOL    HW2 1157   1.986   2.773   1.245
 2093SOL     OW 1158   3.049   3.654   1.616
 2093SOL    HW1 1159   3.073   3.714   1.540
 2093SOL    HW2 1160   3.056   3.559   1.586
 2094SOL     OW 1161   2.179   2.113   1.801
 2094SOL    HW1 1162   2.250   2.184   1.807
 2094SOL    HW2 1163   2.091   2.152   1.829
 2098SOL     OW 1164   3.143   2.207   0.944
 2098SOL    HW1 1165   3.057   2.157   0.931
 2098SOL    HW2 1166   3.205   2.153   1.000
 2100SOL     OW 1167   2.669   2.467   1.465
 2100SOL    HW1 1168   2.622   2.464   1.554
 2100SOL    HW2 1169   2.618   2.412   1.399
 2101SOL     OW 1170   3.256   2.331   1.674
 2101SOL    HW1 1171   3.236   2.374   1.762
 2101SOL    HW2 1172   3.334   2.269   1.683
 2102SOL     OW 1173   2.835   2.752   1.572
 2102SOL    HW1 1174   2.881   2.668   1.543
 2102SOL    HW2 1175   2.779   2.786   1.497
 2103SOL     OW 1176   2.853   2.272   1.242
 2103SOL    HW1 1177   2.776   2.306   1.296
 2103SOL    HW2 1178   2.819   2.221   1.163
 2105SOL     OW 1179   1.938   2.673   0.789
 2105SOL    HW1 1180   2.037   2.661   0.798
 2105SOL    HW2 1181   1.914   2.768   0.810
 2106SOL     OW 1182   1.992   3.683   1.571
 2106SOL    HW1 1183   1.982   3.668   1.670
 2106SOL    HW2 1184   1.906   3.719   1.535
 2108SOL     OW 1185   3.581   2.447   1.831
 2108SOL    HW1 1186   3.555   2.536   1.795
 2108SOL    HW2 1187   3.579   2.379   1.758
 2110SOL     OW 1188   2.412   2.058   0.885
 2110SOL    HW1 1189   2.407   2.053   0.985
 2110SOL    HW2 1190   2.414   2.154   0.856
 2114SOL     OW 1191   3.089   3.412   1.506
 2114SOL    HW1 1192   3.095   3.335   1.570
 2114SOL    HW2 1193   3.037   3.386   1.426
 2117SOL     OW 1194   2.323   3.128   1.727
 2117SOL    HW1 1195   2.273   3.129   1.641
 2117SOL    HW2 1196   2.260   3.110   1.803
 2119SOL     OW 1197   2.064   2.147   1.498
 2119SOL    HW1 1198   1.984   2.207   1.485
 2119SOL    HW2 1199   2.054   2.098   1.584
 2123SOL     OW 1200   2.111   3.647   1.241
 2123SOL    HW1 1201   2.168   3.582   1.291
 2123SOL    HW2 1202   2.095   3.614   1.148
 2126SOL     OW 1203   3.409   2.084   1.729
 2126SOL    HW1 1204   3.404   2.121   1.821
 2126SOL    HW2 1205   3.337   2.015   1.717
 2128SOL     OW 1206   2.643   2.126   1.749
 2128SOL    HW1 1207   2.710   2.065   1.792
 2128SOL    HW2 1208   2.570   2.145   1.814
 2129SOL     OW 1209   2.750   3.376   1.195
 2129SOL    HW1 1210   2.727   3.351   1.101
 2129SOL    HW2 1211   2.811   3.307   1.234
 2130SOL     OW 1212   3.213   2.452   1.433
 2130SOL    HW1 1213   3.241   2.409   1.518
 2130SOL    HW2 1214   3.238   2.548   1.434
 2131SOL     OW 1215   2.665   3.264   0.924
 2131SOL    HW1 1216   2.755   3.278   0.882
 2131SOL    HW2 1217   2.594   3.266   0.853
 2132SOL     OW 1218   2.784   2.365   0.899
 2132SOL    HW1 1219   2.759   2.356   0.803
 2132SOL    HW2 1220   2.832   2.283   0.930
 2137SOL     OW 1221   2.938   2.545   1.464
 2137SOL    HW1 1222   2.858   2.484   1.467
 2137SOL    HW2 1223   3.019   2.492   1.440
 2142SOL     OW 1224   1.940   2.418   1.386
 2142SOL    HW1 1225   2.032   2.417   1.345
 2142SOL    HW2 1226   1.934   2.492   1.453
 2143SOL     OW 1227   2.423   2.084   1.147
 2143SOL    HW1 1228   2.461   2.000   1.184
 2143SOL    HW2 1229   2.335   2.103   1.191
 2147SOL     OW 1230   3.328   2.452   0.992
 2147SOL    HW1 1231   3.298   2.357   0.999
 2147SOL    HW2 1232   3.401   2.468   1.058
 2153SOL     OW 1233   3.616   3.085   1.588
 2153SOL    HW1 1234   3.707   3.046   1.575
 2153SOL    HW2 1235   3.624   3.181   1.612
 2154SOL     OW 1236   2.926   3.209   1.340
 2154SOL    HW1 1237   2.846   3.186   1.395
 2154SOL    HW2 1238   3.009   3.183   1.389
 2155SOL     OW 1239   3.454   3.491   1.625
 2155SOL    HW1 1240   3.481   3.525   1.535
 2155SOL    HW2 1241   3.533   3.453   1.671
 2156SOL     OW 1242   2.973   3.057   1.100
 2156SOL    HW1 1243   2.933   3.101   1.181
 2156SOL    HW2 1244   2.932   3.094   1.017
 2157SOL     OW 1245   3.500   2.961   1.079
 2157SOL    HW1 1246   3.505   3.042   1.138
 2157SOL    HW2 1247   3.414   2.963   1.028
 2158SOL     OW 1248   2.777   1.951   1.402
 2158SOL    HW1 1249   2.802   1.931   1.307
 2158SOL    HW2 1250   2.849   2.007   1.444
 2159SOL     OW 1251   2.842   2.978   1.719
 2159SOL    HW1 1252   2.743   2.984   1.729
 2159SOL    HW2 1253   2.865   2.898   1.663
 2161SOL     OW 1254   2.272   2.675   1.251
 2161SOL    HW1 1255   2.358   2.687   1.301
 2161SOL    HW2 1256   2.230   2.588   1.278
 2162SOL     OW 1257   3.136   2.248   1.262
 2162SOL    HW1 1258   3.157   2.322   1.326
 2162SOL    HW2 1259   3.047   2.265   1.219
 2163SOL     OW 1260   1.926   3.426   1.331
 2163SOL    HW1 1261   1.880   3.508   1.297
 2163SOL    HW2 1262   2.024   3.445   1.340
 2165SOL     OW 1263   2.428   2.399   0.865
 2165SOL    HW1 1264   2.440   2.465   0.791
 2165SOL    HW2 1265   2.474   2.433   0.948
 2167SOL     OW 1266   3.134   3.307   1.142
 2167SOL    HW1 1267   3.181   3.320   1.229
 2167SOL    HW2 1268   3.068   3.233   1.151
 2169SOL     OW 1269   2.216   3.372   1.329
 2169SOL    HW1 1270   2.195   3.328   1.242
 2169SOL    HW2 1271   2.313   3.398   1.332
 2170SOL     OW 1272   2.264   2.613   1.598
 2170SOL    HW1 1273   2.332   2.668   1.551
 2170SOL    HW2 1274   2.304   2.525   1.625
 2171SOL     OW 1275   3.449   2.641   1.670
 2171SOL    HW1 1276   3.357   2.679   1.665
 2171SOL    HW2 1277   3.509   2.688   1.605
 2172SOL     OW 1278   2.875   1.967   1.770
 2172SOL    HW1 1279   2.881   2.052   1.718
 2172SOL    HW2 1280   2.907   1.891   1.713
 2173SOL     OW 1281   2.366   1.912   1.740
 2173SOL    HW1 1282   2.324   1.855   1.670
 2173SOL    HW2 1283   2.300   1.981   1.772
 2174SOL     OW 1284   2.435   2.732   1.029
 2174SOL    HW1 1285   2.479   2.821   1.020
 2174SOL    HW2 1286   2.372   2.732   1.106
 2175SOL     OW 1287   3.222   2.724   1.045
 2175SOL    HW1 1288   3.147   2.724   0.979
 2175SOL    HW2 1289   3.259   2.632   1.054
 2177SOL     OW 1290   2.169   2.075   1.231
 2177SOL    HW1 1291   2.146   2.112   1.321
 2177SOL    HW2 1292   2.139   1.980   1.225
 2178SOL     OW 1293   1.899   3.172   1.282
 2178SOL    HW1 1294   1.952   3.123   1.350
 2178SOL    HW2 1295   1.921   3.270   1.287
 2179SOL     OW 1296   2.594   2.496   1.064
 2179SOL    HW1 1297   2.653   2.470   0.988
 2179SOL    HW2 1298   2.566   2.592   1.053
 2180SOL     OW 1299   3.590   2.797   1.854
 2180SOL    HW1 1300   3.544   2.790   1.765
 2180SOL    HW2 1301   3.528   2.841   1.920
 2183SOL     OW 1302   2.885   2.628   0.966
 2183SOL    HW1 1303   2.900   2.649   1.062
 2183SOL    HW2 1304   2.855   2.533   0.957
 2184SOL     OW 1305   2.842   3.435   1.700
 2184SOL    HW1 1306   2.822   3.479   1.612
 2184SOL    HW2 1307   2.881   3.344   1.684
 2185SOL     OW 1308   3.721   3.380   1.605
 2185SOL    HW1 1309   3.735   3.407   1.510
 2185SOL    HW2 1310   3.804   3.402   1.658
 2186SOL     OW 1311   2.212   2.760   1.804
 2186SOL    HW1 1312   2.288   2.804   1.852
 2186SOL    HW2 1313   2.247   2.713   1.722
 2190SOL     OW 1314   2.181   2.672   0.949
 2190SOL    HW1 1315   2.274   2.708   0.954
 2190SOL    HW2 1316   2.175   2.587   1.001
 2191SOL     OW 1317   2.201   2.371   1.006
 2191SOL    HW1 1318   2.149   2.288   0.989
 2191SOL    HW2 1319   2.278   2.376   0.942
 2192SOL     OW 1320   3.000   2.242   1.678
 2192SOL    HW1 1321   2.955   2.305   1.742
 2192SOL    HW2 1322   3.093   2.273   1.661
 2193SOL     OW 1323   3.022   2.069   1.477
 2193SOL    HW1 1324   3.022   2.133   1.554
 2193SOL    HW2 1325   3.050   2.117   1.394
 2197SOL     OW 1326   2.864   2.658   1.238
 2197SOL    HW1 1327   2.905   2.626   1.324
 2197SOL    HW2 1328   2.768   2.631   1.235
 2198SOL     OW 1329   1.902   2.406   1.114
 2198SOL    HW1 1330   1.987   2.373   1.073
 2198SOL    HW2 1331   1.915   2.421   1.212
 2199SOL     OW 1332   2.051   2.382   1.722
 2199SOL    HW1 1333   2.110   2.342   1.652
 2199SOL    HW2 1334   1.993   2.453   1.681
 2200SOL     OW 1335   3.231   2.812   1.660
 2200SOL    HW1 1336   3.270   2.901   1.680
 2200SOL    HW2 1337   3.241   2.792   1.563
 2202SOL     OW 1338   3.519   2.466   1.206
 2202SOL    HW1 1339   3.481   2.397   1.268
 2202SOL    HW2 1340   3.601   2.430   1.162
 2203SOL     OW 1341   2.114   3.426   1.744
 2203SOL    HW1 1342   2.084   3.483   1.820
 2203SOL    HW2 1343   2.107   3.329   1.770
 2204SOL     OW 1344   2.533   2.326   1.269
 2204SOL    HW1 1345   2.499   2.237   1.239
 2204SOL    HW2 1346   2.559   2.380   1.189
 2205SOL     OW 1347   2.792   3.540   1.465
 2205SOL    HW1 1348   2.768   3.522   1.370
 2205SOL    HW2 1349   2.822   3.634   1.475
 2207SOL     OW 1350   2.021   2.999   1.466
 2207SOL    HW1 1351   2.043   2.938   1.542
 2207SOL    HW2 1352   2.031   2.950   1.380
 2208SOL     OW 1353   3.209   2.921   1.234
 2208SOL    HW1 1354   3.233   2.858   1.160
 2208SOL    HW2 1355   3.119   2.961   1.216
 2212SOL     OW 1356   1.945   3.120   1.022
 2212SOL    HW1 1357   1.940   3.119   1.122
 2212SOL    HW2 1358   1.862   3.079   0.984
 2213SOL     OW 1359   2.550   3.524   1.716
 2213SOL    HW1 1360   2.494   3.605   1.725
 2213SOL    HW2 1361   2.602   3.528   1.630
 2217SOL     OW 1362   1.992   3.656   1.851
 2217SOL    HW1 1363   1.951   3.582   1.904
 2217SOL    HW2 1364   2.056   3.707   1.909
 2219SOL     OW 1365   2.692   3.135   1.422
 2219SOL    HW1 1366   2.687   3.168   1.517
 2219SOL    HW2 1367   2.606   3.154   1.376
 2225SOL     OW 1368   2.684   2.864   1.372
 2225SOL    HW1 1369   2.724   2.863   1.280
 2225SOL    HW2 1370   2.694   2.956   1.412
 2228SOL     OW 1371   2.234   3.150   1.490
 2228SOL    HW1 1372   2.221   3.243   1.456
 2228SOL    HW2 1373   2.150   3.098   1.477
 2229SOL     OW 1374   3.476   3.154   1.289
 2229SOL    HW1 1375   3.536   3.157   1.369
 2229SOL    HW2 1376   3.401   3.218   1.302
 2231SOL     OW 1377   2.876   2.098   0.971
 2231SOL    HW1 1378   2.868   2.062   0.878
 2231SOL    HW2 1379   2.874   2.022   1.036
 2233SOL     OW 1380   3.571   2.247   1.381
 2233SOL    HW1 1381   3.644   2.316   1.385
 2233SOL    HW2 1382   3.599   2.172   1.322
 2235SOL     OW 1383   1.967   2.875   1.726
 2235SOL    HW1 1384   1.890   2.842   1.780
 2235SOL    HW2 1385   2.052   2.845   1.768
 2236SOL     OW 1386   2.534   2.065   1.489
 2236SOL    HW1 1387   2.624   2.049   1.449
 2236SOL    HW2 1388   2.542   2.070   1.588
 2237SOL     OW 1389   3.302   2.718   1.398
 2237SOL    HW1 1390   3.245   2.770   1.335
 2237SOL    HW2 1391   3.398   2.730   1.374
 2240SOL     OW 1392   2.475   2.704   1.431
 2240SOL    HW1 1393   2.531   2.785   1.414
 2240SOL    HW2 1394   2.534   2.624   1.434
 2242SOL     OW 1395   2.578   2.427   1.708
 2242SOL    HW1 1396   2.597   2.492   1.782
 2242SOL    HW2 1397   2.638   2.347   1.717
 2243SOL     OW 1398   3.312   3.082   1.633
 2243SOL    HW1 1399   3.303   3.072   1.732
 2243SOL    HW2 1400   3.408   3.075   1.607
 2244SOL     OW 1401   2.252   3.603   1.560
 2244SOL    HW1 1402   2.161   3.644   1.558
 2244SOL    HW2 1403   2.245   3.509   1.592
 2245SOL     OW 1404   3.536   2.745   1.254
 2245SOL    HW1 1405   3.509   2.656   1.217
 2245SOL    HW2 1406   3.537   2.813   1.181
 2248SOL     OW 1407   3.639   2.204   1.642
 2248SOL    HW1 1408   3.622   2.235   1.548
 2248SOL    HW2 1409   3.555   2.167   1.680
 2249SOL     OW 1410   3.592   2.796   1.517
 2249SOL    HW1 1411   3.630   2.887   1.532
 2249SOL    HW2 1412   3.584   2.779   1.418
 2252SOL     OW 1413   2.721   2.818   0.861
 2252SOL    HW1 1414   2.775   2.749   0.909
 2252SOL    HW2 1415   2.689   2.887   0.927
 2255SOL     OW 1416   2.083   3.176   1.844
 2255SOL    HW1 1417   2.018   3.103   1.823
 2255SOL    HW2 1418   2.087   3.190   1.942
 2257SOL     OW 1419   2.534   3.253   1.624
 2257SOL    HW1 1420   2.456   3.203   1.662
 2257SOL    HW2 1421   2.531   3.348   1.655
 2258SOL     OW 1422   3.686   2.054   1.227
 2258SOL    HW1 1423   3.682   1.964   1.271
 2258SOL    HW2 1424   3.689   2.043   1.128
 2261SOL     OW 1425   2.179   2.409   1.280
 2261SOL    HW1 1426   2.217   2.350   1.352
 2261SOL    HW2 1427   2.219   2.383   1.192
 2263SOL     OW 1428   3.286   2.076   1.112
 2263SOL    HW1 1429   3.338   2.011   1.167
 2263SOL    HW2 1430   3.237   2.139   1.173
 2264SOL     OW 1431   2.863   1.896   1.154
 2264SOL    HW1 1432   2.800   1.824   1.123
 2264SOL    HW2 1433   2.956   1.860   1.154
 2266SOL     OW 1434   2.480   3.429   1.284
 2266SOL    HW1 1435   2.475   3.511   1.341
 2266SOL    HW2 1436   2.569   3.426   1.239
 2272SOL     OW 1437   2.092   2.490   1.975
 2272SOL    HW1 1438   1.999   2.488   2.012
 2272SOL    HW2 1439   2.093   2.451   1.883
 2273SOL     OW 1440   2.087   2.137   2.858
 2273SOL    HW1 1441   2.122   2.120   2.950
 2273SOL    HW2 1442   1.999   2.092   2.846
 2274SOL     OW 1443   1.881   2.230   2.509
 2274SOL    HW1 1444   1.799   2.273   2.548
 2274SOL    HW2 1445   1.853   2.157   2.446
 2275SOL     OW 1446   2.431   3.137   3.027
 2275SOL    HW1 1447   2.338   3.130   2.990
 2275SOL    HW2 1448   2.442   3.226   3.071
 2276SOL     OW 1449   3.417   3.373   2.565
 2276SOL    HW1 1450   3.360   3.357   2.646
 2276SOL    HW2 1451   3.358   3.383   2.485
 2277SOL     OW 1452   2.997   2.565   2.579
 2277SOL    HW1 1453   3.054   2.643   2.554
 2277SOL    HW2 1454   2.937   2.591   2.655
 2278SOL     OW 1455   3.617   2.469   2.093
 2278SOL    HW1 1456   3.605   2.456   1.994
 2278SOL    HW2 1457   3.587   2.388   2.142
 2279SOL     OW 1458   2.630   3.006   2.885
 2279SOL    HW1 1459   2.552   3.023   2.945
 2279SOL    HW2 1460   2.664   3.093   2.849
 2280SOL     OW 1461   2.712   2.660   3.685
 2280SOL    HW1 1462   2.708   2.736   3.750
 2280SOL    HW2 1463   2.734   2.696   3.594
 2281SOL     OW 1464   2.547   2.874   2.527
 2281SOL    HW1 1465   2.616   2.858   2.597
 2281SOL    HW2 1466   2.474   2.931   2.565
 2282SOL     OW 1467   2.548   3.023   3.665
 2282SOL    HW1 1468   2.608   3.102   3.679
 2282SOL    HW2 1469   2.462   3.054   3.624
 2283SOL     OW 1470   2.197   3.297   2.923
 2283SOL    HW1 1471   2.119   3.266   2.870
 2283SOL    HW2 1472   2.255   3.355   2.866
 2284SOL     OW 1473   3.322   3.367   3.201
 2284SOL    HW1 1474   3.346   3.461   3.227
 2284SOL    HW2 1475   3.306   3.313   3.283
 2285SOL     OW 1476   2.300   2.254   3.361
 2285SOL    HW1 1477   2.382   2.198   3.370
 2285SOL    HW2 1478   2.219   2.196   3.365
 2286SOL     OW 1479   3.465   2.309   2.599
 2286SOL    HW1 1480   3.391   2.355   2.549
 2286SOL    HW2 1481   3.516   2.377   2.652
 2287SOL     OW 1482   2.093   3.575   2.345
 2287SOL    HW1 1483   2.127   3.652   2.399
 2287SOL    HW2 1484   2.137   3.575   2.255
 2288SOL     OW 1485   2.989   3.203   3.552
 2288SOL    HW1 1486   3.036   3.203   3.640
 2288SOL    HW2 1487   2.941   3.116   3.541
 2289SOL     OW 1488   2.092   3.296   2.400
 2289SOL    HW1 1489   2.066   3.392   2.400
 2289SOL    HW2 1490   2.021   3.242   2.445
 2290SOL     OW 1491   2.102   2.953   2.748
 2290SOL    HW1 1492   2.116   2.869   2.800
 2290SOL    HW2 1493   2.047   3.017   2.803
 2291SOL     OW 1494   2.482   3.648   3.301
 2291SOL    HW1 1495   2.390   3.631   3.336
 2291SOL    HW2 1496   2.510   3.740   3.327
 2292SOL     OW 1497   2.468   2.826   1.985
 2292SOL    HW1 1498   2.475   2.910   1.931
 2292SOL    HW2 1499   2.514   2.839   2.073
 2293SOL     OW 1500   3.456   1.976   3.342
 2293SOL    HW1 1501   3.438   2.043   3.270
 2293SOL    HW2 1502   3.453   2.022   3.431
 2294SOL     OW 1503   1.984   2.505   2.425
 2294SOL    HW1 1504   1.939   2.417   2.442
 2294SOL    HW2 1505   1.983   2.559   2.509
 2295SOL     OW 1506   3.704   3.629   2.221
 2295SOL    HW1 1507   3.758   3.600   2.301
 2295SOL    HW2 1508   3.734   3.719   2.192
 2296SOL     OW 1509   1.889   3.458   1.979
 2296SOL    HW1 1510   1.870   3.362   2.000
 2296SOL    HW2 1511   1.856   3.516   2.054
 2297SOL     OW 1512   3.551   2.784   2.474
 2297SOL    HW1 1513   3.646   2.755   2.482
 2297SOL    HW2 1514   3.543   2.849   2.399
 2298SOL     OW 1515   3.503   2.970   2.294
 2298SOL    HW1 1516   3.589   2.972   2.242
 2298SOL    HW2 1517   3.517   3.017   2.382
 2299SOL     OW 1518   1.975   2.599   3.459
 2299SOL    HW1 1519   2.063   2.586   3.504
 2299SOL    HW2 1520   1.962   2.696   3.437
 2300SOL     OW 1521   2.475   3.227   2.588
 2300SOL    HW1 1522   2.426   3.140   2.597
 2300SOL    HW2 1523   2.452   3.270   2.501
 2301SOL     OW 1524   3.155   3.090   3.285
 2301SOL    HW1 1525   3.192   3.017   3.227
 2301SOL    HW2 1526   3.207   3.095   3.370
 2302SOL     OW 1527   2.671   1.866   2.364
 2302SOL    HW1 1528   2.711   1.957   2.355
 2302SOL    HW2 1529   2.571   1.874   2.370
 2303SOL     OW 1530   2.059   2.838   3.126
 2303SOL    HW1 1531   2.148   2.793   3.112
 2303SOL    HW2 1532   1.986   2.773   3.107
 2304SOL     OW 1533   3.387   2.861   2.052
 2304SOL    HW1 1534   3.324   2.785   2.065
 2304SOL    HW2 1535   3.435   2.879   2.138
 2305SOL     OW 1536   3.049   3.654   3.478
 2305SOL    HW1 1537   3.073   3.714   3.402
 2305SOL    HW2 1538   3.056   3.559   3.448
 2306SOL     OW 1539   2.179   2.113   3.663
 2306SOL    HW1 1540   2.250   2.184   3.669
 2306SOL    HW2 1541   2.091   2.152   3.691
 2307SOL     OW 1542   3.328   3.279   2.815
 2307SOL    HW1 1543   3.269   3.285   2.895
 2307SOL    HW2 1544   3.313   3.191   2.769
 2308SOL     OW 1545   3.529   3.576   2.434
 2308SOL    HW1 1546   3.488   3.553   2.346
 2308SOL    HW2 1547   3.511   3.502   2.499
 2309SOL     OW 1548   3.143   2.207   2.806
 2309SOL    HW1 1549   3.057   2.157   2.793
 2309SOL    HW2 1550   3.205   2.153   2.862
 2310SOL     OW 1551   3.438   3.524   2.169
 2310SOL    HW1 1552   3.527   3.570   2.172
 2310SOL    HW2 1553   3.417   3.500   2.074
 2311SOL     OW 1554   2.669   2.467   3.327
 2311SOL    HW1 1555   2.622   2.464   3.416
 2311SOL    HW2 1556   2.618   2.412   3.261
 2312SOL     OW 1557   3.256   2.331   3.536
 2312SOL    HW1 1558   3.236   2.374   3.624
 2312SOL    HW2 1559   3.334   2.269   3.545
 2313SOL     OW 1560   2.835   2.752   3.434
 2313SOL    HW1 1561   2.881   2.668   3.405
 2313SOL    HW2 1562   2.779   2.786   3.359
 2314SOL     OW 1563   2.853   2.272   3.104
 2314SOL    HW1 1564   2.776   2.306   3.158
 2314SOL    HW2 1565   2.819   2.221   3.025
 2315SOL     OW 1566   2.903   2.563   2.291
 2315SOL    HW1 1567   2.929   2.559   2.387
 2315SOL    HW2 1568   2.818   2.512   2.277
 2316SOL     OW 1569   1.938   2.673   2.651
 2316SOL    HW1 1570   2.037   2.661   2.660
 2316SOL    HW2 1571   1.914   2.768   2.672
 2317SOL     OW 1572   1.992   3.683   3.433
 2317SOL    HW1 1573   1.982   3.668   3.532
 2317SOL    HW2 1574   1.906   3.719   3.397
 2318SOL     OW 1575   2.727   2.210   2.057
 2318SOL    HW1 1576   2.786   2.273   2.008
 2318SOL    HW2 1577   2.746   2.116   2.028
 2319SOL     OW 1578   3.581   2.447   3.693
 2319SOL    HW1 1579   3.555   2.536   3.657
 2319SOL    HW2 1580   3.579   2.379   3.620
 2320SOL     OW 1581   3.224   3.006   2.407
 2320SOL    HW1 1582   3.307   2.977   2.359
 2320SOL    HW2 1583   3.175   3.073   2.351
 2321SOL     OW 1584   2.870   3.318   2.339
 2321SOL    HW1 1585   2.824   3.390   2.287
 2321SOL    HW2 1586   2.866   3.338   2.437
 2322SOL     OW 1587   2.213   3.663   2.715
 2322SOL    HW1 1588   2.263   3.577   2.721
 2322SOL    HW2 1589   2.278   3.740   2.712
 2323SOL     OW 1590   3.657   2.928   2.735
 2323SOL    HW1 1591   3.595   2.913   2.659
 2323SOL    HW2 1592   3.605   2.939   2.820
 2324SOL     OW 1593   3.089   3.412   3.368
 2324SOL    HW1 1594   3.095   3.335   3.432
 2324SOL    HW2 1595   3.037   3.386   3.288
 2325SOL     OW 1596   3.320   2.597   2.590
 2325SOL    HW1 1597   3.315   2.532   2.665
 2325SOL    HW2 1598   3.400   2.656   2.603
 2326SOL     OW 1599   2.323   3.128   3.589
 2326SOL    HW1 1600   2.273   3.129   3.503
 2326SOL    HW2 1601   2.260   3.110   3.665
 2327SOL     OW 1602   2.973   3.638   2.099
 2327SOL    HW1 1603   2.913   3.576   2.149
 2327SOL    HW2 1604   3.004   3.594   2.014
 2328SOL     OW 1605   2.064   2.147   3.360
 2328SOL    HW1 1606   1.984   2.207   3.347
 2328SOL    HW2 1607   2.054   2.098   3.446
 2329SOL     OW 1608   3.494   3.239   1.943
 2329SOL    HW1 1609   3.462   3.333   1.933
 2329SOL    HW2 1610   3.418   3.176   1.931
 2330SOL     OW 1611   2.326   3.605   2.185
 2330SOL    HW1 1612   2.359   3.644   2.271
 2330SOL    HW2 1613   2.402   3.598   2.120
 2331SOL     OW 1614   3.262   1.969   2.288
 2331SOL    HW1 1615   3.238   1.932   2.198
 2331SOL    HW2 1616   3.361   1.985   2.292
 2332SOL     OW 1617   2.111   3.647   3.103
 2332SOL    HW1 1618   2.168   3.582   3.153
 2332SOL    HW2 1619   2.095   3.614   3.010
 2333SOL     OW 1620   2.802   3.560   2.766
 2333SOL    HW1 1621   2.882   3.503   2.787
 2333SOL    HW2 1622   2.753   3.520   2.689
 2334SOL     OW 1623   3.409   2.084   3.591
 2334SOL    HW1 1624   3.404   2.121   3.683
 2334SOL    HW2 1625   3.337   2.015   3.579
 2335SOL     OW 1626   2.476   1.984   1.979
 2335SOL    HW1 1627   2.574   1.962   1.986
 2335SOL    HW2 1628   2.445   1.967   1.886
 2336SOL     OW 1629   2.643   2.126   3.611
 2336SOL    HW1 1630   2.710   2.065   3.654
 2336SOL    HW2 1631   2.570   2.145   3.676
 2337SOL     OW 1632   2.750   3.376   3.057
 2337SOL    HW1 1633   2.727   3.351   2.963
 2337SOL    HW2 1634   2.811   3.307   3.096
 2338SOL     OW 1635   3.213   2.452   3.295
 2338SOL    HW1 1636   3.241   2.409   3.380
 2338SOL    HW2 1637   3.238   2.548   3.296
 2339SOL     OW 1638   2.665   3.264   2.786
 2339SOL    HW1 1639   2.755   3.278   2.744
 2339SOL    HW2 1640   2.594   3.266   2.715
 2340SOL     OW 1641   2.401   1.926   2.374
 2340SOL    HW1 1642   2.320   1.927   2.432
 2340SOL    HW2 1643   2.404   2.009   2.319
 2341SOL     OW 1644   3.296   3.050   1.903
 2341SOL    HW1 1645   3.328   2.974   1.960
 2341SOL    HW2 1646   3.204   3.077   1.933
 2342SOL     OW 1647   2.159   1.897   2.033
 2342SOL    HW1 1648   2.208   1.981   2.012
 2342SOL    HW2 1649   2.221   1.832   2.078
 2343SOL     OW 1650   2.797   2.098   2.342
 2343SOL    HW1 1651   2.749   2.139   2.264
 2343SOL    HW2 1652   2.896   2.096   2.323
 2344SOL     OW 1653   2.938   2.545   3.326
 2344SOL    HW1 1654   2.858   2.484   3.329
 2344SOL    HW2 1655   3.019   2.492   3.302
 2345SOL     OW 1656   3.089   3.432   2.655
 2345SOL    HW1 1657   3.110   3.506   2.590
 2345SOL    HW2 1658   3.157   3.432   2.728
 2346SOL     OW 1659   2.321   3.014   2.603
 2346SOL    HW1 1660   2.250   2.987   2.668
 2346SOL    HW2 1661   2.295   2.986   2.510
 2347SOL     OW 1662   3.133   3.659   2.453
 2347SOL    HW1 1663   3.177   3.723   2.389
 2347SOL    HW2 1664   3.083   3.711   2.523
 2348SOL     OW 1665   2.894   2.411   1.878
 2348SOL    HW1 1666   2.853   2.493   1.839
 2348SOL    HW2 1667   2.958   2.437   1.951
 2349SOL     OW 1668   1.940   2.418   3.248
 2349SOL    HW1 1669   2.032   2.417   3.207
 2349SOL    HW2 1670   1.934   2.492   3.315
 2350SOL     OW 1671   2.423   2.084   3.009
 2350SOL    HW1 1672   2.461   2.000   3.046
 2350SOL    HW2 1673   2.335   2.103   3.053
 2351SOL     OW 1674   2.879   1.901   2.615
 2351SOL    HW1 1675   2.807   1.906   2.546
 2351SOL    HW2 1676   2.855   1.832   2.684
 2352SOL     OW 1677   3.291   3.035   2.729
 2352SOL    HW1 1678   3.236   2.951   2.722
 2352SOL    HW2 1679   3.317   3.064   2.637
 2353SOL     OW 1680   3.328   2.452   2.854
 2353SOL    HW1 1681   3.298   2.357   2.861
 2353SOL    HW2 1682   3.401   2.468   2.920
 2354SOL     OW 1683   3.719   2.695   2.239
 2354SOL    HW1 1684   3.761   2.631   2.303
 2354SOL    HW2 1685   3.681   2.644   2.161
 2355SOL     OW 1686   2.350   3.247   2.036
 2355SOL    HW1 1687   2.263   3.232   2.083
 2355SOL    HW2 1688   2.333   3.273   1.941
 2356SOL     OW 1689   3.526   3.142   2.519
 2356SOL    HW1 1690   3.625   3.150   2.533
 2356SOL    HW2 1691   3.481   3.226   2.550
 2357SOL     OW 1692   3.252   2.437   1.940
 2357SOL    HW1 1693   3.198   2.416   2.021
 2357SOL    HW2 1694   3.343   2.396   1.949
 2358SOL     OW 1695   2.389   2.118   2.190
 2358SOL    HW1 1696   2.416   2.059   2.115
 2358SOL    HW2 1697   2.389   2.213   2.159
 2359SOL     OW 1698   3.616   3.085   3.450
 2359SOL    HW1 1699   3.707   3.046   3.437
 2359SOL    HW2 1700   3.624   3.181   3.474
 2360SOL     OW 1701   2.926   3.209   3.202
 2360SOL    HW1 1702   2.846   3.186   3.257
 2360SOL    HW2 1703   3.009   3.183   3.251
 2361SOL     OW 1704   3.454   3.491   3.487
 2361SOL    HW1 1705   3.481   3.525   3.397
 2361SOL    HW2 1706   3.533   3.453   3.533
 2362SOL     OW 1707   2.973   3.057   2.962
 2362SOL    HW1 1708   2.933   3.101   3.043
 2362SOL    HW2 1709   2.932   3.094   2.879
 2363SOL     OW 1710   3.500   2.961   2.941
 2363SOL    HW1 1711   3.505   3.042   3.000
 2363SOL    HW2 1712   3.414   2.963   2.890
 2364SOL     OW 1713   2.777   1.951   3.264
 2364SOL    HW1 1714   2.802   1.931   3.169
 2364SOL    HW2 1715   2.849   2.007   3.306
 2365SOL     OW 1716   2.842   2.978   3.581
 2365SOL    HW1 1717   2.743   2.984   3.591
 2365SOL    HW2 1718   2.865   2.898   3.525
 2366SOL     OW 1719   2.567   2.912   2.230
 2366SOL    HW1 1720   2.553   2.919   2.329
 2366SOL    HW2 1721   2.651   2.861   2.212
 2367SOL     OW 1722   2.272   2.675   3.113
 2367SOL    HW1 1723   2.358   2.687   3.163
 2367SOL    HW2 1724   2.230   2.588   3.140
 2368SOL     OW 1725   3.136   2.248   3.124
 2368SOL    HW1 1726   3.157   2.322   3.188
 2368SOL    HW2 1727   3.047   2.265   3.081
 2369SOL     OW 1728   1.926   3.426   3.193
 2369SOL    HW1 1729   1.880   3.508   3.159
 2369SOL    HW2 1730   2.024   3.445   3.202
 2370SOL     OW 1731   3.114   3.210   2.250
 2370SOL    HW1 1732   3.164   3.287   2.290
 2370SOL    HW2 1733   3.019   3.212   2.282
 2371SOL     OW 1734   3.134   3.307   3.004
 2371SOL    HW1 1735   3.181   3.320   3.091
 2371SOL    HW2 1736   3.068   3.233   3.013
 2372SOL     OW 1737   3.444   2.501   2.334
 2372SOL    HW1 1738   3.413   2.562   2.407
 2372SOL    HW2 1739   3.494   2.553   2.265
 2373SOL     OW 1740   2.216   3.372   3.191
 2373SOL    HW1 1741   2.195   3.328   3.104
 2373SOL    HW2 1742   2.313   3.398   3.194
 2374SOL     OW 1743   2.264   2.613   3.460
 2374SOL    HW1 1744   2.332   2.668   3.413
 2374SOL    HW2 1745   2.304   2.525   3.487
 2375SOL     OW 1746   3.449   2.641   3.532
 2375SOL    HW1 1747   3.357   2.679   3.527
 2375SOL    HW2 1748   3.509   2.688   3.467
 2376SOL     OW 1749   2.875   1.967   3.632
 2376SOL    HW1 1750   2.881   2.052   3.580
 2376SOL    HW2 1751   2.907   1.891   3.575
 2377SOL     OW 1752   2.366   1.912   3.602
 2377SOL    HW1 1753   2.324   1.855   3.532
 2377SOL    HW2 1754   2.300   1.981   3.634
 2378SOL     OW 1755   2.435   2.732   2.891
 2378SOL    HW1 1756   2.479   2.821   2.882
 2378SOL    HW2 1757   2.372   2.732   2.968
 2379SOL     OW 1758   3.222   2.724   2.907
 2379SOL    HW1 1759   3.147   2.724   2.841
 2379SOL    HW2 1760   3.259   2.632   2.916
 2380SOL     OW 1761   3.071   2.387   2.137
 2380SOL    HW1 1762   3.084   2.303   2.191
 2380SOL    HW2 1763   3.042   2.461   2.197
 2381SOL     OW 1764   2.169   2.075   3.093
 2381SOL    HW1 1765   2.146   2.112   3.183
 2381SOL    HW2 1766   2.139   1.980   3.087
 2382SOL     OW 1767   1.899   3.172   3.144
 2382SOL    HW1 1768   1.952   3.123   3.212
 2382SOL    HW2 1769   1.921   3.270   3.149
 2383SOL     OW 1770   2.594   2.496   2.926
 2383SOL    HW1 1771   2.653   2.470   2.850
 2383SOL    HW2 1772   2.566   2.592   2.915
 2384SOL     OW 1773   3.590   2.797   3.716
 2384SOL    HW1 1774   3.544   2.790   3.627
 2384SOL    HW2 1775   3.528   2.841   3.782
 2385SOL     OW 1776   2.169   1.925   2.480
 2385SOL    HW1 1777   2.158   2.019   2.513
 2385SOL    HW2 1778   2.164   1.862   2.557
 2386SOL     OW 1779   3.484   2.229   2.236
 2386SOL    HW1 1780   3.486   2.153   2.300
 2386SOL    HW2 1781   3.436   2.306   2.276
 2387SOL     OW 1782   2.885   2.628   2.828
 2387SOL    HW1 1783   2.900   2.649   2.924
 2387SOL    HW2 1784   2.855   2.533   2.819
 2388SOL     OW 1785   2.842   3.435   3.562
 2388SOL    HW1 1786   2.822   3.479   3.474
 2388SOL    HW2 1787   2.881   3.344   3.546
 2390SOL     OW 1788   2.212   2.760   3.666
 2390SOL    HW1 1789   2.288   2.804   3.714
 2390SOL    HW2 1790   2.247   2.713   3.584
 2391SOL     OW 1791   3.402   2.136   1.987
 2391SOL    HW1 1792   3.341   2.061   2.010
 2391SOL    HW2 1793   3.424   2.188   2.070
 2392SOL     OW 1794   3.165   2.700   1.904
 2392SOL    HW1 1795   3.199   2.607   1.919
 2392SOL    HW2 1796   3.183   2.727   1.809
 2393SOL     OW 1797   2.930   3.195   2.711
 2393SOL    HW1 1798   2.937   3.111   2.656
 2393SOL    HW2 1799   2.992   3.264   2.675
 2394SOL     OW 1800   2.181   2.672   2.811
 2394SOL    HW1 1801   2.274   2.708   2.816
 2394SOL    HW2 1802   2.175   2.587   2.863
 2395SOL     OW 1803   2.201   2.371   2.868
 2395SOL    HW1 1804   2.149   2.288   2.851
 2395SOL    HW2 1805   2.278   2.376   2.804
 2396SOL     OW 1806   3.000   2.242   3.540
 2396SOL    HW1 1807   2.955   2.305   3.604
 2396SOL    HW2 1808   3.093   2.273   3.523
 2397SOL     OW 1809   3.022   2.069   3.339
 2397SOL    HW1 1810   3.022   2.133   3.416
 2397SOL    HW2 1811   3.050   2.117   3.256
 2398SOL     OW 1812   1.870   3.188   2.062
 2398SOL    HW1 1813   1.777   3.209   2.031
 2398SOL    HW2 1814   1.880   3.089   2.075
 2399SOL     OW 1815   1.950   3.663   2.789
 2399SOL    HW1 1816   1.908   3.577   2.762
 2399SOL    HW2 1817   2.044   3.666   2.755
 2400SOL     OW 1818   2.366   3.430   2.772
 2400SOL    HW1 1819   2.432   3.504   2.781
 2400SOL    HW2 1820   2.410   3.351   2.730
 2401SOL     OW 1821   2.864   2.658   3.100
 2401SOL    HW1 1822   2.905   2.626   3.186
 2401SOL    HW2 1823   2.768   2.631   3.097
 2402SOL     OW 1824   1.902   2.406   2.976
 2402SOL    HW1 1825   1.987   2.373   2.935
 2402SOL    HW2 1826   1.915   2.421   3.074
 2403SOL     OW 1827   2.051   2.382   3.584
 2403SOL    HW1 1828   2.110   2.342   3.514
 2403SOL    HW2 1829   1.993   2.453   3.543
 2404SOL     OW 1830   3.231   2.812   3.522
 2404SOL    HW1 1831   3.270   2.901   3.542
 2404SOL    HW2 1832   3.241   2.792   3.425
 2405SOL     OW 1833   2.677   2.434   2.187
 2405SOL    HW1 1834   2.684   2.345   2.141
 2405SOL    HW2 1835   2.583   2.468   2.179
 2406SOL     OW 1836   3.519   2.466   3.068
 2406SOL    HW1 1837   3.481   2.397   3.130
 2406SOL    HW2 1838   3.601   2.430   3.024
 2407SOL     OW 1839   2.114   3.426   3.606
 2407SOL    HW1 1840   2.084   3.483   3.682
 2407SOL    HW2 1841   2.107   3.329   3.632
 2408SOL     OW 1842   2.533   2.326   3.131
 2408SOL    HW1 1843   2.499   2.237   3.101
 2408SOL    HW2 1844   2.559   2.380   3.051
 2409SOL     OW 1845   2.792   3.540   3.327
 2409SOL    HW1 1846   2.768   3.522   3.232
 2409SOL    HW2 1847   2.822   3.634   3.337
 2410SOL     OW 1848   2.335   2.362   2.053
 2410SOL    HW1 1849   2.396   2.442   2.057
 2410SOL    HW2 1850   2.240   2.393   2.060
 2411SOL     OW 1851   2.021   2.999   3.328
 2411SOL    HW1 1852   2.043   2.938   3.404
 2411SOL    HW2 1853   2.031   2.950   3.242
 2412SOL     OW 1854   3.209   2.921   3.096
 2412SOL    HW1 1855   3.233   2.858   3.022
 2412SOL    HW2 1856   3.119   2.961   3.078
 2413SOL     OW 1857   3.164   2.717   2.171
 2413SOL    HW1 1858   3.078   2.686   2.213
 2413SOL    HW2 1859   3.160   2.703   2.072
 2414SOL     OW 1860   3.621   3.609   3.016
 2414SOL    HW1 1861   3.682   3.639   2.943
 2414SOL    HW2 1862   3.583   3.520   2.994
 2415SOL     OW 1863   3.114   3.593   2.990
 2415SOL    HW1 1864   3.198   3.598   2.936
 2415SOL    HW2 1865   3.091   3.497   3.008
 2416SOL     OW 1866   1.945   3.120   2.884
 2416SOL    HW1 1867   1.940   3.119   2.984
 2416SOL    HW2 1868   1.862   3.079   2.846
 2417SOL     OW 1869   2.550   3.524   3.578
 2417SOL    HW1 1870   2.494   3.605   3.587
 2417SOL    HW2 1871   2.602   3.528   3.492
 2418SOL     OW 1872   3.588   1.997   2.385
 2418SOL    HW1 1873   3.661   1.980   2.318
 2418SOL    HW2 1874   3.557   1.910   2.423
 2419SOL     OW 1875   3.250   3.435   2.339
 2419SOL    HW1 1876   3.317   3.447   2.265
 2419SOL    HW2 1877   3.210   3.524   2.362
 2420SOL     OW 1878   1.992   3.656   3.713
 2420SOL    HW1 1879   1.951   3.582   3.766
 2420SOL    HW2 1880   2.056   3.707   3.771
 2421SOL     OW 1881   3.142   2.789   2.534
 2421SOL    HW1 1882   3.202   2.708   2.536
 2421SOL    HW2 1883   3.182   2.858   2.474
 2422SOL     OW 1884   2.692   3.135   3.284
 2422SOL    HW1 1885   2.687   3.168   3.379
 2422SOL    HW2 1886   2.606   3.154   3.238
 2423SOL     OW 1887   2.534   3.478   2.016
 2423SOL    HW1 1888   2.543   3.488   1.917
 2423SOL    HW2 1889   2.494   3.389   2.037
 2424SOL     OW 1890   3.512   3.582   3.256
 2424SOL    HW1 1891   3.565   3.592   3.172
 2424SOL    HW2 1892   3.485   3.672   3.290
 2425SOL     OW 1893   3.703   2.037   2.825
 2425SOL    HW1 1894   3.742   1.952   2.789
 2425SOL    HW2 1895   3.605   2.039   2.806
 2426SOL     OW 1896   2.125   2.188   2.582
 2426SOL    HW1 1897   2.046   2.239   2.548
 2426SOL    HW2 1898   2.116   2.173   2.680
 2427SOL     OW 1899   3.056   3.474   1.893
 2427SOL    HW1 1900   3.062   3.381   1.930
 2427SOL    HW2 1901   2.997   3.474   1.813
 2428SOL     OW 1902   2.684   2.864   3.234
 2428SOL    HW1 1903   2.724   2.863   3.142
 2428SOL    HW2 1904   2.694   2.956   3.274
 2429SOL     OW 1905   2.778   2.772   2.153
 2429SOL    HW1 1906   2.841   2.810   2.085
 2429SOL    HW2 1907   2.818   2.689   2.192
 2430SOL     OW 1908   3.366   3.469   1.906
 2430SOL    HW1 1909   3.274   3.506   1.913
 2430SOL    HW2 1910   3.404   3.489   1.816
 2431SOL     OW 1911   2.234   3.150   3.352
 2431SOL    HW1 1912   2.221   3.243   3.318
 2431SOL    HW2 1913   2.150   3.098   3.339
 2432SOL     OW 1914   3.476   3.154   3.151
 2432SOL    HW1 1915   3.536   3.157   3.231
 2432SOL    HW2 1916   3.401   3.218   3.164
 2433SOL     OW 1917   2.901   2.960   2.558
 2433SOL    HW1 1918   2.831   2.913   2.612
 2433SOL    HW2 1919   2.960   2.892   2.515
 2434SOL     OW 1920   2.876   2.098   2.833
 2434SOL    HW1 1921   2.868   2.062   2.740
 2434SOL    HW2 1922   2.874   2.022   2.898
 2435SOL     OW 1923   2.452   3.349   2.353
 2435SOL    HW1 1924   2.494   3.291   2.283
 2435SOL    HW2 1925   2.408   3.428   2.309
 2436SOL     OW 1926   3.571   2.247   3.243
 2436SOL    HW1 1927   3.644   2.316   3.247
 2436SOL    HW2 1928   3.599   2.172   3.184
 2437SOL     OW 1929   2.117   3.210   2.152
 2437SOL    HW1 1930   2.021   3.211   2.125
 2437SOL    HW2 1931   2.129   3.263   2.236
 2438SOL     OW 1932   1.967   2.875   3.588
 2438SOL    HW1 1933   1.890   2.842   3.642
 2438SOL    HW2 1934   2.052   2.845   3.630
 2439SOL     OW 1935   2.534   2.065   3.351
 2439SOL    HW1 1936   2.624   2.049   3.311
 2439SOL    HW2 1937   2.542   2.070   3.450
 2440SOL     OW 1938   1.937   2.207   1.895
 2440SOL    HW1 1939   1.845   2.179   1.866
 2440SOL    HW2 1940   1.968   2.284   1.839
 2441SOL     OW 1941   3.302   2.718   3.260
 2441SOL    HW1 1942   3.245   2.770   3.197
 2441SOL    HW2 1943   3.398   2.730   3.236
 2442SOL     OW 1944   1.934   2.028   2.180
 2442SOL    HW1 1945   1.917   2.111   2.126
 2442SOL    HW2 1946   2.024   1.991   2.158
 2443SOL     OW 1947   3.045   3.197   1.981
 2443SOL    HW1 1948   2.946   3.186   1.983
 2443SOL    HW2 1949   3.079   3.212   2.074
 2444SOL     OW 1950   2.475   2.704   3.293
 2444SOL    HW1 1951   2.531   2.785   3.276
 2444SOL    HW2 1952   2.534   2.624   3.296
 2445SOL     OW 1953   3.355   3.629   2.821
 2445SOL    HW1 1954   3.388   3.693   2.752
 2445SOL    HW2 1955   3.421   3.623   2.896
 2446SOL     OW 1956   2.578   2.427   3.570
 2446SOL    HW1 1957   2.597   2.492   3.644
 2446SOL    HW2 1958   2.638   2.347   3.579
 2447SOL     OW 1959   3.312   3.082   3.495
 2447SOL    HW1 1960   3.303   3.072   3.594
 2447SOL    HW2 1961   3.408   3.075   3.469
 2448SOL     OW 1962   2.252   3.603   3.422
 2448SOL    HW1 1963   2.161   3.644   3.420
 2448SOL    HW2 1964   2.245   3.509   3.454
 2449SOL     OW 1965   3.536   2.745   3.116
 2449SOL    HW1 1966   3.509   2.656   3.079
 2449SOL    HW2 1967   3.537   2.813   3.043
 2450SOL     OW 1968   3.087   2.187   2.311
 2450SOL    HW1 1969   3.152   2.113   2.300
 2450SOL    HW2 1970   3.107   2.237   2.395
 2451SOL     OW 1971   3.639   2.204   3.504
 2451SOL    HW1 1972   3.622   2.235   3.410
 2451SOL    HW2 1973   3.555   2.167   3.542
 2452SOL     OW 1974   3.592   2.796   3.379
 2452SOL    HW1 1975   3.630   2.887   3.394
 2452SOL    HW2 1976   3.584   2.779   3.280
 2453SOL     OW 1977   2.721   3.236   1.878
 2453SOL    HW1 1978   2.675   3.251   1.966
 2453SOL    HW2 1979   2.765   3.321   1.848
 2454SOL     OW 1980   2.523   3.652   2.815
 2454SOL    HW1 1981   2.477   3.740   2.802
 2454SOL    HW2 1982   2.622   3.664   2.808
 2455SOL     OW 1983   2.721   2.818   2.723
 2455SOL    HW1 1984   2.775   2.749   2.771
 2455SOL    HW2 1985   2.689   2.887   2.789
 2456SOL     OW 1986   2.945   2.846   1.949
 2456SOL    HW1 1987   2.922   2.899   1.867
 2456SOL    HW2 1988   3.026   2.790   1.930
 2457SOL     OW 1989   3.723   3.431   2.713
 2457SOL    HW1 1990   3.652   3.419   2.643
 2457SOL    HW2 1991   3.724   3.352   2.773
 2458SOL     OW 1992   2.083   3.176   3.706
 2458SOL    HW1 1993   2.018   3.103   3.685
 2458SOL    HW2 1994   2.087   3.190   3.804
 2459SOL     OW 1995   1.941   3.102   2.515
 2459SOL    HW1 1996   1.940   3.055   2.603
 2459SOL    HW2 1997   2.023   3.074   2.464
 2460SOL     OW 1998   2.534   3.253   3.486
 2460SOL    HW1 1999   2.456   3.203   3.524
 2460SOL    HW2 2000   2.531   3.348   3.517
 2461SOL     OW 2001   3.686   2.054   3.089
 2461SOL    HW1 2002   3.682   1.964   3.133
 2461SOL    HW2 2003   3.689   2.043   2.990
 2462SOL     OW 2004   2.290   2.286   2.382
 2462SOL    HW1 2005   2.320   2.214   2.320
 2462SOL    HW2 2006   2.251   2.246   2.465
 2463SOL     OW 2007   3.567   3.349   2.966
 2463SOL    HW1 2008   3.474   3.324   2.939
 2463SOL    HW2 2009   3.593   3.299   3.048
 2464SOL     OW 2010   2.179   2.409   3.142
 2464SOL    HW1 2011   2.217   2.350   3.214
 2464SOL    HW2 2012   2.219   2.383   3.054
 2465SOL     OW 2013   2.674   3.448   2.549
 2465SOL    HW1 2014   2.706   3.458   2.455
 2465SOL    HW2 2015   2.595   3.386   2.551
 2466SOL     OW 2016   3.286   2.076   2.974
 2466SOL    HW1 2017   3.338   2.011   3.029
 2466SOL    HW2 2018   3.237   2.139   3.035
 2467SOL     OW 2019   2.863   1.896   3.016
 2467SOL    HW1 2020   2.800   1.824   2.985
 2467SOL    HW2 2021   2.956   1.860   3.016
 2468SOL     OW 2022   2.632   3.192   2.163
 2468SOL    HW1 2023   2.586   3.105   2.180
 2468SOL    HW2 2024   2.723   3.189   2.204
 2469SOL     OW 2025   2.480   3.429   3.146
 2469SOL    HW1 2026   2.475   3.511   3.203
 2469SOL    HW2 2027   2.569   3.426   3.101
 2470SOL     OW 2028   3.214   1.914   2.030
 2470SOL    HW1 2029   3.249   1.873   1.946
 2470SOL    HW2 2030   3.124   1.876   2.050
 2471SOL     OW 2031   3.162   2.315   2.553
 2471SOL    HW1 2032   3.103   2.395   2.557
 2471SOL    HW2 2033   3.177   2.280   2.646
 2472SOL     OW 2034   3.455   2.083   2.744
 2472SOL    HW1 2035   3.371   2.082   2.798
 2472SOL    HW2 2036   3.457   2.166   2.688
 2473SOL     OW 2037   1.901   2.939   2.162
 2473SOL    HW1 2038   2.000   2.928   2.153
 2473SOL    HW2 2039   1.861   2.853   2.194
 2474SOL     OW 2040   2.737   3.508   2.199
 2474SOL    HW1 2041   2.660   3.473   2.145
 2474SOL    HW2 2042   2.705   3.579   2.261
 2475SOL     OW 2043   2.092   2.490   3.837
 2475SOL    HW1 2044   1.999   2.488   3.874
 2475SOL    HW2 2045   2.093   2.451   3.745
 2489SOL     OW 2046   2.468   2.826   3.847
 2489SOL    HW1 2047   2.475   2.910   3.793
 2489SOL    HW2 2048   2.514   2.839   3.935
 2492SOL     OW 2049   1.889   3.458   3.841
 2492SOL    HW1 2050   1.870   3.362   3.862
 2492SOL    HW2 2051   1.856   3.516   3.916
 2498SOL     OW 2052   3.387   2.861   3.914
 2498SOL    HW1 2053   3.324   2.785   3.927
 2498SOL    HW2 2054   3.435   2.879   4.000
 2501SOL     OW 2055   2.460   2.591   3.994
 2501SOL    HW1 2056   2.484   2.660   3.926
 2501SOL    HW2 2057   2.382   2.624   4.048
 2504SOL     OW 2058   2.903   2.563   4.153
 2504SOL    HW1 2059   2.929   2.559   4.249
 2504SOL    HW2 2060   2.818   2.512   4.139
 2506SOL     OW 2061   2.727   2.210   3.919
 2506SOL    HW1 2062   2.786   2.273   3.870
 2506SOL    HW2 2063   2.746   2.116   3.890
 2512SOL     OW 2064   2.183   2.805   3.966
 2512SOL    HW1 2065   2.265   2.844   3.924
 2512SOL    HW2 2066   2.156   2.723   3.917
 2520SOL     OW 2067   2.244   2.562   4.204
 2520SOL    HW1 2068   2.289   2.472   4.201
 2520SOL    HW2 2069   2.150   2.551   4.237
 2521SOL     OW 2070   2.476   1.984   3.841
 2521SOL    HW1 2071   2.574   1.962   3.848
 2521SOL    HW2 2072   2.445   1.967   3.748
 2525SOL     OW 2073   3.296   3.050   3.765
 2525SOL    HW1 2074   3.328   2.974   3.822
 2525SOL    HW2 2075   3.204   3.077   3.795
 2526SOL     OW 2076   2.159   1.897   3.895
 2526SOL    HW1 2077   2.208   1.981   3.874
 2526SOL    HW2 2078   2.221   1.832   3.940
 2531SOL     OW 2079   2.894   2.411   3.740
 2531SOL    HW1 2080   2.853   2.493   3.701
 2531SOL    HW2 2081   2.958   2.437   3.813
 2537SOL     OW 2082   2.350   3.247   3.898
 2537SOL    HW1 2083   2.263   3.232   3.945
 2537SOL    HW2 2084   2.333   3.273   3.803
 2539SOL     OW 2085   3.252   2.437   3.802
 2539SOL    HW1 2086   3.198   2.416   3.883
 2539SOL    HW2 2087   3.343   2.396   3.811
 2540SOL     OW 2088   2.389   2.118   4.052
 2540SOL    HW1 2089   2.416   2.059   3.977
 2540SOL    HW2 2090   2.389   2.213   4.021
 2543SOL     OW 2091   2.567   2.912   4.092
 2543SOL    HW1 2092   2.553   2.919   4.191
 2543SOL    HW2 2093   2.651   2.861   4.074
 2551SOL     OW 2094   3.071   2.387   3.999
 2551SOL    HW1 2095   3.084   2.303   4.053
 2551SOL    HW2 2096   3.042   2.461   4.059
 2557SOL     OW 2097   3.402   2.136   3.849
 2557SOL    HW1 2098   3.341   2.061   3.872
 2557SOL    HW2 2099   3.424   2.188   3.932
 2558SOL     OW 2100   3.165   2.700   3.766
 2558SOL    HW1 2101   3.199   2.607   3.781
 2558SOL    HW2 2102   3.183   2.727   3.671
 2562SOL     OW 2103   1.870   3.188   3.924
 2562SOL    HW1 2104   1.777   3.209   3.893
 2562SOL    HW2 2105   1.880   3.089   3.937
 2567SOL     OW 2106   2.677   2.434   4.049
 2567SOL    HW1 2107   2.684   2.345   4.003
 2567SOL    HW2 2108   2.583   2.468   4.041
 2570SOL     OW 2109   2.335   2.362   3.915
 2570SOL    HW1 2110   2.396   2.442   3.919
 2570SOL    HW2 2111   2.240   2.393   3.922
 2571SOL     OW 2112   3.164   2.717   4.033
 2571SOL    HW1 2113   3.078   2.686   4.075
 2571SOL    HW2 2114   3.160   2.703   3.934
 2577SOL     OW 2115   2.534   3.478   3.878
 2577SOL    HW1 2116   2.543   3.488   3.779
 2577SOL    HW2 2117   2.494   3.389   3.899
 2580SOL     OW 2118   3.056   3.474   3.755
 2580SOL    HW1 2119   3.062   3.381   3.792
 2580SOL    HW2 2120   2.997   3.474   3.675
 2582SOL     OW 2121   2.778   2.772   4.015
 2582SOL    HW1 2122   2.841   2.810   3.947
 2582SOL    HW2 2123   2.818   2.689   4.054
 2588SOL     OW 2124   2.117   3.210   4.014
 2588SOL    HW1 2125   2.021   3.211   3.987
 2588SOL    HW2 2126   2.129   3.263   4.098
 2589SOL     OW 2127   1.937   2.207   3.757
 2589SOL    HW1 2128   1.845   2.179   3.728
 2589SOL    HW2 2129   1.968   2.284   3.701
 2590SOL     OW 2130   1.934   2.028   4.042
 2590SOL    HW1 2131   1.917   2.111   3.988
 2590SOL    HW2 2132   2.024   1.991   4.020
 2591SOL     OW 2133   3.045   3.197   3.843
 2591SOL    HW1 2134   2.946   3.186   3.845
 2591SOL    HW2 2135   3.079   3.212   3.936
 2596SOL     OW 2136   2.721   3.236   3.740
 2596SOL    HW1 2137   2.675   3.251   3.828
 2596SOL    HW2 2138   2.765   3.321   3.710
 2599SOL     OW 2139   2.945   2.846   3.811
 2599SOL    HW1 2140   2.922   2.899   3.729
 2599SOL    HW2 2141   3.026   2.790   3.792
 2603SOL     OW 2142   2.290   2.286   4.244
 2603SOL    HW1 2143   2.320   2.214   4.182
 2603SOL    HW2 2144   2.251   2.246   4.327
 2607SOL     OW 2145   2.632   3.192   4.025
 2607SOL    HW1 2146   2.586   3.105   4.042
 2607SOL    HW2 2147   2.723   3.189   4.066
 2608SOL     OW 2148   3.214   1.914   3.892
 2608SOL    HW1 2149   3.249   1.873   3.808
 2608SOL    HW2 2150   3.124   1.876   3.912
 2611SOL     OW 2151   1.901   2.939   4.024
 2611SOL    HW1 2152   2.000   2.928   4.015
 2611SOL    HW2 2153   1.861   2.853   4.056
 2635SOL     OW 2154   2.179   3.975   1.801
 2635SOL    HW1 2155   2.250   4.046   1.807
 2635SOL    HW2 2156   2.091   4.014   1.829
 2655SOL     OW 2157   2.643   3.988   1.749
 2655SOL    HW1 2158   2.710   3.927   1.792
 2655SOL    HW2 2159   2.570   4.007   1.814
 2675SOL     OW 2160   2.777   3.813   1.402
 2675SOL    HW1 2161   2.802   3.793   1.307
 2675SOL    HW2 2162   2.849   3.869   1.444
 2684SOL     OW 2163   2.875   3.829   1.770
 2684SOL    HW1 2164   2.881   3.914   1.718
 2684SOL    HW2 2165   2.907   3.753   1.713
 2685SOL     OW 2166   2.366   3.774   1.740
 2685SOL    HW1 2167   2.324   3.717   1.670
 2685SOL    HW2 2168   2.300   3.843   1.772
 2724SOL     OW 2169   2.534   3.927   1.489
 2724SOL    HW1 2170   2.624   3.911   1.449
 2724SOL    HW2 2171   2.542   3.932   1.588
 2748SOL     OW 2172   2.087   3.999   2.858
 2748SOL    HW1 2173   2.122   3.982   2.950
 2748SOL    HW2 2174   1.999   3.954   2.846
 2749SOL     OW 2175   1.881   4.092   2.509
 2749SOL    HW1 2176   1.799   4.135   2.548
 2749SOL    HW2 2177   1.853   4.019   2.446
 2766SOL     OW 2178   2.671   3.728   2.364
 2766SOL    HW1 2179   2.711   3.819   2.355
 2766SOL    HW2 2180   2.571   3.736   2.370
 2771SOL     OW 2181   3.143   4.069   2.806
 2771SOL    HW1 2182   3.057   4.019   2.793
 2771SOL    HW2 2183   3.205   4.015   2.862
 2778SOL     OW 2184   2.727   4.072   2.057
 2778SOL    HW1 2185   2.786   4.135   2.008
 2778SOL    HW2 2186   2.746   3.978   2.028
 2780SOL     OW 2187   2.412   3.920   2.747
 2780SOL    HW1 2188   2.407   3.915   2.847
 2780SOL    HW2 2189   2.414   4.016   2.718
 2785SOL     OW 2190   3.262   3.831   2.288
 2785SOL    HW1 2191   3.238   3.794   2.198
 2785SOL    HW2 2192   3.361   3.847   2.292
 2788SOL     OW 2193   2.476   3.846   1.979
 2788SOL    HW1 2194   2.574   3.824   1.986
 2788SOL    HW2 2195   2.445   3.829   1.886
 2792SOL     OW 2196   2.401   3.788   2.374
 2792SOL    HW1 2197   2.320   3.789   2.432
 2792SOL    HW2 2198   2.404   3.871   2.319
 2793SOL     OW 2199   2.159   3.759   2.033
 2793SOL    HW1 2200   2.208   3.843   2.012
 2793SOL    HW2 2201   2.221   3.694   2.078
 2794SOL     OW 2202   2.797   3.960   2.342
 2794SOL    HW1 2203   2.749   4.001   2.264
 2794SOL    HW2 2204   2.896   3.958   2.323
 2799SOL     OW 2205   2.423   3.946   3.009
 2799SOL    HW1 2206   2.461   3.862   3.046
 2799SOL    HW2 2207   2.335   3.965   3.053
 2800SOL     OW 2208   2.728   4.178   2.504
 2800SOL    HW1 2209   2.696   4.250   2.442
 2800SOL    HW2 2210   2.752   4.097   2.451
 2801SOL     OW 2211   2.879   3.763   2.615
 2801SOL    HW1 2212   2.807   3.768   2.546
 2801SOL    HW2 2213   2.855   3.694   2.684
 2806SOL     OW 2214   2.389   3.980   2.190
 2806SOL    HW1 2215   2.416   3.921   2.115
 2806SOL    HW2 2216   2.389   4.075   2.159
 2809SOL     OW 2217   2.777   3.813   3.264
 2809SOL    HW1 2218   2.802   3.793   3.169
 2809SOL    HW2 2219   2.849   3.869   3.306
 2819SOL     OW 2220   2.366   3.774   3.602
 2819SOL    HW1 2221   2.324   3.717   3.532
 2819SOL    HW2 2222   2.300   3.843   3.634
 2823SOL     OW 2223   2.169   3.937   3.093
 2823SOL    HW1 2224   2.146   3.974   3.183
 2823SOL    HW2 2225   2.139   3.842   3.087
 2826SOL     OW 2226   2.169   3.787   2.480
 2826SOL    HW1 2227   2.158   3.881   2.513
 2826SOL    HW2 2228   2.164   3.724   2.557
 2835SOL     OW 2229   3.022   3.931   3.339
 2835SOL    HW1 2230   3.022   3.995   3.416
 2835SOL    HW2 2231   3.050   3.979   3.256
 2847SOL     OW 2232   3.588   3.859   2.385
 2847SOL    HW1 2233   3.661   3.842   2.318
 2847SOL    HW2 2234   3.557   3.772   2.423
 2850SOL     OW 2235   2.125   4.050   2.582
 2850SOL    HW1 2236   2.046   4.101   2.548
 2850SOL    HW2 2237   2.116   4.035   2.680
 2854SOL     OW 2238   2.876   3.960   2.833
 2854SOL    HW1 2239   2.868   3.924   2.740
 2854SOL    HW2 2240   2.874   3.884   2.898
 2857SOL     OW 2241   2.534   3.927   3.351
 2857SOL    HW1 2242   2.624   3.911   3.311
 2857SOL    HW2 2243   2.542   3.932   3.450
 2858SOL     OW 2244   1.937   4.069   1.895
 2858SOL    HW1 2245   1.845   4.041   1.866
 2858SOL    HW2 2246   1.968   4.146   1.839
 2860SOL     OW 2247   1.934   3.890   2.180
 2860SOL    HW1 2248   1.917   3.973   2.126
 2860SOL    HW2 2249   2.024   3.853   2.158
 2865SOL     OW 2250   3.087   4.049   2.311
 2865SOL    HW1 2251   3.152   3.975   2.300
 2865SOL    HW2 2252   3.107   4.099   2.395
 2873SOL     OW 2253   2.290   4.148   2.382
 2873SOL    HW1 2254   2.320   4.076   2.320
 2873SOL    HW2 2255   2.251   4.108   2.465
 2875SOL     OW 2256   3.286   3.938   2.974
 2875SOL    HW1 2257   3.338   3.873   3.029
 2875SOL    HW2 2258   3.237   4.001   3.035
 2876SOL     OW 2259   2.863   3.758   3.016
 2876SOL    HW1 2260   2.800   3.686   2.985
 2876SOL    HW2 2261   2.956   3.722   3.016
 2878SOL     OW 2262   3.214   3.776   2.030
 2878SOL    HW1 2263   3.249   3.735   1.946
 2878SOL    HW2 2264   3.124   3.738   2.050
 2880SOL     OW 2265   3.455   3.945   2.744
 2880SOL    HW1 2266   3.371   3.944   2.798
 2880SOL    HW2 2267   3.457   4.028   2.688
 3005SOL     OW 2268   3.854   1.821   1.571
 3005SOL    HW1 2269   3.844   1.806   1.670
 3005SOL    HW2 2270   3.768   1.857   1.535
 3079SOL     OW 2271   3.854   1.794   1.851
 3079SOL    HW1 2272   3.813   1.720   1.904
 3079SOL    HW2 2273   3.918   1.845   1.909
 3122SOL     OW 2274   3.955   1.713   2.345
 3122SOL    HW1 2275   3.989   1.790   2.399
 3122SOL    HW2 2276   3.999   1.713   2.255
 3129SOL     OW 2277   3.751   1.596   1.979
 3129SOL    HW1 2278   3.732   1.500   2.000
 3129SOL    HW2 2279   3.718   1.654   2.054
 3145SOL     OW 2280   4.075   1.801   2.715
 3145SOL    HW1 2281   4.125   1.715   2.721
 3145SOL    HW2 2282   4.140   1.878   2.712
 3150SOL     OW 2283   3.973   1.785   3.103
 3150SOL    HW1 2284   4.030   1.720   3.153
 3150SOL    HW2 2285   3.957   1.752   3.010
 3176SOL     OW 2286   3.788   1.564   3.193
 3176SOL    HW1 2287   3.742   1.646   3.159
 3176SOL    HW2 2288   3.886   1.583   3.202
 3200SOL     OW 2289   3.732   1.326   2.062
 3200SOL    HW1 2290   3.639   1.347   2.031
 3200SOL    HW2 2291   3.742   1.227   2.075
 3201SOL     OW 2292   3.812   1.801   2.789
 3201SOL    HW1 2293   3.770   1.715   2.762
 3201SOL    HW2 2294   3.906   1.804   2.755
 3358SOL     OW 2295   3.837   2.599   1.597
 3358SOL    HW1 2296   3.925   2.586   1.642
 3358SOL    HW2 2297   3.824   2.696   1.575
 3362SOL     OW 2298   4.041   2.113   1.801
 3362SOL    HW1 2299   4.112   2.184   1.807
 3362SOL    HW2 2300   3.953   2.152   1.829
 3376SOL     OW 2301   3.926   2.147   1.498
 3376SOL    HW1 2302   3.846   2.207   1.485
 3376SOL    HW2 2303   3.916   2.098   1.584
 3393SOL     OW 2304   3.802   2.418   1.386
 3393SOL    HW1 2305   3.894   2.417   1.345
 3393SOL    HW2 2306   3.796   2.492   1.453
 3421SOL     OW 2307   4.074   2.760   1.804
 3421SOL    HW1 2308   4.150   2.804   1.852
 3421SOL    HW2 2309   4.109   2.713   1.722
 3432SOL     OW 2310   3.913   2.382   1.722
 3432SOL    HW1 2311   3.972   2.342   1.652
 3432SOL    HW2 2312   3.855   2.453   1.681
 3454SOL     OW 2313   3.829   2.875   1.726
 3454SOL    HW1 2314   3.752   2.842   1.780
 3454SOL    HW2 2315   3.914   2.845   1.768
 3465SOL     OW 2316   3.945   3.176   1.844
 3465SOL    HW1 2317   3.880   3.103   1.823
 3465SOL    HW2 2318   3.949   3.190   1.942
 3476SOL     OW 2319   3.954   2.490   1.975
 3476SOL    HW1 2320   3.861   2.488   2.012
 3476SOL    HW2 2321   3.955   2.451   1.883
 3477SOL     OW 2322   3.949   2.137   2.858
 3477SOL    HW1 2323   3.984   2.120   2.950
 3477SOL    HW2 2324   3.861   2.092   2.846
 3478SOL     OW 2325   3.743   2.230   2.509
 3478SOL    HW1 2326   3.661   2.273   2.548
 3478SOL    HW2 2327   3.715   2.157   2.446
 3488SOL     OW 2328   3.954   3.296   2.400
 3488SOL    HW1 2329   3.928   3.392   2.400
 3488SOL    HW2 2330   3.883   3.242   2.445
 3489SOL     OW 2331   3.964   2.953   2.748
 3489SOL    HW1 2332   3.978   2.869   2.800
 3489SOL    HW2 2333   3.909   3.017   2.803
 3492SOL     OW 2334   3.846   2.505   2.425
 3492SOL    HW1 2335   3.801   2.417   2.442
 3492SOL    HW2 2336   3.845   2.559   2.509
 3493SOL     OW 2337   3.751   3.458   1.979
 3493SOL    HW1 2338   3.732   3.362   2.000
 3493SOL    HW2 2339   3.718   3.516   2.054
 3494SOL     OW 2340   3.837   2.599   3.459
 3494SOL    HW1 2341   3.925   2.586   3.504
 3494SOL    HW2 2342   3.824   2.696   3.437
 3497SOL     OW 2343   3.921   2.838   3.126
 3497SOL    HW1 2344   4.010   2.793   3.112
 3497SOL    HW2 2345   3.848   2.773   3.107
 3504SOL     OW 2346   3.800   2.673   2.651
 3504SOL    HW1 2347   3.899   2.661   2.660
 3504SOL    HW2 2348   3.776   2.768   2.672
 3510SOL     OW 2349   4.045   2.805   2.104
 3510SOL    HW1 2350   4.127   2.844   2.062
 3510SOL    HW2 2351   4.018   2.723   2.055
 3512SOL     OW 2352   3.926   2.147   3.360
 3512SOL    HW1 2353   3.846   2.207   3.347
 3512SOL    HW2 2354   3.916   2.098   3.446
 3516SOL     OW 2355   4.106   2.562   2.342
 3516SOL    HW1 2356   4.151   2.472   2.339
 3516SOL    HW2 2357   4.012   2.551   2.375
 3523SOL     OW 2358   4.021   1.897   2.033
 3523SOL    HW1 2359   4.070   1.981   2.012
 3523SOL    HW2 2360   4.083   1.832   2.078
 3529SOL     OW 2361   3.802   2.418   3.248
 3529SOL    HW1 2362   3.894   2.417   3.207
 3529SOL    HW2 2363   3.796   2.492   3.315
 3539SOL     OW 2364   4.134   2.675   3.113
 3539SOL    HW1 2365   4.220   2.687   3.163
 3539SOL    HW2 2366   4.092   2.588   3.140
 3540SOL     OW 2367   3.788   3.426   3.193
 3540SOL    HW1 2368   3.742   3.508   3.159
 3540SOL    HW2 2369   3.886   3.445   3.202
 3541SOL     OW 2370   4.091   2.962   2.363
 3541SOL    HW1 2371   4.084   3.045   2.307
 3541SOL    HW2 2372   4.095   2.882   2.303
 3551SOL     OW 2373   4.031   2.075   3.093
 3551SOL    HW1 2374   4.008   2.112   3.183
 3551SOL    HW2 2375   4.001   1.980   3.087
 3552SOL     OW 2376   3.761   3.172   3.144
 3552SOL    HW1 2377   3.814   3.123   3.212
 3552SOL    HW2 2378   3.783   3.270   3.149
 3554SOL     OW 2379   4.031   1.925   2.480
 3554SOL    HW1 2380   4.020   2.019   2.513
 3554SOL    HW2 2381   4.026   1.862   2.557
 3560SOL     OW 2382   4.043   2.672   2.811
 3560SOL    HW1 2383   4.136   2.708   2.816
 3560SOL    HW2 2384   4.037   2.587   2.863
 3561SOL     OW 2385   4.063   2.371   2.868
 3561SOL    HW1 2386   4.011   2.288   2.851
 3561SOL    HW2 2387   4.140   2.376   2.804
 3564SOL     OW 2388   3.732   3.188   2.062
 3564SOL    HW1 2389   3.639   3.209   2.031
 3564SOL    HW2 2390   3.742   3.089   2.075
 3568SOL     OW 2391   3.764   2.406   2.976
 3568SOL    HW1 2392   3.849   2.373   2.935
 3568SOL    HW2 2393   3.777   2.421   3.074
 3574SOL     OW 2394   4.197   2.362   2.053
 3574SOL    HW1 2395   4.258   2.442   2.057
 3574SOL    HW2 2396   4.102   2.393   2.060
 3575SOL     OW 2397   3.883   2.999   3.328
 3575SOL    HW1 2398   3.905   2.938   3.404
 3575SOL    HW2 2399   3.893   2.950   3.242
 3577SOL     OW 2400   3.807   3.120   2.884
 3577SOL    HW1 2401   3.802   3.119   2.984
 3577SOL    HW2 2402   3.724   3.079   2.846
 3582SOL     OW 2403   3.987   2.188   2.582
 3582SOL    HW1 2404   3.908   2.239   2.548
 3582SOL    HW2 2405   3.978   2.173   2.680
 3589SOL     OW 2406   3.979   3.210   2.152
 3589SOL    HW1 2407   3.883   3.211   2.125
 3589SOL    HW2 2408   3.991   3.263   2.236
 3592SOL     OW 2409   3.799   2.207   1.895
 3592SOL    HW1 2410   3.707   2.179   1.866
 3592SOL    HW2 2411   3.830   2.284   1.839
 3593SOL     OW 2412   3.796   2.028   2.180
 3593SOL    HW1 2413   3.779   2.111   2.126
 3593SOL    HW2 2414   3.886   1.991   2.158
 3603SOL     OW 2415   3.803   3.102   2.515
 3603SOL    HW1 2416   3.802   3.055   2.603
 3603SOL    HW2 2417   3.885   3.074   2.464
 3605SOL     OW 2418   4.152   2.286   2.382
 3605SOL    HW1 2419   4.182   2.214   2.320
 3605SOL    HW2 2420   4.113   2.246   2.465
 3606SOL     OW 2421   4.041   2.409   3.142
 3606SOL    HW1 2422   4.079   2.350   3.214
 3606SOL    HW2 2423   4.081   2.383   3.054
 3611SOL     OW 2424   3.763   2.939   2.162
 3611SOL    HW1 2425   3.862   2.928   2.153
 3611SOL    HW2 2426   3.723   2.853   2.194
   4.93742   4.93742   4.93742
