; mobley_9626434_GMX.itp created by acpype (v: 2023.10.27) on Thu May 21 00:18:43 2026

[ atomtypes ]
;name   bond_type     mass     charge   ptype   sigma         epsilon       Amb
 c3       c3          0.00000  0.00000   A     3.39771e-01   4.51035e-01 ; 1.91  0.1078
 oh       oh          0.00000  0.00000   A     3.24287e-01   3.89112e-01 ; 1.82  0.0930
 os       os          0.00000  0.00000   A     3.15610e-01   3.03758e-01 ; 1.77  0.0726
 hc       hc          0.00000  0.00000   A     2.60018e-01   8.70272e-02 ; 1.46  0.0208
 h1       h1          0.00000  0.00000   A     2.42200e-01   8.70272e-02 ; 1.36  0.0208
 ho       ho          0.00000  0.00000   A     5.37925e-02   1.96648e-02 ; 0.30  0.0047

[ moleculetype ]
;name            nrexcl
 mobley_9626434   3

[ atoms ]
;   nr  type  resi  res  atom  cgnr     charge      mass       ; qtot   bond_type
     1   c3     1   MOL    C1    1    -0.097100     12.01000 ; qtot -0.097
     2   c3     1   MOL    C2    2     0.131400     12.01000 ; qtot 0.034
     3   c3     1   MOL    C3    3     0.125400     12.01000 ; qtot 0.160
     4   c3     1   MOL    C4    4     0.092400     12.01000 ; qtot 0.252
     5   oh     1   MOL    O1    5    -0.592800     16.00000 ; qtot -0.341
     6   os     1   MOL    O2    6    -0.423600     16.00000 ; qtot -0.764
     7   hc     1   MOL    H1    7     0.045700      1.00800 ; qtot -0.719
     8   hc     1   MOL    H2    8     0.045700      1.00800 ; qtot -0.673
     9   hc     1   MOL    H3    9     0.045700      1.00800 ; qtot -0.627
    10   h1     1   MOL    H4   10     0.025700      1.00800 ; qtot -0.602
    11   h1     1   MOL    H5   11     0.025700      1.00800 ; qtot -0.576
    12   h1     1   MOL    H6   12     0.059200      1.00800 ; qtot -0.517
    13   h1     1   MOL    H7   13     0.059200      1.00800 ; qtot -0.457
    14   h1     1   MOL    H8   14     0.030200      1.00800 ; qtot -0.427
    15   h1     1   MOL    H9   15     0.030200      1.00800 ; qtot -0.397
    16   ho     1   MOL   H10   16     0.397000      1.00800 ; qtot -0.000

[ bonds ]
;   ai     aj funct   r             k
     1      2   1    1.5354e-01    1.9154e+05 ;     C1 - C2    
     1      7   1    1.0962e-01    2.8891e+05 ;     C1 - H1    
     1      8   1    1.0962e-01    2.8891e+05 ;     C1 - H2    
     1      9   1    1.0962e-01    2.8891e+05 ;     C1 - H3    
     2      6   1    1.4273e-01    2.3620e+05 ;     C2 - O2    
     2     10   1    1.0969e-01    2.8804e+05 ;     C2 - H4    
     2     11   1    1.0969e-01    2.8804e+05 ;     C2 - H5    
     3      4   1    1.5354e-01    1.9154e+05 ;     C3 - C4    
     3      5   1    1.4242e-01    2.3861e+05 ;     C3 - O1    
     3     12   1    1.0969e-01    2.8804e+05 ;     C3 - H6    
     3     13   1    1.0969e-01    2.8804e+05 ;     C3 - H7    
     4      6   1    1.4273e-01    2.3620e+05 ;     C4 - O2    
     4     14   1    1.0969e-01    2.8804e+05 ;     C4 - H8    
     4     15   1    1.0969e-01    2.8804e+05 ;     C4 - H9    
     5     16   1    9.7250e-02    4.4811e+05 ;     O1 - H10   

[ pairs ]
;   ai     aj    funct
     1      4      1 ;     C1 - C4    
     2      3      1 ;     C2 - C3    
     2     14      1 ;     C2 - H8    
     2     15      1 ;     C2 - H9    
     4     10      1 ;     C4 - H4    
     4     11      1 ;     C4 - H5    
     4     16      1 ;     C4 - H10   
     5      6      1 ;     O1 - O2    
     5     14      1 ;     O1 - H8    
     5     15      1 ;     O1 - H9    
     6     12      1 ;     O2 - H6    
     6     13      1 ;     O2 - H7    
     7      6      1 ;     H1 - O2    
     7     10      1 ;     H1 - H4    
     7     11      1 ;     H1 - H5    
     8      6      1 ;     H2 - O2    
     8     10      1 ;     H2 - H4    
     8     11      1 ;     H2 - H5    
     9      6      1 ;     H3 - O2    
     9     10      1 ;     H3 - H4    
     9     11      1 ;     H3 - H5    
    12     14      1 ;     H6 - H8    
    12     15      1 ;     H6 - H9    
    12     16      1 ;     H6 - H10   
    13     14      1 ;     H7 - H8    
    13     15      1 ;     H7 - H9    
    13     16      1 ;     H7 - H10   

[ angles ]
;   ai     aj     ak    funct   theta         cth
     1      2      6      1    1.0762e+02    6.4802e+02 ;     C1 - C2     - O2    
     1      2     10      1    1.0959e+02    3.6217e+02 ;     C1 - C2     - H4    
     1      2     11      1    1.0959e+02    3.6217e+02 ;     C1 - C2     - H5    
     2      1      7      1    1.0968e+02    3.6208e+02 ;     C2 - C1     - H1    
     2      1      8      1    1.0968e+02    3.6208e+02 ;     C2 - C1     - H2    
     2      1      9      1    1.0968e+02    3.6208e+02 ;     C2 - C1     - H3    
     2      6      4      1    1.1360e+02    7.3915e+02 ;     C2 - O2     - C4    
     3      4      6      1    1.0762e+02    6.4802e+02 ;     C3 - C4     - O2    
     3      4     14      1    1.0959e+02    3.6217e+02 ;     C3 - C4     - H8    
     3      4     15      1    1.0959e+02    3.6217e+02 ;     C3 - C4     - H9    
     3      5     16      1    1.0739e+02    5.4501e+02 ;     C3 - O1     - H10   
     4      3      5      1    1.0966e+02    6.4258e+02 ;     C4 - C3     - O1    
     4      3     12      1    1.0959e+02    3.6217e+02 ;     C4 - C3     - H6    
     4      3     13      1    1.0959e+02    3.6217e+02 ;     C4 - C3     - H7    
     5      3     12      1    1.1038e+02    4.7103e+02 ;     O1 - C3     - H6    
     5      3     13      1    1.1038e+02    4.7103e+02 ;     O1 - C3     - H7    
     6      2     10      1    1.1034e+02    4.7028e+02 ;     O2 - C2     - H4    
     6      2     11      1    1.1034e+02    4.7028e+02 ;     O2 - C2     - H5    
     6      4     14      1    1.1034e+02    4.7028e+02 ;     O2 - C4     - H8    
     6      4     15      1    1.1034e+02    4.7028e+02 ;     O2 - C4     - H9    
     7      1      8      1    1.0773e+02    2.9957e+02 ;     H1 - C1     - H2    
     7      1      9      1    1.0773e+02    2.9957e+02 ;     H1 - C1     - H3    
     8      1      9      1    1.0773e+02    2.9957e+02 ;     H2 - C1     - H3    
    10      2     11      1    1.0855e+02    2.9824e+02 ;     H4 - C2     - H5    
    12      3     13      1    1.0855e+02    2.9824e+02 ;     H6 - C3     - H7    
    14      4     15      1    1.0855e+02    2.9824e+02 ;     H8 - C4     - H9    

[ dihedrals ] ; propers
; for gromacs 4.5 or higher, using funct 9
;    i      j      k      l   func   phase     kd      pn
     1      2      6      4      9     0.00   0.33472   2 ;     C1-    C2-    O2-    C4
     1      2      6      4      9     0.00   3.13800   3 ;     C1-    C2-    O2-    C4
     1      2      6      4      9   180.00   3.68192   1 ;     C1-    C2-    O2-    C4
     2      6      4      3      9     0.00   0.33472   2 ;     C2-    O2-    C4-    C3
     2      6      4      3      9     0.00   3.13800   3 ;     C2-    O2-    C4-    C3
     2      6      4      3      9   180.00   3.68192   1 ;     C2-    O2-    C4-    C3
     2      6      4     14      9     0.00   1.41001   3 ;     C2-    O2-    C4-    H8
     2      6      4     15      9     0.00   1.41001   3 ;     C2-    O2-    C4-    H9
     4      3      5     16      9     0.00   0.25104   3 ;     C4-    C3-    O1-   H10
     4      6      2     10      9     0.00   1.41001   3 ;     C4-    O2-    C2-    H4
     4      6      2     11      9     0.00   1.41001   3 ;     C4-    O2-    C2-    H5
     5      3      4      6      9     0.00   0.65084   3 ;     O1-    C3-    C4-    O2
     5      3      4     14      9     0.00   0.00000   0 ;     O1-    C3-    C4-    H8
     5      3      4     14      9     0.00   1.04600   1 ;     O1-    C3-    C4-    H8
     5      3      4     15      9     0.00   0.00000   0 ;     O1-    C3-    C4-    H9
     5      3      4     15      9     0.00   1.04600   1 ;     O1-    C3-    C4-    H9
     6      4      3     12      9     0.00   0.00000   0 ;     O2-    C4-    C3-    H6
     6      4      3     12      9     0.00   1.04600   1 ;     O2-    C4-    C3-    H6
     6      4      3     13      9     0.00   0.00000   0 ;     O2-    C4-    C3-    H7
     6      4      3     13      9     0.00   1.04600   1 ;     O2-    C4-    C3-    H7
     7      1      2      6      9     0.00   0.00000   0 ;     H1-    C1-    C2-    O2
     7      1      2      6      9     0.00   1.04600   1 ;     H1-    C1-    C2-    O2
     7      1      2     10      9     0.00   0.65084   3 ;     H1-    C1-    C2-    H4
     7      1      2     11      9     0.00   0.65084   3 ;     H1-    C1-    C2-    H5
     8      1      2      6      9     0.00   0.00000   0 ;     H2-    C1-    C2-    O2
     8      1      2      6      9     0.00   1.04600   1 ;     H2-    C1-    C2-    O2
     8      1      2     10      9     0.00   0.65084   3 ;     H2-    C1-    C2-    H4
     8      1      2     11      9     0.00   0.65084   3 ;     H2-    C1-    C2-    H5
     9      1      2      6      9     0.00   0.00000   0 ;     H3-    C1-    C2-    O2
     9      1      2      6      9     0.00   1.04600   1 ;     H3-    C1-    C2-    O2
     9      1      2     10      9     0.00   0.65084   3 ;     H3-    C1-    C2-    H4
     9      1      2     11      9     0.00   0.65084   3 ;     H3-    C1-    C2-    H5
    12      3      4     14      9     0.00   0.65084   3 ;     H6-    C3-    C4-    H8
    12      3      4     15      9     0.00   0.65084   3 ;     H6-    C3-    C4-    H9
    12      3      5     16      9     0.00   0.51463   3 ;     H6-    C3-    O1-   H10
    13      3      4     14      9     0.00   0.65084   3 ;     H7-    C3-    C4-    H8
    13      3      4     15      9     0.00   0.65084   3 ;     H7-    C3-    C4-    H9
    13      3      5     16      9     0.00   0.51463   3 ;     H7-    C3-    O1-   H10
