mobley_3264884_GMX.gro created by acpype (v: 2023.10.27) on Wed May 20 23:51:47 2026
 2399
    1MOL     C1    1   2.141   2.536   2.447
    1MOL     C2    2   2.232   2.639   2.421
    1MOL     C3    3   2.184   2.404   2.449
    1MOL     C4    4   2.366   2.609   2.399
    1MOL     C5    5   2.364   2.239   2.430
    1MOL     C6    6   2.499   2.209   2.407
    1MOL     C7    7   2.546   2.444   2.379
    1MOL     C8    8   2.319   2.372   2.427
    1MOL     C9    9   2.411   2.476   2.402
    1MOL    C10   10   2.590   2.312   2.382
    1MOL     N1   11   2.726   2.281   2.360
    1MOL     H1   12   2.036   2.560   2.464
    1MOL     H2   13   2.198   2.742   2.419
    1MOL     H3   14   2.111   2.325   2.469
    1MOL     H4   15   2.435   2.690   2.379
    1MOL     H5   16   2.295   2.157   2.449
    1MOL     H6   17   2.531   2.105   2.410
    1MOL     H7   18   2.618   2.523   2.359
    1MOL     H8   19   2.750   2.192   2.322
    1MOL     H9   20   2.796   2.346   2.390
   14SOL     OW   21   1.460   1.505   1.339
   14SOL    HW1   22   1.484   1.599   1.365
   14SOL    HW2   23   1.444   1.451   1.421
   35SOL     OW   24   1.187   1.792   1.616
   35SOL    HW1   25   1.211   1.852   1.540
   35SOL    HW2   26   1.194   1.697   1.586
   56SOL     OW   27   1.227   1.550   1.506
   56SOL    HW1   28   1.233   1.473   1.570
   56SOL    HW2   29   1.175   1.524   1.426
   95SOL     OW   30   1.754   1.223   1.588
   95SOL    HW1   31   1.845   1.184   1.575
   95SOL    HW2   32   1.762   1.319   1.612
   97SOL     OW   33   1.592   1.629   1.625
   97SOL    HW1   34   1.619   1.663   1.535
   97SOL    HW2   35   1.671   1.591   1.671
  122SOL     OW   36   1.728   0.935   1.854
  122SOL    HW1   37   1.682   0.928   1.765
  122SOL    HW2   38   1.666   0.979   1.920
  126SOL     OW   39   0.980   1.573   1.700
  126SOL    HW1   40   0.960   1.617   1.612
  126SOL    HW2   41   1.019   1.482   1.684
  127SOL     OW   42   1.859   1.518   1.605
  127SOL    HW1   43   1.873   1.545   1.510
  127SOL    HW2   44   1.942   1.540   1.658
  152SOL     OW   45   1.759   1.747   1.154
  152SOL    HW1   46   1.820   1.777   1.081
  152SOL    HW2   47   1.721   1.658   1.132
  163SOL     OW   48   1.650   1.720   1.394
  163SOL    HW1   49   1.703   1.730   1.310
  163SOL    HW2   50   1.623   1.810   1.428
  171SOL     OW   51   1.614   1.292   1.289
  171SOL    HW1   52   1.674   1.295   1.369
  171SOL    HW2   53   1.539   1.356   1.302
  186SOL     OW   54   1.450   1.220   1.633
  186SOL    HW1   55   1.441   1.210   1.732
  186SOL    HW2   56   1.546   1.213   1.607
  203SOL     OW   57   1.705   1.487   1.104
  203SOL    HW1   58   1.612   1.462   1.077
  203SOL    HW2   59   1.731   1.437   1.186
  219SOL     OW   60   1.555   1.511   2.565
  219SOL    HW1   61   1.498   1.495   2.646
  219SOL    HW2   62   1.496   1.521   2.485
  227SOL     OW   63   1.460   1.505   3.201
  227SOL    HW1   64   1.484   1.599   3.227
  227SOL    HW2   65   1.444   1.451   3.283
  238SOL     OW   66   1.842   1.767   2.221
  238SOL    HW1   67   1.896   1.738   2.301
  238SOL    HW2   68   1.872   1.857   2.192
  240SOL     OW   69   1.689   0.922   2.474
  240SOL    HW1   70   1.784   0.893   2.482
  240SOL    HW2   71   1.681   0.987   2.399
  241SOL     OW   72   1.641   1.108   2.294
  241SOL    HW1   73   1.727   1.110   2.242
  241SOL    HW2   74   1.655   1.155   2.382
  247SOL     OW   75   1.525   0.999   2.052
  247SOL    HW1   76   1.462   0.923   2.065
  247SOL    HW2   77   1.573   1.017   2.138
  248SOL     OW   78   1.187   1.792   3.478
  248SOL    HW1   79   1.211   1.852   3.402
  248SOL    HW2   80   1.194   1.697   3.448
  250SOL     OW   81   1.466   1.417   2.815
  250SOL    HW1   82   1.407   1.423   2.895
  250SOL    HW2   83   1.451   1.329   2.769
  251SOL     OW   84   1.667   1.714   2.434
  251SOL    HW1   85   1.626   1.691   2.346
  251SOL    HW2   86   1.649   1.640   2.499
  254SOL     OW   87   1.576   1.662   2.169
  254SOL    HW1   88   1.665   1.708   2.172
  254SOL    HW2   89   1.555   1.638   2.074
  264SOL     OW   90   1.362   1.144   2.407
  264SOL    HW1   91   1.445   1.115   2.359
  264SOL    HW2   92   1.313   1.211   2.351
  266SOL     OW   93   1.008   1.456   2.339
  266SOL    HW1   94   0.962   1.528   2.287
  266SOL    HW2   95   1.004   1.476   2.437
  268SOL     OW   96   1.795   1.066   2.735
  268SOL    HW1   97   1.733   1.051   2.659
  268SOL    HW2   98   1.743   1.077   2.820
  269SOL     OW   99   1.227   1.550   3.368
  269SOL    HW1  100   1.233   1.473   3.432
  269SOL    HW2  101   1.175   1.524   3.288
  273SOL     OW  102   1.111   1.776   2.099
  273SOL    HW1  103   1.051   1.714   2.149
  273SOL    HW2  104   1.142   1.732   2.014
  275SOL     OW  105   1.632   1.377   1.943
  275SOL    HW1  106   1.600   1.471   1.933
  275SOL    HW2  107   1.556   1.314   1.931
  279SOL     OW  108   0.940   1.698   2.766
  279SOL    HW1  109   1.020   1.641   2.787
  279SOL    HW2  110   0.891   1.658   2.689
  289SOL     OW  111   1.434   1.188   1.903
  289SOL    HW1  112   1.466   1.112   1.960
  289SOL    HW2  113   1.342   1.215   1.933
  293SOL     OW  114   1.227   1.570   2.655
  293SOL    HW1  115   1.248   1.644   2.590
  293SOL    HW2  116   1.295   1.570   2.728
  295SOL     OW  117   1.271   1.797   2.453
  295SOL    HW1  118   1.315   1.861   2.389
  295SOL    HW2  119   1.221   1.849   2.523
  301SOL     OW  120   1.429   1.173   2.729
  301SOL    HW1  121   1.374   1.089   2.722
  301SOL    HW2  122   1.455   1.202   2.637
  303SOL     OW  123   1.857   0.833   2.239
  303SOL    HW1  124   1.899   0.769   2.303
  303SOL    HW2  125   1.819   0.782   2.161
  305SOL     OW  126   1.664   1.280   2.519
  305SOL    HW1  127   1.763   1.288   2.533
  305SOL    HW2  128   1.619   1.364   2.550
  308SOL     OW  129   1.754   1.223   3.450
  308SOL    HW1  130   1.845   1.184   3.437
  308SOL    HW2  131   1.762   1.319   3.474
  310SOL     OW  132   1.592   1.629   3.487
  310SOL    HW1  133   1.619   1.663   3.397
  310SOL    HW2  134   1.671   1.591   3.533
  312SOL     OW  135   1.638   1.099   2.941
  312SOL    HW1  136   1.643   1.180   3.000
  312SOL    HW2  137   1.552   1.101   2.890
  321SOL     OW  138   1.252   1.348   2.250
  321SOL    HW1  139   1.302   1.425   2.290
  321SOL    HW2  140   1.157   1.350   2.282
  322SOL     OW  141   1.272   1.445   3.004
  322SOL    HW1  142   1.319   1.458   3.091
  322SOL    HW2  143   1.206   1.371   3.013
  340SOL     OW  144   1.859   1.518   3.467
  340SOL    HW1  145   1.873   1.545   3.372
  340SOL    HW2  146   1.942   1.540   3.520
  344SOL     OW  147   1.068   1.333   2.711
  344SOL    HW1  148   1.075   1.249   2.656
  344SOL    HW2  149   1.130   1.402   2.675
  365SOL     OW  150   1.759   1.747   3.016
  365SOL    HW1  151   1.820   1.777   2.943
  365SOL    HW2  152   1.721   1.658   2.994
  366SOL     OW  153   1.252   1.731   2.990
  366SOL    HW1  154   1.336   1.736   2.936
  366SOL    HW2  155   1.229   1.635   3.008
  370SOL     OW  156   1.388   1.573   2.339
  370SOL    HW1  157   1.455   1.585   2.265
  370SOL    HW2  158   1.348   1.662   2.362
  375SOL     OW  159   1.650   1.720   3.256
  375SOL    HW1  160   1.703   1.730   3.172
  375SOL    HW2  161   1.623   1.810   3.290
  378SOL     OW  162   1.194   1.612   1.893
  378SOL    HW1  163   1.200   1.519   1.930
  378SOL    HW2  164   1.135   1.612   1.813
  381SOL     OW  165   1.504   1.607   1.906
  381SOL    HW1  166   1.412   1.644   1.913
  381SOL    HW2  167   1.542   1.627   1.816
  383SOL     OW  168   1.614   1.292   3.151
  383SOL    HW1  169   1.674   1.295   3.231
  383SOL    HW2  170   1.539   1.356   3.164
  394SOL     OW  171   1.183   1.335   1.981
  394SOL    HW1  172   1.084   1.324   1.983
  394SOL    HW2  173   1.217   1.350   2.074
  396SOL     OW  174   1.493   1.767   2.821
  396SOL    HW1  175   1.526   1.831   2.752
  396SOL    HW2  176   1.559   1.761   2.896
  409SOL     OW  177   1.861   1.569   2.713
  409SOL    HW1  178   1.790   1.557   2.643
  409SOL    HW2  179   1.862   1.490   2.773
  415SOL     OW  180   1.705   1.487   2.966
  415SOL    HW1  181   1.612   1.462   2.939
  415SOL    HW2  182   1.731   1.437   3.048
  426SOL     OW  183   0.875   1.646   2.199
  426SOL    HW1  184   0.798   1.611   2.145
  426SOL    HW2  185   0.843   1.717   2.261
  559SOL     OW  186   0.850   2.660   1.823
  559SOL    HW1  187   0.846   2.736   1.888
  559SOL    HW2  188   0.872   2.696   1.732
  563SOL     OW  189   1.460   3.367   1.339
  563SOL    HW1  190   1.484   3.461   1.365
  563SOL    HW2  191   1.444   3.313   1.421
  567SOL     OW  192   1.127   3.203   1.690
  567SOL    HW1  193   1.174   3.203   1.778
  567SOL    HW2  194   1.079   3.116   1.679
  572SOL     OW  195   1.594   1.976   1.480
  572SOL    HW1  196   1.576   2.043   1.408
  572SOL    HW2  197   1.591   2.022   1.569
  580SOL     OW  198   1.293   3.090   1.423
  580SOL    HW1  199   1.330   3.017   1.365
  580SOL    HW2  200   1.345   3.095   1.508
  592SOL     OW  201   1.394   2.331   1.674
  592SOL    HW1  202   1.374   2.374   1.762
  592SOL    HW2  203   1.472   2.269   1.683
  593SOL     OW  204   0.973   2.752   1.572
  593SOL    HW1  205   1.019   2.668   1.543
  593SOL    HW2  206   0.917   2.786   1.497
  599SOL     OW  207   1.719   2.447   1.831
  599SOL    HW1  208   1.693   2.536   1.795
  599SOL    HW2  209   1.717   2.379   1.758
  604SOL     OW  210   1.795   2.928   0.873
  604SOL    HW1  211   1.733   2.913   0.797
  604SOL    HW2  212   1.743   2.939   0.958
  605SOL     OW  213   1.227   3.412   1.506
  605SOL    HW1  214   1.233   3.335   1.570
  605SOL    HW2  215   1.175   3.386   1.426
  617SOL     OW  216   1.547   2.084   1.729
  617SOL    HW1  217   1.542   2.121   1.821
  617SOL    HW2  218   1.475   2.015   1.717
  619SOL     OW  219   0.781   2.126   1.749
  619SOL    HW1  220   0.848   2.065   1.792
  619SOL    HW2  221   0.708   2.145   1.814
  621SOL     OW  222   1.351   2.452   1.433
  621SOL    HW1  223   1.379   2.409   1.518
  621SOL    HW2  224   1.376   2.548   1.434
  627SOL     OW  225   1.076   2.545   1.464
  627SOL    HW1  226   0.996   2.484   1.467
  627SOL    HW2  227   1.157   2.492   1.440
  637SOL     OW  228   1.466   2.452   0.992
  637SOL    HW1  229   1.436   2.357   0.999
  637SOL    HW2  230   1.539   2.468   1.058
  643SOL     OW  231   1.754   3.085   1.588
  643SOL    HW1  232   1.845   3.046   1.575
  643SOL    HW2  233   1.762   3.181   1.612
  645SOL     OW  234   1.592   3.491   1.625
  645SOL    HW1  235   1.619   3.525   1.535
  645SOL    HW2  236   1.671   3.453   1.671
  647SOL     OW  237   1.638   2.961   1.079
  647SOL    HW1  238   1.643   3.042   1.138
  647SOL    HW2  239   1.552   2.963   1.028
  649SOL     OW  240   0.980   2.978   1.719
  649SOL    HW1  241   0.881   2.984   1.729
  649SOL    HW2  242   1.003   2.898   1.663
  652SOL     OW  243   1.274   2.248   1.262
  652SOL    HW1  244   1.295   2.322   1.326
  652SOL    HW2  245   1.185   2.265   1.219
  661SOL     OW  246   1.587   2.641   1.670
  661SOL    HW1  247   1.495   2.679   1.665
  661SOL    HW2  248   1.647   2.688   1.605
  662SOL     OW  249   1.013   1.967   1.770
  662SOL    HW1  250   1.019   2.052   1.718
  662SOL    HW2  251   1.045   1.891   1.713
  665SOL     OW  252   1.360   2.724   1.045
  665SOL    HW1  253   1.285   2.724   0.979
  665SOL    HW2  254   1.397   2.632   1.054
  670SOL     OW  255   1.728   2.797   1.854
  670SOL    HW1  256   1.682   2.790   1.765
  670SOL    HW2  257   1.666   2.841   1.920
  675SOL     OW  258   1.859   3.380   1.605
  675SOL    HW1  259   1.873   3.407   1.510
  675SOL    HW2  260   1.942   3.402   1.658
  682SOL     OW  261   1.138   2.242   1.678
  682SOL    HW1  262   1.093   2.305   1.742
  682SOL    HW2  263   1.231   2.273   1.661
  683SOL     OW  264   1.160   2.069   1.477
  683SOL    HW1  265   1.160   2.133   1.554
  683SOL    HW2  266   1.188   2.117   1.394
  690SOL     OW  267   1.369   2.812   1.660
  690SOL    HW1  268   1.408   2.901   1.680
  690SOL    HW2  269   1.379   2.792   1.563
  692SOL     OW  270   1.657   2.466   1.206
  692SOL    HW1  271   1.619   2.397   1.268
  692SOL    HW2  272   1.739   2.430   1.162
  698SOL     OW  273   1.347   2.921   1.234
  698SOL    HW1  274   1.371   2.858   1.160
  698SOL    HW2  275   1.257   2.961   1.216
  711SOL     OW  276   1.650   3.582   1.394
  711SOL    HW1  277   1.703   3.592   1.310
  711SOL    HW2  278   1.623   3.672   1.428
  712SOL     OW  279   1.841   2.037   0.963
  712SOL    HW1  280   1.880   1.952   0.927
  712SOL    HW2  281   1.743   2.039   0.944
  719SOL     OW  282   1.614   3.154   1.289
  719SOL    HW1  283   1.674   3.157   1.369
  719SOL    HW2  284   1.539   3.218   1.302
  723SOL     OW  285   1.709   2.247   1.381
  723SOL    HW1  286   1.782   2.316   1.385
  723SOL    HW2  287   1.737   2.172   1.322
  728SOL     OW  288   1.440   2.718   1.398
  728SOL    HW1  289   1.383   2.770   1.335
  728SOL    HW2  290   1.536   2.730   1.374
  734SOL     OW  291   1.450   3.082   1.633
  734SOL    HW1  292   1.441   3.072   1.732
  734SOL    HW2  293   1.546   3.075   1.607
  736SOL     OW  294   1.674   2.745   1.254
  736SOL    HW1  295   1.647   2.656   1.217
  736SOL    HW2  296   1.675   2.813   1.181
  739SOL     OW  297   1.777   2.204   1.642
  739SOL    HW1  298   1.760   2.235   1.548
  739SOL    HW2  299   1.693   2.167   1.680
  740SOL     OW  300   1.730   2.796   1.517
  740SOL    HW1  301   1.768   2.887   1.532
  740SOL    HW2  302   1.722   2.779   1.418
  749SOL     OW  303   1.824   2.054   1.227
  749SOL    HW1  304   1.820   1.964   1.271
  749SOL    HW2  305   1.827   2.043   1.128
  751SOL     OW  306   1.705   3.349   1.104
  751SOL    HW1  307   1.612   3.324   1.077
  751SOL    HW2  308   1.731   3.299   1.186
  754SOL     OW  309   1.424   2.076   1.112
  754SOL    HW1  310   1.476   2.011   1.167
  754SOL    HW2  311   1.375   2.139   1.173
  760SOL     OW  312   1.593   2.083   0.882
  760SOL    HW1  313   1.509   2.082   0.936
  760SOL    HW2  314   1.595   2.166   0.826
  767SOL     OW  315   1.555   3.373   2.565
  767SOL    HW1  316   1.498   3.357   2.646
  767SOL    HW2  317   1.496   3.383   2.485
  768SOL     OW  318   1.135   2.565   2.579
  768SOL    HW1  319   1.192   2.643   2.554
  768SOL    HW2  320   1.075   2.591   2.655
  769SOL     OW  321   1.755   2.469   2.093
  769SOL    HW1  322   1.743   2.456   1.994
  769SOL    HW2  323   1.725   2.388   2.142
  772SOL     OW  324   0.685   2.874   2.527
  772SOL    HW1  325   0.754   2.858   2.597
  772SOL    HW2  326   0.612   2.931   2.565
  775SOL     OW  327   1.460   3.367   3.201
  775SOL    HW1  328   1.484   3.461   3.227
  775SOL    HW2  329   1.444   3.313   3.283
  777SOL     OW  330   1.603   2.309   2.599
  777SOL    HW1  331   1.529   2.355   2.549
  777SOL    HW2  332   1.654   2.377   2.652
  784SOL     OW  333   1.594   1.976   3.342
  784SOL    HW1  334   1.576   2.043   3.270
  784SOL    HW2  335   1.591   2.022   3.431
  786SOL     OW  336   1.842   3.629   2.221
  786SOL    HW1  337   1.896   3.600   2.301
  786SOL    HW2  338   1.872   3.719   2.192
  788SOL     OW  339   1.689   2.784   2.474
  788SOL    HW1  340   1.784   2.755   2.482
  788SOL    HW2  341   1.681   2.849   2.399
  789SOL     OW  342   1.641   2.970   2.294
  789SOL    HW1  343   1.727   2.972   2.242
  789SOL    HW2  344   1.655   3.017   2.382
  792SOL     OW  345   1.293   3.090   3.285
  792SOL    HW1  346   1.330   3.017   3.227
  792SOL    HW2  347   1.345   3.095   3.370
  793SOL     OW  348   0.809   1.866   2.364
  793SOL    HW1  349   0.849   1.957   2.355
  793SOL    HW2  350   0.709   1.874   2.370
  795SOL     OW  351   1.525   2.861   2.052
  795SOL    HW1  352   1.462   2.785   2.065
  795SOL    HW2  353   1.573   2.879   2.138
  798SOL     OW  354   1.466   3.279   2.815
  798SOL    HW1  355   1.407   3.285   2.895
  798SOL    HW2  356   1.451   3.191   2.769
  799SOL     OW  357   1.667   3.576   2.434
  799SOL    HW1  358   1.626   3.553   2.346
  799SOL    HW2  359   1.649   3.502   2.499
  801SOL     OW  360   1.281   2.207   2.806
  801SOL    HW1  361   1.195   2.157   2.793
  801SOL    HW2  362   1.343   2.153   2.862
  802SOL     OW  363   1.576   3.524   2.169
  802SOL    HW1  364   1.665   3.570   2.172
  802SOL    HW2  365   1.555   3.500   2.074
  804SOL     OW  366   1.394   2.331   3.536
  804SOL    HW1  367   1.374   2.374   3.624
  804SOL    HW2  368   1.472   2.269   3.545
  805SOL     OW  369   0.973   2.752   3.434
  805SOL    HW1  370   1.019   2.668   3.405
  805SOL    HW2  371   0.917   2.786   3.359
  806SOL     OW  372   0.991   2.272   3.104
  806SOL    HW1  373   0.914   2.306   3.158
  806SOL    HW2  374   0.957   2.221   3.025
  807SOL     OW  375   1.041   2.563   2.291
  807SOL    HW1  376   1.067   2.559   2.387
  807SOL    HW2  377   0.956   2.512   2.277
  810SOL     OW  378   0.865   2.210   2.057
  810SOL    HW1  379   0.924   2.273   2.008
  810SOL    HW2  380   0.884   2.116   2.028
  811SOL     OW  381   1.719   2.447   3.693
  811SOL    HW1  382   1.693   2.536   3.657
  811SOL    HW2  383   1.717   2.379   3.620
  812SOL     OW  384   1.362   3.006   2.407
  812SOL    HW1  385   1.445   2.977   2.359
  812SOL    HW2  386   1.313   3.073   2.351
  814SOL     OW  387   1.008   3.318   2.339
  814SOL    HW1  388   0.962   3.390   2.287
  814SOL    HW2  389   1.004   3.338   2.437
  816SOL     OW  390   1.795   2.928   2.735
  816SOL    HW1  391   1.733   2.913   2.659
  816SOL    HW2  392   1.743   2.939   2.820
  819SOL     OW  393   1.458   2.597   2.590
  819SOL    HW1  394   1.453   2.532   2.665
  819SOL    HW2  395   1.538   2.656   2.603
  823SOL     OW  396   1.632   3.239   1.943
  823SOL    HW1  397   1.600   3.333   1.933
  823SOL    HW2  398   1.556   3.176   1.931
  825SOL     OW  399   1.400   1.969   2.288
  825SOL    HW1  400   1.376   1.932   2.198
  825SOL    HW2  401   1.499   1.985   2.292
  829SOL     OW  402   1.547   2.084   3.591
  829SOL    HW1  403   1.542   2.121   3.683
  829SOL    HW2  404   1.475   2.015   3.579
  833SOL     OW  405   1.351   2.452   3.295
  833SOL    HW1  406   1.379   2.409   3.380
  833SOL    HW2  407   1.376   2.548   3.296
  835SOL     OW  408   0.922   2.365   2.761
  835SOL    HW1  409   0.897   2.356   2.665
  835SOL    HW2  410   0.970   2.283   2.792
  837SOL     OW  411   1.434   3.050   1.903
  837SOL    HW1  412   1.466   2.974   1.960
  837SOL    HW2  413   1.342   3.077   1.933
  839SOL     OW  414   0.935   2.098   2.342
  839SOL    HW1  415   0.887   2.139   2.264
  839SOL    HW2  416   1.034   2.096   2.323
  840SOL     OW  417   1.076   2.545   3.326
  840SOL    HW1  418   0.996   2.484   3.329
  840SOL    HW2  419   1.157   2.492   3.302
  841SOL     OW  420   1.227   3.432   2.655
  841SOL    HW1  421   1.248   3.506   2.590
  841SOL    HW2  422   1.295   3.432   2.728
  843SOL     OW  423   1.271   3.659   2.453
  843SOL    HW1  424   1.315   3.723   2.389
  843SOL    HW2  425   1.221   3.711   2.523
  844SOL     OW  426   1.032   2.411   1.878
  844SOL    HW1  427   0.991   2.493   1.839
  844SOL    HW2  428   1.096   2.437   1.951
  847SOL     OW  429   0.866   2.316   2.504
  847SOL    HW1  430   0.834   2.388   2.442
  847SOL    HW2  431   0.890   2.235   2.451
  848SOL     OW  432   1.017   1.901   2.615
  848SOL    HW1  433   0.945   1.906   2.546
  848SOL    HW2  434   0.993   1.832   2.684
  849SOL     OW  435   1.429   3.035   2.729
  849SOL    HW1  436   1.374   2.951   2.722
  849SOL    HW2  437   1.455   3.064   2.637
  850SOL     OW  438   1.466   2.452   2.854
  850SOL    HW1  439   1.436   2.357   2.861
  850SOL    HW2  440   1.539   2.468   2.920
  851SOL     OW  441   1.857   2.695   2.239
  851SOL    HW1  442   1.899   2.631   2.303
  851SOL    HW2  443   1.819   2.644   2.161
  853SOL     OW  444   1.664   3.142   2.519
  853SOL    HW1  445   1.763   3.150   2.533
  853SOL    HW2  446   1.619   3.226   2.550
  854SOL     OW  447   1.390   2.437   1.940
  854SOL    HW1  448   1.336   2.416   2.021
  854SOL    HW2  449   1.481   2.396   1.949
  856SOL     OW  450   1.754   3.085   3.450
  856SOL    HW1  451   1.845   3.046   3.437
  856SOL    HW2  452   1.762   3.181   3.474
  857SOL     OW  453   1.064   3.209   3.202
  857SOL    HW1  454   0.984   3.186   3.257
  857SOL    HW2  455   1.147   3.183   3.251
  858SOL     OW  456   1.592   3.491   3.487
  858SOL    HW1  457   1.619   3.525   3.397
  858SOL    HW2  458   1.671   3.453   3.533
  859SOL     OW  459   1.111   3.057   2.962
  859SOL    HW1  460   1.071   3.101   3.043
  859SOL    HW2  461   1.070   3.094   2.879
  860SOL     OW  462   1.638   2.961   2.941
  860SOL    HW1  463   1.643   3.042   3.000
  860SOL    HW2  464   1.552   2.963   2.890
  861SOL     OW  465   0.915   1.951   3.264
  861SOL    HW1  466   0.940   1.931   3.169
  861SOL    HW2  467   0.987   2.007   3.306
  863SOL     OW  468   0.705   2.912   2.230
  863SOL    HW1  469   0.691   2.919   2.329
  863SOL    HW2  470   0.789   2.861   2.212
  865SOL     OW  471   1.274   2.248   3.124
  865SOL    HW1  472   1.295   2.322   3.188
  865SOL    HW2  473   1.185   2.265   3.081
  869SOL     OW  474   1.252   3.210   2.250
  869SOL    HW1  475   1.302   3.287   2.290
  869SOL    HW2  476   1.157   3.212   2.282
  870SOL     OW  477   1.272   3.307   3.004
  870SOL    HW1  478   1.319   3.320   3.091
  870SOL    HW2  479   1.206   3.233   3.013
  871SOL     OW  480   1.582   2.501   2.334
  871SOL    HW1  481   1.551   2.562   2.407
  871SOL    HW2  482   1.632   2.553   2.265
  874SOL     OW  483   1.587   2.641   3.532
  874SOL    HW1  484   1.495   2.679   3.527
  874SOL    HW2  485   1.647   2.688   3.467
  878SOL     OW  486   1.360   2.724   2.907
  878SOL    HW1  487   1.285   2.724   2.841
  878SOL    HW2  488   1.397   2.632   2.916
  879SOL     OW  489   1.209   2.387   2.137
  879SOL    HW1  490   1.222   2.303   2.191
  879SOL    HW2  491   1.180   2.461   2.197
  882SOL     OW  492   0.732   2.496   2.926
  882SOL    HW1  493   0.791   2.470   2.850
  882SOL    HW2  494   0.704   2.592   2.915
  883SOL     OW  495   1.728   2.797   3.716
  883SOL    HW1  496   1.682   2.790   3.627
  883SOL    HW2  497   1.666   2.841   3.782
  885SOL     OW  498   1.622   2.229   2.236
  885SOL    HW1  499   1.624   2.153   2.300
  885SOL    HW2  500   1.574   2.306   2.276
  886SOL     OW  501   1.023   2.628   2.828
  886SOL    HW1  502   1.038   2.649   2.924
  886SOL    HW2  503   0.993   2.533   2.819
  888SOL     OW  504   1.859   3.380   3.467
  888SOL    HW1  505   1.873   3.407   3.372
  888SOL    HW2  506   1.942   3.402   3.520
  890SOL     OW  507   1.540   2.136   1.987
  890SOL    HW1  508   1.479   2.061   2.010
  890SOL    HW2  509   1.562   2.188   2.070
  891SOL     OW  510   1.303   2.700   1.904
  891SOL    HW1  511   1.337   2.607   1.919
  891SOL    HW2  512   1.321   2.727   1.809
  892SOL     OW  513   1.068   3.195   2.711
  892SOL    HW1  514   1.075   3.111   2.656
  892SOL    HW2  515   1.130   3.264   2.675
  895SOL     OW  516   1.138   2.242   3.540
  895SOL    HW1  517   1.093   2.305   3.604
  895SOL    HW2  518   1.231   2.273   3.523
  896SOL     OW  519   1.160   2.069   3.339
  896SOL    HW1  520   1.160   2.133   3.416
  896SOL    HW2  521   1.188   2.117   3.256
  900SOL     OW  522   1.002   2.658   3.100
  900SOL    HW1  523   1.043   2.626   3.186
  900SOL    HW2  524   0.906   2.631   3.097
  903SOL     OW  525   1.369   2.812   3.522
  903SOL    HW1  526   1.408   2.901   3.542
  903SOL    HW2  527   1.379   2.792   3.425
  904SOL     OW  528   0.815   2.434   2.187
  904SOL    HW1  529   0.822   2.345   2.141
  904SOL    HW2  530   0.721   2.468   2.179
  905SOL     OW  531   1.657   2.466   3.068
  905SOL    HW1  532   1.619   2.397   3.130
  905SOL    HW2  533   1.739   2.430   3.024
  911SOL     OW  534   1.347   2.921   3.096
  911SOL    HW1  535   1.371   2.858   3.022
  911SOL    HW2  536   1.257   2.961   3.078
  912SOL     OW  537   1.302   2.717   2.171
  912SOL    HW1  538   1.216   2.686   2.213
  912SOL    HW2  539   1.298   2.703   2.072
  913SOL     OW  540   1.759   3.609   3.016
  913SOL    HW1  541   1.820   3.639   2.943
  913SOL    HW2  542   1.721   3.520   2.994
  914SOL     OW  543   1.252   3.593   2.990
  914SOL    HW1  544   1.336   3.598   2.936
  914SOL    HW2  545   1.229   3.497   3.008
  917SOL     OW  546   1.726   1.997   2.385
  917SOL    HW1  547   1.799   1.980   2.318
  917SOL    HW2  548   1.695   1.910   2.423
  918SOL     OW  549   1.388   3.435   2.339
  918SOL    HW1  550   1.455   3.447   2.265
  918SOL    HW2  551   1.348   3.524   2.362
  920SOL     OW  552   1.280   2.789   2.534
  920SOL    HW1  553   1.340   2.708   2.536
  920SOL    HW2  554   1.320   2.858   2.474
  923SOL     OW  555   1.650   3.582   3.256
  923SOL    HW1  556   1.703   3.592   3.172
  923SOL    HW2  557   1.623   3.672   3.290
  924SOL     OW  558   1.841   2.037   2.825
  924SOL    HW1  559   1.880   1.952   2.789
  924SOL    HW2  560   1.743   2.039   2.806
  926SOL     OW  561   1.194   3.474   1.893
  926SOL    HW1  562   1.200   3.381   1.930
  926SOL    HW2  563   1.135   3.474   1.813
  928SOL     OW  564   0.916   2.772   2.153
  928SOL    HW1  565   0.979   2.810   2.085
  928SOL    HW2  566   0.956   2.689   2.192
  929SOL     OW  567   1.504   3.469   1.906
  929SOL    HW1  568   1.412   3.506   1.913
  929SOL    HW2  569   1.542   3.489   1.816
  931SOL     OW  570   1.614   3.154   3.151
  931SOL    HW1  571   1.674   3.157   3.231
  931SOL    HW2  572   1.539   3.218   3.164
  932SOL     OW  573   1.039   2.960   2.558
  932SOL    HW1  574   0.969   2.913   2.612
  932SOL    HW2  575   1.098   2.892   2.515
  933SOL     OW  576   1.014   2.098   2.833
  933SOL    HW1  577   1.006   2.062   2.740
  933SOL    HW2  578   1.012   2.022   2.898
  935SOL     OW  579   1.709   2.247   3.243
  935SOL    HW1  580   1.782   2.316   3.247
  935SOL    HW2  581   1.737   2.172   3.184
  940SOL     OW  582   1.440   2.718   3.260
  940SOL    HW1  583   1.383   2.770   3.197
  940SOL    HW2  584   1.536   2.730   3.236
  942SOL     OW  585   1.183   3.197   1.981
  942SOL    HW1  586   1.084   3.186   1.983
  942SOL    HW2  587   1.217   3.212   2.074
  944SOL     OW  588   1.493   3.629   2.821
  944SOL    HW1  589   1.526   3.693   2.752
  944SOL    HW2  590   1.559   3.623   2.896
  946SOL     OW  591   1.450   3.082   3.495
  946SOL    HW1  592   1.441   3.072   3.594
  946SOL    HW2  593   1.546   3.075   3.469
  948SOL     OW  594   1.674   2.745   3.116
  948SOL    HW1  595   1.647   2.656   3.079
  948SOL    HW2  596   1.675   2.813   3.043
  949SOL     OW  597   1.225   2.187   2.311
  949SOL    HW1  598   1.290   2.113   2.300
  949SOL    HW2  599   1.245   2.237   2.395
  951SOL     OW  600   1.777   2.204   3.504
  951SOL    HW1  601   1.760   2.235   3.410
  951SOL    HW2  602   1.693   2.167   3.542
  952SOL     OW  603   1.730   2.796   3.379
  952SOL    HW1  604   1.768   2.887   3.394
  952SOL    HW2  605   1.722   2.779   3.280
  955SOL     OW  606   0.859   2.818   2.723
  955SOL    HW1  607   0.913   2.749   2.771
  955SOL    HW2  608   0.827   2.887   2.789
  956SOL     OW  609   1.083   2.846   1.949
  956SOL    HW1  610   1.060   2.899   1.867
  956SOL    HW2  611   1.164   2.790   1.930
  957SOL     OW  612   1.861   3.431   2.713
  957SOL    HW1  613   1.790   3.419   2.643
  957SOL    HW2  614   1.862   3.352   2.773
  961SOL     OW  615   1.824   2.054   3.089
  961SOL    HW1  616   1.820   1.964   3.133
  961SOL    HW2  617   1.827   2.043   2.990
  963SOL     OW  618   1.705   3.349   2.966
  963SOL    HW1  619   1.612   3.324   2.939
  963SOL    HW2  620   1.731   3.299   3.048
  966SOL     OW  621   1.424   2.076   2.974
  966SOL    HW1  622   1.476   2.011   3.029
  966SOL    HW2  623   1.375   2.139   3.035
  967SOL     OW  624   1.001   1.896   3.016
  967SOL    HW1  625   0.938   1.824   2.985
  967SOL    HW2  626   1.094   1.860   3.016
  970SOL     OW  627   1.352   1.914   2.030
  970SOL    HW1  628   1.387   1.873   1.946
  970SOL    HW2  629   1.262   1.876   2.050
  971SOL     OW  630   1.300   2.315   2.553
  971SOL    HW1  631   1.241   2.395   2.557
  971SOL    HW2  632   1.315   2.280   2.646
  972SOL     OW  633   1.593   2.083   2.744
  972SOL    HW1  634   1.509   2.082   2.798
  972SOL    HW2  635   1.595   2.166   2.688
  980SOL     OW  636   1.755   2.469   3.955
  980SOL    HW1  637   1.743   2.456   3.856
  980SOL    HW2  638   1.725   2.388   4.004
 1023SOL     OW  639   1.434   3.050   3.765
 1023SOL    HW1  640   1.466   2.974   3.822
 1023SOL    HW2  641   1.342   3.077   3.795
 1037SOL     OW  642   1.390   2.437   3.802
 1037SOL    HW1  643   1.336   2.416   3.883
 1037SOL    HW2  644   1.481   2.396   3.811
 1051SOL     OW  645   1.540   2.136   3.849
 1051SOL    HW1  646   1.479   2.061   3.872
 1051SOL    HW2  647   1.562   2.188   3.932
 1052SOL     OW  648   1.303   2.700   3.766
 1052SOL    HW1  649   1.337   2.607   3.781
 1052SOL    HW2  650   1.321   2.727   3.671
 1257SOL     OW  651   1.400   3.831   2.288
 1257SOL    HW1  652   1.376   3.794   2.198
 1257SOL    HW2  653   1.499   3.847   2.292
 1316SOL     OW  654   1.726   3.859   2.385
 1316SOL    HW1  655   1.799   3.842   2.318
 1316SOL    HW2  656   1.695   3.772   2.423
 1318SOL     OW  657   1.841   3.899   2.825
 1318SOL    HW1  658   1.880   3.814   2.789
 1318SOL    HW2  659   1.743   3.901   2.806
 1339SOL     OW  660   1.824   3.916   3.089
 1339SOL    HW1  661   1.820   3.826   3.133
 1339SOL    HW2  662   1.827   3.905   2.990
 1344SOL     OW  663   1.352   3.776   2.030
 1344SOL    HW1  664   1.387   3.735   1.946
 1344SOL    HW2  665   1.262   3.738   2.050
 1346SOL     OW  666   1.593   3.945   2.744
 1346SOL    HW1  667   1.509   3.944   2.798
 1346SOL    HW2  668   1.595   4.028   2.688
 1426SOL     OW  669   2.431   1.275   1.165
 1426SOL    HW1  670   2.338   1.268   1.128
 1426SOL    HW2  671   2.442   1.364   1.209
 1431SOL     OW  672   2.712   0.798   1.823
 1431SOL    HW1  673   2.708   0.874   1.888
 1431SOL    HW2  674   2.734   0.834   1.732
 1433SOL     OW  675   2.548   1.161   1.803
 1433SOL    HW1  676   2.608   1.240   1.817
 1433SOL    HW2  677   2.462   1.192   1.762
 1434SOL     OW  678   2.197   1.435   1.061
 1434SOL    HW1  679   2.119   1.404   1.008
 1434SOL    HW2  680   2.255   1.493   1.004
 1435SOL     OW  681   3.322   1.505   1.339
 1435SOL    HW1  682   3.346   1.599   1.365
 1435SOL    HW2  683   3.306   1.451   1.421
 1439SOL     OW  684   2.989   1.341   1.690
 1439SOL    HW1  685   3.036   1.341   1.778
 1439SOL    HW2  686   2.941   1.254   1.679
 1442SOL     OW  687   2.482   1.786   1.439
 1442SOL    HW1  688   2.390   1.769   1.474
 1442SOL    HW2  689   2.510   1.878   1.465
 1452SOL     OW  690   3.155   1.228   1.423
 1452SOL    HW1  691   3.192   1.155   1.365
 1452SOL    HW2  692   3.207   1.233   1.508
 1456SOL     OW  693   3.049   1.792   1.616
 1456SOL    HW1  694   3.073   1.852   1.540
 1456SOL    HW2  695   3.056   1.697   1.586
 1465SOL     OW  696   2.835   0.890   1.572
 1465SOL    HW1  697   2.881   0.806   1.543
 1465SOL    HW2  698   2.779   0.924   1.497
 1469SOL     OW  699   1.992   1.821   1.571
 1469SOL    HW1  700   1.982   1.806   1.670
 1469SOL    HW2  701   1.906   1.857   1.535
 1475SOL     OW  702   2.213   1.801   0.853
 1475SOL    HW1  703   2.263   1.715   0.859
 1475SOL    HW2  704   2.278   1.878   0.850
 1477SOL     OW  705   3.089   1.550   1.506
 1477SOL    HW1  706   3.095   1.473   1.570
 1477SOL    HW2  707   3.037   1.524   1.426
 1480SOL     OW  708   2.323   1.266   1.727
 1480SOL    HW1  709   2.273   1.267   1.641
 1480SOL    HW2  710   2.260   1.248   1.803
 1486SOL     OW  711   2.111   1.785   1.241
 1486SOL    HW1  712   2.168   1.720   1.291
 1486SOL    HW2  713   2.095   1.752   1.148
 1487SOL     OW  714   2.802   1.698   0.904
 1487SOL    HW1  715   2.882   1.641   0.925
 1487SOL    HW2  716   2.753   1.658   0.827
 1492SOL     OW  717   2.750   1.514   1.195
 1492SOL    HW1  718   2.727   1.489   1.101
 1492SOL    HW2  719   2.811   1.445   1.234
 1517SOL     OW  720   2.926   1.347   1.340
 1517SOL    HW1  721   2.846   1.324   1.395
 1517SOL    HW2  722   3.009   1.321   1.389
 1518SOL     OW  723   3.454   1.629   1.625
 1518SOL    HW1  724   3.481   1.663   1.535
 1518SOL    HW2  725   3.533   1.591   1.671
 1522SOL     OW  726   2.842   1.116   1.719
 1522SOL    HW1  727   2.743   1.122   1.729
 1522SOL    HW2  728   2.865   1.036   1.663
 1526SOL     OW  729   1.926   1.564   1.331
 1526SOL    HW1  730   1.880   1.646   1.297
 1526SOL    HW2  731   2.024   1.583   1.340
 1530SOL     OW  732   3.134   1.445   1.142
 1530SOL    HW1  733   3.181   1.458   1.229
 1530SOL    HW2  734   3.068   1.371   1.151
 1532SOL     OW  735   2.216   1.510   1.329
 1532SOL    HW1  736   2.195   1.466   1.242
 1532SOL    HW2  737   2.313   1.536   1.332
 1541SOL     OW  738   1.899   1.310   1.282
 1541SOL    HW1  739   1.952   1.261   1.350
 1541SOL    HW2  740   1.921   1.408   1.287
 1547SOL     OW  741   2.842   1.573   1.700
 1547SOL    HW1  742   2.822   1.617   1.612
 1547SOL    HW2  743   2.881   1.482   1.684
 1548SOL     OW  744   3.721   1.518   1.605
 1548SOL    HW1  745   3.735   1.545   1.510
 1548SOL    HW2  746   3.804   1.540   1.658
 1549SOL     OW  747   2.212   0.898   1.804
 1549SOL    HW1  748   2.288   0.942   1.852
 1549SOL    HW2  749   2.247   0.851   1.722
 1558SOL     OW  750   1.950   1.801   0.927
 1558SOL    HW1  751   1.908   1.715   0.900
 1558SOL    HW2  752   2.044   1.804   0.893
 1559SOL     OW  753   2.366   1.568   0.910
 1559SOL    HW1  754   2.432   1.642   0.919
 1559SOL    HW2  755   2.410   1.489   0.868
 1566SOL     OW  756   2.114   1.564   1.744
 1566SOL    HW1  757   2.084   1.621   1.820
 1566SOL    HW2  758   2.107   1.467   1.770
 1568SOL     OW  759   2.792   1.678   1.465
 1568SOL    HW1  760   2.768   1.660   1.370
 1568SOL    HW2  761   2.822   1.772   1.475
 1570SOL     OW  762   2.021   1.137   1.466
 1570SOL    HW1  763   2.043   1.076   1.542
 1570SOL    HW2  764   2.031   1.088   1.380
 1574SOL     OW  765   3.114   1.731   1.128
 1574SOL    HW1  766   3.198   1.736   1.074
 1574SOL    HW2  767   3.091   1.635   1.146
 1576SOL     OW  768   2.550   1.662   1.716
 1576SOL    HW1  769   2.494   1.743   1.725
 1576SOL    HW2  770   2.602   1.666   1.630
 1580SOL     OW  771   1.992   1.794   1.851
 1580SOL    HW1  772   1.951   1.720   1.904
 1580SOL    HW2  773   2.056   1.845   1.909
 1582SOL     OW  774   2.692   1.273   1.422
 1582SOL    HW1  775   2.687   1.306   1.517
 1582SOL    HW2  776   2.606   1.292   1.376
 1584SOL     OW  777   3.512   1.720   1.394
 1584SOL    HW1  778   3.565   1.730   1.310
 1584SOL    HW2  779   3.485   1.810   1.428
 1588SOL     OW  780   2.684   1.002   1.372
 1588SOL    HW1  781   2.724   1.001   1.280
 1588SOL    HW2  782   2.694   1.094   1.412
 1591SOL     OW  783   2.234   1.288   1.490
 1591SOL    HW1  784   2.221   1.381   1.456
 1591SOL    HW2  785   2.150   1.236   1.477
 1598SOL     OW  786   1.967   1.013   1.726
 1598SOL    HW1  787   1.890   0.980   1.780
 1598SOL    HW2  788   2.052   0.983   1.768
 1607SOL     OW  789   3.312   1.220   1.633
 1607SOL    HW1  790   3.303   1.210   1.732
 1607SOL    HW2  791   3.408   1.213   1.607
 1608SOL     OW  792   2.252   1.741   1.560
 1608SOL    HW1  793   2.161   1.782   1.558
 1608SOL    HW2  794   2.245   1.647   1.592
 1615SOL     OW  795   2.523   1.790   0.953
 1615SOL    HW1  796   2.477   1.878   0.940
 1615SOL    HW2  797   2.622   1.802   0.946
 1619SOL     OW  798   2.083   1.314   1.844
 1619SOL    HW1  799   2.018   1.241   1.823
 1619SOL    HW2  800   2.087   1.328   1.942
 1621SOL     OW  801   2.534   1.391   1.624
 1621SOL    HW1  802   2.456   1.341   1.662
 1621SOL    HW2  803   2.531   1.486   1.655
 1630SOL     OW  804   2.480   1.567   1.284
 1630SOL    HW1  805   2.475   1.649   1.341
 1630SOL    HW2  806   2.569   1.564   1.239
 1639SOL     OW  807   2.431   1.275   3.027
 1639SOL    HW1  808   2.338   1.268   2.990
 1639SOL    HW2  809   2.442   1.364   3.071
 1640SOL     OW  810   3.417   1.511   2.565
 1640SOL    HW1  811   3.360   1.495   2.646
 1640SOL    HW2  812   3.358   1.521   2.485
 1643SOL     OW  813   2.630   1.144   2.885
 1643SOL    HW1  814   2.552   1.161   2.945
 1643SOL    HW2  815   2.664   1.231   2.849
 1645SOL     OW  816   2.547   1.012   2.527
 1645SOL    HW1  817   2.616   0.996   2.597
 1645SOL    HW2  818   2.474   1.069   2.565
 1646SOL     OW  819   2.548   1.161   3.665
 1646SOL    HW1  820   2.608   1.240   3.679
 1646SOL    HW2  821   2.462   1.192   3.624
 1647SOL     OW  822   2.197   1.435   2.923
 1647SOL    HW1  823   2.119   1.404   2.870
 1647SOL    HW2  824   2.255   1.493   2.866
 1648SOL     OW  825   3.322   1.505   3.201
 1648SOL    HW1  826   3.346   1.599   3.227
 1648SOL    HW2  827   3.306   1.451   3.283
 1651SOL     OW  828   2.093   1.713   2.345
 1651SOL    HW1  829   2.127   1.790   2.399
 1651SOL    HW2  830   2.137   1.713   2.255
 1652SOL     OW  831   2.989   1.341   3.552
 1652SOL    HW1  832   3.036   1.341   3.640
 1652SOL    HW2  833   2.941   1.254   3.541
 1653SOL     OW  834   2.092   1.434   2.400
 1653SOL    HW1  835   2.066   1.530   2.400
 1653SOL    HW2  836   2.021   1.380   2.445
 1654SOL     OW  837   2.102   1.091   2.748
 1654SOL    HW1  838   2.116   1.007   2.800
 1654SOL    HW2  839   2.047   1.155   2.803
 1655SOL     OW  840   2.482   1.786   3.301
 1655SOL    HW1  841   2.390   1.769   3.336
 1655SOL    HW2  842   2.510   1.878   3.327
 1656SOL     OW  843   2.468   0.964   1.985
 1656SOL    HW1  844   2.475   1.048   1.931
 1656SOL    HW2  845   2.514   0.977   2.073
 1659SOL     OW  846   3.704   1.767   2.221
 1659SOL    HW1  847   3.758   1.738   2.301
 1659SOL    HW2  848   3.734   1.857   2.192
 1660SOL     OW  849   1.889   1.596   1.979
 1660SOL    HW1  850   1.870   1.500   2.000
 1660SOL    HW2  851   1.856   1.654   2.054
 1662SOL     OW  852   3.503   1.108   2.294
 1662SOL    HW1  853   3.589   1.110   2.242
 1662SOL    HW2  854   3.517   1.155   2.382
 1664SOL     OW  855   2.475   1.365   2.588
 1664SOL    HW1  856   2.426   1.278   2.597
 1664SOL    HW2  857   2.452   1.408   2.501
 1665SOL     OW  858   3.155   1.228   3.285
 1665SOL    HW1  859   3.192   1.155   3.227
 1665SOL    HW2  860   3.207   1.233   3.370
 1667SOL     OW  861   2.059   0.976   3.126
 1667SOL    HW1  862   2.148   0.931   3.112
 1667SOL    HW2  863   1.986   0.911   3.107
 1668SOL     OW  864   3.387   0.999   2.052
 1668SOL    HW1  865   3.324   0.923   2.065
 1668SOL    HW2  866   3.435   1.017   2.138
 1669SOL     OW  867   3.049   1.792   3.478
 1669SOL    HW1  868   3.073   1.852   3.402
 1669SOL    HW2  869   3.056   1.697   3.448
 1671SOL     OW  870   3.328   1.417   2.815
 1671SOL    HW1  871   3.269   1.423   2.895
 1671SOL    HW2  872   3.313   1.329   2.769
 1672SOL     OW  873   3.529   1.714   2.434
 1672SOL    HW1  874   3.488   1.691   2.346
 1672SOL    HW2  875   3.511   1.640   2.499
 1673SOL     OW  876   2.460   0.729   2.132
 1673SOL    HW1  877   2.484   0.798   2.064
 1673SOL    HW2  878   2.382   0.762   2.186
 1675SOL     OW  879   3.438   1.662   2.169
 1675SOL    HW1  880   3.527   1.708   2.172
 1675SOL    HW2  881   3.417   1.638   2.074
 1680SOL     OW  882   2.903   0.701   2.291
 1680SOL    HW1  883   2.929   0.697   2.387
 1680SOL    HW2  884   2.818   0.650   2.277
 1681SOL     OW  885   1.938   0.811   2.651
 1681SOL    HW1  886   2.037   0.799   2.660
 1681SOL    HW2  887   1.914   0.906   2.672
 1682SOL     OW  888   1.992   1.821   3.433
 1682SOL    HW1  889   1.982   1.806   3.532
 1682SOL    HW2  890   1.906   1.857   3.397
 1685SOL     OW  891   3.224   1.144   2.407
 1685SOL    HW1  892   3.307   1.115   2.359
 1685SOL    HW2  893   3.175   1.211   2.351
 1687SOL     OW  894   2.870   1.456   2.339
 1687SOL    HW1  895   2.824   1.528   2.287
 1687SOL    HW2  896   2.866   1.476   2.437
 1688SOL     OW  897   2.213   1.801   2.715
 1688SOL    HW1  898   2.263   1.715   2.721
 1688SOL    HW2  899   2.278   1.878   2.712
 1690SOL     OW  900   3.089   1.550   3.368
 1690SOL    HW1  901   3.095   1.473   3.432
 1690SOL    HW2  902   3.037   1.524   3.288
 1691SOL     OW  903   2.183   0.943   2.104
 1691SOL    HW1  904   2.265   0.982   2.062
 1691SOL    HW2  905   2.156   0.861   2.055
 1693SOL     OW  906   2.323   1.266   3.589
 1693SOL    HW1  907   2.273   1.267   3.503
 1693SOL    HW2  908   2.260   1.248   3.665
 1694SOL     OW  909   2.973   1.776   2.099
 1694SOL    HW1  910   2.913   1.714   2.149
 1694SOL    HW2  911   3.004   1.732   2.014
 1696SOL     OW  912   3.494   1.377   1.943
 1696SOL    HW1  913   3.462   1.471   1.933
 1696SOL    HW2  914   3.418   1.314   1.931
 1697SOL     OW  915   2.326   1.743   2.185
 1697SOL    HW1  916   2.359   1.782   2.271
 1697SOL    HW2  917   2.402   1.736   2.120
 1699SOL     OW  918   2.111   1.785   3.103
 1699SOL    HW1  919   2.168   1.720   3.153
 1699SOL    HW2  920   2.095   1.752   3.010
 1700SOL     OW  921   2.802   1.698   2.766
 1700SOL    HW1  922   2.882   1.641   2.787
 1700SOL    HW2  923   2.753   1.658   2.689
 1701SOL     OW  924   2.244   0.700   2.342
 1701SOL    HW1  925   2.289   0.610   2.339
 1701SOL    HW2  926   2.150   0.689   2.375
 1705SOL     OW  927   2.750   1.514   3.057
 1705SOL    HW1  928   2.727   1.489   2.963
 1705SOL    HW2  929   2.811   1.445   3.096
 1707SOL     OW  930   2.665   1.402   2.786
 1707SOL    HW1  931   2.755   1.416   2.744
 1707SOL    HW2  932   2.594   1.404   2.715
 1710SOL     OW  933   3.296   1.188   1.903
 1710SOL    HW1  934   3.328   1.112   1.960
 1710SOL    HW2  935   3.204   1.215   1.933
 1714SOL     OW  936   3.089   1.570   2.655
 1714SOL    HW1  937   3.110   1.644   2.590
 1714SOL    HW2  938   3.157   1.570   2.728
 1715SOL     OW  939   2.321   1.152   2.603
 1715SOL    HW1  940   2.250   1.125   2.668
 1715SOL    HW2  941   2.295   1.124   2.510
 1716SOL     OW  942   3.133   1.797   2.453
 1716SOL    HW1  943   3.177   1.861   2.389
 1716SOL    HW2  944   3.083   1.849   2.523
 1722SOL     OW  945   3.291   1.173   2.729
 1722SOL    HW1  946   3.236   1.089   2.722
 1722SOL    HW2  947   3.317   1.202   2.637
 1725SOL     OW  948   2.350   1.385   2.036
 1725SOL    HW1  949   2.263   1.370   2.083
 1725SOL    HW2  950   2.333   1.411   1.941
 1726SOL     OW  951   3.526   1.280   2.519
 1726SOL    HW1  952   3.625   1.288   2.533
 1726SOL    HW2  953   3.481   1.364   2.550
 1730SOL     OW  954   2.926   1.347   3.202
 1730SOL    HW1  955   2.846   1.324   3.257
 1730SOL    HW2  956   3.009   1.321   3.251
 1731SOL     OW  957   3.454   1.629   3.487
 1731SOL    HW1  958   3.481   1.663   3.397
 1731SOL    HW2  959   3.533   1.591   3.533
 1732SOL     OW  960   2.973   1.195   2.962
 1732SOL    HW1  961   2.933   1.239   3.043
 1732SOL    HW2  962   2.932   1.232   2.879
 1733SOL     OW  963   3.500   1.099   2.941
 1733SOL    HW1  964   3.505   1.180   3.000
 1733SOL    HW2  965   3.414   1.101   2.890
 1735SOL     OW  966   2.842   1.116   3.581
 1735SOL    HW1  967   2.743   1.122   3.591
 1735SOL    HW2  968   2.865   1.036   3.525
 1736SOL     OW  969   2.567   1.050   2.230
 1736SOL    HW1  970   2.553   1.057   2.329
 1736SOL    HW2  971   2.651   0.999   2.212
 1737SOL     OW  972   2.272   0.813   3.113
 1737SOL    HW1  973   2.358   0.825   3.163
 1737SOL    HW2  974   2.230   0.726   3.140
 1739SOL     OW  975   1.926   1.564   3.193
 1739SOL    HW1  976   1.880   1.646   3.159
 1739SOL    HW2  977   2.024   1.583   3.202
 1740SOL     OW  978   2.229   1.100   2.363
 1740SOL    HW1  979   2.222   1.183   2.307
 1740SOL    HW2  980   2.233   1.020   2.303
 1742SOL     OW  981   3.114   1.348   2.250
 1742SOL    HW1  982   3.164   1.425   2.290
 1742SOL    HW2  983   3.019   1.350   2.282
 1743SOL     OW  984   3.134   1.445   3.004
 1743SOL    HW1  985   3.181   1.458   3.091
 1743SOL    HW2  986   3.068   1.371   3.013
 1745SOL     OW  987   2.216   1.510   3.191
 1745SOL    HW1  988   2.195   1.466   3.104
 1745SOL    HW2  989   2.313   1.536   3.194
 1750SOL     OW  990   2.435   0.870   2.891
 1750SOL    HW1  991   2.479   0.959   2.882
 1750SOL    HW2  992   2.372   0.870   2.968
 1754SOL     OW  993   1.899   1.310   3.144
 1754SOL    HW1  994   1.952   1.261   3.212
 1754SOL    HW2  995   1.921   1.408   3.149
 1759SOL     OW  996   2.885   0.766   2.828
 1759SOL    HW1  997   2.900   0.787   2.924
 1759SOL    HW2  998   2.855   0.671   2.819
 1760SOL     OW  999   2.842   1.573   3.562
 1760SOL    HW1 1000   2.822   1.617   3.474
 1760SOL    HW2 1001   2.881   1.482   3.546
 1765SOL     OW 1002   2.930   1.333   2.711
 1765SOL    HW1 1003   2.937   1.249   2.656
 1765SOL    HW2 1004   2.992   1.402   2.675
 1766SOL     OW 1005   2.181   0.810   2.811
 1766SOL    HW1 1006   2.274   0.846   2.816
 1766SOL    HW2 1007   2.175   0.725   2.863
 1770SOL     OW 1008   1.870   1.326   2.062
 1770SOL    HW1 1009   1.777   1.347   2.031
 1770SOL    HW2 1010   1.880   1.227   2.075
 1771SOL     OW 1011   1.950   1.801   2.789
 1771SOL    HW1 1012   1.908   1.715   2.762
 1771SOL    HW2 1013   2.044   1.804   2.755
 1772SOL     OW 1014   2.366   1.568   2.772
 1772SOL    HW1 1015   2.432   1.642   2.781
 1772SOL    HW2 1016   2.410   1.489   2.730
 1779SOL     OW 1017   2.114   1.564   3.606
 1779SOL    HW1 1018   2.084   1.621   3.682
 1779SOL    HW2 1019   2.107   1.467   3.632
 1781SOL     OW 1020   2.792   1.678   3.327
 1781SOL    HW1 1021   2.768   1.660   3.232
 1781SOL    HW2 1022   2.822   1.772   3.337
 1783SOL     OW 1023   2.021   1.137   3.328
 1783SOL    HW1 1024   2.043   1.076   3.404
 1783SOL    HW2 1025   2.031   1.088   3.242
 1784SOL     OW 1026   3.209   1.059   3.096
 1784SOL    HW1 1027   3.233   0.996   3.022
 1784SOL    HW2 1028   3.119   1.099   3.078
 1785SOL     OW 1029   3.164   0.855   2.171
 1785SOL    HW1 1030   3.078   0.824   2.213
 1785SOL    HW2 1031   3.160   0.841   2.072
 1786SOL     OW 1032   3.621   1.747   3.016
 1786SOL    HW1 1033   3.682   1.777   2.943
 1786SOL    HW2 1034   3.583   1.658   2.994
 1787SOL     OW 1035   3.114   1.731   2.990
 1787SOL    HW1 1036   3.198   1.736   2.936
 1787SOL    HW2 1037   3.091   1.635   3.008
 1788SOL     OW 1038   1.945   1.258   2.884
 1788SOL    HW1 1039   1.940   1.257   2.984
 1788SOL    HW2 1040   1.862   1.217   2.846
 1789SOL     OW 1041   2.550   1.662   3.578
 1789SOL    HW1 1042   2.494   1.743   3.587
 1789SOL    HW2 1043   2.602   1.666   3.492
 1791SOL     OW 1044   3.250   1.573   2.339
 1791SOL    HW1 1045   3.317   1.585   2.265
 1791SOL    HW2 1046   3.210   1.662   2.362
 1792SOL     OW 1047   1.992   1.794   3.713
 1792SOL    HW1 1048   1.951   1.720   3.766
 1792SOL    HW2 1049   2.056   1.845   3.771
 1793SOL     OW 1050   3.142   0.927   2.534
 1793SOL    HW1 1051   3.202   0.846   2.536
 1793SOL    HW2 1052   3.182   0.996   2.474
 1794SOL     OW 1053   2.692   1.273   3.284
 1794SOL    HW1 1054   2.687   1.306   3.379
 1794SOL    HW2 1055   2.606   1.292   3.238
 1795SOL     OW 1056   2.534   1.616   2.016
 1795SOL    HW1 1057   2.543   1.626   1.917
 1795SOL    HW2 1058   2.494   1.527   2.037
 1796SOL     OW 1059   3.512   1.720   3.256
 1796SOL    HW1 1060   3.565   1.730   3.172
 1796SOL    HW2 1061   3.485   1.810   3.290
 1799SOL     OW 1062   3.056   1.612   1.893
 1799SOL    HW1 1063   3.062   1.519   1.930
 1799SOL    HW2 1064   2.997   1.612   1.813
 1800SOL     OW 1065   2.684   1.002   3.234
 1800SOL    HW1 1066   2.724   1.001   3.142
 1800SOL    HW2 1067   2.694   1.094   3.274
 1801SOL     OW 1068   2.778   0.910   2.153
 1801SOL    HW1 1069   2.841   0.948   2.085
 1801SOL    HW2 1070   2.818   0.827   2.192
 1802SOL     OW 1071   3.366   1.607   1.906
 1802SOL    HW1 1072   3.274   1.644   1.913
 1802SOL    HW2 1073   3.404   1.627   1.816
 1803SOL     OW 1074   2.234   1.288   3.352
 1803SOL    HW1 1075   2.221   1.381   3.318
 1803SOL    HW2 1076   2.150   1.236   3.339
 1804SOL     OW 1077   3.476   1.292   3.151
 1804SOL    HW1 1078   3.536   1.295   3.231
 1804SOL    HW2 1079   3.401   1.356   3.164
 1805SOL     OW 1080   2.901   1.098   2.558
 1805SOL    HW1 1081   2.831   1.051   2.612
 1805SOL    HW2 1082   2.960   1.030   2.515
 1807SOL     OW 1083   2.452   1.487   2.353
 1807SOL    HW1 1084   2.494   1.429   2.283
 1807SOL    HW2 1085   2.408   1.566   2.309
 1809SOL     OW 1086   2.117   1.348   2.152
 1809SOL    HW1 1087   2.021   1.349   2.125
 1809SOL    HW2 1088   2.129   1.401   2.236
 1815SOL     OW 1089   3.045   1.335   1.981
 1815SOL    HW1 1090   2.946   1.324   1.983
 1815SOL    HW2 1091   3.079   1.350   2.074
 1816SOL     OW 1092   2.475   0.842   3.293
 1816SOL    HW1 1093   2.531   0.923   3.276
 1816SOL    HW2 1094   2.534   0.762   3.296
 1817SOL     OW 1095   3.355   1.767   2.821
 1817SOL    HW1 1096   3.388   1.831   2.752
 1817SOL    HW2 1097   3.421   1.761   2.896
 1820SOL     OW 1098   2.252   1.741   3.422
 1820SOL    HW1 1099   2.161   1.782   3.420
 1820SOL    HW2 1100   2.245   1.647   3.454
 1823SOL     OW 1101   2.456   0.745   2.514
 1823SOL    HW1 1102   2.506   0.830   2.495
 1823SOL    HW2 1103   2.368   0.747   2.466
 1826SOL     OW 1104   2.721   1.374   1.878
 1826SOL    HW1 1105   2.675   1.389   1.966
 1826SOL    HW2 1106   2.765   1.459   1.848
 1827SOL     OW 1107   2.523   1.790   2.815
 1827SOL    HW1 1108   2.477   1.878   2.802
 1827SOL    HW2 1109   2.622   1.802   2.808
 1828SOL     OW 1110   2.721   0.956   2.723
 1828SOL    HW1 1111   2.775   0.887   2.771
 1828SOL    HW2 1112   2.689   1.025   2.789
 1829SOL     OW 1113   2.945   0.984   1.949
 1829SOL    HW1 1114   2.922   1.037   1.867
 1829SOL    HW2 1115   3.026   0.928   1.930
 1830SOL     OW 1116   3.723   1.569   2.713
 1830SOL    HW1 1117   3.652   1.557   2.643
 1830SOL    HW2 1118   3.724   1.490   2.773
 1831SOL     OW 1119   2.083   1.314   3.706
 1831SOL    HW1 1120   2.018   1.241   3.685
 1831SOL    HW2 1121   2.087   1.328   3.804
 1832SOL     OW 1122   1.941   1.240   2.515
 1832SOL    HW1 1123   1.940   1.193   2.603
 1832SOL    HW2 1124   2.023   1.212   2.464
 1833SOL     OW 1125   2.534   1.391   3.486
 1833SOL    HW1 1126   2.456   1.341   3.524
 1833SOL    HW2 1127   2.531   1.486   3.517
 1836SOL     OW 1128   3.567   1.487   2.966
 1836SOL    HW1 1129   3.474   1.462   2.939
 1836SOL    HW2 1130   3.593   1.437   3.048
 1838SOL     OW 1131   2.674   1.586   2.549
 1838SOL    HW1 1132   2.706   1.596   2.455
 1838SOL    HW2 1133   2.595   1.524   2.551
 1841SOL     OW 1134   2.632   1.330   2.163
 1841SOL    HW1 1135   2.586   1.243   2.180
 1841SOL    HW2 1136   2.723   1.327   2.204
 1842SOL     OW 1137   2.480   1.567   3.146
 1842SOL    HW1 1138   2.475   1.649   3.203
 1842SOL    HW2 1139   2.569   1.564   3.101
 1846SOL     OW 1140   1.901   1.077   2.162
 1846SOL    HW1 1141   2.000   1.066   2.153
 1846SOL    HW2 1142   1.861   0.991   2.194
 1847SOL     OW 1143   2.737   1.646   2.199
 1847SOL    HW1 1144   2.660   1.611   2.145
 1847SOL    HW2 1145   2.705   1.717   2.261
 1864SOL     OW 1146   1.889   1.596   3.841
 1864SOL    HW1 1147   1.870   1.500   3.862
 1864SOL    HW2 1148   1.856   1.654   3.916
 1885SOL     OW 1149   2.973   1.776   3.961
 1885SOL    HW1 1150   2.913   1.714   4.011
 1885SOL    HW2 1151   3.004   1.732   3.876
 1887SOL     OW 1152   2.326   1.743   4.047
 1887SOL    HW1 1153   2.359   1.782   4.133
 1887SOL    HW2 1154   2.402   1.736   3.982
 1941SOL     OW 1155   2.534   1.616   3.878
 1941SOL    HW1 1156   2.543   1.626   3.779
 1941SOL    HW2 1157   2.494   1.527   3.899
 1944SOL     OW 1158   3.056   1.612   3.755
 1944SOL    HW1 1159   3.062   1.519   3.792
 1944SOL    HW2 1160   2.997   1.612   3.675
 1957SOL     OW 1161   2.721   1.374   3.740
 1957SOL    HW1 1162   2.675   1.389   3.828
 1957SOL    HW2 1163   2.765   1.459   3.710
 1973SOL     OW 1164   2.087   2.137   0.996
 1973SOL    HW1 1165   2.122   2.120   1.088
 1973SOL    HW2 1166   1.999   2.092   0.984
 1975SOL     OW 1167   2.431   3.137   1.165
 1975SOL    HW1 1168   2.338   3.130   1.128
 1975SOL    HW2 1169   2.442   3.226   1.209
 1977SOL     OW 1170   2.997   2.565   0.717
 1977SOL    HW1 1171   3.054   2.643   0.692
 1977SOL    HW2 1172   2.937   2.591   0.793
 1979SOL     OW 1173   2.630   3.006   1.023
 1979SOL    HW1 1174   2.552   3.023   1.083
 1979SOL    HW2 1175   2.664   3.093   0.987
 1980SOL     OW 1176   2.712   2.660   1.823
 1980SOL    HW1 1177   2.708   2.736   1.888
 1980SOL    HW2 1178   2.734   2.696   1.732
 1982SOL     OW 1179   2.548   3.023   1.803
 1982SOL    HW1 1180   2.608   3.102   1.817
 1982SOL    HW2 1181   2.462   3.054   1.762
 1983SOL     OW 1182   2.197   3.297   1.061
 1983SOL    HW1 1183   2.119   3.266   1.008
 1983SOL    HW2 1184   2.255   3.355   1.004
 1984SOL     OW 1185   3.322   3.367   1.339
 1984SOL    HW1 1186   3.346   3.461   1.365
 1984SOL    HW2 1187   3.306   3.313   1.421
 1985SOL     OW 1188   2.300   2.254   1.499
 1985SOL    HW1 1189   2.382   2.198   1.508
 1985SOL    HW2 1190   2.219   2.196   1.503
 1988SOL     OW 1191   2.989   3.203   1.690
 1988SOL    HW1 1192   3.036   3.203   1.778
 1988SOL    HW2 1193   2.941   3.116   1.679
 1990SOL     OW 1194   2.102   2.953   0.886
 1990SOL    HW1 1195   2.116   2.869   0.938
 1990SOL    HW2 1196   2.047   3.017   0.941
 1991SOL     OW 1197   2.482   3.648   1.439
 1991SOL    HW1 1198   2.390   3.631   1.474
 1991SOL    HW2 1199   2.510   3.740   1.465
 1993SOL     OW 1200   3.456   1.976   1.480
 1993SOL    HW1 1201   3.438   2.043   1.408
 1993SOL    HW2 1202   3.453   2.022   1.569
 1999SOL     OW 1203   1.975   2.599   1.597
 1999SOL    HW1 1204   2.063   2.586   1.642
 1999SOL    HW2 1205   1.962   2.696   1.575
 2001SOL     OW 1206   3.155   3.090   1.423
 2001SOL    HW1 1207   3.192   3.017   1.365
 2001SOL    HW2 1208   3.207   3.095   1.508
 2003SOL     OW 1209   2.059   2.838   1.264
 2003SOL    HW1 1210   2.148   2.793   1.250
 2003SOL    HW2 1211   1.986   2.773   1.245
 2005SOL     OW 1212   3.049   3.654   1.616
 2005SOL    HW1 1213   3.073   3.714   1.540
 2005SOL    HW2 1214   3.056   3.559   1.586
 2006SOL     OW 1215   2.179   2.113   1.801
 2006SOL    HW1 1216   2.250   2.184   1.807
 2006SOL    HW2 1217   2.091   2.152   1.829
 2010SOL     OW 1218   3.143   2.207   0.944
 2010SOL    HW1 1219   3.057   2.157   0.931
 2010SOL    HW2 1220   3.205   2.153   1.000
 2012SOL     OW 1221   2.669   2.467   1.465
 2012SOL    HW1 1222   2.622   2.464   1.554
 2012SOL    HW2 1223   2.618   2.412   1.399
 2013SOL     OW 1224   3.256   2.331   1.674
 2013SOL    HW1 1225   3.236   2.374   1.762
 2013SOL    HW2 1226   3.334   2.269   1.683
 2014SOL     OW 1227   2.835   2.752   1.572
 2014SOL    HW1 1228   2.881   2.668   1.543
 2014SOL    HW2 1229   2.779   2.786   1.497
 2015SOL     OW 1230   2.853   2.272   1.242
 2015SOL    HW1 1231   2.776   2.306   1.296
 2015SOL    HW2 1232   2.819   2.221   1.163
 2017SOL     OW 1233   1.938   2.673   0.789
 2017SOL    HW1 1234   2.037   2.661   0.798
 2017SOL    HW2 1235   1.914   2.768   0.810
 2018SOL     OW 1236   1.992   3.683   1.571
 2018SOL    HW1 1237   1.982   3.668   1.670
 2018SOL    HW2 1238   1.906   3.719   1.535
 2020SOL     OW 1239   3.581   2.447   1.831
 2020SOL    HW1 1240   3.555   2.536   1.795
 2020SOL    HW2 1241   3.579   2.379   1.758
 2022SOL     OW 1242   2.412   2.058   0.885
 2022SOL    HW1 1243   2.407   2.053   0.985
 2022SOL    HW2 1244   2.414   2.154   0.856
 2026SOL     OW 1245   3.089   3.412   1.506
 2026SOL    HW1 1246   3.095   3.335   1.570
 2026SOL    HW2 1247   3.037   3.386   1.426
 2029SOL     OW 1248   2.323   3.128   1.727
 2029SOL    HW1 1249   2.273   3.129   1.641
 2029SOL    HW2 1250   2.260   3.110   1.803
 2031SOL     OW 1251   2.064   2.147   1.498
 2031SOL    HW1 1252   1.984   2.207   1.485
 2031SOL    HW2 1253   2.054   2.098   1.584
 2035SOL     OW 1254   2.111   3.647   1.241
 2035SOL    HW1 1255   2.168   3.582   1.291
 2035SOL    HW2 1256   2.095   3.614   1.148
 2038SOL     OW 1257   3.409   2.084   1.729
 2038SOL    HW1 1258   3.404   2.121   1.821
 2038SOL    HW2 1259   3.337   2.015   1.717
 2040SOL     OW 1260   2.643   2.126   1.749
 2040SOL    HW1 1261   2.710   2.065   1.792
 2040SOL    HW2 1262   2.570   2.145   1.814
 2041SOL     OW 1263   2.750   3.376   1.195
 2041SOL    HW1 1264   2.727   3.351   1.101
 2041SOL    HW2 1265   2.811   3.307   1.234
 2042SOL     OW 1266   3.213   2.452   1.433
 2042SOL    HW1 1267   3.241   2.409   1.518
 2042SOL    HW2 1268   3.238   2.548   1.434
 2043SOL     OW 1269   2.665   3.264   0.924
 2043SOL    HW1 1270   2.755   3.278   0.882
 2043SOL    HW2 1271   2.594   3.266   0.853
 2044SOL     OW 1272   2.784   2.365   0.899
 2044SOL    HW1 1273   2.759   2.356   0.803
 2044SOL    HW2 1274   2.832   2.283   0.930
 2048SOL     OW 1275   2.938   2.545   1.464
 2048SOL    HW1 1276   2.858   2.484   1.467
 2048SOL    HW2 1277   3.019   2.492   1.440
 2050SOL     OW 1278   2.321   3.014   0.741
 2050SOL    HW1 1279   2.250   2.987   0.806
 2050SOL    HW2 1280   2.295   2.986   0.648
 2053SOL     OW 1281   1.940   2.418   1.386
 2053SOL    HW1 1282   2.032   2.417   1.345
 2053SOL    HW2 1283   1.934   2.492   1.453
 2054SOL     OW 1284   2.423   2.084   1.147
 2054SOL    HW1 1285   2.461   2.000   1.184
 2054SOL    HW2 1286   2.335   2.103   1.191
 2055SOL     OW 1287   2.728   2.316   0.642
 2055SOL    HW1 1288   2.696   2.388   0.580
 2055SOL    HW2 1289   2.752   2.235   0.589
 2056SOL     OW 1290   2.879   1.901   0.753
 2056SOL    HW1 1291   2.807   1.906   0.684
 2056SOL    HW2 1292   2.855   1.832   0.822
 2058SOL     OW 1293   3.328   2.452   0.992
 2058SOL    HW1 1294   3.298   2.357   0.999
 2058SOL    HW2 1295   3.401   2.468   1.058
 2064SOL     OW 1296   3.616   3.085   1.588
 2064SOL    HW1 1297   3.707   3.046   1.575
 2064SOL    HW2 1298   3.624   3.181   1.612
 2065SOL     OW 1299   2.926   3.209   1.340
 2065SOL    HW1 1300   2.846   3.186   1.395
 2065SOL    HW2 1301   3.009   3.183   1.389
 2066SOL     OW 1302   3.454   3.491   1.625
 2066SOL    HW1 1303   3.481   3.525   1.535
 2066SOL    HW2 1304   3.533   3.453   1.671
 2067SOL     OW 1305   2.973   3.057   1.100
 2067SOL    HW1 1306   2.933   3.101   1.181
 2067SOL    HW2 1307   2.932   3.094   1.017
 2069SOL     OW 1308   2.777   1.951   1.402
 2069SOL    HW1 1309   2.802   1.931   1.307
 2069SOL    HW2 1310   2.849   2.007   1.444
 2070SOL     OW 1311   2.842   2.978   1.719
 2070SOL    HW1 1312   2.743   2.984   1.729
 2070SOL    HW2 1313   2.865   2.898   1.663
 2072SOL     OW 1314   2.272   2.675   1.251
 2072SOL    HW1 1315   2.358   2.687   1.301
 2072SOL    HW2 1316   2.230   2.588   1.278
 2073SOL     OW 1317   3.136   2.248   1.262
 2073SOL    HW1 1318   3.157   2.322   1.326
 2073SOL    HW2 1319   3.047   2.265   1.219
 2074SOL     OW 1320   1.926   3.426   1.331
 2074SOL    HW1 1321   1.880   3.508   1.297
 2074SOL    HW2 1322   2.024   3.445   1.340
 2076SOL     OW 1323   2.428   2.399   0.865
 2076SOL    HW1 1324   2.440   2.465   0.791
 2076SOL    HW2 1325   2.474   2.433   0.948
 2078SOL     OW 1326   3.134   3.307   1.142
 2078SOL    HW1 1327   3.181   3.320   1.229
 2078SOL    HW2 1328   3.068   3.233   1.151
 2080SOL     OW 1329   2.216   3.372   1.329
 2080SOL    HW1 1330   2.195   3.328   1.242
 2080SOL    HW2 1331   2.313   3.398   1.332
 2081SOL     OW 1332   2.264   2.613   1.598
 2081SOL    HW1 1333   2.332   2.668   1.551
 2081SOL    HW2 1334   2.304   2.525   1.625
 2082SOL     OW 1335   3.449   2.641   1.670
 2082SOL    HW1 1336   3.357   2.679   1.665
 2082SOL    HW2 1337   3.509   2.688   1.605
 2083SOL     OW 1338   2.875   1.967   1.770
 2083SOL    HW1 1339   2.881   2.052   1.718
 2083SOL    HW2 1340   2.907   1.891   1.713
 2084SOL     OW 1341   2.366   1.912   1.740
 2084SOL    HW1 1342   2.324   1.855   1.670
 2084SOL    HW2 1343   2.300   1.981   1.772
 2085SOL     OW 1344   2.435   2.732   1.029
 2085SOL    HW1 1345   2.479   2.821   1.020
 2085SOL    HW2 1346   2.372   2.732   1.106
 2086SOL     OW 1347   3.222   2.724   1.045
 2086SOL    HW1 1348   3.147   2.724   0.979
 2086SOL    HW2 1349   3.259   2.632   1.054
 2088SOL     OW 1350   2.169   2.075   1.231
 2088SOL    HW1 1351   2.146   2.112   1.321
 2088SOL    HW2 1352   2.139   1.980   1.225
 2089SOL     OW 1353   1.899   3.172   1.282
 2089SOL    HW1 1354   1.952   3.123   1.350
 2089SOL    HW2 1355   1.921   3.270   1.287
 2090SOL     OW 1356   2.594   2.496   1.064
 2090SOL    HW1 1357   2.653   2.470   0.988
 2090SOL    HW2 1358   2.566   2.592   1.053
 2091SOL     OW 1359   3.590   2.797   1.854
 2091SOL    HW1 1360   3.544   2.790   1.765
 2091SOL    HW2 1361   3.528   2.841   1.920
 2094SOL     OW 1362   2.885   2.628   0.966
 2094SOL    HW1 1363   2.900   2.649   1.062
 2094SOL    HW2 1364   2.855   2.533   0.957
 2095SOL     OW 1365   2.842   3.435   1.700
 2095SOL    HW1 1366   2.822   3.479   1.612
 2095SOL    HW2 1367   2.881   3.344   1.684
 2097SOL     OW 1368   2.212   2.760   1.804
 2097SOL    HW1 1369   2.288   2.804   1.852
 2097SOL    HW2 1370   2.247   2.713   1.722
 2101SOL     OW 1371   2.181   2.672   0.949
 2101SOL    HW1 1372   2.274   2.708   0.954
 2101SOL    HW2 1373   2.175   2.587   1.001
 2102SOL     OW 1374   2.201   2.371   1.006
 2102SOL    HW1 1375   2.149   2.288   0.989
 2102SOL    HW2 1376   2.278   2.376   0.942
 2103SOL     OW 1377   3.000   2.242   1.678
 2103SOL    HW1 1378   2.955   2.305   1.742
 2103SOL    HW2 1379   3.093   2.273   1.661
 2104SOL     OW 1380   3.022   2.069   1.477
 2104SOL    HW1 1381   3.022   2.133   1.554
 2104SOL    HW2 1382   3.050   2.117   1.394
 2108SOL     OW 1383   2.864   2.658   1.238
 2108SOL    HW1 1384   2.905   2.626   1.324
 2108SOL    HW2 1385   2.768   2.631   1.235
 2109SOL     OW 1386   1.902   2.406   1.114
 2109SOL    HW1 1387   1.987   2.373   1.073
 2109SOL    HW2 1388   1.915   2.421   1.212
 2110SOL     OW 1389   2.051   2.382   1.722
 2110SOL    HW1 1390   2.110   2.342   1.652
 2110SOL    HW2 1391   1.993   2.453   1.681
 2111SOL     OW 1392   3.231   2.812   1.660
 2111SOL    HW1 1393   3.270   2.901   1.680
 2111SOL    HW2 1394   3.241   2.792   1.563
 2113SOL     OW 1395   3.519   2.466   1.206
 2113SOL    HW1 1396   3.481   2.397   1.268
 2113SOL    HW2 1397   3.601   2.430   1.162
 2114SOL     OW 1398   2.114   3.426   1.744
 2114SOL    HW1 1399   2.084   3.483   1.820
 2114SOL    HW2 1400   2.107   3.329   1.770
 2115SOL     OW 1401   2.533   2.326   1.269
 2115SOL    HW1 1402   2.499   2.237   1.239
 2115SOL    HW2 1403   2.559   2.380   1.189
 2116SOL     OW 1404   2.792   3.540   1.465
 2116SOL    HW1 1405   2.768   3.522   1.370
 2116SOL    HW2 1406   2.822   3.634   1.475
 2118SOL     OW 1407   2.021   2.999   1.466
 2118SOL    HW1 1408   2.043   2.938   1.542
 2118SOL    HW2 1409   2.031   2.950   1.380
 2119SOL     OW 1410   3.209   2.921   1.234
 2119SOL    HW1 1411   3.233   2.858   1.160
 2119SOL    HW2 1412   3.119   2.961   1.216
 2123SOL     OW 1413   1.945   3.120   1.022
 2123SOL    HW1 1414   1.940   3.119   1.122
 2123SOL    HW2 1415   1.862   3.079   0.984
 2124SOL     OW 1416   2.550   3.524   1.716
 2124SOL    HW1 1417   2.494   3.605   1.725
 2124SOL    HW2 1418   2.602   3.528   1.630
 2128SOL     OW 1419   1.992   3.656   1.851
 2128SOL    HW1 1420   1.951   3.582   1.904
 2128SOL    HW2 1421   2.056   3.707   1.909
 2130SOL     OW 1422   2.692   3.135   1.422
 2130SOL    HW1 1423   2.687   3.168   1.517
 2130SOL    HW2 1424   2.606   3.154   1.376
 2134SOL     OW 1425   2.125   2.188   0.720
 2134SOL    HW1 1426   2.046   2.239   0.686
 2134SOL    HW2 1427   2.116   2.173   0.818
 2136SOL     OW 1428   2.684   2.864   1.372
 2136SOL    HW1 1429   2.724   2.863   1.280
 2136SOL    HW2 1430   2.694   2.956   1.412
 2139SOL     OW 1431   2.234   3.150   1.490
 2139SOL    HW1 1432   2.221   3.243   1.456
 2139SOL    HW2 1433   2.150   3.098   1.477
 2140SOL     OW 1434   3.476   3.154   1.289
 2140SOL    HW1 1435   3.536   3.157   1.369
 2140SOL    HW2 1436   3.401   3.218   1.302
 2142SOL     OW 1437   2.876   2.098   0.971
 2142SOL    HW1 1438   2.868   2.062   0.878
 2142SOL    HW2 1439   2.874   2.022   1.036
 2144SOL     OW 1440   3.571   2.247   1.381
 2144SOL    HW1 1441   3.644   2.316   1.385
 2144SOL    HW2 1442   3.599   2.172   1.322
 2146SOL     OW 1443   1.967   2.875   1.726
 2146SOL    HW1 1444   1.890   2.842   1.780
 2146SOL    HW2 1445   2.052   2.845   1.768
 2147SOL     OW 1446   2.534   2.065   1.489
 2147SOL    HW1 1447   2.624   2.049   1.449
 2147SOL    HW2 1448   2.542   2.070   1.588
 2149SOL     OW 1449   3.302   2.718   1.398
 2149SOL    HW1 1450   3.245   2.770   1.335
 2149SOL    HW2 1451   3.398   2.730   1.374
 2152SOL     OW 1452   2.475   2.704   1.431
 2152SOL    HW1 1453   2.531   2.785   1.414
 2152SOL    HW2 1454   2.534   2.624   1.434
 2154SOL     OW 1455   2.578   2.427   1.708
 2154SOL    HW1 1456   2.597   2.492   1.782
 2154SOL    HW2 1457   2.638   2.347   1.717
 2155SOL     OW 1458   3.312   3.082   1.633
 2155SOL    HW1 1459   3.303   3.072   1.732
 2155SOL    HW2 1460   3.408   3.075   1.607
 2156SOL     OW 1461   2.252   3.603   1.560
 2156SOL    HW1 1462   2.161   3.644   1.558
 2156SOL    HW2 1463   2.245   3.509   1.592
 2157SOL     OW 1464   3.536   2.745   1.254
 2157SOL    HW1 1465   3.509   2.656   1.217
 2157SOL    HW2 1466   3.537   2.813   1.181
 2159SOL     OW 1467   2.456   2.607   0.652
 2159SOL    HW1 1468   2.506   2.692   0.633
 2159SOL    HW2 1469   2.368   2.609   0.604
 2160SOL     OW 1470   3.639   2.204   1.642
 2160SOL    HW1 1471   3.622   2.235   1.548
 2160SOL    HW2 1472   3.555   2.167   1.680
 2161SOL     OW 1473   3.592   2.796   1.517
 2161SOL    HW1 1474   3.630   2.887   1.532
 2161SOL    HW2 1475   3.584   2.779   1.418
 2164SOL     OW 1476   2.721   2.818   0.861
 2164SOL    HW1 1477   2.775   2.749   0.909
 2164SOL    HW2 1478   2.689   2.887   0.927
 2167SOL     OW 1479   2.083   3.176   1.844
 2167SOL    HW1 1480   2.018   3.103   1.823
 2167SOL    HW2 1481   2.087   3.190   1.942
 2169SOL     OW 1482   2.534   3.253   1.624
 2169SOL    HW1 1483   2.456   3.203   1.662
 2169SOL    HW2 1484   2.531   3.348   1.655
 2170SOL     OW 1485   3.686   2.054   1.227
 2170SOL    HW1 1486   3.682   1.964   1.271
 2170SOL    HW2 1487   3.689   2.043   1.128
 2173SOL     OW 1488   2.179   2.409   1.280
 2173SOL    HW1 1489   2.217   2.350   1.352
 2173SOL    HW2 1490   2.219   2.383   1.192
 2175SOL     OW 1491   3.286   2.076   1.112
 2175SOL    HW1 1492   3.338   2.011   1.167
 2175SOL    HW2 1493   3.237   2.139   1.173
 2176SOL     OW 1494   2.863   1.896   1.154
 2176SOL    HW1 1495   2.800   1.824   1.123
 2176SOL    HW2 1496   2.956   1.860   1.154
 2178SOL     OW 1497   2.480   3.429   1.284
 2178SOL    HW1 1498   2.475   3.511   1.341
 2178SOL    HW2 1499   2.569   3.426   1.239
 2184SOL     OW 1500   2.092   2.490   1.975
 2184SOL    HW1 1501   1.999   2.488   2.012
 2184SOL    HW2 1502   2.093   2.451   1.883
 2185SOL     OW 1503   2.087   2.137   2.858
 2185SOL    HW1 1504   2.122   2.120   2.950
 2185SOL    HW2 1505   1.999   2.092   2.846
 2186SOL     OW 1506   1.881   2.230   2.509
 2186SOL    HW1 1507   1.799   2.273   2.548
 2186SOL    HW2 1508   1.853   2.157   2.446
 2187SOL     OW 1509   2.431   3.137   3.027
 2187SOL    HW1 1510   2.338   3.130   2.990
 2187SOL    HW2 1511   2.442   3.226   3.071
 2188SOL     OW 1512   3.417   3.373   2.565
 2188SOL    HW1 1513   3.360   3.357   2.646
 2188SOL    HW2 1514   3.358   3.383   2.485
 2189SOL     OW 1515   2.997   2.565   2.579
 2189SOL    HW1 1516   3.054   2.643   2.554
 2189SOL    HW2 1517   2.937   2.591   2.655
 2190SOL     OW 1518   3.617   2.469   2.093
 2190SOL    HW1 1519   3.605   2.456   1.994
 2190SOL    HW2 1520   3.587   2.388   2.142
 2191SOL     OW 1521   2.630   3.006   2.885
 2191SOL    HW1 1522   2.552   3.023   2.945
 2191SOL    HW2 1523   2.664   3.093   2.849
 2192SOL     OW 1524   2.712   2.660   3.685
 2192SOL    HW1 1525   2.708   2.736   3.750
 2192SOL    HW2 1526   2.734   2.696   3.594
 2193SOL     OW 1527   2.547   2.874   2.527
 2193SOL    HW1 1528   2.616   2.858   2.597
 2193SOL    HW2 1529   2.474   2.931   2.565
 2194SOL     OW 1530   2.548   3.023   3.665
 2194SOL    HW1 1531   2.608   3.102   3.679
 2194SOL    HW2 1532   2.462   3.054   3.624
 2195SOL     OW 1533   2.197   3.297   2.923
 2195SOL    HW1 1534   2.119   3.266   2.870
 2195SOL    HW2 1535   2.255   3.355   2.866
 2196SOL     OW 1536   3.322   3.367   3.201
 2196SOL    HW1 1537   3.346   3.461   3.227
 2196SOL    HW2 1538   3.306   3.313   3.283
 2197SOL     OW 1539   2.300   2.254   3.361
 2197SOL    HW1 1540   2.382   2.198   3.370
 2197SOL    HW2 1541   2.219   2.196   3.365
 2198SOL     OW 1542   3.465   2.309   2.599
 2198SOL    HW1 1543   3.391   2.355   2.549
 2198SOL    HW2 1544   3.516   2.377   2.652
 2199SOL     OW 1545   2.093   3.575   2.345
 2199SOL    HW1 1546   2.127   3.652   2.399
 2199SOL    HW2 1547   2.137   3.575   2.255
 2200SOL     OW 1548   2.989   3.203   3.552
 2200SOL    HW1 1549   3.036   3.203   3.640
 2200SOL    HW2 1550   2.941   3.116   3.541
 2201SOL     OW 1551   2.092   3.296   2.400
 2201SOL    HW1 1552   2.066   3.392   2.400
 2201SOL    HW2 1553   2.021   3.242   2.445
 2202SOL     OW 1554   2.102   2.953   2.748
 2202SOL    HW1 1555   2.116   2.869   2.800
 2202SOL    HW2 1556   2.047   3.017   2.803
 2203SOL     OW 1557   2.482   3.648   3.301
 2203SOL    HW1 1558   2.390   3.631   3.336
 2203SOL    HW2 1559   2.510   3.740   3.327
 2204SOL     OW 1560   2.468   2.826   1.985
 2204SOL    HW1 1561   2.475   2.910   1.931
 2204SOL    HW2 1562   2.514   2.839   2.073
 2205SOL     OW 1563   3.456   1.976   3.342
 2205SOL    HW1 1564   3.438   2.043   3.270
 2205SOL    HW2 1565   3.453   2.022   3.431
 2206SOL     OW 1566   3.704   3.629   2.221
 2206SOL    HW1 1567   3.758   3.600   2.301
 2206SOL    HW2 1568   3.734   3.719   2.192
 2207SOL     OW 1569   1.889   3.458   1.979
 2207SOL    HW1 1570   1.870   3.362   2.000
 2207SOL    HW2 1571   1.856   3.516   2.054
 2208SOL     OW 1572   3.551   2.784   2.474
 2208SOL    HW1 1573   3.646   2.755   2.482
 2208SOL    HW2 1574   3.543   2.849   2.399
 2209SOL     OW 1575   3.503   2.970   2.294
 2209SOL    HW1 1576   3.589   2.972   2.242
 2209SOL    HW2 1577   3.517   3.017   2.382
 2210SOL     OW 1578   1.975   2.599   3.459
 2210SOL    HW1 1579   2.063   2.586   3.504
 2210SOL    HW2 1580   1.962   2.696   3.437
 2211SOL     OW 1581   2.475   3.227   2.588
 2211SOL    HW1 1582   2.426   3.140   2.597
 2211SOL    HW2 1583   2.452   3.270   2.501
 2212SOL     OW 1584   3.155   3.090   3.285
 2212SOL    HW1 1585   3.192   3.017   3.227
 2212SOL    HW2 1586   3.207   3.095   3.370
 2213SOL     OW 1587   2.671   1.866   2.364
 2213SOL    HW1 1588   2.711   1.957   2.355
 2213SOL    HW2 1589   2.571   1.874   2.370
 2214SOL     OW 1590   2.059   2.838   3.126
 2214SOL    HW1 1591   2.148   2.793   3.112
 2214SOL    HW2 1592   1.986   2.773   3.107
 2215SOL     OW 1593   3.387   2.861   2.052
 2215SOL    HW1 1594   3.324   2.785   2.065
 2215SOL    HW2 1595   3.435   2.879   2.138
 2216SOL     OW 1596   3.049   3.654   3.478
 2216SOL    HW1 1597   3.073   3.714   3.402
 2216SOL    HW2 1598   3.056   3.559   3.448
 2217SOL     OW 1599   2.179   2.113   3.663
 2217SOL    HW1 1600   2.250   2.184   3.669
 2217SOL    HW2 1601   2.091   2.152   3.691
 2218SOL     OW 1602   3.328   3.279   2.815
 2218SOL    HW1 1603   3.269   3.285   2.895
 2218SOL    HW2 1604   3.313   3.191   2.769
 2219SOL     OW 1605   3.529   3.576   2.434
 2219SOL    HW1 1606   3.488   3.553   2.346
 2219SOL    HW2 1607   3.511   3.502   2.499
 2220SOL     OW 1608   2.460   2.591   2.132
 2220SOL    HW1 1609   2.484   2.660   2.064
 2220SOL    HW2 1610   2.382   2.624   2.186
 2221SOL     OW 1611   3.143   2.207   2.806
 2221SOL    HW1 1612   3.057   2.157   2.793
 2221SOL    HW2 1613   3.205   2.153   2.862
 2222SOL     OW 1614   3.438   3.524   2.169
 2222SOL    HW1 1615   3.527   3.570   2.172
 2222SOL    HW2 1616   3.417   3.500   2.074
 2223SOL     OW 1617   2.669   2.467   3.327
 2223SOL    HW1 1618   2.622   2.464   3.416
 2223SOL    HW2 1619   2.618   2.412   3.261
 2224SOL     OW 1620   3.256   2.331   3.536
 2224SOL    HW1 1621   3.236   2.374   3.624
 2224SOL    HW2 1622   3.334   2.269   3.545
 2225SOL     OW 1623   2.835   2.752   3.434
 2225SOL    HW1 1624   2.881   2.668   3.405
 2225SOL    HW2 1625   2.779   2.786   3.359
 2226SOL     OW 1626   2.853   2.272   3.104
 2226SOL    HW1 1627   2.776   2.306   3.158
 2226SOL    HW2 1628   2.819   2.221   3.025
 2227SOL     OW 1629   2.903   2.563   2.291
 2227SOL    HW1 1630   2.929   2.559   2.387
 2227SOL    HW2 1631   2.818   2.512   2.277
 2228SOL     OW 1632   1.938   2.673   2.651
 2228SOL    HW1 1633   2.037   2.661   2.660
 2228SOL    HW2 1634   1.914   2.768   2.672
 2229SOL     OW 1635   1.992   3.683   3.433
 2229SOL    HW1 1636   1.982   3.668   3.532
 2229SOL    HW2 1637   1.906   3.719   3.397
 2230SOL     OW 1638   2.727   2.210   2.057
 2230SOL    HW1 1639   2.786   2.273   2.008
 2230SOL    HW2 1640   2.746   2.116   2.028
 2231SOL     OW 1641   3.581   2.447   3.693
 2231SOL    HW1 1642   3.555   2.536   3.657
 2231SOL    HW2 1643   3.579   2.379   3.620
 2232SOL     OW 1644   3.224   3.006   2.407
 2232SOL    HW1 1645   3.307   2.977   2.359
 2232SOL    HW2 1646   3.175   3.073   2.351
 2233SOL     OW 1647   2.412   2.058   2.747
 2233SOL    HW1 1648   2.407   2.053   2.847
 2233SOL    HW2 1649   2.414   2.154   2.718
 2234SOL     OW 1650   2.870   3.318   2.339
 2234SOL    HW1 1651   2.824   3.390   2.287
 2234SOL    HW2 1652   2.866   3.338   2.437
 2235SOL     OW 1653   2.213   3.663   2.715
 2235SOL    HW1 1654   2.263   3.577   2.721
 2235SOL    HW2 1655   2.278   3.740   2.712
 2236SOL     OW 1656   3.657   2.928   2.735
 2236SOL    HW1 1657   3.595   2.913   2.659
 2236SOL    HW2 1658   3.605   2.939   2.820
 2237SOL     OW 1659   3.089   3.412   3.368
 2237SOL    HW1 1660   3.095   3.335   3.432
 2237SOL    HW2 1661   3.037   3.386   3.288
 2238SOL     OW 1662   2.183   2.805   2.104
 2238SOL    HW1 1663   2.265   2.844   2.062
 2238SOL    HW2 1664   2.156   2.723   2.055
 2239SOL     OW 1665   3.320   2.597   2.590
 2239SOL    HW1 1666   3.315   2.532   2.665
 2239SOL    HW2 1667   3.400   2.656   2.603
 2240SOL     OW 1668   2.323   3.128   3.589
 2240SOL    HW1 1669   2.273   3.129   3.503
 2240SOL    HW2 1670   2.260   3.110   3.665
 2241SOL     OW 1671   2.973   3.638   2.099
 2241SOL    HW1 1672   2.913   3.576   2.149
 2241SOL    HW2 1673   3.004   3.594   2.014
 2242SOL     OW 1674   2.064   2.147   3.360
 2242SOL    HW1 1675   1.984   2.207   3.347
 2242SOL    HW2 1676   2.054   2.098   3.446
 2243SOL     OW 1677   3.494   3.239   1.943
 2243SOL    HW1 1678   3.462   3.333   1.933
 2243SOL    HW2 1679   3.418   3.176   1.931
 2244SOL     OW 1680   2.326   3.605   2.185
 2244SOL    HW1 1681   2.359   3.644   2.271
 2244SOL    HW2 1682   2.402   3.598   2.120
 2245SOL     OW 1683   3.262   1.969   2.288
 2245SOL    HW1 1684   3.238   1.932   2.198
 2245SOL    HW2 1685   3.361   1.985   2.292
 2246SOL     OW 1686   2.111   3.647   3.103
 2246SOL    HW1 1687   2.168   3.582   3.153
 2246SOL    HW2 1688   2.095   3.614   3.010
 2247SOL     OW 1689   2.802   3.560   2.766
 2247SOL    HW1 1690   2.882   3.503   2.787
 2247SOL    HW2 1691   2.753   3.520   2.689
 2248SOL     OW 1692   3.409   2.084   3.591
 2248SOL    HW1 1693   3.404   2.121   3.683
 2248SOL    HW2 1694   3.337   2.015   3.579
 2249SOL     OW 1695   2.476   1.984   1.979
 2249SOL    HW1 1696   2.574   1.962   1.986
 2249SOL    HW2 1697   2.445   1.967   1.886
 2250SOL     OW 1698   2.643   2.126   3.611
 2250SOL    HW1 1699   2.710   2.065   3.654
 2250SOL    HW2 1700   2.570   2.145   3.676
 2251SOL     OW 1701   2.750   3.376   3.057
 2251SOL    HW1 1702   2.727   3.351   2.963
 2251SOL    HW2 1703   2.811   3.307   3.096
 2252SOL     OW 1704   3.213   2.452   3.295
 2252SOL    HW1 1705   3.241   2.409   3.380
 2252SOL    HW2 1706   3.238   2.548   3.296
 2253SOL     OW 1707   2.665   3.264   2.786
 2253SOL    HW1 1708   2.755   3.278   2.744
 2253SOL    HW2 1709   2.594   3.266   2.715
 2254SOL     OW 1710   2.784   2.365   2.761
 2254SOL    HW1 1711   2.759   2.356   2.665
 2254SOL    HW2 1712   2.832   2.283   2.792
 2255SOL     OW 1713   2.401   1.926   2.374
 2255SOL    HW1 1714   2.320   1.927   2.432
 2255SOL    HW2 1715   2.404   2.009   2.319
 2256SOL     OW 1716   3.296   3.050   1.903
 2256SOL    HW1 1717   3.328   2.974   1.960
 2256SOL    HW2 1718   3.204   3.077   1.933
 2257SOL     OW 1719   2.159   1.897   2.033
 2257SOL    HW1 1720   2.208   1.981   2.012
 2257SOL    HW2 1721   2.221   1.832   2.078
 2258SOL     OW 1722   2.938   2.545   3.326
 2258SOL    HW1 1723   2.858   2.484   3.329
 2258SOL    HW2 1724   3.019   2.492   3.302
 2259SOL     OW 1725   3.089   3.432   2.655
 2259SOL    HW1 1726   3.110   3.506   2.590
 2259SOL    HW2 1727   3.157   3.432   2.728
 2260SOL     OW 1728   2.321   3.014   2.603
 2260SOL    HW1 1729   2.250   2.987   2.668
 2260SOL    HW2 1730   2.295   2.986   2.510
 2261SOL     OW 1731   3.133   3.659   2.453
 2261SOL    HW1 1732   3.177   3.723   2.389
 2261SOL    HW2 1733   3.083   3.711   2.523
 2262SOL     OW 1734   2.894   2.411   1.878
 2262SOL    HW1 1735   2.853   2.493   1.839
 2262SOL    HW2 1736   2.958   2.437   1.951
 2263SOL     OW 1737   1.940   2.418   3.248
 2263SOL    HW1 1738   2.032   2.417   3.207
 2263SOL    HW2 1739   1.934   2.492   3.315
 2264SOL     OW 1740   2.423   2.084   3.009
 2264SOL    HW1 1741   2.461   2.000   3.046
 2264SOL    HW2 1742   2.335   2.103   3.053
 2265SOL     OW 1743   2.879   1.901   2.615
 2265SOL    HW1 1744   2.807   1.906   2.546
 2265SOL    HW2 1745   2.855   1.832   2.684
 2266SOL     OW 1746   3.291   3.035   2.729
 2266SOL    HW1 1747   3.236   2.951   2.722
 2266SOL    HW2 1748   3.317   3.064   2.637
 2267SOL     OW 1749   3.328   2.452   2.854
 2267SOL    HW1 1750   3.298   2.357   2.861
 2267SOL    HW2 1751   3.401   2.468   2.920
 2268SOL     OW 1752   3.719   2.695   2.239
 2268SOL    HW1 1753   3.761   2.631   2.303
 2268SOL    HW2 1754   3.681   2.644   2.161
 2269SOL     OW 1755   2.350   3.247   2.036
 2269SOL    HW1 1756   2.263   3.232   2.083
 2269SOL    HW2 1757   2.333   3.273   1.941
 2270SOL     OW 1758   3.526   3.142   2.519
 2270SOL    HW1 1759   3.625   3.150   2.533
 2270SOL    HW2 1760   3.481   3.226   2.550
 2271SOL     OW 1761   3.252   2.437   1.940
 2271SOL    HW1 1762   3.198   2.416   2.021
 2271SOL    HW2 1763   3.343   2.396   1.949
 2272SOL     OW 1764   2.389   2.118   2.190
 2272SOL    HW1 1765   2.416   2.059   2.115
 2272SOL    HW2 1766   2.389   2.213   2.159
 2273SOL     OW 1767   3.616   3.085   3.450
 2273SOL    HW1 1768   3.707   3.046   3.437
 2273SOL    HW2 1769   3.624   3.181   3.474
 2274SOL     OW 1770   2.926   3.209   3.202
 2274SOL    HW1 1771   2.846   3.186   3.257
 2274SOL    HW2 1772   3.009   3.183   3.251
 2276SOL     OW 1773   2.973   3.057   2.962
 2276SOL    HW1 1774   2.933   3.101   3.043
 2276SOL    HW2 1775   2.932   3.094   2.879
 2277SOL     OW 1776   3.500   2.961   2.941
 2277SOL    HW1 1777   3.505   3.042   3.000
 2277SOL    HW2 1778   3.414   2.963   2.890
 2278SOL     OW 1779   2.777   1.951   3.264
 2278SOL    HW1 1780   2.802   1.931   3.169
 2278SOL    HW2 1781   2.849   2.007   3.306
 2279SOL     OW 1782   2.842   2.978   3.581
 2279SOL    HW1 1783   2.743   2.984   3.591
 2279SOL    HW2 1784   2.865   2.898   3.525
 2280SOL     OW 1785   2.567   2.912   2.230
 2280SOL    HW1 1786   2.553   2.919   2.329
 2280SOL    HW2 1787   2.651   2.861   2.212
 2281SOL     OW 1788   2.272   2.675   3.113
 2281SOL    HW1 1789   2.358   2.687   3.163
 2281SOL    HW2 1790   2.230   2.588   3.140
 2282SOL     OW 1791   3.136   2.248   3.124
 2282SOL    HW1 1792   3.157   2.322   3.188
 2282SOL    HW2 1793   3.047   2.265   3.081
 2283SOL     OW 1794   1.926   3.426   3.193
 2283SOL    HW1 1795   1.880   3.508   3.159
 2283SOL    HW2 1796   2.024   3.445   3.202
 2284SOL     OW 1797   2.229   2.962   2.363
 2284SOL    HW1 1798   2.222   3.045   2.307
 2284SOL    HW2 1799   2.233   2.882   2.303
 2285SOL     OW 1800   2.428   2.399   2.727
 2285SOL    HW1 1801   2.440   2.465   2.653
 2285SOL    HW2 1802   2.474   2.433   2.810
 2286SOL     OW 1803   3.114   3.210   2.250
 2286SOL    HW1 1804   3.164   3.287   2.290
 2286SOL    HW2 1805   3.019   3.212   2.282
 2287SOL     OW 1806   3.134   3.307   3.004
 2287SOL    HW1 1807   3.181   3.320   3.091
 2287SOL    HW2 1808   3.068   3.233   3.013
 2288SOL     OW 1809   3.444   2.501   2.334
 2288SOL    HW1 1810   3.413   2.562   2.407
 2288SOL    HW2 1811   3.494   2.553   2.265
 2289SOL     OW 1812   2.216   3.372   3.191
 2289SOL    HW1 1813   2.195   3.328   3.104
 2289SOL    HW2 1814   2.313   3.398   3.194
 2290SOL     OW 1815   2.264   2.613   3.460
 2290SOL    HW1 1816   2.332   2.668   3.413
 2290SOL    HW2 1817   2.304   2.525   3.487
 2291SOL     OW 1818   3.449   2.641   3.532
 2291SOL    HW1 1819   3.357   2.679   3.527
 2291SOL    HW2 1820   3.509   2.688   3.467
 2292SOL     OW 1821   2.875   1.967   3.632
 2292SOL    HW1 1822   2.881   2.052   3.580
 2292SOL    HW2 1823   2.907   1.891   3.575
 2293SOL     OW 1824   2.366   1.912   3.602
 2293SOL    HW1 1825   2.324   1.855   3.532
 2293SOL    HW2 1826   2.300   1.981   3.634
 2294SOL     OW 1827   2.435   2.732   2.891
 2294SOL    HW1 1828   2.479   2.821   2.882
 2294SOL    HW2 1829   2.372   2.732   2.968
 2295SOL     OW 1830   3.222   2.724   2.907
 2295SOL    HW1 1831   3.147   2.724   2.841
 2295SOL    HW2 1832   3.259   2.632   2.916
 2296SOL     OW 1833   3.071   2.387   2.137
 2296SOL    HW1 1834   3.084   2.303   2.191
 2296SOL    HW2 1835   3.042   2.461   2.197
 2297SOL     OW 1836   2.169   2.075   3.093
 2297SOL    HW1 1837   2.146   2.112   3.183
 2297SOL    HW2 1838   2.139   1.980   3.087
 2298SOL     OW 1839   1.899   3.172   3.144
 2298SOL    HW1 1840   1.952   3.123   3.212
 2298SOL    HW2 1841   1.921   3.270   3.149
 2299SOL     OW 1842   2.594   2.496   2.926
 2299SOL    HW1 1843   2.653   2.470   2.850
 2299SOL    HW2 1844   2.566   2.592   2.915
 2301SOL     OW 1845   2.169   1.925   2.480
 2301SOL    HW1 1846   2.158   2.019   2.513
 2301SOL    HW2 1847   2.164   1.862   2.557
 2302SOL     OW 1848   3.484   2.229   2.236
 2302SOL    HW1 1849   3.486   2.153   2.300
 2302SOL    HW2 1850   3.436   2.306   2.276
 2303SOL     OW 1851   2.885   2.628   2.828
 2303SOL    HW1 1852   2.900   2.649   2.924
 2303SOL    HW2 1853   2.855   2.533   2.819
 2304SOL     OW 1854   2.842   3.435   3.562
 2304SOL    HW1 1855   2.822   3.479   3.474
 2304SOL    HW2 1856   2.881   3.344   3.546
 2306SOL     OW 1857   2.212   2.760   3.666
 2306SOL    HW1 1858   2.288   2.804   3.714
 2306SOL    HW2 1859   2.247   2.713   3.584
 2307SOL     OW 1860   3.402   2.136   1.987
 2307SOL    HW1 1861   3.341   2.061   2.010
 2307SOL    HW2 1862   3.424   2.188   2.070
 2308SOL     OW 1863   3.165   2.700   1.904
 2308SOL    HW1 1864   3.199   2.607   1.919
 2308SOL    HW2 1865   3.183   2.727   1.809
 2309SOL     OW 1866   2.930   3.195   2.711
 2309SOL    HW1 1867   2.937   3.111   2.656
 2309SOL    HW2 1868   2.992   3.264   2.675
 2310SOL     OW 1869   2.181   2.672   2.811
 2310SOL    HW1 1870   2.274   2.708   2.816
 2310SOL    HW2 1871   2.175   2.587   2.863
 2311SOL     OW 1872   2.201   2.371   2.868
 2311SOL    HW1 1873   2.149   2.288   2.851
 2311SOL    HW2 1874   2.278   2.376   2.804
 2312SOL     OW 1875   3.000   2.242   3.540
 2312SOL    HW1 1876   2.955   2.305   3.604
 2312SOL    HW2 1877   3.093   2.273   3.523
 2313SOL     OW 1878   3.022   2.069   3.339
 2313SOL    HW1 1879   3.022   2.133   3.416
 2313SOL    HW2 1880   3.050   2.117   3.256
 2314SOL     OW 1881   1.870   3.188   2.062
 2314SOL    HW1 1882   1.777   3.209   2.031
 2314SOL    HW2 1883   1.880   3.089   2.075
 2315SOL     OW 1884   1.950   3.663   2.789
 2315SOL    HW1 1885   1.908   3.577   2.762
 2315SOL    HW2 1886   2.044   3.666   2.755
 2316SOL     OW 1887   2.366   3.430   2.772
 2316SOL    HW1 1888   2.432   3.504   2.781
 2316SOL    HW2 1889   2.410   3.351   2.730
 2317SOL     OW 1890   2.864   2.658   3.100
 2317SOL    HW1 1891   2.905   2.626   3.186
 2317SOL    HW2 1892   2.768   2.631   3.097
 2318SOL     OW 1893   1.902   2.406   2.976
 2318SOL    HW1 1894   1.987   2.373   2.935
 2318SOL    HW2 1895   1.915   2.421   3.074
 2319SOL     OW 1896   2.051   2.382   3.584
 2319SOL    HW1 1897   2.110   2.342   3.514
 2319SOL    HW2 1898   1.993   2.453   3.543
 2320SOL     OW 1899   3.231   2.812   3.522
 2320SOL    HW1 1900   3.270   2.901   3.542
 2320SOL    HW2 1901   3.241   2.792   3.425
 2321SOL     OW 1902   2.677   2.434   2.187
 2321SOL    HW1 1903   2.684   2.345   2.141
 2321SOL    HW2 1904   2.583   2.468   2.179
 2322SOL     OW 1905   3.519   2.466   3.068
 2322SOL    HW1 1906   3.481   2.397   3.130
 2322SOL    HW2 1907   3.601   2.430   3.024
 2323SOL     OW 1908   2.114   3.426   3.606
 2323SOL    HW1 1909   2.084   3.483   3.682
 2323SOL    HW2 1910   2.107   3.329   3.632
 2324SOL     OW 1911   2.533   2.326   3.131
 2324SOL    HW1 1912   2.499   2.237   3.101
 2324SOL    HW2 1913   2.559   2.380   3.051
 2325SOL     OW 1914   2.792   3.540   3.327
 2325SOL    HW1 1915   2.768   3.522   3.232
 2325SOL    HW2 1916   2.822   3.634   3.337
 2326SOL     OW 1917   2.335   2.362   2.053
 2326SOL    HW1 1918   2.396   2.442   2.057
 2326SOL    HW2 1919   2.240   2.393   2.060
 2327SOL     OW 1920   2.021   2.999   3.328
 2327SOL    HW1 1921   2.043   2.938   3.404
 2327SOL    HW2 1922   2.031   2.950   3.242
 2328SOL     OW 1923   3.209   2.921   3.096
 2328SOL    HW1 1924   3.233   2.858   3.022
 2328SOL    HW2 1925   3.119   2.961   3.078
 2329SOL     OW 1926   3.164   2.717   2.171
 2329SOL    HW1 1927   3.078   2.686   2.213
 2329SOL    HW2 1928   3.160   2.703   2.072
 2331SOL     OW 1929   3.114   3.593   2.990
 2331SOL    HW1 1930   3.198   3.598   2.936
 2331SOL    HW2 1931   3.091   3.497   3.008
 2332SOL     OW 1932   1.945   3.120   2.884
 2332SOL    HW1 1933   1.940   3.119   2.984
 2332SOL    HW2 1934   1.862   3.079   2.846
 2333SOL     OW 1935   2.550   3.524   3.578
 2333SOL    HW1 1936   2.494   3.605   3.587
 2333SOL    HW2 1937   2.602   3.528   3.492
 2334SOL     OW 1938   3.588   1.997   2.385
 2334SOL    HW1 1939   3.661   1.980   2.318
 2334SOL    HW2 1940   3.557   1.910   2.423
 2335SOL     OW 1941   3.250   3.435   2.339
 2335SOL    HW1 1942   3.317   3.447   2.265
 2335SOL    HW2 1943   3.210   3.524   2.362
 2337SOL     OW 1944   3.142   2.789   2.534
 2337SOL    HW1 1945   3.202   2.708   2.536
 2337SOL    HW2 1946   3.182   2.858   2.474
 2338SOL     OW 1947   2.692   3.135   3.284
 2338SOL    HW1 1948   2.687   3.168   3.379
 2338SOL    HW2 1949   2.606   3.154   3.238
 2339SOL     OW 1950   2.534   3.478   2.016
 2339SOL    HW1 1951   2.543   3.488   1.917
 2339SOL    HW2 1952   2.494   3.389   2.037
 2341SOL     OW 1953   3.703   2.037   2.825
 2341SOL    HW1 1954   3.742   1.952   2.789
 2341SOL    HW2 1955   3.605   2.039   2.806
 2342SOL     OW 1956   3.056   3.474   1.893
 2342SOL    HW1 1957   3.062   3.381   1.930
 2342SOL    HW2 1958   2.997   3.474   1.813
 2343SOL     OW 1959   2.684   2.864   3.234
 2343SOL    HW1 1960   2.724   2.863   3.142
 2343SOL    HW2 1961   2.694   2.956   3.274
 2344SOL     OW 1962   2.778   2.772   2.153
 2344SOL    HW1 1963   2.841   2.810   2.085
 2344SOL    HW2 1964   2.818   2.689   2.192
 2345SOL     OW 1965   3.366   3.469   1.906
 2345SOL    HW1 1966   3.274   3.506   1.913
 2345SOL    HW2 1967   3.404   3.489   1.816
 2346SOL     OW 1968   2.234   3.150   3.352
 2346SOL    HW1 1969   2.221   3.243   3.318
 2346SOL    HW2 1970   2.150   3.098   3.339
 2347SOL     OW 1971   3.476   3.154   3.151
 2347SOL    HW1 1972   3.536   3.157   3.231
 2347SOL    HW2 1973   3.401   3.218   3.164
 2348SOL     OW 1974   2.901   2.960   2.558
 2348SOL    HW1 1975   2.831   2.913   2.612
 2348SOL    HW2 1976   2.960   2.892   2.515
 2349SOL     OW 1977   2.876   2.098   2.833
 2349SOL    HW1 1978   2.868   2.062   2.740
 2349SOL    HW2 1979   2.874   2.022   2.898
 2350SOL     OW 1980   2.452   3.349   2.353
 2350SOL    HW1 1981   2.494   3.291   2.283
 2350SOL    HW2 1982   2.408   3.428   2.309
 2351SOL     OW 1983   3.571   2.247   3.243
 2351SOL    HW1 1984   3.644   2.316   3.247
 2351SOL    HW2 1985   3.599   2.172   3.184
 2352SOL     OW 1986   2.117   3.210   2.152
 2352SOL    HW1 1987   2.021   3.211   2.125
 2352SOL    HW2 1988   2.129   3.263   2.236
 2353SOL     OW 1989   1.967   2.875   3.588
 2353SOL    HW1 1990   1.890   2.842   3.642
 2353SOL    HW2 1991   2.052   2.845   3.630
 2354SOL     OW 1992   2.534   2.065   3.351
 2354SOL    HW1 1993   2.624   2.049   3.311
 2354SOL    HW2 1994   2.542   2.070   3.450
 2355SOL     OW 1995   1.937   2.207   1.895
 2355SOL    HW1 1996   1.845   2.179   1.866
 2355SOL    HW2 1997   1.968   2.284   1.839
 2356SOL     OW 1998   3.302   2.718   3.260
 2356SOL    HW1 1999   3.245   2.770   3.197
 2356SOL    HW2 2000   3.398   2.730   3.236
 2357SOL     OW 2001   1.934   2.028   2.180
 2357SOL    HW1 2002   1.917   2.111   2.126
 2357SOL    HW2 2003   2.024   1.991   2.158
 2358SOL     OW 2004   3.045   3.197   1.981
 2358SOL    HW1 2005   2.946   3.186   1.983
 2358SOL    HW2 2006   3.079   3.212   2.074
 2359SOL     OW 2007   2.475   2.704   3.293
 2359SOL    HW1 2008   2.531   2.785   3.276
 2359SOL    HW2 2009   2.534   2.624   3.296
 2360SOL     OW 2010   3.355   3.629   2.821
 2360SOL    HW1 2011   3.388   3.693   2.752
 2360SOL    HW2 2012   3.421   3.623   2.896
 2361SOL     OW 2013   2.578   2.427   3.570
 2361SOL    HW1 2014   2.597   2.492   3.644
 2361SOL    HW2 2015   2.638   2.347   3.579
 2362SOL     OW 2016   3.312   3.082   3.495
 2362SOL    HW1 2017   3.303   3.072   3.594
 2362SOL    HW2 2018   3.408   3.075   3.469
 2363SOL     OW 2019   2.252   3.603   3.422
 2363SOL    HW1 2020   2.161   3.644   3.420
 2363SOL    HW2 2021   2.245   3.509   3.454
 2364SOL     OW 2022   3.536   2.745   3.116
 2364SOL    HW1 2023   3.509   2.656   3.079
 2364SOL    HW2 2024   3.537   2.813   3.043
 2365SOL     OW 2025   3.087   2.187   2.311
 2365SOL    HW1 2026   3.152   2.113   2.300
 2365SOL    HW2 2027   3.107   2.237   2.395
 2366SOL     OW 2028   3.639   2.204   3.504
 2366SOL    HW1 2029   3.622   2.235   3.410
 2366SOL    HW2 2030   3.555   2.167   3.542
 2367SOL     OW 2031   3.592   2.796   3.379
 2367SOL    HW1 2032   3.630   2.887   3.394
 2367SOL    HW2 2033   3.584   2.779   3.280
 2368SOL     OW 2034   2.721   3.236   1.878
 2368SOL    HW1 2035   2.675   3.251   1.966
 2368SOL    HW2 2036   2.765   3.321   1.848
 2369SOL     OW 2037   2.523   3.652   2.815
 2369SOL    HW1 2038   2.477   3.740   2.802
 2369SOL    HW2 2039   2.622   3.664   2.808
 2370SOL     OW 2040   2.721   2.818   2.723
 2370SOL    HW1 2041   2.775   2.749   2.771
 2370SOL    HW2 2042   2.689   2.887   2.789
 2371SOL     OW 2043   2.945   2.846   1.949
 2371SOL    HW1 2044   2.922   2.899   1.867
 2371SOL    HW2 2045   3.026   2.790   1.930
 2372SOL     OW 2046   3.723   3.431   2.713
 2372SOL    HW1 2047   3.652   3.419   2.643
 2372SOL    HW2 2048   3.724   3.352   2.773
 2373SOL     OW 2049   2.083   3.176   3.706
 2373SOL    HW1 2050   2.018   3.103   3.685
 2373SOL    HW2 2051   2.087   3.190   3.804
 2374SOL     OW 2052   1.941   3.102   2.515
 2374SOL    HW1 2053   1.940   3.055   2.603
 2374SOL    HW2 2054   2.023   3.074   2.464
 2375SOL     OW 2055   2.534   3.253   3.486
 2375SOL    HW1 2056   2.456   3.203   3.524
 2375SOL    HW2 2057   2.531   3.348   3.517
 2376SOL     OW 2058   3.686   2.054   3.089
 2376SOL    HW1 2059   3.682   1.964   3.133
 2376SOL    HW2 2060   3.689   2.043   2.990
 2377SOL     OW 2061   3.567   3.349   2.966
 2377SOL    HW1 2062   3.474   3.324   2.939
 2377SOL    HW2 2063   3.593   3.299   3.048
 2378SOL     OW 2064   2.179   2.409   3.142
 2378SOL    HW1 2065   2.217   2.350   3.214
 2378SOL    HW2 2066   2.219   2.383   3.054
 2379SOL     OW 2067   2.674   3.448   2.549
 2379SOL    HW1 2068   2.706   3.458   2.455
 2379SOL    HW2 2069   2.595   3.386   2.551
 2380SOL     OW 2070   3.286   2.076   2.974
 2380SOL    HW1 2071   3.338   2.011   3.029
 2380SOL    HW2 2072   3.237   2.139   3.035
 2381SOL     OW 2073   2.863   1.896   3.016
 2381SOL    HW1 2074   2.800   1.824   2.985
 2381SOL    HW2 2075   2.956   1.860   3.016
 2382SOL     OW 2076   2.632   3.192   2.163
 2382SOL    HW1 2077   2.586   3.105   2.180
 2382SOL    HW2 2078   2.723   3.189   2.204
 2383SOL     OW 2079   2.480   3.429   3.146
 2383SOL    HW1 2080   2.475   3.511   3.203
 2383SOL    HW2 2081   2.569   3.426   3.101
 2384SOL     OW 2082   3.214   1.914   2.030
 2384SOL    HW1 2083   3.249   1.873   1.946
 2384SOL    HW2 2084   3.124   1.876   2.050
 2385SOL     OW 2085   3.162   2.315   2.553
 2385SOL    HW1 2086   3.103   2.395   2.557
 2385SOL    HW2 2087   3.177   2.280   2.646
 2386SOL     OW 2088   3.455   2.083   2.744
 2386SOL    HW1 2089   3.371   2.082   2.798
 2386SOL    HW2 2090   3.457   2.166   2.688
 2387SOL     OW 2091   1.901   2.939   2.162
 2387SOL    HW1 2092   2.000   2.928   2.153
 2387SOL    HW2 2093   1.861   2.853   2.194
 2388SOL     OW 2094   2.737   3.508   2.199
 2388SOL    HW1 2095   2.660   3.473   2.145
 2388SOL    HW2 2096   2.705   3.579   2.261
 2389SOL     OW 2097   2.092   2.490   3.837
 2389SOL    HW1 2098   1.999   2.488   3.874
 2389SOL    HW2 2099   2.093   2.451   3.745
 2402SOL     OW 2100   2.468   2.826   3.847
 2402SOL    HW1 2101   2.475   2.910   3.793
 2402SOL    HW2 2102   2.514   2.839   3.935
 2413SOL     OW 2103   2.460   2.591   3.994
 2413SOL    HW1 2104   2.484   2.660   3.926
 2413SOL    HW2 2105   2.382   2.624   4.048
 2418SOL     OW 2106   2.727   2.210   3.919
 2418SOL    HW1 2107   2.786   2.273   3.870
 2418SOL    HW2 2108   2.746   2.116   3.890
 2424SOL     OW 2109   2.183   2.805   3.966
 2424SOL    HW1 2110   2.265   2.844   3.924
 2424SOL    HW2 2111   2.156   2.723   3.917
 2433SOL     OW 2112   2.476   1.984   3.841
 2433SOL    HW1 2113   2.574   1.962   3.848
 2433SOL    HW2 2114   2.445   1.967   3.748
 2437SOL     OW 2115   3.296   3.050   3.765
 2437SOL    HW1 2116   3.328   2.974   3.822
 2437SOL    HW2 2117   3.204   3.077   3.795
 2438SOL     OW 2118   2.159   1.897   3.895
 2438SOL    HW1 2119   2.208   1.981   3.874
 2438SOL    HW2 2120   2.221   1.832   3.940
 2443SOL     OW 2121   2.894   2.411   3.740
 2443SOL    HW1 2122   2.853   2.493   3.701
 2443SOL    HW2 2123   2.958   2.437   3.813
 2449SOL     OW 2124   2.350   3.247   3.898
 2449SOL    HW1 2125   2.263   3.232   3.945
 2449SOL    HW2 2126   2.333   3.273   3.803
 2451SOL     OW 2127   3.252   2.437   3.802
 2451SOL    HW1 2128   3.198   2.416   3.883
 2451SOL    HW2 2129   3.343   2.396   3.811
 2452SOL     OW 2130   2.389   2.118   4.052
 2452SOL    HW1 2131   2.416   2.059   3.977
 2452SOL    HW2 2132   2.389   2.213   4.021
 2454SOL     OW 2133   2.567   2.912   4.092
 2454SOL    HW1 2134   2.553   2.919   4.191
 2454SOL    HW2 2135   2.651   2.861   4.074
 2460SOL     OW 2136   3.071   2.387   3.999
 2460SOL    HW1 2137   3.084   2.303   4.053
 2460SOL    HW2 2138   3.042   2.461   4.059
 2465SOL     OW 2139   3.402   2.136   3.849
 2465SOL    HW1 2140   3.341   2.061   3.872
 2465SOL    HW2 2141   3.424   2.188   3.932
 2466SOL     OW 2142   3.165   2.700   3.766
 2466SOL    HW1 2143   3.199   2.607   3.781
 2466SOL    HW2 2144   3.183   2.727   3.671
 2470SOL     OW 2145   1.870   3.188   3.924
 2470SOL    HW1 2146   1.777   3.209   3.893
 2470SOL    HW2 2147   1.880   3.089   3.937
 2474SOL     OW 2148   2.677   2.434   4.049
 2474SOL    HW1 2149   2.684   2.345   4.003
 2474SOL    HW2 2150   2.583   2.468   4.041
 2476SOL     OW 2151   2.335   2.362   3.915
 2476SOL    HW1 2152   2.396   2.442   3.919
 2476SOL    HW2 2153   2.240   2.393   3.922
 2487SOL     OW 2154   2.778   2.772   4.015
 2487SOL    HW1 2155   2.841   2.810   3.947
 2487SOL    HW2 2156   2.818   2.689   4.054
 2493SOL     OW 2157   1.937   2.207   3.757
 2493SOL    HW1 2158   1.845   2.179   3.728
 2493SOL    HW2 2159   1.968   2.284   3.701
 2494SOL     OW 2160   1.934   2.028   4.042
 2494SOL    HW1 2161   1.917   2.111   3.988
 2494SOL    HW2 2162   2.024   1.991   4.020
 2495SOL     OW 2163   3.045   3.197   3.843
 2495SOL    HW1 2164   2.946   3.186   3.845
 2495SOL    HW2 2165   3.079   3.212   3.936
 2499SOL     OW 2166   2.721   3.236   3.740
 2499SOL    HW1 2167   2.675   3.251   3.828
 2499SOL    HW2 2168   2.765   3.321   3.710
 2502SOL     OW 2169   2.945   2.846   3.811
 2502SOL    HW1 2170   2.922   2.899   3.729
 2502SOL    HW2 2171   3.026   2.790   3.792
 2509SOL     OW 2172   3.214   1.914   3.892
 2509SOL    HW1 2173   3.249   1.873   3.808
 2509SOL    HW2 2174   3.124   1.876   3.912
 2512SOL     OW 2175   1.901   2.939   4.024
 2512SOL    HW1 2176   2.000   2.928   4.015
 2512SOL    HW2 2177   1.861   2.853   4.056
 2533SOL     OW 2178   2.179   3.975   1.801
 2533SOL    HW1 2179   2.250   4.046   1.807
 2533SOL    HW2 2180   2.091   4.014   1.829
 2551SOL     OW 2181   2.643   3.988   1.749
 2551SOL    HW1 2182   2.710   3.927   1.792
 2551SOL    HW2 2183   2.570   4.007   1.814
 2568SOL     OW 2184   2.777   3.813   1.402
 2568SOL    HW1 2185   2.802   3.793   1.307
 2568SOL    HW2 2186   2.849   3.869   1.444
 2575SOL     OW 2187   2.875   3.829   1.770
 2575SOL    HW1 2188   2.881   3.914   1.718
 2575SOL    HW2 2189   2.907   3.753   1.713
 2576SOL     OW 2190   2.366   3.774   1.740
 2576SOL    HW1 2191   2.324   3.717   1.670
 2576SOL    HW2 2192   2.300   3.843   1.772
 2613SOL     OW 2193   2.534   3.927   1.489
 2613SOL    HW1 2194   2.624   3.911   1.449
 2613SOL    HW2 2195   2.542   3.932   1.588
 2638SOL     OW 2196   2.087   3.999   2.858
 2638SOL    HW1 2197   2.122   3.982   2.950
 2638SOL    HW2 2198   1.999   3.954   2.846
 2639SOL     OW 2199   1.881   4.092   2.509
 2639SOL    HW1 2200   1.799   4.135   2.548
 2639SOL    HW2 2201   1.853   4.019   2.446
 2653SOL     OW 2202   2.671   3.728   2.364
 2653SOL    HW1 2203   2.711   3.819   2.355
 2653SOL    HW2 2204   2.571   3.736   2.370
 2665SOL     OW 2205   2.727   4.072   2.057
 2665SOL    HW1 2206   2.786   4.135   2.008
 2665SOL    HW2 2207   2.746   3.978   2.028
 2667SOL     OW 2208   2.412   3.920   2.747
 2667SOL    HW1 2209   2.407   3.915   2.847
 2667SOL    HW2 2210   2.414   4.016   2.718
 2670SOL     OW 2211   3.262   3.831   2.288
 2670SOL    HW1 2212   3.238   3.794   2.198
 2670SOL    HW2 2213   3.361   3.847   2.292
 2673SOL     OW 2214   2.476   3.846   1.979
 2673SOL    HW1 2215   2.574   3.824   1.986
 2673SOL    HW2 2216   2.445   3.829   1.886
 2677SOL     OW 2217   2.401   3.788   2.374
 2677SOL    HW1 2218   2.320   3.789   2.432
 2677SOL    HW2 2219   2.404   3.871   2.319
 2678SOL     OW 2220   2.159   3.759   2.033
 2678SOL    HW1 2221   2.208   3.843   2.012
 2678SOL    HW2 2222   2.221   3.694   2.078
 2679SOL     OW 2223   2.797   3.960   2.342
 2679SOL    HW1 2224   2.749   4.001   2.264
 2679SOL    HW2 2225   2.896   3.958   2.323
 2683SOL     OW 2226   2.423   3.946   3.009
 2683SOL    HW1 2227   2.461   3.862   3.046
 2683SOL    HW2 2228   2.335   3.965   3.053
 2685SOL     OW 2229   2.879   3.763   2.615
 2685SOL    HW1 2230   2.807   3.768   2.546
 2685SOL    HW2 2231   2.855   3.694   2.684
 2690SOL     OW 2232   2.389   3.980   2.190
 2690SOL    HW1 2233   2.416   3.921   2.115
 2690SOL    HW2 2234   2.389   4.075   2.159
 2692SOL     OW 2235   2.777   3.813   3.264
 2692SOL    HW1 2236   2.802   3.793   3.169
 2692SOL    HW2 2237   2.849   3.869   3.306
 2704SOL     OW 2238   2.169   3.937   3.093
 2704SOL    HW1 2239   2.146   3.974   3.183
 2704SOL    HW2 2240   2.139   3.842   3.087
 2707SOL     OW 2241   2.169   3.787   2.480
 2707SOL    HW1 2242   2.158   3.881   2.513
 2707SOL    HW2 2243   2.164   3.724   2.557
 2731SOL     OW 2244   2.125   4.050   2.582
 2731SOL    HW1 2245   2.046   4.101   2.548
 2731SOL    HW2 2246   2.116   4.035   2.680
 2733SOL     OW 2247   2.876   3.960   2.833
 2733SOL    HW1 2248   2.868   3.924   2.740
 2733SOL    HW2 2249   2.874   3.884   2.898
 2736SOL     OW 2250   2.534   3.927   3.351
 2736SOL    HW1 2251   2.624   3.911   3.311
 2736SOL    HW2 2252   2.542   3.932   3.450
 2739SOL     OW 2253   1.934   3.890   2.180
 2739SOL    HW1 2254   1.917   3.973   2.126
 2739SOL    HW2 2255   2.024   3.853   2.158
 2744SOL     OW 2256   3.087   4.049   2.311
 2744SOL    HW1 2257   3.152   3.975   2.300
 2744SOL    HW2 2258   3.107   4.099   2.395
 2752SOL     OW 2259   2.290   4.148   2.382
 2752SOL    HW1 2260   2.320   4.076   2.320
 2752SOL    HW2 2261   2.251   4.108   2.465
 2755SOL     OW 2262   2.863   3.758   3.016
 2755SOL    HW1 2263   2.800   3.686   2.985
 2755SOL    HW2 2264   2.956   3.722   3.016
 2756SOL     OW 2265   3.214   3.776   2.030
 2756SOL    HW1 2266   3.249   3.735   1.946
 2756SOL    HW2 2267   3.124   3.738   2.050
 2863SOL     OW 2268   3.854   1.821   1.571
 2863SOL    HW1 2269   3.844   1.806   1.670
 2863SOL    HW2 2270   3.768   1.857   1.535
 2930SOL     OW 2271   3.854   1.794   1.851
 2930SOL    HW1 2272   3.813   1.720   1.904
 2930SOL    HW2 2273   3.918   1.845   1.909
 2976SOL     OW 2274   3.955   1.713   2.345
 2976SOL    HW1 2275   3.989   1.790   2.399
 2976SOL    HW2 2276   3.999   1.713   2.255
 2982SOL     OW 2277   3.751   1.596   1.979
 2982SOL    HW1 2278   3.732   1.500   2.000
 2982SOL    HW2 2279   3.718   1.654   2.054
 3027SOL     OW 2280   3.788   1.564   3.193
 3027SOL    HW1 2281   3.742   1.646   3.159
 3027SOL    HW2 2282   3.886   1.583   3.202
 3045SOL     OW 2283   3.732   1.326   2.062
 3045SOL    HW1 2284   3.639   1.347   2.031
 3045SOL    HW2 2285   3.742   1.227   2.075
 3046SOL     OW 2286   3.812   1.801   2.789
 3046SOL    HW1 2287   3.770   1.715   2.762
 3046SOL    HW2 2288   3.906   1.804   2.755
 3188SOL     OW 2289   3.837   2.599   1.597
 3188SOL    HW1 2290   3.925   2.586   1.642
 3188SOL    HW2 2291   3.824   2.696   1.575
 3192SOL     OW 2292   4.041   2.113   1.801
 3192SOL    HW1 2293   4.112   2.184   1.807
 3192SOL    HW2 2294   3.953   2.152   1.829
 3206SOL     OW 2295   3.926   2.147   1.498
 3206SOL    HW1 2296   3.846   2.207   1.485
 3206SOL    HW2 2297   3.916   2.098   1.584
 3222SOL     OW 2298   3.802   2.418   1.386
 3222SOL    HW1 2299   3.894   2.417   1.345
 3222SOL    HW2 2300   3.796   2.492   1.453
 3255SOL     OW 2301   3.913   2.382   1.722
 3255SOL    HW1 2302   3.972   2.342   1.652
 3255SOL    HW2 2303   3.855   2.453   1.681
 3277SOL     OW 2304   3.829   2.875   1.726
 3277SOL    HW1 2305   3.752   2.842   1.780
 3277SOL    HW2 2306   3.914   2.845   1.768
 3301SOL     OW 2307   3.954   2.490   1.975
 3301SOL    HW1 2308   3.861   2.488   2.012
 3301SOL    HW2 2309   3.955   2.451   1.883
 3302SOL     OW 2310   3.949   2.137   2.858
 3302SOL    HW1 2311   3.984   2.120   2.950
 3302SOL    HW2 2312   3.861   2.092   2.846
 3303SOL     OW 2313   3.743   2.230   2.509
 3303SOL    HW1 2314   3.661   2.273   2.548
 3303SOL    HW2 2315   3.715   2.157   2.446
 3312SOL     OW 2316   3.954   3.296   2.400
 3312SOL    HW1 2317   3.928   3.392   2.400
 3312SOL    HW2 2318   3.883   3.242   2.445
 3313SOL     OW 2319   3.964   2.953   2.748
 3313SOL    HW1 2320   3.978   2.869   2.800
 3313SOL    HW2 2321   3.909   3.017   2.803
 3316SOL     OW 2322   3.846   2.505   2.425
 3316SOL    HW1 2323   3.801   2.417   2.442
 3316SOL    HW2 2324   3.845   2.559   2.509
 3317SOL     OW 2325   3.751   3.458   1.979
 3317SOL    HW1 2326   3.732   3.362   2.000
 3317SOL    HW2 2327   3.718   3.516   2.054
 3318SOL     OW 2328   3.837   2.599   3.459
 3318SOL    HW1 2329   3.925   2.586   3.504
 3318SOL    HW2 2330   3.824   2.696   3.437
 3321SOL     OW 2331   3.921   2.838   3.126
 3321SOL    HW1 2332   4.010   2.793   3.112
 3321SOL    HW2 2333   3.848   2.773   3.107
 3328SOL     OW 2334   3.800   2.673   2.651
 3328SOL    HW1 2335   3.899   2.661   2.660
 3328SOL    HW2 2336   3.776   2.768   2.672
 3334SOL     OW 2337   4.045   2.805   2.104
 3334SOL    HW1 2338   4.127   2.844   2.062
 3334SOL    HW2 2339   4.018   2.723   2.055
 3340SOL     OW 2340   4.106   2.562   2.342
 3340SOL    HW1 2341   4.151   2.472   2.339
 3340SOL    HW2 2342   4.012   2.551   2.375
 3347SOL     OW 2343   4.021   1.897   2.033
 3347SOL    HW1 2344   4.070   1.981   2.012
 3347SOL    HW2 2345   4.083   1.832   2.078
 3352SOL     OW 2346   3.802   2.418   3.248
 3352SOL    HW1 2347   3.894   2.417   3.207
 3352SOL    HW2 2348   3.796   2.492   3.315
 3363SOL     OW 2349   4.091   2.962   2.363
 3363SOL    HW1 2350   4.084   3.045   2.307
 3363SOL    HW2 2351   4.095   2.882   2.303
 3371SOL     OW 2352   4.031   2.075   3.093
 3371SOL    HW1 2353   4.008   2.112   3.183
 3371SOL    HW2 2354   4.001   1.980   3.087
 3372SOL     OW 2355   3.761   3.172   3.144
 3372SOL    HW1 2356   3.814   3.123   3.212
 3372SOL    HW2 2357   3.783   3.270   3.149
 3374SOL     OW 2358   4.031   1.925   2.480
 3374SOL    HW1 2359   4.020   2.019   2.513
 3374SOL    HW2 2360   4.026   1.862   2.557
 3378SOL     OW 2361   4.043   2.672   2.811
 3378SOL    HW1 2362   4.136   2.708   2.816
 3378SOL    HW2 2363   4.037   2.587   2.863
 3379SOL     OW 2364   4.063   2.371   2.868
 3379SOL    HW1 2365   4.011   2.288   2.851
 3379SOL    HW2 2366   4.140   2.376   2.804
 3380SOL     OW 2367   3.732   3.188   2.062
 3380SOL    HW1 2368   3.639   3.209   2.031
 3380SOL    HW2 2369   3.742   3.089   2.075
 3384SOL     OW 2370   3.764   2.406   2.976
 3384SOL    HW1 2371   3.849   2.373   2.935
 3384SOL    HW2 2372   3.777   2.421   3.074
 3392SOL     OW 2373   3.807   3.120   2.884
 3392SOL    HW1 2374   3.802   3.119   2.984
 3392SOL    HW2 2375   3.724   3.079   2.846
 3398SOL     OW 2376   3.987   2.188   2.582
 3398SOL    HW1 2377   3.908   2.239   2.548
 3398SOL    HW2 2378   3.978   2.173   2.680
 3405SOL     OW 2379   3.979   3.210   2.152
 3405SOL    HW1 2380   3.883   3.211   2.125
 3405SOL    HW2 2381   3.991   3.263   2.236
 3408SOL     OW 2382   3.799   2.207   1.895
 3408SOL    HW1 2383   3.707   2.179   1.866
 3408SOL    HW2 2384   3.830   2.284   1.839
 3409SOL     OW 2385   3.796   2.028   2.180
 3409SOL    HW1 2386   3.779   2.111   2.126
 3409SOL    HW2 2387   3.886   1.991   2.158
 3419SOL     OW 2388   3.803   3.102   2.515
 3419SOL    HW1 2389   3.802   3.055   2.603
 3419SOL    HW2 2390   3.885   3.074   2.464
 3421SOL     OW 2391   4.152   2.286   2.382
 3421SOL    HW1 2392   4.182   2.214   2.320
 3421SOL    HW2 2393   4.113   2.246   2.465
 3422SOL     OW 2394   4.041   2.409   3.142
 3422SOL    HW1 2395   4.079   2.350   3.214
 3422SOL    HW2 2396   4.081   2.383   3.054
 3427SOL     OW 2397   3.763   2.939   2.162
 3427SOL    HW1 2398   3.862   2.928   2.153
 3427SOL    HW2 2399   3.723   2.853   2.194
   4.81571   4.81571   4.81571
