; mobley_6804509_GMX.itp created by acpype (v: 2023.10.27) on Thu May 21 00:24:27 2026

[ atomtypes ]
;name   bond_type     mass     charge   ptype   sigma         epsilon       Amb
 ca       ca          0.00000  0.00000   A     3.31521e-01   4.13379e-01 ; 1.86  0.0988
 cl       cl          0.00000  0.00000   A     3.46595e-01   1.10374e+00 ; 1.95  0.2638
 ha       ha          0.00000  0.00000   A     2.62548e-01   6.73624e-02 ; 1.47  0.0161

[ moleculetype ]
;name            nrexcl
 mobley_6804509   3

[ atoms ]
;   nr  type  resi  res  atom  cgnr     charge      mass       ; qtot   bond_type
     1   ca     1   MOL    C1    1    -0.108000     12.01000 ; qtot -0.108
     2   ca     1   MOL    C2    2    -0.108000     12.01000 ; qtot -0.216
     3   ca     1   MOL    C3    3     0.022400     12.01000 ; qtot -0.194
     4   ca     1   MOL    C4    4     0.022400     12.01000 ; qtot -0.171
     5   ca     1   MOL    C5    5     0.022400     12.01000 ; qtot -0.149
     6   ca     1   MOL    C6    6     0.022400     12.01000 ; qtot -0.126
     7   cl     1   MOL   CL1    7    -0.053400     35.45000 ; qtot -0.180
     8   cl     1   MOL   CL2    8    -0.053400     35.45000 ; qtot -0.233
     9   cl     1   MOL   CL3    9    -0.053400     35.45000 ; qtot -0.287
    10   cl     1   MOL   CL4   10    -0.053400     35.45000 ; qtot -0.340
    11   ha     1   MOL    H1   11     0.170000      1.00800 ; qtot -0.170
    12   ha     1   MOL    H2   12     0.170000      1.00800 ; qtot 0.000

[ bonds ]
;   ai     aj funct   r             k
     1      3   1    1.3986e-01    2.9644e+05 ;     C1 - C3    
     1      4   1    1.3986e-01    2.9644e+05 ;     C1 - C4    
     1     11   1    1.0860e-01    3.0183e+05 ;     C1 - H1    
     2      5   1    1.3986e-01    2.9644e+05 ;     C2 - C5    
     2      6   1    1.3986e-01    2.9644e+05 ;     C2 - C6    
     2     12   1    1.0860e-01    3.0183e+05 ;     C2 - H2    
     3      5   1    1.3986e-01    2.9644e+05 ;     C3 - C5    
     3      7   1    1.7572e-01    1.5730e+05 ;     C3 - CL1   
     4      6   1    1.3986e-01    2.9644e+05 ;     C4 - C6    
     4      8   1    1.7572e-01    1.5730e+05 ;     C4 - CL2   
     5      9   1    1.7572e-01    1.5730e+05 ;     C5 - CL3   
     6     10   1    1.7572e-01    1.5730e+05 ;     C6 - CL4   

[ pairs ]
;   ai     aj    funct
     1      2      1 ;     C1 - C2    
     1      9      1 ;     C1 - CL3   
     1     10      1 ;     C1 - CL4   
     2      7      1 ;     C2 - CL1   
     2      8      1 ;     C2 - CL2   
     3      6      1 ;     C3 - C6    
     3      8      1 ;     C3 - CL2   
     3     12      1 ;     C3 - H2    
     4      5      1 ;     C4 - C5    
     4      7      1 ;     C4 - CL1   
     4     12      1 ;     C4 - H2    
     5     10      1 ;     C5 - CL4   
     6      9      1 ;     C6 - CL3   
     7      9      1 ;    CL1 - CL3   
     8     10      1 ;    CL2 - CL4   
     9     12      1 ;    CL3 - H2    
    10     12      1 ;    CL4 - H2    
    11      5      1 ;     H1 - C5    
    11      6      1 ;     H1 - C6    
    11      7      1 ;     H1 - CL1   
    11      8      1 ;     H1 - CL2   

[ angles ]
;   ai     aj     ak    funct   theta         cth
     1      3      5      1    1.2002e+02    5.3279e+02 ;     C1 - C3     - C5    
     1      3      7      1    1.1938e+02    5.3605e+02 ;     C1 - C3     - CL1   
     1      4      6      1    1.2002e+02    5.3279e+02 ;     C1 - C4     - C6    
     1      4      8      1    1.1938e+02    5.3605e+02 ;     C1 - C4     - CL2   
     2      5      3      1    1.2002e+02    5.3279e+02 ;     C2 - C5     - C3    
     2      5      9      1    1.1938e+02    5.3605e+02 ;     C2 - C5     - CL3   
     2      6      4      1    1.2002e+02    5.3279e+02 ;     C2 - C6     - C4    
     2      6     10      1    1.1938e+02    5.3605e+02 ;     C2 - C6     - CL4   
     3      1      4      1    1.2002e+02    5.3279e+02 ;     C3 - C1     - C4    
     3      1     11      1    1.1988e+02    3.7572e+02 ;     C3 - C1     - H1    
     3      5      9      1    1.1938e+02    5.3605e+02 ;     C3 - C5     - CL3   
     4      1     11      1    1.1988e+02    3.7572e+02 ;     C4 - C1     - H1    
     4      6     10      1    1.1938e+02    5.3605e+02 ;     C4 - C6     - CL4   
     5      2      6      1    1.2002e+02    5.3279e+02 ;     C5 - C2     - C6    
     5      2     12      1    1.1988e+02    3.7572e+02 ;     C5 - C2     - H2    
     5      3      7      1    1.1938e+02    5.3605e+02 ;     C5 - C3     - CL1   
     6      2     12      1    1.1988e+02    3.7572e+02 ;     C6 - C2     - H2    
     6      4      8      1    1.1938e+02    5.3605e+02 ;     C6 - C4     - CL2   

[ dihedrals ] ; propers
; for gromacs 4.5 or higher, using funct 9
;    i      j      k      l   func   phase     kd      pn
     1      3      5      2      9   180.00  15.16700   2 ;     C1-    C3-    C5-    C2
     1      3      5      9      9   180.00  15.16700   2 ;     C1-    C3-    C5-   CL3
     1      4      6      2      9   180.00  15.16700   2 ;     C1-    C4-    C6-    C2
     1      4      6     10      9   180.00  15.16700   2 ;     C1-    C4-    C6-   CL4
     2      5      3      7      9   180.00  15.16700   2 ;     C2-    C5-    C3-   CL1
     2      6      4      8      9   180.00  15.16700   2 ;     C2-    C6-    C4-   CL2
     3      1      4      6      9   180.00  15.16700   2 ;     C3-    C1-    C4-    C6
     3      1      4      8      9   180.00  15.16700   2 ;     C3-    C1-    C4-   CL2
     3      5      2      6      9   180.00  15.16700   2 ;     C3-    C5-    C2-    C6
     3      5      2     12      9   180.00  15.16700   2 ;     C3-    C5-    C2-    H2
     4      1      3      5      9   180.00  15.16700   2 ;     C4-    C1-    C3-    C5
     4      1      3      7      9   180.00  15.16700   2 ;     C4-    C1-    C3-   CL1
     4      6      2      5      9   180.00  15.16700   2 ;     C4-    C6-    C2-    C5
     4      6      2     12      9   180.00  15.16700   2 ;     C4-    C6-    C2-    H2
     5      2      6     10      9   180.00  15.16700   2 ;     C5-    C2-    C6-   CL4
     6      2      5      9      9   180.00  15.16700   2 ;     C6-    C2-    C5-   CL3
     7      3      5      9      9   180.00  15.16700   2 ;    CL1-    C3-    C5-   CL3
     8      4      6     10      9   180.00  15.16700   2 ;    CL2-    C4-    C6-   CL4
     9      5      2     12      9   180.00  15.16700   2 ;    CL3-    C5-    C2-    H2
    10      6      2     12      9   180.00  15.16700   2 ;    CL4-    C6-    C2-    H2
    11      1      3      5      9   180.00  15.16700   2 ;     H1-    C1-    C3-    C5
    11      1      3      7      9   180.00  15.16700   2 ;     H1-    C1-    C3-   CL1
    11      1      4      6      9   180.00  15.16700   2 ;     H1-    C1-    C4-    C6
    11      1      4      8      9   180.00  15.16700   2 ;     H1-    C1-    C4-   CL2

[ dihedrals ] ; impropers
; treated as propers in GROMACS to use correct AMBER analytical function
;    i      j      k      l   func   phase     kd      pn
     1      5      3      7      4   180.00   4.60240   2 ;     C1-    C5-    C3-   CL1
     1      6      4      8      4   180.00   4.60240   2 ;     C1-    C6-    C4-   CL2
     2      3      5      9      4   180.00   4.60240   2 ;     C2-    C3-    C5-   CL3
     2      4      6     10      4   180.00   4.60240   2 ;     C2-    C4-    C6-   CL4
     5      6      2     12      4   180.00   4.60240   2 ;     C5-    C6-    C2-    H2
    11      1      4      3      4   180.00   4.60240   2 ;     H1-    C1-    C4-    C3
