; mobley_664966_GMX.top created by acpype (v: 2023.10.27) on Thu May 21 00:12:33 2026

[ defaults ]
; nbfunc        comb-rule       gen-pairs       fudgeLJ fudgeQQ
1               2               yes             0.5     0.8333333333

; Include mobley_664966_GMX.itp topology
#include "mobley_664966_GMX.itp"

; Ligand position restraints
#ifdef POSRES_LIG
#include "posre_mobley_664966.itp"
#endif


#include "/home/carla/github/Solvation-openMM/DADES/common/SOL.TIP3P.itp"

[ system ]
mobley_664966 in water

[ molecules ]
; Compound        nmols
 mobley_664966    1     
SOL 805
