; mobley_5510474_GMX.itp created by acpype (v: 2023.10.27) on Thu May 21 00:15:07 2026

[ atomtypes ]
;name   bond_type     mass     charge   ptype   sigma         epsilon       Amb
 ca       ca          0.00000  0.00000   A     3.31521e-01   4.13379e-01 ; 1.86  0.0988
 os       os          0.00000  0.00000   A     3.15610e-01   3.03758e-01 ; 1.77  0.0726
 cl       cl          0.00000  0.00000   A     3.46595e-01   1.10374e+00 ; 1.95  0.2638
 ha       ha          0.00000  0.00000   A     2.62548e-01   6.73624e-02 ; 1.47  0.0161

[ moleculetype ]
;name            nrexcl
 mobley_5510474   3

[ atoms ]
;   nr  type  resi  res  atom  cgnr     charge      mass       ; qtot   bond_type
     1   ca     1   MOL    C1    1    -0.123000     12.01000 ; qtot -0.123
     2   ca     1   MOL    C2    2    -0.123000     12.01000 ; qtot -0.246
     3   ca     1   MOL    C3    3    -0.174300     12.01000 ; qtot -0.420
     4   ca     1   MOL    C4    4    -0.174300     12.01000 ; qtot -0.595
     5   ca     1   MOL    C5    5     0.207700     12.01000 ; qtot -0.387
     6   ca     1   MOL    C6    6     0.207700     12.01000 ; qtot -0.179
     7   ca     1   MOL    C7    7     0.234700     12.01000 ; qtot 0.055
     8   ca     1   MOL    C8    8     0.234700     12.01000 ; qtot 0.290
     9   ca     1   MOL    C9    9    -0.038900     12.01000 ; qtot 0.251
    10   ca     1   MOL   C10   10    -0.038900     12.01000 ; qtot 0.212
    11   ca     1   MOL   C11   11     0.020400     12.01000 ; qtot 0.233
    12   ca     1   MOL   C12   12     0.020400     12.01000 ; qtot 0.253
    13   os     1   MOL    O1   13    -0.374800     16.00000 ; qtot -0.122
    14   os     1   MOL    O2   14    -0.374800     16.00000 ; qtot -0.496
    15   cl     1   MOL   CL1   15    -0.024400     35.45000 ; qtot -0.521
    16   cl     1   MOL   CL2   16    -0.024400     35.45000 ; qtot -0.545
    17   cl     1   MOL   CL3   17    -0.031400     35.45000 ; qtot -0.577
    18   cl     1   MOL   CL4   18    -0.031400     35.45000 ; qtot -0.608
    19   ha     1   MOL    H1   19     0.144000      1.00800 ; qtot -0.464
    20   ha     1   MOL    H2   20     0.144000      1.00800 ; qtot -0.320
    21   ha     1   MOL    H3   21     0.160000      1.00800 ; qtot -0.160
    22   ha     1   MOL    H4   22     0.160000      1.00800 ; qtot 0.000

[ bonds ]
;   ai     aj funct   r             k
     1      2   1    1.3986e-01    2.9644e+05 ;     C1 - C2    
     1      3   1    1.3986e-01    2.9644e+05 ;     C1 - C3    
     1     19   1    1.0860e-01    3.0183e+05 ;     C1 - H1    
     2      4   1    1.3986e-01    2.9644e+05 ;     C2 - C4    
     2     20   1    1.0860e-01    3.0183e+05 ;     C2 - H2    
     3      5   1    1.3986e-01    2.9644e+05 ;     C3 - C5    
     3     21   1    1.0860e-01    3.0183e+05 ;     C3 - H3    
     4      6   1    1.3986e-01    2.9644e+05 ;     C4 - C6    
     4     22   1    1.0860e-01    3.0183e+05 ;     C4 - H4    
     5      6   1    1.3986e-01    2.9644e+05 ;     C5 - C6    
     5     13   1    1.3688e-01    2.8731e+05 ;     C5 - O1    
     6     14   1    1.3688e-01    2.8731e+05 ;     C6 - O2    
     7      8   1    1.3986e-01    2.9644e+05 ;     C7 - C8    
     7      9   1    1.3986e-01    2.9644e+05 ;     C7 - C9    
     7     13   1    1.3688e-01    2.8731e+05 ;     C7 - O1    
     8     10   1    1.3986e-01    2.9644e+05 ;     C8 - C10   
     8     14   1    1.3688e-01    2.8731e+05 ;     C8 - O2    
     9     11   1    1.3986e-01    2.9644e+05 ;     C9 - C11   
     9     15   1    1.7572e-01    1.5730e+05 ;     C9 - CL1   
    10     12   1    1.3986e-01    2.9644e+05 ;    C10 - C12   
    10     16   1    1.7572e-01    1.5730e+05 ;    C10 - CL2   
    11     12   1    1.3986e-01    2.9644e+05 ;    C11 - C12   
    11     17   1    1.7572e-01    1.5730e+05 ;    C11 - CL3   
    12     18   1    1.7572e-01    1.5730e+05 ;    C12 - CL4   

[ pairs ]
;   ai     aj    funct
     1      6      1 ;     C1 - C6    
     1     13      1 ;     C1 - O1    
     1     22      1 ;     C1 - H4    
     2      5      1 ;     C2 - C5    
     2     14      1 ;     C2 - O2    
     2     21      1 ;     C2 - H3    
     3      4      1 ;     C3 - C4    
     3      7      1 ;     C3 - C7    
     3     14      1 ;     C3 - O2    
     3     20      1 ;     C3 - H2    
     4      8      1 ;     C4 - C8    
     4     13      1 ;     C4 - O1    
     5      8      1 ;     C5 - C8    
     5      9      1 ;     C5 - C9    
     5     22      1 ;     C5 - H4    
     6      7      1 ;     C6 - C7    
     6     10      1 ;     C6 - C10   
     6     20      1 ;     C6 - H2    
     6     21      1 ;     C6 - H3    
     7     12      1 ;     C7 - C12   
     7     16      1 ;     C7 - CL2   
     7     17      1 ;     C7 - CL3   
     8     11      1 ;     C8 - C11   
     8     15      1 ;     C8 - CL1   
     8     18      1 ;     C8 - CL4   
     9     10      1 ;     C9 - C10   
     9     14      1 ;     C9 - O2    
     9     18      1 ;     C9 - CL4   
    10     13      1 ;    C10 - O1    
    10     17      1 ;    C10 - CL3   
    11     13      1 ;    C11 - O1    
    11     16      1 ;    C11 - CL2   
    12     14      1 ;    C12 - O2    
    12     15      1 ;    C12 - CL1   
    13     14      1 ;     O1 - O2    
    13     15      1 ;     O1 - CL1   
    13     21      1 ;     O1 - H3    
    14     16      1 ;     O2 - CL2   
    14     22      1 ;     O2 - H4    
    15     17      1 ;    CL1 - CL3   
    16     18      1 ;    CL2 - CL4   
    17     18      1 ;    CL3 - CL4   
    19      4      1 ;     H1 - C4    
    19      5      1 ;     H1 - C5    
    19     20      1 ;     H1 - H2    
    19     21      1 ;     H1 - H3    
    20     22      1 ;     H2 - H4    

[ angles ]
;   ai     aj     ak    funct   theta         cth
     1      2      4      1    1.2002e+02    5.3279e+02 ;     C1 - C2     - C4    
     1      2     20      1    1.1988e+02    3.7572e+02 ;     C1 - C2     - H2    
     1      3      5      1    1.2002e+02    5.3279e+02 ;     C1 - C3     - C5    
     1      3     21      1    1.1988e+02    3.7572e+02 ;     C1 - C3     - H3    
     2      1      3      1    1.2002e+02    5.3279e+02 ;     C2 - C1     - C3    
     2      1     19      1    1.1988e+02    3.7572e+02 ;     C2 - C1     - H1    
     2      4      6      1    1.2002e+02    5.3279e+02 ;     C2 - C4     - C6    
     2      4     22      1    1.1988e+02    3.7572e+02 ;     C2 - C4     - H4    
     3      1     19      1    1.1988e+02    3.7572e+02 ;     C3 - C1     - H1    
     3      5      6      1    1.2002e+02    5.3279e+02 ;     C3 - C5     - C6    
     3      5     13      1    1.1911e+02    6.6107e+02 ;     C3 - C5     - O1    
     4      2     20      1    1.1988e+02    3.7572e+02 ;     C4 - C2     - H2    
     4      6      5      1    1.2002e+02    5.3279e+02 ;     C4 - C6     - C5    
     4      6     14      1    1.1911e+02    6.6107e+02 ;     C4 - C6     - O2    
     5      3     21      1    1.1988e+02    3.7572e+02 ;     C5 - C3     - H3    
     5      6     14      1    1.1911e+02    6.6107e+02 ;     C5 - C6     - O2    
     5     13      7      1    1.1987e+02    7.5036e+02 ;     C5 - O1     - C7    
     6      4     22      1    1.1988e+02    3.7572e+02 ;     C6 - C4     - H4    
     6      5     13      1    1.1911e+02    6.6107e+02 ;     C6 - C5     - O1    
     6     14      8      1    1.1987e+02    7.5036e+02 ;     C6 - O2     - C8    
     7      8     10      1    1.2002e+02    5.3279e+02 ;     C7 - C8     - C10   
     7      8     14      1    1.1911e+02    6.6107e+02 ;     C7 - C8     - O2    
     7      9     11      1    1.2002e+02    5.3279e+02 ;     C7 - C9     - C11   
     7      9     15      1    1.1938e+02    5.3605e+02 ;     C7 - C9     - CL1   
     8      7      9      1    1.2002e+02    5.3279e+02 ;     C8 - C7     - C9    
     8      7     13      1    1.1911e+02    6.6107e+02 ;     C8 - C7     - O1    
     8     10     12      1    1.2002e+02    5.3279e+02 ;     C8 - C10    - C12   
     8     10     16      1    1.1938e+02    5.3605e+02 ;     C8 - C10    - CL2   
     9      7     13      1    1.1911e+02    6.6107e+02 ;     C9 - C7     - O1    
     9     11     12      1    1.2002e+02    5.3279e+02 ;     C9 - C11    - C12   
     9     11     17      1    1.1938e+02    5.3605e+02 ;     C9 - C11    - CL3   
    10      8     14      1    1.1911e+02    6.6107e+02 ;    C10 - C8     - O2    
    10     12     11      1    1.2002e+02    5.3279e+02 ;    C10 - C12    - C11   
    10     12     18      1    1.1938e+02    5.3605e+02 ;    C10 - C12    - CL4   
    11      9     15      1    1.1938e+02    5.3605e+02 ;    C11 - C9     - CL1   
    11     12     18      1    1.1938e+02    5.3605e+02 ;    C11 - C12    - CL4   
    12     10     16      1    1.1938e+02    5.3605e+02 ;    C12 - C10    - CL2   
    12     11     17      1    1.1938e+02    5.3605e+02 ;    C12 - C11    - CL3   

[ dihedrals ] ; propers
; for gromacs 4.5 or higher, using funct 9
;    i      j      k      l   func   phase     kd      pn
     1      2      4      6      9   180.00  15.16700   2 ;     C1-    C2-    C4-    C6
     1      2      4     22      9   180.00  15.16700   2 ;     C1-    C2-    C4-    H4
     1      3      5      6      9   180.00  15.16700   2 ;     C1-    C3-    C5-    C6
     1      3      5     13      9   180.00  15.16700   2 ;     C1-    C3-    C5-    O1
     2      1      3      5      9   180.00  15.16700   2 ;     C2-    C1-    C3-    C5
     2      1      3     21      9   180.00  15.16700   2 ;     C2-    C1-    C3-    H3
     2      4      6      5      9   180.00  15.16700   2 ;     C2-    C4-    C6-    C5
     2      4      6     14      9   180.00  15.16700   2 ;     C2-    C4-    C6-    O2
     3      1      2      4      9   180.00  15.16700   2 ;     C3-    C1-    C2-    C4
     3      1      2     20      9   180.00  15.16700   2 ;     C3-    C1-    C2-    H2
     3      5      6      4      9   180.00  15.16700   2 ;     C3-    C5-    C6-    C4
     3      5      6     14      9   180.00  15.16700   2 ;     C3-    C5-    C6-    O2
     3      5     13      7      9   180.00   3.76560   2 ;     C3-    C5-    O1-    C7
     4      6      5     13      9   180.00  15.16700   2 ;     C4-    C6-    C5-    O1
     4      6     14      8      9   180.00   3.76560   2 ;     C4-    C6-    O2-    C8
     5      6      4     22      9   180.00  15.16700   2 ;     C5-    C6-    C4-    H4
     5      6     14      8      9   180.00   3.76560   2 ;     C5-    C6-    O2-    C8
     5     13      7      8      9   180.00   3.76560   2 ;     C5-    O1-    C7-    C8
     5     13      7      9      9   180.00   3.76560   2 ;     C5-    O1-    C7-    C9
     6      4      2     20      9   180.00  15.16700   2 ;     C6-    C4-    C2-    H2
     6      5      3     21      9   180.00  15.16700   2 ;     C6-    C5-    C3-    H3
     6      5     13      7      9   180.00   3.76560   2 ;     C6-    C5-    O1-    C7
     6     14      8      7      9   180.00   3.76560   2 ;     C6-    O2-    C8-    C7
     6     14      8     10      9   180.00   3.76560   2 ;     C6-    O2-    C8-   C10
     7      8     10     12      9   180.00  15.16700   2 ;     C7-    C8-   C10-   C12
     7      8     10     16      9   180.00  15.16700   2 ;     C7-    C8-   C10-   CL2
     7      9     11     12      9   180.00  15.16700   2 ;     C7-    C9-   C11-   C12
     7      9     11     17      9   180.00  15.16700   2 ;     C7-    C9-   C11-   CL3
     8      7      9     11      9   180.00  15.16700   2 ;     C8-    C7-    C9-   C11
     8      7      9     15      9   180.00  15.16700   2 ;     C8-    C7-    C9-   CL1
     8     10     12     11      9   180.00  15.16700   2 ;     C8-   C10-   C12-   C11
     8     10     12     18      9   180.00  15.16700   2 ;     C8-   C10-   C12-   CL4
     9      7      8     10      9   180.00  15.16700   2 ;     C9-    C7-    C8-   C10
     9      7      8     14      9   180.00  15.16700   2 ;     C9-    C7-    C8-    O2
     9     11     12     10      9   180.00  15.16700   2 ;     C9-   C11-   C12-   C10
     9     11     12     18      9   180.00  15.16700   2 ;     C9-   C11-   C12-   CL4
    10      8      7     13      9   180.00  15.16700   2 ;    C10-    C8-    C7-    O1
    10     12     11     17      9   180.00  15.16700   2 ;    C10-   C12-   C11-   CL3
    11      9      7     13      9   180.00  15.16700   2 ;    C11-    C9-    C7-    O1
    11     12     10     16      9   180.00  15.16700   2 ;    C11-   C12-   C10-   CL2
    12     10      8     14      9   180.00  15.16700   2 ;    C12-   C10-    C8-    O2
    12     11      9     15      9   180.00  15.16700   2 ;    C12-   C11-    C9-   CL1
    13      5      3     21      9   180.00  15.16700   2 ;     O1-    C5-    C3-    H3
    13      5      6     14      9   180.00  15.16700   2 ;     O1-    C5-    C6-    O2
    13      7      8     14      9   180.00  15.16700   2 ;     O1-    C7-    C8-    O2
    13      7      9     15      9   180.00  15.16700   2 ;     O1-    C7-    C9-   CL1
    14      6      4     22      9   180.00  15.16700   2 ;     O2-    C6-    C4-    H4
    14      8     10     16      9   180.00  15.16700   2 ;     O2-    C8-   C10-   CL2
    15      9     11     17      9   180.00  15.16700   2 ;    CL1-    C9-   C11-   CL3
    16     10     12     18      9   180.00  15.16700   2 ;    CL2-   C10-   C12-   CL4
    17     11     12     18      9   180.00  15.16700   2 ;    CL3-   C11-   C12-   CL4
    19      1      2      4      9   180.00  15.16700   2 ;     H1-    C1-    C2-    C4
    19      1      2     20      9   180.00  15.16700   2 ;     H1-    C1-    C2-    H2
    19      1      3      5      9   180.00  15.16700   2 ;     H1-    C1-    C3-    C5
    19      1      3     21      9   180.00  15.16700   2 ;     H1-    C1-    C3-    H3
    20      2      4     22      9   180.00  15.16700   2 ;     H2-    C2-    C4-    H4

[ dihedrals ] ; impropers
; treated as propers in GROMACS to use correct AMBER analytical function
;    i      j      k      l   func   phase     kd      pn
     1      4      2     20      4   180.00   4.60240   2 ;     C1-    C4-    C2-    H2
     1      5      3     21      4   180.00   4.60240   2 ;     C1-    C5-    C3-    H3
     2      6      4     22      4   180.00   4.60240   2 ;     C2-    C6-    C4-    H4
     3      6      5     13      4   180.00   4.60240   2 ;     C3-    C6-    C5-    O1
     4      5      6     14      4   180.00   4.60240   2 ;     C4-    C5-    C6-    O2
     7     10      8     14      4   180.00   4.60240   2 ;     C7-   C10-    C8-    O2
     7     11      9     15      4   180.00   4.60240   2 ;     C7-   C11-    C9-   CL1
     8      9      7     13      4   180.00   4.60240   2 ;     C8-    C9-    C7-    O1
     8     12     10     16      4   180.00   4.60240   2 ;     C8-   C12-   C10-   CL2
     9     12     11     17      4   180.00   4.60240   2 ;     C9-   C12-   C11-   CL3
    10     11     12     18      4   180.00   4.60240   2 ;    C10-   C11-   C12-   CL4
    19      1      3      2      4   180.00   4.60240   2 ;     H1-    C1-    C3-    C2
