mobley_4759887_GMX.gro created by acpype (v: 2023.10.27) on Tue May 19 12:47:26 2026
 2408
    1MOL     C1    1   2.332   2.175   2.553
    1MOL     C2    2   2.451   2.267   2.577
    1MOL     C3    3   2.433   2.407   2.518
    1MOL     C4    4   2.556   2.497   2.536
    1MOL     C5    5   2.531   2.636   2.479
    1MOL     C6    6   2.655   2.725   2.494
    1MOL     C7    7   2.628   2.866   2.441
    1MOL     I1    8   2.803   2.988   2.459
    1MOL     H1    9   2.243   2.209   2.607
    1MOL     H2   10   2.307   2.169   2.446
    1MOL     H3   11   2.355   2.074   2.588
    1MOL     H4   12   2.540   2.221   2.531
    1MOL     H5   13   2.471   2.273   2.684
    1MOL     H6   14   2.345   2.455   2.564
    1MOL     H7   15   2.411   2.397   2.411
    1MOL     H8   16   2.642   2.451   2.486
    1MOL     H9   17   2.580   2.505   2.643
    1MOL    H10   18   2.446   2.683   2.531
    1MOL    H11   19   2.504   2.629   2.373
    1MOL    H12   20   2.739   2.680   2.440
    1MOL    H13   21   2.683   2.730   2.600
    1MOL    H14   22   2.546   2.912   2.496
    1MOL    H15   23   2.598   2.861   2.335
   35SOL     OW   24   1.187   1.792   1.616
   35SOL    HW1   25   1.211   1.852   1.540
   35SOL    HW2   26   1.194   1.697   1.586
   95SOL     OW   27   1.754   1.223   1.588
   95SOL    HW1   28   1.845   1.184   1.575
   95SOL    HW2   29   1.762   1.319   1.612
   97SOL     OW   30   1.592   1.629   1.625
   97SOL    HW1   31   1.619   1.663   1.535
   97SOL    HW2   32   1.671   1.591   1.671
  127SOL     OW   33   1.859   1.518   1.605
  127SOL    HW1   34   1.873   1.545   1.510
  127SOL    HW2   35   1.942   1.540   1.658
  152SOL     OW   36   1.759   1.747   1.154
  152SOL    HW1   37   1.820   1.777   1.081
  152SOL    HW2   38   1.721   1.658   1.132
  163SOL     OW   39   1.650   1.720   1.394
  163SOL    HW1   40   1.703   1.730   1.310
  163SOL    HW2   41   1.623   1.810   1.428
  219SOL     OW   42   1.555   1.511   2.565
  219SOL    HW1   43   1.498   1.495   2.646
  219SOL    HW2   44   1.496   1.521   2.485
  227SOL     OW   45   1.460   1.505   3.201
  227SOL    HW1   46   1.484   1.599   3.227
  227SOL    HW2   47   1.444   1.451   3.283
  238SOL     OW   48   1.842   1.767   2.221
  238SOL    HW1   49   1.896   1.738   2.301
  238SOL    HW2   50   1.872   1.857   2.192
  240SOL     OW   51   1.689   0.922   2.474
  240SOL    HW1   52   1.784   0.893   2.482
  240SOL    HW2   53   1.681   0.987   2.399
  241SOL     OW   54   1.641   1.108   2.294
  241SOL    HW1   55   1.727   1.110   2.242
  241SOL    HW2   56   1.655   1.155   2.382
  248SOL     OW   57   1.187   1.792   3.478
  248SOL    HW1   58   1.211   1.852   3.402
  248SOL    HW2   59   1.194   1.697   3.448
  250SOL     OW   60   1.466   1.417   2.815
  250SOL    HW1   61   1.407   1.423   2.895
  250SOL    HW2   62   1.451   1.329   2.769
  251SOL     OW   63   1.667   1.714   2.434
  251SOL    HW1   64   1.626   1.691   2.346
  251SOL    HW2   65   1.649   1.640   2.499
  254SOL     OW   66   1.576   1.662   2.169
  254SOL    HW1   67   1.665   1.708   2.172
  254SOL    HW2   68   1.555   1.638   2.074
  264SOL     OW   69   1.362   1.144   2.407
  264SOL    HW1   70   1.445   1.115   2.359
  264SOL    HW2   71   1.313   1.211   2.351
  268SOL     OW   72   1.795   1.066   2.735
  268SOL    HW1   73   1.733   1.051   2.659
  268SOL    HW2   74   1.743   1.077   2.820
  273SOL     OW   75   1.111   1.776   2.099
  273SOL    HW1   76   1.051   1.714   2.149
  273SOL    HW2   77   1.142   1.732   2.014
  275SOL     OW   78   1.632   1.377   1.943
  275SOL    HW1   79   1.600   1.471   1.933
  275SOL    HW2   80   1.556   1.314   1.931
  279SOL     OW   81   0.940   1.698   2.766
  279SOL    HW1   82   1.020   1.641   2.787
  279SOL    HW2   83   0.891   1.658   2.689
  293SOL     OW   84   1.227   1.570   2.655
  293SOL    HW1   85   1.248   1.644   2.590
  293SOL    HW2   86   1.295   1.570   2.728
  295SOL     OW   87   1.271   1.797   2.453
  295SOL    HW1   88   1.315   1.861   2.389
  295SOL    HW2   89   1.221   1.849   2.523
  301SOL     OW   90   1.429   1.173   2.729
  301SOL    HW1   91   1.374   1.089   2.722
  301SOL    HW2   92   1.455   1.202   2.637
  305SOL     OW   93   1.664   1.280   2.519
  305SOL    HW1   94   1.763   1.288   2.533
  305SOL    HW2   95   1.619   1.364   2.550
  308SOL     OW   96   1.754   1.223   3.450
  308SOL    HW1   97   1.845   1.184   3.437
  308SOL    HW2   98   1.762   1.319   3.474
  310SOL     OW   99   1.592   1.629   3.487
  310SOL    HW1  100   1.619   1.663   3.397
  310SOL    HW2  101   1.671   1.591   3.533
  312SOL     OW  102   1.638   1.099   2.941
  312SOL    HW1  103   1.643   1.180   3.000
  312SOL    HW2  104   1.552   1.101   2.890
  321SOL     OW  105   1.252   1.348   2.250
  321SOL    HW1  106   1.302   1.425   2.290
  321SOL    HW2  107   1.157   1.350   2.282
  322SOL     OW  108   1.272   1.445   3.004
  322SOL    HW1  109   1.319   1.458   3.091
  322SOL    HW2  110   1.206   1.371   3.013
  340SOL     OW  111   1.859   1.518   3.467
  340SOL    HW1  112   1.873   1.545   3.372
  340SOL    HW2  113   1.942   1.540   3.520
  365SOL     OW  114   1.759   1.747   3.016
  365SOL    HW1  115   1.820   1.777   2.943
  365SOL    HW2  116   1.721   1.658   2.994
  366SOL     OW  117   1.252   1.731   2.990
  366SOL    HW1  118   1.336   1.736   2.936
  366SOL    HW2  119   1.229   1.635   3.008
  370SOL     OW  120   1.388   1.573   2.339
  370SOL    HW1  121   1.455   1.585   2.265
  370SOL    HW2  122   1.348   1.662   2.362
  375SOL     OW  123   1.650   1.720   3.256
  375SOL    HW1  124   1.703   1.730   3.172
  375SOL    HW2  125   1.623   1.810   3.290
  378SOL     OW  126   1.194   1.612   1.893
  378SOL    HW1  127   1.200   1.519   1.930
  378SOL    HW2  128   1.135   1.612   1.813
  381SOL     OW  129   1.504   1.607   1.906
  381SOL    HW1  130   1.412   1.644   1.913
  381SOL    HW2  131   1.542   1.627   1.816
  383SOL     OW  132   1.614   1.292   3.151
  383SOL    HW1  133   1.674   1.295   3.231
  383SOL    HW2  134   1.539   1.356   3.164
  396SOL     OW  135   1.493   1.767   2.821
  396SOL    HW1  136   1.526   1.831   2.752
  396SOL    HW2  137   1.559   1.761   2.896
  409SOL     OW  138   1.861   1.569   2.713
  409SOL    HW1  139   1.790   1.557   2.643
  409SOL    HW2  140   1.862   1.490   2.773
  415SOL     OW  141   1.705   1.487   2.966
  415SOL    HW1  142   1.612   1.462   2.939
  415SOL    HW2  143   1.731   1.437   3.048
  589SOL     OW  144   1.460   3.367   1.339
  589SOL    HW1  145   1.484   3.461   1.365
  589SOL    HW2  146   1.444   3.313   1.421
  593SOL     OW  147   1.127   3.203   1.690
  593SOL    HW1  148   1.174   3.203   1.778
  593SOL    HW2  149   1.079   3.116   1.679
  598SOL     OW  150   1.594   1.976   1.480
  598SOL    HW1  151   1.576   2.043   1.408
  598SOL    HW2  152   1.591   2.022   1.569
  606SOL     OW  153   1.293   3.090   1.423
  606SOL    HW1  154   1.330   3.017   1.365
  606SOL    HW2  155   1.345   3.095   1.508
  618SOL     OW  156   1.394   2.331   1.674
  618SOL    HW1  157   1.374   2.374   1.762
  618SOL    HW2  158   1.472   2.269   1.683
  625SOL     OW  159   1.719   2.447   1.831
  625SOL    HW1  160   1.693   2.536   1.795
  625SOL    HW2  161   1.717   2.379   1.758
  643SOL     OW  162   1.547   2.084   1.729
  643SOL    HW1  163   1.542   2.121   1.821
  643SOL    HW2  164   1.475   2.015   1.717
  647SOL     OW  165   1.351   2.452   1.433
  647SOL    HW1  166   1.379   2.409   1.518
  647SOL    HW2  167   1.376   2.548   1.434
  654SOL     OW  168   1.076   2.545   1.464
  654SOL    HW1  169   0.996   2.484   1.467
  654SOL    HW2  170   1.157   2.492   1.440
  670SOL     OW  171   1.754   3.085   1.588
  670SOL    HW1  172   1.845   3.046   1.575
  670SOL    HW2  173   1.762   3.181   1.612
  672SOL     OW  174   1.592   3.491   1.625
  672SOL    HW1  175   1.619   3.525   1.535
  672SOL    HW2  176   1.671   3.453   1.671
  674SOL     OW  177   1.638   2.961   1.079
  674SOL    HW1  178   1.643   3.042   1.138
  674SOL    HW2  179   1.552   2.963   1.028
  676SOL     OW  180   0.980   2.978   1.719
  676SOL    HW1  181   0.881   2.984   1.729
  676SOL    HW2  182   1.003   2.898   1.663
  679SOL     OW  183   1.274   2.248   1.262
  679SOL    HW1  184   1.295   2.322   1.326
  679SOL    HW2  185   1.185   2.265   1.219
  688SOL     OW  186   1.587   2.641   1.670
  688SOL    HW1  187   1.495   2.679   1.665
  688SOL    HW2  188   1.647   2.688   1.605
  689SOL     OW  189   1.013   1.967   1.770
  689SOL    HW1  190   1.019   2.052   1.718
  689SOL    HW2  191   1.045   1.891   1.713
  697SOL     OW  192   1.728   2.797   1.854
  697SOL    HW1  193   1.682   2.790   1.765
  697SOL    HW2  194   1.666   2.841   1.920
  702SOL     OW  195   1.859   3.380   1.605
  702SOL    HW1  196   1.873   3.407   1.510
  702SOL    HW2  197   1.942   3.402   1.658
  709SOL     OW  198   1.138   2.242   1.678
  709SOL    HW1  199   1.093   2.305   1.742
  709SOL    HW2  200   1.231   2.273   1.661
  710SOL     OW  201   1.160   2.069   1.477
  710SOL    HW1  202   1.160   2.133   1.554
  710SOL    HW2  203   1.188   2.117   1.394
  717SOL     OW  204   1.369   2.812   1.660
  717SOL    HW1  205   1.408   2.901   1.680
  717SOL    HW2  206   1.379   2.792   1.563
  719SOL     OW  207   1.657   2.466   1.206
  719SOL    HW1  208   1.619   2.397   1.268
  719SOL    HW2  209   1.739   2.430   1.162
  725SOL     OW  210   1.347   2.921   1.234
  725SOL    HW1  211   1.371   2.858   1.160
  725SOL    HW2  212   1.257   2.961   1.216
  738SOL     OW  213   1.650   3.582   1.394
  738SOL    HW1  214   1.703   3.592   1.310
  738SOL    HW2  215   1.623   3.672   1.428
  739SOL     OW  216   1.841   2.037   0.963
  739SOL    HW1  217   1.880   1.952   0.927
  739SOL    HW2  218   1.743   2.039   0.944
  746SOL     OW  219   1.614   3.154   1.289
  746SOL    HW1  220   1.674   3.157   1.369
  746SOL    HW2  221   1.539   3.218   1.302
  750SOL     OW  222   1.709   2.247   1.381
  750SOL    HW1  223   1.782   2.316   1.385
  750SOL    HW2  224   1.737   2.172   1.322
  755SOL     OW  225   1.440   2.718   1.398
  755SOL    HW1  226   1.383   2.770   1.335
  755SOL    HW2  227   1.536   2.730   1.374
  761SOL     OW  228   1.450   3.082   1.633
  761SOL    HW1  229   1.441   3.072   1.732
  761SOL    HW2  230   1.546   3.075   1.607
  763SOL     OW  231   1.674   2.745   1.254
  763SOL    HW1  232   1.647   2.656   1.217
  763SOL    HW2  233   1.675   2.813   1.181
  766SOL     OW  234   1.777   2.204   1.642
  766SOL    HW1  235   1.760   2.235   1.548
  766SOL    HW2  236   1.693   2.167   1.680
  767SOL     OW  237   1.730   2.796   1.517
  767SOL    HW1  238   1.768   2.887   1.532
  767SOL    HW2  239   1.722   2.779   1.418
  776SOL     OW  240   1.824   2.054   1.227
  776SOL    HW1  241   1.820   1.964   1.271
  776SOL    HW2  242   1.827   2.043   1.128
  794SOL     OW  243   1.555   3.373   2.565
  794SOL    HW1  244   1.498   3.357   2.646
  794SOL    HW2  245   1.496   3.383   2.485
  795SOL     OW  246   1.135   2.565   2.579
  795SOL    HW1  247   1.192   2.643   2.554
  795SOL    HW2  248   1.075   2.591   2.655
  796SOL     OW  249   1.755   2.469   2.093
  796SOL    HW1  250   1.743   2.456   1.994
  796SOL    HW2  251   1.725   2.388   2.142
  802SOL     OW  252   1.460   3.367   3.201
  802SOL    HW1  253   1.484   3.461   3.227
  802SOL    HW2  254   1.444   3.313   3.283
  804SOL     OW  255   1.603   2.309   2.599
  804SOL    HW1  256   1.529   2.355   2.549
  804SOL    HW2  257   1.654   2.377   2.652
  811SOL     OW  258   1.594   1.976   3.342
  811SOL    HW1  259   1.576   2.043   3.270
  811SOL    HW2  260   1.591   2.022   3.431
  813SOL     OW  261   1.842   3.629   2.221
  813SOL    HW1  262   1.896   3.600   2.301
  813SOL    HW2  263   1.872   3.719   2.192
  815SOL     OW  264   1.689   2.784   2.474
  815SOL    HW1  265   1.784   2.755   2.482
  815SOL    HW2  266   1.681   2.849   2.399
  816SOL     OW  267   1.641   2.970   2.294
  816SOL    HW1  268   1.727   2.972   2.242
  816SOL    HW2  269   1.655   3.017   2.382
  819SOL     OW  270   1.293   3.090   3.285
  819SOL    HW1  271   1.330   3.017   3.227
  819SOL    HW2  272   1.345   3.095   3.370
  822SOL     OW  273   1.525   2.861   2.052
  822SOL    HW1  274   1.462   2.785   2.065
  822SOL    HW2  275   1.573   2.879   2.138
  825SOL     OW  276   1.466   3.279   2.815
  825SOL    HW1  277   1.407   3.285   2.895
  825SOL    HW2  278   1.451   3.191   2.769
  826SOL     OW  279   1.667   3.576   2.434
  826SOL    HW1  280   1.626   3.553   2.346
  826SOL    HW2  281   1.649   3.502   2.499
  828SOL     OW  282   1.281   2.207   2.806
  828SOL    HW1  283   1.195   2.157   2.793
  828SOL    HW2  284   1.343   2.153   2.862
  829SOL     OW  285   1.576   3.524   2.169
  829SOL    HW1  286   1.665   3.570   2.172
  829SOL    HW2  287   1.555   3.500   2.074
  831SOL     OW  288   1.394   2.331   3.536
  831SOL    HW1  289   1.374   2.374   3.624
  831SOL    HW2  290   1.472   2.269   3.545
  833SOL     OW  291   0.991   2.272   3.104
  833SOL    HW1  292   0.914   2.306   3.158
  833SOL    HW2  293   0.957   2.221   3.025
  834SOL     OW  294   1.041   2.563   2.291
  834SOL    HW1  295   1.067   2.559   2.387
  834SOL    HW2  296   0.956   2.512   2.277
  837SOL     OW  297   0.865   2.210   2.057
  837SOL    HW1  298   0.924   2.273   2.008
  837SOL    HW2  299   0.884   2.116   2.028
  838SOL     OW  300   1.719   2.447   3.693
  838SOL    HW1  301   1.693   2.536   3.657
  838SOL    HW2  302   1.717   2.379   3.620
  839SOL     OW  303   1.362   3.006   2.407
  839SOL    HW1  304   1.445   2.977   2.359
  839SOL    HW2  305   1.313   3.073   2.351
  841SOL     OW  306   1.008   3.318   2.339
  841SOL    HW1  307   0.962   3.390   2.287
  841SOL    HW2  308   1.004   3.338   2.437
  843SOL     OW  309   1.795   2.928   2.735
  843SOL    HW1  310   1.733   2.913   2.659
  843SOL    HW2  311   1.743   2.939   2.820
  844SOL     OW  312   1.227   3.412   3.368
  844SOL    HW1  313   1.233   3.335   3.432
  844SOL    HW2  314   1.175   3.386   3.288
  846SOL     OW  315   1.458   2.597   2.590
  846SOL    HW1  316   1.453   2.532   2.665
  846SOL    HW2  317   1.538   2.656   2.603
  850SOL     OW  318   1.632   3.239   1.943
  850SOL    HW1  319   1.600   3.333   1.933
  850SOL    HW2  320   1.556   3.176   1.931
  852SOL     OW  321   1.400   1.969   2.288
  852SOL    HW1  322   1.376   1.932   2.198
  852SOL    HW2  323   1.499   1.985   2.292
  856SOL     OW  324   1.547   2.084   3.591
  856SOL    HW1  325   1.542   2.121   3.683
  856SOL    HW2  326   1.475   2.015   3.579
  860SOL     OW  327   1.351   2.452   3.295
  860SOL    HW1  328   1.379   2.409   3.380
  860SOL    HW2  329   1.376   2.548   3.296
  862SOL     OW  330   0.922   2.365   2.761
  862SOL    HW1  331   0.897   2.356   2.665
  862SOL    HW2  332   0.970   2.283   2.792
  864SOL     OW  333   1.434   3.050   1.903
  864SOL    HW1  334   1.466   2.974   1.960
  864SOL    HW2  335   1.342   3.077   1.933
  866SOL     OW  336   0.935   2.098   2.342
  866SOL    HW1  337   0.887   2.139   2.264
  866SOL    HW2  338   1.034   2.096   2.323
  867SOL     OW  339   1.076   2.545   3.326
  867SOL    HW1  340   0.996   2.484   3.329
  867SOL    HW2  341   1.157   2.492   3.302
  868SOL     OW  342   1.227   3.432   2.655
  868SOL    HW1  343   1.248   3.506   2.590
  868SOL    HW2  344   1.295   3.432   2.728
  870SOL     OW  345   1.271   3.659   2.453
  870SOL    HW1  346   1.315   3.723   2.389
  870SOL    HW2  347   1.221   3.711   2.523
  871SOL     OW  348   1.032   2.411   1.878
  871SOL    HW1  349   0.991   2.493   1.839
  871SOL    HW2  350   1.096   2.437   1.951
  874SOL     OW  351   0.866   2.316   2.504
  874SOL    HW1  352   0.834   2.388   2.442
  874SOL    HW2  353   0.890   2.235   2.451
  875SOL     OW  354   1.017   1.901   2.615
  875SOL    HW1  355   0.945   1.906   2.546
  875SOL    HW2  356   0.993   1.832   2.684
  876SOL     OW  357   1.429   3.035   2.729
  876SOL    HW1  358   1.374   2.951   2.722
  876SOL    HW2  359   1.455   3.064   2.637
  877SOL     OW  360   1.466   2.452   2.854
  877SOL    HW1  361   1.436   2.357   2.861
  877SOL    HW2  362   1.539   2.468   2.920
  878SOL     OW  363   1.857   2.695   2.239
  878SOL    HW1  364   1.899   2.631   2.303
  878SOL    HW2  365   1.819   2.644   2.161
  880SOL     OW  366   1.664   3.142   2.519
  880SOL    HW1  367   1.763   3.150   2.533
  880SOL    HW2  368   1.619   3.226   2.550
  881SOL     OW  369   1.390   2.437   1.940
  881SOL    HW1  370   1.336   2.416   2.021
  881SOL    HW2  371   1.481   2.396   1.949
  883SOL     OW  372   1.754   3.085   3.450
  883SOL    HW1  373   1.845   3.046   3.437
  883SOL    HW2  374   1.762   3.181   3.474
  884SOL     OW  375   1.064   3.209   3.202
  884SOL    HW1  376   0.984   3.186   3.257
  884SOL    HW2  377   1.147   3.183   3.251
  885SOL     OW  378   1.592   3.491   3.487
  885SOL    HW1  379   1.619   3.525   3.397
  885SOL    HW2  380   1.671   3.453   3.533
  886SOL     OW  381   1.111   3.057   2.962
  886SOL    HW1  382   1.071   3.101   3.043
  886SOL    HW2  383   1.070   3.094   2.879
  887SOL     OW  384   1.638   2.961   2.941
  887SOL    HW1  385   1.643   3.042   3.000
  887SOL    HW2  386   1.552   2.963   2.890
  892SOL     OW  387   1.274   2.248   3.124
  892SOL    HW1  388   1.295   2.322   3.188
  892SOL    HW2  389   1.185   2.265   3.081
  896SOL     OW  390   1.252   3.210   2.250
  896SOL    HW1  391   1.302   3.287   2.290
  896SOL    HW2  392   1.157   3.212   2.282
  897SOL     OW  393   1.272   3.307   3.004
  897SOL    HW1  394   1.319   3.320   3.091
  897SOL    HW2  395   1.206   3.233   3.013
  898SOL     OW  396   1.582   2.501   2.334
  898SOL    HW1  397   1.551   2.562   2.407
  898SOL    HW2  398   1.632   2.553   2.265
  901SOL     OW  399   1.587   2.641   3.532
  901SOL    HW1  400   1.495   2.679   3.527
  901SOL    HW2  401   1.647   2.688   3.467
  905SOL     OW  402   1.360   2.724   2.907
  905SOL    HW1  403   1.285   2.724   2.841
  905SOL    HW2  404   1.397   2.632   2.916
  906SOL     OW  405   1.209   2.387   2.137
  906SOL    HW1  406   1.222   2.303   2.191
  906SOL    HW2  407   1.180   2.461   2.197
  910SOL     OW  408   1.728   2.797   3.716
  910SOL    HW1  409   1.682   2.790   3.627
  910SOL    HW2  410   1.666   2.841   3.782
  912SOL     OW  411   1.622   2.229   2.236
  912SOL    HW1  412   1.624   2.153   2.300
  912SOL    HW2  413   1.574   2.306   2.276
  913SOL     OW  414   1.023   2.628   2.828
  913SOL    HW1  415   1.038   2.649   2.924
  913SOL    HW2  416   0.993   2.533   2.819
  915SOL     OW  417   1.859   3.380   3.467
  915SOL    HW1  418   1.873   3.407   3.372
  915SOL    HW2  419   1.942   3.402   3.520
  917SOL     OW  420   1.540   2.136   1.987
  917SOL    HW1  421   1.479   2.061   2.010
  917SOL    HW2  422   1.562   2.188   2.070
  918SOL     OW  423   1.303   2.700   1.904
  918SOL    HW1  424   1.337   2.607   1.919
  918SOL    HW2  425   1.321   2.727   1.809
  919SOL     OW  426   1.068   3.195   2.711
  919SOL    HW1  427   1.075   3.111   2.656
  919SOL    HW2  428   1.130   3.264   2.675
  922SOL     OW  429   1.138   2.242   3.540
  922SOL    HW1  430   1.093   2.305   3.604
  922SOL    HW2  431   1.231   2.273   3.523
  923SOL     OW  432   1.160   2.069   3.339
  923SOL    HW1  433   1.160   2.133   3.416
  923SOL    HW2  434   1.188   2.117   3.256
  927SOL     OW  435   1.002   2.658   3.100
  927SOL    HW1  436   1.043   2.626   3.186
  927SOL    HW2  437   0.906   2.631   3.097
  930SOL     OW  438   1.369   2.812   3.522
  930SOL    HW1  439   1.408   2.901   3.542
  930SOL    HW2  440   1.379   2.792   3.425
  931SOL     OW  441   0.815   2.434   2.187
  931SOL    HW1  442   0.822   2.345   2.141
  931SOL    HW2  443   0.721   2.468   2.179
  932SOL     OW  444   1.657   2.466   3.068
  932SOL    HW1  445   1.619   2.397   3.130
  932SOL    HW2  446   1.739   2.430   3.024
  938SOL     OW  447   1.347   2.921   3.096
  938SOL    HW1  448   1.371   2.858   3.022
  938SOL    HW2  449   1.257   2.961   3.078
  939SOL     OW  450   1.302   2.717   2.171
  939SOL    HW1  451   1.216   2.686   2.213
  939SOL    HW2  452   1.298   2.703   2.072
  940SOL     OW  453   1.759   3.609   3.016
  940SOL    HW1  454   1.820   3.639   2.943
  940SOL    HW2  455   1.721   3.520   2.994
  941SOL     OW  456   1.252   3.593   2.990
  941SOL    HW1  457   1.336   3.598   2.936
  941SOL    HW2  458   1.229   3.497   3.008
  944SOL     OW  459   1.726   1.997   2.385
  944SOL    HW1  460   1.799   1.980   2.318
  944SOL    HW2  461   1.695   1.910   2.423
  945SOL     OW  462   1.388   3.435   2.339
  945SOL    HW1  463   1.455   3.447   2.265
  945SOL    HW2  464   1.348   3.524   2.362
  947SOL     OW  465   1.280   2.789   2.534
  947SOL    HW1  466   1.340   2.708   2.536
  947SOL    HW2  467   1.320   2.858   2.474
  950SOL     OW  468   1.650   3.582   3.256
  950SOL    HW1  469   1.703   3.592   3.172
  950SOL    HW2  470   1.623   3.672   3.290
  951SOL     OW  471   1.841   2.037   2.825
  951SOL    HW1  472   1.880   1.952   2.789
  951SOL    HW2  473   1.743   2.039   2.806
  953SOL     OW  474   1.194   3.474   1.893
  953SOL    HW1  475   1.200   3.381   1.930
  953SOL    HW2  476   1.135   3.474   1.813
  955SOL     OW  477   0.916   2.772   2.153
  955SOL    HW1  478   0.979   2.810   2.085
  955SOL    HW2  479   0.956   2.689   2.192
  956SOL     OW  480   1.504   3.469   1.906
  956SOL    HW1  481   1.412   3.506   1.913
  956SOL    HW2  482   1.542   3.489   1.816
  958SOL     OW  483   1.614   3.154   3.151
  958SOL    HW1  484   1.674   3.157   3.231
  958SOL    HW2  485   1.539   3.218   3.164
  959SOL     OW  486   1.039   2.960   2.558
  959SOL    HW1  487   0.969   2.913   2.612
  959SOL    HW2  488   1.098   2.892   2.515
  960SOL     OW  489   1.014   2.098   2.833
  960SOL    HW1  490   1.006   2.062   2.740
  960SOL    HW2  491   1.012   2.022   2.898
  962SOL     OW  492   1.709   2.247   3.243
  962SOL    HW1  493   1.782   2.316   3.247
  962SOL    HW2  494   1.737   2.172   3.184
  967SOL     OW  495   1.440   2.718   3.260
  967SOL    HW1  496   1.383   2.770   3.197
  967SOL    HW2  497   1.536   2.730   3.236
  969SOL     OW  498   1.183   3.197   1.981
  969SOL    HW1  499   1.084   3.186   1.983
  969SOL    HW2  500   1.217   3.212   2.074
  971SOL     OW  501   1.493   3.629   2.821
  971SOL    HW1  502   1.526   3.693   2.752
  971SOL    HW2  503   1.559   3.623   2.896
  973SOL     OW  504   1.450   3.082   3.495
  973SOL    HW1  505   1.441   3.072   3.594
  973SOL    HW2  506   1.546   3.075   3.469
  975SOL     OW  507   1.674   2.745   3.116
  975SOL    HW1  508   1.647   2.656   3.079
  975SOL    HW2  509   1.675   2.813   3.043
  976SOL     OW  510   1.225   2.187   2.311
  976SOL    HW1  511   1.290   2.113   2.300
  976SOL    HW2  512   1.245   2.237   2.395
  978SOL     OW  513   1.777   2.204   3.504
  978SOL    HW1  514   1.760   2.235   3.410
  978SOL    HW2  515   1.693   2.167   3.542
  979SOL     OW  516   1.730   2.796   3.379
  979SOL    HW1  517   1.768   2.887   3.394
  979SOL    HW2  518   1.722   2.779   3.280
  982SOL     OW  519   0.859   2.818   2.723
  982SOL    HW1  520   0.913   2.749   2.771
  982SOL    HW2  521   0.827   2.887   2.789
  983SOL     OW  522   1.083   2.846   1.949
  983SOL    HW1  523   1.060   2.899   1.867
  983SOL    HW2  524   1.164   2.790   1.930
  984SOL     OW  525   1.861   3.431   2.713
  984SOL    HW1  526   1.790   3.419   2.643
  984SOL    HW2  527   1.862   3.352   2.773
  988SOL     OW  528   1.824   2.054   3.089
  988SOL    HW1  529   1.820   1.964   3.133
  988SOL    HW2  530   1.827   2.043   2.990
  990SOL     OW  531   1.705   3.349   2.966
  990SOL    HW1  532   1.612   3.324   2.939
  990SOL    HW2  533   1.731   3.299   3.048
  993SOL     OW  534   1.424   2.076   2.974
  993SOL    HW1  535   1.476   2.011   3.029
  993SOL    HW2  536   1.375   2.139   3.035
  994SOL     OW  537   1.001   1.896   3.016
  994SOL    HW1  538   0.938   1.824   2.985
  994SOL    HW2  539   1.094   1.860   3.016
  997SOL     OW  540   1.352   1.914   2.030
  997SOL    HW1  541   1.387   1.873   1.946
  997SOL    HW2  542   1.262   1.876   2.050
  998SOL     OW  543   1.300   2.315   2.553
  998SOL    HW1  544   1.241   2.395   2.557
  998SOL    HW2  545   1.315   2.280   2.646
  999SOL     OW  546   1.593   2.083   2.744
  999SOL    HW1  547   1.509   2.082   2.798
  999SOL    HW2  548   1.595   2.166   2.688
 1008SOL     OW  549   1.755   2.469   3.955
 1008SOL    HW1  550   1.743   2.456   3.856
 1008SOL    HW2  551   1.725   2.388   4.004
 1025SOL     OW  552   1.525   2.861   3.914
 1025SOL    HW1  553   1.462   2.785   3.927
 1025SOL    HW2  554   1.573   2.879   4.000
 1043SOL     OW  555   1.632   3.239   3.805
 1043SOL    HW1  556   1.600   3.333   3.795
 1043SOL    HW2  557   1.556   3.176   3.793
 1053SOL     OW  558   1.434   3.050   3.765
 1053SOL    HW1  559   1.466   2.974   3.822
 1053SOL    HW2  560   1.342   3.077   3.795
 1065SOL     OW  561   1.857   2.695   4.101
 1065SOL    HW1  562   1.899   2.631   4.165
 1065SOL    HW2  563   1.819   2.644   4.023
 1068SOL     OW  564   1.390   2.437   3.802
 1068SOL    HW1  565   1.336   2.416   3.883
 1068SOL    HW2  566   1.481   2.396   3.811
 1089SOL     OW  567   1.540   2.136   3.849
 1089SOL    HW1  568   1.479   2.061   3.872
 1089SOL    HW2  569   1.562   2.188   3.932
 1090SOL     OW  570   1.303   2.700   3.766
 1090SOL    HW1  571   1.337   2.607   3.781
 1090SOL    HW2  572   1.321   2.727   3.671
 1335SOL     OW  573   1.400   3.831   2.288
 1335SOL    HW1  574   1.376   3.794   2.198
 1335SOL    HW2  575   1.499   3.847   2.292
 1402SOL     OW  576   1.726   3.859   2.385
 1402SOL    HW1  577   1.799   3.842   2.318
 1402SOL    HW2  578   1.695   3.772   2.423
 1404SOL     OW  579   1.841   3.899   2.825
 1404SOL    HW1  580   1.880   3.814   2.789
 1404SOL    HW2  581   1.743   3.901   2.806
 1429SOL     OW  582   1.824   3.916   3.089
 1429SOL    HW1  583   1.820   3.826   3.133
 1429SOL    HW2  584   1.827   3.905   2.990
 1435SOL     OW  585   1.352   3.776   2.030
 1435SOL    HW1  586   1.387   3.735   1.946
 1435SOL    HW2  587   1.262   3.738   2.050
 1437SOL     OW  588   1.593   3.945   2.744
 1437SOL    HW1  589   1.509   3.944   2.798
 1437SOL    HW2  590   1.595   4.028   2.688
 1552SOL     OW  591   2.548   1.161   1.803
 1552SOL    HW1  592   2.608   1.240   1.817
 1552SOL    HW2  593   2.462   1.192   1.762
 1554SOL     OW  594   3.322   1.505   1.339
 1554SOL    HW1  595   3.346   1.599   1.365
 1554SOL    HW2  596   3.306   1.451   1.421
 1558SOL     OW  597   2.989   1.341   1.690
 1558SOL    HW1  598   3.036   1.341   1.778
 1558SOL    HW2  599   2.941   1.254   1.679
 1561SOL     OW  600   2.482   1.786   1.439
 1561SOL    HW1  601   2.390   1.769   1.474
 1561SOL    HW2  602   2.510   1.878   1.465
 1575SOL     OW  603   3.049   1.792   1.616
 1575SOL    HW1  604   3.073   1.852   1.540
 1575SOL    HW2  605   3.056   1.697   1.586
 1588SOL     OW  606   1.992   1.821   1.571
 1588SOL    HW1  607   1.982   1.806   1.670
 1588SOL    HW2  608   1.906   1.857   1.535
 1596SOL     OW  609   3.089   1.550   1.506
 1596SOL    HW1  610   3.095   1.473   1.570
 1596SOL    HW2  611   3.037   1.524   1.426
 1599SOL     OW  612   2.323   1.266   1.727
 1599SOL    HW1  613   2.273   1.267   1.641
 1599SOL    HW2  614   2.260   1.248   1.803
 1605SOL     OW  615   2.111   1.785   1.241
 1605SOL    HW1  616   2.168   1.720   1.291
 1605SOL    HW2  617   2.095   1.752   1.148
 1611SOL     OW  618   2.750   1.514   1.195
 1611SOL    HW1  619   2.727   1.489   1.101
 1611SOL    HW2  620   2.811   1.445   1.234
 1636SOL     OW  621   2.926   1.347   1.340
 1636SOL    HW1  622   2.846   1.324   1.395
 1636SOL    HW2  623   3.009   1.321   1.389
 1637SOL     OW  624   3.454   1.629   1.625
 1637SOL    HW1  625   3.481   1.663   1.535
 1637SOL    HW2  626   3.533   1.591   1.671
 1641SOL     OW  627   2.842   1.116   1.719
 1641SOL    HW1  628   2.743   1.122   1.729
 1641SOL    HW2  629   2.865   1.036   1.663
 1645SOL     OW  630   1.926   1.564   1.331
 1645SOL    HW1  631   1.880   1.646   1.297
 1645SOL    HW2  632   2.024   1.583   1.340
 1651SOL     OW  633   2.216   1.510   1.329
 1651SOL    HW1  634   2.195   1.466   1.242
 1651SOL    HW2  635   2.313   1.536   1.332
 1666SOL     OW  636   2.842   1.573   1.700
 1666SOL    HW1  637   2.822   1.617   1.612
 1666SOL    HW2  638   2.881   1.482   1.684
 1668SOL     OW  639   2.212   0.898   1.804
 1668SOL    HW1  640   2.288   0.942   1.852
 1668SOL    HW2  641   2.247   0.851   1.722
 1685SOL     OW  642   2.114   1.564   1.744
 1685SOL    HW1  643   2.084   1.621   1.820
 1685SOL    HW2  644   2.107   1.467   1.770
 1687SOL     OW  645   2.792   1.678   1.465
 1687SOL    HW1  646   2.768   1.660   1.370
 1687SOL    HW2  647   2.822   1.772   1.475
 1689SOL     OW  648   2.021   1.137   1.466
 1689SOL    HW1  649   2.043   1.076   1.542
 1689SOL    HW2  650   2.031   1.088   1.380
 1693SOL     OW  651   3.114   1.731   1.128
 1693SOL    HW1  652   3.198   1.736   1.074
 1693SOL    HW2  653   3.091   1.635   1.146
 1695SOL     OW  654   2.550   1.662   1.716
 1695SOL    HW1  655   2.494   1.743   1.725
 1695SOL    HW2  656   2.602   1.666   1.630
 1699SOL     OW  657   1.992   1.794   1.851
 1699SOL    HW1  658   1.951   1.720   1.904
 1699SOL    HW2  659   2.056   1.845   1.909
 1701SOL     OW  660   2.692   1.273   1.422
 1701SOL    HW1  661   2.687   1.306   1.517
 1701SOL    HW2  662   2.606   1.292   1.376
 1703SOL     OW  663   3.512   1.720   1.394
 1703SOL    HW1  664   3.565   1.730   1.310
 1703SOL    HW2  665   3.485   1.810   1.428
 1710SOL     OW  666   2.234   1.288   1.490
 1710SOL    HW1  667   2.221   1.381   1.456
 1710SOL    HW2  668   2.150   1.236   1.477
 1717SOL     OW  669   1.967   1.013   1.726
 1717SOL    HW1  670   1.890   0.980   1.780
 1717SOL    HW2  671   2.052   0.983   1.768
 1725SOL     OW  672   3.312   1.220   1.633
 1725SOL    HW1  673   3.303   1.210   1.732
 1725SOL    HW2  674   3.408   1.213   1.607
 1726SOL     OW  675   2.252   1.741   1.560
 1726SOL    HW1  676   2.161   1.782   1.558
 1726SOL    HW2  677   2.245   1.647   1.592
 1733SOL     OW  678   2.523   1.790   0.953
 1733SOL    HW1  679   2.477   1.878   0.940
 1733SOL    HW2  680   2.622   1.802   0.946
 1737SOL     OW  681   2.083   1.314   1.844
 1737SOL    HW1  682   2.018   1.241   1.823
 1737SOL    HW2  683   2.087   1.328   1.942
 1739SOL     OW  684   2.534   1.391   1.624
 1739SOL    HW1  685   2.456   1.341   1.662
 1739SOL    HW2  686   2.531   1.486   1.655
 1748SOL     OW  687   2.480   1.567   1.284
 1748SOL    HW1  688   2.475   1.649   1.341
 1748SOL    HW2  689   2.569   1.564   1.239
 1757SOL     OW  690   2.431   1.275   3.027
 1757SOL    HW1  691   2.338   1.268   2.990
 1757SOL    HW2  692   2.442   1.364   3.071
 1758SOL     OW  693   3.417   1.511   2.565
 1758SOL    HW1  694   3.360   1.495   2.646
 1758SOL    HW2  695   3.358   1.521   2.485
 1761SOL     OW  696   2.630   1.144   2.885
 1761SOL    HW1  697   2.552   1.161   2.945
 1761SOL    HW2  698   2.664   1.231   2.849
 1763SOL     OW  699   2.547   1.012   2.527
 1763SOL    HW1  700   2.616   0.996   2.597
 1763SOL    HW2  701   2.474   1.069   2.565
 1764SOL     OW  702   2.548   1.161   3.665
 1764SOL    HW1  703   2.608   1.240   3.679
 1764SOL    HW2  704   2.462   1.192   3.624
 1765SOL     OW  705   2.197   1.435   2.923
 1765SOL    HW1  706   2.119   1.404   2.870
 1765SOL    HW2  707   2.255   1.493   2.866
 1766SOL     OW  708   3.322   1.505   3.201
 1766SOL    HW1  709   3.346   1.599   3.227
 1766SOL    HW2  710   3.306   1.451   3.283
 1769SOL     OW  711   2.093   1.713   2.345
 1769SOL    HW1  712   2.127   1.790   2.399
 1769SOL    HW2  713   2.137   1.713   2.255
 1770SOL     OW  714   2.989   1.341   3.552
 1770SOL    HW1  715   3.036   1.341   3.640
 1770SOL    HW2  716   2.941   1.254   3.541
 1771SOL     OW  717   2.092   1.434   2.400
 1771SOL    HW1  718   2.066   1.530   2.400
 1771SOL    HW2  719   2.021   1.380   2.445
 1772SOL     OW  720   2.102   1.091   2.748
 1772SOL    HW1  721   2.116   1.007   2.800
 1772SOL    HW2  722   2.047   1.155   2.803
 1773SOL     OW  723   2.482   1.786   3.301
 1773SOL    HW1  724   2.390   1.769   3.336
 1773SOL    HW2  725   2.510   1.878   3.327
 1774SOL     OW  726   2.468   0.964   1.985
 1774SOL    HW1  727   2.475   1.048   1.931
 1774SOL    HW2  728   2.514   0.977   2.073
 1777SOL     OW  729   3.704   1.767   2.221
 1777SOL    HW1  730   3.758   1.738   2.301
 1777SOL    HW2  731   3.734   1.857   2.192
 1778SOL     OW  732   1.889   1.596   1.979
 1778SOL    HW1  733   1.870   1.500   2.000
 1778SOL    HW2  734   1.856   1.654   2.054
 1780SOL     OW  735   3.503   1.108   2.294
 1780SOL    HW1  736   3.589   1.110   2.242
 1780SOL    HW2  737   3.517   1.155   2.382
 1782SOL     OW  738   2.475   1.365   2.588
 1782SOL    HW1  739   2.426   1.278   2.597
 1782SOL    HW2  740   2.452   1.408   2.501
 1783SOL     OW  741   3.155   1.228   3.285
 1783SOL    HW1  742   3.192   1.155   3.227
 1783SOL    HW2  743   3.207   1.233   3.370
 1785SOL     OW  744   2.059   0.976   3.126
 1785SOL    HW1  745   2.148   0.931   3.112
 1785SOL    HW2  746   1.986   0.911   3.107
 1787SOL     OW  747   3.049   1.792   3.478
 1787SOL    HW1  748   3.073   1.852   3.402
 1787SOL    HW2  749   3.056   1.697   3.448
 1789SOL     OW  750   3.328   1.417   2.815
 1789SOL    HW1  751   3.269   1.423   2.895
 1789SOL    HW2  752   3.313   1.329   2.769
 1790SOL     OW  753   3.529   1.714   2.434
 1790SOL    HW1  754   3.488   1.691   2.346
 1790SOL    HW2  755   3.511   1.640   2.499
 1793SOL     OW  756   3.438   1.662   2.169
 1793SOL    HW1  757   3.527   1.708   2.172
 1793SOL    HW2  758   3.417   1.638   2.074
 1800SOL     OW  759   1.992   1.821   3.433
 1800SOL    HW1  760   1.982   1.806   3.532
 1800SOL    HW2  761   1.906   1.857   3.397
 1803SOL     OW  762   3.224   1.144   2.407
 1803SOL    HW1  763   3.307   1.115   2.359
 1803SOL    HW2  764   3.175   1.211   2.351
 1805SOL     OW  765   2.870   1.456   2.339
 1805SOL    HW1  766   2.824   1.528   2.287
 1805SOL    HW2  767   2.866   1.476   2.437
 1806SOL     OW  768   2.213   1.801   2.715
 1806SOL    HW1  769   2.263   1.715   2.721
 1806SOL    HW2  770   2.278   1.878   2.712
 1808SOL     OW  771   3.089   1.550   3.368
 1808SOL    HW1  772   3.095   1.473   3.432
 1808SOL    HW2  773   3.037   1.524   3.288
 1809SOL     OW  774   2.183   0.943   2.104
 1809SOL    HW1  775   2.265   0.982   2.062
 1809SOL    HW2  776   2.156   0.861   2.055
 1811SOL     OW  777   2.323   1.266   3.589
 1811SOL    HW1  778   2.273   1.267   3.503
 1811SOL    HW2  779   2.260   1.248   3.665
 1812SOL     OW  780   2.973   1.776   2.099
 1812SOL    HW1  781   2.913   1.714   2.149
 1812SOL    HW2  782   3.004   1.732   2.014
 1814SOL     OW  783   3.494   1.377   1.943
 1814SOL    HW1  784   3.462   1.471   1.933
 1814SOL    HW2  785   3.418   1.314   1.931
 1815SOL     OW  786   2.326   1.743   2.185
 1815SOL    HW1  787   2.359   1.782   2.271
 1815SOL    HW2  788   2.402   1.736   2.120
 1817SOL     OW  789   2.111   1.785   3.103
 1817SOL    HW1  790   2.168   1.720   3.153
 1817SOL    HW2  791   2.095   1.752   3.010
 1818SOL     OW  792   2.802   1.698   2.766
 1818SOL    HW1  793   2.882   1.641   2.787
 1818SOL    HW2  794   2.753   1.658   2.689
 1823SOL     OW  795   2.750   1.514   3.057
 1823SOL    HW1  796   2.727   1.489   2.963
 1823SOL    HW2  797   2.811   1.445   3.096
 1825SOL     OW  798   2.665   1.402   2.786
 1825SOL    HW1  799   2.755   1.416   2.744
 1825SOL    HW2  800   2.594   1.404   2.715
 1828SOL     OW  801   3.296   1.188   1.903
 1828SOL    HW1  802   3.328   1.112   1.960
 1828SOL    HW2  803   3.204   1.215   1.933
 1832SOL     OW  804   3.089   1.570   2.655
 1832SOL    HW1  805   3.110   1.644   2.590
 1832SOL    HW2  806   3.157   1.570   2.728
 1833SOL     OW  807   2.321   1.152   2.603
 1833SOL    HW1  808   2.250   1.125   2.668
 1833SOL    HW2  809   2.295   1.124   2.510
 1834SOL     OW  810   3.133   1.797   2.453
 1834SOL    HW1  811   3.177   1.861   2.389
 1834SOL    HW2  812   3.083   1.849   2.523
 1840SOL     OW  813   3.291   1.173   2.729
 1840SOL    HW1  814   3.236   1.089   2.722
 1840SOL    HW2  815   3.317   1.202   2.637
 1843SOL     OW  816   2.350   1.385   2.036
 1843SOL    HW1  817   2.263   1.370   2.083
 1843SOL    HW2  818   2.333   1.411   1.941
 1844SOL     OW  819   3.526   1.280   2.519
 1844SOL    HW1  820   3.625   1.288   2.533
 1844SOL    HW2  821   3.481   1.364   2.550
 1848SOL     OW  822   2.926   1.347   3.202
 1848SOL    HW1  823   2.846   1.324   3.257
 1848SOL    HW2  824   3.009   1.321   3.251
 1849SOL     OW  825   3.454   1.629   3.487
 1849SOL    HW1  826   3.481   1.663   3.397
 1849SOL    HW2  827   3.533   1.591   3.533
 1850SOL     OW  828   2.973   1.195   2.962
 1850SOL    HW1  829   2.933   1.239   3.043
 1850SOL    HW2  830   2.932   1.232   2.879
 1851SOL     OW  831   3.500   1.099   2.941
 1851SOL    HW1  832   3.505   1.180   3.000
 1851SOL    HW2  833   3.414   1.101   2.890
 1853SOL     OW  834   2.842   1.116   3.581
 1853SOL    HW1  835   2.743   1.122   3.591
 1853SOL    HW2  836   2.865   1.036   3.525
 1854SOL     OW  837   2.567   1.050   2.230
 1854SOL    HW1  838   2.553   1.057   2.329
 1854SOL    HW2  839   2.651   0.999   2.212
 1857SOL     OW  840   1.926   1.564   3.193
 1857SOL    HW1  841   1.880   1.646   3.159
 1857SOL    HW2  842   2.024   1.583   3.202
 1858SOL     OW  843   2.229   1.100   2.363
 1858SOL    HW1  844   2.222   1.183   2.307
 1858SOL    HW2  845   2.233   1.020   2.303
 1860SOL     OW  846   3.114   1.348   2.250
 1860SOL    HW1  847   3.164   1.425   2.290
 1860SOL    HW2  848   3.019   1.350   2.282
 1861SOL     OW  849   3.134   1.445   3.004
 1861SOL    HW1  850   3.181   1.458   3.091
 1861SOL    HW2  851   3.068   1.371   3.013
 1863SOL     OW  852   2.216   1.510   3.191
 1863SOL    HW1  853   2.195   1.466   3.104
 1863SOL    HW2  854   2.313   1.536   3.194
 1868SOL     OW  855   2.435   0.870   2.891
 1868SOL    HW1  856   2.479   0.959   2.882
 1868SOL    HW2  857   2.372   0.870   2.968
 1872SOL     OW  858   1.899   1.310   3.144
 1872SOL    HW1  859   1.952   1.261   3.212
 1872SOL    HW2  860   1.921   1.408   3.149
 1878SOL     OW  861   2.842   1.573   3.562
 1878SOL    HW1  862   2.822   1.617   3.474
 1878SOL    HW2  863   2.881   1.482   3.546
 1883SOL     OW  864   2.930   1.333   2.711
 1883SOL    HW1  865   2.937   1.249   2.656
 1883SOL    HW2  866   2.992   1.402   2.675
 1884SOL     OW  867   2.181   0.810   2.811
 1884SOL    HW1  868   2.274   0.846   2.816
 1884SOL    HW2  869   2.175   0.725   2.863
 1888SOL     OW  870   1.870   1.326   2.062
 1888SOL    HW1  871   1.777   1.347   2.031
 1888SOL    HW2  872   1.880   1.227   2.075
 1889SOL     OW  873   1.950   1.801   2.789
 1889SOL    HW1  874   1.908   1.715   2.762
 1889SOL    HW2  875   2.044   1.804   2.755
 1890SOL     OW  876   2.366   1.568   2.772
 1890SOL    HW1  877   2.432   1.642   2.781
 1890SOL    HW2  878   2.410   1.489   2.730
 1897SOL     OW  879   2.114   1.564   3.606
 1897SOL    HW1  880   2.084   1.621   3.682
 1897SOL    HW2  881   2.107   1.467   3.632
 1899SOL     OW  882   2.792   1.678   3.327
 1899SOL    HW1  883   2.768   1.660   3.232
 1899SOL    HW2  884   2.822   1.772   3.337
 1901SOL     OW  885   2.021   1.137   3.328
 1901SOL    HW1  886   2.043   1.076   3.404
 1901SOL    HW2  887   2.031   1.088   3.242
 1902SOL     OW  888   3.209   1.059   3.096
 1902SOL    HW1  889   3.233   0.996   3.022
 1902SOL    HW2  890   3.119   1.099   3.078
 1904SOL     OW  891   3.621   1.747   3.016
 1904SOL    HW1  892   3.682   1.777   2.943
 1904SOL    HW2  893   3.583   1.658   2.994
 1905SOL     OW  894   3.114   1.731   2.990
 1905SOL    HW1  895   3.198   1.736   2.936
 1905SOL    HW2  896   3.091   1.635   3.008
 1906SOL     OW  897   1.945   1.258   2.884
 1906SOL    HW1  898   1.940   1.257   2.984
 1906SOL    HW2  899   1.862   1.217   2.846
 1907SOL     OW  900   2.550   1.662   3.578
 1907SOL    HW1  901   2.494   1.743   3.587
 1907SOL    HW2  902   2.602   1.666   3.492
 1909SOL     OW  903   3.250   1.573   2.339
 1909SOL    HW1  904   3.317   1.585   2.265
 1909SOL    HW2  905   3.210   1.662   2.362
 1910SOL     OW  906   1.992   1.794   3.713
 1910SOL    HW1  907   1.951   1.720   3.766
 1910SOL    HW2  908   2.056   1.845   3.771
 1911SOL     OW  909   3.142   0.927   2.534
 1911SOL    HW1  910   3.202   0.846   2.536
 1911SOL    HW2  911   3.182   0.996   2.474
 1912SOL     OW  912   2.692   1.273   3.284
 1912SOL    HW1  913   2.687   1.306   3.379
 1912SOL    HW2  914   2.606   1.292   3.238
 1913SOL     OW  915   2.534   1.616   2.016
 1913SOL    HW1  916   2.543   1.626   1.917
 1913SOL    HW2  917   2.494   1.527   2.037
 1914SOL     OW  918   3.512   1.720   3.256
 1914SOL    HW1  919   3.565   1.730   3.172
 1914SOL    HW2  920   3.485   1.810   3.290
 1917SOL     OW  921   3.056   1.612   1.893
 1917SOL    HW1  922   3.062   1.519   1.930
 1917SOL    HW2  923   2.997   1.612   1.813
 1918SOL     OW  924   2.684   1.002   3.234
 1918SOL    HW1  925   2.724   1.001   3.142
 1918SOL    HW2  926   2.694   1.094   3.274
 1919SOL     OW  927   2.778   0.910   2.153
 1919SOL    HW1  928   2.841   0.948   2.085
 1919SOL    HW2  929   2.818   0.827   2.192
 1920SOL     OW  930   3.366   1.607   1.906
 1920SOL    HW1  931   3.274   1.644   1.913
 1920SOL    HW2  932   3.404   1.627   1.816
 1921SOL     OW  933   2.234   1.288   3.352
 1921SOL    HW1  934   2.221   1.381   3.318
 1921SOL    HW2  935   2.150   1.236   3.339
 1922SOL     OW  936   3.476   1.292   3.151
 1922SOL    HW1  937   3.536   1.295   3.231
 1922SOL    HW2  938   3.401   1.356   3.164
 1923SOL     OW  939   2.901   1.098   2.558
 1923SOL    HW1  940   2.831   1.051   2.612
 1923SOL    HW2  941   2.960   1.030   2.515
 1925SOL     OW  942   2.452   1.487   2.353
 1925SOL    HW1  943   2.494   1.429   2.283
 1925SOL    HW2  944   2.408   1.566   2.309
 1927SOL     OW  945   2.117   1.348   2.152
 1927SOL    HW1  946   2.021   1.349   2.125
 1927SOL    HW2  947   2.129   1.401   2.236
 1933SOL     OW  948   3.045   1.335   1.981
 1933SOL    HW1  949   2.946   1.324   1.983
 1933SOL    HW2  950   3.079   1.350   2.074
 1935SOL     OW  951   3.355   1.767   2.821
 1935SOL    HW1  952   3.388   1.831   2.752
 1935SOL    HW2  953   3.421   1.761   2.896
 1938SOL     OW  954   2.252   1.741   3.422
 1938SOL    HW1  955   2.161   1.782   3.420
 1938SOL    HW2  956   2.245   1.647   3.454
 1941SOL     OW  957   2.456   0.745   2.514
 1941SOL    HW1  958   2.506   0.830   2.495
 1941SOL    HW2  959   2.368   0.747   2.466
 1944SOL     OW  960   2.721   1.374   1.878
 1944SOL    HW1  961   2.675   1.389   1.966
 1944SOL    HW2  962   2.765   1.459   1.848
 1945SOL     OW  963   2.523   1.790   2.815
 1945SOL    HW1  964   2.477   1.878   2.802
 1945SOL    HW2  965   2.622   1.802   2.808
 1946SOL     OW  966   2.721   0.956   2.723
 1946SOL    HW1  967   2.775   0.887   2.771
 1946SOL    HW2  968   2.689   1.025   2.789
 1947SOL     OW  969   2.945   0.984   1.949
 1947SOL    HW1  970   2.922   1.037   1.867
 1947SOL    HW2  971   3.026   0.928   1.930
 1948SOL     OW  972   3.723   1.569   2.713
 1948SOL    HW1  973   3.652   1.557   2.643
 1948SOL    HW2  974   3.724   1.490   2.773
 1949SOL     OW  975   2.083   1.314   3.706
 1949SOL    HW1  976   2.018   1.241   3.685
 1949SOL    HW2  977   2.087   1.328   3.804
 1950SOL     OW  978   1.941   1.240   2.515
 1950SOL    HW1  979   1.940   1.193   2.603
 1950SOL    HW2  980   2.023   1.212   2.464
 1951SOL     OW  981   2.534   1.391   3.486
 1951SOL    HW1  982   2.456   1.341   3.524
 1951SOL    HW2  983   2.531   1.486   3.517
 1954SOL     OW  984   3.567   1.487   2.966
 1954SOL    HW1  985   3.474   1.462   2.939
 1954SOL    HW2  986   3.593   1.437   3.048
 1956SOL     OW  987   2.674   1.586   2.549
 1956SOL    HW1  988   2.706   1.596   2.455
 1956SOL    HW2  989   2.595   1.524   2.551
 1959SOL     OW  990   2.632   1.330   2.163
 1959SOL    HW1  991   2.586   1.243   2.180
 1959SOL    HW2  992   2.723   1.327   2.204
 1960SOL     OW  993   2.480   1.567   3.146
 1960SOL    HW1  994   2.475   1.649   3.203
 1960SOL    HW2  995   2.569   1.564   3.101
 1964SOL     OW  996   1.901   1.077   2.162
 1964SOL    HW1  997   2.000   1.066   2.153
 1964SOL    HW2  998   1.861   0.991   2.194
 1965SOL     OW  999   2.737   1.646   2.199
 1965SOL    HW1 1000   2.660   1.611   2.145
 1965SOL    HW2 1001   2.705   1.717   2.261
 1983SOL     OW 1002   1.889   1.596   3.841
 1983SOL    HW1 1003   1.870   1.500   3.862
 1983SOL    HW2 1004   1.856   1.654   3.916
 2005SOL     OW 1005   2.973   1.776   3.961
 2005SOL    HW1 1006   2.913   1.714   4.011
 2005SOL    HW2 1007   3.004   1.732   3.876
 2007SOL     OW 1008   2.326   1.743   4.047
 2007SOL    HW1 1009   2.359   1.782   4.133
 2007SOL    HW2 1010   2.402   1.736   3.982
 2029SOL     OW 1011   2.350   1.385   3.898
 2029SOL    HW1 1012   2.263   1.370   3.945
 2029SOL    HW2 1013   2.333   1.411   3.803
 2076SOL     OW 1014   2.534   1.616   3.878
 2076SOL    HW1 1015   2.543   1.626   3.779
 2076SOL    HW2 1016   2.494   1.527   3.899
 2080SOL     OW 1017   3.056   1.612   3.755
 2080SOL    HW1 1018   3.062   1.519   3.792
 2080SOL    HW2 1019   2.997   1.612   3.675
 2083SOL     OW 1020   3.366   1.607   3.768
 2083SOL    HW1 1021   3.274   1.644   3.775
 2083SOL    HW2 1022   3.404   1.627   3.678
 2097SOL     OW 1023   2.721   1.374   3.740
 2097SOL    HW1 1024   2.675   1.389   3.828
 2097SOL    HW2 1025   2.765   1.459   3.710
 2114SOL     OW 1026   2.737   1.646   4.061
 2114SOL    HW1 1027   2.660   1.611   4.007
 2114SOL    HW2 1028   2.705   1.717   4.123
 2116SOL     OW 1029   2.087   2.137   0.996
 2116SOL    HW1 1030   2.122   2.120   1.088
 2116SOL    HW2 1031   1.999   2.092   0.984
 2118SOL     OW 1032   2.431   3.137   1.165
 2118SOL    HW1 1033   2.338   3.130   1.128
 2118SOL    HW2 1034   2.442   3.226   1.209
 2122SOL     OW 1035   2.630   3.006   1.023
 2122SOL    HW1 1036   2.552   3.023   1.083
 2122SOL    HW2 1037   2.664   3.093   0.987
 2123SOL     OW 1038   2.712   2.660   1.823
 2123SOL    HW1 1039   2.708   2.736   1.888
 2123SOL    HW2 1040   2.734   2.696   1.732
 2125SOL     OW 1041   2.548   3.023   1.803
 2125SOL    HW1 1042   2.608   3.102   1.817
 2125SOL    HW2 1043   2.462   3.054   1.762
 2126SOL     OW 1044   2.197   3.297   1.061
 2126SOL    HW1 1045   2.119   3.266   1.008
 2126SOL    HW2 1046   2.255   3.355   1.004
 2127SOL     OW 1047   3.322   3.367   1.339
 2127SOL    HW1 1048   3.346   3.461   1.365
 2127SOL    HW2 1049   3.306   3.313   1.421
 2128SOL     OW 1050   2.300   2.254   1.499
 2128SOL    HW1 1051   2.382   2.198   1.508
 2128SOL    HW2 1052   2.219   2.196   1.503
 2131SOL     OW 1053   2.989   3.203   1.690
 2131SOL    HW1 1054   3.036   3.203   1.778
 2131SOL    HW2 1055   2.941   3.116   1.679
 2133SOL     OW 1056   2.102   2.953   0.886
 2133SOL    HW1 1057   2.116   2.869   0.938
 2133SOL    HW2 1058   2.047   3.017   0.941
 2134SOL     OW 1059   2.482   3.648   1.439
 2134SOL    HW1 1060   2.390   3.631   1.474
 2134SOL    HW2 1061   2.510   3.740   1.465
 2136SOL     OW 1062   3.456   1.976   1.480
 2136SOL    HW1 1063   3.438   2.043   1.408
 2136SOL    HW2 1064   3.453   2.022   1.569
 2142SOL     OW 1065   1.975   2.599   1.597
 2142SOL    HW1 1066   2.063   2.586   1.642
 2142SOL    HW2 1067   1.962   2.696   1.575
 2144SOL     OW 1068   3.155   3.090   1.423
 2144SOL    HW1 1069   3.192   3.017   1.365
 2144SOL    HW2 1070   3.207   3.095   1.508
 2146SOL     OW 1071   2.059   2.838   1.264
 2146SOL    HW1 1072   2.148   2.793   1.250
 2146SOL    HW2 1073   1.986   2.773   1.245
 2148SOL     OW 1074   3.049   3.654   1.616
 2148SOL    HW1 1075   3.073   3.714   1.540
 2148SOL    HW2 1076   3.056   3.559   1.586
 2149SOL     OW 1077   2.179   2.113   1.801
 2149SOL    HW1 1078   2.250   2.184   1.807
 2149SOL    HW2 1079   2.091   2.152   1.829
 2153SOL     OW 1080   3.143   2.207   0.944
 2153SOL    HW1 1081   3.057   2.157   0.931
 2153SOL    HW2 1082   3.205   2.153   1.000
 2155SOL     OW 1083   2.669   2.467   1.465
 2155SOL    HW1 1084   2.622   2.464   1.554
 2155SOL    HW2 1085   2.618   2.412   1.399
 2156SOL     OW 1086   3.256   2.331   1.674
 2156SOL    HW1 1087   3.236   2.374   1.762
 2156SOL    HW2 1088   3.334   2.269   1.683
 2157SOL     OW 1089   2.835   2.752   1.572
 2157SOL    HW1 1090   2.881   2.668   1.543
 2157SOL    HW2 1091   2.779   2.786   1.497
 2158SOL     OW 1092   2.853   2.272   1.242
 2158SOL    HW1 1093   2.776   2.306   1.296
 2158SOL    HW2 1094   2.819   2.221   1.163
 2161SOL     OW 1095   1.992   3.683   1.571
 2161SOL    HW1 1096   1.982   3.668   1.670
 2161SOL    HW2 1097   1.906   3.719   1.535
 2163SOL     OW 1098   3.581   2.447   1.831
 2163SOL    HW1 1099   3.555   2.536   1.795
 2163SOL    HW2 1100   3.579   2.379   1.758
 2165SOL     OW 1101   2.412   2.058   0.885
 2165SOL    HW1 1102   2.407   2.053   0.985
 2165SOL    HW2 1103   2.414   2.154   0.856
 2169SOL     OW 1104   3.089   3.412   1.506
 2169SOL    HW1 1105   3.095   3.335   1.570
 2169SOL    HW2 1106   3.037   3.386   1.426
 2172SOL     OW 1107   2.323   3.128   1.727
 2172SOL    HW1 1108   2.273   3.129   1.641
 2172SOL    HW2 1109   2.260   3.110   1.803
 2174SOL     OW 1110   2.064   2.147   1.498
 2174SOL    HW1 1111   1.984   2.207   1.485
 2174SOL    HW2 1112   2.054   2.098   1.584
 2178SOL     OW 1113   2.111   3.647   1.241
 2178SOL    HW1 1114   2.168   3.582   1.291
 2178SOL    HW2 1115   2.095   3.614   1.148
 2181SOL     OW 1116   3.409   2.084   1.729
 2181SOL    HW1 1117   3.404   2.121   1.821
 2181SOL    HW2 1118   3.337   2.015   1.717
 2183SOL     OW 1119   2.643   2.126   1.749
 2183SOL    HW1 1120   2.710   2.065   1.792
 2183SOL    HW2 1121   2.570   2.145   1.814
 2184SOL     OW 1122   2.750   3.376   1.195
 2184SOL    HW1 1123   2.727   3.351   1.101
 2184SOL    HW2 1124   2.811   3.307   1.234
 2185SOL     OW 1125   3.213   2.452   1.433
 2185SOL    HW1 1126   3.241   2.409   1.518
 2185SOL    HW2 1127   3.238   2.548   1.434
 2186SOL     OW 1128   2.665   3.264   0.924
 2186SOL    HW1 1129   2.755   3.278   0.882
 2186SOL    HW2 1130   2.594   3.266   0.853
 2187SOL     OW 1131   2.784   2.365   0.899
 2187SOL    HW1 1132   2.759   2.356   0.803
 2187SOL    HW2 1133   2.832   2.283   0.930
 2192SOL     OW 1134   2.938   2.545   1.464
 2192SOL    HW1 1135   2.858   2.484   1.467
 2192SOL    HW2 1136   3.019   2.492   1.440
 2197SOL     OW 1137   1.940   2.418   1.386
 2197SOL    HW1 1138   2.032   2.417   1.345
 2197SOL    HW2 1139   1.934   2.492   1.453
 2198SOL     OW 1140   2.423   2.084   1.147
 2198SOL    HW1 1141   2.461   2.000   1.184
 2198SOL    HW2 1142   2.335   2.103   1.191
 2202SOL     OW 1143   3.328   2.452   0.992
 2202SOL    HW1 1144   3.298   2.357   0.999
 2202SOL    HW2 1145   3.401   2.468   1.058
 2208SOL     OW 1146   3.616   3.085   1.588
 2208SOL    HW1 1147   3.707   3.046   1.575
 2208SOL    HW2 1148   3.624   3.181   1.612
 2209SOL     OW 1149   2.926   3.209   1.340
 2209SOL    HW1 1150   2.846   3.186   1.395
 2209SOL    HW2 1151   3.009   3.183   1.389
 2210SOL     OW 1152   3.454   3.491   1.625
 2210SOL    HW1 1153   3.481   3.525   1.535
 2210SOL    HW2 1154   3.533   3.453   1.671
 2211SOL     OW 1155   2.973   3.057   1.100
 2211SOL    HW1 1156   2.933   3.101   1.181
 2211SOL    HW2 1157   2.932   3.094   1.017
 2212SOL     OW 1158   3.500   2.961   1.079
 2212SOL    HW1 1159   3.505   3.042   1.138
 2212SOL    HW2 1160   3.414   2.963   1.028
 2213SOL     OW 1161   2.777   1.951   1.402
 2213SOL    HW1 1162   2.802   1.931   1.307
 2213SOL    HW2 1163   2.849   2.007   1.444
 2214SOL     OW 1164   2.842   2.978   1.719
 2214SOL    HW1 1165   2.743   2.984   1.729
 2214SOL    HW2 1166   2.865   2.898   1.663
 2216SOL     OW 1167   2.272   2.675   1.251
 2216SOL    HW1 1168   2.358   2.687   1.301
 2216SOL    HW2 1169   2.230   2.588   1.278
 2217SOL     OW 1170   3.136   2.248   1.262
 2217SOL    HW1 1171   3.157   2.322   1.326
 2217SOL    HW2 1172   3.047   2.265   1.219
 2218SOL     OW 1173   1.926   3.426   1.331
 2218SOL    HW1 1174   1.880   3.508   1.297
 2218SOL    HW2 1175   2.024   3.445   1.340
 2220SOL     OW 1176   2.428   2.399   0.865
 2220SOL    HW1 1177   2.440   2.465   0.791
 2220SOL    HW2 1178   2.474   2.433   0.948
 2222SOL     OW 1179   3.134   3.307   1.142
 2222SOL    HW1 1180   3.181   3.320   1.229
 2222SOL    HW2 1181   3.068   3.233   1.151
 2224SOL     OW 1182   2.216   3.372   1.329
 2224SOL    HW1 1183   2.195   3.328   1.242
 2224SOL    HW2 1184   2.313   3.398   1.332
 2225SOL     OW 1185   2.264   2.613   1.598
 2225SOL    HW1 1186   2.332   2.668   1.551
 2225SOL    HW2 1187   2.304   2.525   1.625
 2226SOL     OW 1188   3.449   2.641   1.670
 2226SOL    HW1 1189   3.357   2.679   1.665
 2226SOL    HW2 1190   3.509   2.688   1.605
 2227SOL     OW 1191   2.875   1.967   1.770
 2227SOL    HW1 1192   2.881   2.052   1.718
 2227SOL    HW2 1193   2.907   1.891   1.713
 2228SOL     OW 1194   2.366   1.912   1.740
 2228SOL    HW1 1195   2.324   1.855   1.670
 2228SOL    HW2 1196   2.300   1.981   1.772
 2229SOL     OW 1197   2.435   2.732   1.029
 2229SOL    HW1 1198   2.479   2.821   1.020
 2229SOL    HW2 1199   2.372   2.732   1.106
 2230SOL     OW 1200   3.222   2.724   1.045
 2230SOL    HW1 1201   3.147   2.724   0.979
 2230SOL    HW2 1202   3.259   2.632   1.054
 2232SOL     OW 1203   2.169   2.075   1.231
 2232SOL    HW1 1204   2.146   2.112   1.321
 2232SOL    HW2 1205   2.139   1.980   1.225
 2233SOL     OW 1206   1.899   3.172   1.282
 2233SOL    HW1 1207   1.952   3.123   1.350
 2233SOL    HW2 1208   1.921   3.270   1.287
 2234SOL     OW 1209   2.594   2.496   1.064
 2234SOL    HW1 1210   2.653   2.470   0.988
 2234SOL    HW2 1211   2.566   2.592   1.053
 2235SOL     OW 1212   3.590   2.797   1.854
 2235SOL    HW1 1213   3.544   2.790   1.765
 2235SOL    HW2 1214   3.528   2.841   1.920
 2238SOL     OW 1215   2.885   2.628   0.966
 2238SOL    HW1 1216   2.900   2.649   1.062
 2238SOL    HW2 1217   2.855   2.533   0.957
 2239SOL     OW 1218   2.842   3.435   1.700
 2239SOL    HW1 1219   2.822   3.479   1.612
 2239SOL    HW2 1220   2.881   3.344   1.684
 2240SOL     OW 1221   3.721   3.380   1.605
 2240SOL    HW1 1222   3.735   3.407   1.510
 2240SOL    HW2 1223   3.804   3.402   1.658
 2241SOL     OW 1224   2.212   2.760   1.804
 2241SOL    HW1 1225   2.288   2.804   1.852
 2241SOL    HW2 1226   2.247   2.713   1.722
 2245SOL     OW 1227   2.181   2.672   0.949
 2245SOL    HW1 1228   2.274   2.708   0.954
 2245SOL    HW2 1229   2.175   2.587   1.001
 2246SOL     OW 1230   2.201   2.371   1.006
 2246SOL    HW1 1231   2.149   2.288   0.989
 2246SOL    HW2 1232   2.278   2.376   0.942
 2247SOL     OW 1233   3.000   2.242   1.678
 2247SOL    HW1 1234   2.955   2.305   1.742
 2247SOL    HW2 1235   3.093   2.273   1.661
 2248SOL     OW 1236   3.022   2.069   1.477
 2248SOL    HW1 1237   3.022   2.133   1.554
 2248SOL    HW2 1238   3.050   2.117   1.394
 2252SOL     OW 1239   2.864   2.658   1.238
 2252SOL    HW1 1240   2.905   2.626   1.324
 2252SOL    HW2 1241   2.768   2.631   1.235
 2253SOL     OW 1242   1.902   2.406   1.114
 2253SOL    HW1 1243   1.987   2.373   1.073
 2253SOL    HW2 1244   1.915   2.421   1.212
 2254SOL     OW 1245   2.051   2.382   1.722
 2254SOL    HW1 1246   2.110   2.342   1.652
 2254SOL    HW2 1247   1.993   2.453   1.681
 2255SOL     OW 1248   3.231   2.812   1.660
 2255SOL    HW1 1249   3.270   2.901   1.680
 2255SOL    HW2 1250   3.241   2.792   1.563
 2257SOL     OW 1251   3.519   2.466   1.206
 2257SOL    HW1 1252   3.481   2.397   1.268
 2257SOL    HW2 1253   3.601   2.430   1.162
 2258SOL     OW 1254   2.114   3.426   1.744
 2258SOL    HW1 1255   2.084   3.483   1.820
 2258SOL    HW2 1256   2.107   3.329   1.770
 2259SOL     OW 1257   2.533   2.326   1.269
 2259SOL    HW1 1258   2.499   2.237   1.239
 2259SOL    HW2 1259   2.559   2.380   1.189
 2260SOL     OW 1260   2.792   3.540   1.465
 2260SOL    HW1 1261   2.768   3.522   1.370
 2260SOL    HW2 1262   2.822   3.634   1.475
 2262SOL     OW 1263   2.021   2.999   1.466
 2262SOL    HW1 1264   2.043   2.938   1.542
 2262SOL    HW2 1265   2.031   2.950   1.380
 2263SOL     OW 1266   3.209   2.921   1.234
 2263SOL    HW1 1267   3.233   2.858   1.160
 2263SOL    HW2 1268   3.119   2.961   1.216
 2267SOL     OW 1269   1.945   3.120   1.022
 2267SOL    HW1 1270   1.940   3.119   1.122
 2267SOL    HW2 1271   1.862   3.079   0.984
 2268SOL     OW 1272   2.550   3.524   1.716
 2268SOL    HW1 1273   2.494   3.605   1.725
 2268SOL    HW2 1274   2.602   3.528   1.630
 2272SOL     OW 1275   1.992   3.656   1.851
 2272SOL    HW1 1276   1.951   3.582   1.904
 2272SOL    HW2 1277   2.056   3.707   1.909
 2274SOL     OW 1278   2.692   3.135   1.422
 2274SOL    HW1 1279   2.687   3.168   1.517
 2274SOL    HW2 1280   2.606   3.154   1.376
 2280SOL     OW 1281   2.684   2.864   1.372
 2280SOL    HW1 1282   2.724   2.863   1.280
 2280SOL    HW2 1283   2.694   2.956   1.412
 2283SOL     OW 1284   2.234   3.150   1.490
 2283SOL    HW1 1285   2.221   3.243   1.456
 2283SOL    HW2 1286   2.150   3.098   1.477
 2284SOL     OW 1287   3.476   3.154   1.289
 2284SOL    HW1 1288   3.536   3.157   1.369
 2284SOL    HW2 1289   3.401   3.218   1.302
 2286SOL     OW 1290   2.876   2.098   0.971
 2286SOL    HW1 1291   2.868   2.062   0.878
 2286SOL    HW2 1292   2.874   2.022   1.036
 2288SOL     OW 1293   3.571   2.247   1.381
 2288SOL    HW1 1294   3.644   2.316   1.385
 2288SOL    HW2 1295   3.599   2.172   1.322
 2290SOL     OW 1296   1.967   2.875   1.726
 2290SOL    HW1 1297   1.890   2.842   1.780
 2290SOL    HW2 1298   2.052   2.845   1.768
 2291SOL     OW 1299   2.534   2.065   1.489
 2291SOL    HW1 1300   2.624   2.049   1.449
 2291SOL    HW2 1301   2.542   2.070   1.588
 2292SOL     OW 1302   3.302   2.718   1.398
 2292SOL    HW1 1303   3.245   2.770   1.335
 2292SOL    HW2 1304   3.398   2.730   1.374
 2295SOL     OW 1305   2.475   2.704   1.431
 2295SOL    HW1 1306   2.531   2.785   1.414
 2295SOL    HW2 1307   2.534   2.624   1.434
 2297SOL     OW 1308   2.578   2.427   1.708
 2297SOL    HW1 1309   2.597   2.492   1.782
 2297SOL    HW2 1310   2.638   2.347   1.717
 2298SOL     OW 1311   3.312   3.082   1.633
 2298SOL    HW1 1312   3.303   3.072   1.732
 2298SOL    HW2 1313   3.408   3.075   1.607
 2299SOL     OW 1314   2.252   3.603   1.560
 2299SOL    HW1 1315   2.161   3.644   1.558
 2299SOL    HW2 1316   2.245   3.509   1.592
 2300SOL     OW 1317   3.536   2.745   1.254
 2300SOL    HW1 1318   3.509   2.656   1.217
 2300SOL    HW2 1319   3.537   2.813   1.181
 2303SOL     OW 1320   3.639   2.204   1.642
 2303SOL    HW1 1321   3.622   2.235   1.548
 2303SOL    HW2 1322   3.555   2.167   1.680
 2304SOL     OW 1323   3.592   2.796   1.517
 2304SOL    HW1 1324   3.630   2.887   1.532
 2304SOL    HW2 1325   3.584   2.779   1.418
 2307SOL     OW 1326   2.721   2.818   0.861
 2307SOL    HW1 1327   2.775   2.749   0.909
 2307SOL    HW2 1328   2.689   2.887   0.927
 2310SOL     OW 1329   2.083   3.176   1.844
 2310SOL    HW1 1330   2.018   3.103   1.823
 2310SOL    HW2 1331   2.087   3.190   1.942
 2312SOL     OW 1332   2.534   3.253   1.624
 2312SOL    HW1 1333   2.456   3.203   1.662
 2312SOL    HW2 1334   2.531   3.348   1.655
 2316SOL     OW 1335   2.179   2.409   1.280
 2316SOL    HW1 1336   2.217   2.350   1.352
 2316SOL    HW2 1337   2.219   2.383   1.192
 2318SOL     OW 1338   3.286   2.076   1.112
 2318SOL    HW1 1339   3.338   2.011   1.167
 2318SOL    HW2 1340   3.237   2.139   1.173
 2319SOL     OW 1341   2.863   1.896   1.154
 2319SOL    HW1 1342   2.800   1.824   1.123
 2319SOL    HW2 1343   2.956   1.860   1.154
 2321SOL     OW 1344   2.480   3.429   1.284
 2321SOL    HW1 1345   2.475   3.511   1.341
 2321SOL    HW2 1346   2.569   3.426   1.239
 2327SOL     OW 1347   2.092   2.490   1.975
 2327SOL    HW1 1348   1.999   2.488   2.012
 2327SOL    HW2 1349   2.093   2.451   1.883
 2328SOL     OW 1350   2.087   2.137   2.858
 2328SOL    HW1 1351   2.122   2.120   2.950
 2328SOL    HW2 1352   1.999   2.092   2.846
 2329SOL     OW 1353   1.881   2.230   2.509
 2329SOL    HW1 1354   1.799   2.273   2.548
 2329SOL    HW2 1355   1.853   2.157   2.446
 2330SOL     OW 1356   2.431   3.137   3.027
 2330SOL    HW1 1357   2.338   3.130   2.990
 2330SOL    HW2 1358   2.442   3.226   3.071
 2331SOL     OW 1359   3.417   3.373   2.565
 2331SOL    HW1 1360   3.360   3.357   2.646
 2331SOL    HW2 1361   3.358   3.383   2.485
 2332SOL     OW 1362   2.997   2.565   2.579
 2332SOL    HW1 1363   3.054   2.643   2.554
 2332SOL    HW2 1364   2.937   2.591   2.655
 2333SOL     OW 1365   3.617   2.469   2.093
 2333SOL    HW1 1366   3.605   2.456   1.994
 2333SOL    HW2 1367   3.587   2.388   2.142
 2334SOL     OW 1368   2.630   3.006   2.885
 2334SOL    HW1 1369   2.552   3.023   2.945
 2334SOL    HW2 1370   2.664   3.093   2.849
 2335SOL     OW 1371   2.712   2.660   3.685
 2335SOL    HW1 1372   2.708   2.736   3.750
 2335SOL    HW2 1373   2.734   2.696   3.594
 2336SOL     OW 1374   2.548   3.023   3.665
 2336SOL    HW1 1375   2.608   3.102   3.679
 2336SOL    HW2 1376   2.462   3.054   3.624
 2337SOL     OW 1377   2.197   3.297   2.923
 2337SOL    HW1 1378   2.119   3.266   2.870
 2337SOL    HW2 1379   2.255   3.355   2.866
 2338SOL     OW 1380   3.322   3.367   3.201
 2338SOL    HW1 1381   3.346   3.461   3.227
 2338SOL    HW2 1382   3.306   3.313   3.283
 2339SOL     OW 1383   2.300   2.254   3.361
 2339SOL    HW1 1384   2.382   2.198   3.370
 2339SOL    HW2 1385   2.219   2.196   3.365
 2340SOL     OW 1386   3.465   2.309   2.599
 2340SOL    HW1 1387   3.391   2.355   2.549
 2340SOL    HW2 1388   3.516   2.377   2.652
 2341SOL     OW 1389   2.093   3.575   2.345
 2341SOL    HW1 1390   2.127   3.652   2.399
 2341SOL    HW2 1391   2.137   3.575   2.255
 2342SOL     OW 1392   2.989   3.203   3.552
 2342SOL    HW1 1393   3.036   3.203   3.640
 2342SOL    HW2 1394   2.941   3.116   3.541
 2343SOL     OW 1395   2.092   3.296   2.400
 2343SOL    HW1 1396   2.066   3.392   2.400
 2343SOL    HW2 1397   2.021   3.242   2.445
 2344SOL     OW 1398   2.102   2.953   2.748
 2344SOL    HW1 1399   2.116   2.869   2.800
 2344SOL    HW2 1400   2.047   3.017   2.803
 2345SOL     OW 1401   2.482   3.648   3.301
 2345SOL    HW1 1402   2.390   3.631   3.336
 2345SOL    HW2 1403   2.510   3.740   3.327
 2346SOL     OW 1404   2.468   2.826   1.985
 2346SOL    HW1 1405   2.475   2.910   1.931
 2346SOL    HW2 1406   2.514   2.839   2.073
 2347SOL     OW 1407   3.456   1.976   3.342
 2347SOL    HW1 1408   3.438   2.043   3.270
 2347SOL    HW2 1409   3.453   2.022   3.431
 2348SOL     OW 1410   1.984   2.505   2.425
 2348SOL    HW1 1411   1.939   2.417   2.442
 2348SOL    HW2 1412   1.983   2.559   2.509
 2349SOL     OW 1413   3.704   3.629   2.221
 2349SOL    HW1 1414   3.758   3.600   2.301
 2349SOL    HW2 1415   3.734   3.719   2.192
 2350SOL     OW 1416   1.889   3.458   1.979
 2350SOL    HW1 1417   1.870   3.362   2.000
 2350SOL    HW2 1418   1.856   3.516   2.054
 2351SOL     OW 1419   3.551   2.784   2.474
 2351SOL    HW1 1420   3.646   2.755   2.482
 2351SOL    HW2 1421   3.543   2.849   2.399
 2352SOL     OW 1422   3.503   2.970   2.294
 2352SOL    HW1 1423   3.589   2.972   2.242
 2352SOL    HW2 1424   3.517   3.017   2.382
 2353SOL     OW 1425   1.975   2.599   3.459
 2353SOL    HW1 1426   2.063   2.586   3.504
 2353SOL    HW2 1427   1.962   2.696   3.437
 2354SOL     OW 1428   2.475   3.227   2.588
 2354SOL    HW1 1429   2.426   3.140   2.597
 2354SOL    HW2 1430   2.452   3.270   2.501
 2355SOL     OW 1431   3.155   3.090   3.285
 2355SOL    HW1 1432   3.192   3.017   3.227
 2355SOL    HW2 1433   3.207   3.095   3.370
 2356SOL     OW 1434   2.671   1.866   2.364
 2356SOL    HW1 1435   2.711   1.957   2.355
 2356SOL    HW2 1436   2.571   1.874   2.370
 2357SOL     OW 1437   2.059   2.838   3.126
 2357SOL    HW1 1438   2.148   2.793   3.112
 2357SOL    HW2 1439   1.986   2.773   3.107
 2358SOL     OW 1440   3.387   2.861   2.052
 2358SOL    HW1 1441   3.324   2.785   2.065
 2358SOL    HW2 1442   3.435   2.879   2.138
 2359SOL     OW 1443   3.049   3.654   3.478
 2359SOL    HW1 1444   3.073   3.714   3.402
 2359SOL    HW2 1445   3.056   3.559   3.448
 2360SOL     OW 1446   2.179   2.113   3.663
 2360SOL    HW1 1447   2.250   2.184   3.669
 2360SOL    HW2 1448   2.091   2.152   3.691
 2361SOL     OW 1449   3.328   3.279   2.815
 2361SOL    HW1 1450   3.269   3.285   2.895
 2361SOL    HW2 1451   3.313   3.191   2.769
 2362SOL     OW 1452   3.529   3.576   2.434
 2362SOL    HW1 1453   3.488   3.553   2.346
 2362SOL    HW2 1454   3.511   3.502   2.499
 2363SOL     OW 1455   2.460   2.591   2.132
 2363SOL    HW1 1456   2.484   2.660   2.064
 2363SOL    HW2 1457   2.382   2.624   2.186
 2364SOL     OW 1458   3.143   2.207   2.806
 2364SOL    HW1 1459   3.057   2.157   2.793
 2364SOL    HW2 1460   3.205   2.153   2.862
 2365SOL     OW 1461   3.438   3.524   2.169
 2365SOL    HW1 1462   3.527   3.570   2.172
 2365SOL    HW2 1463   3.417   3.500   2.074
 2366SOL     OW 1464   2.669   2.467   3.327
 2366SOL    HW1 1465   2.622   2.464   3.416
 2366SOL    HW2 1466   2.618   2.412   3.261
 2367SOL     OW 1467   3.256   2.331   3.536
 2367SOL    HW1 1468   3.236   2.374   3.624
 2367SOL    HW2 1469   3.334   2.269   3.545
 2368SOL     OW 1470   2.835   2.752   3.434
 2368SOL    HW1 1471   2.881   2.668   3.405
 2368SOL    HW2 1472   2.779   2.786   3.359
 2369SOL     OW 1473   2.853   2.272   3.104
 2369SOL    HW1 1474   2.776   2.306   3.158
 2369SOL    HW2 1475   2.819   2.221   3.025
 2370SOL     OW 1476   2.903   2.563   2.291
 2370SOL    HW1 1477   2.929   2.559   2.387
 2370SOL    HW2 1478   2.818   2.512   2.277
 2371SOL     OW 1479   1.938   2.673   2.651
 2371SOL    HW1 1480   2.037   2.661   2.660
 2371SOL    HW2 1481   1.914   2.768   2.672
 2372SOL     OW 1482   1.992   3.683   3.433
 2372SOL    HW1 1483   1.982   3.668   3.532
 2372SOL    HW2 1484   1.906   3.719   3.397
 2373SOL     OW 1485   2.727   2.210   2.057
 2373SOL    HW1 1486   2.786   2.273   2.008
 2373SOL    HW2 1487   2.746   2.116   2.028
 2374SOL     OW 1488   3.581   2.447   3.693
 2374SOL    HW1 1489   3.555   2.536   3.657
 2374SOL    HW2 1490   3.579   2.379   3.620
 2375SOL     OW 1491   3.224   3.006   2.407
 2375SOL    HW1 1492   3.307   2.977   2.359
 2375SOL    HW2 1493   3.175   3.073   2.351
 2376SOL     OW 1494   2.870   3.318   2.339
 2376SOL    HW1 1495   2.824   3.390   2.287
 2376SOL    HW2 1496   2.866   3.338   2.437
 2377SOL     OW 1497   2.213   3.663   2.715
 2377SOL    HW1 1498   2.263   3.577   2.721
 2377SOL    HW2 1499   2.278   3.740   2.712
 2378SOL     OW 1500   3.657   2.928   2.735
 2378SOL    HW1 1501   3.595   2.913   2.659
 2378SOL    HW2 1502   3.605   2.939   2.820
 2379SOL     OW 1503   3.089   3.412   3.368
 2379SOL    HW1 1504   3.095   3.335   3.432
 2379SOL    HW2 1505   3.037   3.386   3.288
 2380SOL     OW 1506   2.183   2.805   2.104
 2380SOL    HW1 1507   2.265   2.844   2.062
 2380SOL    HW2 1508   2.156   2.723   2.055
 2381SOL     OW 1509   3.320   2.597   2.590
 2381SOL    HW1 1510   3.315   2.532   2.665
 2381SOL    HW2 1511   3.400   2.656   2.603
 2382SOL     OW 1512   2.323   3.128   3.589
 2382SOL    HW1 1513   2.273   3.129   3.503
 2382SOL    HW2 1514   2.260   3.110   3.665
 2383SOL     OW 1515   2.973   3.638   2.099
 2383SOL    HW1 1516   2.913   3.576   2.149
 2383SOL    HW2 1517   3.004   3.594   2.014
 2384SOL     OW 1518   2.064   2.147   3.360
 2384SOL    HW1 1519   1.984   2.207   3.347
 2384SOL    HW2 1520   2.054   2.098   3.446
 2385SOL     OW 1521   3.494   3.239   1.943
 2385SOL    HW1 1522   3.462   3.333   1.933
 2385SOL    HW2 1523   3.418   3.176   1.931
 2386SOL     OW 1524   2.326   3.605   2.185
 2386SOL    HW1 1525   2.359   3.644   2.271
 2386SOL    HW2 1526   2.402   3.598   2.120
 2387SOL     OW 1527   3.262   1.969   2.288
 2387SOL    HW1 1528   3.238   1.932   2.198
 2387SOL    HW2 1529   3.361   1.985   2.292
 2388SOL     OW 1530   2.111   3.647   3.103
 2388SOL    HW1 1531   2.168   3.582   3.153
 2388SOL    HW2 1532   2.095   3.614   3.010
 2389SOL     OW 1533   2.802   3.560   2.766
 2389SOL    HW1 1534   2.882   3.503   2.787
 2389SOL    HW2 1535   2.753   3.520   2.689
 2390SOL     OW 1536   2.244   2.562   2.342
 2390SOL    HW1 1537   2.289   2.472   2.339
 2390SOL    HW2 1538   2.150   2.551   2.375
 2391SOL     OW 1539   3.409   2.084   3.591
 2391SOL    HW1 1540   3.404   2.121   3.683
 2391SOL    HW2 1541   3.337   2.015   3.579
 2392SOL     OW 1542   2.476   1.984   1.979
 2392SOL    HW1 1543   2.574   1.962   1.986
 2392SOL    HW2 1544   2.445   1.967   1.886
 2393SOL     OW 1545   2.643   2.126   3.611
 2393SOL    HW1 1546   2.710   2.065   3.654
 2393SOL    HW2 1547   2.570   2.145   3.676
 2394SOL     OW 1548   2.750   3.376   3.057
 2394SOL    HW1 1549   2.727   3.351   2.963
 2394SOL    HW2 1550   2.811   3.307   3.096
 2395SOL     OW 1551   3.213   2.452   3.295
 2395SOL    HW1 1552   3.241   2.409   3.380
 2395SOL    HW2 1553   3.238   2.548   3.296
 2396SOL     OW 1554   2.665   3.264   2.786
 2396SOL    HW1 1555   2.755   3.278   2.744
 2396SOL    HW2 1556   2.594   3.266   2.715
 2397SOL     OW 1557   2.784   2.365   2.761
 2397SOL    HW1 1558   2.759   2.356   2.665
 2397SOL    HW2 1559   2.832   2.283   2.792
 2398SOL     OW 1560   2.401   1.926   2.374
 2398SOL    HW1 1561   2.320   1.927   2.432
 2398SOL    HW2 1562   2.404   2.009   2.319
 2399SOL     OW 1563   3.296   3.050   1.903
 2399SOL    HW1 1564   3.328   2.974   1.960
 2399SOL    HW2 1565   3.204   3.077   1.933
 2400SOL     OW 1566   2.159   1.897   2.033
 2400SOL    HW1 1567   2.208   1.981   2.012
 2400SOL    HW2 1568   2.221   1.832   2.078
 2401SOL     OW 1569   2.797   2.098   2.342
 2401SOL    HW1 1570   2.749   2.139   2.264
 2401SOL    HW2 1571   2.896   2.096   2.323
 2402SOL     OW 1572   2.938   2.545   3.326
 2402SOL    HW1 1573   2.858   2.484   3.329
 2402SOL    HW2 1574   3.019   2.492   3.302
 2403SOL     OW 1575   3.089   3.432   2.655
 2403SOL    HW1 1576   3.110   3.506   2.590
 2403SOL    HW2 1577   3.157   3.432   2.728
 2404SOL     OW 1578   2.321   3.014   2.603
 2404SOL    HW1 1579   2.250   2.987   2.668
 2404SOL    HW2 1580   2.295   2.986   2.510
 2405SOL     OW 1581   3.133   3.659   2.453
 2405SOL    HW1 1582   3.177   3.723   2.389
 2405SOL    HW2 1583   3.083   3.711   2.523
 2406SOL     OW 1584   2.894   2.411   1.878
 2406SOL    HW1 1585   2.853   2.493   1.839
 2406SOL    HW2 1586   2.958   2.437   1.951
 2407SOL     OW 1587   1.940   2.418   3.248
 2407SOL    HW1 1588   2.032   2.417   3.207
 2407SOL    HW2 1589   1.934   2.492   3.315
 2408SOL     OW 1590   2.423   2.084   3.009
 2408SOL    HW1 1591   2.461   2.000   3.046
 2408SOL    HW2 1592   2.335   2.103   3.053
 2409SOL     OW 1593   2.879   1.901   2.615
 2409SOL    HW1 1594   2.807   1.906   2.546
 2409SOL    HW2 1595   2.855   1.832   2.684
 2410SOL     OW 1596   3.291   3.035   2.729
 2410SOL    HW1 1597   3.236   2.951   2.722
 2410SOL    HW2 1598   3.317   3.064   2.637
 2411SOL     OW 1599   3.328   2.452   2.854
 2411SOL    HW1 1600   3.298   2.357   2.861
 2411SOL    HW2 1601   3.401   2.468   2.920
 2412SOL     OW 1602   3.719   2.695   2.239
 2412SOL    HW1 1603   3.761   2.631   2.303
 2412SOL    HW2 1604   3.681   2.644   2.161
 2413SOL     OW 1605   2.350   3.247   2.036
 2413SOL    HW1 1606   2.263   3.232   2.083
 2413SOL    HW2 1607   2.333   3.273   1.941
 2414SOL     OW 1608   3.526   3.142   2.519
 2414SOL    HW1 1609   3.625   3.150   2.533
 2414SOL    HW2 1610   3.481   3.226   2.550
 2415SOL     OW 1611   3.252   2.437   1.940
 2415SOL    HW1 1612   3.198   2.416   2.021
 2415SOL    HW2 1613   3.343   2.396   1.949
 2416SOL     OW 1614   2.389   2.118   2.190
 2416SOL    HW1 1615   2.416   2.059   2.115
 2416SOL    HW2 1616   2.389   2.213   2.159
 2417SOL     OW 1617   3.616   3.085   3.450
 2417SOL    HW1 1618   3.707   3.046   3.437
 2417SOL    HW2 1619   3.624   3.181   3.474
 2418SOL     OW 1620   2.926   3.209   3.202
 2418SOL    HW1 1621   2.846   3.186   3.257
 2418SOL    HW2 1622   3.009   3.183   3.251
 2419SOL     OW 1623   3.454   3.491   3.487
 2419SOL    HW1 1624   3.481   3.525   3.397
 2419SOL    HW2 1625   3.533   3.453   3.533
 2420SOL     OW 1626   2.973   3.057   2.962
 2420SOL    HW1 1627   2.933   3.101   3.043
 2420SOL    HW2 1628   2.932   3.094   2.879
 2421SOL     OW 1629   3.500   2.961   2.941
 2421SOL    HW1 1630   3.505   3.042   3.000
 2421SOL    HW2 1631   3.414   2.963   2.890
 2422SOL     OW 1632   2.777   1.951   3.264
 2422SOL    HW1 1633   2.802   1.931   3.169
 2422SOL    HW2 1634   2.849   2.007   3.306
 2423SOL     OW 1635   2.842   2.978   3.581
 2423SOL    HW1 1636   2.743   2.984   3.591
 2423SOL    HW2 1637   2.865   2.898   3.525
 2424SOL     OW 1638   2.272   2.675   3.113
 2424SOL    HW1 1639   2.358   2.687   3.163
 2424SOL    HW2 1640   2.230   2.588   3.140
 2425SOL     OW 1641   3.136   2.248   3.124
 2425SOL    HW1 1642   3.157   2.322   3.188
 2425SOL    HW2 1643   3.047   2.265   3.081
 2426SOL     OW 1644   1.926   3.426   3.193
 2426SOL    HW1 1645   1.880   3.508   3.159
 2426SOL    HW2 1646   2.024   3.445   3.202
 2427SOL     OW 1647   2.229   2.962   2.363
 2427SOL    HW1 1648   2.222   3.045   2.307
 2427SOL    HW2 1649   2.233   2.882   2.303
 2428SOL     OW 1650   3.114   3.210   2.250
 2428SOL    HW1 1651   3.164   3.287   2.290
 2428SOL    HW2 1652   3.019   3.212   2.282
 2429SOL     OW 1653   3.134   3.307   3.004
 2429SOL    HW1 1654   3.181   3.320   3.091
 2429SOL    HW2 1655   3.068   3.233   3.013
 2430SOL     OW 1656   3.444   2.501   2.334
 2430SOL    HW1 1657   3.413   2.562   2.407
 2430SOL    HW2 1658   3.494   2.553   2.265
 2431SOL     OW 1659   2.216   3.372   3.191
 2431SOL    HW1 1660   2.195   3.328   3.104
 2431SOL    HW2 1661   2.313   3.398   3.194
 2432SOL     OW 1662   2.264   2.613   3.460
 2432SOL    HW1 1663   2.332   2.668   3.413
 2432SOL    HW2 1664   2.304   2.525   3.487
 2433SOL     OW 1665   3.449   2.641   3.532
 2433SOL    HW1 1666   3.357   2.679   3.527
 2433SOL    HW2 1667   3.509   2.688   3.467
 2434SOL     OW 1668   2.875   1.967   3.632
 2434SOL    HW1 1669   2.881   2.052   3.580
 2434SOL    HW2 1670   2.907   1.891   3.575
 2435SOL     OW 1671   2.366   1.912   3.602
 2435SOL    HW1 1672   2.324   1.855   3.532
 2435SOL    HW2 1673   2.300   1.981   3.634
 2436SOL     OW 1674   2.435   2.732   2.891
 2436SOL    HW1 1675   2.479   2.821   2.882
 2436SOL    HW2 1676   2.372   2.732   2.968
 2437SOL     OW 1677   3.222   2.724   2.907
 2437SOL    HW1 1678   3.147   2.724   2.841
 2437SOL    HW2 1679   3.259   2.632   2.916
 2438SOL     OW 1680   3.071   2.387   2.137
 2438SOL    HW1 1681   3.084   2.303   2.191
 2438SOL    HW2 1682   3.042   2.461   2.197
 2439SOL     OW 1683   2.169   2.075   3.093
 2439SOL    HW1 1684   2.146   2.112   3.183
 2439SOL    HW2 1685   2.139   1.980   3.087
 2440SOL     OW 1686   1.899   3.172   3.144
 2440SOL    HW1 1687   1.952   3.123   3.212
 2440SOL    HW2 1688   1.921   3.270   3.149
 2441SOL     OW 1689   2.594   2.496   2.926
 2441SOL    HW1 1690   2.653   2.470   2.850
 2441SOL    HW2 1691   2.566   2.592   2.915
 2442SOL     OW 1692   3.590   2.797   3.716
 2442SOL    HW1 1693   3.544   2.790   3.627
 2442SOL    HW2 1694   3.528   2.841   3.782
 2443SOL     OW 1695   2.169   1.925   2.480
 2443SOL    HW1 1696   2.158   2.019   2.513
 2443SOL    HW2 1697   2.164   1.862   2.557
 2444SOL     OW 1698   3.484   2.229   2.236
 2444SOL    HW1 1699   3.486   2.153   2.300
 2444SOL    HW2 1700   3.436   2.306   2.276
 2445SOL     OW 1701   2.885   2.628   2.828
 2445SOL    HW1 1702   2.900   2.649   2.924
 2445SOL    HW2 1703   2.855   2.533   2.819
 2446SOL     OW 1704   2.842   3.435   3.562
 2446SOL    HW1 1705   2.822   3.479   3.474
 2446SOL    HW2 1706   2.881   3.344   3.546
 2447SOL     OW 1707   3.721   3.380   3.467
 2447SOL    HW1 1708   3.735   3.407   3.372
 2447SOL    HW2 1709   3.804   3.402   3.520
 2448SOL     OW 1710   2.212   2.760   3.666
 2448SOL    HW1 1711   2.288   2.804   3.714
 2448SOL    HW2 1712   2.247   2.713   3.584
 2449SOL     OW 1713   3.402   2.136   1.987
 2449SOL    HW1 1714   3.341   2.061   2.010
 2449SOL    HW2 1715   3.424   2.188   2.070
 2450SOL     OW 1716   3.165   2.700   1.904
 2450SOL    HW1 1717   3.199   2.607   1.919
 2450SOL    HW2 1718   3.183   2.727   1.809
 2451SOL     OW 1719   2.930   3.195   2.711
 2451SOL    HW1 1720   2.937   3.111   2.656
 2451SOL    HW2 1721   2.992   3.264   2.675
 2452SOL     OW 1722   2.181   2.672   2.811
 2452SOL    HW1 1723   2.274   2.708   2.816
 2452SOL    HW2 1724   2.175   2.587   2.863
 2453SOL     OW 1725   2.201   2.371   2.868
 2453SOL    HW1 1726   2.149   2.288   2.851
 2453SOL    HW2 1727   2.278   2.376   2.804
 2454SOL     OW 1728   3.000   2.242   3.540
 2454SOL    HW1 1729   2.955   2.305   3.604
 2454SOL    HW2 1730   3.093   2.273   3.523
 2455SOL     OW 1731   3.022   2.069   3.339
 2455SOL    HW1 1732   3.022   2.133   3.416
 2455SOL    HW2 1733   3.050   2.117   3.256
 2456SOL     OW 1734   1.870   3.188   2.062
 2456SOL    HW1 1735   1.777   3.209   2.031
 2456SOL    HW2 1736   1.880   3.089   2.075
 2457SOL     OW 1737   1.950   3.663   2.789
 2457SOL    HW1 1738   1.908   3.577   2.762
 2457SOL    HW2 1739   2.044   3.666   2.755
 2458SOL     OW 1740   2.366   3.430   2.772
 2458SOL    HW1 1741   2.432   3.504   2.781
 2458SOL    HW2 1742   2.410   3.351   2.730
 2459SOL     OW 1743   2.864   2.658   3.100
 2459SOL    HW1 1744   2.905   2.626   3.186
 2459SOL    HW2 1745   2.768   2.631   3.097
 2460SOL     OW 1746   1.902   2.406   2.976
 2460SOL    HW1 1747   1.987   2.373   2.935
 2460SOL    HW2 1748   1.915   2.421   3.074
 2461SOL     OW 1749   2.051   2.382   3.584
 2461SOL    HW1 1750   2.110   2.342   3.514
 2461SOL    HW2 1751   1.993   2.453   3.543
 2462SOL     OW 1752   3.231   2.812   3.522
 2462SOL    HW1 1753   3.270   2.901   3.542
 2462SOL    HW2 1754   3.241   2.792   3.425
 2463SOL     OW 1755   2.677   2.434   2.187
 2463SOL    HW1 1756   2.684   2.345   2.141
 2463SOL    HW2 1757   2.583   2.468   2.179
 2464SOL     OW 1758   3.519   2.466   3.068
 2464SOL    HW1 1759   3.481   2.397   3.130
 2464SOL    HW2 1760   3.601   2.430   3.024
 2465SOL     OW 1761   2.114   3.426   3.606
 2465SOL    HW1 1762   2.084   3.483   3.682
 2465SOL    HW2 1763   2.107   3.329   3.632
 2466SOL     OW 1764   2.533   2.326   3.131
 2466SOL    HW1 1765   2.499   2.237   3.101
 2466SOL    HW2 1766   2.559   2.380   3.051
 2467SOL     OW 1767   2.792   3.540   3.327
 2467SOL    HW1 1768   2.768   3.522   3.232
 2467SOL    HW2 1769   2.822   3.634   3.337
 2468SOL     OW 1770   2.335   2.362   2.053
 2468SOL    HW1 1771   2.396   2.442   2.057
 2468SOL    HW2 1772   2.240   2.393   2.060
 2469SOL     OW 1773   2.021   2.999   3.328
 2469SOL    HW1 1774   2.043   2.938   3.404
 2469SOL    HW2 1775   2.031   2.950   3.242
 2470SOL     OW 1776   3.209   2.921   3.096
 2470SOL    HW1 1777   3.233   2.858   3.022
 2470SOL    HW2 1778   3.119   2.961   3.078
 2471SOL     OW 1779   3.164   2.717   2.171
 2471SOL    HW1 1780   3.078   2.686   2.213
 2471SOL    HW2 1781   3.160   2.703   2.072
 2472SOL     OW 1782   3.621   3.609   3.016
 2472SOL    HW1 1783   3.682   3.639   2.943
 2472SOL    HW2 1784   3.583   3.520   2.994
 2473SOL     OW 1785   3.114   3.593   2.990
 2473SOL    HW1 1786   3.198   3.598   2.936
 2473SOL    HW2 1787   3.091   3.497   3.008
 2474SOL     OW 1788   1.945   3.120   2.884
 2474SOL    HW1 1789   1.940   3.119   2.984
 2474SOL    HW2 1790   1.862   3.079   2.846
 2475SOL     OW 1791   2.550   3.524   3.578
 2475SOL    HW1 1792   2.494   3.605   3.587
 2475SOL    HW2 1793   2.602   3.528   3.492
 2476SOL     OW 1794   3.588   1.997   2.385
 2476SOL    HW1 1795   3.661   1.980   2.318
 2476SOL    HW2 1796   3.557   1.910   2.423
 2477SOL     OW 1797   3.250   3.435   2.339
 2477SOL    HW1 1798   3.317   3.447   2.265
 2477SOL    HW2 1799   3.210   3.524   2.362
 2478SOL     OW 1800   1.992   3.656   3.713
 2478SOL    HW1 1801   1.951   3.582   3.766
 2478SOL    HW2 1802   2.056   3.707   3.771
 2479SOL     OW 1803   3.142   2.789   2.534
 2479SOL    HW1 1804   3.202   2.708   2.536
 2479SOL    HW2 1805   3.182   2.858   2.474
 2480SOL     OW 1806   2.692   3.135   3.284
 2480SOL    HW1 1807   2.687   3.168   3.379
 2480SOL    HW2 1808   2.606   3.154   3.238
 2481SOL     OW 1809   2.534   3.478   2.016
 2481SOL    HW1 1810   2.543   3.488   1.917
 2481SOL    HW2 1811   2.494   3.389   2.037
 2482SOL     OW 1812   3.512   3.582   3.256
 2482SOL    HW1 1813   3.565   3.592   3.172
 2482SOL    HW2 1814   3.485   3.672   3.290
 2483SOL     OW 1815   3.703   2.037   2.825
 2483SOL    HW1 1816   3.742   1.952   2.789
 2483SOL    HW2 1817   3.605   2.039   2.806
 2484SOL     OW 1818   3.056   3.474   1.893
 2484SOL    HW1 1819   3.062   3.381   1.930
 2484SOL    HW2 1820   2.997   3.474   1.813
 2485SOL     OW 1821   2.684   2.864   3.234
 2485SOL    HW1 1822   2.724   2.863   3.142
 2485SOL    HW2 1823   2.694   2.956   3.274
 2486SOL     OW 1824   2.778   2.772   2.153
 2486SOL    HW1 1825   2.841   2.810   2.085
 2486SOL    HW2 1826   2.818   2.689   2.192
 2487SOL     OW 1827   3.366   3.469   1.906
 2487SOL    HW1 1828   3.274   3.506   1.913
 2487SOL    HW2 1829   3.404   3.489   1.816
 2488SOL     OW 1830   2.234   3.150   3.352
 2488SOL    HW1 1831   2.221   3.243   3.318
 2488SOL    HW2 1832   2.150   3.098   3.339
 2489SOL     OW 1833   3.476   3.154   3.151
 2489SOL    HW1 1834   3.536   3.157   3.231
 2489SOL    HW2 1835   3.401   3.218   3.164
 2490SOL     OW 1836   2.876   2.098   2.833
 2490SOL    HW1 1837   2.868   2.062   2.740
 2490SOL    HW2 1838   2.874   2.022   2.898
 2491SOL     OW 1839   2.452   3.349   2.353
 2491SOL    HW1 1840   2.494   3.291   2.283
 2491SOL    HW2 1841   2.408   3.428   2.309
 2492SOL     OW 1842   3.571   2.247   3.243
 2492SOL    HW1 1843   3.644   2.316   3.247
 2492SOL    HW2 1844   3.599   2.172   3.184
 2493SOL     OW 1845   2.117   3.210   2.152
 2493SOL    HW1 1846   2.021   3.211   2.125
 2493SOL    HW2 1847   2.129   3.263   2.236
 2494SOL     OW 1848   1.967   2.875   3.588
 2494SOL    HW1 1849   1.890   2.842   3.642
 2494SOL    HW2 1850   2.052   2.845   3.630
 2495SOL     OW 1851   2.534   2.065   3.351
 2495SOL    HW1 1852   2.624   2.049   3.311
 2495SOL    HW2 1853   2.542   2.070   3.450
 2496SOL     OW 1854   1.937   2.207   1.895
 2496SOL    HW1 1855   1.845   2.179   1.866
 2496SOL    HW2 1856   1.968   2.284   1.839
 2497SOL     OW 1857   3.302   2.718   3.260
 2497SOL    HW1 1858   3.245   2.770   3.197
 2497SOL    HW2 1859   3.398   2.730   3.236
 2498SOL     OW 1860   1.934   2.028   2.180
 2498SOL    HW1 1861   1.917   2.111   2.126
 2498SOL    HW2 1862   2.024   1.991   2.158
 2499SOL     OW 1863   3.045   3.197   1.981
 2499SOL    HW1 1864   2.946   3.186   1.983
 2499SOL    HW2 1865   3.079   3.212   2.074
 2500SOL     OW 1866   2.475   2.704   3.293
 2500SOL    HW1 1867   2.531   2.785   3.276
 2500SOL    HW2 1868   2.534   2.624   3.296
 2501SOL     OW 1869   3.355   3.629   2.821
 2501SOL    HW1 1870   3.388   3.693   2.752
 2501SOL    HW2 1871   3.421   3.623   2.896
 2502SOL     OW 1872   2.578   2.427   3.570
 2502SOL    HW1 1873   2.597   2.492   3.644
 2502SOL    HW2 1874   2.638   2.347   3.579
 2503SOL     OW 1875   3.312   3.082   3.495
 2503SOL    HW1 1876   3.303   3.072   3.594
 2503SOL    HW2 1877   3.408   3.075   3.469
 2504SOL     OW 1878   2.252   3.603   3.422
 2504SOL    HW1 1879   2.161   3.644   3.420
 2504SOL    HW2 1880   2.245   3.509   3.454
 2505SOL     OW 1881   3.536   2.745   3.116
 2505SOL    HW1 1882   3.509   2.656   3.079
 2505SOL    HW2 1883   3.537   2.813   3.043
 2506SOL     OW 1884   3.087   2.187   2.311
 2506SOL    HW1 1885   3.152   2.113   2.300
 2506SOL    HW2 1886   3.107   2.237   2.395
 2507SOL     OW 1887   3.639   2.204   3.504
 2507SOL    HW1 1888   3.622   2.235   3.410
 2507SOL    HW2 1889   3.555   2.167   3.542
 2508SOL     OW 1890   3.592   2.796   3.379
 2508SOL    HW1 1891   3.630   2.887   3.394
 2508SOL    HW2 1892   3.584   2.779   3.280
 2509SOL     OW 1893   2.721   3.236   1.878
 2509SOL    HW1 1894   2.675   3.251   1.966
 2509SOL    HW2 1895   2.765   3.321   1.848
 2510SOL     OW 1896   2.523   3.652   2.815
 2510SOL    HW1 1897   2.477   3.740   2.802
 2510SOL    HW2 1898   2.622   3.664   2.808
 2511SOL     OW 1899   2.721   2.818   2.723
 2511SOL    HW1 1900   2.775   2.749   2.771
 2511SOL    HW2 1901   2.689   2.887   2.789
 2512SOL     OW 1902   2.945   2.846   1.949
 2512SOL    HW1 1903   2.922   2.899   1.867
 2512SOL    HW2 1904   3.026   2.790   1.930
 2513SOL     OW 1905   3.723   3.431   2.713
 2513SOL    HW1 1906   3.652   3.419   2.643
 2513SOL    HW2 1907   3.724   3.352   2.773
 2514SOL     OW 1908   2.083   3.176   3.706
 2514SOL    HW1 1909   2.018   3.103   3.685
 2514SOL    HW2 1910   2.087   3.190   3.804
 2515SOL     OW 1911   1.941   3.102   2.515
 2515SOL    HW1 1912   1.940   3.055   2.603
 2515SOL    HW2 1913   2.023   3.074   2.464
 2516SOL     OW 1914   2.534   3.253   3.486
 2516SOL    HW1 1915   2.456   3.203   3.524
 2516SOL    HW2 1916   2.531   3.348   3.517
 2517SOL     OW 1917   3.686   2.054   3.089
 2517SOL    HW1 1918   3.682   1.964   3.133
 2517SOL    HW2 1919   3.689   2.043   2.990
 2518SOL     OW 1920   3.567   3.349   2.966
 2518SOL    HW1 1921   3.474   3.324   2.939
 2518SOL    HW2 1922   3.593   3.299   3.048
 2519SOL     OW 1923   2.179   2.409   3.142
 2519SOL    HW1 1924   2.217   2.350   3.214
 2519SOL    HW2 1925   2.219   2.383   3.054
 2520SOL     OW 1926   2.674   3.448   2.549
 2520SOL    HW1 1927   2.706   3.458   2.455
 2520SOL    HW2 1928   2.595   3.386   2.551
 2521SOL     OW 1929   3.286   2.076   2.974
 2521SOL    HW1 1930   3.338   2.011   3.029
 2521SOL    HW2 1931   3.237   2.139   3.035
 2522SOL     OW 1932   2.863   1.896   3.016
 2522SOL    HW1 1933   2.800   1.824   2.985
 2522SOL    HW2 1934   2.956   1.860   3.016
 2523SOL     OW 1935   2.632   3.192   2.163
 2523SOL    HW1 1936   2.586   3.105   2.180
 2523SOL    HW2 1937   2.723   3.189   2.204
 2524SOL     OW 1938   2.480   3.429   3.146
 2524SOL    HW1 1939   2.475   3.511   3.203
 2524SOL    HW2 1940   2.569   3.426   3.101
 2525SOL     OW 1941   3.214   1.914   2.030
 2525SOL    HW1 1942   3.249   1.873   1.946
 2525SOL    HW2 1943   3.124   1.876   2.050
 2526SOL     OW 1944   3.162   2.315   2.553
 2526SOL    HW1 1945   3.103   2.395   2.557
 2526SOL    HW2 1946   3.177   2.280   2.646
 2527SOL     OW 1947   3.455   2.083   2.744
 2527SOL    HW1 1948   3.371   2.082   2.798
 2527SOL    HW2 1949   3.457   2.166   2.688
 2528SOL     OW 1950   1.901   2.939   2.162
 2528SOL    HW1 1951   2.000   2.928   2.153
 2528SOL    HW2 1952   1.861   2.853   2.194
 2529SOL     OW 1953   2.737   3.508   2.199
 2529SOL    HW1 1954   2.660   3.473   2.145
 2529SOL    HW2 1955   2.705   3.579   2.261
 2530SOL     OW 1956   2.092   2.490   3.837
 2530SOL    HW1 1957   1.999   2.488   3.874
 2530SOL    HW2 1958   2.093   2.451   3.745
 2544SOL     OW 1959   2.468   2.826   3.847
 2544SOL    HW1 1960   2.475   2.910   3.793
 2544SOL    HW2 1961   2.514   2.839   3.935
 2547SOL     OW 1962   1.889   3.458   3.841
 2547SOL    HW1 1963   1.870   3.362   3.862
 2547SOL    HW2 1964   1.856   3.516   3.916
 2553SOL     OW 1965   3.387   2.861   3.914
 2553SOL    HW1 1966   3.324   2.785   3.927
 2553SOL    HW2 1967   3.435   2.879   4.000
 2556SOL     OW 1968   2.460   2.591   3.994
 2556SOL    HW1 1969   2.484   2.660   3.926
 2556SOL    HW2 1970   2.382   2.624   4.048
 2559SOL     OW 1971   2.903   2.563   4.153
 2559SOL    HW1 1972   2.929   2.559   4.249
 2559SOL    HW2 1973   2.818   2.512   4.139
 2561SOL     OW 1974   2.727   2.210   3.919
 2561SOL    HW1 1975   2.786   2.273   3.870
 2561SOL    HW2 1976   2.746   2.116   3.890
 2567SOL     OW 1977   2.183   2.805   3.966
 2567SOL    HW1 1978   2.265   2.844   3.924
 2567SOL    HW2 1979   2.156   2.723   3.917
 2570SOL     OW 1980   3.494   3.239   3.805
 2570SOL    HW1 1981   3.462   3.333   3.795
 2570SOL    HW2 1982   3.418   3.176   3.793
 2575SOL     OW 1983   2.244   2.562   4.204
 2575SOL    HW1 1984   2.289   2.472   4.201
 2575SOL    HW2 1985   2.150   2.551   4.237
 2576SOL     OW 1986   2.476   1.984   3.841
 2576SOL    HW1 1987   2.574   1.962   3.848
 2576SOL    HW2 1988   2.445   1.967   3.748
 2580SOL     OW 1989   3.296   3.050   3.765
 2580SOL    HW1 1990   3.328   2.974   3.822
 2580SOL    HW2 1991   3.204   3.077   3.795
 2581SOL     OW 1992   2.159   1.897   3.895
 2581SOL    HW1 1993   2.208   1.981   3.874
 2581SOL    HW2 1994   2.221   1.832   3.940
 2582SOL     OW 1995   2.797   2.098   4.204
 2582SOL    HW1 1996   2.749   2.139   4.126
 2582SOL    HW2 1997   2.896   2.096   4.185
 2586SOL     OW 1998   2.894   2.411   3.740
 2586SOL    HW1 1999   2.853   2.493   3.701
 2586SOL    HW2 2000   2.958   2.437   3.813
 2593SOL     OW 2001   2.350   3.247   3.898
 2593SOL    HW1 2002   2.263   3.232   3.945
 2593SOL    HW2 2003   2.333   3.273   3.803
 2595SOL     OW 2004   3.252   2.437   3.802
 2595SOL    HW1 2005   3.198   2.416   3.883
 2595SOL    HW2 2006   3.343   2.396   3.811
 2596SOL     OW 2007   2.389   2.118   4.052
 2596SOL    HW1 2008   2.416   2.059   3.977
 2596SOL    HW2 2009   2.389   2.213   4.021
 2599SOL     OW 2010   2.567   2.912   4.092
 2599SOL    HW1 2011   2.553   2.919   4.191
 2599SOL    HW2 2012   2.651   2.861   4.074
 2602SOL     OW 2013   2.229   2.962   4.225
 2602SOL    HW1 2014   2.222   3.045   4.169
 2602SOL    HW2 2015   2.233   2.882   4.165
 2609SOL     OW 2016   3.071   2.387   3.999
 2609SOL    HW1 2017   3.084   2.303   4.053
 2609SOL    HW2 2018   3.042   2.461   4.059
 2616SOL     OW 2019   3.402   2.136   3.849
 2616SOL    HW1 2020   3.341   2.061   3.872
 2616SOL    HW2 2021   3.424   2.188   3.932
 2617SOL     OW 2022   3.165   2.700   3.766
 2617SOL    HW1 2023   3.199   2.607   3.781
 2617SOL    HW2 2024   3.183   2.727   3.671
 2622SOL     OW 2025   1.870   3.188   3.924
 2622SOL    HW1 2026   1.777   3.209   3.893
 2622SOL    HW2 2027   1.880   3.089   3.937
 2627SOL     OW 2028   2.677   2.434   4.049
 2627SOL    HW1 2029   2.684   2.345   4.003
 2627SOL    HW2 2030   2.583   2.468   4.041
 2631SOL     OW 2031   2.335   2.362   3.915
 2631SOL    HW1 2032   2.396   2.442   3.919
 2631SOL    HW2 2033   2.240   2.393   3.922
 2633SOL     OW 2034   3.164   2.717   4.033
 2633SOL    HW1 2035   3.078   2.686   4.075
 2633SOL    HW2 2036   3.160   2.703   3.934
 2640SOL     OW 2037   2.534   3.478   3.878
 2640SOL    HW1 2038   2.543   3.488   3.779
 2640SOL    HW2 2039   2.494   3.389   3.899
 2644SOL     OW 2040   3.056   3.474   3.755
 2644SOL    HW1 2041   3.062   3.381   3.792
 2644SOL    HW2 2042   2.997   3.474   3.675
 2646SOL     OW 2043   2.778   2.772   4.015
 2646SOL    HW1 2044   2.841   2.810   3.947
 2646SOL    HW2 2045   2.818   2.689   4.054
 2647SOL     OW 2046   3.366   3.469   3.768
 2647SOL    HW1 2047   3.274   3.506   3.775
 2647SOL    HW2 2048   3.404   3.489   3.678
 2652SOL     OW 2049   2.117   3.210   4.014
 2652SOL    HW1 2050   2.021   3.211   3.987
 2652SOL    HW2 2051   2.129   3.263   4.098
 2653SOL     OW 2052   1.937   2.207   3.757
 2653SOL    HW1 2053   1.845   2.179   3.728
 2653SOL    HW2 2054   1.968   2.284   3.701
 2654SOL     OW 2055   1.934   2.028   4.042
 2654SOL    HW1 2056   1.917   2.111   3.988
 2654SOL    HW2 2057   2.024   1.991   4.020
 2655SOL     OW 2058   3.045   3.197   3.843
 2655SOL    HW1 2059   2.946   3.186   3.845
 2655SOL    HW2 2060   3.079   3.212   3.936
 2658SOL     OW 2061   3.087   2.187   4.173
 2658SOL    HW1 2062   3.152   2.113   4.162
 2658SOL    HW2 2063   3.107   2.237   4.257
 2661SOL     OW 2064   2.721   3.236   3.740
 2661SOL    HW1 2065   2.675   3.251   3.828
 2661SOL    HW2 2066   2.765   3.321   3.710
 2664SOL     OW 2067   2.945   2.846   3.811
 2664SOL    HW1 2068   2.922   2.899   3.729
 2664SOL    HW2 2069   3.026   2.790   3.792
 2668SOL     OW 2070   2.290   2.286   4.244
 2668SOL    HW1 2071   2.320   2.214   4.182
 2668SOL    HW2 2072   2.251   2.246   4.327
 2673SOL     OW 2073   2.632   3.192   4.025
 2673SOL    HW1 2074   2.586   3.105   4.042
 2673SOL    HW2 2075   2.723   3.189   4.066
 2674SOL     OW 2076   3.214   1.914   3.892
 2674SOL    HW1 2077   3.249   1.873   3.808
 2674SOL    HW2 2078   3.124   1.876   3.912
 2677SOL     OW 2079   1.901   2.939   4.024
 2677SOL    HW1 2080   2.000   2.928   4.015
 2677SOL    HW2 2081   1.861   2.853   4.056
 2702SOL     OW 2082   2.179   3.975   1.801
 2702SOL    HW1 2083   2.250   4.046   1.807
 2702SOL    HW2 2084   2.091   4.014   1.829
 2723SOL     OW 2085   2.643   3.988   1.749
 2723SOL    HW1 2086   2.710   3.927   1.792
 2723SOL    HW2 2087   2.570   4.007   1.814
 2744SOL     OW 2088   2.777   3.813   1.402
 2744SOL    HW1 2089   2.802   3.793   1.307
 2744SOL    HW2 2090   2.849   3.869   1.444
 2754SOL     OW 2091   2.875   3.829   1.770
 2754SOL    HW1 2092   2.881   3.914   1.718
 2754SOL    HW2 2093   2.907   3.753   1.713
 2755SOL     OW 2094   2.366   3.774   1.740
 2755SOL    HW1 2095   2.324   3.717   1.670
 2755SOL    HW2 2096   2.300   3.843   1.772
 2798SOL     OW 2097   2.534   3.927   1.489
 2798SOL    HW1 2098   2.624   3.911   1.449
 2798SOL    HW2 2099   2.542   3.932   1.588
 2823SOL     OW 2100   2.087   3.999   2.858
 2823SOL    HW1 2101   2.122   3.982   2.950
 2823SOL    HW2 2102   1.999   3.954   2.846
 2824SOL     OW 2103   1.881   4.092   2.509
 2824SOL    HW1 2104   1.799   4.135   2.548
 2824SOL    HW2 2105   1.853   4.019   2.446
 2841SOL     OW 2106   2.671   3.728   2.364
 2841SOL    HW1 2107   2.711   3.819   2.355
 2841SOL    HW2 2108   2.571   3.736   2.370
 2846SOL     OW 2109   3.143   4.069   2.806
 2846SOL    HW1 2110   3.057   4.019   2.793
 2846SOL    HW2 2111   3.205   4.015   2.862
 2850SOL     OW 2112   2.853   4.134   3.104
 2850SOL    HW1 2113   2.776   4.168   3.158
 2850SOL    HW2 2114   2.819   4.083   3.025
 2853SOL     OW 2115   2.727   4.072   2.057
 2853SOL    HW1 2116   2.786   4.135   2.008
 2853SOL    HW2 2117   2.746   3.978   2.028
 2856SOL     OW 2118   2.412   3.920   2.747
 2856SOL    HW1 2119   2.407   3.915   2.847
 2856SOL    HW2 2120   2.414   4.016   2.718
 2860SOL     OW 2121   2.064   4.009   3.360
 2860SOL    HW1 2122   1.984   4.069   3.347
 2860SOL    HW2 2123   2.054   3.960   3.446
 2861SOL     OW 2124   3.262   3.831   2.288
 2861SOL    HW1 2125   3.238   3.794   2.198
 2861SOL    HW2 2126   3.361   3.847   2.292
 2864SOL     OW 2127   2.476   3.846   1.979
 2864SOL    HW1 2128   2.574   3.824   1.986
 2864SOL    HW2 2129   2.445   3.829   1.886
 2868SOL     OW 2130   2.784   4.227   2.761
 2868SOL    HW1 2131   2.759   4.218   2.665
 2868SOL    HW2 2132   2.832   4.145   2.792
 2869SOL     OW 2133   2.401   3.788   2.374
 2869SOL    HW1 2134   2.320   3.789   2.432
 2869SOL    HW2 2135   2.404   3.871   2.319
 2870SOL     OW 2136   2.159   3.759   2.033
 2870SOL    HW1 2137   2.208   3.843   2.012
 2870SOL    HW2 2138   2.221   3.694   2.078
 2871SOL     OW 2139   2.797   3.960   2.342
 2871SOL    HW1 2140   2.749   4.001   2.264
 2871SOL    HW2 2141   2.896   3.958   2.323
 2876SOL     OW 2142   2.423   3.946   3.009
 2876SOL    HW1 2143   2.461   3.862   3.046
 2876SOL    HW2 2144   2.335   3.965   3.053
 2877SOL     OW 2145   2.728   4.178   2.504
 2877SOL    HW1 2146   2.696   4.250   2.442
 2877SOL    HW2 2147   2.752   4.097   2.451
 2878SOL     OW 2148   2.879   3.763   2.615
 2878SOL    HW1 2149   2.807   3.768   2.546
 2878SOL    HW2 2150   2.855   3.694   2.684
 2883SOL     OW 2151   2.389   3.980   2.190
 2883SOL    HW1 2152   2.416   3.921   2.115
 2883SOL    HW2 2153   2.389   4.075   2.159
 2886SOL     OW 2154   2.777   3.813   3.264
 2886SOL    HW1 2155   2.802   3.793   3.169
 2886SOL    HW2 2156   2.849   3.869   3.306
 2892SOL     OW 2157   2.428   4.261   2.727
 2892SOL    HW1 2158   2.440   4.327   2.653
 2892SOL    HW2 2159   2.474   4.295   2.810
 2896SOL     OW 2160   2.875   3.829   3.632
 2896SOL    HW1 2161   2.881   3.914   3.580
 2896SOL    HW2 2162   2.907   3.753   3.575
 2897SOL     OW 2163   2.366   3.774   3.602
 2897SOL    HW1 2164   2.324   3.717   3.532
 2897SOL    HW2 2165   2.300   3.843   3.634
 2901SOL     OW 2166   2.169   3.937   3.093
 2901SOL    HW1 2167   2.146   3.974   3.183
 2901SOL    HW2 2168   2.139   3.842   3.087
 2904SOL     OW 2169   2.169   3.787   2.480
 2904SOL    HW1 2170   2.158   3.881   2.513
 2904SOL    HW2 2171   2.164   3.724   2.557
 2911SOL     OW 2172   2.201   4.233   2.868
 2911SOL    HW1 2173   2.149   4.150   2.851
 2911SOL    HW2 2174   2.278   4.238   2.804
 2913SOL     OW 2175   3.022   3.931   3.339
 2913SOL    HW1 2176   3.022   3.995   3.416
 2913SOL    HW2 2177   3.050   3.979   3.256
 2921SOL     OW 2178   2.533   4.188   3.131
 2921SOL    HW1 2179   2.499   4.099   3.101
 2921SOL    HW2 2180   2.559   4.242   3.051
 2922SOL     OW 2181   2.335   4.224   2.053
 2922SOL    HW1 2182   2.396   4.304   2.057
 2922SOL    HW2 2183   2.240   4.255   2.060
 2927SOL     OW 2184   3.588   3.859   2.385
 2927SOL    HW1 2185   3.661   3.842   2.318
 2927SOL    HW2 2186   3.557   3.772   2.423
 2930SOL     OW 2187   2.125   4.050   2.582
 2930SOL    HW1 2188   2.046   4.101   2.548
 2930SOL    HW2 2189   2.116   4.035   2.680
 2936SOL     OW 2190   2.876   3.960   2.833
 2936SOL    HW1 2191   2.868   3.924   2.740
 2936SOL    HW2 2192   2.874   3.884   2.898
 2939SOL     OW 2193   2.534   3.927   3.351
 2939SOL    HW1 2194   2.624   3.911   3.311
 2939SOL    HW2 2195   2.542   3.932   3.450
 2940SOL     OW 2196   1.937   4.069   1.895
 2940SOL    HW1 2197   1.845   4.041   1.866
 2940SOL    HW2 2198   1.968   4.146   1.839
 2942SOL     OW 2199   1.934   3.890   2.180
 2942SOL    HW1 2200   1.917   3.973   2.126
 2942SOL    HW2 2201   2.024   3.853   2.158
 2947SOL     OW 2202   3.087   4.049   2.311
 2947SOL    HW1 2203   3.152   3.975   2.300
 2947SOL    HW2 2204   3.107   4.099   2.395
 2955SOL     OW 2205   2.290   4.148   2.382
 2955SOL    HW1 2206   2.320   4.076   2.320
 2955SOL    HW2 2207   2.251   4.108   2.465
 2957SOL     OW 2208   3.286   3.938   2.974
 2957SOL    HW1 2209   3.338   3.873   3.029
 2957SOL    HW2 2210   3.237   4.001   3.035
 2958SOL     OW 2211   2.863   3.758   3.016
 2958SOL    HW1 2212   2.800   3.686   2.985
 2958SOL    HW2 2213   2.956   3.722   3.016
 2960SOL     OW 2214   3.214   3.776   2.030
 2960SOL    HW1 2215   3.249   3.735   1.946
 2960SOL    HW2 2216   3.124   3.738   2.050
 2961SOL     OW 2217   3.162   4.177   2.553
 2961SOL    HW1 2218   3.103   4.257   2.557
 2961SOL    HW2 2219   3.177   4.142   2.646
 2962SOL     OW 2220   3.455   3.945   2.744
 2962SOL    HW1 2221   3.371   3.944   2.798
 2962SOL    HW2 2222   3.457   4.028   2.688
 3096SOL     OW 2223   3.854   1.821   1.571
 3096SOL    HW1 2224   3.844   1.806   1.670
 3096SOL    HW2 2225   3.768   1.857   1.535
 3174SOL     OW 2226   3.854   1.794   1.851
 3174SOL    HW1 2227   3.813   1.720   1.904
 3174SOL    HW2 2228   3.918   1.845   1.909
 3218SOL     OW 2229   3.955   1.713   2.345
 3218SOL    HW1 2230   3.989   1.790   2.399
 3218SOL    HW2 2231   3.999   1.713   2.255
 3225SOL     OW 2232   3.751   1.596   1.979
 3225SOL    HW1 2233   3.732   1.500   2.000
 3225SOL    HW2 2234   3.718   1.654   2.054
 3237SOL     OW 2235   3.854   1.821   3.433
 3237SOL    HW1 2236   3.844   1.806   3.532
 3237SOL    HW2 2237   3.768   1.857   3.397
 3241SOL     OW 2238   4.075   1.801   2.715
 3241SOL    HW1 2239   4.125   1.715   2.721
 3241SOL    HW2 2240   4.140   1.878   2.712
 3248SOL     OW 2241   3.973   1.785   3.103
 3248SOL    HW1 2242   4.030   1.720   3.153
 3248SOL    HW2 2243   3.957   1.752   3.010
 3276SOL     OW 2244   3.788   1.564   3.193
 3276SOL    HW1 2245   3.742   1.646   3.159
 3276SOL    HW2 2246   3.886   1.583   3.202
 3300SOL     OW 2247   3.732   1.326   2.062
 3300SOL    HW1 2248   3.639   1.347   2.031
 3300SOL    HW2 2249   3.742   1.227   2.075
 3301SOL     OW 2250   3.812   1.801   2.789
 3301SOL    HW1 2251   3.770   1.715   2.762
 3301SOL    HW2 2252   3.906   1.804   2.755
 3466SOL     OW 2253   3.837   2.599   1.597
 3466SOL    HW1 2254   3.925   2.586   1.642
 3466SOL    HW2 2255   3.824   2.696   1.575
 3470SOL     OW 2256   4.041   2.113   1.801
 3470SOL    HW1 2257   4.112   2.184   1.807
 3470SOL    HW2 2258   3.953   2.152   1.829
 3486SOL     OW 2259   3.926   2.147   1.498
 3486SOL    HW1 2260   3.846   2.207   1.485
 3486SOL    HW2 2261   3.916   2.098   1.584
 3504SOL     OW 2262   3.802   2.418   1.386
 3504SOL    HW1 2263   3.894   2.417   1.345
 3504SOL    HW2 2264   3.796   2.492   1.453
 3533SOL     OW 2265   4.074   2.760   1.804
 3533SOL    HW1 2266   4.150   2.804   1.852
 3533SOL    HW2 2267   4.109   2.713   1.722
 3544SOL     OW 2268   3.913   2.382   1.722
 3544SOL    HW1 2269   3.972   2.342   1.652
 3544SOL    HW2 2270   3.855   2.453   1.681
 3550SOL     OW 2271   3.883   2.999   1.466
 3550SOL    HW1 2272   3.905   2.938   1.542
 3550SOL    HW2 2273   3.893   2.950   1.380
 3566SOL     OW 2274   3.829   2.875   1.726
 3566SOL    HW1 2275   3.752   2.842   1.780
 3566SOL    HW2 2276   3.914   2.845   1.768
 3577SOL     OW 2277   3.945   3.176   1.844
 3577SOL    HW1 2278   3.880   3.103   1.823
 3577SOL    HW2 2279   3.949   3.190   1.942
 3588SOL     OW 2280   3.954   2.490   1.975
 3588SOL    HW1 2281   3.861   2.488   2.012
 3588SOL    HW2 2282   3.955   2.451   1.883
 3589SOL     OW 2283   3.949   2.137   2.858
 3589SOL    HW1 2284   3.984   2.120   2.950
 3589SOL    HW2 2285   3.861   2.092   2.846
 3590SOL     OW 2286   3.743   2.230   2.509
 3590SOL    HW1 2287   3.661   2.273   2.548
 3590SOL    HW2 2288   3.715   2.157   2.446
 3597SOL     OW 2289   4.059   3.297   2.923
 3597SOL    HW1 2290   3.981   3.266   2.870
 3597SOL    HW2 2291   4.117   3.355   2.866
 3599SOL     OW 2292   3.955   3.575   2.345
 3599SOL    HW1 2293   3.989   3.652   2.399
 3599SOL    HW2 2294   3.999   3.575   2.255
 3601SOL     OW 2295   3.954   3.296   2.400
 3601SOL    HW1 2296   3.928   3.392   2.400
 3601SOL    HW2 2297   3.883   3.242   2.445
 3602SOL     OW 2298   3.964   2.953   2.748
 3602SOL    HW1 2299   3.978   2.869   2.800
 3602SOL    HW2 2300   3.909   3.017   2.803
 3605SOL     OW 2301   3.846   2.505   2.425
 3605SOL    HW1 2302   3.801   2.417   2.442
 3605SOL    HW2 2303   3.845   2.559   2.509
 3606SOL     OW 2304   3.751   3.458   1.979
 3606SOL    HW1 2305   3.732   3.362   2.000
 3606SOL    HW2 2306   3.718   3.516   2.054
 3607SOL     OW 2307   3.837   2.599   3.459
 3607SOL    HW1 2308   3.925   2.586   3.504
 3607SOL    HW2 2309   3.824   2.696   3.437
 3610SOL     OW 2310   3.921   2.838   3.126
 3610SOL    HW1 2311   4.010   2.793   3.112
 3610SOL    HW2 2312   3.848   2.773   3.107
 3617SOL     OW 2313   3.800   2.673   2.651
 3617SOL    HW1 2314   3.899   2.661   2.660
 3617SOL    HW2 2315   3.776   2.768   2.672
 3624SOL     OW 2316   4.045   2.805   2.104
 3624SOL    HW1 2317   4.127   2.844   2.062
 3624SOL    HW2 2318   4.018   2.723   2.055
 3627SOL     OW 2319   3.926   2.147   3.360
 3627SOL    HW1 2320   3.846   2.207   3.347
 3627SOL    HW2 2321   3.916   2.098   3.446
 3631SOL     OW 2322   4.106   2.562   2.342
 3631SOL    HW1 2323   4.151   2.472   2.339
 3631SOL    HW2 2324   4.012   2.551   2.375
 3638SOL     OW 2325   4.021   1.897   2.033
 3638SOL    HW1 2326   4.070   1.981   2.012
 3638SOL    HW2 2327   4.083   1.832   2.078
 3642SOL     OW 2328   4.183   3.014   2.603
 3642SOL    HW1 2329   4.112   2.987   2.668
 3642SOL    HW2 2330   4.157   2.986   2.510
 3645SOL     OW 2331   3.802   2.418   3.248
 3645SOL    HW1 2332   3.894   2.417   3.207
 3645SOL    HW2 2333   3.796   2.492   3.315
 3656SOL     OW 2334   4.134   2.675   3.113
 3656SOL    HW1 2335   4.220   2.687   3.163
 3656SOL    HW2 2336   4.092   2.588   3.140
 3657SOL     OW 2337   3.788   3.426   3.193
 3657SOL    HW1 2338   3.742   3.508   3.159
 3657SOL    HW2 2339   3.886   3.445   3.202
 3658SOL     OW 2340   4.091   2.962   2.363
 3658SOL    HW1 2341   4.084   3.045   2.307
 3658SOL    HW2 2342   4.095   2.882   2.303
 3659SOL     OW 2343   4.290   2.399   2.727
 3659SOL    HW1 2344   4.302   2.465   2.653
 3659SOL    HW2 2345   4.336   2.433   2.810
 3668SOL     OW 2346   4.031   2.075   3.093
 3668SOL    HW1 2347   4.008   2.112   3.183
 3668SOL    HW2 2348   4.001   1.980   3.087
 3669SOL     OW 2349   3.761   3.172   3.144
 3669SOL    HW1 2350   3.814   3.123   3.212
 3669SOL    HW2 2351   3.783   3.270   3.149
 3671SOL     OW 2352   4.031   1.925   2.480
 3671SOL    HW1 2353   4.020   2.019   2.513
 3671SOL    HW2 2354   4.026   1.862   2.557
 3677SOL     OW 2355   4.043   2.672   2.811
 3677SOL    HW1 2356   4.136   2.708   2.816
 3677SOL    HW2 2357   4.037   2.587   2.863
 3678SOL     OW 2358   4.063   2.371   2.868
 3678SOL    HW1 2359   4.011   2.288   2.851
 3678SOL    HW2 2360   4.140   2.376   2.804
 3681SOL     OW 2361   3.732   3.188   2.062
 3681SOL    HW1 2362   3.639   3.209   2.031
 3681SOL    HW2 2363   3.742   3.089   2.075
 3682SOL     OW 2364   3.812   3.663   2.789
 3682SOL    HW1 2365   3.770   3.577   2.762
 3682SOL    HW2 2366   3.906   3.666   2.755
 3685SOL     OW 2367   3.764   2.406   2.976
 3685SOL    HW1 2368   3.849   2.373   2.935
 3685SOL    HW2 2369   3.777   2.421   3.074
 3686SOL     OW 2370   3.913   2.382   3.584
 3686SOL    HW1 2371   3.972   2.342   3.514
 3686SOL    HW2 2372   3.855   2.453   3.543
 3691SOL     OW 2373   4.197   2.362   2.053
 3691SOL    HW1 2374   4.258   2.442   2.057
 3691SOL    HW2 2375   4.102   2.393   2.060
 3692SOL     OW 2376   3.883   2.999   3.328
 3692SOL    HW1 2377   3.905   2.938   3.404
 3692SOL    HW2 2378   3.893   2.950   3.242
 3694SOL     OW 2379   3.807   3.120   2.884
 3694SOL    HW1 2380   3.802   3.119   2.984
 3694SOL    HW2 2381   3.724   3.079   2.846
 3699SOL     OW 2382   3.987   2.188   2.582
 3699SOL    HW1 2383   3.908   2.239   2.548
 3699SOL    HW2 2384   3.978   2.173   2.680
 3706SOL     OW 2385   3.979   3.210   2.152
 3706SOL    HW1 2386   3.883   3.211   2.125
 3706SOL    HW2 2387   3.991   3.263   2.236
 3707SOL     OW 2388   3.829   2.875   3.588
 3707SOL    HW1 2389   3.752   2.842   3.642
 3707SOL    HW2 2390   3.914   2.845   3.630
 3709SOL     OW 2391   3.799   2.207   1.895
 3709SOL    HW1 2392   3.707   2.179   1.866
 3709SOL    HW2 2393   3.830   2.284   1.839
 3710SOL     OW 2394   3.796   2.028   2.180
 3710SOL    HW1 2395   3.779   2.111   2.126
 3710SOL    HW2 2396   3.886   1.991   2.158
 3720SOL     OW 2397   3.803   3.102   2.515
 3720SOL    HW1 2398   3.802   3.055   2.603
 3720SOL    HW2 2399   3.885   3.074   2.464
 3722SOL     OW 2400   4.152   2.286   2.382
 3722SOL    HW1 2401   4.182   2.214   2.320
 3722SOL    HW2 2402   4.113   2.246   2.465
 3723SOL     OW 2403   4.041   2.409   3.142
 3723SOL    HW1 2404   4.079   2.350   3.214
 3723SOL    HW2 2405   4.081   2.383   3.054
 3728SOL     OW 2406   3.763   2.939   2.162
 3728SOL    HW1 2407   3.862   2.928   2.153
 3728SOL    HW2 2408   3.723   2.853   2.194
   5.02603   5.02603   5.02603
