; mobley_4193752_GMX.itp created by acpype (v: 2023.10.27) on Thu May 21 00:21:28 2026

[ atomtypes ]
;name   bond_type     mass     charge   ptype   sigma         epsilon       Amb
 ca       ca          0.00000  0.00000   A     3.31521e-01   4.13379e-01 ; 1.86  0.0988
 no       no          0.00000  0.00000   A     3.36510e-01   3.58987e-01 ; 1.89  0.0858
 o        o           0.00000  0.00000   A     3.04812e-01   6.12119e-01 ; 1.71  0.1463
 ha       ha          0.00000  0.00000   A     2.62548e-01   6.73624e-02 ; 1.47  0.0161

[ moleculetype ]
;name            nrexcl
 mobley_4193752   3

[ atoms ]
;   nr  type  resi  res  atom  cgnr     charge      mass       ; qtot   bond_type
     1   ca     1   MOL    C1    1    -0.088000     12.01000 ; qtot -0.088
     2   ca     1   MOL    C2    2    -0.140000     12.01000 ; qtot -0.228
     3   ca     1   MOL    C3    3    -0.140000     12.01000 ; qtot -0.368
     4   ca     1   MOL    C4    4    -0.068000     12.01000 ; qtot -0.436
     5   ca     1   MOL    C5    5    -0.068000     12.01000 ; qtot -0.504
     6   ca     1   MOL    C6    6    -0.176200     12.01000 ; qtot -0.680
     7   no     1   MOL    N1    7     0.316200     14.01000 ; qtot -0.364
     8    o     1   MOL    O1    8    -0.209000     16.00000 ; qtot -0.573
     9    o     1   MOL    O2    9    -0.209000     16.00000 ; qtot -0.782
    10   ha     1   MOL    H1   10     0.144000      1.00800 ; qtot -0.638
    11   ha     1   MOL    H2   11     0.148000      1.00800 ; qtot -0.490
    12   ha     1   MOL    H3   12     0.148000      1.00800 ; qtot -0.342
    13   ha     1   MOL    H4   13     0.171000      1.00800 ; qtot -0.171
    14   ha     1   MOL    H5   14     0.171000      1.00800 ; qtot -0.000

[ bonds ]
;   ai     aj funct   r             k
     1      2   1    1.3986e-01    2.9644e+05 ;     C1 - C2    
     1      3   1    1.3986e-01    2.9644e+05 ;     C1 - C3    
     1     10   1    1.0860e-01    3.0183e+05 ;     C1 - H1    
     2      4   1    1.3986e-01    2.9644e+05 ;     C2 - C4    
     2     11   1    1.0860e-01    3.0183e+05 ;     C2 - H2    
     3      5   1    1.3986e-01    2.9644e+05 ;     C3 - C5    
     3     12   1    1.0860e-01    3.0183e+05 ;     C3 - H3    
     4      6   1    1.3986e-01    2.9644e+05 ;     C4 - C6    
     4     13   1    1.0860e-01    3.0183e+05 ;     C4 - H4    
     5      6   1    1.3986e-01    2.9644e+05 ;     C5 - C6    
     5     14   1    1.0860e-01    3.0183e+05 ;     C5 - H5    
     6      7   1    1.4696e-01    2.0937e+05 ;     C6 - N1    
     7      8   1    1.2311e-01    3.0270e+05 ;     N1 - O1    
     7      9   1    1.2311e-01    3.0270e+05 ;     N1 - O2    

[ pairs ]
;   ai     aj    funct
     1      6      1 ;     C1 - C6    
     1     13      1 ;     C1 - H4    
     1     14      1 ;     C1 - H5    
     2      5      1 ;     C2 - C5    
     2      7      1 ;     C2 - N1    
     2     12      1 ;     C2 - H3    
     3      4      1 ;     C3 - C4    
     3      7      1 ;     C3 - N1    
     3     11      1 ;     C3 - H2    
     4      8      1 ;     C4 - O1    
     4      9      1 ;     C4 - O2    
     4     14      1 ;     C4 - H5    
     5      8      1 ;     C5 - O1    
     5      9      1 ;     C5 - O2    
     5     13      1 ;     C5 - H4    
     6     11      1 ;     C6 - H2    
     6     12      1 ;     C6 - H3    
     7     13      1 ;     N1 - H4    
     7     14      1 ;     N1 - H5    
    10      4      1 ;     H1 - C4    
    10      5      1 ;     H1 - C5    
    10     11      1 ;     H1 - H2    
    10     12      1 ;     H1 - H3    
    11     13      1 ;     H2 - H4    
    12     14      1 ;     H3 - H5    

[ angles ]
;   ai     aj     ak    funct   theta         cth
     1      2      4      1    1.2002e+02    5.3279e+02 ;     C1 - C2     - C4    
     1      2     11      1    1.1988e+02    3.7572e+02 ;     C1 - C2     - H2    
     1      3      5      1    1.2002e+02    5.3279e+02 ;     C1 - C3     - C5    
     1      3     12      1    1.1988e+02    3.7572e+02 ;     C1 - C3     - H3    
     2      1      3      1    1.2002e+02    5.3279e+02 ;     C2 - C1     - C3    
     2      1     10      1    1.1988e+02    3.7572e+02 ;     C2 - C1     - H1    
     2      4      6      1    1.2002e+02    5.3279e+02 ;     C2 - C4     - C6    
     2      4     13      1    1.1988e+02    3.7572e+02 ;     C2 - C4     - H4    
     3      1     10      1    1.1988e+02    3.7572e+02 ;     C3 - C1     - H1    
     3      5      6      1    1.2002e+02    5.3279e+02 ;     C3 - C5     - C6    
     3      5     14      1    1.1988e+02    3.7572e+02 ;     C3 - C5     - H5    
     4      2     11      1    1.1988e+02    3.7572e+02 ;     C4 - C2     - H2    
     4      6      5      1    1.2002e+02    5.3279e+02 ;     C4 - C6     - C5    
     4      6      7      1    1.1900e+02    5.5329e+02 ;     C4 - C6     - N1    
     5      3     12      1    1.1988e+02    3.7572e+02 ;     C5 - C3     - H3    
     5      6      7      1    1.1900e+02    5.5329e+02 ;     C5 - C6     - N1    
     6      4     13      1    1.1988e+02    3.7572e+02 ;     C6 - C4     - H4    
     6      5     14      1    1.1988e+02    3.7572e+02 ;     C6 - C5     - H5    
     6      7      8      1    1.1776e+02    8.2910e+02 ;     C6 - N1     - O1    
     6      7      9      1    1.1776e+02    8.2910e+02 ;     C6 - N1     - O2    
     8      7      9      1    1.2505e+02    1.0964e+03 ;     O1 - N1     - O2    

[ dihedrals ] ; propers
; for gromacs 4.5 or higher, using funct 9
;    i      j      k      l   func   phase     kd      pn
     1      2      4      6      9   180.00  15.16700   2 ;     C1-    C2-    C4-    C6
     1      2      4     13      9   180.00  15.16700   2 ;     C1-    C2-    C4-    H4
     1      3      5      6      9   180.00  15.16700   2 ;     C1-    C3-    C5-    C6
     1      3      5     14      9   180.00  15.16700   2 ;     C1-    C3-    C5-    H5
     2      1      3      5      9   180.00  15.16700   2 ;     C2-    C1-    C3-    C5
     2      1      3     12      9   180.00  15.16700   2 ;     C2-    C1-    C3-    H3
     2      4      6      5      9   180.00  15.16700   2 ;     C2-    C4-    C6-    C5
     2      4      6      7      9   180.00  15.16700   2 ;     C2-    C4-    C6-    N1
     3      1      2      4      9   180.00  15.16700   2 ;     C3-    C1-    C2-    C4
     3      1      2     11      9   180.00  15.16700   2 ;     C3-    C1-    C2-    H2
     3      5      6      4      9   180.00  15.16700   2 ;     C3-    C5-    C6-    C4
     3      5      6      7      9   180.00  15.16700   2 ;     C3-    C5-    C6-    N1
     4      6      5     14      9   180.00  15.16700   2 ;     C4-    C6-    C5-    H5
     4      6      7      8      9   180.00   3.01248   2 ;     C4-    C6-    N1-    O1
     4      6      7      9      9   180.00   3.01248   2 ;     C4-    C6-    N1-    O2
     5      6      4     13      9   180.00  15.16700   2 ;     C5-    C6-    C4-    H4
     5      6      7      8      9   180.00   3.01248   2 ;     C5-    C6-    N1-    O1
     5      6      7      9      9   180.00   3.01248   2 ;     C5-    C6-    N1-    O2
     6      4      2     11      9   180.00  15.16700   2 ;     C6-    C4-    C2-    H2
     6      5      3     12      9   180.00  15.16700   2 ;     C6-    C5-    C3-    H3
     7      6      4     13      9   180.00  15.16700   2 ;     N1-    C6-    C4-    H4
     7      6      5     14      9   180.00  15.16700   2 ;     N1-    C6-    C5-    H5
    10      1      2      4      9   180.00  15.16700   2 ;     H1-    C1-    C2-    C4
    10      1      2     11      9   180.00  15.16700   2 ;     H1-    C1-    C2-    H2
    10      1      3      5      9   180.00  15.16700   2 ;     H1-    C1-    C3-    C5
    10      1      3     12      9   180.00  15.16700   2 ;     H1-    C1-    C3-    H3
    11      2      4     13      9   180.00  15.16700   2 ;     H2-    C2-    C4-    H4
    12      3      5     14      9   180.00  15.16700   2 ;     H3-    C3-    C5-    H5

[ dihedrals ] ; impropers
; treated as propers in GROMACS to use correct AMBER analytical function
;    i      j      k      l   func   phase     kd      pn
     1      4      2     11      4   180.00   4.60240   2 ;     C1-    C4-    C2-    H2
     1      5      3     12      4   180.00   4.60240   2 ;     C1-    C5-    C3-    H3
     2      6      4     13      4   180.00   4.60240   2 ;     C2-    C6-    C4-    H4
     3      6      5     14      4   180.00   4.60240   2 ;     C3-    C6-    C5-    H5
     4      5      6      7      4   180.00   4.60240   2 ;     C4-    C5-    C6-    N1
     6      8      7      9      4   180.00   4.60240   2 ;     C6-    O1-    N1-    O2
    10      1      3      2      4   180.00   4.60240   2 ;     H1-    C1-    C3-    C2
