; mobley_8052240_GMX.itp created by acpype (v: 2023.10.27) on Thu May 21 00:18:47 2026

[ atomtypes ]
;name   bond_type     mass     charge   ptype   sigma         epsilon       Amb
 ca       ca          0.00000  0.00000   A     3.31521e-01   4.13379e-01 ; 1.86  0.0988
 c        c           0.00000  0.00000   A     3.31521e-01   4.13379e-01 ; 1.86  0.0988
 nv       nv          0.00000  0.00000   A     3.36813e-01   4.68608e-01 ; 1.89  0.1120
 o        o           0.00000  0.00000   A     3.04812e-01   6.12119e-01 ; 1.71  0.1463
 ha       ha          0.00000  0.00000   A     2.62548e-01   6.73624e-02 ; 1.47  0.0161
 hn       hn          0.00000  0.00000   A     1.10650e-01   4.18400e-02 ; 0.62  0.0100

[ moleculetype ]
;name            nrexcl
 mobley_8052240   3

[ atoms ]
;   nr  type  resi  res  atom  cgnr     charge      mass       ; qtot   bond_type
     1   ca     1   MOL    C1    1    -0.119000     12.01000 ; qtot -0.119
     2   ca     1   MOL    C2    2    -0.117000     12.01000 ; qtot -0.236
     3   ca     1   MOL    C3    3    -0.069000     12.01000 ; qtot -0.305
     4   ca     1   MOL    C4    4    -0.086000     12.01000 ; qtot -0.391
     5   ca     1   MOL    C5    5    -0.088000     12.01000 ; qtot -0.479
     6   ca     1   MOL    C6    6    -0.142000     12.01000 ; qtot -0.621
     7   ca     1   MOL    C7    7    -0.200000     12.01000 ; qtot -0.821
     8   ca     1   MOL    C8    8    -0.129600     12.01000 ; qtot -0.951
     9   ca     1   MOL    C9    9    -0.124600     12.01000 ; qtot -1.075
    10   ca     1   MOL   C10   10    -0.082600     12.01000 ; qtot -1.158
    11   ca     1   MOL   C11   11    -0.219600     12.01000 ; qtot -1.377
    12   ca     1   MOL   C12   12     0.232600     12.01000 ; qtot -1.145
    13    c     1   MOL   C13   13     0.582300     12.01000 ; qtot -0.562
    14    c     1   MOL   C14   14     0.604300     12.01000 ; qtot 0.042
    15   nv     1   MOL    N1   15    -0.848200     14.01000 ; qtot -0.806
    16    o     1   MOL    O1   16    -0.522100     16.00000 ; qtot -1.329
    17    o     1   MOL    O2   17    -0.564100     16.00000 ; qtot -1.893
    18   ha     1   MOL    H1   18     0.141000      1.00800 ; qtot -1.752
    19   ha     1   MOL    H2   19     0.140000      1.00800 ; qtot -1.612
    20   ha     1   MOL    H3   20     0.140000      1.00800 ; qtot -1.472
    21   ha     1   MOL    H4   21     0.158000      1.00800 ; qtot -1.314
    22   ha     1   MOL    H5   22     0.158000      1.00800 ; qtot -1.156
    23   ha     1   MOL    H6   23     0.159000      1.00800 ; qtot -0.997
    24   ha     1   MOL    H7   24     0.137000      1.00800 ; qtot -0.860
    25   hn     1   MOL    H8   25     0.429800      1.00800 ; qtot -0.430
    26   hn     1   MOL    H9   26     0.429800      1.00800 ; qtot -0.000

[ bonds ]
;   ai     aj funct   r             k
     1      2   1    1.3986e-01    2.9644e+05 ;     C1 - C2    
     1      4   1    1.3986e-01    2.9644e+05 ;     C1 - C4    
     1     18   1    1.0860e-01    3.0183e+05 ;     C1 - H1    
     2      5   1    1.3986e-01    2.9644e+05 ;     C2 - C5    
     2     19   1    1.0860e-01    3.0183e+05 ;     C2 - H2    
     3      6   1    1.3986e-01    2.9644e+05 ;     C3 - C6    
     3      7   1    1.3986e-01    2.9644e+05 ;     C3 - C7    
     3     20   1    1.0860e-01    3.0183e+05 ;     C3 - H3    
     4      8   1    1.3986e-01    2.9644e+05 ;     C4 - C8    
     4     21   1    1.0860e-01    3.0183e+05 ;     C4 - H4    
     5      9   1    1.3986e-01    2.9644e+05 ;     C5 - C9    
     5     22   1    1.0860e-01    3.0183e+05 ;     C5 - H5    
     6     10   1    1.3986e-01    2.9644e+05 ;     C6 - C10   
     6     23   1    1.0860e-01    3.0183e+05 ;     C6 - H6    
     7     12   1    1.3986e-01    2.9644e+05 ;     C7 - C12   
     7     24   1    1.0860e-01    3.0183e+05 ;     C7 - H7    
     8      9   1    1.3986e-01    2.9644e+05 ;     C8 - C9    
     8     13   1    1.4907e-01    2.1994e+05 ;     C8 - C13   
     9     14   1    1.4907e-01    2.1994e+05 ;     C9 - C14   
    10     11   1    1.3986e-01    2.9644e+05 ;    C10 - C11   
    10     13   1    1.4907e-01    2.1994e+05 ;    C10 - C13   
    11     12   1    1.3986e-01    2.9644e+05 ;    C11 - C12   
    11     14   1    1.4907e-01    2.1994e+05 ;    C11 - C14   
    12     15   1    1.3744e-01    2.8644e+05 ;    C12 - N1    
    13     16   1    1.2190e-01    4.9421e+05 ;    C13 - O1    
    14     17   1    1.2190e-01    4.9421e+05 ;    C14 - O2    
    15     25   1    1.0114e-01    3.9961e+05 ;     N1 - H8    
    15     26   1    1.0114e-01    3.9961e+05 ;     N1 - H9    

[ pairs ]
;   ai     aj    funct
     1      9      1 ;     C1 - C9    
     1     13      1 ;     C1 - C13   
     1     22      1 ;     C1 - H5    
     2      8      1 ;     C2 - C8    
     2     14      1 ;     C2 - C14   
     2     21      1 ;     C2 - H4    
     3     11      1 ;     C3 - C11   
     3     13      1 ;     C3 - C13   
     3     15      1 ;     C3 - N1    
     4      5      1 ;     C4 - C5    
     4     10      1 ;     C4 - C10   
     4     14      1 ;     C4 - C14   
     4     16      1 ;     C4 - O1    
     4     19      1 ;     C4 - H2    
     5     11      1 ;     C5 - C11   
     5     13      1 ;     C5 - C13   
     5     17      1 ;     C5 - O2    
     6      8      1 ;     C6 - C8    
     6     12      1 ;     C6 - C12   
     6     14      1 ;     C6 - C14   
     6     16      1 ;     C6 - O1    
     6     24      1 ;     C6 - H7    
     7     10      1 ;     C7 - C10   
     7     14      1 ;     C7 - C14   
     7     23      1 ;     C7 - H6    
     7     25      1 ;     C7 - H8    
     7     26      1 ;     C7 - H9    
     8     11      1 ;     C8 - C11   
     8     17      1 ;     C8 - O2    
     8     22      1 ;     C8 - H5    
     9     10      1 ;     C9 - C10   
     9     12      1 ;     C9 - C12   
     9     16      1 ;     C9 - O1    
     9     19      1 ;     C9 - H2    
     9     21      1 ;     C9 - H4    
    10     15      1 ;    C10 - N1    
    10     17      1 ;    C10 - O2    
    10     20      1 ;    C10 - H3    
    11     16      1 ;    C11 - O1    
    11     23      1 ;    C11 - H6    
    11     24      1 ;    C11 - H7    
    11     25      1 ;    C11 - H8    
    11     26      1 ;    C11 - H9    
    12     13      1 ;    C12 - C13   
    12     17      1 ;    C12 - O2    
    12     20      1 ;    C12 - H3    
    13     14      1 ;    C13 - C14   
    13     21      1 ;    C13 - H4    
    13     23      1 ;    C13 - H6    
    14     15      1 ;    C14 - N1    
    14     22      1 ;    C14 - H5    
    15     24      1 ;     N1 - H7    
    18      5      1 ;     H1 - C5    
    18      8      1 ;     H1 - C8    
    18     19      1 ;     H1 - H2    
    18     21      1 ;     H1 - H4    
    19     22      1 ;     H2 - H5    
    20     23      1 ;     H3 - H6    
    20     24      1 ;     H3 - H7    

[ angles ]
;   ai     aj     ak    funct   theta         cth
     1      2      5      1    1.2002e+02    5.3279e+02 ;     C1 - C2     - C5    
     1      2     19      1    1.1988e+02    3.7572e+02 ;     C1 - C2     - H2    
     1      4      8      1    1.2002e+02    5.3279e+02 ;     C1 - C4     - C8    
     1      4     21      1    1.1988e+02    3.7572e+02 ;     C1 - C4     - H4    
     2      1      4      1    1.2002e+02    5.3279e+02 ;     C2 - C1     - C4    
     2      1     18      1    1.1988e+02    3.7572e+02 ;     C2 - C1     - H1    
     2      5      9      1    1.2002e+02    5.3279e+02 ;     C2 - C5     - C9    
     2      5     22      1    1.1988e+02    3.7572e+02 ;     C2 - C5     - H5    
     3      6     10      1    1.2002e+02    5.3279e+02 ;     C3 - C6     - C10   
     3      6     23      1    1.1988e+02    3.7572e+02 ;     C3 - C6     - H6    
     3      7     12      1    1.2002e+02    5.3279e+02 ;     C3 - C7     - C12   
     3      7     24      1    1.1988e+02    3.7572e+02 ;     C3 - C7     - H7    
     4      1     18      1    1.1988e+02    3.7572e+02 ;     C4 - C1     - H1    
     4      8      9      1    1.2002e+02    5.3279e+02 ;     C4 - C8     - C9    
     4      8     13      1    1.2033e+02    5.1413e+02 ;     C4 - C8     - C13   
     5      2     19      1    1.1988e+02    3.7572e+02 ;     C5 - C2     - H2    
     5      9      8      1    1.2002e+02    5.3279e+02 ;     C5 - C9     - C8    
     5      9     14      1    1.2033e+02    5.1413e+02 ;     C5 - C9     - C14   
     6      3      7      1    1.2002e+02    5.3279e+02 ;     C6 - C3     - C7    
     6      3     20      1    1.1988e+02    3.7572e+02 ;     C6 - C3     - H3    
     6     10     11      1    1.2002e+02    5.3279e+02 ;     C6 - C10    - C11   
     6     10     13      1    1.2033e+02    5.1413e+02 ;     C6 - C10    - C13   
     7      3     20      1    1.1988e+02    3.7572e+02 ;     C7 - C3     - H3    
     7     12     11      1    1.2002e+02    5.3279e+02 ;     C7 - C12    - C11   
     7     12     15      1    1.2094e+02    5.6827e+02 ;     C7 - C12    - N1    
     8      4     21      1    1.1988e+02    3.7572e+02 ;     C8 - C4     - H4    
     8      9     14      1    1.2033e+02    5.1413e+02 ;     C8 - C9     - C14   
     8     13     10      1    1.1793e+02    5.0434e+02 ;     C8 - C13    - C10   
     8     13     16      1    1.2260e+02    6.5237e+02 ;     C8 - C13    - O1    
     9      5     22      1    1.1988e+02    3.7572e+02 ;     C9 - C5     - H5    
     9      8     13      1    1.2033e+02    5.1413e+02 ;     C9 - C8     - C13   
     9     14     11      1    1.1793e+02    5.0434e+02 ;     C9 - C14    - C11   
     9     14     17      1    1.2260e+02    6.5237e+02 ;     C9 - C14    - O2    
    10      6     23      1    1.1988e+02    3.7572e+02 ;    C10 - C6     - H6    
    10     11     12      1    1.2002e+02    5.3279e+02 ;    C10 - C11    - C12   
    10     11     14      1    1.2033e+02    5.1413e+02 ;    C10 - C11    - C14   
    10     13     16      1    1.2260e+02    6.5237e+02 ;    C10 - C13    - O1    
    11     10     13      1    1.2033e+02    5.1413e+02 ;    C11 - C10    - C13   
    11     12     15      1    1.2094e+02    5.6827e+02 ;    C11 - C12    - N1    
    11     14     17      1    1.2260e+02    6.5237e+02 ;    C11 - C14    - O2    
    12      7     24      1    1.1988e+02    3.7572e+02 ;    C12 - C7     - H7    
    12     11     14      1    1.2033e+02    5.1413e+02 ;    C12 - C11    - C14   
    12     15     25      1    1.1673e+02    4.8292e+02 ;    C12 - N1     - H8    
    12     15     26      1    1.1673e+02    4.8292e+02 ;    C12 - N1     - H9    
    25     15     26      1    1.1528e+02    3.8794e+02 ;     H8 - N1     - H9    

[ dihedrals ] ; propers
; for gromacs 4.5 or higher, using funct 9
;    i      j      k      l   func   phase     kd      pn
     1      2      5      9      9   180.00  15.16700   2 ;     C1-    C2-    C5-    C9
     1      2      5     22      9   180.00  15.16700   2 ;     C1-    C2-    C5-    H5
     1      4      8      9      9   180.00  15.16700   2 ;     C1-    C4-    C8-    C9
     1      4      8     13      9   180.00  15.16700   2 ;     C1-    C4-    C8-   C13
     2      1      4      8      9   180.00  15.16700   2 ;     C2-    C1-    C4-    C8
     2      1      4     21      9   180.00  15.16700   2 ;     C2-    C1-    C4-    H4
     2      5      9      8      9   180.00  15.16700   2 ;     C2-    C5-    C9-    C8
     2      5      9     14      9   180.00  15.16700   2 ;     C2-    C5-    C9-   C14
     3      6     10     11      9   180.00  15.16700   2 ;     C3-    C6-   C10-   C11
     3      6     10     13      9   180.00  15.16700   2 ;     C3-    C6-   C10-   C13
     3      7     12     11      9   180.00  15.16700   2 ;     C3-    C7-   C12-   C11
     3      7     12     15      9   180.00  15.16700   2 ;     C3-    C7-   C12-    N1
     4      1      2      5      9   180.00  15.16700   2 ;     C4-    C1-    C2-    C5
     4      1      2     19      9   180.00  15.16700   2 ;     C4-    C1-    C2-    H2
     4      8      9      5      9   180.00  15.16700   2 ;     C4-    C8-    C9-    C5
     4      8      9     14      9   180.00  15.16700   2 ;     C4-    C8-    C9-   C14
     4      8     13     10      9   180.00   5.23000   2 ;     C4-    C8-   C13-   C10
     4      8     13     16      9   180.00   2.42672   2 ;     C4-    C8-   C13-    O1
     5      9      8     13      9   180.00  15.16700   2 ;     C5-    C9-    C8-   C13
     5      9     14     11      9   180.00   5.23000   2 ;     C5-    C9-   C14-   C11
     5      9     14     17      9   180.00   2.42672   2 ;     C5-    C9-   C14-    O2
     6      3      7     12      9   180.00  15.16700   2 ;     C6-    C3-    C7-   C12
     6      3      7     24      9   180.00  15.16700   2 ;     C6-    C3-    C7-    H7
     6     10     11     12      9   180.00  15.16700   2 ;     C6-   C10-   C11-   C12
     6     10     11     14      9   180.00  15.16700   2 ;     C6-   C10-   C11-   C14
     6     10     13      8      9   180.00   5.23000   2 ;     C6-   C10-   C13-    C8
     6     10     13     16      9   180.00   2.42672   2 ;     C6-   C10-   C13-    O1
     7      3      6     10      9   180.00  15.16700   2 ;     C7-    C3-    C6-   C10
     7      3      6     23      9   180.00  15.16700   2 ;     C7-    C3-    C6-    H6
     7     12     11     10      9   180.00  15.16700   2 ;     C7-   C12-   C11-   C10
     7     12     11     14      9   180.00  15.16700   2 ;     C7-   C12-   C11-   C14
     7     12     15     25      9   180.00   4.39320   2 ;     C7-   C12-    N1-    H8
     7     12     15     26      9   180.00   4.39320   2 ;     C7-   C12-    N1-    H9
     8      9      5     22      9   180.00  15.16700   2 ;     C8-    C9-    C5-    H5
     8      9     14     11      9   180.00   5.23000   2 ;     C8-    C9-   C14-   C11
     8      9     14     17      9   180.00   2.42672   2 ;     C8-    C9-   C14-    O2
     8     13     10     11      9   180.00   5.23000   2 ;     C8-   C13-   C10-   C11
     9      5      2     19      9   180.00  15.16700   2 ;     C9-    C5-    C2-    H2
     9      8      4     21      9   180.00  15.16700   2 ;     C9-    C8-    C4-    H4
     9      8     13     10      9   180.00   5.23000   2 ;     C9-    C8-   C13-   C10
     9      8     13     16      9   180.00   2.42672   2 ;     C9-    C8-   C13-    O1
     9     14     11     10      9   180.00   5.23000   2 ;     C9-   C14-   C11-   C10
     9     14     11     12      9   180.00   5.23000   2 ;     C9-   C14-   C11-   C12
    10      6      3     20      9   180.00  15.16700   2 ;    C10-    C6-    C3-    H3
    10     11     12     15      9   180.00  15.16700   2 ;    C10-   C11-   C12-    N1
    10     11     14     17      9   180.00   2.42672   2 ;    C10-   C11-   C14-    O2
    11     10      6     23      9   180.00  15.16700   2 ;    C11-   C10-    C6-    H6
    11     10     13     16      9   180.00   2.42672   2 ;    C11-   C10-   C13-    O1
    11     12      7     24      9   180.00  15.16700   2 ;    C11-   C12-    C7-    H7
    11     12     15     25      9   180.00   4.39320   2 ;    C11-   C12-    N1-    H8
    11     12     15     26      9   180.00   4.39320   2 ;    C11-   C12-    N1-    H9
    12      7      3     20      9   180.00  15.16700   2 ;    C12-    C7-    C3-    H3
    12     11     10     13      9   180.00  15.16700   2 ;    C12-   C11-   C10-   C13
    12     11     14     17      9   180.00   2.42672   2 ;    C12-   C11-   C14-    O2
    13      8      4     21      9   180.00  15.16700   2 ;    C13-    C8-    C4-    H4
    13      8      9     14      9   180.00  15.16700   2 ;    C13-    C8-    C9-   C14
    13     10      6     23      9   180.00  15.16700   2 ;    C13-   C10-    C6-    H6
    13     10     11     14      9   180.00  15.16700   2 ;    C13-   C10-   C11-   C14
    14      9      5     22      9   180.00  15.16700   2 ;    C14-    C9-    C5-    H5
    14     11     12     15      9   180.00  15.16700   2 ;    C14-   C11-   C12-    N1
    15     12      7     24      9   180.00  15.16700   2 ;     N1-   C12-    C7-    H7
    18      1      2      5      9   180.00  15.16700   2 ;     H1-    C1-    C2-    C5
    18      1      2     19      9   180.00  15.16700   2 ;     H1-    C1-    C2-    H2
    18      1      4      8      9   180.00  15.16700   2 ;     H1-    C1-    C4-    C8
    18      1      4     21      9   180.00  15.16700   2 ;     H1-    C1-    C4-    H4
    19      2      5     22      9   180.00  15.16700   2 ;     H2-    C2-    C5-    H5
    20      3      6     23      9   180.00  15.16700   2 ;     H3-    C3-    C6-    H6
    20      3      7     24      9   180.00  15.16700   2 ;     H3-    C3-    C7-    H7

[ dihedrals ] ; impropers
; treated as propers in GROMACS to use correct AMBER analytical function
;    i      j      k      l   func   phase     kd      pn
     1      5      2     19      4   180.00   4.60240   2 ;     C1-    C5-    C2-    H2
     1      8      4     21      4   180.00   4.60240   2 ;     C1-    C8-    C4-    H4
     2      9      5     22      4   180.00   4.60240   2 ;     C2-    C9-    C5-    H5
     3     10      6     23      4   180.00   4.60240   2 ;     C3-   C10-    C6-    H6
     3     12      7     24      4   180.00   4.60240   2 ;     C3-   C12-    C7-    H7
     6      7      3     20      4   180.00   4.60240   2 ;     C6-    C7-    C3-    H3
     7     11     12     15      4   180.00   4.60240   2 ;     C7-   C11-   C12-    N1
     8     10     13     16      4   180.00  43.93200   2 ;     C8-   C10-   C13-    O1
     9     11     14     17      4   180.00  43.93200   2 ;     C9-   C11-   C14-    O2
    12     25     15     26      4   180.00   4.60240   2 ;    C12-    H8-    N1-    H9
    13      4      8      9      4   180.00   4.60240   2 ;    C13-    C4-    C8-    C9
    13      6     10     11      4   180.00   4.60240   2 ;    C13-    C6-   C10-   C11
    14      5      9      8      4   180.00   4.60240   2 ;    C14-    C5-    C9-    C8
    14     10     11     12      4   180.00   4.60240   2 ;    C14-   C10-   C11-   C12
    18      1      4      2      4   180.00   4.60240   2 ;     H1-    C1-    C4-    C2
