; mobley_637522_GMX.itp created by acpype (v: 2023.10.27) on Thu May 21 00:17:17 2026

[ atomtypes ]
;name   bond_type     mass     charge   ptype   sigma         epsilon       Amb
 ca       ca          0.00000  0.00000   A     3.31521e-01   4.13379e-01 ; 1.86  0.0988
 ha       ha          0.00000  0.00000   A     2.62548e-01   6.73624e-02 ; 1.47  0.0161

[ moleculetype ]
;name            nrexcl
 mobley_637522    3

[ atoms ]
;   nr  type  resi  res  atom  cgnr     charge      mass       ; qtot   bond_type
     1   ca     1   MOL    C1    1    -0.127000     12.01000 ; qtot -0.127
     2   ca     1   MOL    C2    2    -0.127000     12.01000 ; qtot -0.254
     3   ca     1   MOL    C3    3    -0.127000     12.01000 ; qtot -0.381
     4   ca     1   MOL    C4    4    -0.127000     12.01000 ; qtot -0.508
     5   ca     1   MOL    C5    5    -0.118000     12.01000 ; qtot -0.626
     6   ca     1   MOL    C6    6    -0.118000     12.01000 ; qtot -0.744
     7   ca     1   MOL    C7    7    -0.118000     12.01000 ; qtot -0.862
     8   ca     1   MOL    C8    8    -0.118000     12.01000 ; qtot -0.980
     9   ca     1   MOL    C9    9    -0.107000     12.01000 ; qtot -1.087
    10   ca     1   MOL   C10   10    -0.107000     12.01000 ; qtot -1.194
    11   ca     1   MOL   C11   11    -0.034000     12.01000 ; qtot -1.228
    12   ca     1   MOL   C12   12    -0.034000     12.01000 ; qtot -1.262
    13   ca     1   MOL   C13   13    -0.034000     12.01000 ; qtot -1.296
    14   ca     1   MOL   C14   14    -0.034000     12.01000 ; qtot -1.330
    15   ha     1   MOL    H1   15     0.132000      1.00800 ; qtot -1.198
    16   ha     1   MOL    H2   16     0.132000      1.00800 ; qtot -1.066
    17   ha     1   MOL    H3   17     0.132000      1.00800 ; qtot -0.934
    18   ha     1   MOL    H4   18     0.132000      1.00800 ; qtot -0.802
    19   ha     1   MOL    H5   19     0.132000      1.00800 ; qtot -0.670
    20   ha     1   MOL    H6   20     0.132000      1.00800 ; qtot -0.538
    21   ha     1   MOL    H7   21     0.132000      1.00800 ; qtot -0.406
    22   ha     1   MOL    H8   22     0.132000      1.00800 ; qtot -0.274
    23   ha     1   MOL    H9   23     0.137000      1.00800 ; qtot -0.137
    24   ha     1   MOL   H10   24     0.137000      1.00800 ; qtot -0.000

[ bonds ]
;   ai     aj funct   r             k
     1      2   1    1.3986e-01    2.9644e+05 ;     C1 - C2    
     1      5   1    1.3986e-01    2.9644e+05 ;     C1 - C5    
     1     15   1    1.0860e-01    3.0183e+05 ;     C1 - H1    
     2      6   1    1.3986e-01    2.9644e+05 ;     C2 - C6    
     2     16   1    1.0860e-01    3.0183e+05 ;     C2 - H2    
     3      4   1    1.3986e-01    2.9644e+05 ;     C3 - C4    
     3      7   1    1.3986e-01    2.9644e+05 ;     C3 - C7    
     3     17   1    1.0860e-01    3.0183e+05 ;     C3 - H3    
     4      8   1    1.3986e-01    2.9644e+05 ;     C4 - C8    
     4     18   1    1.0860e-01    3.0183e+05 ;     C4 - H4    
     5     11   1    1.3986e-01    2.9644e+05 ;     C5 - C11   
     5     19   1    1.0860e-01    3.0183e+05 ;     C5 - H5    
     6     12   1    1.3986e-01    2.9644e+05 ;     C6 - C12   
     6     20   1    1.0860e-01    3.0183e+05 ;     C6 - H6    
     7     13   1    1.3986e-01    2.9644e+05 ;     C7 - C13   
     7     21   1    1.0860e-01    3.0183e+05 ;     C7 - H7    
     8     14   1    1.3986e-01    2.9644e+05 ;     C8 - C14   
     8     22   1    1.0860e-01    3.0183e+05 ;     C8 - H8    
     9     11   1    1.3986e-01    2.9644e+05 ;     C9 - C11   
     9     13   1    1.3986e-01    2.9644e+05 ;     C9 - C13   
     9     23   1    1.0860e-01    3.0183e+05 ;     C9 - H9    
    10     12   1    1.3986e-01    2.9644e+05 ;    C10 - C12   
    10     14   1    1.3986e-01    2.9644e+05 ;    C10 - C14   
    10     24   1    1.0860e-01    3.0183e+05 ;    C10 - H10   
    11     12   1    1.3986e-01    2.9644e+05 ;    C11 - C12   
    13     14   1    1.3986e-01    2.9644e+05 ;    C13 - C14   

[ pairs ]
;   ai     aj    funct
     1      9      1 ;     C1 - C9    
     1     12      1 ;     C1 - C12   
     1     20      1 ;     C1 - H6    
     2     10      1 ;     C2 - C10   
     2     11      1 ;     C2 - C11   
     2     19      1 ;     C2 - H5    
     3      9      1 ;     C3 - C9    
     3     14      1 ;     C3 - C14   
     3     22      1 ;     C3 - H8    
     4     10      1 ;     C4 - C10   
     4     13      1 ;     C4 - C13   
     4     21      1 ;     C4 - H7    
     5      6      1 ;     C5 - C6    
     5     10      1 ;     C5 - C10   
     5     13      1 ;     C5 - C13   
     5     16      1 ;     C5 - H2    
     5     23      1 ;     C5 - H9    
     6      9      1 ;     C6 - C9    
     6     14      1 ;     C6 - C14   
     6     24      1 ;     C6 - H10   
     7      8      1 ;     C7 - C8    
     7     10      1 ;     C7 - C10   
     7     11      1 ;     C7 - C11   
     7     18      1 ;     C7 - H4    
     7     23      1 ;     C7 - H9    
     8      9      1 ;     C8 - C9    
     8     12      1 ;     C8 - C12   
     8     17      1 ;     C8 - H3    
     8     24      1 ;     C8 - H10   
     9     10      1 ;     C9 - C10   
     9     19      1 ;     C9 - H5    
     9     21      1 ;     C9 - H7    
    10     20      1 ;    C10 - H6    
    10     22      1 ;    C10 - H8    
    11     14      1 ;    C11 - C14   
    11     20      1 ;    C11 - H6    
    11     24      1 ;    C11 - H10   
    12     13      1 ;    C12 - C13   
    12     16      1 ;    C12 - H2    
    12     19      1 ;    C12 - H5    
    12     23      1 ;    C12 - H9    
    13     17      1 ;    C13 - H3    
    13     22      1 ;    C13 - H8    
    13     24      1 ;    C13 - H10   
    14     18      1 ;    C14 - H4    
    14     21      1 ;    C14 - H7    
    14     23      1 ;    C14 - H9    
    15      6      1 ;     H1 - C6    
    15     11      1 ;     H1 - C11   
    15     16      1 ;     H1 - H2    
    15     19      1 ;     H1 - H5    
    16     20      1 ;     H2 - H6    
    17     18      1 ;     H3 - H4    
    17     21      1 ;     H3 - H7    
    18     22      1 ;     H4 - H8    

[ angles ]
;   ai     aj     ak    funct   theta         cth
     1      2      6      1    1.2002e+02    5.3279e+02 ;     C1 - C2     - C6    
     1      2     16      1    1.1988e+02    3.7572e+02 ;     C1 - C2     - H2    
     1      5     11      1    1.2002e+02    5.3279e+02 ;     C1 - C5     - C11   
     1      5     19      1    1.1988e+02    3.7572e+02 ;     C1 - C5     - H5    
     2      1      5      1    1.2002e+02    5.3279e+02 ;     C2 - C1     - C5    
     2      1     15      1    1.1988e+02    3.7572e+02 ;     C2 - C1     - H1    
     2      6     12      1    1.2002e+02    5.3279e+02 ;     C2 - C6     - C12   
     2      6     20      1    1.1988e+02    3.7572e+02 ;     C2 - C6     - H6    
     3      4      8      1    1.2002e+02    5.3279e+02 ;     C3 - C4     - C8    
     3      4     18      1    1.1988e+02    3.7572e+02 ;     C3 - C4     - H4    
     3      7     13      1    1.2002e+02    5.3279e+02 ;     C3 - C7     - C13   
     3      7     21      1    1.1988e+02    3.7572e+02 ;     C3 - C7     - H7    
     4      3      7      1    1.2002e+02    5.3279e+02 ;     C4 - C3     - C7    
     4      3     17      1    1.1988e+02    3.7572e+02 ;     C4 - C3     - H3    
     4      8     14      1    1.2002e+02    5.3279e+02 ;     C4 - C8     - C14   
     4      8     22      1    1.1988e+02    3.7572e+02 ;     C4 - C8     - H8    
     5      1     15      1    1.1988e+02    3.7572e+02 ;     C5 - C1     - H1    
     5     11      9      1    1.2002e+02    5.3279e+02 ;     C5 - C11    - C9    
     5     11     12      1    1.2002e+02    5.3279e+02 ;     C5 - C11    - C12   
     6      2     16      1    1.1988e+02    3.7572e+02 ;     C6 - C2     - H2    
     6     12     10      1    1.2002e+02    5.3279e+02 ;     C6 - C12    - C10   
     6     12     11      1    1.2002e+02    5.3279e+02 ;     C6 - C12    - C11   
     7      3     17      1    1.1988e+02    3.7572e+02 ;     C7 - C3     - H3    
     7     13      9      1    1.2002e+02    5.3279e+02 ;     C7 - C13    - C9    
     7     13     14      1    1.2002e+02    5.3279e+02 ;     C7 - C13    - C14   
     8      4     18      1    1.1988e+02    3.7572e+02 ;     C8 - C4     - H4    
     8     14     10      1    1.2002e+02    5.3279e+02 ;     C8 - C14    - C10   
     8     14     13      1    1.2002e+02    5.3279e+02 ;     C8 - C14    - C13   
     9     11     12      1    1.2002e+02    5.3279e+02 ;     C9 - C11    - C12   
     9     13     14      1    1.2002e+02    5.3279e+02 ;     C9 - C13    - C14   
    10     12     11      1    1.2002e+02    5.3279e+02 ;    C10 - C12    - C11   
    10     14     13      1    1.2002e+02    5.3279e+02 ;    C10 - C14    - C13   
    11      5     19      1    1.1988e+02    3.7572e+02 ;    C11 - C5     - H5    
    11      9     13      1    1.2002e+02    5.3279e+02 ;    C11 - C9     - C13   
    11      9     23      1    1.1988e+02    3.7572e+02 ;    C11 - C9     - H9    
    12      6     20      1    1.1988e+02    3.7572e+02 ;    C12 - C6     - H6    
    12     10     14      1    1.2002e+02    5.3279e+02 ;    C12 - C10    - C14   
    12     10     24      1    1.1988e+02    3.7572e+02 ;    C12 - C10    - H10   
    13      7     21      1    1.1988e+02    3.7572e+02 ;    C13 - C7     - H7    
    13      9     23      1    1.1988e+02    3.7572e+02 ;    C13 - C9     - H9    
    14      8     22      1    1.1988e+02    3.7572e+02 ;    C14 - C8     - H8    
    14     10     24      1    1.1988e+02    3.7572e+02 ;    C14 - C10    - H10   

[ dihedrals ] ; propers
; for gromacs 4.5 or higher, using funct 9
;    i      j      k      l   func   phase     kd      pn
     1      2      6     12      9   180.00  15.16700   2 ;     C1-    C2-    C6-   C12
     1      2      6     20      9   180.00  15.16700   2 ;     C1-    C2-    C6-    H6
     1      5     11      9      9   180.00  15.16700   2 ;     C1-    C5-   C11-    C9
     1      5     11     12      9   180.00  15.16700   2 ;     C1-    C5-   C11-   C12
     2      1      5     11      9   180.00  15.16700   2 ;     C2-    C1-    C5-   C11
     2      1      5     19      9   180.00  15.16700   2 ;     C2-    C1-    C5-    H5
     2      6     12     10      9   180.00  15.16700   2 ;     C2-    C6-   C12-   C10
     2      6     12     11      9   180.00  15.16700   2 ;     C2-    C6-   C12-   C11
     3      4      8     14      9   180.00  15.16700   2 ;     C3-    C4-    C8-   C14
     3      4      8     22      9   180.00  15.16700   2 ;     C3-    C4-    C8-    H8
     3      7     13      9      9   180.00  15.16700   2 ;     C3-    C7-   C13-    C9
     3      7     13     14      9   180.00  15.16700   2 ;     C3-    C7-   C13-   C14
     4      3      7     13      9   180.00  15.16700   2 ;     C4-    C3-    C7-   C13
     4      3      7     21      9   180.00  15.16700   2 ;     C4-    C3-    C7-    H7
     4      8     14     10      9   180.00  15.16700   2 ;     C4-    C8-   C14-   C10
     4      8     14     13      9   180.00  15.16700   2 ;     C4-    C8-   C14-   C13
     5      1      2      6      9   180.00  15.16700   2 ;     C5-    C1-    C2-    C6
     5      1      2     16      9   180.00  15.16700   2 ;     C5-    C1-    C2-    H2
     5     11      9     13      9   180.00  15.16700   2 ;     C5-   C11-    C9-   C13
     5     11      9     23      9   180.00  15.16700   2 ;     C5-   C11-    C9-    H9
     5     11     12      6      9   180.00  15.16700   2 ;     C5-   C11-   C12-    C6
     5     11     12     10      9   180.00  15.16700   2 ;     C5-   C11-   C12-   C10
     6     12     10     14      9   180.00  15.16700   2 ;     C6-   C12-   C10-   C14
     6     12     10     24      9   180.00  15.16700   2 ;     C6-   C12-   C10-   H10
     6     12     11      9      9   180.00  15.16700   2 ;     C6-   C12-   C11-    C9
     7      3      4      8      9   180.00  15.16700   2 ;     C7-    C3-    C4-    C8
     7      3      4     18      9   180.00  15.16700   2 ;     C7-    C3-    C4-    H4
     7     13      9     11      9   180.00  15.16700   2 ;     C7-   C13-    C9-   C11
     7     13      9     23      9   180.00  15.16700   2 ;     C7-   C13-    C9-    H9
     7     13     14      8      9   180.00  15.16700   2 ;     C7-   C13-   C14-    C8
     7     13     14     10      9   180.00  15.16700   2 ;     C7-   C13-   C14-   C10
     8      4      3     17      9   180.00  15.16700   2 ;     C8-    C4-    C3-    H3
     8     14     10     12      9   180.00  15.16700   2 ;     C8-   C14-   C10-   C12
     8     14     10     24      9   180.00  15.16700   2 ;     C8-   C14-   C10-   H10
     8     14     13      9      9   180.00  15.16700   2 ;     C8-   C14-   C13-    C9
     9     11      5     19      9   180.00  15.16700   2 ;     C9-   C11-    C5-    H5
     9     11     12     10      9   180.00  15.16700   2 ;     C9-   C11-   C12-   C10
     9     13      7     21      9   180.00  15.16700   2 ;     C9-   C13-    C7-    H7
     9     13     14     10      9   180.00  15.16700   2 ;     C9-   C13-   C14-   C10
    10     12      6     20      9   180.00  15.16700   2 ;    C10-   C12-    C6-    H6
    10     14      8     22      9   180.00  15.16700   2 ;    C10-   C14-    C8-    H8
    11      9     13     14      9   180.00  15.16700   2 ;    C11-    C9-   C13-   C14
    11     12      6     20      9   180.00  15.16700   2 ;    C11-   C12-    C6-    H6
    11     12     10     14      9   180.00  15.16700   2 ;    C11-   C12-   C10-   C14
    11     12     10     24      9   180.00  15.16700   2 ;    C11-   C12-   C10-   H10
    12      6      2     16      9   180.00  15.16700   2 ;    C12-    C6-    C2-    H2
    12     10     14     13      9   180.00  15.16700   2 ;    C12-   C10-   C14-   C13
    12     11      5     19      9   180.00  15.16700   2 ;    C12-   C11-    C5-    H5
    12     11      9     13      9   180.00  15.16700   2 ;    C12-   C11-    C9-   C13
    12     11      9     23      9   180.00  15.16700   2 ;    C12-   C11-    C9-    H9
    13      7      3     17      9   180.00  15.16700   2 ;    C13-    C7-    C3-    H3
    13     14      8     22      9   180.00  15.16700   2 ;    C13-   C14-    C8-    H8
    13     14     10     24      9   180.00  15.16700   2 ;    C13-   C14-   C10-   H10
    14      8      4     18      9   180.00  15.16700   2 ;    C14-    C8-    C4-    H4
    14     13      7     21      9   180.00  15.16700   2 ;    C14-   C13-    C7-    H7
    14     13      9     23      9   180.00  15.16700   2 ;    C14-   C13-    C9-    H9
    15      1      2      6      9   180.00  15.16700   2 ;     H1-    C1-    C2-    C6
    15      1      2     16      9   180.00  15.16700   2 ;     H1-    C1-    C2-    H2
    15      1      5     11      9   180.00  15.16700   2 ;     H1-    C1-    C5-   C11
    15      1      5     19      9   180.00  15.16700   2 ;     H1-    C1-    C5-    H5
    16      2      6     20      9   180.00  15.16700   2 ;     H2-    C2-    C6-    H6
    17      3      4     18      9   180.00  15.16700   2 ;     H3-    C3-    C4-    H4
    17      3      7     21      9   180.00  15.16700   2 ;     H3-    C3-    C7-    H7
    18      4      8     22      9   180.00  15.16700   2 ;     H4-    C4-    C8-    H8

[ dihedrals ] ; impropers
; treated as propers in GROMACS to use correct AMBER analytical function
;    i      j      k      l   func   phase     kd      pn
     1      6      2     16      4   180.00   4.60240   2 ;     C1-    C6-    C2-    H2
     1     11      5     19      4   180.00   4.60240   2 ;     C1-   C11-    C5-    H5
     2     12      6     20      4   180.00   4.60240   2 ;     C2-   C12-    C6-    H6
     3      8      4     18      4   180.00   4.60240   2 ;     C3-    C8-    C4-    H4
     3     13      7     21      4   180.00   4.60240   2 ;     C3-   C13-    C7-    H7
     4      7      3     17      4   180.00   4.60240   2 ;     C4-    C7-    C3-    H3
     4     14      8     22      4   180.00   4.60240   2 ;     C4-   C14-    C8-    H8
     5      9     11     12      4   180.00   4.60240   2 ;     C5-    C9-   C11-   C12
     6     10     12     11      4   180.00   4.60240   2 ;     C6-   C10-   C12-   C11
     7      9     13     14      4   180.00   4.60240   2 ;     C7-    C9-   C13-   C14
     8     10     14     13      4   180.00   4.60240   2 ;     C8-   C10-   C14-   C13
    11     13      9     23      4   180.00   4.60240   2 ;    C11-   C13-    C9-    H9
    12     14     10     24      4   180.00   4.60240   2 ;    C12-   C14-   C10-   H10
    15      1      5      2      4   180.00   4.60240   2 ;     H1-    C1-    C5-    C2
