mobley_7375018_GMX.gro created by acpype (v: 2023.10.27) on Thu May 21 00:24:13 2026
 2380
    1MOL     C1    1   3.244   2.643   2.724
    1MOL     C2    2   3.351   2.544   2.760
    1MOL     C3    3   2.114   2.846   2.732
    1MOL     C4    4   3.101   2.597   2.747
    1MOL     C5    5   2.255   2.890   2.699
    1MOL     C6    6   2.996   2.701   2.707
    1MOL     C7    7   2.357   2.781   2.730
    1MOL     C8    8   2.853   2.652   2.730
    1MOL     C9    9   2.499   2.824   2.693
    1MOL    C10   10   2.750   2.759   2.693
    1MOL    C11   11   2.606   2.719   2.723
    1MOL     O1   12   3.272   2.754   2.681
    1MOL     H1   13   3.343   2.518   2.866
    1MOL     H2   14   3.450   2.588   2.742
    1MOL     H3   15   3.341   2.454   2.699
    1MOL     H4   16   2.086   2.757   2.675
    1MOL     H5   17   2.104   2.822   2.839
    1MOL     H6   18   2.043   2.926   2.709
    1MOL     H7   19   3.091   2.576   2.854
    1MOL     H8   20   3.084   2.504   2.691
    1MOL     H9   21   2.279   2.981   2.756
    1MOL    H10   22   2.260   2.917   2.592
    1MOL    H11   23   3.012   2.791   2.767
    1MOL    H12   24   3.009   2.729   2.602
    1MOL    H13   25   2.352   2.757   2.837
    1MOL    H14   26   2.331   2.689   2.675
    1MOL    H15   27   2.835   2.561   2.671
    1MOL    H16   28   2.840   2.624   2.836
    1MOL    H17   29   2.502   2.846   2.585
    1MOL    H18   30   2.524   2.918   2.744
    1MOL    H19   31   2.761   2.785   2.587
    1MOL    H20   32   2.772   2.850   2.750
    1MOL    H21   33   2.582   2.628   2.665
    1MOL    H22   34   2.599   2.691   2.829
  219SOL     OW   35   1.555   1.511   2.565
  219SOL    HW1   36   1.498   1.495   2.646
  219SOL    HW2   37   1.496   1.521   2.485
  238SOL     OW   38   1.842   1.767   2.221
  238SOL    HW1   39   1.896   1.738   2.301
  238SOL    HW2   40   1.872   1.857   2.192
  251SOL     OW   41   1.667   1.714   2.434
  251SOL    HW1   42   1.626   1.691   2.346
  251SOL    HW2   43   1.649   1.640   2.499
  254SOL     OW   44   1.576   1.662   2.169
  254SOL    HW1   45   1.665   1.708   2.172
  254SOL    HW2   46   1.555   1.638   2.074
  295SOL     OW   47   1.271   1.797   2.453
  295SOL    HW1   48   1.315   1.861   2.389
  295SOL    HW2   49   1.221   1.849   2.523
  310SOL     OW   50   1.592   1.629   3.487
  310SOL    HW1   51   1.619   1.663   3.397
  310SOL    HW2   52   1.671   1.591   3.533
  340SOL     OW   53   1.859   1.518   3.467
  340SOL    HW1   54   1.873   1.545   3.372
  340SOL    HW2   55   1.942   1.540   3.520
  365SOL     OW   56   1.759   1.747   3.016
  365SOL    HW1   57   1.820   1.777   2.943
  365SOL    HW2   58   1.721   1.658   2.994
  366SOL     OW   59   1.252   1.731   2.990
  366SOL    HW1   60   1.336   1.736   2.936
  366SOL    HW2   61   1.229   1.635   3.008
  375SOL     OW   62   1.650   1.720   3.256
  375SOL    HW1   63   1.703   1.730   3.172
  375SOL    HW2   64   1.623   1.810   3.290
  396SOL     OW   65   1.493   1.767   2.821
  396SOL    HW1   66   1.526   1.831   2.752
  396SOL    HW2   67   1.559   1.761   2.896
  409SOL     OW   68   1.861   1.569   2.713
  409SOL    HW1   69   1.790   1.557   2.643
  409SOL    HW2   70   1.862   1.490   2.773
  415SOL     OW   71   1.705   1.487   2.966
  415SOL    HW1   72   1.612   1.462   2.939
  415SOL    HW2   73   1.731   1.437   3.048
  656SOL     OW   74   1.394   2.331   1.674
  656SOL    HW1   75   1.374   2.374   1.762
  656SOL    HW2   76   1.472   2.269   1.683
  663SOL     OW   77   1.719   2.447   1.831
  663SOL    HW1   78   1.693   2.536   1.795
  663SOL    HW2   79   1.717   2.379   1.758
  681SOL     OW   80   1.547   2.084   1.729
  681SOL    HW1   81   1.542   2.121   1.821
  681SOL    HW2   82   1.475   2.015   1.717
  708SOL     OW   83   1.754   3.085   1.588
  708SOL    HW1   84   1.845   3.046   1.575
  708SOL    HW2   85   1.762   3.181   1.612
  710SOL     OW   86   1.592   3.491   1.625
  710SOL    HW1   87   1.619   3.525   1.535
  710SOL    HW2   88   1.671   3.453   1.671
  726SOL     OW   89   1.587   2.641   1.670
  726SOL    HW1   90   1.495   2.679   1.665
  726SOL    HW2   91   1.647   2.688   1.605
  735SOL     OW   92   1.728   2.797   1.854
  735SOL    HW1   93   1.682   2.790   1.765
  735SOL    HW2   94   1.666   2.841   1.920
  740SOL     OW   95   1.859   3.380   1.605
  740SOL    HW1   96   1.873   3.407   1.510
  740SOL    HW2   97   1.942   3.402   1.658
  755SOL     OW   98   1.369   2.812   1.660
  755SOL    HW1   99   1.408   2.901   1.680
  755SOL    HW2  100   1.379   2.792   1.563
  788SOL     OW  101   1.709   2.247   1.381
  788SOL    HW1  102   1.782   2.316   1.385
  788SOL    HW2  103   1.737   2.172   1.322
  799SOL     OW  104   1.450   3.082   1.633
  799SOL    HW1  105   1.441   3.072   1.732
  799SOL    HW2  106   1.546   3.075   1.607
  804SOL     OW  107   1.777   2.204   1.642
  804SOL    HW1  108   1.760   2.235   1.548
  804SOL    HW2  109   1.693   2.167   1.680
  805SOL     OW  110   1.730   2.796   1.517
  805SOL    HW1  111   1.768   2.887   1.532
  805SOL    HW2  112   1.722   2.779   1.418
  832SOL     OW  113   1.555   3.373   2.565
  832SOL    HW1  114   1.498   3.357   2.646
  832SOL    HW2  115   1.496   3.383   2.485
  833SOL     OW  116   1.135   2.565   2.579
  833SOL    HW1  117   1.192   2.643   2.554
  833SOL    HW2  118   1.075   2.591   2.655
  834SOL     OW  119   1.755   2.469   2.093
  834SOL    HW1  120   1.743   2.456   1.994
  834SOL    HW2  121   1.725   2.388   2.142
  840SOL     OW  122   1.460   3.367   3.201
  840SOL    HW1  123   1.484   3.461   3.227
  840SOL    HW2  124   1.444   3.313   3.283
  842SOL     OW  125   1.603   2.309   2.599
  842SOL    HW1  126   1.529   2.355   2.549
  842SOL    HW2  127   1.654   2.377   2.652
  849SOL     OW  128   1.594   1.976   3.342
  849SOL    HW1  129   1.576   2.043   3.270
  849SOL    HW2  130   1.591   2.022   3.431
  851SOL     OW  131   1.842   3.629   2.221
  851SOL    HW1  132   1.896   3.600   2.301
  851SOL    HW2  133   1.872   3.719   2.192
  853SOL     OW  134   1.689   2.784   2.474
  853SOL    HW1  135   1.784   2.755   2.482
  853SOL    HW2  136   1.681   2.849   2.399
  854SOL     OW  137   1.641   2.970   2.294
  854SOL    HW1  138   1.727   2.972   2.242
  854SOL    HW2  139   1.655   3.017   2.382
  857SOL     OW  140   1.293   3.090   3.285
  857SOL    HW1  141   1.330   3.017   3.227
  857SOL    HW2  142   1.345   3.095   3.370
  860SOL     OW  143   1.525   2.861   2.052
  860SOL    HW1  144   1.462   2.785   2.065
  860SOL    HW2  145   1.573   2.879   2.138
  863SOL     OW  146   1.466   3.279   2.815
  863SOL    HW1  147   1.407   3.285   2.895
  863SOL    HW2  148   1.451   3.191   2.769
  864SOL     OW  149   1.667   3.576   2.434
  864SOL    HW1  150   1.626   3.553   2.346
  864SOL    HW2  151   1.649   3.502   2.499
  866SOL     OW  152   1.281   2.207   2.806
  866SOL    HW1  153   1.195   2.157   2.793
  866SOL    HW2  154   1.343   2.153   2.862
  867SOL     OW  155   1.576   3.524   2.169
  867SOL    HW1  156   1.665   3.570   2.172
  867SOL    HW2  157   1.555   3.500   2.074
  869SOL     OW  158   1.394   2.331   3.536
  869SOL    HW1  159   1.374   2.374   3.624
  869SOL    HW2  160   1.472   2.269   3.545
  872SOL     OW  161   1.041   2.563   2.291
  872SOL    HW1  162   1.067   2.559   2.387
  872SOL    HW2  163   0.956   2.512   2.277
  876SOL     OW  164   1.719   2.447   3.693
  876SOL    HW1  165   1.693   2.536   3.657
  876SOL    HW2  166   1.717   2.379   3.620
  877SOL     OW  167   1.362   3.006   2.407
  877SOL    HW1  168   1.445   2.977   2.359
  877SOL    HW2  169   1.313   3.073   2.351
  881SOL     OW  170   1.795   2.928   2.735
  881SOL    HW1  171   1.733   2.913   2.659
  881SOL    HW2  172   1.743   2.939   2.820
  882SOL     OW  173   1.227   3.412   3.368
  882SOL    HW1  174   1.233   3.335   3.432
  882SOL    HW2  175   1.175   3.386   3.288
  884SOL     OW  176   1.458   2.597   2.590
  884SOL    HW1  177   1.453   2.532   2.665
  884SOL    HW2  178   1.538   2.656   2.603
  888SOL     OW  179   1.632   3.239   1.943
  888SOL    HW1  180   1.600   3.333   1.933
  888SOL    HW2  181   1.556   3.176   1.931
  890SOL     OW  182   1.400   1.969   2.288
  890SOL    HW1  183   1.376   1.932   2.198
  890SOL    HW2  184   1.499   1.985   2.292
  894SOL     OW  185   1.547   2.084   3.591
  894SOL    HW1  186   1.542   2.121   3.683
  894SOL    HW2  187   1.475   2.015   3.579
  898SOL     OW  188   1.351   2.452   3.295
  898SOL    HW1  189   1.379   2.409   3.380
  898SOL    HW2  190   1.376   2.548   3.296
  902SOL     OW  191   1.434   3.050   1.903
  902SOL    HW1  192   1.466   2.974   1.960
  902SOL    HW2  193   1.342   3.077   1.933
  905SOL     OW  194   1.076   2.545   3.326
  905SOL    HW1  195   0.996   2.484   3.329
  905SOL    HW2  196   1.157   2.492   3.302
  906SOL     OW  197   1.227   3.432   2.655
  906SOL    HW1  198   1.248   3.506   2.590
  906SOL    HW2  199   1.295   3.432   2.728
  908SOL     OW  200   1.271   3.659   2.453
  908SOL    HW1  201   1.315   3.723   2.389
  908SOL    HW2  202   1.221   3.711   2.523
  914SOL     OW  203   1.429   3.035   2.729
  914SOL    HW1  204   1.374   2.951   2.722
  914SOL    HW2  205   1.455   3.064   2.637
  915SOL     OW  206   1.466   2.452   2.854
  915SOL    HW1  207   1.436   2.357   2.861
  915SOL    HW2  208   1.539   2.468   2.920
  916SOL     OW  209   1.857   2.695   2.239
  916SOL    HW1  210   1.899   2.631   2.303
  916SOL    HW2  211   1.819   2.644   2.161
  918SOL     OW  212   1.664   3.142   2.519
  918SOL    HW1  213   1.763   3.150   2.533
  918SOL    HW2  214   1.619   3.226   2.550
  919SOL     OW  215   1.390   2.437   1.940
  919SOL    HW1  216   1.336   2.416   2.021
  919SOL    HW2  217   1.481   2.396   1.949
  921SOL     OW  218   1.754   3.085   3.450
  921SOL    HW1  219   1.845   3.046   3.437
  921SOL    HW2  220   1.762   3.181   3.474
  922SOL     OW  221   1.064   3.209   3.202
  922SOL    HW1  222   0.984   3.186   3.257
  922SOL    HW2  223   1.147   3.183   3.251
  923SOL     OW  224   1.592   3.491   3.487
  923SOL    HW1  225   1.619   3.525   3.397
  923SOL    HW2  226   1.671   3.453   3.533
  924SOL     OW  227   1.111   3.057   2.962
  924SOL    HW1  228   1.071   3.101   3.043
  924SOL    HW2  229   1.070   3.094   2.879
  925SOL     OW  230   1.638   2.961   2.941
  925SOL    HW1  231   1.643   3.042   3.000
  925SOL    HW2  232   1.552   2.963   2.890
  930SOL     OW  233   1.274   2.248   3.124
  930SOL    HW1  234   1.295   2.322   3.188
  930SOL    HW2  235   1.185   2.265   3.081
  934SOL     OW  236   1.252   3.210   2.250
  934SOL    HW1  237   1.302   3.287   2.290
  934SOL    HW2  238   1.157   3.212   2.282
  935SOL     OW  239   1.272   3.307   3.004
  935SOL    HW1  240   1.319   3.320   3.091
  935SOL    HW2  241   1.206   3.233   3.013
  936SOL     OW  242   1.582   2.501   2.334
  936SOL    HW1  243   1.551   2.562   2.407
  936SOL    HW2  244   1.632   2.553   2.265
  939SOL     OW  245   1.587   2.641   3.532
  939SOL    HW1  246   1.495   2.679   3.527
  939SOL    HW2  247   1.647   2.688   3.467
  943SOL     OW  248   1.360   2.724   2.907
  943SOL    HW1  249   1.285   2.724   2.841
  943SOL    HW2  250   1.397   2.632   2.916
  944SOL     OW  251   1.209   2.387   2.137
  944SOL    HW1  252   1.222   2.303   2.191
  944SOL    HW2  253   1.180   2.461   2.197
  948SOL     OW  254   1.728   2.797   3.716
  948SOL    HW1  255   1.682   2.790   3.627
  948SOL    HW2  256   1.666   2.841   3.782
  950SOL     OW  257   1.622   2.229   2.236
  950SOL    HW1  258   1.624   2.153   2.300
  950SOL    HW2  259   1.574   2.306   2.276
  951SOL     OW  260   1.023   2.628   2.828
  951SOL    HW1  261   1.038   2.649   2.924
  951SOL    HW2  262   0.993   2.533   2.819
  953SOL     OW  263   1.859   3.380   3.467
  953SOL    HW1  264   1.873   3.407   3.372
  953SOL    HW2  265   1.942   3.402   3.520
  955SOL     OW  266   1.540   2.136   1.987
  955SOL    HW1  267   1.479   2.061   2.010
  955SOL    HW2  268   1.562   2.188   2.070
  956SOL     OW  269   1.303   2.700   1.904
  956SOL    HW1  270   1.337   2.607   1.919
  956SOL    HW2  271   1.321   2.727   1.809
  957SOL     OW  272   1.068   3.195   2.711
  957SOL    HW1  273   1.075   3.111   2.656
  957SOL    HW2  274   1.130   3.264   2.675
  965SOL     OW  275   1.002   2.658   3.100
  965SOL    HW1  276   1.043   2.626   3.186
  965SOL    HW2  277   0.906   2.631   3.097
  968SOL     OW  278   1.369   2.812   3.522
  968SOL    HW1  279   1.408   2.901   3.542
  968SOL    HW2  280   1.379   2.792   3.425
  970SOL     OW  281   1.657   2.466   3.068
  970SOL    HW1  282   1.619   2.397   3.130
  970SOL    HW2  283   1.739   2.430   3.024
  976SOL     OW  284   1.347   2.921   3.096
  976SOL    HW1  285   1.371   2.858   3.022
  976SOL    HW2  286   1.257   2.961   3.078
  977SOL     OW  287   1.302   2.717   2.171
  977SOL    HW1  288   1.216   2.686   2.213
  977SOL    HW2  289   1.298   2.703   2.072
  978SOL     OW  290   1.759   3.609   3.016
  978SOL    HW1  291   1.820   3.639   2.943
  978SOL    HW2  292   1.721   3.520   2.994
  979SOL     OW  293   1.252   3.593   2.990
  979SOL    HW1  294   1.336   3.598   2.936
  979SOL    HW2  295   1.229   3.497   3.008
  982SOL     OW  296   1.726   1.997   2.385
  982SOL    HW1  297   1.799   1.980   2.318
  982SOL    HW2  298   1.695   1.910   2.423
  983SOL     OW  299   1.388   3.435   2.339
  983SOL    HW1  300   1.455   3.447   2.265
  983SOL    HW2  301   1.348   3.524   2.362
  985SOL     OW  302   1.280   2.789   2.534
  985SOL    HW1  303   1.340   2.708   2.536
  985SOL    HW2  304   1.320   2.858   2.474
  988SOL     OW  305   1.650   3.582   3.256
  988SOL    HW1  306   1.703   3.592   3.172
  988SOL    HW2  307   1.623   3.672   3.290
  989SOL     OW  308   1.841   2.037   2.825
  989SOL    HW1  309   1.880   1.952   2.789
  989SOL    HW2  310   1.743   2.039   2.806
  994SOL     OW  311   1.504   3.469   1.906
  994SOL    HW1  312   1.412   3.506   1.913
  994SOL    HW2  313   1.542   3.489   1.816
  996SOL     OW  314   1.614   3.154   3.151
  996SOL    HW1  315   1.674   3.157   3.231
  996SOL    HW2  316   1.539   3.218   3.164
  997SOL     OW  317   1.039   2.960   2.558
  997SOL    HW1  318   0.969   2.913   2.612
  997SOL    HW2  319   1.098   2.892   2.515
 1000SOL     OW  320   1.709   2.247   3.243
 1000SOL    HW1  321   1.782   2.316   3.247
 1000SOL    HW2  322   1.737   2.172   3.184
 1005SOL     OW  323   1.440   2.718   3.260
 1005SOL    HW1  324   1.383   2.770   3.197
 1005SOL    HW2  325   1.536   2.730   3.236
 1007SOL     OW  326   1.183   3.197   1.981
 1007SOL    HW1  327   1.084   3.186   1.983
 1007SOL    HW2  328   1.217   3.212   2.074
 1009SOL     OW  329   1.493   3.629   2.821
 1009SOL    HW1  330   1.526   3.693   2.752
 1009SOL    HW2  331   1.559   3.623   2.896
 1011SOL     OW  332   1.450   3.082   3.495
 1011SOL    HW1  333   1.441   3.072   3.594
 1011SOL    HW2  334   1.546   3.075   3.469
 1013SOL     OW  335   1.674   2.745   3.116
 1013SOL    HW1  336   1.647   2.656   3.079
 1013SOL    HW2  337   1.675   2.813   3.043
 1014SOL     OW  338   1.225   2.187   2.311
 1014SOL    HW1  339   1.290   2.113   2.300
 1014SOL    HW2  340   1.245   2.237   2.395
 1016SOL     OW  341   1.777   2.204   3.504
 1016SOL    HW1  342   1.760   2.235   3.410
 1016SOL    HW2  343   1.693   2.167   3.542
 1017SOL     OW  344   1.730   2.796   3.379
 1017SOL    HW1  345   1.768   2.887   3.394
 1017SOL    HW2  346   1.722   2.779   3.280
 1022SOL     OW  347   1.861   3.431   2.713
 1022SOL    HW1  348   1.790   3.419   2.643
 1022SOL    HW2  349   1.862   3.352   2.773
 1026SOL     OW  350   1.824   2.054   3.089
 1026SOL    HW1  351   1.820   1.964   3.133
 1026SOL    HW2  352   1.827   2.043   2.990
 1028SOL     OW  353   1.705   3.349   2.966
 1028SOL    HW1  354   1.612   3.324   2.939
 1028SOL    HW2  355   1.731   3.299   3.048
 1031SOL     OW  356   1.424   2.076   2.974
 1031SOL    HW1  357   1.476   2.011   3.029
 1031SOL    HW2  358   1.375   2.139   3.035
 1035SOL     OW  359   1.352   1.914   2.030
 1035SOL    HW1  360   1.387   1.873   1.946
 1035SOL    HW2  361   1.262   1.876   2.050
 1036SOL     OW  362   1.300   2.315   2.553
 1036SOL    HW1  363   1.241   2.395   2.557
 1036SOL    HW2  364   1.315   2.280   2.646
 1037SOL     OW  365   1.593   2.083   2.744
 1037SOL    HW1  366   1.509   2.082   2.798
 1037SOL    HW2  367   1.595   2.166   2.688
 1046SOL     OW  368   1.755   2.469   3.955
 1046SOL    HW1  369   1.743   2.456   3.856
 1046SOL    HW2  370   1.725   2.388   4.004
 1069SOL     OW  371   1.525   2.861   3.914
 1069SOL    HW1  372   1.462   2.785   3.927
 1069SOL    HW2  373   1.573   2.879   4.000
 1093SOL     OW  374   1.632   3.239   3.805
 1093SOL    HW1  375   1.600   3.333   3.795
 1093SOL    HW2  376   1.556   3.176   3.793
 1105SOL     OW  377   1.434   3.050   3.765
 1105SOL    HW1  378   1.466   2.974   3.822
 1105SOL    HW2  379   1.342   3.077   3.795
 1119SOL     OW  380   1.857   2.695   4.101
 1119SOL    HW1  381   1.899   2.631   4.165
 1119SOL    HW2  382   1.819   2.644   4.023
 1122SOL     OW  383   1.390   2.437   3.802
 1122SOL    HW1  384   1.336   2.416   3.883
 1122SOL    HW2  385   1.481   2.396   3.811
 1151SOL     OW  386   1.540   2.136   3.849
 1151SOL    HW1  387   1.479   2.061   3.872
 1151SOL    HW2  388   1.562   2.188   3.932
 1152SOL     OW  389   1.303   2.700   3.766
 1152SOL    HW1  390   1.337   2.607   3.781
 1152SOL    HW2  391   1.321   2.727   3.671
 1185SOL     OW  392   1.504   3.469   3.768
 1185SOL    HW1  393   1.412   3.506   3.775
 1185SOL    HW2  394   1.542   3.489   3.678
 1439SOL     OW  395   1.594   3.838   3.342
 1439SOL    HW1  396   1.576   3.905   3.270
 1439SOL    HW2  397   1.591   3.884   3.431
 1473SOL     OW  398   1.400   3.831   2.288
 1473SOL    HW1  399   1.376   3.794   2.198
 1473SOL    HW2  400   1.499   3.847   2.292
 1559SOL     OW  401   1.726   3.859   2.385
 1559SOL    HW1  402   1.799   3.842   2.318
 1559SOL    HW2  403   1.695   3.772   2.423
 1565SOL     OW  404   1.841   3.899   2.825
 1565SOL    HW1  405   1.880   3.814   2.789
 1565SOL    HW2  406   1.743   3.901   2.806
 1575SOL     OW  407   1.709   4.109   3.243
 1575SOL    HW1  408   1.782   4.178   3.247
 1575SOL    HW2  409   1.737   4.034   3.184
 1598SOL     OW  410   1.824   3.916   3.089
 1598SOL    HW1  411   1.820   3.826   3.133
 1598SOL    HW2  412   1.827   3.905   2.990
 1603SOL     OW  413   1.424   3.938   2.974
 1603SOL    HW1  414   1.476   3.873   3.029
 1603SOL    HW2  415   1.375   4.001   3.035
 1609SOL     OW  416   1.593   3.945   2.744
 1609SOL    HW1  417   1.509   3.944   2.798
 1609SOL    HW2  418   1.595   4.028   2.688
 1798SOL     OW  419   2.989   1.341   1.690
 1798SOL    HW1  420   3.036   1.341   1.778
 1798SOL    HW2  421   2.941   1.254   1.679
 1801SOL     OW  422   2.482   1.786   1.439
 1801SOL    HW1  423   2.390   1.769   1.474
 1801SOL    HW2  424   2.510   1.878   1.465
 1815SOL     OW  425   3.049   1.792   1.616
 1815SOL    HW1  426   3.073   1.852   1.540
 1815SOL    HW2  427   3.056   1.697   1.586
 1828SOL     OW  428   1.992   1.821   1.571
 1828SOL    HW1  429   1.982   1.806   1.670
 1828SOL    HW2  430   1.906   1.857   1.535
 1836SOL     OW  431   3.089   1.550   1.506
 1836SOL    HW1  432   3.095   1.473   1.570
 1836SOL    HW2  433   3.037   1.524   1.426
 1877SOL     OW  434   3.454   1.629   1.625
 1877SOL    HW1  435   3.481   1.663   1.535
 1877SOL    HW2  436   3.533   1.591   1.671
 1906SOL     OW  437   2.842   1.573   1.700
 1906SOL    HW1  438   2.822   1.617   1.612
 1906SOL    HW2  439   2.881   1.482   1.684
 1925SOL     OW  440   2.114   1.564   1.744
 1925SOL    HW1  441   2.084   1.621   1.820
 1925SOL    HW2  442   2.107   1.467   1.770
 1927SOL     OW  443   2.792   1.678   1.465
 1927SOL    HW1  444   2.768   1.660   1.370
 1927SOL    HW2  445   2.822   1.772   1.475
 1935SOL     OW  446   2.550   1.662   1.716
 1935SOL    HW1  447   2.494   1.743   1.725
 1935SOL    HW2  448   2.602   1.666   1.630
 1939SOL     OW  449   1.992   1.794   1.851
 1939SOL    HW1  450   1.951   1.720   1.904
 1939SOL    HW2  451   2.056   1.845   1.909
 1967SOL     OW  452   2.252   1.741   1.560
 1967SOL    HW1  453   2.161   1.782   1.558
 1967SOL    HW2  454   2.245   1.647   1.592
 1978SOL     OW  455   2.083   1.314   1.844
 1978SOL    HW1  456   2.018   1.241   1.823
 1978SOL    HW2  457   2.087   1.328   1.942
 1980SOL     OW  458   2.534   1.391   1.624
 1980SOL    HW1  459   2.456   1.341   1.662
 1980SOL    HW2  460   2.531   1.486   1.655
 1998SOL     OW  461   2.431   1.275   3.027
 1998SOL    HW1  462   2.338   1.268   2.990
 1998SOL    HW2  463   2.442   1.364   3.071
 1999SOL     OW  464   3.417   1.511   2.565
 1999SOL    HW1  465   3.360   1.495   2.646
 1999SOL    HW2  466   3.358   1.521   2.485
 2002SOL     OW  467   2.630   1.144   2.885
 2002SOL    HW1  468   2.552   1.161   2.945
 2002SOL    HW2  469   2.664   1.231   2.849
 2004SOL     OW  470   2.547   1.012   2.527
 2004SOL    HW1  471   2.616   0.996   2.597
 2004SOL    HW2  472   2.474   1.069   2.565
 2006SOL     OW  473   2.197   1.435   2.923
 2006SOL    HW1  474   2.119   1.404   2.870
 2006SOL    HW2  475   2.255   1.493   2.866
 2007SOL     OW  476   3.322   1.505   3.201
 2007SOL    HW1  477   3.346   1.599   3.227
 2007SOL    HW2  478   3.306   1.451   3.283
 2010SOL     OW  479   2.093   1.713   2.345
 2010SOL    HW1  480   2.127   1.790   2.399
 2010SOL    HW2  481   2.137   1.713   2.255
 2011SOL     OW  482   2.989   1.341   3.552
 2011SOL    HW1  483   3.036   1.341   3.640
 2011SOL    HW2  484   2.941   1.254   3.541
 2012SOL     OW  485   2.092   1.434   2.400
 2012SOL    HW1  486   2.066   1.530   2.400
 2012SOL    HW2  487   2.021   1.380   2.445
 2013SOL     OW  488   2.102   1.091   2.748
 2013SOL    HW1  489   2.116   1.007   2.800
 2013SOL    HW2  490   2.047   1.155   2.803
 2014SOL     OW  491   2.482   1.786   3.301
 2014SOL    HW1  492   2.390   1.769   3.336
 2014SOL    HW2  493   2.510   1.878   3.327
 2018SOL     OW  494   3.704   1.767   2.221
 2018SOL    HW1  495   3.758   1.738   2.301
 2018SOL    HW2  496   3.734   1.857   2.192
 2019SOL     OW  497   1.889   1.596   1.979
 2019SOL    HW1  498   1.870   1.500   2.000
 2019SOL    HW2  499   1.856   1.654   2.054
 2023SOL     OW  500   2.475   1.365   2.588
 2023SOL    HW1  501   2.426   1.278   2.597
 2023SOL    HW2  502   2.452   1.408   2.501
 2024SOL     OW  503   3.155   1.228   3.285
 2024SOL    HW1  504   3.192   1.155   3.227
 2024SOL    HW2  505   3.207   1.233   3.370
 2028SOL     OW  506   3.049   1.792   3.478
 2028SOL    HW1  507   3.073   1.852   3.402
 2028SOL    HW2  508   3.056   1.697   3.448
 2030SOL     OW  509   3.328   1.417   2.815
 2030SOL    HW1  510   3.269   1.423   2.895
 2030SOL    HW2  511   3.313   1.329   2.769
 2031SOL     OW  512   3.529   1.714   2.434
 2031SOL    HW1  513   3.488   1.691   2.346
 2031SOL    HW2  514   3.511   1.640   2.499
 2034SOL     OW  515   3.438   1.662   2.169
 2034SOL    HW1  516   3.527   1.708   2.172
 2034SOL    HW2  517   3.417   1.638   2.074
 2041SOL     OW  518   1.992   1.821   3.433
 2041SOL    HW1  519   1.982   1.806   3.532
 2041SOL    HW2  520   1.906   1.857   3.397
 2044SOL     OW  521   3.224   1.144   2.407
 2044SOL    HW1  522   3.307   1.115   2.359
 2044SOL    HW2  523   3.175   1.211   2.351
 2046SOL     OW  524   2.870   1.456   2.339
 2046SOL    HW1  525   2.824   1.528   2.287
 2046SOL    HW2  526   2.866   1.476   2.437
 2047SOL     OW  527   2.213   1.801   2.715
 2047SOL    HW1  528   2.263   1.715   2.721
 2047SOL    HW2  529   2.278   1.878   2.712
 2049SOL     OW  530   3.089   1.550   3.368
 2049SOL    HW1  531   3.095   1.473   3.432
 2049SOL    HW2  532   3.037   1.524   3.288
 2052SOL     OW  533   2.323   1.266   3.589
 2052SOL    HW1  534   2.273   1.267   3.503
 2052SOL    HW2  535   2.260   1.248   3.665
 2053SOL     OW  536   2.973   1.776   2.099
 2053SOL    HW1  537   2.913   1.714   2.149
 2053SOL    HW2  538   3.004   1.732   2.014
 2055SOL     OW  539   3.494   1.377   1.943
 2055SOL    HW1  540   3.462   1.471   1.933
 2055SOL    HW2  541   3.418   1.314   1.931
 2056SOL     OW  542   2.326   1.743   2.185
 2056SOL    HW1  543   2.359   1.782   2.271
 2056SOL    HW2  544   2.402   1.736   2.120
 2058SOL     OW  545   2.111   1.785   3.103
 2058SOL    HW1  546   2.168   1.720   3.153
 2058SOL    HW2  547   2.095   1.752   3.010
 2059SOL     OW  548   2.802   1.698   2.766
 2059SOL    HW1  549   2.882   1.641   2.787
 2059SOL    HW2  550   2.753   1.658   2.689
 2064SOL     OW  551   2.750   1.514   3.057
 2064SOL    HW1  552   2.727   1.489   2.963
 2064SOL    HW2  553   2.811   1.445   3.096
 2066SOL     OW  554   2.665   1.402   2.786
 2066SOL    HW1  555   2.755   1.416   2.744
 2066SOL    HW2  556   2.594   1.404   2.715
 2073SOL     OW  557   3.089   1.570   2.655
 2073SOL    HW1  558   3.110   1.644   2.590
 2073SOL    HW2  559   3.157   1.570   2.728
 2074SOL     OW  560   2.321   1.152   2.603
 2074SOL    HW1  561   2.250   1.125   2.668
 2074SOL    HW2  562   2.295   1.124   2.510
 2075SOL     OW  563   3.133   1.797   2.453
 2075SOL    HW1  564   3.177   1.861   2.389
 2075SOL    HW2  565   3.083   1.849   2.523
 2081SOL     OW  566   3.291   1.173   2.729
 2081SOL    HW1  567   3.236   1.089   2.722
 2081SOL    HW2  568   3.317   1.202   2.637
 2084SOL     OW  569   2.350   1.385   2.036
 2084SOL    HW1  570   2.263   1.370   2.083
 2084SOL    HW2  571   2.333   1.411   1.941
 2085SOL     OW  572   3.526   1.280   2.519
 2085SOL    HW1  573   3.625   1.288   2.533
 2085SOL    HW2  574   3.481   1.364   2.550
 2089SOL     OW  575   2.926   1.347   3.202
 2089SOL    HW1  576   2.846   1.324   3.257
 2089SOL    HW2  577   3.009   1.321   3.251
 2090SOL     OW  578   3.454   1.629   3.487
 2090SOL    HW1  579   3.481   1.663   3.397
 2090SOL    HW2  580   3.533   1.591   3.533
 2091SOL     OW  581   2.973   1.195   2.962
 2091SOL    HW1  582   2.933   1.239   3.043
 2091SOL    HW2  583   2.932   1.232   2.879
 2095SOL     OW  584   2.567   1.050   2.230
 2095SOL    HW1  585   2.553   1.057   2.329
 2095SOL    HW2  586   2.651   0.999   2.212
 2098SOL     OW  587   1.926   1.564   3.193
 2098SOL    HW1  588   1.880   1.646   3.159
 2098SOL    HW2  589   2.024   1.583   3.202
 2099SOL     OW  590   2.229   1.100   2.363
 2099SOL    HW1  591   2.222   1.183   2.307
 2099SOL    HW2  592   2.233   1.020   2.303
 2101SOL     OW  593   3.114   1.348   2.250
 2101SOL    HW1  594   3.164   1.425   2.290
 2101SOL    HW2  595   3.019   1.350   2.282
 2102SOL     OW  596   3.134   1.445   3.004
 2102SOL    HW1  597   3.181   1.458   3.091
 2102SOL    HW2  598   3.068   1.371   3.013
 2104SOL     OW  599   2.216   1.510   3.191
 2104SOL    HW1  600   2.195   1.466   3.104
 2104SOL    HW2  601   2.313   1.536   3.194
 2113SOL     OW  602   1.899   1.310   3.144
 2113SOL    HW1  603   1.952   1.261   3.212
 2113SOL    HW2  604   1.921   1.408   3.149
 2119SOL     OW  605   2.842   1.573   3.562
 2119SOL    HW1  606   2.822   1.617   3.474
 2119SOL    HW2  607   2.881   1.482   3.546
 2120SOL     OW  608   3.721   1.518   3.467
 2120SOL    HW1  609   3.735   1.545   3.372
 2120SOL    HW2  610   3.804   1.540   3.520
 2124SOL     OW  611   2.930   1.333   2.711
 2124SOL    HW1  612   2.937   1.249   2.656
 2124SOL    HW2  613   2.992   1.402   2.675
 2129SOL     OW  614   1.870   1.326   2.062
 2129SOL    HW1  615   1.777   1.347   2.031
 2129SOL    HW2  616   1.880   1.227   2.075
 2130SOL     OW  617   1.950   1.801   2.789
 2130SOL    HW1  618   1.908   1.715   2.762
 2130SOL    HW2  619   2.044   1.804   2.755
 2131SOL     OW  620   2.366   1.568   2.772
 2131SOL    HW1  621   2.432   1.642   2.781
 2131SOL    HW2  622   2.410   1.489   2.730
 2138SOL     OW  623   2.114   1.564   3.606
 2138SOL    HW1  624   2.084   1.621   3.682
 2138SOL    HW2  625   2.107   1.467   3.632
 2140SOL     OW  626   2.792   1.678   3.327
 2140SOL    HW1  627   2.768   1.660   3.232
 2140SOL    HW2  628   2.822   1.772   3.337
 2143SOL     OW  629   3.209   1.059   3.096
 2143SOL    HW1  630   3.233   0.996   3.022
 2143SOL    HW2  631   3.119   1.099   3.078
 2145SOL     OW  632   3.621   1.747   3.016
 2145SOL    HW1  633   3.682   1.777   2.943
 2145SOL    HW2  634   3.583   1.658   2.994
 2146SOL     OW  635   3.114   1.731   2.990
 2146SOL    HW1  636   3.198   1.736   2.936
 2146SOL    HW2  637   3.091   1.635   3.008
 2147SOL     OW  638   1.945   1.258   2.884
 2147SOL    HW1  639   1.940   1.257   2.984
 2147SOL    HW2  640   1.862   1.217   2.846
 2148SOL     OW  641   2.550   1.662   3.578
 2148SOL    HW1  642   2.494   1.743   3.587
 2148SOL    HW2  643   2.602   1.666   3.492
 2150SOL     OW  644   3.250   1.573   2.339
 2150SOL    HW1  645   3.317   1.585   2.265
 2150SOL    HW2  646   3.210   1.662   2.362
 2151SOL     OW  647   1.992   1.794   3.713
 2151SOL    HW1  648   1.951   1.720   3.766
 2151SOL    HW2  649   2.056   1.845   3.771
 2153SOL     OW  650   2.692   1.273   3.284
 2153SOL    HW1  651   2.687   1.306   3.379
 2153SOL    HW2  652   2.606   1.292   3.238
 2154SOL     OW  653   2.534   1.616   2.016
 2154SOL    HW1  654   2.543   1.626   1.917
 2154SOL    HW2  655   2.494   1.527   2.037
 2155SOL     OW  656   3.512   1.720   3.256
 2155SOL    HW1  657   3.565   1.730   3.172
 2155SOL    HW2  658   3.485   1.810   3.290
 2158SOL     OW  659   3.056   1.612   1.893
 2158SOL    HW1  660   3.062   1.519   1.930
 2158SOL    HW2  661   2.997   1.612   1.813
 2159SOL     OW  662   2.684   1.002   3.234
 2159SOL    HW1  663   2.724   1.001   3.142
 2159SOL    HW2  664   2.694   1.094   3.274
 2161SOL     OW  665   3.366   1.607   1.906
 2161SOL    HW1  666   3.274   1.644   1.913
 2161SOL    HW2  667   3.404   1.627   1.816
 2162SOL     OW  668   2.234   1.288   3.352
 2162SOL    HW1  669   2.221   1.381   3.318
 2162SOL    HW2  670   2.150   1.236   3.339
 2163SOL     OW  671   3.476   1.292   3.151
 2163SOL    HW1  672   3.536   1.295   3.231
 2163SOL    HW2  673   3.401   1.356   3.164
 2164SOL     OW  674   2.901   1.098   2.558
 2164SOL    HW1  675   2.831   1.051   2.612
 2164SOL    HW2  676   2.960   1.030   2.515
 2166SOL     OW  677   2.452   1.487   2.353
 2166SOL    HW1  678   2.494   1.429   2.283
 2166SOL    HW2  679   2.408   1.566   2.309
 2168SOL     OW  680   2.117   1.348   2.152
 2168SOL    HW1  681   2.021   1.349   2.125
 2168SOL    HW2  682   2.129   1.401   2.236
 2174SOL     OW  683   3.045   1.335   1.981
 2174SOL    HW1  684   2.946   1.324   1.983
 2174SOL    HW2  685   3.079   1.350   2.074
 2176SOL     OW  686   3.355   1.767   2.821
 2176SOL    HW1  687   3.388   1.831   2.752
 2176SOL    HW2  688   3.421   1.761   2.896
 2178SOL     OW  689   3.312   1.220   3.495
 2178SOL    HW1  690   3.303   1.210   3.594
 2178SOL    HW2  691   3.408   1.213   3.469
 2179SOL     OW  692   2.252   1.741   3.422
 2179SOL    HW1  693   2.161   1.782   3.420
 2179SOL    HW2  694   2.245   1.647   3.454
 2185SOL     OW  695   2.721   1.374   1.878
 2185SOL    HW1  696   2.675   1.389   1.966
 2185SOL    HW2  697   2.765   1.459   1.848
 2186SOL     OW  698   2.523   1.790   2.815
 2186SOL    HW1  699   2.477   1.878   2.802
 2186SOL    HW2  700   2.622   1.802   2.808
 2187SOL     OW  701   2.721   0.956   2.723
 2187SOL    HW1  702   2.775   0.887   2.771
 2187SOL    HW2  703   2.689   1.025   2.789
 2189SOL     OW  704   3.723   1.569   2.713
 2189SOL    HW1  705   3.652   1.557   2.643
 2189SOL    HW2  706   3.724   1.490   2.773
 2191SOL     OW  707   1.941   1.240   2.515
 2191SOL    HW1  708   1.940   1.193   2.603
 2191SOL    HW2  709   2.023   1.212   2.464
 2192SOL     OW  710   2.534   1.391   3.486
 2192SOL    HW1  711   2.456   1.341   3.524
 2192SOL    HW2  712   2.531   1.486   3.517
 2195SOL     OW  713   3.567   1.487   2.966
 2195SOL    HW1  714   3.474   1.462   2.939
 2195SOL    HW2  715   3.593   1.437   3.048
 2197SOL     OW  716   2.674   1.586   2.549
 2197SOL    HW1  717   2.706   1.596   2.455
 2197SOL    HW2  718   2.595   1.524   2.551
 2200SOL     OW  719   2.632   1.330   2.163
 2200SOL    HW1  720   2.586   1.243   2.180
 2200SOL    HW2  721   2.723   1.327   2.204
 2201SOL     OW  722   2.480   1.567   3.146
 2201SOL    HW1  723   2.475   1.649   3.203
 2201SOL    HW2  724   2.569   1.564   3.101
 2206SOL     OW  725   2.737   1.646   2.199
 2206SOL    HW1  726   2.660   1.611   2.145
 2206SOL    HW2  727   2.705   1.717   2.261
 2228SOL     OW  728   1.889   1.596   3.841
 2228SOL    HW1  729   1.870   1.500   3.862
 2228SOL    HW2  730   1.856   1.654   3.916
 2258SOL     OW  731   2.973   1.776   3.961
 2258SOL    HW1  732   2.913   1.714   4.011
 2258SOL    HW2  733   3.004   1.732   3.876
 2261SOL     OW  734   2.326   1.743   4.047
 2261SOL    HW1  735   2.359   1.782   4.133
 2261SOL    HW2  736   2.402   1.736   3.982
 2345SOL     OW  737   2.534   1.616   3.878
 2345SOL    HW1  738   2.543   1.626   3.779
 2345SOL    HW2  739   2.494   1.527   3.899
 2349SOL     OW  740   3.056   1.612   3.755
 2349SOL    HW1  741   3.062   1.519   3.792
 2349SOL    HW2  742   2.997   1.612   3.675
 2352SOL     OW  743   3.366   1.607   3.768
 2352SOL    HW1  744   3.274   1.644   3.775
 2352SOL    HW2  745   3.404   1.627   3.678
 2374SOL     OW  746   2.721   1.374   3.740
 2374SOL    HW1  747   2.675   1.389   3.828
 2374SOL    HW2  748   2.765   1.459   3.710
 2394SOL     OW  749   2.737   1.646   4.061
 2394SOL    HW1  750   2.660   1.611   4.007
 2394SOL    HW2  751   2.705   1.717   4.123
 2398SOL     OW  752   2.431   3.137   1.165
 2398SOL    HW1  753   2.338   3.130   1.128
 2398SOL    HW2  754   2.442   3.226   1.209
 2402SOL     OW  755   2.630   3.006   1.023
 2402SOL    HW1  756   2.552   3.023   1.083
 2402SOL    HW2  757   2.664   3.093   0.987
 2403SOL     OW  758   2.712   2.660   1.823
 2403SOL    HW1  759   2.708   2.736   1.888
 2403SOL    HW2  760   2.734   2.696   1.732
 2405SOL     OW  761   2.548   3.023   1.803
 2405SOL    HW1  762   2.608   3.102   1.817
 2405SOL    HW2  763   2.462   3.054   1.762
 2407SOL     OW  764   3.322   3.367   1.339
 2407SOL    HW1  765   3.346   3.461   1.365
 2407SOL    HW2  766   3.306   3.313   1.421
 2408SOL     OW  767   2.300   2.254   1.499
 2408SOL    HW1  768   2.382   2.198   1.508
 2408SOL    HW2  769   2.219   2.196   1.503
 2411SOL     OW  770   2.989   3.203   1.690
 2411SOL    HW1  771   3.036   3.203   1.778
 2411SOL    HW2  772   2.941   3.116   1.679
 2414SOL     OW  773   2.482   3.648   1.439
 2414SOL    HW1  774   2.390   3.631   1.474
 2414SOL    HW2  775   2.510   3.740   1.465
 2416SOL     OW  776   3.456   1.976   1.480
 2416SOL    HW1  777   3.438   2.043   1.408
 2416SOL    HW2  778   3.453   2.022   1.569
 2422SOL     OW  779   1.975   2.599   1.597
 2422SOL    HW1  780   2.063   2.586   1.642
 2422SOL    HW2  781   1.962   2.696   1.575
 2424SOL     OW  782   3.155   3.090   1.423
 2424SOL    HW1  783   3.192   3.017   1.365
 2424SOL    HW2  784   3.207   3.095   1.508
 2426SOL     OW  785   2.059   2.838   1.264
 2426SOL    HW1  786   2.148   2.793   1.250
 2426SOL    HW2  787   1.986   2.773   1.245
 2428SOL     OW  788   3.049   3.654   1.616
 2428SOL    HW1  789   3.073   3.714   1.540
 2428SOL    HW2  790   3.056   3.559   1.586
 2429SOL     OW  791   2.179   2.113   1.801
 2429SOL    HW1  792   2.250   2.184   1.807
 2429SOL    HW2  793   2.091   2.152   1.829
 2435SOL     OW  794   2.669   2.467   1.465
 2435SOL    HW1  795   2.622   2.464   1.554
 2435SOL    HW2  796   2.618   2.412   1.399
 2436SOL     OW  797   3.256   2.331   1.674
 2436SOL    HW1  798   3.236   2.374   1.762
 2436SOL    HW2  799   3.334   2.269   1.683
 2437SOL     OW  800   2.835   2.752   1.572
 2437SOL    HW1  801   2.881   2.668   1.543
 2437SOL    HW2  802   2.779   2.786   1.497
 2438SOL     OW  803   2.853   2.272   1.242
 2438SOL    HW1  804   2.776   2.306   1.296
 2438SOL    HW2  805   2.819   2.221   1.163
 2441SOL     OW  806   1.992   3.683   1.571
 2441SOL    HW1  807   1.982   3.668   1.670
 2441SOL    HW2  808   1.906   3.719   1.535
 2443SOL     OW  809   3.581   2.447   1.831
 2443SOL    HW1  810   3.555   2.536   1.795
 2443SOL    HW2  811   3.579   2.379   1.758
 2449SOL     OW  812   3.089   3.412   1.506
 2449SOL    HW1  813   3.095   3.335   1.570
 2449SOL    HW2  814   3.037   3.386   1.426
 2452SOL     OW  815   2.323   3.128   1.727
 2452SOL    HW1  816   2.273   3.129   1.641
 2452SOL    HW2  817   2.260   3.110   1.803
 2454SOL     OW  818   2.064   2.147   1.498
 2454SOL    HW1  819   1.984   2.207   1.485
 2454SOL    HW2  820   2.054   2.098   1.584
 2461SOL     OW  821   3.409   2.084   1.729
 2461SOL    HW1  822   3.404   2.121   1.821
 2461SOL    HW2  823   3.337   2.015   1.717
 2463SOL     OW  824   2.643   2.126   1.749
 2463SOL    HW1  825   2.710   2.065   1.792
 2463SOL    HW2  826   2.570   2.145   1.814
 2464SOL     OW  827   2.750   3.376   1.195
 2464SOL    HW1  828   2.727   3.351   1.101
 2464SOL    HW2  829   2.811   3.307   1.234
 2465SOL     OW  830   3.213   2.452   1.433
 2465SOL    HW1  831   3.241   2.409   1.518
 2465SOL    HW2  832   3.238   2.548   1.434
 2472SOL     OW  833   2.938   2.545   1.464
 2472SOL    HW1  834   2.858   2.484   1.467
 2472SOL    HW2  835   3.019   2.492   1.440
 2477SOL     OW  836   1.940   2.418   1.386
 2477SOL    HW1  837   2.032   2.417   1.345
 2477SOL    HW2  838   1.934   2.492   1.453
 2478SOL     OW  839   2.423   2.084   1.147
 2478SOL    HW1  840   2.461   2.000   1.184
 2478SOL    HW2  841   2.335   2.103   1.191
 2488SOL     OW  842   3.616   3.085   1.588
 2488SOL    HW1  843   3.707   3.046   1.575
 2488SOL    HW2  844   3.624   3.181   1.612
 2489SOL     OW  845   2.926   3.209   1.340
 2489SOL    HW1  846   2.846   3.186   1.395
 2489SOL    HW2  847   3.009   3.183   1.389
 2490SOL     OW  848   3.454   3.491   1.625
 2490SOL    HW1  849   3.481   3.525   1.535
 2490SOL    HW2  850   3.533   3.453   1.671
 2491SOL     OW  851   2.973   3.057   1.100
 2491SOL    HW1  852   2.933   3.101   1.181
 2491SOL    HW2  853   2.932   3.094   1.017
 2493SOL     OW  854   2.777   1.951   1.402
 2493SOL    HW1  855   2.802   1.931   1.307
 2493SOL    HW2  856   2.849   2.007   1.444
 2494SOL     OW  857   2.842   2.978   1.719
 2494SOL    HW1  858   2.743   2.984   1.729
 2494SOL    HW2  859   2.865   2.898   1.663
 2496SOL     OW  860   2.272   2.675   1.251
 2496SOL    HW1  861   2.358   2.687   1.301
 2496SOL    HW2  862   2.230   2.588   1.278
 2497SOL     OW  863   3.136   2.248   1.262
 2497SOL    HW1  864   3.157   2.322   1.326
 2497SOL    HW2  865   3.047   2.265   1.219
 2498SOL     OW  866   1.926   3.426   1.331
 2498SOL    HW1  867   1.880   3.508   1.297
 2498SOL    HW2  868   2.024   3.445   1.340
 2502SOL     OW  869   3.134   3.307   1.142
 2502SOL    HW1  870   3.181   3.320   1.229
 2502SOL    HW2  871   3.068   3.233   1.151
 2504SOL     OW  872   2.216   3.372   1.329
 2504SOL    HW1  873   2.195   3.328   1.242
 2504SOL    HW2  874   2.313   3.398   1.332
 2505SOL     OW  875   2.264   2.613   1.598
 2505SOL    HW1  876   2.332   2.668   1.551
 2505SOL    HW2  877   2.304   2.525   1.625
 2506SOL     OW  878   3.449   2.641   1.670
 2506SOL    HW1  879   3.357   2.679   1.665
 2506SOL    HW2  880   3.509   2.688   1.605
 2507SOL     OW  881   2.875   1.967   1.770
 2507SOL    HW1  882   2.881   2.052   1.718
 2507SOL    HW2  883   2.907   1.891   1.713
 2508SOL     OW  884   2.366   1.912   1.740
 2508SOL    HW1  885   2.324   1.855   1.670
 2508SOL    HW2  886   2.300   1.981   1.772
 2509SOL     OW  887   2.435   2.732   1.029
 2509SOL    HW1  888   2.479   2.821   1.020
 2509SOL    HW2  889   2.372   2.732   1.106
 2510SOL     OW  890   3.222   2.724   1.045
 2510SOL    HW1  891   3.147   2.724   0.979
 2510SOL    HW2  892   3.259   2.632   1.054
 2512SOL     OW  893   2.169   2.075   1.231
 2512SOL    HW1  894   2.146   2.112   1.321
 2512SOL    HW2  895   2.139   1.980   1.225
 2513SOL     OW  896   1.899   3.172   1.282
 2513SOL    HW1  897   1.952   3.123   1.350
 2513SOL    HW2  898   1.921   3.270   1.287
 2514SOL     OW  899   2.594   2.496   1.064
 2514SOL    HW1  900   2.653   2.470   0.988
 2514SOL    HW2  901   2.566   2.592   1.053
 2515SOL     OW  902   3.590   2.797   1.854
 2515SOL    HW1  903   3.544   2.790   1.765
 2515SOL    HW2  904   3.528   2.841   1.920
 2518SOL     OW  905   2.885   2.628   0.966
 2518SOL    HW1  906   2.900   2.649   1.062
 2518SOL    HW2  907   2.855   2.533   0.957
 2519SOL     OW  908   2.842   3.435   1.700
 2519SOL    HW1  909   2.822   3.479   1.612
 2519SOL    HW2  910   2.881   3.344   1.684
 2520SOL     OW  911   3.721   3.380   1.605
 2520SOL    HW1  912   3.735   3.407   1.510
 2520SOL    HW2  913   3.804   3.402   1.658
 2521SOL     OW  914   2.212   2.760   1.804
 2521SOL    HW1  915   2.288   2.804   1.852
 2521SOL    HW2  916   2.247   2.713   1.722
 2527SOL     OW  917   3.000   2.242   1.678
 2527SOL    HW1  918   2.955   2.305   1.742
 2527SOL    HW2  919   3.093   2.273   1.661
 2528SOL     OW  920   3.022   2.069   1.477
 2528SOL    HW1  921   3.022   2.133   1.554
 2528SOL    HW2  922   3.050   2.117   1.394
 2532SOL     OW  923   2.864   2.658   1.238
 2532SOL    HW1  924   2.905   2.626   1.324
 2532SOL    HW2  925   2.768   2.631   1.235
 2534SOL     OW  926   2.051   2.382   1.722
 2534SOL    HW1  927   2.110   2.342   1.652
 2534SOL    HW2  928   1.993   2.453   1.681
 2535SOL     OW  929   3.231   2.812   1.660
 2535SOL    HW1  930   3.270   2.901   1.680
 2535SOL    HW2  931   3.241   2.792   1.563
 2537SOL     OW  932   3.519   2.466   1.206
 2537SOL    HW1  933   3.481   2.397   1.268
 2537SOL    HW2  934   3.601   2.430   1.162
 2538SOL     OW  935   2.114   3.426   1.744
 2538SOL    HW1  936   2.084   3.483   1.820
 2538SOL    HW2  937   2.107   3.329   1.770
 2539SOL     OW  938   2.533   2.326   1.269
 2539SOL    HW1  939   2.499   2.237   1.239
 2539SOL    HW2  940   2.559   2.380   1.189
 2540SOL     OW  941   2.792   3.540   1.465
 2540SOL    HW1  942   2.768   3.522   1.370
 2540SOL    HW2  943   2.822   3.634   1.475
 2542SOL     OW  944   2.021   2.999   1.466
 2542SOL    HW1  945   2.043   2.938   1.542
 2542SOL    HW2  946   2.031   2.950   1.380
 2543SOL     OW  947   3.209   2.921   1.234
 2543SOL    HW1  948   3.233   2.858   1.160
 2543SOL    HW2  949   3.119   2.961   1.216
 2548SOL     OW  950   2.550   3.524   1.716
 2548SOL    HW1  951   2.494   3.605   1.725
 2548SOL    HW2  952   2.602   3.528   1.630
 2552SOL     OW  953   1.992   3.656   1.851
 2552SOL    HW1  954   1.951   3.582   1.904
 2552SOL    HW2  955   2.056   3.707   1.909
 2554SOL     OW  956   2.692   3.135   1.422
 2554SOL    HW1  957   2.687   3.168   1.517
 2554SOL    HW2  958   2.606   3.154   1.376
 2556SOL     OW  959   3.512   3.582   1.394
 2556SOL    HW1  960   3.565   3.592   1.310
 2556SOL    HW2  961   3.485   3.672   1.428
 2560SOL     OW  962   2.684   2.864   1.372
 2560SOL    HW1  963   2.724   2.863   1.280
 2560SOL    HW2  964   2.694   2.956   1.412
 2563SOL     OW  965   2.234   3.150   1.490
 2563SOL    HW1  966   2.221   3.243   1.456
 2563SOL    HW2  967   2.150   3.098   1.477
 2564SOL     OW  968   3.476   3.154   1.289
 2564SOL    HW1  969   3.536   3.157   1.369
 2564SOL    HW2  970   3.401   3.218   1.302
 2568SOL     OW  971   3.571   2.247   1.381
 2568SOL    HW1  972   3.644   2.316   1.385
 2568SOL    HW2  973   3.599   2.172   1.322
 2570SOL     OW  974   1.967   2.875   1.726
 2570SOL    HW1  975   1.890   2.842   1.780
 2570SOL    HW2  976   2.052   2.845   1.768
 2571SOL     OW  977   2.534   2.065   1.489
 2571SOL    HW1  978   2.624   2.049   1.449
 2571SOL    HW2  979   2.542   2.070   1.588
 2573SOL     OW  980   3.302   2.718   1.398
 2573SOL    HW1  981   3.245   2.770   1.335
 2573SOL    HW2  982   3.398   2.730   1.374
 2576SOL     OW  983   2.475   2.704   1.431
 2576SOL    HW1  984   2.531   2.785   1.414
 2576SOL    HW2  985   2.534   2.624   1.434
 2578SOL     OW  986   2.578   2.427   1.708
 2578SOL    HW1  987   2.597   2.492   1.782
 2578SOL    HW2  988   2.638   2.347   1.717
 2579SOL     OW  989   3.312   3.082   1.633
 2579SOL    HW1  990   3.303   3.072   1.732
 2579SOL    HW2  991   3.408   3.075   1.607
 2580SOL     OW  992   2.252   3.603   1.560
 2580SOL    HW1  993   2.161   3.644   1.558
 2580SOL    HW2  994   2.245   3.509   1.592
 2581SOL     OW  995   3.536   2.745   1.254
 2581SOL    HW1  996   3.509   2.656   1.217
 2581SOL    HW2  997   3.537   2.813   1.181
 2584SOL     OW  998   3.639   2.204   1.642
 2584SOL    HW1  999   3.622   2.235   1.548
 2584SOL    HW2 1000   3.555   2.167   1.680
 2585SOL     OW 1001   3.592   2.796   1.517
 2585SOL    HW1 1002   3.630   2.887   1.532
 2585SOL    HW2 1003   3.584   2.779   1.418
 2591SOL     OW 1004   2.083   3.176   1.844
 2591SOL    HW1 1005   2.018   3.103   1.823
 2591SOL    HW2 1006   2.087   3.190   1.942
 2593SOL     OW 1007   2.534   3.253   1.624
 2593SOL    HW1 1008   2.456   3.203   1.662
 2593SOL    HW2 1009   2.531   3.348   1.655
 2597SOL     OW 1010   2.179   2.409   1.280
 2597SOL    HW1 1011   2.217   2.350   1.352
 2597SOL    HW2 1012   2.219   2.383   1.192
 2600SOL     OW 1013   2.863   1.896   1.154
 2600SOL    HW1 1014   2.800   1.824   1.123
 2600SOL    HW2 1015   2.956   1.860   1.154
 2602SOL     OW 1016   2.480   3.429   1.284
 2602SOL    HW1 1017   2.475   3.511   1.341
 2602SOL    HW2 1018   2.569   3.426   1.239
 2608SOL     OW 1019   2.092   2.490   1.975
 2608SOL    HW1 1020   1.999   2.488   2.012
 2608SOL    HW2 1021   2.093   2.451   1.883
 2609SOL     OW 1022   2.087   2.137   2.858
 2609SOL    HW1 1023   2.122   2.120   2.950
 2609SOL    HW2 1024   1.999   2.092   2.846
 2610SOL     OW 1025   1.881   2.230   2.509
 2610SOL    HW1 1026   1.799   2.273   2.548
 2610SOL    HW2 1027   1.853   2.157   2.446
 2611SOL     OW 1028   2.431   3.137   3.027
 2611SOL    HW1 1029   2.338   3.130   2.990
 2611SOL    HW2 1030   2.442   3.226   3.071
 2612SOL     OW 1031   3.417   3.373   2.565
 2612SOL    HW1 1032   3.360   3.357   2.646
 2612SOL    HW2 1033   3.358   3.383   2.485
 2613SOL     OW 1034   3.617   2.469   2.093
 2613SOL    HW1 1035   3.605   2.456   1.994
 2613SOL    HW2 1036   3.587   2.388   2.142
 2614SOL     OW 1037   2.630   3.006   2.885
 2614SOL    HW1 1038   2.552   3.023   2.945
 2614SOL    HW2 1039   2.664   3.093   2.849
 2615SOL     OW 1040   2.712   2.660   3.685
 2615SOL    HW1 1041   2.708   2.736   3.750
 2615SOL    HW2 1042   2.734   2.696   3.594
 2616SOL     OW 1043   2.548   3.023   3.665
 2616SOL    HW1 1044   2.608   3.102   3.679
 2616SOL    HW2 1045   2.462   3.054   3.624
 2617SOL     OW 1046   2.197   3.297   2.923
 2617SOL    HW1 1047   2.119   3.266   2.870
 2617SOL    HW2 1048   2.255   3.355   2.866
 2618SOL     OW 1049   3.322   3.367   3.201
 2618SOL    HW1 1050   3.346   3.461   3.227
 2618SOL    HW2 1051   3.306   3.313   3.283
 2619SOL     OW 1052   2.300   2.254   3.361
 2619SOL    HW1 1053   2.382   2.198   3.370
 2619SOL    HW2 1054   2.219   2.196   3.365
 2620SOL     OW 1055   3.465   2.309   2.599
 2620SOL    HW1 1056   3.391   2.355   2.549
 2620SOL    HW2 1057   3.516   2.377   2.652
 2621SOL     OW 1058   2.093   3.575   2.345
 2621SOL    HW1 1059   2.127   3.652   2.399
 2621SOL    HW2 1060   2.137   3.575   2.255
 2622SOL     OW 1061   2.989   3.203   3.552
 2622SOL    HW1 1062   3.036   3.203   3.640
 2622SOL    HW2 1063   2.941   3.116   3.541
 2623SOL     OW 1064   2.092   3.296   2.400
 2623SOL    HW1 1065   2.066   3.392   2.400
 2623SOL    HW2 1066   2.021   3.242   2.445
 2624SOL     OW 1067   2.482   3.648   3.301
 2624SOL    HW1 1068   2.390   3.631   3.336
 2624SOL    HW2 1069   2.510   3.740   3.327
 2625SOL     OW 1070   2.468   2.826   1.985
 2625SOL    HW1 1071   2.475   2.910   1.931
 2625SOL    HW2 1072   2.514   2.839   2.073
 2626SOL     OW 1073   3.456   1.976   3.342
 2626SOL    HW1 1074   3.438   2.043   3.270
 2626SOL    HW2 1075   3.453   2.022   3.431
 2627SOL     OW 1076   1.984   2.505   2.425
 2627SOL    HW1 1077   1.939   2.417   2.442
 2627SOL    HW2 1078   1.983   2.559   2.509
 2628SOL     OW 1079   3.704   3.629   2.221
 2628SOL    HW1 1080   3.758   3.600   2.301
 2628SOL    HW2 1081   3.734   3.719   2.192
 2629SOL     OW 1082   1.889   3.458   1.979
 2629SOL    HW1 1083   1.870   3.362   2.000
 2629SOL    HW2 1084   1.856   3.516   2.054
 2630SOL     OW 1085   3.551   2.784   2.474
 2630SOL    HW1 1086   3.646   2.755   2.482
 2630SOL    HW2 1087   3.543   2.849   2.399
 2631SOL     OW 1088   3.503   2.970   2.294
 2631SOL    HW1 1089   3.589   2.972   2.242
 2631SOL    HW2 1090   3.517   3.017   2.382
 2632SOL     OW 1091   1.975   2.599   3.459
 2632SOL    HW1 1092   2.063   2.586   3.504
 2632SOL    HW2 1093   1.962   2.696   3.437
 2633SOL     OW 1094   2.475   3.227   2.588
 2633SOL    HW1 1095   2.426   3.140   2.597
 2633SOL    HW2 1096   2.452   3.270   2.501
 2634SOL     OW 1097   3.155   3.090   3.285
 2634SOL    HW1 1098   3.192   3.017   3.227
 2634SOL    HW2 1099   3.207   3.095   3.370
 2635SOL     OW 1100   2.671   1.866   2.364
 2635SOL    HW1 1101   2.711   1.957   2.355
 2635SOL    HW2 1102   2.571   1.874   2.370
 2636SOL     OW 1103   2.059   2.838   3.126
 2636SOL    HW1 1104   2.148   2.793   3.112
 2636SOL    HW2 1105   1.986   2.773   3.107
 2637SOL     OW 1106   3.387   2.861   2.052
 2637SOL    HW1 1107   3.324   2.785   2.065
 2637SOL    HW2 1108   3.435   2.879   2.138
 2638SOL     OW 1109   3.049   3.654   3.478
 2638SOL    HW1 1110   3.073   3.714   3.402
 2638SOL    HW2 1111   3.056   3.559   3.448
 2639SOL     OW 1112   2.179   2.113   3.663
 2639SOL    HW1 1113   2.250   2.184   3.669
 2639SOL    HW2 1114   2.091   2.152   3.691
 2640SOL     OW 1115   3.328   3.279   2.815
 2640SOL    HW1 1116   3.269   3.285   2.895
 2640SOL    HW2 1117   3.313   3.191   2.769
 2641SOL     OW 1118   3.529   3.576   2.434
 2641SOL    HW1 1119   3.488   3.553   2.346
 2641SOL    HW2 1120   3.511   3.502   2.499
 2642SOL     OW 1121   2.460   2.591   2.132
 2642SOL    HW1 1122   2.484   2.660   2.064
 2642SOL    HW2 1123   2.382   2.624   2.186
 2643SOL     OW 1124   3.143   2.207   2.806
 2643SOL    HW1 1125   3.057   2.157   2.793
 2643SOL    HW2 1126   3.205   2.153   2.862
 2644SOL     OW 1127   3.438   3.524   2.169
 2644SOL    HW1 1128   3.527   3.570   2.172
 2644SOL    HW2 1129   3.417   3.500   2.074
 2645SOL     OW 1130   2.669   2.467   3.327
 2645SOL    HW1 1131   2.622   2.464   3.416
 2645SOL    HW2 1132   2.618   2.412   3.261
 2646SOL     OW 1133   3.256   2.331   3.536
 2646SOL    HW1 1134   3.236   2.374   3.624
 2646SOL    HW2 1135   3.334   2.269   3.545
 2647SOL     OW 1136   2.835   2.752   3.434
 2647SOL    HW1 1137   2.881   2.668   3.405
 2647SOL    HW2 1138   2.779   2.786   3.359
 2648SOL     OW 1139   2.853   2.272   3.104
 2648SOL    HW1 1140   2.776   2.306   3.158
 2648SOL    HW2 1141   2.819   2.221   3.025
 2649SOL     OW 1142   2.903   2.563   2.291
 2649SOL    HW1 1143   2.929   2.559   2.387
 2649SOL    HW2 1144   2.818   2.512   2.277
 2650SOL     OW 1145   1.992   3.683   3.433
 2650SOL    HW1 1146   1.982   3.668   3.532
 2650SOL    HW2 1147   1.906   3.719   3.397
 2651SOL     OW 1148   2.727   2.210   2.057
 2651SOL    HW1 1149   2.786   2.273   2.008
 2651SOL    HW2 1150   2.746   2.116   2.028
 2652SOL     OW 1151   3.581   2.447   3.693
 2652SOL    HW1 1152   3.555   2.536   3.657
 2652SOL    HW2 1153   3.579   2.379   3.620
 2653SOL     OW 1154   3.224   3.006   2.407
 2653SOL    HW1 1155   3.307   2.977   2.359
 2653SOL    HW2 1156   3.175   3.073   2.351
 2654SOL     OW 1157   2.412   2.058   2.747
 2654SOL    HW1 1158   2.407   2.053   2.847
 2654SOL    HW2 1159   2.414   2.154   2.718
 2655SOL     OW 1160   2.870   3.318   2.339
 2655SOL    HW1 1161   2.824   3.390   2.287
 2655SOL    HW2 1162   2.866   3.338   2.437
 2656SOL     OW 1163   2.213   3.663   2.715
 2656SOL    HW1 1164   2.263   3.577   2.721
 2656SOL    HW2 1165   2.278   3.740   2.712
 2657SOL     OW 1166   3.657   2.928   2.735
 2657SOL    HW1 1167   3.595   2.913   2.659
 2657SOL    HW2 1168   3.605   2.939   2.820
 2658SOL     OW 1169   3.089   3.412   3.368
 2658SOL    HW1 1170   3.095   3.335   3.432
 2658SOL    HW2 1171   3.037   3.386   3.288
 2659SOL     OW 1172   2.183   2.805   2.104
 2659SOL    HW1 1173   2.265   2.844   2.062
 2659SOL    HW2 1174   2.156   2.723   2.055
 2660SOL     OW 1175   2.323   3.128   3.589
 2660SOL    HW1 1176   2.273   3.129   3.503
 2660SOL    HW2 1177   2.260   3.110   3.665
 2661SOL     OW 1178   2.973   3.638   2.099
 2661SOL    HW1 1179   2.913   3.576   2.149
 2661SOL    HW2 1180   3.004   3.594   2.014
 2662SOL     OW 1181   2.064   2.147   3.360
 2662SOL    HW1 1182   1.984   2.207   3.347
 2662SOL    HW2 1183   2.054   2.098   3.446
 2663SOL     OW 1184   3.494   3.239   1.943
 2663SOL    HW1 1185   3.462   3.333   1.933
 2663SOL    HW2 1186   3.418   3.176   1.931
 2664SOL     OW 1187   2.326   3.605   2.185
 2664SOL    HW1 1188   2.359   3.644   2.271
 2664SOL    HW2 1189   2.402   3.598   2.120
 2665SOL     OW 1190   3.262   1.969   2.288
 2665SOL    HW1 1191   3.238   1.932   2.198
 2665SOL    HW2 1192   3.361   1.985   2.292
 2666SOL     OW 1193   2.111   3.647   3.103
 2666SOL    HW1 1194   2.168   3.582   3.153
 2666SOL    HW2 1195   2.095   3.614   3.010
 2667SOL     OW 1196   2.802   3.560   2.766
 2667SOL    HW1 1197   2.882   3.503   2.787
 2667SOL    HW2 1198   2.753   3.520   2.689
 2668SOL     OW 1199   2.244   2.562   2.342
 2668SOL    HW1 1200   2.289   2.472   2.339
 2668SOL    HW2 1201   2.150   2.551   2.375
 2669SOL     OW 1202   3.409   2.084   3.591
 2669SOL    HW1 1203   3.404   2.121   3.683
 2669SOL    HW2 1204   3.337   2.015   3.579
 2670SOL     OW 1205   2.476   1.984   1.979
 2670SOL    HW1 1206   2.574   1.962   1.986
 2670SOL    HW2 1207   2.445   1.967   1.886
 2671SOL     OW 1208   2.643   2.126   3.611
 2671SOL    HW1 1209   2.710   2.065   3.654
 2671SOL    HW2 1210   2.570   2.145   3.676
 2672SOL     OW 1211   2.750   3.376   3.057
 2672SOL    HW1 1212   2.727   3.351   2.963
 2672SOL    HW2 1213   2.811   3.307   3.096
 2673SOL     OW 1214   3.213   2.452   3.295
 2673SOL    HW1 1215   3.241   2.409   3.380
 2673SOL    HW2 1216   3.238   2.548   3.296
 2674SOL     OW 1217   2.665   3.264   2.786
 2674SOL    HW1 1218   2.755   3.278   2.744
 2674SOL    HW2 1219   2.594   3.266   2.715
 2675SOL     OW 1220   2.784   2.365   2.761
 2675SOL    HW1 1221   2.759   2.356   2.665
 2675SOL    HW2 1222   2.832   2.283   2.792
 2676SOL     OW 1223   2.401   1.926   2.374
 2676SOL    HW1 1224   2.320   1.927   2.432
 2676SOL    HW2 1225   2.404   2.009   2.319
 2677SOL     OW 1226   3.296   3.050   1.903
 2677SOL    HW1 1227   3.328   2.974   1.960
 2677SOL    HW2 1228   3.204   3.077   1.933
 2678SOL     OW 1229   2.159   1.897   2.033
 2678SOL    HW1 1230   2.208   1.981   2.012
 2678SOL    HW2 1231   2.221   1.832   2.078
 2679SOL     OW 1232   2.797   2.098   2.342
 2679SOL    HW1 1233   2.749   2.139   2.264
 2679SOL    HW2 1234   2.896   2.096   2.323
 2680SOL     OW 1235   2.938   2.545   3.326
 2680SOL    HW1 1236   2.858   2.484   3.329
 2680SOL    HW2 1237   3.019   2.492   3.302
 2681SOL     OW 1238   3.089   3.432   2.655
 2681SOL    HW1 1239   3.110   3.506   2.590
 2681SOL    HW2 1240   3.157   3.432   2.728
 2682SOL     OW 1241   3.133   3.659   2.453
 2682SOL    HW1 1242   3.177   3.723   2.389
 2682SOL    HW2 1243   3.083   3.711   2.523
 2683SOL     OW 1244   2.894   2.411   1.878
 2683SOL    HW1 1245   2.853   2.493   1.839
 2683SOL    HW2 1246   2.958   2.437   1.951
 2684SOL     OW 1247   1.940   2.418   3.248
 2684SOL    HW1 1248   2.032   2.417   3.207
 2684SOL    HW2 1249   1.934   2.492   3.315
 2685SOL     OW 1250   2.423   2.084   3.009
 2685SOL    HW1 1251   2.461   2.000   3.046
 2685SOL    HW2 1252   2.335   2.103   3.053
 2686SOL     OW 1253   2.728   2.316   2.504
 2686SOL    HW1 1254   2.696   2.388   2.442
 2686SOL    HW2 1255   2.752   2.235   2.451
 2687SOL     OW 1256   2.879   1.901   2.615
 2687SOL    HW1 1257   2.807   1.906   2.546
 2687SOL    HW2 1258   2.855   1.832   2.684
 2688SOL     OW 1259   3.291   3.035   2.729
 2688SOL    HW1 1260   3.236   2.951   2.722
 2688SOL    HW2 1261   3.317   3.064   2.637
 2689SOL     OW 1262   3.719   2.695   2.239
 2689SOL    HW1 1263   3.761   2.631   2.303
 2689SOL    HW2 1264   3.681   2.644   2.161
 2690SOL     OW 1265   2.350   3.247   2.036
 2690SOL    HW1 1266   2.263   3.232   2.083
 2690SOL    HW2 1267   2.333   3.273   1.941
 2691SOL     OW 1268   3.526   3.142   2.519
 2691SOL    HW1 1269   3.625   3.150   2.533
 2691SOL    HW2 1270   3.481   3.226   2.550
 2692SOL     OW 1271   3.252   2.437   1.940
 2692SOL    HW1 1272   3.198   2.416   2.021
 2692SOL    HW2 1273   3.343   2.396   1.949
 2693SOL     OW 1274   2.389   2.118   2.190
 2693SOL    HW1 1275   2.416   2.059   2.115
 2693SOL    HW2 1276   2.389   2.213   2.159
 2694SOL     OW 1277   3.616   3.085   3.450
 2694SOL    HW1 1278   3.707   3.046   3.437
 2694SOL    HW2 1279   3.624   3.181   3.474
 2695SOL     OW 1280   2.926   3.209   3.202
 2695SOL    HW1 1281   2.846   3.186   3.257
 2695SOL    HW2 1282   3.009   3.183   3.251
 2696SOL     OW 1283   3.454   3.491   3.487
 2696SOL    HW1 1284   3.481   3.525   3.397
 2696SOL    HW2 1285   3.533   3.453   3.533
 2697SOL     OW 1286   2.973   3.057   2.962
 2697SOL    HW1 1287   2.933   3.101   3.043
 2697SOL    HW2 1288   2.932   3.094   2.879
 2698SOL     OW 1289   3.500   2.961   2.941
 2698SOL    HW1 1290   3.505   3.042   3.000
 2698SOL    HW2 1291   3.414   2.963   2.890
 2699SOL     OW 1292   2.777   1.951   3.264
 2699SOL    HW1 1293   2.802   1.931   3.169
 2699SOL    HW2 1294   2.849   2.007   3.306
 2700SOL     OW 1295   2.842   2.978   3.581
 2700SOL    HW1 1296   2.743   2.984   3.591
 2700SOL    HW2 1297   2.865   2.898   3.525
 2701SOL     OW 1298   2.567   2.912   2.230
 2701SOL    HW1 1299   2.553   2.919   2.329
 2701SOL    HW2 1300   2.651   2.861   2.212
 2702SOL     OW 1301   2.272   2.675   3.113
 2702SOL    HW1 1302   2.358   2.687   3.163
 2702SOL    HW2 1303   2.230   2.588   3.140
 2703SOL     OW 1304   3.136   2.248   3.124
 2703SOL    HW1 1305   3.157   2.322   3.188
 2703SOL    HW2 1306   3.047   2.265   3.081
 2704SOL     OW 1307   1.926   3.426   3.193
 2704SOL    HW1 1308   1.880   3.508   3.159
 2704SOL    HW2 1309   2.024   3.445   3.202
 2705SOL     OW 1310   2.229   2.962   2.363
 2705SOL    HW1 1311   2.222   3.045   2.307
 2705SOL    HW2 1312   2.233   2.882   2.303
 2706SOL     OW 1313   2.428   2.399   2.727
 2706SOL    HW1 1314   2.440   2.465   2.653
 2706SOL    HW2 1315   2.474   2.433   2.810
 2707SOL     OW 1316   3.114   3.210   2.250
 2707SOL    HW1 1317   3.164   3.287   2.290
 2707SOL    HW2 1318   3.019   3.212   2.282
 2708SOL     OW 1319   3.134   3.307   3.004
 2708SOL    HW1 1320   3.181   3.320   3.091
 2708SOL    HW2 1321   3.068   3.233   3.013
 2709SOL     OW 1322   3.444   2.501   2.334
 2709SOL    HW1 1323   3.413   2.562   2.407
 2709SOL    HW2 1324   3.494   2.553   2.265
 2710SOL     OW 1325   2.216   3.372   3.191
 2710SOL    HW1 1326   2.195   3.328   3.104
 2710SOL    HW2 1327   2.313   3.398   3.194
 2711SOL     OW 1328   2.264   2.613   3.460
 2711SOL    HW1 1329   2.332   2.668   3.413
 2711SOL    HW2 1330   2.304   2.525   3.487
 2712SOL     OW 1331   3.449   2.641   3.532
 2712SOL    HW1 1332   3.357   2.679   3.527
 2712SOL    HW2 1333   3.509   2.688   3.467
 2713SOL     OW 1334   2.875   1.967   3.632
 2713SOL    HW1 1335   2.881   2.052   3.580
 2713SOL    HW2 1336   2.907   1.891   3.575
 2714SOL     OW 1337   2.366   1.912   3.602
 2714SOL    HW1 1338   2.324   1.855   3.532
 2714SOL    HW2 1339   2.300   1.981   3.634
 2715SOL     OW 1340   3.071   2.387   2.137
 2715SOL    HW1 1341   3.084   2.303   2.191
 2715SOL    HW2 1342   3.042   2.461   2.197
 2716SOL     OW 1343   2.169   2.075   3.093
 2716SOL    HW1 1344   2.146   2.112   3.183
 2716SOL    HW2 1345   2.139   1.980   3.087
 2717SOL     OW 1346   1.899   3.172   3.144
 2717SOL    HW1 1347   1.952   3.123   3.212
 2717SOL    HW2 1348   1.921   3.270   3.149
 2718SOL     OW 1349   3.590   2.797   3.716
 2718SOL    HW1 1350   3.544   2.790   3.627
 2718SOL    HW2 1351   3.528   2.841   3.782
 2719SOL     OW 1352   2.169   1.925   2.480
 2719SOL    HW1 1353   2.158   2.019   2.513
 2719SOL    HW2 1354   2.164   1.862   2.557
 2720SOL     OW 1355   3.484   2.229   2.236
 2720SOL    HW1 1356   3.486   2.153   2.300
 2720SOL    HW2 1357   3.436   2.306   2.276
 2721SOL     OW 1358   2.842   3.435   3.562
 2721SOL    HW1 1359   2.822   3.479   3.474
 2721SOL    HW2 1360   2.881   3.344   3.546
 2722SOL     OW 1361   3.721   3.380   3.467
 2722SOL    HW1 1362   3.735   3.407   3.372
 2722SOL    HW2 1363   3.804   3.402   3.520
 2723SOL     OW 1364   2.212   2.760   3.666
 2723SOL    HW1 1365   2.288   2.804   3.714
 2723SOL    HW2 1366   2.247   2.713   3.584
 2724SOL     OW 1367   3.402   2.136   1.987
 2724SOL    HW1 1368   3.341   2.061   2.010
 2724SOL    HW2 1369   3.424   2.188   2.070
 2725SOL     OW 1370   3.165   2.700   1.904
 2725SOL    HW1 1371   3.199   2.607   1.919
 2725SOL    HW2 1372   3.183   2.727   1.809
 2726SOL     OW 1373   2.930   3.195   2.711
 2726SOL    HW1 1374   2.937   3.111   2.656
 2726SOL    HW2 1375   2.992   3.264   2.675
 2727SOL     OW 1376   2.201   2.371   2.868
 2727SOL    HW1 1377   2.149   2.288   2.851
 2727SOL    HW2 1378   2.278   2.376   2.804
 2728SOL     OW 1379   3.000   2.242   3.540
 2728SOL    HW1 1380   2.955   2.305   3.604
 2728SOL    HW2 1381   3.093   2.273   3.523
 2729SOL     OW 1382   3.022   2.069   3.339
 2729SOL    HW1 1383   3.022   2.133   3.416
 2729SOL    HW2 1384   3.050   2.117   3.256
 2730SOL     OW 1385   1.870   3.188   2.062
 2730SOL    HW1 1386   1.777   3.209   2.031
 2730SOL    HW2 1387   1.880   3.089   2.075
 2731SOL     OW 1388   1.950   3.663   2.789
 2731SOL    HW1 1389   1.908   3.577   2.762
 2731SOL    HW2 1390   2.044   3.666   2.755
 2732SOL     OW 1391   2.366   3.430   2.772
 2732SOL    HW1 1392   2.432   3.504   2.781
 2732SOL    HW2 1393   2.410   3.351   2.730
 2733SOL     OW 1394   2.864   2.658   3.100
 2733SOL    HW1 1395   2.905   2.626   3.186
 2733SOL    HW2 1396   2.768   2.631   3.097
 2734SOL     OW 1397   1.902   2.406   2.976
 2734SOL    HW1 1398   1.987   2.373   2.935
 2734SOL    HW2 1399   1.915   2.421   3.074
 2735SOL     OW 1400   2.051   2.382   3.584
 2735SOL    HW1 1401   2.110   2.342   3.514
 2735SOL    HW2 1402   1.993   2.453   3.543
 2736SOL     OW 1403   3.231   2.812   3.522
 2736SOL    HW1 1404   3.270   2.901   3.542
 2736SOL    HW2 1405   3.241   2.792   3.425
 2737SOL     OW 1406   2.677   2.434   2.187
 2737SOL    HW1 1407   2.684   2.345   2.141
 2737SOL    HW2 1408   2.583   2.468   2.179
 2738SOL     OW 1409   3.519   2.466   3.068
 2738SOL    HW1 1410   3.481   2.397   3.130
 2738SOL    HW2 1411   3.601   2.430   3.024
 2739SOL     OW 1412   2.114   3.426   3.606
 2739SOL    HW1 1413   2.084   3.483   3.682
 2739SOL    HW2 1414   2.107   3.329   3.632
 2740SOL     OW 1415   2.533   2.326   3.131
 2740SOL    HW1 1416   2.499   2.237   3.101
 2740SOL    HW2 1417   2.559   2.380   3.051
 2741SOL     OW 1418   2.792   3.540   3.327
 2741SOL    HW1 1419   2.768   3.522   3.232
 2741SOL    HW2 1420   2.822   3.634   3.337
 2742SOL     OW 1421   2.335   2.362   2.053
 2742SOL    HW1 1422   2.396   2.442   2.057
 2742SOL    HW2 1423   2.240   2.393   2.060
 2743SOL     OW 1424   2.021   2.999   3.328
 2743SOL    HW1 1425   2.043   2.938   3.404
 2743SOL    HW2 1426   2.031   2.950   3.242
 2744SOL     OW 1427   3.209   2.921   3.096
 2744SOL    HW1 1428   3.233   2.858   3.022
 2744SOL    HW2 1429   3.119   2.961   3.078
 2745SOL     OW 1430   3.164   2.717   2.171
 2745SOL    HW1 1431   3.078   2.686   2.213
 2745SOL    HW2 1432   3.160   2.703   2.072
 2746SOL     OW 1433   3.621   3.609   3.016
 2746SOL    HW1 1434   3.682   3.639   2.943
 2746SOL    HW2 1435   3.583   3.520   2.994
 2747SOL     OW 1436   3.114   3.593   2.990
 2747SOL    HW1 1437   3.198   3.598   2.936
 2747SOL    HW2 1438   3.091   3.497   3.008
 2748SOL     OW 1439   1.945   3.120   2.884
 2748SOL    HW1 1440   1.940   3.119   2.984
 2748SOL    HW2 1441   1.862   3.079   2.846
 2749SOL     OW 1442   2.550   3.524   3.578
 2749SOL    HW1 1443   2.494   3.605   3.587
 2749SOL    HW2 1444   2.602   3.528   3.492
 2750SOL     OW 1445   3.588   1.997   2.385
 2750SOL    HW1 1446   3.661   1.980   2.318
 2750SOL    HW2 1447   3.557   1.910   2.423
 2751SOL     OW 1448   3.250   3.435   2.339
 2751SOL    HW1 1449   3.317   3.447   2.265
 2751SOL    HW2 1450   3.210   3.524   2.362
 2752SOL     OW 1451   1.992   3.656   3.713
 2752SOL    HW1 1452   1.951   3.582   3.766
 2752SOL    HW2 1453   2.056   3.707   3.771
 2753SOL     OW 1454   3.142   2.789   2.534
 2753SOL    HW1 1455   3.202   2.708   2.536
 2753SOL    HW2 1456   3.182   2.858   2.474
 2754SOL     OW 1457   2.692   3.135   3.284
 2754SOL    HW1 1458   2.687   3.168   3.379
 2754SOL    HW2 1459   2.606   3.154   3.238
 2755SOL     OW 1460   2.534   3.478   2.016
 2755SOL    HW1 1461   2.543   3.488   1.917
 2755SOL    HW2 1462   2.494   3.389   2.037
 2756SOL     OW 1463   3.512   3.582   3.256
 2756SOL    HW1 1464   3.565   3.592   3.172
 2756SOL    HW2 1465   3.485   3.672   3.290
 2757SOL     OW 1466   3.703   2.037   2.825
 2757SOL    HW1 1467   3.742   1.952   2.789
 2757SOL    HW2 1468   3.605   2.039   2.806
 2758SOL     OW 1469   2.125   2.188   2.582
 2758SOL    HW1 1470   2.046   2.239   2.548
 2758SOL    HW2 1471   2.116   2.173   2.680
 2759SOL     OW 1472   3.056   3.474   1.893
 2759SOL    HW1 1473   3.062   3.381   1.930
 2759SOL    HW2 1474   2.997   3.474   1.813
 2760SOL     OW 1475   2.684   2.864   3.234
 2760SOL    HW1 1476   2.724   2.863   3.142
 2760SOL    HW2 1477   2.694   2.956   3.274
 2761SOL     OW 1478   2.778   2.772   2.153
 2761SOL    HW1 1479   2.841   2.810   2.085
 2761SOL    HW2 1480   2.818   2.689   2.192
 2762SOL     OW 1481   3.366   3.469   1.906
 2762SOL    HW1 1482   3.274   3.506   1.913
 2762SOL    HW2 1483   3.404   3.489   1.816
 2763SOL     OW 1484   2.234   3.150   3.352
 2763SOL    HW1 1485   2.221   3.243   3.318
 2763SOL    HW2 1486   2.150   3.098   3.339
 2764SOL     OW 1487   3.476   3.154   3.151
 2764SOL    HW1 1488   3.536   3.157   3.231
 2764SOL    HW2 1489   3.401   3.218   3.164
 2765SOL     OW 1490   2.901   2.960   2.558
 2765SOL    HW1 1491   2.831   2.913   2.612
 2765SOL    HW2 1492   2.960   2.892   2.515
 2766SOL     OW 1493   2.876   2.098   2.833
 2766SOL    HW1 1494   2.868   2.062   2.740
 2766SOL    HW2 1495   2.874   2.022   2.898
 2767SOL     OW 1496   2.452   3.349   2.353
 2767SOL    HW1 1497   2.494   3.291   2.283
 2767SOL    HW2 1498   2.408   3.428   2.309
 2768SOL     OW 1499   3.571   2.247   3.243
 2768SOL    HW1 1500   3.644   2.316   3.247
 2768SOL    HW2 1501   3.599   2.172   3.184
 2769SOL     OW 1502   2.117   3.210   2.152
 2769SOL    HW1 1503   2.021   3.211   2.125
 2769SOL    HW2 1504   2.129   3.263   2.236
 2770SOL     OW 1505   1.967   2.875   3.588
 2770SOL    HW1 1506   1.890   2.842   3.642
 2770SOL    HW2 1507   2.052   2.845   3.630
 2771SOL     OW 1508   2.534   2.065   3.351
 2771SOL    HW1 1509   2.624   2.049   3.311
 2771SOL    HW2 1510   2.542   2.070   3.450
 2772SOL     OW 1511   1.937   2.207   1.895
 2772SOL    HW1 1512   1.845   2.179   1.866
 2772SOL    HW2 1513   1.968   2.284   1.839
 2773SOL     OW 1514   3.302   2.718   3.260
 2773SOL    HW1 1515   3.245   2.770   3.197
 2773SOL    HW2 1516   3.398   2.730   3.236
 2774SOL     OW 1517   1.934   2.028   2.180
 2774SOL    HW1 1518   1.917   2.111   2.126
 2774SOL    HW2 1519   2.024   1.991   2.158
 2775SOL     OW 1520   3.045   3.197   1.981
 2775SOL    HW1 1521   2.946   3.186   1.983
 2775SOL    HW2 1522   3.079   3.212   2.074
 2776SOL     OW 1523   2.475   2.704   3.293
 2776SOL    HW1 1524   2.531   2.785   3.276
 2776SOL    HW2 1525   2.534   2.624   3.296
 2777SOL     OW 1526   3.355   3.629   2.821
 2777SOL    HW1 1527   3.388   3.693   2.752
 2777SOL    HW2 1528   3.421   3.623   2.896
 2778SOL     OW 1529   2.578   2.427   3.570
 2778SOL    HW1 1530   2.597   2.492   3.644
 2778SOL    HW2 1531   2.638   2.347   3.579
 2779SOL     OW 1532   3.312   3.082   3.495
 2779SOL    HW1 1533   3.303   3.072   3.594
 2779SOL    HW2 1534   3.408   3.075   3.469
 2780SOL     OW 1535   2.252   3.603   3.422
 2780SOL    HW1 1536   2.161   3.644   3.420
 2780SOL    HW2 1537   2.245   3.509   3.454
 2781SOL     OW 1538   3.536   2.745   3.116
 2781SOL    HW1 1539   3.509   2.656   3.079
 2781SOL    HW2 1540   3.537   2.813   3.043
 2782SOL     OW 1541   3.087   2.187   2.311
 2782SOL    HW1 1542   3.152   2.113   2.300
 2782SOL    HW2 1543   3.107   2.237   2.395
 2783SOL     OW 1544   2.456   2.607   2.514
 2783SOL    HW1 1545   2.506   2.692   2.495
 2783SOL    HW2 1546   2.368   2.609   2.466
 2784SOL     OW 1547   3.639   2.204   3.504
 2784SOL    HW1 1548   3.622   2.235   3.410
 2784SOL    HW2 1549   3.555   2.167   3.542
 2785SOL     OW 1550   3.592   2.796   3.379
 2785SOL    HW1 1551   3.630   2.887   3.394
 2785SOL    HW2 1552   3.584   2.779   3.280
 2786SOL     OW 1553   2.721   3.236   1.878
 2786SOL    HW1 1554   2.675   3.251   1.966
 2786SOL    HW2 1555   2.765   3.321   1.848
 2787SOL     OW 1556   2.523   3.652   2.815
 2787SOL    HW1 1557   2.477   3.740   2.802
 2787SOL    HW2 1558   2.622   3.664   2.808
 2788SOL     OW 1559   2.945   2.846   1.949
 2788SOL    HW1 1560   2.922   2.899   1.867
 2788SOL    HW2 1561   3.026   2.790   1.930
 2789SOL     OW 1562   3.723   3.431   2.713
 2789SOL    HW1 1563   3.652   3.419   2.643
 2789SOL    HW2 1564   3.724   3.352   2.773
 2790SOL     OW 1565   2.083   3.176   3.706
 2790SOL    HW1 1566   2.018   3.103   3.685
 2790SOL    HW2 1567   2.087   3.190   3.804
 2791SOL     OW 1568   1.941   3.102   2.515
 2791SOL    HW1 1569   1.940   3.055   2.603
 2791SOL    HW2 1570   2.023   3.074   2.464
 2792SOL     OW 1571   2.534   3.253   3.486
 2792SOL    HW1 1572   2.456   3.203   3.524
 2792SOL    HW2 1573   2.531   3.348   3.517
 2793SOL     OW 1574   3.686   2.054   3.089
 2793SOL    HW1 1575   3.682   1.964   3.133
 2793SOL    HW2 1576   3.689   2.043   2.990
 2794SOL     OW 1577   2.290   2.286   2.382
 2794SOL    HW1 1578   2.320   2.214   2.320
 2794SOL    HW2 1579   2.251   2.246   2.465
 2795SOL     OW 1580   3.567   3.349   2.966
 2795SOL    HW1 1581   3.474   3.324   2.939
 2795SOL    HW2 1582   3.593   3.299   3.048
 2796SOL     OW 1583   2.179   2.409   3.142
 2796SOL    HW1 1584   2.217   2.350   3.214
 2796SOL    HW2 1585   2.219   2.383   3.054
 2797SOL     OW 1586   2.674   3.448   2.549
 2797SOL    HW1 1587   2.706   3.458   2.455
 2797SOL    HW2 1588   2.595   3.386   2.551
 2798SOL     OW 1589   3.286   2.076   2.974
 2798SOL    HW1 1590   3.338   2.011   3.029
 2798SOL    HW2 1591   3.237   2.139   3.035
 2799SOL     OW 1592   2.863   1.896   3.016
 2799SOL    HW1 1593   2.800   1.824   2.985
 2799SOL    HW2 1594   2.956   1.860   3.016
 2800SOL     OW 1595   2.632   3.192   2.163
 2800SOL    HW1 1596   2.586   3.105   2.180
 2800SOL    HW2 1597   2.723   3.189   2.204
 2801SOL     OW 1598   2.480   3.429   3.146
 2801SOL    HW1 1599   2.475   3.511   3.203
 2801SOL    HW2 1600   2.569   3.426   3.101
 2802SOL     OW 1601   3.214   1.914   2.030
 2802SOL    HW1 1602   3.249   1.873   1.946
 2802SOL    HW2 1603   3.124   1.876   2.050
 2803SOL     OW 1604   3.162   2.315   2.553
 2803SOL    HW1 1605   3.103   2.395   2.557
 2803SOL    HW2 1606   3.177   2.280   2.646
 2804SOL     OW 1607   3.455   2.083   2.744
 2804SOL    HW1 1608   3.371   2.082   2.798
 2804SOL    HW2 1609   3.457   2.166   2.688
 2805SOL     OW 1610   1.901   2.939   2.162
 2805SOL    HW1 1611   2.000   2.928   2.153
 2805SOL    HW2 1612   1.861   2.853   2.194
 2806SOL     OW 1613   2.737   3.508   2.199
 2806SOL    HW1 1614   2.660   3.473   2.145
 2806SOL    HW2 1615   2.705   3.579   2.261
 2807SOL     OW 1616   2.092   2.490   3.837
 2807SOL    HW1 1617   1.999   2.488   3.874
 2807SOL    HW2 1618   2.093   2.451   3.745
 2812SOL     OW 1619   2.997   2.565   4.441
 2812SOL    HW1 1620   3.054   2.643   4.416
 2812SOL    HW2 1621   2.937   2.591   4.517
 2813SOL     OW 1622   3.617   2.469   3.955
 2813SOL    HW1 1623   3.605   2.456   3.856
 2813SOL    HW2 1624   3.587   2.388   4.004
 2815SOL     OW 1625   2.547   2.874   4.389
 2815SOL    HW1 1626   2.616   2.858   4.459
 2815SOL    HW2 1627   2.474   2.931   4.427
 2821SOL     OW 1628   2.092   3.296   4.262
 2821SOL    HW1 1629   2.066   3.392   4.262
 2821SOL    HW2 1630   2.021   3.242   4.307
 2824SOL     OW 1631   2.468   2.826   3.847
 2824SOL    HW1 1632   2.475   2.910   3.793
 2824SOL    HW2 1633   2.514   2.839   3.935
 2826SOL     OW 1634   1.984   2.505   4.287
 2826SOL    HW1 1635   1.939   2.417   4.304
 2826SOL    HW2 1636   1.983   2.559   4.371
 2828SOL     OW 1637   1.889   3.458   3.841
 2828SOL    HW1 1638   1.870   3.362   3.862
 2828SOL    HW2 1639   1.856   3.516   3.916
 2830SOL     OW 1640   3.503   2.970   4.156
 2830SOL    HW1 1641   3.589   2.972   4.104
 2830SOL    HW2 1642   3.517   3.017   4.244
 2834SOL     OW 1643   2.671   1.866   4.226
 2834SOL    HW1 1644   2.711   1.957   4.217
 2834SOL    HW2 1645   2.571   1.874   4.232
 2836SOL     OW 1646   3.387   2.861   3.914
 2836SOL    HW1 1647   3.324   2.785   3.927
 2836SOL    HW2 1648   3.435   2.879   4.000
 2839SOL     OW 1649   2.460   2.591   3.994
 2839SOL    HW1 1650   2.484   2.660   3.926
 2839SOL    HW2 1651   2.382   2.624   4.048
 2841SOL     OW 1652   3.438   3.524   4.031
 2841SOL    HW1 1653   3.527   3.570   4.034
 2841SOL    HW2 1654   3.417   3.500   3.936
 2845SOL     OW 1655   2.903   2.563   4.153
 2845SOL    HW1 1656   2.929   2.559   4.249
 2845SOL    HW2 1657   2.818   2.512   4.139
 2848SOL     OW 1658   2.727   2.210   3.919
 2848SOL    HW1 1659   2.786   2.273   3.870
 2848SOL    HW2 1660   2.746   2.116   3.890
 2849SOL     OW 1661   3.224   3.006   4.269
 2849SOL    HW1 1662   3.307   2.977   4.221
 2849SOL    HW2 1663   3.175   3.073   4.213
 2851SOL     OW 1664   2.870   3.318   4.201
 2851SOL    HW1 1665   2.824   3.390   4.149
 2851SOL    HW2 1666   2.866   3.338   4.299
 2855SOL     OW 1667   2.183   2.805   3.966
 2855SOL    HW1 1668   2.265   2.844   3.924
 2855SOL    HW2 1669   2.156   2.723   3.917
 2858SOL     OW 1670   2.973   3.638   3.961
 2858SOL    HW1 1671   2.913   3.576   4.011
 2858SOL    HW2 1672   3.004   3.594   3.876
 2860SOL     OW 1673   3.494   3.239   3.805
 2860SOL    HW1 1674   3.462   3.333   3.795
 2860SOL    HW2 1675   3.418   3.176   3.793
 2861SOL     OW 1676   2.326   3.605   4.047
 2861SOL    HW1 1677   2.359   3.644   4.133
 2861SOL    HW2 1678   2.402   3.598   3.982
 2862SOL     OW 1679   3.262   1.969   4.150
 2862SOL    HW1 1680   3.238   1.932   4.060
 2862SOL    HW2 1681   3.361   1.985   4.154
 2865SOL     OW 1682   2.244   2.562   4.204
 2865SOL    HW1 1683   2.289   2.472   4.201
 2865SOL    HW2 1684   2.150   2.551   4.237
 2866SOL     OW 1685   2.476   1.984   3.841
 2866SOL    HW1 1686   2.574   1.962   3.848
 2866SOL    HW2 1687   2.445   1.967   3.748
 2871SOL     OW 1688   2.401   1.926   4.236
 2871SOL    HW1 1689   2.320   1.927   4.294
 2871SOL    HW2 1690   2.404   2.009   4.181
 2872SOL     OW 1691   3.296   3.050   3.765
 2872SOL    HW1 1692   3.328   2.974   3.822
 2872SOL    HW2 1693   3.204   3.077   3.795
 2873SOL     OW 1694   2.159   1.897   3.895
 2873SOL    HW1 1695   2.208   1.981   3.874
 2873SOL    HW2 1696   2.221   1.832   3.940
 2874SOL     OW 1697   2.797   2.098   4.204
 2874SOL    HW1 1698   2.749   2.139   4.126
 2874SOL    HW2 1699   2.896   2.096   4.185
 2879SOL     OW 1700   2.894   2.411   3.740
 2879SOL    HW1 1701   2.853   2.493   3.701
 2879SOL    HW2 1702   2.958   2.437   3.813
 2882SOL     OW 1703   2.728   2.316   4.366
 2882SOL    HW1 1704   2.696   2.388   4.304
 2882SOL    HW2 1705   2.752   2.235   4.313
 2886SOL     OW 1706   3.719   2.695   4.101
 2886SOL    HW1 1707   3.761   2.631   4.165
 2886SOL    HW2 1708   3.681   2.644   4.023
 2887SOL     OW 1709   2.350   3.247   3.898
 2887SOL    HW1 1710   2.263   3.232   3.945
 2887SOL    HW2 1711   2.333   3.273   3.803
 2889SOL     OW 1712   3.252   2.437   3.802
 2889SOL    HW1 1713   3.198   2.416   3.883
 2889SOL    HW2 1714   3.343   2.396   3.811
 2890SOL     OW 1715   2.389   2.118   4.052
 2890SOL    HW1 1716   2.416   2.059   3.977
 2890SOL    HW2 1717   2.389   2.213   4.021
 2896SOL     OW 1718   2.567   2.912   4.092
 2896SOL    HW1 1719   2.553   2.919   4.191
 2896SOL    HW2 1720   2.651   2.861   4.074
 2900SOL     OW 1721   2.229   2.962   4.225
 2900SOL    HW1 1722   2.222   3.045   4.169
 2900SOL    HW2 1723   2.233   2.882   4.165
 2902SOL     OW 1724   3.114   3.210   4.112
 2902SOL    HW1 1725   3.164   3.287   4.152
 2902SOL    HW2 1726   3.019   3.212   4.144
 2904SOL     OW 1727   3.444   2.501   4.196
 2904SOL    HW1 1728   3.413   2.562   4.269
 2904SOL    HW2 1729   3.494   2.553   4.127
 2910SOL     OW 1730   3.071   2.387   3.999
 2910SOL    HW1 1731   3.084   2.303   4.053
 2910SOL    HW2 1732   3.042   2.461   4.059
 2915SOL     OW 1733   3.484   2.229   4.098
 2915SOL    HW1 1734   3.486   2.153   4.162
 2915SOL    HW2 1735   3.436   2.306   4.138
 2918SOL     OW 1736   3.402   2.136   3.849
 2918SOL    HW1 1737   3.341   2.061   3.872
 2918SOL    HW2 1738   3.424   2.188   3.932
 2919SOL     OW 1739   3.165   2.700   3.766
 2919SOL    HW1 1740   3.199   2.607   3.781
 2919SOL    HW2 1741   3.183   2.727   3.671
 2924SOL     OW 1742   1.870   3.188   3.924
 2924SOL    HW1 1743   1.777   3.209   3.893
 2924SOL    HW2 1744   1.880   3.089   3.937
 2929SOL     OW 1745   2.677   2.434   4.049
 2929SOL    HW1 1746   2.684   2.345   4.003
 2929SOL    HW2 1747   2.583   2.468   4.041
 2934SOL     OW 1748   2.335   2.362   3.915
 2934SOL    HW1 1749   2.396   2.442   3.919
 2934SOL    HW2 1750   2.240   2.393   3.922
 2937SOL     OW 1751   3.164   2.717   4.033
 2937SOL    HW1 1752   3.078   2.686   4.075
 2937SOL    HW2 1753   3.160   2.703   3.934
 2942SOL     OW 1754   3.250   3.435   4.201
 2942SOL    HW1 1755   3.317   3.447   4.127
 2942SOL    HW2 1756   3.210   3.524   4.224
 2943SOL     OW 1757   3.142   2.789   4.396
 2943SOL    HW1 1758   3.202   2.708   4.398
 2943SOL    HW2 1759   3.182   2.858   4.336
 2945SOL     OW 1760   2.534   3.478   3.878
 2945SOL    HW1 1761   2.543   3.488   3.779
 2945SOL    HW2 1762   2.494   3.389   3.899
 2949SOL     OW 1763   3.056   3.474   3.755
 2949SOL    HW1 1764   3.062   3.381   3.792
 2949SOL    HW2 1765   2.997   3.474   3.675
 2951SOL     OW 1766   2.778   2.772   4.015
 2951SOL    HW1 1767   2.841   2.810   3.947
 2951SOL    HW2 1768   2.818   2.689   4.054
 2952SOL     OW 1769   3.366   3.469   3.768
 2952SOL    HW1 1770   3.274   3.506   3.775
 2952SOL    HW2 1771   3.404   3.489   3.678
 2955SOL     OW 1772   2.901   2.960   4.420
 2955SOL    HW1 1773   2.831   2.913   4.474
 2955SOL    HW2 1774   2.960   2.892   4.377
 2957SOL     OW 1775   2.452   3.349   4.215
 2957SOL    HW1 1776   2.494   3.291   4.145
 2957SOL    HW2 1777   2.408   3.428   4.171
 2959SOL     OW 1778   2.117   3.210   4.014
 2959SOL    HW1 1779   2.021   3.211   3.987
 2959SOL    HW2 1780   2.129   3.263   4.098
 2962SOL     OW 1781   1.937   2.207   3.757
 2962SOL    HW1 1782   1.845   2.179   3.728
 2962SOL    HW2 1783   1.968   2.284   3.701
 2964SOL     OW 1784   1.934   2.028   4.042
 2964SOL    HW1 1785   1.917   2.111   3.988
 2964SOL    HW2 1786   2.024   1.991   4.020
 2965SOL     OW 1787   3.045   3.197   3.843
 2965SOL    HW1 1788   2.946   3.186   3.845
 2965SOL    HW2 1789   3.079   3.212   3.936
 2971SOL     OW 1790   3.087   2.187   4.173
 2971SOL    HW1 1791   3.152   2.113   4.162
 2971SOL    HW2 1792   3.107   2.237   4.257
 2972SOL     OW 1793   2.456   2.607   4.376
 2972SOL    HW1 1794   2.506   2.692   4.357
 2972SOL    HW2 1795   2.368   2.609   4.328
 2974SOL     OW 1796   2.721   3.236   3.740
 2974SOL    HW1 1797   2.675   3.251   3.828
 2974SOL    HW2 1798   2.765   3.321   3.710
 2977SOL     OW 1799   2.945   2.846   3.811
 2977SOL    HW1 1800   2.922   2.899   3.729
 2977SOL    HW2 1801   3.026   2.790   3.792
 2982SOL     OW 1802   2.290   2.286   4.244
 2982SOL    HW1 1803   2.320   2.214   4.182
 2982SOL    HW2 1804   2.251   2.246   4.327
 2988SOL     OW 1805   2.632   3.192   4.025
 2988SOL    HW1 1806   2.586   3.105   4.042
 2988SOL    HW2 1807   2.723   3.189   4.066
 2990SOL     OW 1808   3.214   1.914   3.892
 2990SOL    HW1 1809   3.249   1.873   3.808
 2990SOL    HW2 1810   3.124   1.876   3.912
 2991SOL     OW 1811   3.162   2.315   4.415
 2991SOL    HW1 1812   3.103   2.395   4.419
 2991SOL    HW2 1813   3.177   2.280   4.508
 2993SOL     OW 1814   1.901   2.939   4.024
 2993SOL    HW1 1815   2.000   2.928   4.015
 2993SOL    HW2 1816   1.861   2.853   4.056
 2994SOL     OW 1817   2.737   3.508   4.061
 2994SOL    HW1 1818   2.660   3.473   4.007
 2994SOL    HW2 1819   2.705   3.579   4.123
 3025SOL     OW 1820   2.179   3.975   1.801
 3025SOL    HW1 1821   2.250   4.046   1.807
 3025SOL    HW2 1822   2.091   4.014   1.829
 3050SOL     OW 1823   3.409   3.946   1.729
 3050SOL    HW1 1824   3.404   3.983   1.821
 3050SOL    HW2 1825   3.337   3.877   1.717
 3052SOL     OW 1826   2.643   3.988   1.749
 3052SOL    HW1 1827   2.710   3.927   1.792
 3052SOL    HW2 1828   2.570   4.007   1.814
 3081SOL     OW 1829   2.777   3.813   1.402
 3081SOL    HW1 1830   2.802   3.793   1.307
 3081SOL    HW2 1831   2.849   3.869   1.444
 3095SOL     OW 1832   2.875   3.829   1.770
 3095SOL    HW1 1833   2.881   3.914   1.718
 3095SOL    HW2 1834   2.907   3.753   1.713
 3096SOL     OW 1835   2.366   3.774   1.740
 3096SOL    HW1 1836   2.324   3.717   1.670
 3096SOL    HW2 1837   2.300   3.843   1.772
 3115SOL     OW 1838   3.000   4.104   1.678
 3115SOL    HW1 1839   2.955   4.167   1.742
 3115SOL    HW2 1840   3.093   4.135   1.661
 3116SOL     OW 1841   3.022   3.931   1.477
 3116SOL    HW1 1842   3.022   3.995   1.554
 3116SOL    HW2 1843   3.050   3.979   1.394
 3153SOL     OW 1844   2.534   3.927   1.489
 3153SOL    HW1 1845   2.624   3.911   1.449
 3153SOL    HW2 1846   2.542   3.932   1.588
 3187SOL     OW 1847   2.087   3.999   2.858
 3187SOL    HW1 1848   2.122   3.982   2.950
 3187SOL    HW2 1849   1.999   3.954   2.846
 3188SOL     OW 1850   1.881   4.092   2.509
 3188SOL    HW1 1851   1.799   4.135   2.548
 3188SOL    HW2 1852   1.853   4.019   2.446
 3191SOL     OW 1853   2.997   4.427   2.579
 3191SOL    HW1 1854   3.054   4.505   2.554
 3191SOL    HW2 1855   2.937   4.453   2.655
 3199SOL     OW 1856   2.300   4.116   3.361
 3199SOL    HW1 1857   2.382   4.060   3.370
 3199SOL    HW2 1858   2.219   4.058   3.365
 3200SOL     OW 1859   3.465   4.171   2.599
 3200SOL    HW1 1860   3.391   4.217   2.549
 3200SOL    HW2 1861   3.516   4.239   2.652
 3205SOL     OW 1862   3.456   3.838   3.342
 3205SOL    HW1 1863   3.438   3.905   3.270
 3205SOL    HW2 1864   3.453   3.884   3.431
 3213SOL     OW 1865   2.671   3.728   2.364
 3213SOL    HW1 1866   2.711   3.819   2.355
 3213SOL    HW2 1867   2.571   3.736   2.370
 3216SOL     OW 1868   2.179   3.975   3.663
 3216SOL    HW1 1869   2.250   4.046   3.669
 3216SOL    HW2 1870   2.091   4.014   3.691
 3219SOL     OW 1871   3.143   4.069   2.806
 3219SOL    HW1 1872   3.057   4.019   2.793
 3219SOL    HW2 1873   3.205   4.015   2.862
 3221SOL     OW 1874   2.669   4.329   3.327
 3221SOL    HW1 1875   2.622   4.326   3.416
 3221SOL    HW2 1876   2.618   4.274   3.261
 3222SOL     OW 1877   3.256   4.193   3.536
 3222SOL    HW1 1878   3.236   4.236   3.624
 3222SOL    HW2 1879   3.334   4.131   3.545
 3224SOL     OW 1880   2.853   4.134   3.104
 3224SOL    HW1 1881   2.776   4.168   3.158
 3224SOL    HW2 1882   2.819   4.083   3.025
 3225SOL     OW 1883   2.903   4.425   2.291
 3225SOL    HW1 1884   2.929   4.421   2.387
 3225SOL    HW2 1885   2.818   4.374   2.277
 3227SOL     OW 1886   2.727   4.072   2.057
 3227SOL    HW1 1887   2.786   4.135   2.008
 3227SOL    HW2 1888   2.746   3.978   2.028
 3230SOL     OW 1889   2.412   3.920   2.747
 3230SOL    HW1 1890   2.407   3.915   2.847
 3230SOL    HW2 1891   2.414   4.016   2.718
 3237SOL     OW 1892   2.064   4.009   3.360
 3237SOL    HW1 1893   1.984   4.069   3.347
 3237SOL    HW2 1894   2.054   3.960   3.446
 3239SOL     OW 1895   3.262   3.831   2.288
 3239SOL    HW1 1896   3.238   3.794   2.198
 3239SOL    HW2 1897   3.361   3.847   2.292
 3241SOL     OW 1898   3.409   3.946   3.591
 3241SOL    HW1 1899   3.404   3.983   3.683
 3241SOL    HW2 1900   3.337   3.877   3.579
 3242SOL     OW 1901   2.476   3.846   1.979
 3242SOL    HW1 1902   2.574   3.824   1.986
 3242SOL    HW2 1903   2.445   3.829   1.886
 3243SOL     OW 1904   2.643   3.988   3.611
 3243SOL    HW1 1905   2.710   3.927   3.654
 3243SOL    HW2 1906   2.570   4.007   3.676
 3245SOL     OW 1907   3.213   4.314   3.295
 3245SOL    HW1 1908   3.241   4.271   3.380
 3245SOL    HW2 1909   3.238   4.410   3.296
 3247SOL     OW 1910   2.784   4.227   2.761
 3247SOL    HW1 1911   2.759   4.218   2.665
 3247SOL    HW2 1912   2.832   4.145   2.792
 3248SOL     OW 1913   2.401   3.788   2.374
 3248SOL    HW1 1914   2.320   3.789   2.432
 3248SOL    HW2 1915   2.404   3.871   2.319
 3250SOL     OW 1916   2.159   3.759   2.033
 3250SOL    HW1 1917   2.208   3.843   2.012
 3250SOL    HW2 1918   2.221   3.694   2.078
 3251SOL     OW 1919   2.797   3.960   2.342
 3251SOL    HW1 1920   2.749   4.001   2.264
 3251SOL    HW2 1921   2.896   3.958   2.323
 3255SOL     OW 1922   2.894   4.273   1.878
 3255SOL    HW1 1923   2.853   4.355   1.839
 3255SOL    HW2 1924   2.958   4.299   1.951
 3257SOL     OW 1925   2.423   3.946   3.009
 3257SOL    HW1 1926   2.461   3.862   3.046
 3257SOL    HW2 1927   2.335   3.965   3.053
 3258SOL     OW 1928   2.728   4.178   2.504
 3258SOL    HW1 1929   2.696   4.250   2.442
 3258SOL    HW2 1930   2.752   4.097   2.451
 3259SOL     OW 1931   2.879   3.763   2.615
 3259SOL    HW1 1932   2.807   3.768   2.546
 3259SOL    HW2 1933   2.855   3.694   2.684
 3261SOL     OW 1934   3.328   4.314   2.854
 3261SOL    HW1 1935   3.298   4.219   2.861
 3261SOL    HW2 1936   3.401   4.330   2.920
 3266SOL     OW 1937   2.389   3.980   2.190
 3266SOL    HW1 1938   2.416   3.921   2.115
 3266SOL    HW2 1939   2.389   4.075   2.159
 3272SOL     OW 1940   2.777   3.813   3.264
 3272SOL    HW1 1941   2.802   3.793   3.169
 3272SOL    HW2 1942   2.849   3.869   3.306
 3276SOL     OW 1943   3.136   4.110   3.124
 3276SOL    HW1 1944   3.157   4.184   3.188
 3276SOL    HW2 1945   3.047   4.127   3.081
 3279SOL     OW 1946   2.428   4.261   2.727
 3279SOL    HW1 1947   2.440   4.327   2.653
 3279SOL    HW2 1948   2.474   4.295   2.810
 3286SOL     OW 1949   2.875   3.829   3.632
 3286SOL    HW1 1950   2.881   3.914   3.580
 3286SOL    HW2 1951   2.907   3.753   3.575
 3287SOL     OW 1952   2.366   3.774   3.602
 3287SOL    HW1 1953   2.324   3.717   3.532
 3287SOL    HW2 1954   2.300   3.843   3.634
 3290SOL     OW 1955   3.071   4.249   2.137
 3290SOL    HW1 1956   3.084   4.165   2.191
 3290SOL    HW2 1957   3.042   4.323   2.197
 3291SOL     OW 1958   2.169   3.937   3.093
 3291SOL    HW1 1959   2.146   3.974   3.183
 3291SOL    HW2 1960   2.139   3.842   3.087
 3293SOL     OW 1961   2.594   4.358   2.926
 3293SOL    HW1 1962   2.653   4.332   2.850
 3293SOL    HW2 1963   2.566   4.454   2.915
 3295SOL     OW 1964   2.169   3.787   2.480
 3295SOL    HW1 1965   2.158   3.881   2.513
 3295SOL    HW2 1966   2.164   3.724   2.557
 3296SOL     OW 1967   3.484   4.091   2.236
 3296SOL    HW1 1968   3.486   4.015   2.300
 3296SOL    HW2 1969   3.436   4.168   2.276
 3297SOL     OW 1970   2.885   4.490   2.828
 3297SOL    HW1 1971   2.900   4.511   2.924
 3297SOL    HW2 1972   2.855   4.395   2.819
 3301SOL     OW 1973   3.402   3.998   1.987
 3301SOL    HW1 1974   3.341   3.923   2.010
 3301SOL    HW2 1975   3.424   4.050   2.070
 3305SOL     OW 1976   2.201   4.233   2.868
 3305SOL    HW1 1977   2.149   4.150   2.851
 3305SOL    HW2 1978   2.278   4.238   2.804
 3306SOL     OW 1979   3.000   4.104   3.540
 3306SOL    HW1 1980   2.955   4.167   3.604
 3306SOL    HW2 1981   3.093   4.135   3.523
 3307SOL     OW 1982   3.022   3.931   3.339
 3307SOL    HW1 1983   3.022   3.995   3.416
 3307SOL    HW2 1984   3.050   3.979   3.256
 3311SOL     OW 1985   1.902   4.268   2.976
 3311SOL    HW1 1986   1.987   4.235   2.935
 3311SOL    HW2 1987   1.915   4.283   3.074
 3314SOL     OW 1988   2.677   4.296   2.187
 3314SOL    HW1 1989   2.684   4.207   2.141
 3314SOL    HW2 1990   2.583   4.330   2.179
 3317SOL     OW 1991   2.533   4.188   3.131
 3317SOL    HW1 1992   2.499   4.099   3.101
 3317SOL    HW2 1993   2.559   4.242   3.051
 3318SOL     OW 1994   2.335   4.224   2.053
 3318SOL    HW1 1995   2.396   4.304   2.057
 3318SOL    HW2 1996   2.240   4.255   2.060
 3324SOL     OW 1997   3.588   3.859   2.385
 3324SOL    HW1 1998   3.661   3.842   2.318
 3324SOL    HW2 1999   3.557   3.772   2.423
 3330SOL     OW 2000   3.703   3.899   2.825
 3330SOL    HW1 2001   3.742   3.814   2.789
 3330SOL    HW2 2002   3.605   3.901   2.806
 3331SOL     OW 2003   2.125   4.050   2.582
 3331SOL    HW1 2004   2.046   4.101   2.548
 3331SOL    HW2 2005   2.116   4.035   2.680
 3338SOL     OW 2006   2.876   3.960   2.833
 3338SOL    HW1 2007   2.868   3.924   2.740
 3338SOL    HW2 2008   2.874   3.884   2.898
 3340SOL     OW 2009   3.571   4.109   3.243
 3340SOL    HW1 2010   3.644   4.178   3.247
 3340SOL    HW2 2011   3.599   4.034   3.184
 3343SOL     OW 2012   2.534   3.927   3.351
 3343SOL    HW1 2013   2.624   3.911   3.311
 3343SOL    HW2 2014   2.542   3.932   3.450
 3344SOL     OW 2015   1.937   4.069   1.895
 3344SOL    HW1 2016   1.845   4.041   1.866
 3344SOL    HW2 2017   1.968   4.146   1.839
 3346SOL     OW 2018   1.934   3.890   2.180
 3346SOL    HW1 2019   1.917   3.973   2.126
 3346SOL    HW2 2020   2.024   3.853   2.158
 3349SOL     OW 2021   2.578   4.289   3.570
 3349SOL    HW1 2022   2.597   4.354   3.644
 3349SOL    HW2 2023   2.638   4.209   3.579
 3352SOL     OW 2024   3.087   4.049   2.311
 3352SOL    HW1 2025   3.152   3.975   2.300
 3352SOL    HW2 2026   3.107   4.099   2.395
 3353SOL     OW 2027   2.456   4.469   2.514
 3353SOL    HW1 2028   2.506   4.554   2.495
 3353SOL    HW2 2029   2.368   4.471   2.466
 3363SOL     OW 2030   3.686   3.916   3.089
 3363SOL    HW1 2031   3.682   3.826   3.133
 3363SOL    HW2 2032   3.689   3.905   2.990
 3364SOL     OW 2033   2.290   4.148   2.382
 3364SOL    HW1 2034   2.320   4.076   2.320
 3364SOL    HW2 2035   2.251   4.108   2.465
 3366SOL     OW 2036   2.179   4.271   3.142
 3366SOL    HW1 2037   2.217   4.212   3.214
 3366SOL    HW2 2038   2.219   4.245   3.054
 3368SOL     OW 2039   3.286   3.938   2.974
 3368SOL    HW1 2040   3.338   3.873   3.029
 3368SOL    HW2 2041   3.237   4.001   3.035
 3369SOL     OW 2042   2.863   3.758   3.016
 3369SOL    HW1 2043   2.800   3.686   2.985
 3369SOL    HW2 2044   2.956   3.722   3.016
 3372SOL     OW 2045   3.214   3.776   2.030
 3372SOL    HW1 2046   3.249   3.735   1.946
 3372SOL    HW2 2047   3.124   3.738   2.050
 3373SOL     OW 2048   3.162   4.177   2.553
 3373SOL    HW1 2049   3.103   4.257   2.557
 3373SOL    HW2 2050   3.177   4.142   2.646
 3374SOL     OW 2051   3.455   3.945   2.744
 3374SOL    HW1 2052   3.371   3.944   2.798
 3374SOL    HW2 2053   3.457   4.028   2.688
 3425SOL     OW 2054   2.476   3.846   3.841
 3425SOL    HW1 2055   2.574   3.824   3.848
 3425SOL    HW2 2056   2.445   3.829   3.748
 3432SOL     OW 2057   2.159   3.759   3.895
 3432SOL    HW1 2058   2.208   3.843   3.874
 3432SOL    HW2 2059   2.221   3.694   3.940
 3542SOL     OW 2060   3.214   3.776   3.892
 3542SOL    HW1 2061   3.249   3.735   3.808
 3542SOL    HW2 2062   3.124   3.738   3.912
 3691SOL     OW 2063   3.854   1.794   1.851
 3691SOL    HW1 2064   3.813   1.720   1.904
 3691SOL    HW2 2065   3.918   1.845   1.909
 3753SOL     OW 2066   3.955   1.713   2.345
 3753SOL    HW1 2067   3.989   1.790   2.399
 3753SOL    HW2 2068   3.999   1.713   2.255
 3761SOL     OW 2069   3.751   1.596   1.979
 3761SOL    HW1 2070   3.732   1.500   2.000
 3761SOL    HW2 2071   3.718   1.654   2.054
 3782SOL     OW 2072   3.854   1.821   3.433
 3782SOL    HW1 2073   3.844   1.806   3.532
 3782SOL    HW2 2074   3.768   1.857   3.397
 3788SOL     OW 2075   4.075   1.801   2.715
 3788SOL    HW1 2076   4.125   1.715   2.721
 3788SOL    HW2 2077   4.140   1.878   2.712
 3797SOL     OW 2078   3.973   1.785   3.103
 3797SOL    HW1 2079   4.030   1.720   3.153
 3797SOL    HW2 2080   3.957   1.752   3.010
 3835SOL     OW 2081   3.788   1.564   3.193
 3835SOL    HW1 2082   3.742   1.646   3.159
 3835SOL    HW2 2083   3.886   1.583   3.202
 3865SOL     OW 2084   3.812   1.801   2.789
 3865SOL    HW1 2085   3.770   1.715   2.762
 3865SOL    HW2 2086   3.906   1.804   2.755
 3884SOL     OW 2087   3.854   1.794   3.713
 3884SOL    HW1 2088   3.813   1.720   3.766
 3884SOL    HW2 2089   3.918   1.845   3.771
 4127SOL     OW 2090   3.837   2.599   1.597
 4127SOL    HW1 2091   3.925   2.586   1.642
 4127SOL    HW2 2092   3.824   2.696   1.575
 4134SOL     OW 2093   4.041   2.113   1.801
 4134SOL    HW1 2094   4.112   2.184   1.807
 4134SOL    HW2 2095   3.953   2.152   1.829
 4180SOL     OW 2096   3.802   2.418   1.386
 4180SOL    HW1 2097   3.894   2.417   1.345
 4180SOL    HW2 2098   3.796   2.492   1.453
 4220SOL     OW 2099   4.074   2.760   1.804
 4220SOL    HW1 2100   4.150   2.804   1.852
 4220SOL    HW2 2101   4.109   2.713   1.722
 4233SOL     OW 2102   3.913   2.382   1.722
 4233SOL    HW1 2103   3.972   2.342   1.652
 4233SOL    HW2 2104   3.855   2.453   1.681
 4236SOL     OW 2105   3.976   3.426   1.744
 4236SOL    HW1 2106   3.946   3.483   1.820
 4236SOL    HW2 2107   3.969   3.329   1.770
 4240SOL     OW 2108   3.883   2.999   1.466
 4240SOL    HW1 2109   3.905   2.938   1.542
 4240SOL    HW2 2110   3.893   2.950   1.380
 4249SOL     OW 2111   3.854   3.656   1.851
 4249SOL    HW1 2112   3.813   3.582   1.904
 4249SOL    HW2 2113   3.918   3.707   1.909
 4263SOL     OW 2114   3.829   2.875   1.726
 4263SOL    HW1 2115   3.752   2.842   1.780
 4263SOL    HW2 2116   3.914   2.845   1.768
 4282SOL     OW 2117   3.945   3.176   1.844
 4282SOL    HW1 2118   3.880   3.103   1.823
 4282SOL    HW2 2119   3.949   3.190   1.942
 4298SOL     OW 2120   3.954   2.490   1.975
 4298SOL    HW1 2121   3.861   2.488   2.012
 4298SOL    HW2 2122   3.955   2.451   1.883
 4299SOL     OW 2123   3.949   2.137   2.858
 4299SOL    HW1 2124   3.984   2.120   2.950
 4299SOL    HW2 2125   3.861   2.092   2.846
 4300SOL     OW 2126   3.743   2.230   2.509
 4300SOL    HW1 2127   3.661   2.273   2.548
 4300SOL    HW2 2128   3.715   2.157   2.446
 4301SOL     OW 2129   4.293   3.137   3.027
 4301SOL    HW1 2130   4.200   3.130   2.990
 4301SOL    HW2 2131   4.304   3.226   3.071
 4304SOL     OW 2132   4.492   3.006   2.885
 4304SOL    HW1 2133   4.414   3.023   2.945
 4304SOL    HW2 2134   4.526   3.093   2.849
 4306SOL     OW 2135   4.409   2.874   2.527
 4306SOL    HW1 2136   4.478   2.858   2.597
 4306SOL    HW2 2137   4.336   2.931   2.565
 4308SOL     OW 2138   4.059   3.297   2.923
 4308SOL    HW1 2139   3.981   3.266   2.870
 4308SOL    HW2 2140   4.117   3.355   2.866
 4310SOL     OW 2141   4.162   2.254   3.361
 4310SOL    HW1 2142   4.244   2.198   3.370
 4310SOL    HW2 2143   4.081   2.196   3.365
 4311SOL     OW 2144   3.955   3.575   2.345
 4311SOL    HW1 2145   3.989   3.652   2.399
 4311SOL    HW2 2146   3.999   3.575   2.255
 4313SOL     OW 2147   3.954   3.296   2.400
 4313SOL    HW1 2148   3.928   3.392   2.400
 4313SOL    HW2 2149   3.883   3.242   2.445
 4314SOL     OW 2150   3.964   2.953   2.748
 4314SOL    HW1 2151   3.978   2.869   2.800
 4314SOL    HW2 2152   3.909   3.017   2.803
 4316SOL     OW 2153   4.330   2.826   1.985
 4316SOL    HW1 2154   4.337   2.910   1.931
 4316SOL    HW2 2155   4.376   2.839   2.073
 4318SOL     OW 2156   3.846   2.505   2.425
 4318SOL    HW1 2157   3.801   2.417   2.442
 4318SOL    HW2 2158   3.845   2.559   2.509
 4319SOL     OW 2159   3.751   3.458   1.979
 4319SOL    HW1 2160   3.732   3.362   2.000
 4319SOL    HW2 2161   3.718   3.516   2.054
 4321SOL     OW 2162   3.837   2.599   3.459
 4321SOL    HW1 2163   3.925   2.586   3.504
 4321SOL    HW2 2164   3.824   2.696   3.437
 4322SOL     OW 2165   4.337   3.227   2.588
 4322SOL    HW1 2166   4.288   3.140   2.597
 4322SOL    HW2 2167   4.314   3.270   2.501
 4325SOL     OW 2168   3.921   2.838   3.126
 4325SOL    HW1 2169   4.010   2.793   3.112
 4325SOL    HW2 2170   3.848   2.773   3.107
 4328SOL     OW 2171   4.041   2.113   3.663
 4328SOL    HW1 2172   4.112   2.184   3.669
 4328SOL    HW2 2173   3.953   2.152   3.691
 4331SOL     OW 2174   4.322   2.591   2.132
 4331SOL    HW1 2175   4.346   2.660   2.064
 4331SOL    HW2 2176   4.244   2.624   2.186
 4339SOL     OW 2177   3.800   2.673   2.651
 4339SOL    HW1 2178   3.899   2.661   2.660
 4339SOL    HW2 2179   3.776   2.768   2.672
 4340SOL     OW 2180   3.854   3.683   3.433
 4340SOL    HW1 2181   3.844   3.668   3.532
 4340SOL    HW2 2182   3.768   3.719   3.397
 4344SOL     OW 2183   4.274   2.058   2.747
 4344SOL    HW1 2184   4.269   2.053   2.847
 4344SOL    HW2 2185   4.276   2.154   2.718
 4346SOL     OW 2186   4.075   3.663   2.715
 4346SOL    HW1 2187   4.125   3.577   2.721
 4346SOL    HW2 2188   4.140   3.740   2.712
 4348SOL     OW 2189   4.045   2.805   2.104
 4348SOL    HW1 2190   4.127   2.844   2.062
 4348SOL    HW2 2191   4.018   2.723   2.055
 4350SOL     OW 2192   4.185   3.128   3.589
 4350SOL    HW1 2193   4.135   3.129   3.503
 4350SOL    HW2 2194   4.122   3.110   3.665
 4352SOL     OW 2195   3.926   2.147   3.360
 4352SOL    HW1 2196   3.846   2.207   3.347
 4352SOL    HW2 2197   3.916   2.098   3.446
 4353SOL     OW 2198   4.188   3.605   2.185
 4353SOL    HW1 2199   4.221   3.644   2.271
 4353SOL    HW2 2200   4.264   3.598   2.120
 4355SOL     OW 2201   3.973   3.647   3.103
 4355SOL    HW1 2202   4.030   3.582   3.153
 4355SOL    HW2 2203   3.957   3.614   3.010
 4357SOL     OW 2204   4.106   2.562   2.342
 4357SOL    HW1 2205   4.151   2.472   2.339
 4357SOL    HW2 2206   4.012   2.551   2.375
 4365SOL     OW 2207   4.263   1.926   2.374
 4365SOL    HW1 2208   4.182   1.927   2.432
 4365SOL    HW2 2209   4.266   2.009   2.319
 4367SOL     OW 2210   4.021   1.897   2.033
 4367SOL    HW1 2211   4.070   1.981   2.012
 4367SOL    HW2 2212   4.083   1.832   2.078
 4371SOL     OW 2213   4.183   3.014   2.603
 4371SOL    HW1 2214   4.112   2.987   2.668
 4371SOL    HW2 2215   4.157   2.986   2.510
 4374SOL     OW 2216   3.802   2.418   3.248
 4374SOL    HW1 2217   3.894   2.417   3.207
 4374SOL    HW2 2218   3.796   2.492   3.315
 4375SOL     OW 2219   4.285   2.084   3.009
 4375SOL    HW1 2220   4.323   2.000   3.046
 4375SOL    HW2 2221   4.197   2.103   3.053
 4381SOL     OW 2222   4.212   3.247   2.036
 4381SOL    HW1 2223   4.125   3.232   2.083
 4381SOL    HW2 2224   4.195   3.273   1.941
 4383SOL     OW 2225   4.251   2.118   2.190
 4383SOL    HW1 2226   4.278   2.059   2.115
 4383SOL    HW2 2227   4.251   2.213   2.159
 4390SOL     OW 2228   4.429   2.912   2.230
 4390SOL    HW1 2229   4.415   2.919   2.329
 4390SOL    HW2 2230   4.513   2.861   2.212
 4391SOL     OW 2231   4.134   2.675   3.113
 4391SOL    HW1 2232   4.220   2.687   3.163
 4391SOL    HW2 2233   4.092   2.588   3.140
 4393SOL     OW 2234   3.788   3.426   3.193
 4393SOL    HW1 2235   3.742   3.508   3.159
 4393SOL    HW2 2236   3.886   3.445   3.202
 4394SOL     OW 2237   4.091   2.962   2.363
 4394SOL    HW1 2238   4.084   3.045   2.307
 4394SOL    HW2 2239   4.095   2.882   2.303
 4395SOL     OW 2240   4.290   2.399   2.727
 4395SOL    HW1 2241   4.302   2.465   2.653
 4395SOL    HW2 2242   4.336   2.433   2.810
 4399SOL     OW 2243   4.078   3.372   3.191
 4399SOL    HW1 2244   4.057   3.328   3.104
 4399SOL    HW2 2245   4.175   3.398   3.194
 4400SOL     OW 2246   4.126   2.613   3.460
 4400SOL    HW1 2247   4.194   2.668   3.413
 4400SOL    HW2 2248   4.166   2.525   3.487
 4404SOL     OW 2249   4.297   2.732   2.891
 4404SOL    HW1 2250   4.341   2.821   2.882
 4404SOL    HW2 2251   4.234   2.732   2.968
 4407SOL     OW 2252   4.031   2.075   3.093
 4407SOL    HW1 2253   4.008   2.112   3.183
 4407SOL    HW2 2254   4.001   1.980   3.087
 4408SOL     OW 2255   3.761   3.172   3.144
 4408SOL    HW1 2256   3.814   3.123   3.212
 4408SOL    HW2 2257   3.783   3.270   3.149
 4409SOL     OW 2258   4.456   2.496   2.926
 4409SOL    HW1 2259   4.515   2.470   2.850
 4409SOL    HW2 2260   4.428   2.592   2.915
 4410SOL     OW 2261   4.031   1.925   2.480
 4410SOL    HW1 2262   4.020   2.019   2.513
 4410SOL    HW2 2263   4.026   1.862   2.557
 4414SOL     OW 2264   4.074   2.760   3.666
 4414SOL    HW1 2265   4.150   2.804   3.714
 4414SOL    HW2 2266   4.109   2.713   3.584
 4418SOL     OW 2267   4.043   2.672   2.811
 4418SOL    HW1 2268   4.136   2.708   2.816
 4418SOL    HW2 2269   4.037   2.587   2.863
 4419SOL     OW 2270   4.063   2.371   2.868
 4419SOL    HW1 2271   4.011   2.288   2.851
 4419SOL    HW2 2272   4.140   2.376   2.804
 4422SOL     OW 2273   3.732   3.188   2.062
 4422SOL    HW1 2274   3.639   3.209   2.031
 4422SOL    HW2 2275   3.742   3.089   2.075
 4423SOL     OW 2276   3.812   3.663   2.789
 4423SOL    HW1 2277   3.770   3.577   2.762
 4423SOL    HW2 2278   3.906   3.666   2.755
 4424SOL     OW 2279   4.228   3.430   2.772
 4424SOL    HW1 2280   4.294   3.504   2.781
 4424SOL    HW2 2281   4.272   3.351   2.730
 4426SOL     OW 2282   3.764   2.406   2.976
 4426SOL    HW1 2283   3.849   2.373   2.935
 4426SOL    HW2 2284   3.777   2.421   3.074
 4427SOL     OW 2285   3.913   2.382   3.584
 4427SOL    HW1 2286   3.972   2.342   3.514
 4427SOL    HW2 2287   3.855   2.453   3.543
 4430SOL     OW 2288   3.976   3.426   3.606
 4430SOL    HW1 2289   3.946   3.483   3.682
 4430SOL    HW2 2290   3.969   3.329   3.632
 4431SOL     OW 2291   4.395   2.326   3.131
 4431SOL    HW1 2292   4.361   2.237   3.101
 4431SOL    HW2 2293   4.421   2.380   3.051
 4433SOL     OW 2294   4.197   2.362   2.053
 4433SOL    HW1 2295   4.258   2.442   2.057
 4433SOL    HW2 2296   4.102   2.393   2.060
 4434SOL     OW 2297   3.883   2.999   3.328
 4434SOL    HW1 2298   3.905   2.938   3.404
 4434SOL    HW2 2299   3.893   2.950   3.242
 4439SOL     OW 2300   3.807   3.120   2.884
 4439SOL    HW1 2301   3.802   3.119   2.984
 4439SOL    HW2 2302   3.724   3.079   2.846
 4442SOL     OW 2303   3.854   3.656   3.713
 4442SOL    HW1 2304   3.813   3.582   3.766
 4442SOL    HW2 2305   3.918   3.707   3.771
 4446SOL     OW 2306   3.987   2.188   2.582
 4446SOL    HW1 2307   3.908   2.239   2.548
 4446SOL    HW2 2308   3.978   2.173   2.680
 4451SOL     OW 2309   4.096   3.150   3.352
 4451SOL    HW1 2310   4.083   3.243   3.318
 4451SOL    HW2 2311   4.012   3.098   3.339
 4454SOL     OW 2312   4.314   3.349   2.353
 4454SOL    HW1 2313   4.356   3.291   2.283
 4454SOL    HW2 2314   4.270   3.428   2.309
 4455SOL     OW 2315   3.979   3.210   2.152
 4455SOL    HW1 2316   3.883   3.211   2.125
 4455SOL    HW2 2317   3.991   3.263   2.236
 4456SOL     OW 2318   3.829   2.875   3.588
 4456SOL    HW1 2319   3.752   2.842   3.642
 4456SOL    HW2 2320   3.914   2.845   3.630
 4458SOL     OW 2321   3.799   2.207   1.895
 4458SOL    HW1 2322   3.707   2.179   1.866
 4458SOL    HW2 2323   3.830   2.284   1.839
 4460SOL     OW 2324   3.796   2.028   2.180
 4460SOL    HW1 2325   3.779   2.111   2.126
 4460SOL    HW2 2326   3.886   1.991   2.158
 4462SOL     OW 2327   4.337   2.704   3.293
 4462SOL    HW1 2328   4.393   2.785   3.276
 4462SOL    HW2 2329   4.396   2.624   3.296
 4466SOL     OW 2330   4.114   3.603   3.422
 4466SOL    HW1 2331   4.023   3.644   3.420
 4466SOL    HW2 2332   4.107   3.509   3.454
 4469SOL     OW 2333   4.318   2.607   2.514
 4469SOL    HW1 2334   4.368   2.692   2.495
 4469SOL    HW2 2335   4.230   2.609   2.466
 4475SOL     OW 2336   3.945   3.176   3.706
 4475SOL    HW1 2337   3.880   3.103   3.685
 4475SOL    HW2 2338   3.949   3.190   3.804
 4476SOL     OW 2339   3.803   3.102   2.515
 4476SOL    HW1 2340   3.802   3.055   2.603
 4476SOL    HW2 2341   3.885   3.074   2.464
 4479SOL     OW 2342   4.152   2.286   2.382
 4479SOL    HW1 2343   4.182   2.214   2.320
 4479SOL    HW2 2344   4.113   2.246   2.465
 4480SOL     OW 2345   4.041   2.409   3.142
 4480SOL    HW1 2346   4.079   2.350   3.214
 4480SOL    HW2 2347   4.081   2.383   3.054
 4489SOL     OW 2348   3.763   2.939   2.162
 4489SOL    HW1 2349   3.862   2.928   2.153
 4489SOL    HW2 2350   3.723   2.853   2.194
 4491SOL     OW 2351   3.954   2.490   3.837
 4491SOL    HW1 2352   3.861   2.488   3.874
 4491SOL    HW2 2353   3.955   2.451   3.745
 4509SOL     OW 2354   3.751   3.458   3.841
 4509SOL    HW1 2355   3.732   3.362   3.862
 4509SOL    HW2 2356   3.718   3.516   3.916
 4599SOL     OW 2357   3.732   3.188   3.924
 4599SOL    HW1 2358   3.639   3.209   3.893
 4599SOL    HW2 2359   3.742   3.089   3.937
 4631SOL     OW 2360   3.799   2.207   3.757
 4631SOL    HW1 2361   3.707   2.179   3.728
 4631SOL    HW2 2362   3.830   2.284   3.701
 4660SOL     OW 2363   3.763   2.939   4.024
 4660SOL    HW1 2364   3.862   2.928   4.015
 4660SOL    HW2 2365   3.723   2.853   4.056
 4838SOL     OW 2366   3.949   3.999   2.858
 4838SOL    HW1 2367   3.984   3.982   2.950
 4838SOL    HW2 2368   3.861   3.954   2.846
 4839SOL     OW 2369   3.743   4.092   2.509
 4839SOL    HW1 2370   3.661   4.135   2.548
 4839SOL    HW2 2371   3.715   4.019   2.446
 4897SOL     OW 2372   4.021   3.759   2.033
 4897SOL    HW1 2373   4.070   3.843   2.012
 4897SOL    HW2 2374   4.083   3.694   2.078
 4939SOL     OW 2375   4.031   3.787   2.480
 4939SOL    HW1 2376   4.020   3.881   2.513
 4939SOL    HW2 2377   4.026   3.724   2.557
 4984SOL     OW 2378   3.796   3.890   2.180
 4984SOL    HW1 2379   3.779   3.973   2.126
 4984SOL    HW2 2380   3.886   3.853   2.158
   5.44741   5.44741   5.44741
