; mobley_7869158_GMX.itp created by acpype (v: 2023.10.27) on Thu May 21 00:08:20 2026

[ atomtypes ]
;name   bond_type     mass     charge   ptype   sigma         epsilon       Amb
 c3       c3          0.00000  0.00000   A     3.39771e-01   4.51035e-01 ; 1.91  0.1078
 no       no          0.00000  0.00000   A     3.36510e-01   3.58987e-01 ; 1.89  0.0858
 o        o           0.00000  0.00000   A     3.04812e-01   6.12119e-01 ; 1.71  0.1463
 os       os          0.00000  0.00000   A     3.15610e-01   3.03758e-01 ; 1.77  0.0726
 hc       hc          0.00000  0.00000   A     2.60018e-01   8.70272e-02 ; 1.46  0.0208
 h1       h1          0.00000  0.00000   A     2.42200e-01   8.70272e-02 ; 1.36  0.0208

[ moleculetype ]
;name            nrexcl
 mobley_7869158   3

[ atoms ]
;   nr  type  resi  res  atom  cgnr     charge      mass       ; qtot   bond_type
     1   c3     1   MOL    C1    1    -0.099100     12.01000 ; qtot -0.099
     2   c3     1   MOL    C2    2    -0.130100     12.01000 ; qtot -0.229
     3   c3     1   MOL    C3    3    -0.083400     12.01000 ; qtot -0.313
     4   c3     1   MOL    C4    4     0.148100     12.01000 ; qtot -0.165
     5   no     1   MOL    N1    5     0.378200     14.01000 ; qtot 0.214
     6    o     1   MOL    O1    6    -0.189500     16.00000 ; qtot 0.024
     7    o     1   MOL    O2    7    -0.189500     16.00000 ; qtot -0.165
     8   os     1   MOL    O3    8    -0.352000     16.00000 ; qtot -0.517
     9   hc     1   MOL    H1    9     0.043033      1.00800 ; qtot -0.474
    10   hc     1   MOL    H2   10     0.043033      1.00800 ; qtot -0.431
    11   hc     1   MOL    H3   11     0.043033      1.00800 ; qtot -0.388
    12   hc     1   MOL    H4   12     0.058367      1.00800 ; qtot -0.330
    13   hc     1   MOL    H5   13     0.058367      1.00800 ; qtot -0.271
    14   hc     1   MOL    H6   14     0.058367      1.00800 ; qtot -0.213
    15   hc     1   MOL    H7   15     0.064700      1.00800 ; qtot -0.148
    16   hc     1   MOL    H8   16     0.064700      1.00800 ; qtot -0.084
    17   h1     1   MOL    H9   17     0.083700      1.00800 ; qtot 0.000

[ bonds ]
;   ai     aj funct   r             k
     1      3   1    1.5354e-01    1.9154e+05 ;     C1 - C3    
     1      9   1    1.0962e-01    2.8891e+05 ;     C1 - H1    
     1     10   1    1.0962e-01    2.8891e+05 ;     C1 - H2    
     1     11   1    1.0962e-01    2.8891e+05 ;     C1 - H3    
     2      4   1    1.5354e-01    1.9154e+05 ;     C2 - C4    
     2     12   1    1.0962e-01    2.8891e+05 ;     C2 - H4    
     2     13   1    1.0962e-01    2.8891e+05 ;     C2 - H5    
     2     14   1    1.0962e-01    2.8891e+05 ;     C2 - H6    
     3      4   1    1.5354e-01    1.9154e+05 ;     C3 - C4    
     3     15   1    1.0962e-01    2.8891e+05 ;     C3 - H7    
     3     16   1    1.0962e-01    2.8891e+05 ;     C3 - H8    
     4      8   1    1.4273e-01    2.3620e+05 ;     C4 - O3    
     4     17   1    1.0969e-01    2.8804e+05 ;     C4 - H9    
     5      6   1    1.2311e-01    3.0270e+05 ;     N1 - O1    
     5      7   1    1.2311e-01    3.0270e+05 ;     N1 - O2    
     5      8   1    1.4202e-01    1.5509e+05 ;     N1 - O3    

[ pairs ]
;   ai     aj    funct
     1      2      1 ;     C1 - C2    
     1      8      1 ;     C1 - O3    
     1     17      1 ;     C1 - H9    
     2      5      1 ;     C2 - N1    
     2     15      1 ;     C2 - H7    
     2     16      1 ;     C2 - H8    
     3      5      1 ;     C3 - N1    
     3     12      1 ;     C3 - H4    
     3     13      1 ;     C3 - H5    
     3     14      1 ;     C3 - H6    
     4      6      1 ;     C4 - O1    
     4      7      1 ;     C4 - O2    
     5     17      1 ;     N1 - H9    
     8     12      1 ;     O3 - H4    
     8     13      1 ;     O3 - H5    
     8     14      1 ;     O3 - H6    
     8     15      1 ;     O3 - H7    
     8     16      1 ;     O3 - H8    
     9      4      1 ;     H1 - C4    
     9     15      1 ;     H1 - H7    
     9     16      1 ;     H1 - H8    
    10      4      1 ;     H2 - C4    
    10     15      1 ;     H2 - H7    
    10     16      1 ;     H2 - H8    
    11      4      1 ;     H3 - C4    
    11     15      1 ;     H3 - H7    
    11     16      1 ;     H3 - H8    
    12     17      1 ;     H4 - H9    
    13     17      1 ;     H5 - H9    
    14     17      1 ;     H6 - H9    
    15     17      1 ;     H7 - H9    
    16     17      1 ;     H8 - H9    

[ angles ]
;   ai     aj     ak    funct   theta         cth
     1      3      4      1    1.1263e+02    5.0099e+02 ;     C1 - C3     - C4    
     1      3     15      1    1.0968e+02    3.6208e+02 ;     C1 - C3     - H7    
     1      3     16      1    1.0968e+02    3.6208e+02 ;     C1 - C3     - H8    
     2      4      3      1    1.1263e+02    5.0099e+02 ;     C2 - C4     - C3    
     2      4      8      1    1.0762e+02    6.4802e+02 ;     C2 - C4     - O3    
     2      4     17      1    1.0959e+02    3.6217e+02 ;     C2 - C4     - H9    
     3      1      9      1    1.0968e+02    3.6208e+02 ;     C3 - C1     - H1    
     3      1     10      1    1.0968e+02    3.6208e+02 ;     C3 - C1     - H2    
     3      1     11      1    1.0968e+02    3.6208e+02 ;     C3 - C1     - H3    
     3      4      8      1    1.0762e+02    6.4802e+02 ;     C3 - C4     - O3    
     3      4     17      1    1.0959e+02    3.6217e+02 ;     C3 - C4     - H9    
     4      2     12      1    1.0968e+02    3.6208e+02 ;     C4 - C2     - H4    
     4      2     13      1    1.0968e+02    3.6208e+02 ;     C4 - C2     - H5    
     4      2     14      1    1.0968e+02    3.6208e+02 ;     C4 - C2     - H6    
     4      3     15      1    1.0968e+02    3.6208e+02 ;     C4 - C3     - H7    
     4      3     16      1    1.0968e+02    3.6208e+02 ;     C4 - C3     - H8    
     4      8      5      1    1.1387e+02    7.8567e+02 ;     C4 - O3     - N1    
     6      5      7      1    1.2505e+02    1.0964e+03 ;     O1 - N1     - O2    
     6      5      8      1    1.1480e+02    1.0519e+03 ;     O1 - N1     - O3    
     7      5      8      1    1.1480e+02    1.0519e+03 ;     O2 - N1     - O3    
     8      4     17      1    1.1034e+02    4.7028e+02 ;     O3 - C4     - H9    
     9      1     10      1    1.0773e+02    2.9957e+02 ;     H1 - C1     - H2    
     9      1     11      1    1.0773e+02    2.9957e+02 ;     H1 - C1     - H3    
    10      1     11      1    1.0773e+02    2.9957e+02 ;     H2 - C1     - H3    
    12      2     13      1    1.0773e+02    2.9957e+02 ;     H4 - C2     - H5    
    12      2     14      1    1.0773e+02    2.9957e+02 ;     H4 - C2     - H6    
    13      2     14      1    1.0773e+02    2.9957e+02 ;     H5 - C2     - H6    
    15      3     16      1    1.0773e+02    2.9957e+02 ;     H7 - C3     - H8    

[ dihedrals ] ; propers
; for gromacs 4.5 or higher, using funct 9
;    i      j      k      l   func   phase     kd      pn
     1      3      4      2      9     0.00   2.17568   3 ;     C1-    C3-    C4-    C2
     1      3      4      8      9     0.00   0.65084   3 ;     C1-    C3-    C4-    O3
     1      3      4     17      9     0.00   0.65084   3 ;     C1-    C3-    C4-    H9
     2      4      3     15      9     0.00   0.54392   3 ;     C2-    C4-    C3-    H7
     2      4      3     16      9     0.00   0.54392   3 ;     C2-    C4-    C3-    H8
     2      4      8      5      9     0.00   1.60387   3 ;     C2-    C4-    O3-    N1
     3      4      2     12      9     0.00   0.54392   3 ;     C3-    C4-    C2-    H4
     3      4      2     13      9     0.00   0.54392   3 ;     C3-    C4-    C2-    H5
     3      4      2     14      9     0.00   0.54392   3 ;     C3-    C4-    C2-    H6
     3      4      8      5      9     0.00   1.60387   3 ;     C3-    C4-    O3-    N1
     4      8      5      6      9   180.00  10.60644   2 ;     C4-    O3-    N1-    O1
     4      8      5      7      9   180.00  10.60644   2 ;     C4-    O3-    N1-    O2
     5      8      4     17      9     0.00   1.60387   3 ;     N1-    O3-    C4-    H9
     8      4      2     12      9     0.00   0.00000   0 ;     O3-    C4-    C2-    H4
     8      4      2     12      9     0.00   1.04600   1 ;     O3-    C4-    C2-    H4
     8      4      2     13      9     0.00   0.00000   0 ;     O3-    C4-    C2-    H5
     8      4      2     13      9     0.00   1.04600   1 ;     O3-    C4-    C2-    H5
     8      4      2     14      9     0.00   0.00000   0 ;     O3-    C4-    C2-    H6
     8      4      2     14      9     0.00   1.04600   1 ;     O3-    C4-    C2-    H6
     8      4      3     15      9     0.00   0.00000   0 ;     O3-    C4-    C3-    H7
     8      4      3     15      9     0.00   1.04600   1 ;     O3-    C4-    C3-    H7
     8      4      3     16      9     0.00   0.00000   0 ;     O3-    C4-    C3-    H8
     8      4      3     16      9     0.00   1.04600   1 ;     O3-    C4-    C3-    H8
     9      1      3      4      9     0.00   0.54392   3 ;     H1-    C1-    C3-    C4
     9      1      3     15      9     0.00   0.50208   3 ;     H1-    C1-    C3-    H7
     9      1      3     16      9     0.00   0.50208   3 ;     H1-    C1-    C3-    H8
    10      1      3      4      9     0.00   0.54392   3 ;     H2-    C1-    C3-    C4
    10      1      3     15      9     0.00   0.50208   3 ;     H2-    C1-    C3-    H7
    10      1      3     16      9     0.00   0.50208   3 ;     H2-    C1-    C3-    H8
    11      1      3      4      9     0.00   0.54392   3 ;     H3-    C1-    C3-    C4
    11      1      3     15      9     0.00   0.50208   3 ;     H3-    C1-    C3-    H7
    11      1      3     16      9     0.00   0.50208   3 ;     H3-    C1-    C3-    H8
    12      2      4     17      9     0.00   0.65084   3 ;     H4-    C2-    C4-    H9
    13      2      4     17      9     0.00   0.65084   3 ;     H5-    C2-    C4-    H9
    14      2      4     17      9     0.00   0.65084   3 ;     H6-    C2-    C4-    H9
    15      3      4     17      9     0.00   0.65084   3 ;     H7-    C3-    C4-    H9
    16      3      4     17      9     0.00   0.65084   3 ;     H8-    C3-    C4-    H9

[ dihedrals ] ; impropers
; treated as propers in GROMACS to use correct AMBER analytical function
;    i      j      k      l   func   phase     kd      pn
     6      7      5      8      4   180.00   4.60240   2 ;     O1-    O2-    N1-    O3
