mobley_1139153_GMX.gro created by acpype (v: 2023.10.27) on Thu May 21 00:07:06 2026
 2414
    1MOL     C1    1   2.498   2.480   2.345
    1MOL     C2    2   2.372   2.548   2.141
    1MOL     C3    3   2.191   2.142   2.390
    1MOL     C4    4   2.268   2.344   2.517
    1MOL     C5    5   2.435   2.186   2.421
    1MOL     C6    6   2.307   2.335   2.266
    1MOL     C7    7   2.360   2.480   2.278
    1MOL     C8    8   2.298   2.252   2.397
    1MOL     H1    9   2.571   2.421   2.287
    1MOL     H2   10   2.537   2.582   2.354
    1MOL     H3   11   2.492   2.438   2.446
    1MOL     H4   12   2.442   2.493   2.075
    1MOL     H5   13   2.410   2.650   2.151
    1MOL     H6   14   2.276   2.553   2.089
    1MOL     H7   15   2.090   2.184   2.383
    1MOL     H8   16   2.194   2.079   2.479
    1MOL     H9   17   2.208   2.077   2.303
    1MOL    H10   18   2.271   2.288   2.611
    1MOL    H11   19   2.341   2.425   2.524
    1MOL    H12   20   2.168   2.389   2.510
    1MOL    H13   21   2.515   2.260   2.429
    1MOL    H14   22   2.435   2.127   2.514
    1MOL    H15   23   2.461   2.118   2.339
    1MOL    H16   24   2.209   2.337   2.218
    1MOL    H17   25   2.372   2.279   2.197
    1MOL    H18   26   2.294   2.540   2.340
   14SOL     OW   27   1.460   1.505   1.339
   14SOL    HW1   28   1.484   1.599   1.365
   14SOL    HW2   29   1.444   1.451   1.421
   18SOL     OW   30   1.127   1.341   1.690
   18SOL    HW1   31   1.174   1.341   1.778
   18SOL    HW2   32   1.079   1.254   1.679
   31SOL     OW   33   1.293   1.228   1.423
   31SOL    HW1   34   1.330   1.155   1.365
   31SOL    HW2   35   1.345   1.233   1.508
   35SOL     OW   36   1.187   1.792   1.616
   35SOL    HW1   37   1.211   1.852   1.540
   35SOL    HW2   38   1.194   1.697   1.586
   56SOL     OW   39   1.227   1.550   1.506
   56SOL    HW1   40   1.233   1.473   1.570
   56SOL    HW2   41   1.175   1.524   1.426
   95SOL     OW   42   1.754   1.223   1.588
   95SOL    HW1   43   1.845   1.184   1.575
   95SOL    HW2   44   1.762   1.319   1.612
   97SOL     OW   45   1.592   1.629   1.625
   97SOL    HW1   46   1.619   1.663   1.535
   97SOL    HW2   47   1.671   1.591   1.671
  122SOL     OW   48   1.728   0.935   1.854
  122SOL    HW1   49   1.682   0.928   1.765
  122SOL    HW2   50   1.666   0.979   1.920
  126SOL     OW   51   0.980   1.573   1.700
  126SOL    HW1   52   0.960   1.617   1.612
  126SOL    HW2   53   1.019   1.482   1.684
  127SOL     OW   54   1.859   1.518   1.605
  127SOL    HW1   55   1.873   1.545   1.510
  127SOL    HW2   56   1.942   1.540   1.658
  147SOL     OW   57   0.930   1.678   1.465
  147SOL    HW1   58   0.906   1.660   1.370
  147SOL    HW2   59   0.960   1.772   1.475
  152SOL     OW   60   1.759   1.747   1.154
  152SOL    HW1   61   1.820   1.777   1.081
  152SOL    HW2   62   1.721   1.658   1.132
  153SOL     OW   63   1.252   1.731   1.128
  153SOL    HW1   64   1.336   1.736   1.074
  153SOL    HW2   65   1.229   1.635   1.146
  163SOL     OW   66   1.650   1.720   1.394
  163SOL    HW1   67   1.703   1.730   1.310
  163SOL    HW2   68   1.623   1.810   1.428
  171SOL     OW   69   1.614   1.292   1.289
  171SOL    HW1   70   1.674   1.295   1.369
  171SOL    HW2   71   1.539   1.356   1.302
  184SOL     OW   72   1.493   1.767   0.959
  184SOL    HW1   73   1.526   1.831   0.890
  184SOL    HW2   74   1.559   1.761   1.034
  186SOL     OW   75   1.450   1.220   1.633
  186SOL    HW1   76   1.441   1.210   1.732
  186SOL    HW2   77   1.546   1.213   1.607
  192SOL     OW   78   1.730   0.934   1.517
  192SOL    HW1   79   1.768   1.025   1.532
  192SOL    HW2   80   1.722   0.917   1.418
  197SOL     OW   81   1.861   1.569   0.851
  197SOL    HW1   82   1.790   1.557   0.781
  197SOL    HW2   83   1.862   1.490   0.911
  203SOL     OW   84   1.705   1.487   1.104
  203SOL    HW1   85   1.612   1.462   1.077
  203SOL    HW2   86   1.731   1.437   1.186
  219SOL     OW   87   1.555   1.511   2.565
  219SOL    HW1   88   1.498   1.495   2.646
  219SOL    HW2   89   1.496   1.521   2.485
  227SOL     OW   90   1.460   1.505   3.201
  227SOL    HW1   91   1.484   1.599   3.227
  227SOL    HW2   92   1.444   1.451   3.283
  238SOL     OW   93   1.842   1.767   2.221
  238SOL    HW1   94   1.896   1.738   2.301
  238SOL    HW2   95   1.872   1.857   2.192
  240SOL     OW   96   1.689   0.922   2.474
  240SOL    HW1   97   1.784   0.893   2.482
  240SOL    HW2   98   1.681   0.987   2.399
  241SOL     OW   99   1.641   1.108   2.294
  241SOL    HW1  100   1.727   1.110   2.242
  241SOL    HW2  101   1.655   1.155   2.382
  247SOL     OW  102   1.525   0.999   2.052
  247SOL    HW1  103   1.462   0.923   2.065
  247SOL    HW2  104   1.573   1.017   2.138
  248SOL     OW  105   1.187   1.792   3.478
  248SOL    HW1  106   1.211   1.852   3.402
  248SOL    HW2  107   1.194   1.697   3.448
  250SOL     OW  108   1.466   1.417   2.815
  250SOL    HW1  109   1.407   1.423   2.895
  250SOL    HW2  110   1.451   1.329   2.769
  251SOL     OW  111   1.667   1.714   2.434
  251SOL    HW1  112   1.626   1.691   2.346
  251SOL    HW2  113   1.649   1.640   2.499
  254SOL     OW  114   1.576   1.662   2.169
  254SOL    HW1  115   1.665   1.708   2.172
  254SOL    HW2  116   1.555   1.638   2.074
  264SOL     OW  117   1.362   1.144   2.407
  264SOL    HW1  118   1.445   1.115   2.359
  264SOL    HW2  119   1.313   1.211   2.351
  266SOL     OW  120   1.008   1.456   2.339
  266SOL    HW1  121   0.962   1.528   2.287
  266SOL    HW2  122   1.004   1.476   2.437
  268SOL     OW  123   1.795   1.066   2.735
  268SOL    HW1  124   1.733   1.051   2.659
  268SOL    HW2  125   1.743   1.077   2.820
  269SOL     OW  126   1.227   1.550   3.368
  269SOL    HW1  127   1.233   1.473   3.432
  269SOL    HW2  128   1.175   1.524   3.288
  273SOL     OW  129   1.111   1.776   2.099
  273SOL    HW1  130   1.051   1.714   2.149
  273SOL    HW2  131   1.142   1.732   2.014
  275SOL     OW  132   1.632   1.377   1.943
  275SOL    HW1  133   1.600   1.471   1.933
  275SOL    HW2  134   1.556   1.314   1.931
  279SOL     OW  135   0.940   1.698   2.766
  279SOL    HW1  136   1.020   1.641   2.787
  279SOL    HW2  137   0.891   1.658   2.689
  289SOL     OW  138   1.434   1.188   1.903
  289SOL    HW1  139   1.466   1.112   1.960
  289SOL    HW2  140   1.342   1.215   1.933
  293SOL     OW  141   1.227   1.570   2.655
  293SOL    HW1  142   1.248   1.644   2.590
  293SOL    HW2  143   1.295   1.570   2.728
  295SOL     OW  144   1.271   1.797   2.453
  295SOL    HW1  145   1.315   1.861   2.389
  295SOL    HW2  146   1.221   1.849   2.523
  301SOL     OW  147   1.429   1.173   2.729
  301SOL    HW1  148   1.374   1.089   2.722
  301SOL    HW2  149   1.455   1.202   2.637
  303SOL     OW  150   1.857   0.833   2.239
  303SOL    HW1  151   1.899   0.769   2.303
  303SOL    HW2  152   1.819   0.782   2.161
  305SOL     OW  153   1.664   1.280   2.519
  305SOL    HW1  154   1.763   1.288   2.533
  305SOL    HW2  155   1.619   1.364   2.550
  308SOL     OW  156   1.754   1.223   3.450
  308SOL    HW1  157   1.845   1.184   3.437
  308SOL    HW2  158   1.762   1.319   3.474
  310SOL     OW  159   1.592   1.629   3.487
  310SOL    HW1  160   1.619   1.663   3.397
  310SOL    HW2  161   1.671   1.591   3.533
  311SOL     OW  162   1.111   1.195   2.962
  311SOL    HW1  163   1.071   1.239   3.043
  311SOL    HW2  164   1.070   1.232   2.879
  312SOL     OW  165   1.638   1.099   2.941
  312SOL    HW1  166   1.643   1.180   3.000
  312SOL    HW2  167   1.552   1.101   2.890
  321SOL     OW  168   1.252   1.348   2.250
  321SOL    HW1  169   1.302   1.425   2.290
  321SOL    HW2  170   1.157   1.350   2.282
  322SOL     OW  171   1.272   1.445   3.004
  322SOL    HW1  172   1.319   1.458   3.091
  322SOL    HW2  173   1.206   1.371   3.013
  340SOL     OW  174   1.859   1.518   3.467
  340SOL    HW1  175   1.873   1.545   3.372
  340SOL    HW2  176   1.942   1.540   3.520
  344SOL     OW  177   1.068   1.333   2.711
  344SOL    HW1  178   1.075   1.249   2.656
  344SOL    HW2  179   1.130   1.402   2.675
  363SOL     OW  180   1.347   1.059   3.096
  363SOL    HW1  181   1.371   0.996   3.022
  363SOL    HW2  182   1.257   1.099   3.078
  365SOL     OW  183   1.759   1.747   3.016
  365SOL    HW1  184   1.820   1.777   2.943
  365SOL    HW2  185   1.721   1.658   2.994
  366SOL     OW  186   1.252   1.731   2.990
  366SOL    HW1  187   1.336   1.736   2.936
  366SOL    HW2  188   1.229   1.635   3.008
  370SOL     OW  189   1.388   1.573   2.339
  370SOL    HW1  190   1.455   1.585   2.265
  370SOL    HW2  191   1.348   1.662   2.362
  372SOL     OW  192   1.280   0.927   2.534
  372SOL    HW1  193   1.340   0.846   2.536
  372SOL    HW2  194   1.320   0.996   2.474
  375SOL     OW  195   1.650   1.720   3.256
  375SOL    HW1  196   1.703   1.730   3.172
  375SOL    HW2  197   1.623   1.810   3.290
  378SOL     OW  198   1.194   1.612   1.893
  378SOL    HW1  199   1.200   1.519   1.930
  378SOL    HW2  200   1.135   1.612   1.813
  381SOL     OW  201   1.504   1.607   1.906
  381SOL    HW1  202   1.412   1.644   1.913
  381SOL    HW2  203   1.542   1.627   1.816
  383SOL     OW  204   1.614   1.292   3.151
  383SOL    HW1  205   1.674   1.295   3.231
  383SOL    HW2  206   1.539   1.356   3.164
  394SOL     OW  207   1.183   1.335   1.981
  394SOL    HW1  208   1.084   1.324   1.983
  394SOL    HW2  209   1.217   1.350   2.074
  396SOL     OW  210   1.493   1.767   2.821
  396SOL    HW1  211   1.526   1.831   2.752
  396SOL    HW2  212   1.559   1.761   2.896
  400SOL     OW  213   1.674   0.883   3.116
  400SOL    HW1  214   1.647   0.794   3.079
  400SOL    HW2  215   1.675   0.951   3.043
  409SOL     OW  216   1.861   1.569   2.713
  409SOL    HW1  217   1.790   1.557   2.643
  409SOL    HW2  218   1.862   1.490   2.773
  415SOL     OW  219   1.705   1.487   2.966
  415SOL    HW1  220   1.612   1.462   2.939
  415SOL    HW2  221   1.731   1.437   3.048
  417SOL     OW  222   0.812   1.586   2.549
  417SOL    HW1  223   0.844   1.596   2.455
  417SOL    HW2  224   0.733   1.524   2.551
  426SOL     OW  225   0.875   1.646   2.199
  426SOL    HW1  226   0.798   1.611   2.145
  426SOL    HW2  227   0.843   1.717   2.261
  541SOL     OW  228   0.850   2.660   1.823
  541SOL    HW1  229   0.846   2.736   1.888
  541SOL    HW2  230   0.872   2.696   1.732
  545SOL     OW  231   1.460   3.367   1.339
  545SOL    HW1  232   1.484   3.461   1.365
  545SOL    HW2  233   1.444   3.313   1.421
  547SOL     OW  234   1.603   2.309   0.737
  547SOL    HW1  235   1.529   2.355   0.687
  547SOL    HW2  236   1.654   2.377   0.790
  549SOL     OW  237   1.127   3.203   1.690
  549SOL    HW1  238   1.174   3.203   1.778
  549SOL    HW2  239   1.079   3.116   1.679
  554SOL     OW  240   1.594   1.976   1.480
  554SOL    HW1  241   1.576   2.043   1.408
  554SOL    HW2  242   1.591   2.022   1.569
  562SOL     OW  243   1.293   3.090   1.423
  562SOL    HW1  244   1.330   3.017   1.365
  562SOL    HW2  245   1.345   3.095   1.508
  571SOL     OW  246   1.281   2.207   0.944
  571SOL    HW1  247   1.195   2.157   0.931
  571SOL    HW2  248   1.343   2.153   1.000
  573SOL     OW  249   0.807   2.467   1.465
  573SOL    HW1  250   0.760   2.464   1.554
  573SOL    HW2  251   0.756   2.412   1.399
  574SOL     OW  252   1.394   2.331   1.674
  574SOL    HW1  253   1.374   2.374   1.762
  574SOL    HW2  254   1.472   2.269   1.683
  575SOL     OW  255   0.973   2.752   1.572
  575SOL    HW1  256   1.019   2.668   1.543
  575SOL    HW2  257   0.917   2.786   1.497
  576SOL     OW  258   0.991   2.272   1.242
  576SOL    HW1  259   0.914   2.306   1.296
  576SOL    HW2  260   0.957   2.221   1.163
  581SOL     OW  261   1.719   2.447   1.831
  581SOL    HW1  262   1.693   2.536   1.795
  581SOL    HW2  263   1.717   2.379   1.758
  586SOL     OW  264   1.795   2.928   0.873
  586SOL    HW1  265   1.733   2.913   0.797
  586SOL    HW2  266   1.743   2.939   0.958
  587SOL     OW  267   1.227   3.412   1.506
  587SOL    HW1  268   1.233   3.335   1.570
  587SOL    HW2  269   1.175   3.386   1.426
  599SOL     OW  270   1.547   2.084   1.729
  599SOL    HW1  271   1.542   2.121   1.821
  599SOL    HW2  272   1.475   2.015   1.717
  600SOL     OW  273   0.781   2.126   1.749
  600SOL    HW1  274   0.848   2.065   1.792
  600SOL    HW2  275   0.708   2.145   1.814
  602SOL     OW  276   1.351   2.452   1.433
  602SOL    HW1  277   1.379   2.409   1.518
  602SOL    HW2  278   1.376   2.548   1.434
  609SOL     OW  279   1.076   2.545   1.464
  609SOL    HW1  280   0.996   2.484   1.467
  609SOL    HW2  281   1.157   2.492   1.440
  619SOL     OW  282   1.466   2.452   0.992
  619SOL    HW1  283   1.436   2.357   0.999
  619SOL    HW2  284   1.539   2.468   1.058
  625SOL     OW  285   1.754   3.085   1.588
  625SOL    HW1  286   1.845   3.046   1.575
  625SOL    HW2  287   1.762   3.181   1.612
  627SOL     OW  288   1.592   3.491   1.625
  627SOL    HW1  289   1.619   3.525   1.535
  627SOL    HW2  290   1.671   3.453   1.671
  629SOL     OW  291   1.638   2.961   1.079
  629SOL    HW1  292   1.643   3.042   1.138
  629SOL    HW2  293   1.552   2.963   1.028
  630SOL     OW  294   0.915   1.951   1.402
  630SOL    HW1  295   0.940   1.931   1.307
  630SOL    HW2  296   0.987   2.007   1.444
  631SOL     OW  297   0.980   2.978   1.719
  631SOL    HW1  298   0.881   2.984   1.729
  631SOL    HW2  299   1.003   2.898   1.663
  634SOL     OW  300   1.274   2.248   1.262
  634SOL    HW1  301   1.295   2.322   1.326
  634SOL    HW2  302   1.185   2.265   1.219
  643SOL     OW  303   1.587   2.641   1.670
  643SOL    HW1  304   1.495   2.679   1.665
  643SOL    HW2  305   1.647   2.688   1.605
  644SOL     OW  306   1.013   1.967   1.770
  644SOL    HW1  307   1.019   2.052   1.718
  644SOL    HW2  308   1.045   1.891   1.713
  647SOL     OW  309   1.360   2.724   1.045
  647SOL    HW1  310   1.285   2.724   0.979
  647SOL    HW2  311   1.397   2.632   1.054
  652SOL     OW  312   1.728   2.797   1.854
  652SOL    HW1  313   1.682   2.790   1.765
  652SOL    HW2  314   1.666   2.841   1.920
  657SOL     OW  315   1.859   3.380   1.605
  657SOL    HW1  316   1.873   3.407   1.510
  657SOL    HW2  317   1.942   3.402   1.658
  664SOL     OW  318   1.138   2.242   1.678
  664SOL    HW1  319   1.093   2.305   1.742
  664SOL    HW2  320   1.231   2.273   1.661
  665SOL     OW  321   1.160   2.069   1.477
  665SOL    HW1  322   1.160   2.133   1.554
  665SOL    HW2  323   1.188   2.117   1.394
  669SOL     OW  324   1.002   2.658   1.238
  669SOL    HW1  325   1.043   2.626   1.324
  669SOL    HW2  326   0.906   2.631   1.235
  672SOL     OW  327   1.369   2.812   1.660
  672SOL    HW1  328   1.408   2.901   1.680
  672SOL    HW2  329   1.379   2.792   1.563
  674SOL     OW  330   1.657   2.466   1.206
  674SOL    HW1  331   1.619   2.397   1.268
  674SOL    HW2  332   1.739   2.430   1.162
  680SOL     OW  333   1.347   2.921   1.234
  680SOL    HW1  334   1.371   2.858   1.160
  680SOL    HW2  335   1.257   2.961   1.216
  693SOL     OW  336   1.650   3.582   1.394
  693SOL    HW1  337   1.703   3.592   1.310
  693SOL    HW2  338   1.623   3.672   1.428
  694SOL     OW  339   1.841   2.037   0.963
  694SOL    HW1  340   1.880   1.952   0.927
  694SOL    HW2  341   1.743   2.039   0.944
  701SOL     OW  342   1.614   3.154   1.289
  701SOL    HW1  343   1.674   3.157   1.369
  701SOL    HW2  344   1.539   3.218   1.302
  705SOL     OW  345   1.709   2.247   1.381
  705SOL    HW1  346   1.782   2.316   1.385
  705SOL    HW2  347   1.737   2.172   1.322
  710SOL     OW  348   1.440   2.718   1.398
  710SOL    HW1  349   1.383   2.770   1.335
  710SOL    HW2  350   1.536   2.730   1.374
  715SOL     OW  351   0.716   2.427   1.708
  715SOL    HW1  352   0.735   2.492   1.782
  715SOL    HW2  353   0.776   2.347   1.717
  716SOL     OW  354   1.450   3.082   1.633
  716SOL    HW1  355   1.441   3.072   1.732
  716SOL    HW2  356   1.546   3.075   1.607
  718SOL     OW  357   1.674   2.745   1.254
  718SOL    HW1  358   1.647   2.656   1.217
  718SOL    HW2  359   1.675   2.813   1.181
  721SOL     OW  360   1.777   2.204   1.642
  721SOL    HW1  361   1.760   2.235   1.548
  721SOL    HW2  362   1.693   2.167   1.680
  722SOL     OW  363   1.730   2.796   1.517
  722SOL    HW1  364   1.768   2.887   1.532
  722SOL    HW2  365   1.722   2.779   1.418
  731SOL     OW  366   1.824   2.054   1.227
  731SOL    HW1  367   1.820   1.964   1.271
  731SOL    HW2  368   1.827   2.043   1.128
  733SOL     OW  369   1.705   3.349   1.104
  733SOL    HW1  370   1.612   3.324   1.077
  733SOL    HW2  371   1.731   3.299   1.186
  736SOL     OW  372   1.424   2.076   1.112
  736SOL    HW1  373   1.476   2.011   1.167
  736SOL    HW2  374   1.375   2.139   1.173
  742SOL     OW  375   1.593   2.083   0.882
  742SOL    HW1  376   1.509   2.082   0.936
  742SOL    HW2  377   1.595   2.166   0.826
  749SOL     OW  378   1.555   3.373   2.565
  749SOL    HW1  379   1.498   3.357   2.646
  749SOL    HW2  380   1.496   3.383   2.485
  750SOL     OW  381   1.135   2.565   2.579
  750SOL    HW1  382   1.192   2.643   2.554
  750SOL    HW2  383   1.075   2.591   2.655
  751SOL     OW  384   1.755   2.469   2.093
  751SOL    HW1  385   1.743   2.456   1.994
  751SOL    HW2  386   1.725   2.388   2.142
  752SOL     OW  387   0.768   3.006   2.885
  752SOL    HW1  388   0.690   3.023   2.945
  752SOL    HW2  389   0.802   3.093   2.849
  754SOL     OW  390   0.685   2.874   2.527
  754SOL    HW1  391   0.754   2.858   2.597
  754SOL    HW2  392   0.612   2.931   2.565
  757SOL     OW  393   1.460   3.367   3.201
  757SOL    HW1  394   1.484   3.461   3.227
  757SOL    HW2  395   1.444   3.313   3.283
  759SOL     OW  396   1.603   2.309   2.599
  759SOL    HW1  397   1.529   2.355   2.549
  759SOL    HW2  398   1.654   2.377   2.652
  766SOL     OW  399   1.594   1.976   3.342
  766SOL    HW1  400   1.576   2.043   3.270
  766SOL    HW2  401   1.591   2.022   3.431
  768SOL     OW  402   1.842   3.629   2.221
  768SOL    HW1  403   1.896   3.600   2.301
  768SOL    HW2  404   1.872   3.719   2.192
  770SOL     OW  405   1.689   2.784   2.474
  770SOL    HW1  406   1.784   2.755   2.482
  770SOL    HW2  407   1.681   2.849   2.399
  771SOL     OW  408   1.641   2.970   2.294
  771SOL    HW1  409   1.727   2.972   2.242
  771SOL    HW2  410   1.655   3.017   2.382
  774SOL     OW  411   1.293   3.090   3.285
  774SOL    HW1  412   1.330   3.017   3.227
  774SOL    HW2  413   1.345   3.095   3.370
  775SOL     OW  414   0.809   1.866   2.364
  775SOL    HW1  415   0.849   1.957   2.355
  775SOL    HW2  416   0.709   1.874   2.370
  777SOL     OW  417   1.525   2.861   2.052
  777SOL    HW1  418   1.462   2.785   2.065
  777SOL    HW2  419   1.573   2.879   2.138
  780SOL     OW  420   1.466   3.279   2.815
  780SOL    HW1  421   1.407   3.285   2.895
  780SOL    HW2  422   1.451   3.191   2.769
  781SOL     OW  423   1.667   3.576   2.434
  781SOL    HW1  424   1.626   3.553   2.346
  781SOL    HW2  425   1.649   3.502   2.499
  782SOL     OW  426   0.598   2.591   2.132
  782SOL    HW1  427   0.622   2.660   2.064
  782SOL    HW2  428   0.520   2.624   2.186
  783SOL     OW  429   1.281   2.207   2.806
  783SOL    HW1  430   1.195   2.157   2.793
  783SOL    HW2  431   1.343   2.153   2.862
  784SOL     OW  432   1.576   3.524   2.169
  784SOL    HW1  433   1.665   3.570   2.172
  784SOL    HW2  434   1.555   3.500   2.074
  786SOL     OW  435   1.394   2.331   3.536
  786SOL    HW1  436   1.374   2.374   3.624
  786SOL    HW2  437   1.472   2.269   3.545
  787SOL     OW  438   0.973   2.752   3.434
  787SOL    HW1  439   1.019   2.668   3.405
  787SOL    HW2  440   0.917   2.786   3.359
  788SOL     OW  441   0.991   2.272   3.104
  788SOL    HW1  442   0.914   2.306   3.158
  788SOL    HW2  443   0.957   2.221   3.025
  789SOL     OW  444   1.041   2.563   2.291
  789SOL    HW1  445   1.067   2.559   2.387
  789SOL    HW2  446   0.956   2.512   2.277
  792SOL     OW  447   0.865   2.210   2.057
  792SOL    HW1  448   0.924   2.273   2.008
  792SOL    HW2  449   0.884   2.116   2.028
  793SOL     OW  450   1.719   2.447   3.693
  793SOL    HW1  451   1.693   2.536   3.657
  793SOL    HW2  452   1.717   2.379   3.620
  794SOL     OW  453   1.362   3.006   2.407
  794SOL    HW1  454   1.445   2.977   2.359
  794SOL    HW2  455   1.313   3.073   2.351
  796SOL     OW  456   1.008   3.318   2.339
  796SOL    HW1  457   0.962   3.390   2.287
  796SOL    HW2  458   1.004   3.338   2.437
  798SOL     OW  459   1.795   2.928   2.735
  798SOL    HW1  460   1.733   2.913   2.659
  798SOL    HW2  461   1.743   2.939   2.820
  801SOL     OW  462   1.458   2.597   2.590
  801SOL    HW1  463   1.453   2.532   2.665
  801SOL    HW2  464   1.538   2.656   2.603
  805SOL     OW  465   1.632   3.239   1.943
  805SOL    HW1  466   1.600   3.333   1.933
  805SOL    HW2  467   1.556   3.176   1.931
  807SOL     OW  468   1.400   1.969   2.288
  807SOL    HW1  469   1.376   1.932   2.198
  807SOL    HW2  470   1.499   1.985   2.292
  811SOL     OW  471   1.547   2.084   3.591
  811SOL    HW1  472   1.542   2.121   3.683
  811SOL    HW2  473   1.475   2.015   3.579
  815SOL     OW  474   1.351   2.452   3.295
  815SOL    HW1  475   1.379   2.409   3.380
  815SOL    HW2  476   1.376   2.548   3.296
  817SOL     OW  477   0.922   2.365   2.761
  817SOL    HW1  478   0.897   2.356   2.665
  817SOL    HW2  479   0.970   2.283   2.792
  819SOL     OW  480   1.434   3.050   1.903
  819SOL    HW1  481   1.466   2.974   1.960
  819SOL    HW2  482   1.342   3.077   1.933
  821SOL     OW  483   0.935   2.098   2.342
  821SOL    HW1  484   0.887   2.139   2.264
  821SOL    HW2  485   1.034   2.096   2.323
  822SOL     OW  486   1.076   2.545   3.326
  822SOL    HW1  487   0.996   2.484   3.329
  822SOL    HW2  488   1.157   2.492   3.302
  823SOL     OW  489   1.227   3.432   2.655
  823SOL    HW1  490   1.248   3.506   2.590
  823SOL    HW2  491   1.295   3.432   2.728
  825SOL     OW  492   1.271   3.659   2.453
  825SOL    HW1  493   1.315   3.723   2.389
  825SOL    HW2  494   1.221   3.711   2.523
  826SOL     OW  495   1.032   2.411   1.878
  826SOL    HW1  496   0.991   2.493   1.839
  826SOL    HW2  497   1.096   2.437   1.951
  829SOL     OW  498   0.866   2.316   2.504
  829SOL    HW1  499   0.834   2.388   2.442
  829SOL    HW2  500   0.890   2.235   2.451
  830SOL     OW  501   1.017   1.901   2.615
  830SOL    HW1  502   0.945   1.906   2.546
  830SOL    HW2  503   0.993   1.832   2.684
  831SOL     OW  504   1.429   3.035   2.729
  831SOL    HW1  505   1.374   2.951   2.722
  831SOL    HW2  506   1.455   3.064   2.637
  832SOL     OW  507   1.466   2.452   2.854
  832SOL    HW1  508   1.436   2.357   2.861
  832SOL    HW2  509   1.539   2.468   2.920
  833SOL     OW  510   1.857   2.695   2.239
  833SOL    HW1  511   1.899   2.631   2.303
  833SOL    HW2  512   1.819   2.644   2.161
  835SOL     OW  513   1.664   3.142   2.519
  835SOL    HW1  514   1.763   3.150   2.533
  835SOL    HW2  515   1.619   3.226   2.550
  836SOL     OW  516   1.390   2.437   1.940
  836SOL    HW1  517   1.336   2.416   2.021
  836SOL    HW2  518   1.481   2.396   1.949
  838SOL     OW  519   1.754   3.085   3.450
  838SOL    HW1  520   1.845   3.046   3.437
  838SOL    HW2  521   1.762   3.181   3.474
  839SOL     OW  522   1.064   3.209   3.202
  839SOL    HW1  523   0.984   3.186   3.257
  839SOL    HW2  524   1.147   3.183   3.251
  840SOL     OW  525   1.592   3.491   3.487
  840SOL    HW1  526   1.619   3.525   3.397
  840SOL    HW2  527   1.671   3.453   3.533
  841SOL     OW  528   1.111   3.057   2.962
  841SOL    HW1  529   1.071   3.101   3.043
  841SOL    HW2  530   1.070   3.094   2.879
  842SOL     OW  531   1.638   2.961   2.941
  842SOL    HW1  532   1.643   3.042   3.000
  842SOL    HW2  533   1.552   2.963   2.890
  843SOL     OW  534   0.915   1.951   3.264
  843SOL    HW1  535   0.940   1.931   3.169
  843SOL    HW2  536   0.987   2.007   3.306
  845SOL     OW  537   0.705   2.912   2.230
  845SOL    HW1  538   0.691   2.919   2.329
  845SOL    HW2  539   0.789   2.861   2.212
  847SOL     OW  540   1.274   2.248   3.124
  847SOL    HW1  541   1.295   2.322   3.188
  847SOL    HW2  542   1.185   2.265   3.081
  851SOL     OW  543   1.252   3.210   2.250
  851SOL    HW1  544   1.302   3.287   2.290
  851SOL    HW2  545   1.157   3.212   2.282
  852SOL     OW  546   1.272   3.307   3.004
  852SOL    HW1  547   1.319   3.320   3.091
  852SOL    HW2  548   1.206   3.233   3.013
  853SOL     OW  549   1.582   2.501   2.334
  853SOL    HW1  550   1.551   2.562   2.407
  853SOL    HW2  551   1.632   2.553   2.265
  856SOL     OW  552   1.587   2.641   3.532
  856SOL    HW1  553   1.495   2.679   3.527
  856SOL    HW2  554   1.647   2.688   3.467
  860SOL     OW  555   1.360   2.724   2.907
  860SOL    HW1  556   1.285   2.724   2.841
  860SOL    HW2  557   1.397   2.632   2.916
  861SOL     OW  558   1.209   2.387   2.137
  861SOL    HW1  559   1.222   2.303   2.191
  861SOL    HW2  560   1.180   2.461   2.197
  864SOL     OW  561   0.732   2.496   2.926
  864SOL    HW1  562   0.791   2.470   2.850
  864SOL    HW2  563   0.704   2.592   2.915
  865SOL     OW  564   1.728   2.797   3.716
  865SOL    HW1  565   1.682   2.790   3.627
  865SOL    HW2  566   1.666   2.841   3.782
  867SOL     OW  567   1.622   2.229   2.236
  867SOL    HW1  568   1.624   2.153   2.300
  867SOL    HW2  569   1.574   2.306   2.276
  868SOL     OW  570   1.023   2.628   2.828
  868SOL    HW1  571   1.038   2.649   2.924
  868SOL    HW2  572   0.993   2.533   2.819
  870SOL     OW  573   1.859   3.380   3.467
  870SOL    HW1  574   1.873   3.407   3.372
  870SOL    HW2  575   1.942   3.402   3.520
  872SOL     OW  576   1.540   2.136   1.987
  872SOL    HW1  577   1.479   2.061   2.010
  872SOL    HW2  578   1.562   2.188   2.070
  873SOL     OW  579   1.303   2.700   1.904
  873SOL    HW1  580   1.337   2.607   1.919
  873SOL    HW2  581   1.321   2.727   1.809
  874SOL     OW  582   1.068   3.195   2.711
  874SOL    HW1  583   1.075   3.111   2.656
  874SOL    HW2  584   1.130   3.264   2.675
  877SOL     OW  585   1.138   2.242   3.540
  877SOL    HW1  586   1.093   2.305   3.604
  877SOL    HW2  587   1.231   2.273   3.523
  878SOL     OW  588   1.160   2.069   3.339
  878SOL    HW1  589   1.160   2.133   3.416
  878SOL    HW2  590   1.188   2.117   3.256
  882SOL     OW  591   1.002   2.658   3.100
  882SOL    HW1  592   1.043   2.626   3.186
  882SOL    HW2  593   0.906   2.631   3.097
  885SOL     OW  594   1.369   2.812   3.522
  885SOL    HW1  595   1.408   2.901   3.542
  885SOL    HW2  596   1.379   2.792   3.425
  886SOL     OW  597   0.815   2.434   2.187
  886SOL    HW1  598   0.822   2.345   2.141
  886SOL    HW2  599   0.721   2.468   2.179
  887SOL     OW  600   1.657   2.466   3.068
  887SOL    HW1  601   1.619   2.397   3.130
  887SOL    HW2  602   1.739   2.430   3.024
  893SOL     OW  603   1.347   2.921   3.096
  893SOL    HW1  604   1.371   2.858   3.022
  893SOL    HW2  605   1.257   2.961   3.078
  894SOL     OW  606   1.302   2.717   2.171
  894SOL    HW1  607   1.216   2.686   2.213
  894SOL    HW2  608   1.298   2.703   2.072
  895SOL     OW  609   1.759   3.609   3.016
  895SOL    HW1  610   1.820   3.639   2.943
  895SOL    HW2  611   1.721   3.520   2.994
  896SOL     OW  612   1.252   3.593   2.990
  896SOL    HW1  613   1.336   3.598   2.936
  896SOL    HW2  614   1.229   3.497   3.008
  899SOL     OW  615   1.726   1.997   2.385
  899SOL    HW1  616   1.799   1.980   2.318
  899SOL    HW2  617   1.695   1.910   2.423
  900SOL     OW  618   1.388   3.435   2.339
  900SOL    HW1  619   1.455   3.447   2.265
  900SOL    HW2  620   1.348   3.524   2.362
  902SOL     OW  621   1.280   2.789   2.534
  902SOL    HW1  622   1.340   2.708   2.536
  902SOL    HW2  623   1.320   2.858   2.474
  905SOL     OW  624   1.650   3.582   3.256
  905SOL    HW1  625   1.703   3.592   3.172
  905SOL    HW2  626   1.623   3.672   3.290
  906SOL     OW  627   1.841   2.037   2.825
  906SOL    HW1  628   1.880   1.952   2.789
  906SOL    HW2  629   1.743   2.039   2.806
  908SOL     OW  630   1.194   3.474   1.893
  908SOL    HW1  631   1.200   3.381   1.930
  908SOL    HW2  632   1.135   3.474   1.813
  910SOL     OW  633   0.916   2.772   2.153
  910SOL    HW1  634   0.979   2.810   2.085
  910SOL    HW2  635   0.956   2.689   2.192
  911SOL     OW  636   1.504   3.469   1.906
  911SOL    HW1  637   1.412   3.506   1.913
  911SOL    HW2  638   1.542   3.489   1.816
  913SOL     OW  639   1.614   3.154   3.151
  913SOL    HW1  640   1.674   3.157   3.231
  913SOL    HW2  641   1.539   3.218   3.164
  914SOL     OW  642   1.039   2.960   2.558
  914SOL    HW1  643   0.969   2.913   2.612
  914SOL    HW2  644   1.098   2.892   2.515
  915SOL     OW  645   1.014   2.098   2.833
  915SOL    HW1  646   1.006   2.062   2.740
  915SOL    HW2  647   1.012   2.022   2.898
  917SOL     OW  648   1.709   2.247   3.243
  917SOL    HW1  649   1.782   2.316   3.247
  917SOL    HW2  650   1.737   2.172   3.184
  922SOL     OW  651   1.440   2.718   3.260
  922SOL    HW1  652   1.383   2.770   3.197
  922SOL    HW2  653   1.536   2.730   3.236
  924SOL     OW  654   1.183   3.197   1.981
  924SOL    HW1  655   1.084   3.186   1.983
  924SOL    HW2  656   1.217   3.212   2.074
  926SOL     OW  657   1.493   3.629   2.821
  926SOL    HW1  658   1.526   3.693   2.752
  926SOL    HW2  659   1.559   3.623   2.896
  928SOL     OW  660   1.450   3.082   3.495
  928SOL    HW1  661   1.441   3.072   3.594
  928SOL    HW2  662   1.546   3.075   3.469
  930SOL     OW  663   1.674   2.745   3.116
  930SOL    HW1  664   1.647   2.656   3.079
  930SOL    HW2  665   1.675   2.813   3.043
  931SOL     OW  666   1.225   2.187   2.311
  931SOL    HW1  667   1.290   2.113   2.300
  931SOL    HW2  668   1.245   2.237   2.395
  932SOL     OW  669   0.594   2.607   2.514
  932SOL    HW1  670   0.644   2.692   2.495
  932SOL    HW2  671   0.506   2.609   2.466
  933SOL     OW  672   1.777   2.204   3.504
  933SOL    HW1  673   1.760   2.235   3.410
  933SOL    HW2  674   1.693   2.167   3.542
  934SOL     OW  675   1.730   2.796   3.379
  934SOL    HW1  676   1.768   2.887   3.394
  934SOL    HW2  677   1.722   2.779   3.280
  935SOL     OW  678   0.859   3.236   1.878
  935SOL    HW1  679   0.813   3.251   1.966
  935SOL    HW2  680   0.903   3.321   1.848
  937SOL     OW  681   0.859   2.818   2.723
  937SOL    HW1  682   0.913   2.749   2.771
  937SOL    HW2  683   0.827   2.887   2.789
  938SOL     OW  684   1.083   2.846   1.949
  938SOL    HW1  685   1.060   2.899   1.867
  938SOL    HW2  686   1.164   2.790   1.930
  939SOL     OW  687   1.861   3.431   2.713
  939SOL    HW1  688   1.790   3.419   2.643
  939SOL    HW2  689   1.862   3.352   2.773
  943SOL     OW  690   1.824   2.054   3.089
  943SOL    HW1  691   1.820   1.964   3.133
  943SOL    HW2  692   1.827   2.043   2.990
  945SOL     OW  693   1.705   3.349   2.966
  945SOL    HW1  694   1.612   3.324   2.939
  945SOL    HW2  695   1.731   3.299   3.048
  948SOL     OW  696   1.424   2.076   2.974
  948SOL    HW1  697   1.476   2.011   3.029
  948SOL    HW2  698   1.375   2.139   3.035
  949SOL     OW  699   1.001   1.896   3.016
  949SOL    HW1  700   0.938   1.824   2.985
  949SOL    HW2  701   1.094   1.860   3.016
  950SOL     OW  702   0.770   3.192   2.163
  950SOL    HW1  703   0.724   3.105   2.180
  950SOL    HW2  704   0.861   3.189   2.204
  952SOL     OW  705   1.352   1.914   2.030
  952SOL    HW1  706   1.387   1.873   1.946
  952SOL    HW2  707   1.262   1.876   2.050
  953SOL     OW  708   1.300   2.315   2.553
  953SOL    HW1  709   1.241   2.395   2.557
  953SOL    HW2  710   1.315   2.280   2.646
  954SOL     OW  711   1.593   2.083   2.744
  954SOL    HW1  712   1.509   2.082   2.798
  954SOL    HW2  713   1.595   2.166   2.688
  961SOL     OW  714   1.755   2.469   3.955
  961SOL    HW1  715   1.743   2.456   3.856
  961SOL    HW2  716   1.725   2.388   4.004
 1010SOL     OW  717   1.390   2.437   3.802
 1010SOL    HW1  718   1.336   2.416   3.883
 1010SOL    HW2  719   1.481   2.396   3.811
 1021SOL     OW  720   1.540   2.136   3.849
 1021SOL    HW1  721   1.479   2.061   3.872
 1021SOL    HW2  722   1.562   2.188   3.932
 1022SOL     OW  723   1.303   2.700   3.766
 1022SOL    HW1  724   1.337   2.607   3.781
 1022SOL    HW2  725   1.321   2.727   3.671
 1197SOL     OW  726   1.400   3.831   2.288
 1197SOL    HW1  727   1.376   3.794   2.198
 1197SOL    HW2  728   1.499   3.847   2.292
 1251SOL     OW  729   1.726   3.859   2.385
 1251SOL    HW1  730   1.799   3.842   2.318
 1251SOL    HW2  731   1.695   3.772   2.423
 1253SOL     OW  732   1.841   3.899   2.825
 1253SOL    HW1  733   1.880   3.814   2.789
 1253SOL    HW2  734   1.743   3.901   2.806
 1275SOL     OW  735   1.352   3.776   2.030
 1275SOL    HW1  736   1.387   3.735   1.946
 1275SOL    HW2  737   1.262   3.738   2.050
 1335SOL     OW  738   2.431   1.275   1.165
 1335SOL    HW1  739   2.338   1.268   1.128
 1335SOL    HW2  740   2.442   1.364   1.209
 1340SOL     OW  741   2.712   0.798   1.823
 1340SOL    HW1  742   2.708   0.874   1.888
 1340SOL    HW2  743   2.734   0.834   1.732
 1342SOL     OW  744   2.548   1.161   1.803
 1342SOL    HW1  745   2.608   1.240   1.817
 1342SOL    HW2  746   2.462   1.192   1.762
 1343SOL     OW  747   2.197   1.435   1.061
 1343SOL    HW1  748   2.119   1.404   1.008
 1343SOL    HW2  749   2.255   1.493   1.004
 1344SOL     OW  750   3.322   1.505   1.339
 1344SOL    HW1  751   3.346   1.599   1.365
 1344SOL    HW2  752   3.306   1.451   1.421
 1348SOL     OW  753   2.989   1.341   1.690
 1348SOL    HW1  754   3.036   1.341   1.778
 1348SOL    HW2  755   2.941   1.254   1.679
 1351SOL     OW  756   2.482   1.786   1.439
 1351SOL    HW1  757   2.390   1.769   1.474
 1351SOL    HW2  758   2.510   1.878   1.465
 1360SOL     OW  759   3.155   1.228   1.423
 1360SOL    HW1  760   3.192   1.155   1.365
 1360SOL    HW2  761   3.207   1.233   1.508
 1362SOL     OW  762   2.059   0.976   1.264
 1362SOL    HW1  763   2.148   0.931   1.250
 1362SOL    HW2  764   1.986   0.911   1.245
 1364SOL     OW  765   3.049   1.792   1.616
 1364SOL    HW1  766   3.073   1.852   1.540
 1364SOL    HW2  767   3.056   1.697   1.586
 1373SOL     OW  768   2.835   0.890   1.572
 1373SOL    HW1  769   2.881   0.806   1.543
 1373SOL    HW2  770   2.779   0.924   1.497
 1377SOL     OW  771   1.992   1.821   1.571
 1377SOL    HW1  772   1.982   1.806   1.670
 1377SOL    HW2  773   1.906   1.857   1.535
 1383SOL     OW  774   2.213   1.801   0.853
 1383SOL    HW1  775   2.263   1.715   0.859
 1383SOL    HW2  776   2.278   1.878   0.850
 1385SOL     OW  777   3.089   1.550   1.506
 1385SOL    HW1  778   3.095   1.473   1.570
 1385SOL    HW2  779   3.037   1.524   1.426
 1388SOL     OW  780   2.323   1.266   1.727
 1388SOL    HW1  781   2.273   1.267   1.641
 1388SOL    HW2  782   2.260   1.248   1.803
 1394SOL     OW  783   2.111   1.785   1.241
 1394SOL    HW1  784   2.168   1.720   1.291
 1394SOL    HW2  785   2.095   1.752   1.148
 1395SOL     OW  786   2.802   1.698   0.904
 1395SOL    HW1  787   2.882   1.641   0.925
 1395SOL    HW2  788   2.753   1.658   0.827
 1400SOL     OW  789   2.750   1.514   1.195
 1400SOL    HW1  790   2.727   1.489   1.101
 1400SOL    HW2  791   2.811   1.445   1.234
 1402SOL     OW  792   2.665   1.402   0.924
 1402SOL    HW1  793   2.755   1.416   0.882
 1402SOL    HW2  794   2.594   1.404   0.853
 1425SOL     OW  795   2.926   1.347   1.340
 1425SOL    HW1  796   2.846   1.324   1.395
 1425SOL    HW2  797   3.009   1.321   1.389
 1426SOL     OW  798   3.454   1.629   1.625
 1426SOL    HW1  799   3.481   1.663   1.535
 1426SOL    HW2  800   3.533   1.591   1.671
 1430SOL     OW  801   2.842   1.116   1.719
 1430SOL    HW1  802   2.743   1.122   1.729
 1430SOL    HW2  803   2.865   1.036   1.663
 1434SOL     OW  804   1.926   1.564   1.331
 1434SOL    HW1  805   1.880   1.646   1.297
 1434SOL    HW2  806   2.024   1.583   1.340
 1438SOL     OW  807   3.134   1.445   1.142
 1438SOL    HW1  808   3.181   1.458   1.229
 1438SOL    HW2  809   3.068   1.371   1.151
 1440SOL     OW  810   2.216   1.510   1.329
 1440SOL    HW1  811   2.195   1.466   1.242
 1440SOL    HW2  812   2.313   1.536   1.332
 1441SOL     OW  813   2.264   0.751   1.598
 1441SOL    HW1  814   2.332   0.806   1.551
 1441SOL    HW2  815   2.304   0.663   1.625
 1449SOL     OW  816   1.899   1.310   1.282
 1449SOL    HW1  817   1.952   1.261   1.350
 1449SOL    HW2  818   1.921   1.408   1.287
 1455SOL     OW  819   2.842   1.573   1.700
 1455SOL    HW1  820   2.822   1.617   1.612
 1455SOL    HW2  821   2.881   1.482   1.684
 1456SOL     OW  822   3.721   1.518   1.605
 1456SOL    HW1  823   3.735   1.545   1.510
 1456SOL    HW2  824   3.804   1.540   1.658
 1457SOL     OW  825   2.212   0.898   1.804
 1457SOL    HW1  826   2.288   0.942   1.852
 1457SOL    HW2  827   2.247   0.851   1.722
 1466SOL     OW  828   1.950   1.801   0.927
 1466SOL    HW1  829   1.908   1.715   0.900
 1466SOL    HW2  830   2.044   1.804   0.893
 1467SOL     OW  831   2.366   1.568   0.910
 1467SOL    HW1  832   2.432   1.642   0.919
 1467SOL    HW2  833   2.410   1.489   0.868
 1471SOL     OW  834   3.231   0.950   1.660
 1471SOL    HW1  835   3.270   1.039   1.680
 1471SOL    HW2  836   3.241   0.930   1.563
 1474SOL     OW  837   2.114   1.564   1.744
 1474SOL    HW1  838   2.084   1.621   1.820
 1474SOL    HW2  839   2.107   1.467   1.770
 1476SOL     OW  840   2.792   1.678   1.465
 1476SOL    HW1  841   2.768   1.660   1.370
 1476SOL    HW2  842   2.822   1.772   1.475
 1478SOL     OW  843   2.021   1.137   1.466
 1478SOL    HW1  844   2.043   1.076   1.542
 1478SOL    HW2  845   2.031   1.088   1.380
 1482SOL     OW  846   3.114   1.731   1.128
 1482SOL    HW1  847   3.198   1.736   1.074
 1482SOL    HW2  848   3.091   1.635   1.146
 1483SOL     OW  849   1.945   1.258   1.022
 1483SOL    HW1  850   1.940   1.257   1.122
 1483SOL    HW2  851   1.862   1.217   0.984
 1484SOL     OW  852   2.550   1.662   1.716
 1484SOL    HW1  853   2.494   1.743   1.725
 1484SOL    HW2  854   2.602   1.666   1.630
 1488SOL     OW  855   1.992   1.794   1.851
 1488SOL    HW1  856   1.951   1.720   1.904
 1488SOL    HW2  857   2.056   1.845   1.909
 1490SOL     OW  858   2.692   1.273   1.422
 1490SOL    HW1  859   2.687   1.306   1.517
 1490SOL    HW2  860   2.606   1.292   1.376
 1492SOL     OW  861   3.512   1.720   1.394
 1492SOL    HW1  862   3.565   1.730   1.310
 1492SOL    HW2  863   3.485   1.810   1.428
 1496SOL     OW  864   2.684   1.002   1.372
 1496SOL    HW1  865   2.724   1.001   1.280
 1496SOL    HW2  866   2.694   1.094   1.412
 1499SOL     OW  867   2.234   1.288   1.490
 1499SOL    HW1  868   2.221   1.381   1.456
 1499SOL    HW2  869   2.150   1.236   1.477
 1506SOL     OW  870   1.967   1.013   1.726
 1506SOL    HW1  871   1.890   0.980   1.780
 1506SOL    HW2  872   2.052   0.983   1.768
 1510SOL     OW  873   2.475   0.842   1.431
 1510SOL    HW1  874   2.531   0.923   1.414
 1510SOL    HW2  875   2.534   0.762   1.434
 1513SOL     OW  876   3.312   1.220   1.633
 1513SOL    HW1  877   3.303   1.210   1.732
 1513SOL    HW2  878   3.408   1.213   1.607
 1514SOL     OW  879   2.252   1.741   1.560
 1514SOL    HW1  880   2.161   1.782   1.558
 1514SOL    HW2  881   2.245   1.647   1.592
 1521SOL     OW  882   2.523   1.790   0.953
 1521SOL    HW1  883   2.477   1.878   0.940
 1521SOL    HW2  884   2.622   1.802   0.946
 1525SOL     OW  885   2.083   1.314   1.844
 1525SOL    HW1  886   2.018   1.241   1.823
 1525SOL    HW2  887   2.087   1.328   1.942
 1527SOL     OW  888   2.534   1.391   1.624
 1527SOL    HW1  889   2.456   1.341   1.662
 1527SOL    HW2  890   2.531   1.486   1.655
 1536SOL     OW  891   2.480   1.567   1.284
 1536SOL    HW1  892   2.475   1.649   1.341
 1536SOL    HW2  893   2.569   1.564   1.239
 1542SOL     OW  894   2.092   0.628   1.975
 1542SOL    HW1  895   1.999   0.626   2.012
 1542SOL    HW2  896   2.093   0.589   1.883
 1545SOL     OW  897   2.431   1.275   3.027
 1545SOL    HW1  898   2.338   1.268   2.990
 1545SOL    HW2  899   2.442   1.364   3.071
 1546SOL     OW  900   3.417   1.511   2.565
 1546SOL    HW1  901   3.360   1.495   2.646
 1546SOL    HW2  902   3.358   1.521   2.485
 1547SOL     OW  903   2.997   0.703   2.579
 1547SOL    HW1  904   3.054   0.781   2.554
 1547SOL    HW2  905   2.937   0.729   2.655
 1549SOL     OW  906   2.630   1.144   2.885
 1549SOL    HW1  907   2.552   1.161   2.945
 1549SOL    HW2  908   2.664   1.231   2.849
 1551SOL     OW  909   2.547   1.012   2.527
 1551SOL    HW1  910   2.616   0.996   2.597
 1551SOL    HW2  911   2.474   1.069   2.565
 1552SOL     OW  912   2.548   1.161   3.665
 1552SOL    HW1  913   2.608   1.240   3.679
 1552SOL    HW2  914   2.462   1.192   3.624
 1553SOL     OW  915   2.197   1.435   2.923
 1553SOL    HW1  916   2.119   1.404   2.870
 1553SOL    HW2  917   2.255   1.493   2.866
 1554SOL     OW  918   3.322   1.505   3.201
 1554SOL    HW1  919   3.346   1.599   3.227
 1554SOL    HW2  920   3.306   1.451   3.283
 1557SOL     OW  921   2.093   1.713   2.345
 1557SOL    HW1  922   2.127   1.790   2.399
 1557SOL    HW2  923   2.137   1.713   2.255
 1558SOL     OW  924   2.989   1.341   3.552
 1558SOL    HW1  925   3.036   1.341   3.640
 1558SOL    HW2  926   2.941   1.254   3.541
 1559SOL     OW  927   2.092   1.434   2.400
 1559SOL    HW1  928   2.066   1.530   2.400
 1559SOL    HW2  929   2.021   1.380   2.445
 1560SOL     OW  930   2.102   1.091   2.748
 1560SOL    HW1  931   2.116   1.007   2.800
 1560SOL    HW2  932   2.047   1.155   2.803
 1561SOL     OW  933   2.482   1.786   3.301
 1561SOL    HW1  934   2.390   1.769   3.336
 1561SOL    HW2  935   2.510   1.878   3.327
 1562SOL     OW  936   2.468   0.964   1.985
 1562SOL    HW1  937   2.475   1.048   1.931
 1562SOL    HW2  938   2.514   0.977   2.073
 1564SOL     OW  939   1.984   0.643   2.425
 1564SOL    HW1  940   1.939   0.555   2.442
 1564SOL    HW2  941   1.983   0.697   2.509
 1565SOL     OW  942   3.704   1.767   2.221
 1565SOL    HW1  943   3.758   1.738   2.301
 1565SOL    HW2  944   3.734   1.857   2.192
 1566SOL     OW  945   1.889   1.596   1.979
 1566SOL    HW1  946   1.870   1.500   2.000
 1566SOL    HW2  947   1.856   1.654   2.054
 1568SOL     OW  948   3.503   1.108   2.294
 1568SOL    HW1  949   3.589   1.110   2.242
 1568SOL    HW2  950   3.517   1.155   2.382
 1570SOL     OW  951   2.475   1.365   2.588
 1570SOL    HW1  952   2.426   1.278   2.597
 1570SOL    HW2  953   2.452   1.408   2.501
 1571SOL     OW  954   3.155   1.228   3.285
 1571SOL    HW1  955   3.192   1.155   3.227
 1571SOL    HW2  956   3.207   1.233   3.370
 1573SOL     OW  957   2.059   0.976   3.126
 1573SOL    HW1  958   2.148   0.931   3.112
 1573SOL    HW2  959   1.986   0.911   3.107
 1574SOL     OW  960   3.387   0.999   2.052
 1574SOL    HW1  961   3.324   0.923   2.065
 1574SOL    HW2  962   3.435   1.017   2.138
 1575SOL     OW  963   3.049   1.792   3.478
 1575SOL    HW1  964   3.073   1.852   3.402
 1575SOL    HW2  965   3.056   1.697   3.448
 1577SOL     OW  966   3.328   1.417   2.815
 1577SOL    HW1  967   3.269   1.423   2.895
 1577SOL    HW2  968   3.313   1.329   2.769
 1578SOL     OW  969   3.529   1.714   2.434
 1578SOL    HW1  970   3.488   1.691   2.346
 1578SOL    HW2  971   3.511   1.640   2.499
 1579SOL     OW  972   2.460   0.729   2.132
 1579SOL    HW1  973   2.484   0.798   2.064
 1579SOL    HW2  974   2.382   0.762   2.186
 1581SOL     OW  975   3.438   1.662   2.169
 1581SOL    HW1  976   3.527   1.708   2.172
 1581SOL    HW2  977   3.417   1.638   2.074
 1586SOL     OW  978   2.903   0.701   2.291
 1586SOL    HW1  979   2.929   0.697   2.387
 1586SOL    HW2  980   2.818   0.650   2.277
 1587SOL     OW  981   1.938   0.811   2.651
 1587SOL    HW1  982   2.037   0.799   2.660
 1587SOL    HW2  983   1.914   0.906   2.672
 1588SOL     OW  984   1.992   1.821   3.433
 1588SOL    HW1  985   1.982   1.806   3.532
 1588SOL    HW2  986   1.906   1.857   3.397
 1591SOL     OW  987   3.224   1.144   2.407
 1591SOL    HW1  988   3.307   1.115   2.359
 1591SOL    HW2  989   3.175   1.211   2.351
 1593SOL     OW  990   2.870   1.456   2.339
 1593SOL    HW1  991   2.824   1.528   2.287
 1593SOL    HW2  992   2.866   1.476   2.437
 1594SOL     OW  993   2.213   1.801   2.715
 1594SOL    HW1  994   2.263   1.715   2.721
 1594SOL    HW2  995   2.278   1.878   2.712
 1596SOL     OW  996   3.089   1.550   3.368
 1596SOL    HW1  997   3.095   1.473   3.432
 1596SOL    HW2  998   3.037   1.524   3.288
 1597SOL     OW  999   2.183   0.943   2.104
 1597SOL    HW1 1000   2.265   0.982   2.062
 1597SOL    HW2 1001   2.156   0.861   2.055
 1599SOL     OW 1002   2.323   1.266   3.589
 1599SOL    HW1 1003   2.273   1.267   3.503
 1599SOL    HW2 1004   2.260   1.248   3.665
 1600SOL     OW 1005   2.973   1.776   2.099
 1600SOL    HW1 1006   2.913   1.714   2.149
 1600SOL    HW2 1007   3.004   1.732   2.014
 1602SOL     OW 1008   3.494   1.377   1.943
 1602SOL    HW1 1009   3.462   1.471   1.933
 1602SOL    HW2 1010   3.418   1.314   1.931
 1603SOL     OW 1011   2.326   1.743   2.185
 1603SOL    HW1 1012   2.359   1.782   2.271
 1603SOL    HW2 1013   2.402   1.736   2.120
 1605SOL     OW 1014   2.111   1.785   3.103
 1605SOL    HW1 1015   2.168   1.720   3.153
 1605SOL    HW2 1016   2.095   1.752   3.010
 1606SOL     OW 1017   2.802   1.698   2.766
 1606SOL    HW1 1018   2.882   1.641   2.787
 1606SOL    HW2 1019   2.753   1.658   2.689
 1607SOL     OW 1020   2.244   0.700   2.342
 1607SOL    HW1 1021   2.289   0.610   2.339
 1607SOL    HW2 1022   2.150   0.689   2.375
 1611SOL     OW 1023   2.750   1.514   3.057
 1611SOL    HW1 1024   2.727   1.489   2.963
 1611SOL    HW2 1025   2.811   1.445   3.096
 1613SOL     OW 1026   2.665   1.402   2.786
 1613SOL    HW1 1027   2.755   1.416   2.744
 1613SOL    HW2 1028   2.594   1.404   2.715
 1616SOL     OW 1029   3.296   1.188   1.903
 1616SOL    HW1 1030   3.328   1.112   1.960
 1616SOL    HW2 1031   3.204   1.215   1.933
 1620SOL     OW 1032   3.089   1.570   2.655
 1620SOL    HW1 1033   3.110   1.644   2.590
 1620SOL    HW2 1034   3.157   1.570   2.728
 1621SOL     OW 1035   2.321   1.152   2.603
 1621SOL    HW1 1036   2.250   1.125   2.668
 1621SOL    HW2 1037   2.295   1.124   2.510
 1622SOL     OW 1038   3.133   1.797   2.453
 1622SOL    HW1 1039   3.177   1.861   2.389
 1622SOL    HW2 1040   3.083   1.849   2.523
 1628SOL     OW 1041   3.291   1.173   2.729
 1628SOL    HW1 1042   3.236   1.089   2.722
 1628SOL    HW2 1043   3.317   1.202   2.637
 1631SOL     OW 1044   2.350   1.385   2.036
 1631SOL    HW1 1045   2.263   1.370   2.083
 1631SOL    HW2 1046   2.333   1.411   1.941
 1632SOL     OW 1047   3.526   1.280   2.519
 1632SOL    HW1 1048   3.625   1.288   2.533
 1632SOL    HW2 1049   3.481   1.364   2.550
 1636SOL     OW 1050   2.926   1.347   3.202
 1636SOL    HW1 1051   2.846   1.324   3.257
 1636SOL    HW2 1052   3.009   1.321   3.251
 1637SOL     OW 1053   3.454   1.629   3.487
 1637SOL    HW1 1054   3.481   1.663   3.397
 1637SOL    HW2 1055   3.533   1.591   3.533
 1638SOL     OW 1056   2.973   1.195   2.962
 1638SOL    HW1 1057   2.933   1.239   3.043
 1638SOL    HW2 1058   2.932   1.232   2.879
 1639SOL     OW 1059   3.500   1.099   2.941
 1639SOL    HW1 1060   3.505   1.180   3.000
 1639SOL    HW2 1061   3.414   1.101   2.890
 1642SOL     OW 1062   2.567   1.050   2.230
 1642SOL    HW1 1063   2.553   1.057   2.329
 1642SOL    HW2 1064   2.651   0.999   2.212
 1643SOL     OW 1065   2.272   0.813   3.113
 1643SOL    HW1 1066   2.358   0.825   3.163
 1643SOL    HW2 1067   2.230   0.726   3.140
 1645SOL     OW 1068   1.926   1.564   3.193
 1645SOL    HW1 1069   1.880   1.646   3.159
 1645SOL    HW2 1070   2.024   1.583   3.202
 1646SOL     OW 1071   2.229   1.100   2.363
 1646SOL    HW1 1072   2.222   1.183   2.307
 1646SOL    HW2 1073   2.233   1.020   2.303
 1648SOL     OW 1074   3.114   1.348   2.250
 1648SOL    HW1 1075   3.164   1.425   2.290
 1648SOL    HW2 1076   3.019   1.350   2.282
 1649SOL     OW 1077   3.134   1.445   3.004
 1649SOL    HW1 1078   3.181   1.458   3.091
 1649SOL    HW2 1079   3.068   1.371   3.013
 1651SOL     OW 1080   2.216   1.510   3.191
 1651SOL    HW1 1081   2.195   1.466   3.104
 1651SOL    HW2 1082   2.313   1.536   3.194
 1656SOL     OW 1083   2.435   0.870   2.891
 1656SOL    HW1 1084   2.479   0.959   2.882
 1656SOL    HW2 1085   2.372   0.870   2.968
 1660SOL     OW 1086   1.899   1.310   3.144
 1660SOL    HW1 1087   1.952   1.261   3.212
 1660SOL    HW2 1088   1.921   1.408   3.149
 1665SOL     OW 1089   2.885   0.766   2.828
 1665SOL    HW1 1090   2.900   0.787   2.924
 1665SOL    HW2 1091   2.855   0.671   2.819
 1666SOL     OW 1092   2.842   1.573   3.562
 1666SOL    HW1 1093   2.822   1.617   3.474
 1666SOL    HW2 1094   2.881   1.482   3.546
 1670SOL     OW 1095   3.165   0.838   1.904
 1670SOL    HW1 1096   3.199   0.745   1.919
 1670SOL    HW2 1097   3.183   0.865   1.809
 1671SOL     OW 1098   2.930   1.333   2.711
 1671SOL    HW1 1099   2.937   1.249   2.656
 1671SOL    HW2 1100   2.992   1.402   2.675
 1672SOL     OW 1101   2.181   0.810   2.811
 1672SOL    HW1 1102   2.274   0.846   2.816
 1672SOL    HW2 1103   2.175   0.725   2.863
 1676SOL     OW 1104   1.870   1.326   2.062
 1676SOL    HW1 1105   1.777   1.347   2.031
 1676SOL    HW2 1106   1.880   1.227   2.075
 1677SOL     OW 1107   1.950   1.801   2.789
 1677SOL    HW1 1108   1.908   1.715   2.762
 1677SOL    HW2 1109   2.044   1.804   2.755
 1678SOL     OW 1110   2.366   1.568   2.772
 1678SOL    HW1 1111   2.432   1.642   2.781
 1678SOL    HW2 1112   2.410   1.489   2.730
 1679SOL     OW 1113   2.864   0.796   3.100
 1679SOL    HW1 1114   2.905   0.764   3.186
 1679SOL    HW2 1115   2.768   0.769   3.097
 1685SOL     OW 1116   2.114   1.564   3.606
 1685SOL    HW1 1117   2.084   1.621   3.682
 1685SOL    HW2 1118   2.107   1.467   3.632
 1687SOL     OW 1119   2.792   1.678   3.327
 1687SOL    HW1 1120   2.768   1.660   3.232
 1687SOL    HW2 1121   2.822   1.772   3.337
 1689SOL     OW 1122   2.021   1.137   3.328
 1689SOL    HW1 1123   2.043   1.076   3.404
 1689SOL    HW2 1124   2.031   1.088   3.242
 1690SOL     OW 1125   3.209   1.059   3.096
 1690SOL    HW1 1126   3.233   0.996   3.022
 1690SOL    HW2 1127   3.119   1.099   3.078
 1691SOL     OW 1128   3.164   0.855   2.171
 1691SOL    HW1 1129   3.078   0.824   2.213
 1691SOL    HW2 1130   3.160   0.841   2.072
 1692SOL     OW 1131   3.621   1.747   3.016
 1692SOL    HW1 1132   3.682   1.777   2.943
 1692SOL    HW2 1133   3.583   1.658   2.994
 1693SOL     OW 1134   3.114   1.731   2.990
 1693SOL    HW1 1135   3.198   1.736   2.936
 1693SOL    HW2 1136   3.091   1.635   3.008
 1694SOL     OW 1137   1.945   1.258   2.884
 1694SOL    HW1 1138   1.940   1.257   2.984
 1694SOL    HW2 1139   1.862   1.217   2.846
 1695SOL     OW 1140   2.550   1.662   3.578
 1695SOL    HW1 1141   2.494   1.743   3.587
 1695SOL    HW2 1142   2.602   1.666   3.492
 1697SOL     OW 1143   3.250   1.573   2.339
 1697SOL    HW1 1144   3.317   1.585   2.265
 1697SOL    HW2 1145   3.210   1.662   2.362
 1698SOL     OW 1146   1.992   1.794   3.713
 1698SOL    HW1 1147   1.951   1.720   3.766
 1698SOL    HW2 1148   2.056   1.845   3.771
 1699SOL     OW 1149   3.142   0.927   2.534
 1699SOL    HW1 1150   3.202   0.846   2.536
 1699SOL    HW2 1151   3.182   0.996   2.474
 1700SOL     OW 1152   2.692   1.273   3.284
 1700SOL    HW1 1153   2.687   1.306   3.379
 1700SOL    HW2 1154   2.606   1.292   3.238
 1701SOL     OW 1155   2.534   1.616   2.016
 1701SOL    HW1 1156   2.543   1.626   1.917
 1701SOL    HW2 1157   2.494   1.527   2.037
 1702SOL     OW 1158   3.512   1.720   3.256
 1702SOL    HW1 1159   3.565   1.730   3.172
 1702SOL    HW2 1160   3.485   1.810   3.290
 1705SOL     OW 1161   3.056   1.612   1.893
 1705SOL    HW1 1162   3.062   1.519   1.930
 1705SOL    HW2 1163   2.997   1.612   1.813
 1706SOL     OW 1164   2.684   1.002   3.234
 1706SOL    HW1 1165   2.724   1.001   3.142
 1706SOL    HW2 1166   2.694   1.094   3.274
 1707SOL     OW 1167   2.778   0.910   2.153
 1707SOL    HW1 1168   2.841   0.948   2.085
 1707SOL    HW2 1169   2.818   0.827   2.192
 1708SOL     OW 1170   3.366   1.607   1.906
 1708SOL    HW1 1171   3.274   1.644   1.913
 1708SOL    HW2 1172   3.404   1.627   1.816
 1709SOL     OW 1173   2.234   1.288   3.352
 1709SOL    HW1 1174   2.221   1.381   3.318
 1709SOL    HW2 1175   2.150   1.236   3.339
 1710SOL     OW 1176   3.476   1.292   3.151
 1710SOL    HW1 1177   3.536   1.295   3.231
 1710SOL    HW2 1178   3.401   1.356   3.164
 1711SOL     OW 1179   2.901   1.098   2.558
 1711SOL    HW1 1180   2.831   1.051   2.612
 1711SOL    HW2 1181   2.960   1.030   2.515
 1713SOL     OW 1182   2.452   1.487   2.353
 1713SOL    HW1 1183   2.494   1.429   2.283
 1713SOL    HW2 1184   2.408   1.566   2.309
 1715SOL     OW 1185   2.117   1.348   2.152
 1715SOL    HW1 1186   2.021   1.349   2.125
 1715SOL    HW2 1187   2.129   1.401   2.236
 1721SOL     OW 1188   3.045   1.335   1.981
 1721SOL    HW1 1189   2.946   1.324   1.983
 1721SOL    HW2 1190   3.079   1.350   2.074
 1722SOL     OW 1191   2.475   0.842   3.293
 1722SOL    HW1 1192   2.531   0.923   3.276
 1722SOL    HW2 1193   2.534   0.762   3.296
 1723SOL     OW 1194   3.355   1.767   2.821
 1723SOL    HW1 1195   3.388   1.831   2.752
 1723SOL    HW2 1196   3.421   1.761   2.896
 1726SOL     OW 1197   2.252   1.741   3.422
 1726SOL    HW1 1198   2.161   1.782   3.420
 1726SOL    HW2 1199   2.245   1.647   3.454
 1729SOL     OW 1200   2.456   0.745   2.514
 1729SOL    HW1 1201   2.506   0.830   2.495
 1729SOL    HW2 1202   2.368   0.747   2.466
 1732SOL     OW 1203   2.721   1.374   1.878
 1732SOL    HW1 1204   2.675   1.389   1.966
 1732SOL    HW2 1205   2.765   1.459   1.848
 1733SOL     OW 1206   2.523   1.790   2.815
 1733SOL    HW1 1207   2.477   1.878   2.802
 1733SOL    HW2 1208   2.622   1.802   2.808
 1734SOL     OW 1209   2.721   0.956   2.723
 1734SOL    HW1 1210   2.775   0.887   2.771
 1734SOL    HW2 1211   2.689   1.025   2.789
 1735SOL     OW 1212   2.945   0.984   1.949
 1735SOL    HW1 1213   2.922   1.037   1.867
 1735SOL    HW2 1214   3.026   0.928   1.930
 1736SOL     OW 1215   3.723   1.569   2.713
 1736SOL    HW1 1216   3.652   1.557   2.643
 1736SOL    HW2 1217   3.724   1.490   2.773
 1737SOL     OW 1218   2.083   1.314   3.706
 1737SOL    HW1 1219   2.018   1.241   3.685
 1737SOL    HW2 1220   2.087   1.328   3.804
 1738SOL     OW 1221   1.941   1.240   2.515
 1738SOL    HW1 1222   1.940   1.193   2.603
 1738SOL    HW2 1223   2.023   1.212   2.464
 1739SOL     OW 1224   2.534   1.391   3.486
 1739SOL    HW1 1225   2.456   1.341   3.524
 1739SOL    HW2 1226   2.531   1.486   3.517
 1742SOL     OW 1227   3.567   1.487   2.966
 1742SOL    HW1 1228   3.474   1.462   2.939
 1742SOL    HW2 1229   3.593   1.437   3.048
 1744SOL     OW 1230   2.674   1.586   2.549
 1744SOL    HW1 1231   2.706   1.596   2.455
 1744SOL    HW2 1232   2.595   1.524   2.551
 1747SOL     OW 1233   2.632   1.330   2.163
 1747SOL    HW1 1234   2.586   1.243   2.180
 1747SOL    HW2 1235   2.723   1.327   2.204
 1748SOL     OW 1236   2.480   1.567   3.146
 1748SOL    HW1 1237   2.475   1.649   3.203
 1748SOL    HW2 1238   2.569   1.564   3.101
 1752SOL     OW 1239   1.901   1.077   2.162
 1752SOL    HW1 1240   2.000   1.066   2.153
 1752SOL    HW2 1241   1.861   0.991   2.194
 1753SOL     OW 1242   2.737   1.646   2.199
 1753SOL    HW1 1243   2.660   1.611   2.145
 1753SOL    HW2 1244   2.705   1.717   2.261
 1768SOL     OW 1245   1.889   1.596   3.841
 1768SOL    HW1 1246   1.870   1.500   3.862
 1768SOL    HW2 1247   1.856   1.654   3.916
 1831SOL     OW 1248   2.534   1.616   3.878
 1831SOL    HW1 1249   2.543   1.626   3.779
 1831SOL    HW2 1250   2.494   1.527   3.899
 1834SOL     OW 1251   3.056   1.612   3.755
 1834SOL    HW1 1252   3.062   1.519   3.792
 1834SOL    HW2 1253   2.997   1.612   3.675
 1846SOL     OW 1254   2.721   1.374   3.740
 1846SOL    HW1 1255   2.675   1.389   3.828
 1846SOL    HW2 1256   2.765   1.459   3.710
 1862SOL     OW 1257   2.087   2.137   0.996
 1862SOL    HW1 1258   2.122   2.120   1.088
 1862SOL    HW2 1259   1.999   2.092   0.984
 1863SOL     OW 1260   1.881   2.230   0.647
 1863SOL    HW1 1261   1.799   2.273   0.686
 1863SOL    HW2 1262   1.853   2.157   0.584
 1864SOL     OW 1263   2.431   3.137   1.165
 1864SOL    HW1 1264   2.338   3.130   1.128
 1864SOL    HW2 1265   2.442   3.226   1.209
 1866SOL     OW 1266   2.997   2.565   0.717
 1866SOL    HW1 1267   3.054   2.643   0.692
 1866SOL    HW2 1268   2.937   2.591   0.793
 1868SOL     OW 1269   2.630   3.006   1.023
 1868SOL    HW1 1270   2.552   3.023   1.083
 1868SOL    HW2 1271   2.664   3.093   0.987
 1869SOL     OW 1272   2.712   2.660   1.823
 1869SOL    HW1 1273   2.708   2.736   1.888
 1869SOL    HW2 1274   2.734   2.696   1.732
 1870SOL     OW 1275   2.547   2.874   0.665
 1870SOL    HW1 1276   2.616   2.858   0.735
 1870SOL    HW2 1277   2.474   2.931   0.703
 1871SOL     OW 1278   2.548   3.023   1.803
 1871SOL    HW1 1279   2.608   3.102   1.817
 1871SOL    HW2 1280   2.462   3.054   1.762
 1872SOL     OW 1281   2.197   3.297   1.061
 1872SOL    HW1 1282   2.119   3.266   1.008
 1872SOL    HW2 1283   2.255   3.355   1.004
 1873SOL     OW 1284   3.322   3.367   1.339
 1873SOL    HW1 1285   3.346   3.461   1.365
 1873SOL    HW2 1286   3.306   3.313   1.421
 1874SOL     OW 1287   2.300   2.254   1.499
 1874SOL    HW1 1288   2.382   2.198   1.508
 1874SOL    HW2 1289   2.219   2.196   1.503
 1877SOL     OW 1290   2.989   3.203   1.690
 1877SOL    HW1 1291   3.036   3.203   1.778
 1877SOL    HW2 1292   2.941   3.116   1.679
 1879SOL     OW 1293   2.102   2.953   0.886
 1879SOL    HW1 1294   2.116   2.869   0.938
 1879SOL    HW2 1295   2.047   3.017   0.941
 1880SOL     OW 1296   2.482   3.648   1.439
 1880SOL    HW1 1297   2.390   3.631   1.474
 1880SOL    HW2 1298   2.510   3.740   1.465
 1882SOL     OW 1299   3.456   1.976   1.480
 1882SOL    HW1 1300   3.438   2.043   1.408
 1882SOL    HW2 1301   3.453   2.022   1.569
 1887SOL     OW 1302   1.975   2.599   1.597
 1887SOL    HW1 1303   2.063   2.586   1.642
 1887SOL    HW2 1304   1.962   2.696   1.575
 1889SOL     OW 1305   3.155   3.090   1.423
 1889SOL    HW1 1306   3.192   3.017   1.365
 1889SOL    HW2 1307   3.207   3.095   1.508
 1891SOL     OW 1308   2.059   2.838   1.264
 1891SOL    HW1 1309   2.148   2.793   1.250
 1891SOL    HW2 1310   1.986   2.773   1.245
 1893SOL     OW 1311   3.049   3.654   1.616
 1893SOL    HW1 1312   3.073   3.714   1.540
 1893SOL    HW2 1313   3.056   3.559   1.586
 1894SOL     OW 1314   2.179   2.113   1.801
 1894SOL    HW1 1315   2.250   2.184   1.807
 1894SOL    HW2 1316   2.091   2.152   1.829
 1898SOL     OW 1317   3.143   2.207   0.944
 1898SOL    HW1 1318   3.057   2.157   0.931
 1898SOL    HW2 1319   3.205   2.153   1.000
 1900SOL     OW 1320   2.669   2.467   1.465
 1900SOL    HW1 1321   2.622   2.464   1.554
 1900SOL    HW2 1322   2.618   2.412   1.399
 1901SOL     OW 1323   3.256   2.331   1.674
 1901SOL    HW1 1324   3.236   2.374   1.762
 1901SOL    HW2 1325   3.334   2.269   1.683
 1902SOL     OW 1326   2.835   2.752   1.572
 1902SOL    HW1 1327   2.881   2.668   1.543
 1902SOL    HW2 1328   2.779   2.786   1.497
 1903SOL     OW 1329   2.853   2.272   1.242
 1903SOL    HW1 1330   2.776   2.306   1.296
 1903SOL    HW2 1331   2.819   2.221   1.163
 1905SOL     OW 1332   1.938   2.673   0.789
 1905SOL    HW1 1333   2.037   2.661   0.798
 1905SOL    HW2 1334   1.914   2.768   0.810
 1906SOL     OW 1335   1.992   3.683   1.571
 1906SOL    HW1 1336   1.982   3.668   1.670
 1906SOL    HW2 1337   1.906   3.719   1.535
 1908SOL     OW 1338   3.581   2.447   1.831
 1908SOL    HW1 1339   3.555   2.536   1.795
 1908SOL    HW2 1340   3.579   2.379   1.758
 1910SOL     OW 1341   2.412   2.058   0.885
 1910SOL    HW1 1342   2.407   2.053   0.985
 1910SOL    HW2 1343   2.414   2.154   0.856
 1914SOL     OW 1344   3.089   3.412   1.506
 1914SOL    HW1 1345   3.095   3.335   1.570
 1914SOL    HW2 1346   3.037   3.386   1.426
 1917SOL     OW 1347   2.323   3.128   1.727
 1917SOL    HW1 1348   2.273   3.129   1.641
 1917SOL    HW2 1349   2.260   3.110   1.803
 1919SOL     OW 1350   2.064   2.147   1.498
 1919SOL    HW1 1351   1.984   2.207   1.485
 1919SOL    HW2 1352   2.054   2.098   1.584
 1923SOL     OW 1353   2.111   3.647   1.241
 1923SOL    HW1 1354   2.168   3.582   1.291
 1923SOL    HW2 1355   2.095   3.614   1.148
 1926SOL     OW 1356   3.409   2.084   1.729
 1926SOL    HW1 1357   3.404   2.121   1.821
 1926SOL    HW2 1358   3.337   2.015   1.717
 1927SOL     OW 1359   2.643   2.126   1.749
 1927SOL    HW1 1360   2.710   2.065   1.792
 1927SOL    HW2 1361   2.570   2.145   1.814
 1928SOL     OW 1362   2.750   3.376   1.195
 1928SOL    HW1 1363   2.727   3.351   1.101
 1928SOL    HW2 1364   2.811   3.307   1.234
 1929SOL     OW 1365   3.213   2.452   1.433
 1929SOL    HW1 1366   3.241   2.409   1.518
 1929SOL    HW2 1367   3.238   2.548   1.434
 1930SOL     OW 1368   2.665   3.264   0.924
 1930SOL    HW1 1369   2.755   3.278   0.882
 1930SOL    HW2 1370   2.594   3.266   0.853
 1931SOL     OW 1371   2.784   2.365   0.899
 1931SOL    HW1 1372   2.759   2.356   0.803
 1931SOL    HW2 1373   2.832   2.283   0.930
 1936SOL     OW 1374   2.938   2.545   1.464
 1936SOL    HW1 1375   2.858   2.484   1.467
 1936SOL    HW2 1376   3.019   2.492   1.440
 1938SOL     OW 1377   2.321   3.014   0.741
 1938SOL    HW1 1378   2.250   2.987   0.806
 1938SOL    HW2 1379   2.295   2.986   0.648
 1941SOL     OW 1380   1.940   2.418   1.386
 1941SOL    HW1 1381   2.032   2.417   1.345
 1941SOL    HW2 1382   1.934   2.492   1.453
 1942SOL     OW 1383   2.423   2.084   1.147
 1942SOL    HW1 1384   2.461   2.000   1.184
 1942SOL    HW2 1385   2.335   2.103   1.191
 1943SOL     OW 1386   2.728   2.316   0.642
 1943SOL    HW1 1387   2.696   2.388   0.580
 1943SOL    HW2 1388   2.752   2.235   0.589
 1944SOL     OW 1389   2.879   1.901   0.753
 1944SOL    HW1 1390   2.807   1.906   0.684
 1944SOL    HW2 1391   2.855   1.832   0.822
 1946SOL     OW 1392   3.328   2.452   0.992
 1946SOL    HW1 1393   3.298   2.357   0.999
 1946SOL    HW2 1394   3.401   2.468   1.058
 1952SOL     OW 1395   3.616   3.085   1.588
 1952SOL    HW1 1396   3.707   3.046   1.575
 1952SOL    HW2 1397   3.624   3.181   1.612
 1953SOL     OW 1398   2.926   3.209   1.340
 1953SOL    HW1 1399   2.846   3.186   1.395
 1953SOL    HW2 1400   3.009   3.183   1.389
 1954SOL     OW 1401   3.454   3.491   1.625
 1954SOL    HW1 1402   3.481   3.525   1.535
 1954SOL    HW2 1403   3.533   3.453   1.671
 1955SOL     OW 1404   2.973   3.057   1.100
 1955SOL    HW1 1405   2.933   3.101   1.181
 1955SOL    HW2 1406   2.932   3.094   1.017
 1957SOL     OW 1407   2.777   1.951   1.402
 1957SOL    HW1 1408   2.802   1.931   1.307
 1957SOL    HW2 1409   2.849   2.007   1.444
 1958SOL     OW 1410   2.842   2.978   1.719
 1958SOL    HW1 1411   2.743   2.984   1.729
 1958SOL    HW2 1412   2.865   2.898   1.663
 1960SOL     OW 1413   2.272   2.675   1.251
 1960SOL    HW1 1414   2.358   2.687   1.301
 1960SOL    HW2 1415   2.230   2.588   1.278
 1961SOL     OW 1416   3.136   2.248   1.262
 1961SOL    HW1 1417   3.157   2.322   1.326
 1961SOL    HW2 1418   3.047   2.265   1.219
 1962SOL     OW 1419   1.926   3.426   1.331
 1962SOL    HW1 1420   1.880   3.508   1.297
 1962SOL    HW2 1421   2.024   3.445   1.340
 1964SOL     OW 1422   2.428   2.399   0.865
 1964SOL    HW1 1423   2.440   2.465   0.791
 1964SOL    HW2 1424   2.474   2.433   0.948
 1966SOL     OW 1425   3.134   3.307   1.142
 1966SOL    HW1 1426   3.181   3.320   1.229
 1966SOL    HW2 1427   3.068   3.233   1.151
 1968SOL     OW 1428   2.216   3.372   1.329
 1968SOL    HW1 1429   2.195   3.328   1.242
 1968SOL    HW2 1430   2.313   3.398   1.332
 1969SOL     OW 1431   2.264   2.613   1.598
 1969SOL    HW1 1432   2.332   2.668   1.551
 1969SOL    HW2 1433   2.304   2.525   1.625
 1970SOL     OW 1434   3.449   2.641   1.670
 1970SOL    HW1 1435   3.357   2.679   1.665
 1970SOL    HW2 1436   3.509   2.688   1.605
 1971SOL     OW 1437   2.875   1.967   1.770
 1971SOL    HW1 1438   2.881   2.052   1.718
 1971SOL    HW2 1439   2.907   1.891   1.713
 1972SOL     OW 1440   2.366   1.912   1.740
 1972SOL    HW1 1441   2.324   1.855   1.670
 1972SOL    HW2 1442   2.300   1.981   1.772
 1973SOL     OW 1443   2.435   2.732   1.029
 1973SOL    HW1 1444   2.479   2.821   1.020
 1973SOL    HW2 1445   2.372   2.732   1.106
 1974SOL     OW 1446   3.222   2.724   1.045
 1974SOL    HW1 1447   3.147   2.724   0.979
 1974SOL    HW2 1448   3.259   2.632   1.054
 1976SOL     OW 1449   2.169   2.075   1.231
 1976SOL    HW1 1450   2.146   2.112   1.321
 1976SOL    HW2 1451   2.139   1.980   1.225
 1977SOL     OW 1452   1.899   3.172   1.282
 1977SOL    HW1 1453   1.952   3.123   1.350
 1977SOL    HW2 1454   1.921   3.270   1.287
 1978SOL     OW 1455   2.594   2.496   1.064
 1978SOL    HW1 1456   2.653   2.470   0.988
 1978SOL    HW2 1457   2.566   2.592   1.053
 1979SOL     OW 1458   3.590   2.797   1.854
 1979SOL    HW1 1459   3.544   2.790   1.765
 1979SOL    HW2 1460   3.528   2.841   1.920
 1980SOL     OW 1461   2.169   1.925   0.618
 1980SOL    HW1 1462   2.158   2.019   0.651
 1980SOL    HW2 1463   2.164   1.862   0.695
 1982SOL     OW 1464   2.885   2.628   0.966
 1982SOL    HW1 1465   2.900   2.649   1.062
 1982SOL    HW2 1466   2.855   2.533   0.957
 1983SOL     OW 1467   2.842   3.435   1.700
 1983SOL    HW1 1468   2.822   3.479   1.612
 1983SOL    HW2 1469   2.881   3.344   1.684
 1985SOL     OW 1470   2.212   2.760   1.804
 1985SOL    HW1 1471   2.288   2.804   1.852
 1985SOL    HW2 1472   2.247   2.713   1.722
 1989SOL     OW 1473   2.181   2.672   0.949
 1989SOL    HW1 1474   2.274   2.708   0.954
 1989SOL    HW2 1475   2.175   2.587   1.001
 1990SOL     OW 1476   2.201   2.371   1.006
 1990SOL    HW1 1477   2.149   2.288   0.989
 1990SOL    HW2 1478   2.278   2.376   0.942
 1991SOL     OW 1479   3.000   2.242   1.678
 1991SOL    HW1 1480   2.955   2.305   1.742
 1991SOL    HW2 1481   3.093   2.273   1.661
 1992SOL     OW 1482   3.022   2.069   1.477
 1992SOL    HW1 1483   3.022   2.133   1.554
 1992SOL    HW2 1484   3.050   2.117   1.394
 1995SOL     OW 1485   2.366   3.430   0.910
 1995SOL    HW1 1486   2.432   3.504   0.919
 1995SOL    HW2 1487   2.410   3.351   0.868
 1996SOL     OW 1488   2.864   2.658   1.238
 1996SOL    HW1 1489   2.905   2.626   1.324
 1996SOL    HW2 1490   2.768   2.631   1.235
 1997SOL     OW 1491   1.902   2.406   1.114
 1997SOL    HW1 1492   1.987   2.373   1.073
 1997SOL    HW2 1493   1.915   2.421   1.212
 1998SOL     OW 1494   2.051   2.382   1.722
 1998SOL    HW1 1495   2.110   2.342   1.652
 1998SOL    HW2 1496   1.993   2.453   1.681
 1999SOL     OW 1497   3.231   2.812   1.660
 1999SOL    HW1 1498   3.270   2.901   1.680
 1999SOL    HW2 1499   3.241   2.792   1.563
 2001SOL     OW 1500   3.519   2.466   1.206
 2001SOL    HW1 1501   3.481   2.397   1.268
 2001SOL    HW2 1502   3.601   2.430   1.162
 2002SOL     OW 1503   2.114   3.426   1.744
 2002SOL    HW1 1504   2.084   3.483   1.820
 2002SOL    HW2 1505   2.107   3.329   1.770
 2003SOL     OW 1506   2.533   2.326   1.269
 2003SOL    HW1 1507   2.499   2.237   1.239
 2003SOL    HW2 1508   2.559   2.380   1.189
 2004SOL     OW 1509   2.792   3.540   1.465
 2004SOL    HW1 1510   2.768   3.522   1.370
 2004SOL    HW2 1511   2.822   3.634   1.475
 2006SOL     OW 1512   2.021   2.999   1.466
 2006SOL    HW1 1513   2.043   2.938   1.542
 2006SOL    HW2 1514   2.031   2.950   1.380
 2007SOL     OW 1515   3.209   2.921   1.234
 2007SOL    HW1 1516   3.233   2.858   1.160
 2007SOL    HW2 1517   3.119   2.961   1.216
 2011SOL     OW 1518   1.945   3.120   1.022
 2011SOL    HW1 1519   1.940   3.119   1.122
 2011SOL    HW2 1520   1.862   3.079   0.984
 2012SOL     OW 1521   2.550   3.524   1.716
 2012SOL    HW1 1522   2.494   3.605   1.725
 2012SOL    HW2 1523   2.602   3.528   1.630
 2016SOL     OW 1524   1.992   3.656   1.851
 2016SOL    HW1 1525   1.951   3.582   1.904
 2016SOL    HW2 1526   2.056   3.707   1.909
 2018SOL     OW 1527   2.692   3.135   1.422
 2018SOL    HW1 1528   2.687   3.168   1.517
 2018SOL    HW2 1529   2.606   3.154   1.376
 2022SOL     OW 1530   2.125   2.188   0.720
 2022SOL    HW1 1531   2.046   2.239   0.686
 2022SOL    HW2 1532   2.116   2.173   0.818
 2024SOL     OW 1533   2.684   2.864   1.372
 2024SOL    HW1 1534   2.724   2.863   1.280
 2024SOL    HW2 1535   2.694   2.956   1.412
 2027SOL     OW 1536   2.234   3.150   1.490
 2027SOL    HW1 1537   2.221   3.243   1.456
 2027SOL    HW2 1538   2.150   3.098   1.477
 2028SOL     OW 1539   3.476   3.154   1.289
 2028SOL    HW1 1540   3.536   3.157   1.369
 2028SOL    HW2 1541   3.401   3.218   1.302
 2030SOL     OW 1542   2.876   2.098   0.971
 2030SOL    HW1 1543   2.868   2.062   0.878
 2030SOL    HW2 1544   2.874   2.022   1.036
 2032SOL     OW 1545   3.571   2.247   1.381
 2032SOL    HW1 1546   3.644   2.316   1.385
 2032SOL    HW2 1547   3.599   2.172   1.322
 2034SOL     OW 1548   1.967   2.875   1.726
 2034SOL    HW1 1549   1.890   2.842   1.780
 2034SOL    HW2 1550   2.052   2.845   1.768
 2035SOL     OW 1551   2.534   2.065   1.489
 2035SOL    HW1 1552   2.624   2.049   1.449
 2035SOL    HW2 1553   2.542   2.070   1.588
 2036SOL     OW 1554   3.302   2.718   1.398
 2036SOL    HW1 1555   3.245   2.770   1.335
 2036SOL    HW2 1556   3.398   2.730   1.374
 2039SOL     OW 1557   2.475   2.704   1.431
 2039SOL    HW1 1558   2.531   2.785   1.414
 2039SOL    HW2 1559   2.534   2.624   1.434
 2041SOL     OW 1560   2.578   2.427   1.708
 2041SOL    HW1 1561   2.597   2.492   1.782
 2041SOL    HW2 1562   2.638   2.347   1.717
 2042SOL     OW 1563   3.312   3.082   1.633
 2042SOL    HW1 1564   3.303   3.072   1.732
 2042SOL    HW2 1565   3.408   3.075   1.607
 2043SOL     OW 1566   2.252   3.603   1.560
 2043SOL    HW1 1567   2.161   3.644   1.558
 2043SOL    HW2 1568   2.245   3.509   1.592
 2044SOL     OW 1569   3.536   2.745   1.254
 2044SOL    HW1 1570   3.509   2.656   1.217
 2044SOL    HW2 1571   3.537   2.813   1.181
 2046SOL     OW 1572   2.456   2.607   0.652
 2046SOL    HW1 1573   2.506   2.692   0.633
 2046SOL    HW2 1574   2.368   2.609   0.604
 2047SOL     OW 1575   3.639   2.204   1.642
 2047SOL    HW1 1576   3.622   2.235   1.548
 2047SOL    HW2 1577   3.555   2.167   1.680
 2048SOL     OW 1578   3.592   2.796   1.517
 2048SOL    HW1 1579   3.630   2.887   1.532
 2048SOL    HW2 1580   3.584   2.779   1.418
 2051SOL     OW 1581   2.721   2.818   0.861
 2051SOL    HW1 1582   2.775   2.749   0.909
 2051SOL    HW2 1583   2.689   2.887   0.927
 2054SOL     OW 1584   2.083   3.176   1.844
 2054SOL    HW1 1585   2.018   3.103   1.823
 2054SOL    HW2 1586   2.087   3.190   1.942
 2056SOL     OW 1587   2.534   3.253   1.624
 2056SOL    HW1 1588   2.456   3.203   1.662
 2056SOL    HW2 1589   2.531   3.348   1.655
 2057SOL     OW 1590   3.686   2.054   1.227
 2057SOL    HW1 1591   3.682   1.964   1.271
 2057SOL    HW2 1592   3.689   2.043   1.128
 2060SOL     OW 1593   2.179   2.409   1.280
 2060SOL    HW1 1594   2.217   2.350   1.352
 2060SOL    HW2 1595   2.219   2.383   1.192
 2062SOL     OW 1596   3.286   2.076   1.112
 2062SOL    HW1 1597   3.338   2.011   1.167
 2062SOL    HW2 1598   3.237   2.139   1.173
 2063SOL     OW 1599   2.863   1.896   1.154
 2063SOL    HW1 1600   2.800   1.824   1.123
 2063SOL    HW2 1601   2.956   1.860   1.154
 2065SOL     OW 1602   2.480   3.429   1.284
 2065SOL    HW1 1603   2.475   3.511   1.341
 2065SOL    HW2 1604   2.569   3.426   1.239
 2071SOL     OW 1605   2.092   2.490   1.975
 2071SOL    HW1 1606   1.999   2.488   2.012
 2071SOL    HW2 1607   2.093   2.451   1.883
 2072SOL     OW 1608   2.087   2.137   2.858
 2072SOL    HW1 1609   2.122   2.120   2.950
 2072SOL    HW2 1610   1.999   2.092   2.846
 2073SOL     OW 1611   1.881   2.230   2.509
 2073SOL    HW1 1612   1.799   2.273   2.548
 2073SOL    HW2 1613   1.853   2.157   2.446
 2074SOL     OW 1614   2.431   3.137   3.027
 2074SOL    HW1 1615   2.338   3.130   2.990
 2074SOL    HW2 1616   2.442   3.226   3.071
 2075SOL     OW 1617   3.417   3.373   2.565
 2075SOL    HW1 1618   3.360   3.357   2.646
 2075SOL    HW2 1619   3.358   3.383   2.485
 2076SOL     OW 1620   2.997   2.565   2.579
 2076SOL    HW1 1621   3.054   2.643   2.554
 2076SOL    HW2 1622   2.937   2.591   2.655
 2077SOL     OW 1623   3.617   2.469   2.093
 2077SOL    HW1 1624   3.605   2.456   1.994
 2077SOL    HW2 1625   3.587   2.388   2.142
 2078SOL     OW 1626   2.630   3.006   2.885
 2078SOL    HW1 1627   2.552   3.023   2.945
 2078SOL    HW2 1628   2.664   3.093   2.849
 2079SOL     OW 1629   2.712   2.660   3.685
 2079SOL    HW1 1630   2.708   2.736   3.750
 2079SOL    HW2 1631   2.734   2.696   3.594
 2080SOL     OW 1632   2.547   2.874   2.527
 2080SOL    HW1 1633   2.616   2.858   2.597
 2080SOL    HW2 1634   2.474   2.931   2.565
 2081SOL     OW 1635   2.548   3.023   3.665
 2081SOL    HW1 1636   2.608   3.102   3.679
 2081SOL    HW2 1637   2.462   3.054   3.624
 2082SOL     OW 1638   2.197   3.297   2.923
 2082SOL    HW1 1639   2.119   3.266   2.870
 2082SOL    HW2 1640   2.255   3.355   2.866
 2083SOL     OW 1641   3.322   3.367   3.201
 2083SOL    HW1 1642   3.346   3.461   3.227
 2083SOL    HW2 1643   3.306   3.313   3.283
 2084SOL     OW 1644   2.300   2.254   3.361
 2084SOL    HW1 1645   2.382   2.198   3.370
 2084SOL    HW2 1646   2.219   2.196   3.365
 2085SOL     OW 1647   3.465   2.309   2.599
 2085SOL    HW1 1648   3.391   2.355   2.549
 2085SOL    HW2 1649   3.516   2.377   2.652
 2086SOL     OW 1650   2.093   3.575   2.345
 2086SOL    HW1 1651   2.127   3.652   2.399
 2086SOL    HW2 1652   2.137   3.575   2.255
 2087SOL     OW 1653   2.989   3.203   3.552
 2087SOL    HW1 1654   3.036   3.203   3.640
 2087SOL    HW2 1655   2.941   3.116   3.541
 2088SOL     OW 1656   2.092   3.296   2.400
 2088SOL    HW1 1657   2.066   3.392   2.400
 2088SOL    HW2 1658   2.021   3.242   2.445
 2089SOL     OW 1659   2.102   2.953   2.748
 2089SOL    HW1 1660   2.116   2.869   2.800
 2089SOL    HW2 1661   2.047   3.017   2.803
 2090SOL     OW 1662   2.482   3.648   3.301
 2090SOL    HW1 1663   2.390   3.631   3.336
 2090SOL    HW2 1664   2.510   3.740   3.327
 2091SOL     OW 1665   2.468   2.826   1.985
 2091SOL    HW1 1666   2.475   2.910   1.931
 2091SOL    HW2 1667   2.514   2.839   2.073
 2092SOL     OW 1668   3.456   1.976   3.342
 2092SOL    HW1 1669   3.438   2.043   3.270
 2092SOL    HW2 1670   3.453   2.022   3.431
 2093SOL     OW 1671   1.984   2.505   2.425
 2093SOL    HW1 1672   1.939   2.417   2.442
 2093SOL    HW2 1673   1.983   2.559   2.509
 2095SOL     OW 1674   1.889   3.458   1.979
 2095SOL    HW1 1675   1.870   3.362   2.000
 2095SOL    HW2 1676   1.856   3.516   2.054
 2096SOL     OW 1677   3.551   2.784   2.474
 2096SOL    HW1 1678   3.646   2.755   2.482
 2096SOL    HW2 1679   3.543   2.849   2.399
 2097SOL     OW 1680   3.503   2.970   2.294
 2097SOL    HW1 1681   3.589   2.972   2.242
 2097SOL    HW2 1682   3.517   3.017   2.382
 2098SOL     OW 1683   1.975   2.599   3.459
 2098SOL    HW1 1684   2.063   2.586   3.504
 2098SOL    HW2 1685   1.962   2.696   3.437
 2099SOL     OW 1686   2.475   3.227   2.588
 2099SOL    HW1 1687   2.426   3.140   2.597
 2099SOL    HW2 1688   2.452   3.270   2.501
 2100SOL     OW 1689   3.155   3.090   3.285
 2100SOL    HW1 1690   3.192   3.017   3.227
 2100SOL    HW2 1691   3.207   3.095   3.370
 2101SOL     OW 1692   2.671   1.866   2.364
 2101SOL    HW1 1693   2.711   1.957   2.355
 2101SOL    HW2 1694   2.571   1.874   2.370
 2102SOL     OW 1695   2.059   2.838   3.126
 2102SOL    HW1 1696   2.148   2.793   3.112
 2102SOL    HW2 1697   1.986   2.773   3.107
 2103SOL     OW 1698   3.387   2.861   2.052
 2103SOL    HW1 1699   3.324   2.785   2.065
 2103SOL    HW2 1700   3.435   2.879   2.138
 2105SOL     OW 1701   2.179   2.113   3.663
 2105SOL    HW1 1702   2.250   2.184   3.669
 2105SOL    HW2 1703   2.091   2.152   3.691
 2106SOL     OW 1704   3.328   3.279   2.815
 2106SOL    HW1 1705   3.269   3.285   2.895
 2106SOL    HW2 1706   3.313   3.191   2.769
 2107SOL     OW 1707   3.529   3.576   2.434
 2107SOL    HW1 1708   3.488   3.553   2.346
 2107SOL    HW2 1709   3.511   3.502   2.499
 2108SOL     OW 1710   3.143   2.207   2.806
 2108SOL    HW1 1711   3.057   2.157   2.793
 2108SOL    HW2 1712   3.205   2.153   2.862
 2109SOL     OW 1713   3.438   3.524   2.169
 2109SOL    HW1 1714   3.527   3.570   2.172
 2109SOL    HW2 1715   3.417   3.500   2.074
 2110SOL     OW 1716   2.669   2.467   3.327
 2110SOL    HW1 1717   2.622   2.464   3.416
 2110SOL    HW2 1718   2.618   2.412   3.261
 2111SOL     OW 1719   3.256   2.331   3.536
 2111SOL    HW1 1720   3.236   2.374   3.624
 2111SOL    HW2 1721   3.334   2.269   3.545
 2112SOL     OW 1722   2.835   2.752   3.434
 2112SOL    HW1 1723   2.881   2.668   3.405
 2112SOL    HW2 1724   2.779   2.786   3.359
 2113SOL     OW 1725   2.853   2.272   3.104
 2113SOL    HW1 1726   2.776   2.306   3.158
 2113SOL    HW2 1727   2.819   2.221   3.025
 2114SOL     OW 1728   2.903   2.563   2.291
 2114SOL    HW1 1729   2.929   2.559   2.387
 2114SOL    HW2 1730   2.818   2.512   2.277
 2115SOL     OW 1731   1.938   2.673   2.651
 2115SOL    HW1 1732   2.037   2.661   2.660
 2115SOL    HW2 1733   1.914   2.768   2.672
 2116SOL     OW 1734   1.992   3.683   3.433
 2116SOL    HW1 1735   1.982   3.668   3.532
 2116SOL    HW2 1736   1.906   3.719   3.397
 2117SOL     OW 1737   2.727   2.210   2.057
 2117SOL    HW1 1738   2.786   2.273   2.008
 2117SOL    HW2 1739   2.746   2.116   2.028
 2119SOL     OW 1740   3.224   3.006   2.407
 2119SOL    HW1 1741   3.307   2.977   2.359
 2119SOL    HW2 1742   3.175   3.073   2.351
 2120SOL     OW 1743   2.412   2.058   2.747
 2120SOL    HW1 1744   2.407   2.053   2.847
 2120SOL    HW2 1745   2.414   2.154   2.718
 2121SOL     OW 1746   2.870   3.318   2.339
 2121SOL    HW1 1747   2.824   3.390   2.287
 2121SOL    HW2 1748   2.866   3.338   2.437
 2122SOL     OW 1749   2.213   3.663   2.715
 2122SOL    HW1 1750   2.263   3.577   2.721
 2122SOL    HW2 1751   2.278   3.740   2.712
 2123SOL     OW 1752   3.657   2.928   2.735
 2123SOL    HW1 1753   3.595   2.913   2.659
 2123SOL    HW2 1754   3.605   2.939   2.820
 2124SOL     OW 1755   3.089   3.412   3.368
 2124SOL    HW1 1756   3.095   3.335   3.432
 2124SOL    HW2 1757   3.037   3.386   3.288
 2125SOL     OW 1758   2.183   2.805   2.104
 2125SOL    HW1 1759   2.265   2.844   2.062
 2125SOL    HW2 1760   2.156   2.723   2.055
 2126SOL     OW 1761   3.320   2.597   2.590
 2126SOL    HW1 1762   3.315   2.532   2.665
 2126SOL    HW2 1763   3.400   2.656   2.603
 2127SOL     OW 1764   2.323   3.128   3.589
 2127SOL    HW1 1765   2.273   3.129   3.503
 2127SOL    HW2 1766   2.260   3.110   3.665
 2128SOL     OW 1767   2.973   3.638   2.099
 2128SOL    HW1 1768   2.913   3.576   2.149
 2128SOL    HW2 1769   3.004   3.594   2.014
 2129SOL     OW 1770   2.064   2.147   3.360
 2129SOL    HW1 1771   1.984   2.207   3.347
 2129SOL    HW2 1772   2.054   2.098   3.446
 2130SOL     OW 1773   3.494   3.239   1.943
 2130SOL    HW1 1774   3.462   3.333   1.933
 2130SOL    HW2 1775   3.418   3.176   1.931
 2131SOL     OW 1776   2.326   3.605   2.185
 2131SOL    HW1 1777   2.359   3.644   2.271
 2131SOL    HW2 1778   2.402   3.598   2.120
 2132SOL     OW 1779   3.262   1.969   2.288
 2132SOL    HW1 1780   3.238   1.932   2.198
 2132SOL    HW2 1781   3.361   1.985   2.292
 2133SOL     OW 1782   2.111   3.647   3.103
 2133SOL    HW1 1783   2.168   3.582   3.153
 2133SOL    HW2 1784   2.095   3.614   3.010
 2134SOL     OW 1785   2.802   3.560   2.766
 2134SOL    HW1 1786   2.882   3.503   2.787
 2134SOL    HW2 1787   2.753   3.520   2.689
 2135SOL     OW 1788   3.409   2.084   3.591
 2135SOL    HW1 1789   3.404   2.121   3.683
 2135SOL    HW2 1790   3.337   2.015   3.579
 2136SOL     OW 1791   2.476   1.984   1.979
 2136SOL    HW1 1792   2.574   1.962   1.986
 2136SOL    HW2 1793   2.445   1.967   1.886
 2137SOL     OW 1794   2.643   2.126   3.611
 2137SOL    HW1 1795   2.710   2.065   3.654
 2137SOL    HW2 1796   2.570   2.145   3.676
 2138SOL     OW 1797   2.750   3.376   3.057
 2138SOL    HW1 1798   2.727   3.351   2.963
 2138SOL    HW2 1799   2.811   3.307   3.096
 2139SOL     OW 1800   3.213   2.452   3.295
 2139SOL    HW1 1801   3.241   2.409   3.380
 2139SOL    HW2 1802   3.238   2.548   3.296
 2140SOL     OW 1803   2.665   3.264   2.786
 2140SOL    HW1 1804   2.755   3.278   2.744
 2140SOL    HW2 1805   2.594   3.266   2.715
 2141SOL     OW 1806   2.784   2.365   2.761
 2141SOL    HW1 1807   2.759   2.356   2.665
 2141SOL    HW2 1808   2.832   2.283   2.792
 2142SOL     OW 1809   3.296   3.050   1.903
 2142SOL    HW1 1810   3.328   2.974   1.960
 2142SOL    HW2 1811   3.204   3.077   1.933
 2143SOL     OW 1812   2.159   1.897   2.033
 2143SOL    HW1 1813   2.208   1.981   2.012
 2143SOL    HW2 1814   2.221   1.832   2.078
 2144SOL     OW 1815   2.797   2.098   2.342
 2144SOL    HW1 1816   2.749   2.139   2.264
 2144SOL    HW2 1817   2.896   2.096   2.323
 2145SOL     OW 1818   2.938   2.545   3.326
 2145SOL    HW1 1819   2.858   2.484   3.329
 2145SOL    HW2 1820   3.019   2.492   3.302
 2146SOL     OW 1821   3.089   3.432   2.655
 2146SOL    HW1 1822   3.110   3.506   2.590
 2146SOL    HW2 1823   3.157   3.432   2.728
 2147SOL     OW 1824   2.321   3.014   2.603
 2147SOL    HW1 1825   2.250   2.987   2.668
 2147SOL    HW2 1826   2.295   2.986   2.510
 2148SOL     OW 1827   3.133   3.659   2.453
 2148SOL    HW1 1828   3.177   3.723   2.389
 2148SOL    HW2 1829   3.083   3.711   2.523
 2149SOL     OW 1830   2.894   2.411   1.878
 2149SOL    HW1 1831   2.853   2.493   1.839
 2149SOL    HW2 1832   2.958   2.437   1.951
 2150SOL     OW 1833   1.940   2.418   3.248
 2150SOL    HW1 1834   2.032   2.417   3.207
 2150SOL    HW2 1835   1.934   2.492   3.315
 2151SOL     OW 1836   2.423   2.084   3.009
 2151SOL    HW1 1837   2.461   2.000   3.046
 2151SOL    HW2 1838   2.335   2.103   3.053
 2152SOL     OW 1839   2.728   2.316   2.504
 2152SOL    HW1 1840   2.696   2.388   2.442
 2152SOL    HW2 1841   2.752   2.235   2.451
 2153SOL     OW 1842   2.879   1.901   2.615
 2153SOL    HW1 1843   2.807   1.906   2.546
 2153SOL    HW2 1844   2.855   1.832   2.684
 2154SOL     OW 1845   3.291   3.035   2.729
 2154SOL    HW1 1846   3.236   2.951   2.722
 2154SOL    HW2 1847   3.317   3.064   2.637
 2155SOL     OW 1848   3.328   2.452   2.854
 2155SOL    HW1 1849   3.298   2.357   2.861
 2155SOL    HW2 1850   3.401   2.468   2.920
 2156SOL     OW 1851   3.719   2.695   2.239
 2156SOL    HW1 1852   3.761   2.631   2.303
 2156SOL    HW2 1853   3.681   2.644   2.161
 2157SOL     OW 1854   2.350   3.247   2.036
 2157SOL    HW1 1855   2.263   3.232   2.083
 2157SOL    HW2 1856   2.333   3.273   1.941
 2158SOL     OW 1857   3.526   3.142   2.519
 2158SOL    HW1 1858   3.625   3.150   2.533
 2158SOL    HW2 1859   3.481   3.226   2.550
 2159SOL     OW 1860   3.252   2.437   1.940
 2159SOL    HW1 1861   3.198   2.416   2.021
 2159SOL    HW2 1862   3.343   2.396   1.949
 2161SOL     OW 1863   2.926   3.209   3.202
 2161SOL    HW1 1864   2.846   3.186   3.257
 2161SOL    HW2 1865   3.009   3.183   3.251
 2163SOL     OW 1866   2.973   3.057   2.962
 2163SOL    HW1 1867   2.933   3.101   3.043
 2163SOL    HW2 1868   2.932   3.094   2.879
 2164SOL     OW 1869   3.500   2.961   2.941
 2164SOL    HW1 1870   3.505   3.042   3.000
 2164SOL    HW2 1871   3.414   2.963   2.890
 2165SOL     OW 1872   2.777   1.951   3.264
 2165SOL    HW1 1873   2.802   1.931   3.169
 2165SOL    HW2 1874   2.849   2.007   3.306
 2166SOL     OW 1875   2.842   2.978   3.581
 2166SOL    HW1 1876   2.743   2.984   3.591
 2166SOL    HW2 1877   2.865   2.898   3.525
 2167SOL     OW 1878   2.567   2.912   2.230
 2167SOL    HW1 1879   2.553   2.919   2.329
 2167SOL    HW2 1880   2.651   2.861   2.212
 2168SOL     OW 1881   2.272   2.675   3.113
 2168SOL    HW1 1882   2.358   2.687   3.163
 2168SOL    HW2 1883   2.230   2.588   3.140
 2169SOL     OW 1884   3.136   2.248   3.124
 2169SOL    HW1 1885   3.157   2.322   3.188
 2169SOL    HW2 1886   3.047   2.265   3.081
 2170SOL     OW 1887   1.926   3.426   3.193
 2170SOL    HW1 1888   1.880   3.508   3.159
 2170SOL    HW2 1889   2.024   3.445   3.202
 2171SOL     OW 1890   2.229   2.962   2.363
 2171SOL    HW1 1891   2.222   3.045   2.307
 2171SOL    HW2 1892   2.233   2.882   2.303
 2172SOL     OW 1893   2.428   2.399   2.727
 2172SOL    HW1 1894   2.440   2.465   2.653
 2172SOL    HW2 1895   2.474   2.433   2.810
 2173SOL     OW 1896   3.114   3.210   2.250
 2173SOL    HW1 1897   3.164   3.287   2.290
 2173SOL    HW2 1898   3.019   3.212   2.282
 2174SOL     OW 1899   3.134   3.307   3.004
 2174SOL    HW1 1900   3.181   3.320   3.091
 2174SOL    HW2 1901   3.068   3.233   3.013
 2175SOL     OW 1902   3.444   2.501   2.334
 2175SOL    HW1 1903   3.413   2.562   2.407
 2175SOL    HW2 1904   3.494   2.553   2.265
 2176SOL     OW 1905   2.216   3.372   3.191
 2176SOL    HW1 1906   2.195   3.328   3.104
 2176SOL    HW2 1907   2.313   3.398   3.194
 2177SOL     OW 1908   2.264   2.613   3.460
 2177SOL    HW1 1909   2.332   2.668   3.413
 2177SOL    HW2 1910   2.304   2.525   3.487
 2178SOL     OW 1911   3.449   2.641   3.532
 2178SOL    HW1 1912   3.357   2.679   3.527
 2178SOL    HW2 1913   3.509   2.688   3.467
 2179SOL     OW 1914   2.875   1.967   3.632
 2179SOL    HW1 1915   2.881   2.052   3.580
 2179SOL    HW2 1916   2.907   1.891   3.575
 2180SOL     OW 1917   2.366   1.912   3.602
 2180SOL    HW1 1918   2.324   1.855   3.532
 2180SOL    HW2 1919   2.300   1.981   3.634
 2181SOL     OW 1920   2.435   2.732   2.891
 2181SOL    HW1 1921   2.479   2.821   2.882
 2181SOL    HW2 1922   2.372   2.732   2.968
 2182SOL     OW 1923   3.222   2.724   2.907
 2182SOL    HW1 1924   3.147   2.724   2.841
 2182SOL    HW2 1925   3.259   2.632   2.916
 2183SOL     OW 1926   3.071   2.387   2.137
 2183SOL    HW1 1927   3.084   2.303   2.191
 2183SOL    HW2 1928   3.042   2.461   2.197
 2184SOL     OW 1929   2.169   2.075   3.093
 2184SOL    HW1 1930   2.146   2.112   3.183
 2184SOL    HW2 1931   2.139   1.980   3.087
 2185SOL     OW 1932   1.899   3.172   3.144
 2185SOL    HW1 1933   1.952   3.123   3.212
 2185SOL    HW2 1934   1.921   3.270   3.149
 2186SOL     OW 1935   2.594   2.496   2.926
 2186SOL    HW1 1936   2.653   2.470   2.850
 2186SOL    HW2 1937   2.566   2.592   2.915
 2188SOL     OW 1938   3.484   2.229   2.236
 2188SOL    HW1 1939   3.486   2.153   2.300
 2188SOL    HW2 1940   3.436   2.306   2.276
 2189SOL     OW 1941   2.885   2.628   2.828
 2189SOL    HW1 1942   2.900   2.649   2.924
 2189SOL    HW2 1943   2.855   2.533   2.819
 2190SOL     OW 1944   2.842   3.435   3.562
 2190SOL    HW1 1945   2.822   3.479   3.474
 2190SOL    HW2 1946   2.881   3.344   3.546
 2192SOL     OW 1947   2.212   2.760   3.666
 2192SOL    HW1 1948   2.288   2.804   3.714
 2192SOL    HW2 1949   2.247   2.713   3.584
 2193SOL     OW 1950   3.402   2.136   1.987
 2193SOL    HW1 1951   3.341   2.061   2.010
 2193SOL    HW2 1952   3.424   2.188   2.070
 2194SOL     OW 1953   3.165   2.700   1.904
 2194SOL    HW1 1954   3.199   2.607   1.919
 2194SOL    HW2 1955   3.183   2.727   1.809
 2195SOL     OW 1956   2.930   3.195   2.711
 2195SOL    HW1 1957   2.937   3.111   2.656
 2195SOL    HW2 1958   2.992   3.264   2.675
 2196SOL     OW 1959   2.181   2.672   2.811
 2196SOL    HW1 1960   2.274   2.708   2.816
 2196SOL    HW2 1961   2.175   2.587   2.863
 2197SOL     OW 1962   2.201   2.371   2.868
 2197SOL    HW1 1963   2.149   2.288   2.851
 2197SOL    HW2 1964   2.278   2.376   2.804
 2198SOL     OW 1965   3.000   2.242   3.540
 2198SOL    HW1 1966   2.955   2.305   3.604
 2198SOL    HW2 1967   3.093   2.273   3.523
 2199SOL     OW 1968   3.022   2.069   3.339
 2199SOL    HW1 1969   3.022   2.133   3.416
 2199SOL    HW2 1970   3.050   2.117   3.256
 2200SOL     OW 1971   1.870   3.188   2.062
 2200SOL    HW1 1972   1.777   3.209   2.031
 2200SOL    HW2 1973   1.880   3.089   2.075
 2201SOL     OW 1974   1.950   3.663   2.789
 2201SOL    HW1 1975   1.908   3.577   2.762
 2201SOL    HW2 1976   2.044   3.666   2.755
 2202SOL     OW 1977   2.366   3.430   2.772
 2202SOL    HW1 1978   2.432   3.504   2.781
 2202SOL    HW2 1979   2.410   3.351   2.730
 2203SOL     OW 1980   2.864   2.658   3.100
 2203SOL    HW1 1981   2.905   2.626   3.186
 2203SOL    HW2 1982   2.768   2.631   3.097
 2204SOL     OW 1983   1.902   2.406   2.976
 2204SOL    HW1 1984   1.987   2.373   2.935
 2204SOL    HW2 1985   1.915   2.421   3.074
 2205SOL     OW 1986   2.051   2.382   3.584
 2205SOL    HW1 1987   2.110   2.342   3.514
 2205SOL    HW2 1988   1.993   2.453   3.543
 2206SOL     OW 1989   3.231   2.812   3.522
 2206SOL    HW1 1990   3.270   2.901   3.542
 2206SOL    HW2 1991   3.241   2.792   3.425
 2207SOL     OW 1992   3.519   2.466   3.068
 2207SOL    HW1 1993   3.481   2.397   3.130
 2207SOL    HW2 1994   3.601   2.430   3.024
 2208SOL     OW 1995   2.114   3.426   3.606
 2208SOL    HW1 1996   2.084   3.483   3.682
 2208SOL    HW2 1997   2.107   3.329   3.632
 2209SOL     OW 1998   2.533   2.326   3.131
 2209SOL    HW1 1999   2.499   2.237   3.101
 2209SOL    HW2 2000   2.559   2.380   3.051
 2210SOL     OW 2001   2.792   3.540   3.327
 2210SOL    HW1 2002   2.768   3.522   3.232
 2210SOL    HW2 2003   2.822   3.634   3.337
 2211SOL     OW 2004   2.021   2.999   3.328
 2211SOL    HW1 2005   2.043   2.938   3.404
 2211SOL    HW2 2006   2.031   2.950   3.242
 2212SOL     OW 2007   3.209   2.921   3.096
 2212SOL    HW1 2008   3.233   2.858   3.022
 2212SOL    HW2 2009   3.119   2.961   3.078
 2213SOL     OW 2010   3.164   2.717   2.171
 2213SOL    HW1 2011   3.078   2.686   2.213
 2213SOL    HW2 2012   3.160   2.703   2.072
 2215SOL     OW 2013   3.114   3.593   2.990
 2215SOL    HW1 2014   3.198   3.598   2.936
 2215SOL    HW2 2015   3.091   3.497   3.008
 2216SOL     OW 2016   1.945   3.120   2.884
 2216SOL    HW1 2017   1.940   3.119   2.984
 2216SOL    HW2 2018   1.862   3.079   2.846
 2217SOL     OW 2019   2.550   3.524   3.578
 2217SOL    HW1 2020   2.494   3.605   3.587
 2217SOL    HW2 2021   2.602   3.528   3.492
 2218SOL     OW 2022   3.588   1.997   2.385
 2218SOL    HW1 2023   3.661   1.980   2.318
 2218SOL    HW2 2024   3.557   1.910   2.423
 2219SOL     OW 2025   3.250   3.435   2.339
 2219SOL    HW1 2026   3.317   3.447   2.265
 2219SOL    HW2 2027   3.210   3.524   2.362
 2221SOL     OW 2028   3.142   2.789   2.534
 2221SOL    HW1 2029   3.202   2.708   2.536
 2221SOL    HW2 2030   3.182   2.858   2.474
 2222SOL     OW 2031   2.692   3.135   3.284
 2222SOL    HW1 2032   2.687   3.168   3.379
 2222SOL    HW2 2033   2.606   3.154   3.238
 2223SOL     OW 2034   2.534   3.478   2.016
 2223SOL    HW1 2035   2.543   3.488   1.917
 2223SOL    HW2 2036   2.494   3.389   2.037
 2225SOL     OW 2037   3.703   2.037   2.825
 2225SOL    HW1 2038   3.742   1.952   2.789
 2225SOL    HW2 2039   3.605   2.039   2.806
 2226SOL     OW 2040   2.125   2.188   2.582
 2226SOL    HW1 2041   2.046   2.239   2.548
 2226SOL    HW2 2042   2.116   2.173   2.680
 2227SOL     OW 2043   3.056   3.474   1.893
 2227SOL    HW1 2044   3.062   3.381   1.930
 2227SOL    HW2 2045   2.997   3.474   1.813
 2228SOL     OW 2046   2.684   2.864   3.234
 2228SOL    HW1 2047   2.724   2.863   3.142
 2228SOL    HW2 2048   2.694   2.956   3.274
 2229SOL     OW 2049   2.778   2.772   2.153
 2229SOL    HW1 2050   2.841   2.810   2.085
 2229SOL    HW2 2051   2.818   2.689   2.192
 2230SOL     OW 2052   3.366   3.469   1.906
 2230SOL    HW1 2053   3.274   3.506   1.913
 2230SOL    HW2 2054   3.404   3.489   1.816
 2231SOL     OW 2055   2.234   3.150   3.352
 2231SOL    HW1 2056   2.221   3.243   3.318
 2231SOL    HW2 2057   2.150   3.098   3.339
 2232SOL     OW 2058   3.476   3.154   3.151
 2232SOL    HW1 2059   3.536   3.157   3.231
 2232SOL    HW2 2060   3.401   3.218   3.164
 2233SOL     OW 2061   2.901   2.960   2.558
 2233SOL    HW1 2062   2.831   2.913   2.612
 2233SOL    HW2 2063   2.960   2.892   2.515
 2234SOL     OW 2064   2.876   2.098   2.833
 2234SOL    HW1 2065   2.868   2.062   2.740
 2234SOL    HW2 2066   2.874   2.022   2.898
 2235SOL     OW 2067   2.452   3.349   2.353
 2235SOL    HW1 2068   2.494   3.291   2.283
 2235SOL    HW2 2069   2.408   3.428   2.309
 2236SOL     OW 2070   3.571   2.247   3.243
 2236SOL    HW1 2071   3.644   2.316   3.247
 2236SOL    HW2 2072   3.599   2.172   3.184
 2237SOL     OW 2073   2.117   3.210   2.152
 2237SOL    HW1 2074   2.021   3.211   2.125
 2237SOL    HW2 2075   2.129   3.263   2.236
 2238SOL     OW 2076   1.967   2.875   3.588
 2238SOL    HW1 2077   1.890   2.842   3.642
 2238SOL    HW2 2078   2.052   2.845   3.630
 2239SOL     OW 2079   2.534   2.065   3.351
 2239SOL    HW1 2080   2.624   2.049   3.311
 2239SOL    HW2 2081   2.542   2.070   3.450
 2240SOL     OW 2082   1.937   2.207   1.895
 2240SOL    HW1 2083   1.845   2.179   1.866
 2240SOL    HW2 2084   1.968   2.284   1.839
 2241SOL     OW 2085   3.302   2.718   3.260
 2241SOL    HW1 2086   3.245   2.770   3.197
 2241SOL    HW2 2087   3.398   2.730   3.236
 2242SOL     OW 2088   1.934   2.028   2.180
 2242SOL    HW1 2089   1.917   2.111   2.126
 2242SOL    HW2 2090   2.024   1.991   2.158
 2243SOL     OW 2091   3.045   3.197   1.981
 2243SOL    HW1 2092   2.946   3.186   1.983
 2243SOL    HW2 2093   3.079   3.212   2.074
 2244SOL     OW 2094   2.475   2.704   3.293
 2244SOL    HW1 2095   2.531   2.785   3.276
 2244SOL    HW2 2096   2.534   2.624   3.296
 2245SOL     OW 2097   3.355   3.629   2.821
 2245SOL    HW1 2098   3.388   3.693   2.752
 2245SOL    HW2 2099   3.421   3.623   2.896
 2246SOL     OW 2100   2.578   2.427   3.570
 2246SOL    HW1 2101   2.597   2.492   3.644
 2246SOL    HW2 2102   2.638   2.347   3.579
 2247SOL     OW 2103   3.312   3.082   3.495
 2247SOL    HW1 2104   3.303   3.072   3.594
 2247SOL    HW2 2105   3.408   3.075   3.469
 2248SOL     OW 2106   2.252   3.603   3.422
 2248SOL    HW1 2107   2.161   3.644   3.420
 2248SOL    HW2 2108   2.245   3.509   3.454
 2249SOL     OW 2109   3.536   2.745   3.116
 2249SOL    HW1 2110   3.509   2.656   3.079
 2249SOL    HW2 2111   3.537   2.813   3.043
 2250SOL     OW 2112   3.087   2.187   2.311
 2250SOL    HW1 2113   3.152   2.113   2.300
 2250SOL    HW2 2114   3.107   2.237   2.395
 2251SOL     OW 2115   2.456   2.607   2.514
 2251SOL    HW1 2116   2.506   2.692   2.495
 2251SOL    HW2 2117   2.368   2.609   2.466
 2252SOL     OW 2118   3.639   2.204   3.504
 2252SOL    HW1 2119   3.622   2.235   3.410
 2252SOL    HW2 2120   3.555   2.167   3.542
 2253SOL     OW 2121   3.592   2.796   3.379
 2253SOL    HW1 2122   3.630   2.887   3.394
 2253SOL    HW2 2123   3.584   2.779   3.280
 2254SOL     OW 2124   2.721   3.236   1.878
 2254SOL    HW1 2125   2.675   3.251   1.966
 2254SOL    HW2 2126   2.765   3.321   1.848
 2255SOL     OW 2127   2.523   3.652   2.815
 2255SOL    HW1 2128   2.477   3.740   2.802
 2255SOL    HW2 2129   2.622   3.664   2.808
 2256SOL     OW 2130   2.721   2.818   2.723
 2256SOL    HW1 2131   2.775   2.749   2.771
 2256SOL    HW2 2132   2.689   2.887   2.789
 2257SOL     OW 2133   2.945   2.846   1.949
 2257SOL    HW1 2134   2.922   2.899   1.867
 2257SOL    HW2 2135   3.026   2.790   1.930
 2258SOL     OW 2136   3.723   3.431   2.713
 2258SOL    HW1 2137   3.652   3.419   2.643
 2258SOL    HW2 2138   3.724   3.352   2.773
 2259SOL     OW 2139   2.083   3.176   3.706
 2259SOL    HW1 2140   2.018   3.103   3.685
 2259SOL    HW2 2141   2.087   3.190   3.804
 2260SOL     OW 2142   1.941   3.102   2.515
 2260SOL    HW1 2143   1.940   3.055   2.603
 2260SOL    HW2 2144   2.023   3.074   2.464
 2261SOL     OW 2145   2.534   3.253   3.486
 2261SOL    HW1 2146   2.456   3.203   3.524
 2261SOL    HW2 2147   2.531   3.348   3.517
 2262SOL     OW 2148   3.686   2.054   3.089
 2262SOL    HW1 2149   3.682   1.964   3.133
 2262SOL    HW2 2150   3.689   2.043   2.990
 2263SOL     OW 2151   3.567   3.349   2.966
 2263SOL    HW1 2152   3.474   3.324   2.939
 2263SOL    HW2 2153   3.593   3.299   3.048
 2264SOL     OW 2154   2.179   2.409   3.142
 2264SOL    HW1 2155   2.217   2.350   3.214
 2264SOL    HW2 2156   2.219   2.383   3.054
 2265SOL     OW 2157   2.674   3.448   2.549
 2265SOL    HW1 2158   2.706   3.458   2.455
 2265SOL    HW2 2159   2.595   3.386   2.551
 2266SOL     OW 2160   3.286   2.076   2.974
 2266SOL    HW1 2161   3.338   2.011   3.029
 2266SOL    HW2 2162   3.237   2.139   3.035
 2267SOL     OW 2163   2.863   1.896   3.016
 2267SOL    HW1 2164   2.800   1.824   2.985
 2267SOL    HW2 2165   2.956   1.860   3.016
 2268SOL     OW 2166   2.632   3.192   2.163
 2268SOL    HW1 2167   2.586   3.105   2.180
 2268SOL    HW2 2168   2.723   3.189   2.204
 2269SOL     OW 2169   2.480   3.429   3.146
 2269SOL    HW1 2170   2.475   3.511   3.203
 2269SOL    HW2 2171   2.569   3.426   3.101
 2270SOL     OW 2172   3.214   1.914   2.030
 2270SOL    HW1 2173   3.249   1.873   1.946
 2270SOL    HW2 2174   3.124   1.876   2.050
 2271SOL     OW 2175   3.162   2.315   2.553
 2271SOL    HW1 2176   3.103   2.395   2.557
 2271SOL    HW2 2177   3.177   2.280   2.646
 2272SOL     OW 2178   3.455   2.083   2.744
 2272SOL    HW1 2179   3.371   2.082   2.798
 2272SOL    HW2 2180   3.457   2.166   2.688
 2273SOL     OW 2181   1.901   2.939   2.162
 2273SOL    HW1 2182   2.000   2.928   2.153
 2273SOL    HW2 2183   1.861   2.853   2.194
 2274SOL     OW 2184   2.737   3.508   2.199
 2274SOL    HW1 2185   2.660   3.473   2.145
 2274SOL    HW2 2186   2.705   3.579   2.261
 2275SOL     OW 2187   2.092   2.490   3.837
 2275SOL    HW1 2188   1.999   2.488   3.874
 2275SOL    HW2 2189   2.093   2.451   3.745
 2286SOL     OW 2190   2.468   2.826   3.847
 2286SOL    HW1 2191   2.475   2.910   3.793
 2286SOL    HW2 2192   2.514   2.839   3.935
 2297SOL     OW 2193   2.460   2.591   3.994
 2297SOL    HW1 2194   2.484   2.660   3.926
 2297SOL    HW2 2195   2.382   2.624   4.048
 2302SOL     OW 2196   2.727   2.210   3.919
 2302SOL    HW1 2197   2.786   2.273   3.870
 2302SOL    HW2 2198   2.746   2.116   3.890
 2308SOL     OW 2199   2.183   2.805   3.966
 2308SOL    HW1 2200   2.265   2.844   3.924
 2308SOL    HW2 2201   2.156   2.723   3.917
 2315SOL     OW 2202   2.476   1.984   3.841
 2315SOL    HW1 2203   2.574   1.962   3.848
 2315SOL    HW2 2204   2.445   1.967   3.748
 2318SOL     OW 2205   2.159   1.897   3.895
 2318SOL    HW1 2206   2.208   1.981   3.874
 2318SOL    HW2 2207   2.221   1.832   3.940
 2323SOL     OW 2208   2.894   2.411   3.740
 2323SOL    HW1 2209   2.853   2.493   3.701
 2323SOL    HW2 2210   2.958   2.437   3.813
 2327SOL     OW 2211   2.350   3.247   3.898
 2327SOL    HW1 2212   2.263   3.232   3.945
 2327SOL    HW2 2213   2.333   3.273   3.803
 2329SOL     OW 2214   3.252   2.437   3.802
 2329SOL    HW1 2215   3.198   2.416   3.883
 2329SOL    HW2 2216   3.343   2.396   3.811
 2330SOL     OW 2217   2.389   2.118   4.052
 2330SOL    HW1 2218   2.416   2.059   3.977
 2330SOL    HW2 2219   2.389   2.213   4.021
 2341SOL     OW 2220   3.165   2.700   3.766
 2341SOL    HW1 2221   3.199   2.607   3.781
 2341SOL    HW2 2222   3.183   2.727   3.671
 2346SOL     OW 2223   2.677   2.434   4.049
 2346SOL    HW1 2224   2.684   2.345   4.003
 2346SOL    HW2 2225   2.583   2.468   4.041
 2347SOL     OW 2226   2.335   2.362   3.915
 2347SOL    HW1 2227   2.396   2.442   3.919
 2347SOL    HW2 2228   2.240   2.393   3.922
 2357SOL     OW 2229   2.778   2.772   4.015
 2357SOL    HW1 2230   2.841   2.810   3.947
 2357SOL    HW2 2231   2.818   2.689   4.054
 2362SOL     OW 2232   1.937   2.207   3.757
 2362SOL    HW1 2233   1.845   2.179   3.728
 2362SOL    HW2 2234   1.968   2.284   3.701
 2363SOL     OW 2235   1.934   2.028   4.042
 2363SOL    HW1 2236   1.917   2.111   3.988
 2363SOL    HW2 2237   2.024   1.991   4.020
 2368SOL     OW 2238   2.721   3.236   3.740
 2368SOL    HW1 2239   2.675   3.251   3.828
 2368SOL    HW2 2240   2.765   3.321   3.710
 2371SOL     OW 2241   2.945   2.846   3.811
 2371SOL    HW1 2242   2.922   2.899   3.729
 2371SOL    HW2 2243   3.026   2.790   3.792
 2395SOL     OW 2244   2.179   3.975   1.801
 2395SOL    HW1 2245   2.250   4.046   1.807
 2395SOL    HW2 2246   2.091   4.014   1.829
 2412SOL     OW 2247   2.643   3.988   1.749
 2412SOL    HW1 2248   2.710   3.927   1.792
 2412SOL    HW2 2249   2.570   4.007   1.814
 2428SOL     OW 2250   2.777   3.813   1.402
 2428SOL    HW1 2251   2.802   3.793   1.307
 2428SOL    HW2 2252   2.849   3.869   1.444
 2435SOL     OW 2253   2.875   3.829   1.770
 2435SOL    HW1 2254   2.881   3.914   1.718
 2435SOL    HW2 2255   2.907   3.753   1.713
 2436SOL     OW 2256   2.366   3.774   1.740
 2436SOL    HW1 2257   2.324   3.717   1.670
 2436SOL    HW2 2258   2.300   3.843   1.772
 2489SOL     OW 2259   2.087   3.999   2.858
 2489SOL    HW1 2260   2.122   3.982   2.950
 2489SOL    HW2 2261   1.999   3.954   2.846
 2500SOL     OW 2262   2.671   3.728   2.364
 2500SOL    HW1 2263   2.711   3.819   2.355
 2500SOL    HW2 2264   2.571   3.736   2.370
 2510SOL     OW 2265   2.727   4.072   2.057
 2510SOL    HW1 2266   2.786   4.135   2.008
 2510SOL    HW2 2267   2.746   3.978   2.028
 2512SOL     OW 2268   2.412   3.920   2.747
 2512SOL    HW1 2269   2.407   3.915   2.847
 2512SOL    HW2 2270   2.414   4.016   2.718
 2515SOL     OW 2271   3.262   3.831   2.288
 2515SOL    HW1 2272   3.238   3.794   2.198
 2515SOL    HW2 2273   3.361   3.847   2.292
 2518SOL     OW 2274   2.476   3.846   1.979
 2518SOL    HW1 2275   2.574   3.824   1.986
 2518SOL    HW2 2276   2.445   3.829   1.886
 2522SOL     OW 2277   2.401   3.788   2.374
 2522SOL    HW1 2278   2.320   3.789   2.432
 2522SOL    HW2 2279   2.404   3.871   2.319
 2523SOL     OW 2280   2.159   3.759   2.033
 2523SOL    HW1 2281   2.208   3.843   2.012
 2523SOL    HW2 2282   2.221   3.694   2.078
 2524SOL     OW 2283   2.797   3.960   2.342
 2524SOL    HW1 2284   2.749   4.001   2.264
 2524SOL    HW2 2285   2.896   3.958   2.323
 2528SOL     OW 2286   2.423   3.946   3.009
 2528SOL    HW1 2287   2.461   3.862   3.046
 2528SOL    HW2 2288   2.335   3.965   3.053
 2530SOL     OW 2289   2.879   3.763   2.615
 2530SOL    HW1 2290   2.807   3.768   2.546
 2530SOL    HW2 2291   2.855   3.694   2.684
 2534SOL     OW 2292   2.389   3.980   2.190
 2534SOL    HW1 2293   2.416   3.921   2.115
 2534SOL    HW2 2294   2.389   4.075   2.159
 2535SOL     OW 2295   2.777   3.813   3.264
 2535SOL    HW1 2296   2.802   3.793   3.169
 2535SOL    HW2 2297   2.849   3.869   3.306
 2547SOL     OW 2298   2.169   3.937   3.093
 2547SOL    HW1 2299   2.146   3.974   3.183
 2547SOL    HW2 2300   2.139   3.842   3.087
 2550SOL     OW 2301   2.169   3.787   2.480
 2550SOL    HW1 2302   2.158   3.881   2.513
 2550SOL    HW2 2303   2.164   3.724   2.557
 2572SOL     OW 2304   2.125   4.050   2.582
 2572SOL    HW1 2305   2.046   4.101   2.548
 2572SOL    HW2 2306   2.116   4.035   2.680
 2574SOL     OW 2307   2.876   3.960   2.833
 2574SOL    HW1 2308   2.868   3.924   2.740
 2574SOL    HW2 2309   2.874   3.884   2.898
 2580SOL     OW 2310   1.934   3.890   2.180
 2580SOL    HW1 2311   1.917   3.973   2.126
 2580SOL    HW2 2312   2.024   3.853   2.158
 2592SOL     OW 2313   2.863   3.758   3.016
 2592SOL    HW1 2314   2.800   3.686   2.985
 2592SOL    HW2 2315   2.956   3.722   3.016
 2593SOL     OW 2316   3.214   3.776   2.030
 2593SOL    HW1 2317   3.249   3.735   1.946
 2593SOL    HW2 2318   3.124   3.738   2.050
 2675SOL     OW 2319   3.854   1.821   1.571
 2675SOL    HW1 2320   3.844   1.806   1.670
 2675SOL    HW2 2321   3.768   1.857   1.535
 2732SOL     OW 2322   3.854   1.794   1.851
 2732SOL    HW1 2323   3.813   1.720   1.904
 2732SOL    HW2 2324   3.918   1.845   1.909
 2771SOL     OW 2325   3.955   1.713   2.345
 2771SOL    HW1 2326   3.989   1.790   2.399
 2771SOL    HW2 2327   3.999   1.713   2.255
 2777SOL     OW 2328   3.751   1.596   1.979
 2777SOL    HW1 2329   3.732   1.500   2.000
 2777SOL    HW2 2330   3.718   1.654   2.054
 2831SOL     OW 2331   3.732   1.326   2.062
 2831SOL    HW1 2332   3.639   1.347   2.031
 2831SOL    HW2 2333   3.742   1.227   2.075
 2832SOL     OW 2334   3.812   1.801   2.789
 2832SOL    HW1 2335   3.770   1.715   2.762
 2832SOL    HW2 2336   3.906   1.804   2.755
 2947SOL     OW 2337   3.837   2.599   1.597
 2947SOL    HW1 2338   3.925   2.586   1.642
 2947SOL    HW2 2339   3.824   2.696   1.575
 2951SOL     OW 2340   4.041   2.113   1.801
 2951SOL    HW1 2341   4.112   2.184   1.807
 2951SOL    HW2 2342   3.953   2.152   1.829
 2975SOL     OW 2343   3.802   2.418   1.386
 2975SOL    HW1 2344   3.894   2.417   1.345
 2975SOL    HW2 2345   3.796   2.492   1.453
 3003SOL     OW 2346   3.913   2.382   1.722
 3003SOL    HW1 2347   3.972   2.342   1.652
 3003SOL    HW2 2348   3.855   2.453   1.681
 3021SOL     OW 2349   3.829   2.875   1.726
 3021SOL    HW1 2350   3.752   2.842   1.780
 3021SOL    HW2 2351   3.914   2.845   1.768
 3042SOL     OW 2352   3.954   2.490   1.975
 3042SOL    HW1 2353   3.861   2.488   2.012
 3042SOL    HW2 2354   3.955   2.451   1.883
 3043SOL     OW 2355   3.949   2.137   2.858
 3043SOL    HW1 2356   3.984   2.120   2.950
 3043SOL    HW2 2357   3.861   2.092   2.846
 3044SOL     OW 2358   3.743   2.230   2.509
 3044SOL    HW1 2359   3.661   2.273   2.548
 3044SOL    HW2 2360   3.715   2.157   2.446
 3054SOL     OW 2361   3.964   2.953   2.748
 3054SOL    HW1 2362   3.978   2.869   2.800
 3054SOL    HW2 2363   3.909   3.017   2.803
 3057SOL     OW 2364   3.846   2.505   2.425
 3057SOL    HW1 2365   3.801   2.417   2.442
 3057SOL    HW2 2366   3.845   2.559   2.509
 3067SOL     OW 2367   3.800   2.673   2.651
 3067SOL    HW1 2368   3.899   2.661   2.660
 3067SOL    HW2 2369   3.776   2.768   2.672
 3073SOL     OW 2370   4.045   2.805   2.104
 3073SOL    HW1 2371   4.127   2.844   2.062
 3073SOL    HW2 2372   4.018   2.723   2.055
 3079SOL     OW 2373   4.106   2.562   2.342
 3079SOL    HW1 2374   4.151   2.472   2.339
 3079SOL    HW2 2375   4.012   2.551   2.375
 3085SOL     OW 2376   4.021   1.897   2.033
 3085SOL    HW1 2377   4.070   1.981   2.012
 3085SOL    HW2 2378   4.083   1.832   2.078
 3088SOL     OW 2379   3.802   2.418   3.248
 3088SOL    HW1 2380   3.894   2.417   3.207
 3088SOL    HW2 2381   3.796   2.492   3.315
 3106SOL     OW 2382   4.031   1.925   2.480
 3106SOL    HW1 2383   4.020   2.019   2.513
 3106SOL    HW2 2384   4.026   1.862   2.557
 3110SOL     OW 2385   4.043   2.672   2.811
 3110SOL    HW1 2386   4.136   2.708   2.816
 3110SOL    HW2 2387   4.037   2.587   2.863
 3111SOL     OW 2388   4.063   2.371   2.868
 3111SOL    HW1 2389   4.011   2.288   2.851
 3111SOL    HW2 2390   4.140   2.376   2.804
 3112SOL     OW 2391   3.732   3.188   2.062
 3112SOL    HW1 2392   3.639   3.209   2.031
 3112SOL    HW2 2393   3.742   3.089   2.075
 3115SOL     OW 2394   3.764   2.406   2.976
 3115SOL    HW1 2395   3.849   2.373   2.935
 3115SOL    HW2 2396   3.777   2.421   3.074
 3122SOL     OW 2397   3.807   3.120   2.884
 3122SOL    HW1 2398   3.802   3.119   2.984
 3122SOL    HW2 2399   3.724   3.079   2.846
 3128SOL     OW 2400   3.987   2.188   2.582
 3128SOL    HW1 2401   3.908   2.239   2.548
 3128SOL    HW2 2402   3.978   2.173   2.680
 3135SOL     OW 2403   3.799   2.207   1.895
 3135SOL    HW1 2404   3.707   2.179   1.866
 3135SOL    HW2 2405   3.830   2.284   1.839
 3136SOL     OW 2406   3.796   2.028   2.180
 3136SOL    HW1 2407   3.779   2.111   2.126
 3136SOL    HW2 2408   3.886   1.991   2.158
 3144SOL     OW 2409   3.803   3.102   2.515
 3144SOL    HW1 2410   3.802   3.055   2.603
 3144SOL    HW2 2411   3.885   3.074   2.464
 3152SOL     OW 2412   3.763   2.939   2.162
 3152SOL    HW1 2413   3.862   2.928   2.153
 3152SOL    HW2 2414   3.723   2.853   2.194
   4.69302   4.69302   4.69302
