; mobley_8885088_GMX.itp created by acpype (v: 2023.10.27) on Thu May 21 00:07:28 2026

[ atomtypes ]
;name   bond_type     mass     charge   ptype   sigma         epsilon       Amb
 c2       c2          0.00000  0.00000   A     3.31521e-01   4.13379e-01 ; 1.86  0.0988
 c5       c5          0.00000  0.00000   A     3.39771e-01   4.51035e-01 ; 1.91  0.1078
 ha       ha          0.00000  0.00000   A     2.62548e-01   6.73624e-02 ; 1.47  0.0161
 hc       hc          0.00000  0.00000   A     2.60018e-01   8.70272e-02 ; 1.46  0.0208

[ moleculetype ]
;name            nrexcl
 mobley_8885088   3

[ atoms ]
;   nr  type  resi  res  atom  cgnr     charge      mass       ; qtot   bond_type
     1   c2     1   MOL    C1    1    -0.178700     12.01000 ; qtot -0.179
     2   c2     1   MOL    C2    2    -0.178700     12.01000 ; qtot -0.357
     3   c5     1   MOL    C3    3    -0.055200     12.01000 ; qtot -0.413
     4   c5     1   MOL    C4    4    -0.055200     12.01000 ; qtot -0.468
     5   c5     1   MOL    C5    5    -0.082400     12.01000 ; qtot -0.550
     6   ha     1   MOL    H1    6     0.135000      1.00800 ; qtot -0.415
     7   ha     1   MOL    H2    7     0.135000      1.00800 ; qtot -0.280
     8   hc     1   MOL    H3    8     0.048700      1.00800 ; qtot -0.232
     9   hc     1   MOL    H4    9     0.048700      1.00800 ; qtot -0.183
    10   hc     1   MOL    H5   10     0.048700      1.00800 ; qtot -0.134
    11   hc     1   MOL    H6   11     0.048700      1.00800 ; qtot -0.085
    12   hc     1   MOL    H7   12     0.042700      1.00800 ; qtot -0.043
    13   hc     1   MOL    H8   13     0.042700      1.00800 ; qtot -0.000

[ bonds ]
;   ai     aj funct   r             k
     1      2   1    1.3379e-01    3.6484e+05 ;     C1 - C2    
     1      3   1    1.5154e-01    2.0366e+05 ;     C1 - C3    
     1      6   1    1.0882e-01    2.9898e+05 ;     C1 - H1    
     2      4   1    1.5154e-01    2.0366e+05 ;     C2 - C4    
     2      7   1    1.0882e-01    2.9898e+05 ;     C2 - H2    
     3      5   1    1.5483e-01    1.8418e+05 ;     C3 - C5    
     3      8   1    1.0954e-01    2.8989e+05 ;     C3 - H3    
     3      9   1    1.0954e-01    2.8989e+05 ;     C3 - H4    
     4      5   1    1.5483e-01    1.8418e+05 ;     C4 - C5    
     4     10   1    1.0954e-01    2.8989e+05 ;     C4 - H5    
     4     11   1    1.0954e-01    2.8989e+05 ;     C4 - H6    
     5     12   1    1.0954e-01    2.8989e+05 ;     C5 - H7    
     5     13   1    1.0954e-01    2.8989e+05 ;     C5 - H8    

[ pairs ]
;   ai     aj    funct
     1     10      1 ;     C1 - H5    
     1     11      1 ;     C1 - H6    
     1     12      1 ;     C1 - H7    
     1     13      1 ;     C1 - H8    
     2      8      1 ;     C2 - H3    
     2      9      1 ;     C2 - H4    
     2     12      1 ;     C2 - H7    
     2     13      1 ;     C2 - H8    
     3      7      1 ;     C3 - H2    
     3     10      1 ;     C3 - H5    
     3     11      1 ;     C3 - H6    
     4      8      1 ;     C4 - H3    
     4      9      1 ;     C4 - H4    
     5      7      1 ;     C5 - H2    
     6      4      1 ;     H1 - C4    
     6      5      1 ;     H1 - C5    
     6      7      1 ;     H1 - H2    
     6      8      1 ;     H1 - H3    
     6      9      1 ;     H1 - H4    
     7     10      1 ;     H2 - H5    
     7     11      1 ;     H2 - H6    
     8     12      1 ;     H3 - H7    
     8     13      1 ;     H3 - H8    
     9     12      1 ;     H4 - H7    
     9     13      1 ;     H4 - H8    
    10     12      1 ;     H5 - H7    
    10     13      1 ;     H5 - H8    
    11     12      1 ;     H6 - H7    
    11     13      1 ;     H6 - H8    

[ angles ]
;   ai     aj     ak    funct   theta         cth
     1      2      4      1    1.1893e+02    5.2066e+02 ;     C1 - C2     - C4    
     1      2      7      1    1.2039e+02    3.8802e+02 ;     C1 - C2     - H2    
     1      3      5      1    1.0794e+02    5.1287e+02 ;     C1 - C3     - C5    
     1      3      8      1    1.1072e+02    3.6468e+02 ;     C1 - C3     - H3    
     1      3      9      1    1.1072e+02    3.6468e+02 ;     C1 - C3     - H4    
     2      1      3      1    1.1893e+02    5.2066e+02 ;     C2 - C1     - C3    
     2      1      6      1    1.2039e+02    3.8802e+02 ;     C2 - C1     - H1    
     2      4      5      1    1.0794e+02    5.1287e+02 ;     C2 - C4     - C5    
     2      4     10      1    1.1072e+02    3.6468e+02 ;     C2 - C4     - H5    
     2      4     11      1    1.1072e+02    3.6468e+02 ;     C2 - C4     - H6    
     3      1      6      1    1.2133e+02    3.4861e+02 ;     C3 - C1     - H1    
     3      5      4      1    1.0383e+02    5.1748e+02 ;     C3 - C5     - C4    
     3      5     12      1    1.1117e+02    3.5690e+02 ;     C3 - C5     - H7    
     3      5     13      1    1.1117e+02    3.5690e+02 ;     C3 - C5     - H8    
     4      2      7      1    1.2133e+02    3.4861e+02 ;     C4 - C2     - H2    
     4      5     12      1    1.1117e+02    3.5690e+02 ;     C4 - C5     - H7    
     4      5     13      1    1.1117e+02    3.5690e+02 ;     C4 - C5     - H8    
     5      3      8      1    1.1117e+02    3.5690e+02 ;     C5 - C3     - H3    
     5      3      9      1    1.1117e+02    3.5690e+02 ;     C5 - C3     - H4    
     5      4     10      1    1.1117e+02    3.5690e+02 ;     C5 - C4     - H5    
     5      4     11      1    1.1117e+02    3.5690e+02 ;     C5 - C4     - H6    
     8      3      9      1    1.0722e+02    3.0049e+02 ;     H3 - C3     - H4    
    10      4     11      1    1.0722e+02    3.0049e+02 ;     H5 - C4     - H6    
    12      5     13      1    1.0722e+02    3.0049e+02 ;     H7 - C5     - H8    

[ dihedrals ] ; propers
; for gromacs 4.5 or higher, using funct 9
;    i      j      k      l   func   phase     kd      pn
     1      2      4      5      9     0.00   0.00000   0 ;     C1-    C2-    C4-    C5
     1      2      4     10      9   180.00   1.08784   3 ;     C1-    C2-    C4-    H5
     1      2      4     11      9   180.00   1.08784   3 ;     C1-    C2-    C4-    H6
     1      3      5      4      9     0.00   0.65084   3 ;     C1-    C3-    C5-    C4
     1      3      5     12      9     0.00   0.65084   3 ;     C1-    C3-    C5-    H7
     1      3      5     13      9     0.00   0.65084   3 ;     C1-    C3-    C5-    H8
     2      1      3      5      9     0.00   0.00000   0 ;     C2-    C1-    C3-    C5
     2      1      3      8      9   180.00   1.08784   3 ;     C2-    C1-    C3-    H3
     2      1      3      9      9   180.00   1.08784   3 ;     C2-    C1-    C3-    H4
     2      4      5      3      9     0.00   0.65084   3 ;     C2-    C4-    C5-    C3
     2      4      5     12      9     0.00   0.65084   3 ;     C2-    C4-    C5-    H7
     2      4      5     13      9     0.00   0.65084   3 ;     C2-    C4-    C5-    H8
     3      1      2      4      9     0.00   0.62760   1 ;     C3-    C1-    C2-    C4
     3      1      2      4      9   180.00   5.56472   3 ;     C3-    C1-    C2-    C4
     3      1      2      4      9   180.00  24.18352   2 ;     C3-    C1-    C2-    C4
     3      1      2      7      9   180.00  27.82360   2 ;     C3-    C1-    C2-    H2
     3      5      4     10      9     0.00   0.54392   3 ;     C3-    C5-    C4-    H5
     3      5      4     11      9     0.00   0.54392   3 ;     C3-    C5-    C4-    H6
     4      5      3      8      9     0.00   0.54392   3 ;     C4-    C5-    C3-    H3
     4      5      3      9      9     0.00   0.54392   3 ;     C4-    C5-    C3-    H4
     5      4      2      7      9     0.00   0.00000   0 ;     C5-    C4-    C2-    H2
     6      1      2      4      9   180.00  27.82360   2 ;     H1-    C1-    C2-    C4
     6      1      2      7      9   180.00  27.82360   2 ;     H1-    C1-    C2-    H2
     6      1      3      5      9     0.00   0.00000   0 ;     H1-    C1-    C3-    C5
     6      1      3      8      9     0.00   0.00000   0 ;     H1-    C1-    C3-    H3
     6      1      3      9      9     0.00   0.00000   0 ;     H1-    C1-    C3-    H4
     7      2      4     10      9     0.00   0.00000   0 ;     H2-    C2-    C4-    H5
     7      2      4     11      9     0.00   0.00000   0 ;     H2-    C2-    C4-    H6
     8      3      5     12      9     0.00   0.50208   3 ;     H3-    C3-    C5-    H7
     8      3      5     13      9     0.00   0.50208   3 ;     H3-    C3-    C5-    H8
     9      3      5     12      9     0.00   0.50208   3 ;     H4-    C3-    C5-    H7
     9      3      5     13      9     0.00   0.50208   3 ;     H4-    C3-    C5-    H8
    10      4      5     12      9     0.00   0.50208   3 ;     H5-    C4-    C5-    H7
    10      4      5     13      9     0.00   0.50208   3 ;     H5-    C4-    C5-    H8
    11      4      5     12      9     0.00   0.50208   3 ;     H6-    C4-    C5-    H7
    11      4      5     13      9     0.00   0.50208   3 ;     H6-    C4-    C5-    H8

[ dihedrals ] ; impropers
; treated as propers in GROMACS to use correct AMBER analytical function
;    i      j      k      l   func   phase     kd      pn
     1      4      2      7      4   180.00   4.60240   2 ;     C1-    C4-    C2-    H2
     6      1      3      2      4   180.00   4.60240   2 ;     H1-    C1-    C3-    C2
