mobley_5346580_GMX.gro created by acpype (v: 2023.10.27) on Tue May 19 12:51:01 2026
 2416
    1MOL     C1    1   2.267   2.297   2.157
    1MOL     C2    2   2.399   2.349   2.106
    1MOL     C3    3   2.278   2.394   2.387
    1MOL     C4    4   2.351   2.156   2.349
    1MOL     C5    5   2.109   2.217   2.335
    1MOL     C6    6   2.252   2.266   2.307
    1MOL     O1    7   2.173   2.283   2.078
    1MOL     H1    8   2.388   2.384   2.003
    1MOL     H2    9   2.433   2.434   2.167
    1MOL     H3   10   2.474   2.269   2.108
    1MOL     H4   11   2.381   2.430   2.375
    1MOL     H5   12   2.212   2.475   2.354
    1MOL     H6   13   2.261   2.378   2.494
    1MOL     H7   14   2.455   2.190   2.340
    1MOL     H8   15   2.339   2.067   2.287
    1MOL     H9   16   2.335   2.127   2.454
    1MOL    H10   17   2.086   2.127   2.277
    1MOL    H11   18   2.035   2.293   2.310
    1MOL    H12   19   2.096   2.192   2.442
   14SOL     OW   20   1.460   1.505   1.339
   14SOL    HW1   21   1.484   1.599   1.365
   14SOL    HW2   22   1.444   1.451   1.421
   18SOL     OW   23   1.127   1.341   1.690
   18SOL    HW1   24   1.174   1.341   1.778
   18SOL    HW2   25   1.079   1.254   1.679
   31SOL     OW   26   1.293   1.228   1.423
   31SOL    HW1   27   1.330   1.155   1.365
   31SOL    HW2   28   1.345   1.233   1.508
   35SOL     OW   29   1.187   1.792   1.616
   35SOL    HW1   30   1.211   1.852   1.540
   35SOL    HW2   31   1.194   1.697   1.586
   37SOL     OW   32   1.466   1.417   0.953
   37SOL    HW1   33   1.407   1.423   1.033
   37SOL    HW2   34   1.451   1.329   0.907
   56SOL     OW   35   1.227   1.550   1.506
   56SOL    HW1   36   1.233   1.473   1.570
   56SOL    HW2   37   1.175   1.524   1.426
   95SOL     OW   38   1.754   1.223   1.588
   95SOL    HW1   39   1.845   1.184   1.575
   95SOL    HW2   40   1.762   1.319   1.612
   96SOL     OW   41   1.064   1.347   1.340
   96SOL    HW1   42   0.984   1.324   1.395
   96SOL    HW2   43   1.147   1.321   1.389
   97SOL     OW   44   1.592   1.629   1.625
   97SOL    HW1   45   1.619   1.663   1.535
   97SOL    HW2   46   1.671   1.591   1.671
  109SOL     OW   47   1.272   1.445   1.142
  109SOL    HW1   48   1.319   1.458   1.229
  109SOL    HW2   49   1.206   1.371   1.151
  113SOL     OW   50   1.587   0.779   1.670
  113SOL    HW1   51   1.495   0.817   1.665
  113SOL    HW2   52   1.647   0.826   1.605
  122SOL     OW   53   1.728   0.935   1.854
  122SOL    HW1   54   1.682   0.928   1.765
  122SOL    HW2   55   1.666   0.979   1.920
  126SOL     OW   56   0.980   1.573   1.700
  126SOL    HW1   57   0.960   1.617   1.612
  126SOL    HW2   58   1.019   1.482   1.684
  127SOL     OW   59   1.859   1.518   1.605
  127SOL    HW1   60   1.873   1.545   1.510
  127SOL    HW2   61   1.942   1.540   1.658
  142SOL     OW   62   1.369   0.950   1.660
  142SOL    HW1   63   1.408   1.039   1.680
  142SOL    HW2   64   1.379   0.930   1.563
  147SOL     OW   65   0.930   1.678   1.465
  147SOL    HW1   66   0.906   1.660   1.370
  147SOL    HW2   67   0.960   1.772   1.475
  152SOL     OW   68   1.759   1.747   1.154
  152SOL    HW1   69   1.820   1.777   1.081
  152SOL    HW2   70   1.721   1.658   1.132
  153SOL     OW   71   1.252   1.731   1.128
  153SOL    HW1   72   1.336   1.736   1.074
  153SOL    HW2   73   1.229   1.635   1.146
  155SOL     OW   74   0.688   1.662   1.716
  155SOL    HW1   75   0.632   1.743   1.725
  155SOL    HW2   76   0.740   1.666   1.630
  163SOL     OW   77   1.650   1.720   1.394
  163SOL    HW1   78   1.703   1.730   1.310
  163SOL    HW2   79   1.623   1.810   1.428
  171SOL     OW   80   1.614   1.292   1.289
  171SOL    HW1   81   1.674   1.295   1.369
  171SOL    HW2   82   1.539   1.356   1.302
  184SOL     OW   83   1.493   1.767   0.959
  184SOL    HW1   84   1.526   1.831   0.890
  184SOL    HW2   85   1.559   1.761   1.034
  186SOL     OW   86   1.450   1.220   1.633
  186SOL    HW1   87   1.441   1.210   1.732
  186SOL    HW2   88   1.546   1.213   1.607
  192SOL     OW   89   1.730   0.934   1.517
  192SOL    HW1   90   1.768   1.025   1.532
  192SOL    HW2   91   1.722   0.917   1.418
  197SOL     OW   92   1.861   1.569   0.851
  197SOL    HW1   93   1.790   1.557   0.781
  197SOL    HW2   94   1.862   1.490   0.911
  203SOL     OW   95   1.705   1.487   1.104
  203SOL    HW1   96   1.612   1.462   1.077
  203SOL    HW2   97   1.731   1.437   1.186
  219SOL     OW   98   1.555   1.511   2.565
  219SOL    HW1   99   1.498   1.495   2.646
  219SOL    HW2  100   1.496   1.521   2.485
  221SOL     OW  101   1.755   0.607   2.093
  221SOL    HW1  102   1.743   0.594   1.994
  221SOL    HW2  103   1.725   0.526   2.142
  227SOL     OW  104   1.460   1.505   3.201
  227SOL    HW1  105   1.484   1.599   3.227
  227SOL    HW2  106   1.444   1.451   3.283
  238SOL     OW  107   1.842   1.767   2.221
  238SOL    HW1  108   1.896   1.738   2.301
  238SOL    HW2  109   1.872   1.857   2.192
  240SOL     OW  110   1.689   0.922   2.474
  240SOL    HW1  111   1.784   0.893   2.482
  240SOL    HW2  112   1.681   0.987   2.399
  241SOL     OW  113   1.641   1.108   2.294
  241SOL    HW1  114   1.727   1.110   2.242
  241SOL    HW2  115   1.655   1.155   2.382
  244SOL     OW  116   1.293   1.228   3.285
  244SOL    HW1  117   1.330   1.155   3.227
  244SOL    HW2  118   1.345   1.233   3.370
  247SOL     OW  119   1.525   0.999   2.052
  247SOL    HW1  120   1.462   0.923   2.065
  247SOL    HW2  121   1.573   1.017   2.138
  248SOL     OW  122   1.187   1.792   3.478
  248SOL    HW1  123   1.211   1.852   3.402
  248SOL    HW2  124   1.194   1.697   3.448
  250SOL     OW  125   1.466   1.417   2.815
  250SOL    HW1  126   1.407   1.423   2.895
  250SOL    HW2  127   1.451   1.329   2.769
  251SOL     OW  128   1.667   1.714   2.434
  251SOL    HW1  129   1.626   1.691   2.346
  251SOL    HW2  130   1.649   1.640   2.499
  254SOL     OW  131   1.576   1.662   2.169
  254SOL    HW1  132   1.665   1.708   2.172
  254SOL    HW2  133   1.555   1.638   2.074
  264SOL     OW  134   1.362   1.144   2.407
  264SOL    HW1  135   1.445   1.115   2.359
  264SOL    HW2  136   1.313   1.211   2.351
  266SOL     OW  137   1.008   1.456   2.339
  266SOL    HW1  138   0.962   1.528   2.287
  266SOL    HW2  139   1.004   1.476   2.437
  268SOL     OW  140   1.795   1.066   2.735
  268SOL    HW1  141   1.733   1.051   2.659
  268SOL    HW2  142   1.743   1.077   2.820
  269SOL     OW  143   1.227   1.550   3.368
  269SOL    HW1  144   1.233   1.473   3.432
  269SOL    HW2  145   1.175   1.524   3.288
  271SOL     OW  146   1.458   0.735   2.590
  271SOL    HW1  147   1.453   0.670   2.665
  271SOL    HW2  148   1.538   0.794   2.603
  273SOL     OW  149   1.111   1.776   2.099
  273SOL    HW1  150   1.051   1.714   2.149
  273SOL    HW2  151   1.142   1.732   2.014
  275SOL     OW  152   1.632   1.377   1.943
  275SOL    HW1  153   1.600   1.471   1.933
  275SOL    HW2  154   1.556   1.314   1.931
  279SOL     OW  155   0.940   1.698   2.766
  279SOL    HW1  156   1.020   1.641   2.787
  279SOL    HW2  157   0.891   1.658   2.689
  284SOL     OW  158   0.888   1.514   3.057
  284SOL    HW1  159   0.865   1.489   2.963
  284SOL    HW2  160   0.949   1.445   3.096
  286SOL     OW  161   0.803   1.402   2.786
  286SOL    HW1  162   0.893   1.416   2.744
  286SOL    HW2  163   0.732   1.404   2.715
  289SOL     OW  164   1.434   1.188   1.903
  289SOL    HW1  165   1.466   1.112   1.960
  289SOL    HW2  166   1.342   1.215   1.933
  293SOL     OW  167   1.227   1.570   2.655
  293SOL    HW1  168   1.248   1.644   2.590
  293SOL    HW2  169   1.295   1.570   2.728
  295SOL     OW  170   1.271   1.797   2.453
  295SOL    HW1  171   1.315   1.861   2.389
  295SOL    HW2  172   1.221   1.849   2.523
  301SOL     OW  173   1.429   1.173   2.729
  301SOL    HW1  174   1.374   1.089   2.722
  301SOL    HW2  175   1.455   1.202   2.637
  303SOL     OW  176   1.857   0.833   2.239
  303SOL    HW1  177   1.899   0.769   2.303
  303SOL    HW2  178   1.819   0.782   2.161
  305SOL     OW  179   1.664   1.280   2.519
  305SOL    HW1  180   1.763   1.288   2.533
  305SOL    HW2  181   1.619   1.364   2.550
  308SOL     OW  182   1.754   1.223   3.450
  308SOL    HW1  183   1.845   1.184   3.437
  308SOL    HW2  184   1.762   1.319   3.474
  309SOL     OW  185   1.064   1.347   3.202
  309SOL    HW1  186   0.984   1.324   3.257
  309SOL    HW2  187   1.147   1.321   3.251
  310SOL     OW  188   1.592   1.629   3.487
  310SOL    HW1  189   1.619   1.663   3.397
  310SOL    HW2  190   1.671   1.591   3.533
  311SOL     OW  191   1.111   1.195   2.962
  311SOL    HW1  192   1.071   1.239   3.043
  311SOL    HW2  193   1.070   1.232   2.879
  312SOL     OW  194   1.638   1.099   2.941
  312SOL    HW1  195   1.643   1.180   3.000
  312SOL    HW2  196   1.552   1.101   2.890
  321SOL     OW  197   1.252   1.348   2.250
  321SOL    HW1  198   1.302   1.425   2.290
  321SOL    HW2  199   1.157   1.350   2.282
  322SOL     OW  200   1.272   1.445   3.004
  322SOL    HW1  201   1.319   1.458   3.091
  322SOL    HW2  202   1.206   1.371   3.013
  323SOL     OW  203   1.582   0.639   2.334
  323SOL    HW1  204   1.551   0.700   2.407
  323SOL    HW2  205   1.632   0.691   2.265
  340SOL     OW  206   1.859   1.518   3.467
  340SOL    HW1  207   1.873   1.545   3.372
  340SOL    HW2  208   1.942   1.540   3.520
  343SOL     OW  209   1.303   0.838   1.904
  343SOL    HW1  210   1.337   0.745   1.919
  343SOL    HW2  211   1.321   0.865   1.809
  344SOL     OW  212   1.068   1.333   2.711
  344SOL    HW1  213   1.075   1.249   2.656
  344SOL    HW2  214   1.130   1.402   2.675
  363SOL     OW  215   1.347   1.059   3.096
  363SOL    HW1  216   1.371   0.996   3.022
  363SOL    HW2  217   1.257   1.099   3.078
  364SOL     OW  218   1.302   0.855   2.171
  364SOL    HW1  219   1.216   0.824   2.213
  364SOL    HW2  220   1.298   0.841   2.072
  365SOL     OW  221   1.759   1.747   3.016
  365SOL    HW1  222   1.820   1.777   2.943
  365SOL    HW2  223   1.721   1.658   2.994
  366SOL     OW  224   1.252   1.731   2.990
  366SOL    HW1  225   1.336   1.736   2.936
  366SOL    HW2  226   1.229   1.635   3.008
  370SOL     OW  227   1.388   1.573   2.339
  370SOL    HW1  228   1.455   1.585   2.265
  370SOL    HW2  229   1.348   1.662   2.362
  372SOL     OW  230   1.280   0.927   2.534
  372SOL    HW1  231   1.340   0.846   2.536
  372SOL    HW2  232   1.320   0.996   2.474
  374SOL     OW  233   0.672   1.616   2.016
  374SOL    HW1  234   0.681   1.626   1.917
  374SOL    HW2  235   0.632   1.527   2.037
  375SOL     OW  236   1.650   1.720   3.256
  375SOL    HW1  237   1.703   1.730   3.172
  375SOL    HW2  238   1.623   1.810   3.290
  378SOL     OW  239   1.194   1.612   1.893
  378SOL    HW1  240   1.200   1.519   1.930
  378SOL    HW2  241   1.135   1.612   1.813
  381SOL     OW  242   1.504   1.607   1.906
  381SOL    HW1  243   1.412   1.644   1.913
  381SOL    HW2  244   1.542   1.627   1.816
  383SOL     OW  245   1.614   1.292   3.151
  383SOL    HW1  246   1.674   1.295   3.231
  383SOL    HW2  247   1.539   1.356   3.164
  384SOL     OW  248   1.039   1.098   2.558
  384SOL    HW1  249   0.969   1.051   2.612
  384SOL    HW2  250   1.098   1.030   2.515
  394SOL     OW  251   1.183   1.335   1.981
  394SOL    HW1  252   1.084   1.324   1.983
  394SOL    HW2  253   1.217   1.350   2.074
  396SOL     OW  254   1.493   1.767   2.821
  396SOL    HW1  255   1.526   1.831   2.752
  396SOL    HW2  256   1.559   1.761   2.896
  400SOL     OW  257   1.674   0.883   3.116
  400SOL    HW1  258   1.647   0.794   3.079
  400SOL    HW2  259   1.675   0.951   3.043
  405SOL     OW  260   0.859   1.374   1.878
  405SOL    HW1  261   0.813   1.389   1.966
  405SOL    HW2  262   0.903   1.459   1.848
  406SOL     OW  263   0.661   1.790   2.815
  406SOL    HW1  264   0.615   1.878   2.802
  406SOL    HW2  265   0.760   1.802   2.808
  408SOL     OW  266   1.083   0.984   1.949
  408SOL    HW1  267   1.060   1.037   1.867
  408SOL    HW2  268   1.164   0.928   1.930
  409SOL     OW  269   1.861   1.569   2.713
  409SOL    HW1  270   1.790   1.557   2.643
  409SOL    HW2  271   1.862   1.490   2.773
  415SOL     OW  272   1.705   1.487   2.966
  415SOL    HW1  273   1.612   1.462   2.939
  415SOL    HW2  274   1.731   1.437   3.048
  417SOL     OW  275   0.812   1.586   2.549
  417SOL    HW1  276   0.844   1.596   2.455
  417SOL    HW2  277   0.733   1.524   2.551
  420SOL     OW  278   0.770   1.330   2.163
  420SOL    HW1  279   0.724   1.243   2.180
  420SOL    HW2  280   0.861   1.327   2.204
  426SOL     OW  281   0.875   1.646   2.199
  426SOL    HW1  282   0.798   1.611   2.145
  426SOL    HW2  283   0.843   1.717   2.261
  529SOL     OW  284   0.850   2.660   1.823
  529SOL    HW1  285   0.846   2.736   1.888
  529SOL    HW2  286   0.872   2.696   1.732
  533SOL     OW  287   1.460   3.367   1.339
  533SOL    HW1  288   1.484   3.461   1.365
  533SOL    HW2  289   1.444   3.313   1.421
  535SOL     OW  290   1.603   2.309   0.737
  535SOL    HW1  291   1.529   2.355   0.687
  535SOL    HW2  292   1.654   2.377   0.790
  537SOL     OW  293   1.127   3.203   1.690
  537SOL    HW1  294   1.174   3.203   1.778
  537SOL    HW2  295   1.079   3.116   1.679
  542SOL     OW  296   1.594   1.976   1.480
  542SOL    HW1  297   1.576   2.043   1.408
  542SOL    HW2  298   1.591   2.022   1.569
  550SOL     OW  299   1.293   3.090   1.423
  550SOL    HW1  300   1.330   3.017   1.365
  550SOL    HW2  301   1.345   3.095   1.508
  559SOL     OW  302   1.281   2.207   0.944
  559SOL    HW1  303   1.195   2.157   0.931
  559SOL    HW2  304   1.343   2.153   1.000
  561SOL     OW  305   0.807   2.467   1.465
  561SOL    HW1  306   0.760   2.464   1.554
  561SOL    HW2  307   0.756   2.412   1.399
  562SOL     OW  308   1.394   2.331   1.674
  562SOL    HW1  309   1.374   2.374   1.762
  562SOL    HW2  310   1.472   2.269   1.683
  563SOL     OW  311   0.973   2.752   1.572
  563SOL    HW1  312   1.019   2.668   1.543
  563SOL    HW2  313   0.917   2.786   1.497
  564SOL     OW  314   0.991   2.272   1.242
  564SOL    HW1  315   0.914   2.306   1.296
  564SOL    HW2  316   0.957   2.221   1.163
  569SOL     OW  317   1.719   2.447   1.831
  569SOL    HW1  318   1.693   2.536   1.795
  569SOL    HW2  319   1.717   2.379   1.758
  574SOL     OW  320   1.795   2.928   0.873
  574SOL    HW1  321   1.733   2.913   0.797
  574SOL    HW2  322   1.743   2.939   0.958
  575SOL     OW  323   1.227   3.412   1.506
  575SOL    HW1  324   1.233   3.335   1.570
  575SOL    HW2  325   1.175   3.386   1.426
  577SOL     OW  326   1.458   2.597   0.728
  577SOL    HW1  327   1.453   2.532   0.803
  577SOL    HW2  328   1.538   2.656   0.741
  587SOL     OW  329   1.547   2.084   1.729
  587SOL    HW1  330   1.542   2.121   1.821
  587SOL    HW2  331   1.475   2.015   1.717
  588SOL     OW  332   0.781   2.126   1.749
  588SOL    HW1  333   0.848   2.065   1.792
  588SOL    HW2  334   0.708   2.145   1.814
  590SOL     OW  335   1.351   2.452   1.433
  590SOL    HW1  336   1.379   2.409   1.518
  590SOL    HW2  337   1.376   2.548   1.434
  597SOL     OW  338   1.076   2.545   1.464
  597SOL    HW1  339   0.996   2.484   1.467
  597SOL    HW2  340   1.157   2.492   1.440
  607SOL     OW  341   1.466   2.452   0.992
  607SOL    HW1  342   1.436   2.357   0.999
  607SOL    HW2  343   1.539   2.468   1.058
  613SOL     OW  344   1.754   3.085   1.588
  613SOL    HW1  345   1.845   3.046   1.575
  613SOL    HW2  346   1.762   3.181   1.612
  614SOL     OW  347   1.064   3.209   1.340
  614SOL    HW1  348   0.984   3.186   1.395
  614SOL    HW2  349   1.147   3.183   1.389
  615SOL     OW  350   1.592   3.491   1.625
  615SOL    HW1  351   1.619   3.525   1.535
  615SOL    HW2  352   1.671   3.453   1.671
  617SOL     OW  353   1.638   2.961   1.079
  617SOL    HW1  354   1.643   3.042   1.138
  617SOL    HW2  355   1.552   2.963   1.028
  618SOL     OW  356   0.915   1.951   1.402
  618SOL    HW1  357   0.940   1.931   1.307
  618SOL    HW2  358   0.987   2.007   1.444
  619SOL     OW  359   0.980   2.978   1.719
  619SOL    HW1  360   0.881   2.984   1.729
  619SOL    HW2  361   1.003   2.898   1.663
  622SOL     OW  362   1.274   2.248   1.262
  622SOL    HW1  363   1.295   2.322   1.326
  622SOL    HW2  364   1.185   2.265   1.219
  631SOL     OW  365   1.587   2.641   1.670
  631SOL    HW1  366   1.495   2.679   1.665
  631SOL    HW2  367   1.647   2.688   1.605
  632SOL     OW  368   1.013   1.967   1.770
  632SOL    HW1  369   1.019   2.052   1.718
  632SOL    HW2  370   1.045   1.891   1.713
  635SOL     OW  371   1.360   2.724   1.045
  635SOL    HW1  372   1.285   2.724   0.979
  635SOL    HW2  373   1.397   2.632   1.054
  640SOL     OW  374   1.728   2.797   1.854
  640SOL    HW1  375   1.682   2.790   1.765
  640SOL    HW2  376   1.666   2.841   1.920
  645SOL     OW  377   1.859   3.380   1.605
  645SOL    HW1  378   1.873   3.407   1.510
  645SOL    HW2  379   1.942   3.402   1.658
  652SOL     OW  380   1.138   2.242   1.678
  652SOL    HW1  381   1.093   2.305   1.742
  652SOL    HW2  382   1.231   2.273   1.661
  653SOL     OW  383   1.160   2.069   1.477
  653SOL    HW1  384   1.160   2.133   1.554
  653SOL    HW2  385   1.188   2.117   1.394
  657SOL     OW  386   1.002   2.658   1.238
  657SOL    HW1  387   1.043   2.626   1.324
  657SOL    HW2  388   0.906   2.631   1.235
  660SOL     OW  389   1.369   2.812   1.660
  660SOL    HW1  390   1.408   2.901   1.680
  660SOL    HW2  391   1.379   2.792   1.563
  662SOL     OW  392   1.657   2.466   1.206
  662SOL    HW1  393   1.619   2.397   1.268
  662SOL    HW2  394   1.739   2.430   1.162
  668SOL     OW  395   1.347   2.921   1.234
  668SOL    HW1  396   1.371   2.858   1.160
  668SOL    HW2  397   1.257   2.961   1.216
  681SOL     OW  398   1.650   3.582   1.394
  681SOL    HW1  399   1.703   3.592   1.310
  681SOL    HW2  400   1.623   3.672   1.428
  682SOL     OW  401   1.841   2.037   0.963
  682SOL    HW1  402   1.880   1.952   0.927
  682SOL    HW2  403   1.743   2.039   0.944
  689SOL     OW  404   1.614   3.154   1.289
  689SOL    HW1  405   1.674   3.157   1.369
  689SOL    HW2  406   1.539   3.218   1.302
  693SOL     OW  407   1.709   2.247   1.381
  693SOL    HW1  408   1.782   2.316   1.385
  693SOL    HW2  409   1.737   2.172   1.322
  698SOL     OW  410   1.440   2.718   1.398
  698SOL    HW1  411   1.383   2.770   1.335
  698SOL    HW2  412   1.536   2.730   1.374
  703SOL     OW  413   0.716   2.427   1.708
  703SOL    HW1  414   0.735   2.492   1.782
  703SOL    HW2  415   0.776   2.347   1.717
  704SOL     OW  416   1.450   3.082   1.633
  704SOL    HW1  417   1.441   3.072   1.732
  704SOL    HW2  418   1.546   3.075   1.607
  706SOL     OW  419   1.674   2.745   1.254
  706SOL    HW1  420   1.647   2.656   1.217
  706SOL    HW2  421   1.675   2.813   1.181
  709SOL     OW  422   1.777   2.204   1.642
  709SOL    HW1  423   1.760   2.235   1.548
  709SOL    HW2  424   1.693   2.167   1.680
  710SOL     OW  425   1.730   2.796   1.517
  710SOL    HW1  426   1.768   2.887   1.532
  710SOL    HW2  427   1.722   2.779   1.418
  719SOL     OW  428   1.824   2.054   1.227
  719SOL    HW1  429   1.820   1.964   1.271
  719SOL    HW2  430   1.827   2.043   1.128
  721SOL     OW  431   1.705   3.349   1.104
  721SOL    HW1  432   1.612   3.324   1.077
  721SOL    HW2  433   1.731   3.299   1.186
  724SOL     OW  434   1.424   2.076   1.112
  724SOL    HW1  435   1.476   2.011   1.167
  724SOL    HW2  436   1.375   2.139   1.173
  725SOL     OW  437   1.001   1.896   1.154
  725SOL    HW1  438   0.938   1.824   1.123
  725SOL    HW2  439   1.094   1.860   1.154
  730SOL     OW  440   1.593   2.083   0.882
  730SOL    HW1  441   1.509   2.082   0.936
  730SOL    HW2  442   1.595   2.166   0.826
  737SOL     OW  443   1.555   3.373   2.565
  737SOL    HW1  444   1.498   3.357   2.646
  737SOL    HW2  445   1.496   3.383   2.485
  738SOL     OW  446   1.135   2.565   2.579
  738SOL    HW1  447   1.192   2.643   2.554
  738SOL    HW2  448   1.075   2.591   2.655
  739SOL     OW  449   1.755   2.469   2.093
  739SOL    HW1  450   1.743   2.456   1.994
  739SOL    HW2  451   1.725   2.388   2.142
  740SOL     OW  452   0.768   3.006   2.885
  740SOL    HW1  453   0.690   3.023   2.945
  740SOL    HW2  454   0.802   3.093   2.849
  742SOL     OW  455   0.685   2.874   2.527
  742SOL    HW1  456   0.754   2.858   2.597
  742SOL    HW2  457   0.612   2.931   2.565
  745SOL     OW  458   1.460   3.367   3.201
  745SOL    HW1  459   1.484   3.461   3.227
  745SOL    HW2  460   1.444   3.313   3.283
  747SOL     OW  461   1.603   2.309   2.599
  747SOL    HW1  462   1.529   2.355   2.549
  747SOL    HW2  463   1.654   2.377   2.652
  753SOL     OW  464   0.606   2.826   1.985
  753SOL    HW1  465   0.613   2.910   1.931
  753SOL    HW2  466   0.652   2.839   2.073
  754SOL     OW  467   1.594   1.976   3.342
  754SOL    HW1  468   1.576   2.043   3.270
  754SOL    HW2  469   1.591   2.022   3.431
  756SOL     OW  470   1.842   3.629   2.221
  756SOL    HW1  471   1.896   3.600   2.301
  756SOL    HW2  472   1.872   3.719   2.192
  758SOL     OW  473   1.689   2.784   2.474
  758SOL    HW1  474   1.784   2.755   2.482
  758SOL    HW2  475   1.681   2.849   2.399
  759SOL     OW  476   1.641   2.970   2.294
  759SOL    HW1  477   1.727   2.972   2.242
  759SOL    HW2  478   1.655   3.017   2.382
  762SOL     OW  479   1.293   3.090   3.285
  762SOL    HW1  480   1.330   3.017   3.227
  762SOL    HW2  481   1.345   3.095   3.370
  763SOL     OW  482   0.809   1.866   2.364
  763SOL    HW1  483   0.849   1.957   2.355
  763SOL    HW2  484   0.709   1.874   2.370
  765SOL     OW  485   1.525   2.861   2.052
  765SOL    HW1  486   1.462   2.785   2.065
  765SOL    HW2  487   1.573   2.879   2.138
  768SOL     OW  488   1.466   3.279   2.815
  768SOL    HW1  489   1.407   3.285   2.895
  768SOL    HW2  490   1.451   3.191   2.769
  769SOL     OW  491   1.667   3.576   2.434
  769SOL    HW1  492   1.626   3.553   2.346
  769SOL    HW2  493   1.649   3.502   2.499
  770SOL     OW  494   0.598   2.591   2.132
  770SOL    HW1  495   0.622   2.660   2.064
  770SOL    HW2  496   0.520   2.624   2.186
  771SOL     OW  497   1.281   2.207   2.806
  771SOL    HW1  498   1.195   2.157   2.793
  771SOL    HW2  499   1.343   2.153   2.862
  772SOL     OW  500   1.576   3.524   2.169
  772SOL    HW1  501   1.665   3.570   2.172
  772SOL    HW2  502   1.555   3.500   2.074
  774SOL     OW  503   1.394   2.331   3.536
  774SOL    HW1  504   1.374   2.374   3.624
  774SOL    HW2  505   1.472   2.269   3.545
  776SOL     OW  506   0.991   2.272   3.104
  776SOL    HW1  507   0.914   2.306   3.158
  776SOL    HW2  508   0.957   2.221   3.025
  777SOL     OW  509   1.041   2.563   2.291
  777SOL    HW1  510   1.067   2.559   2.387
  777SOL    HW2  511   0.956   2.512   2.277
  780SOL     OW  512   0.865   2.210   2.057
  780SOL    HW1  513   0.924   2.273   2.008
  780SOL    HW2  514   0.884   2.116   2.028
  781SOL     OW  515   1.719   2.447   3.693
  781SOL    HW1  516   1.693   2.536   3.657
  781SOL    HW2  517   1.717   2.379   3.620
  782SOL     OW  518   1.362   3.006   2.407
  782SOL    HW1  519   1.445   2.977   2.359
  782SOL    HW2  520   1.313   3.073   2.351
  784SOL     OW  521   1.008   3.318   2.339
  784SOL    HW1  522   0.962   3.390   2.287
  784SOL    HW2  523   1.004   3.338   2.437
  786SOL     OW  524   1.795   2.928   2.735
  786SOL    HW1  525   1.733   2.913   2.659
  786SOL    HW2  526   1.743   2.939   2.820
  789SOL     OW  527   1.458   2.597   2.590
  789SOL    HW1  528   1.453   2.532   2.665
  789SOL    HW2  529   1.538   2.656   2.603
  793SOL     OW  530   1.632   3.239   1.943
  793SOL    HW1  531   1.600   3.333   1.933
  793SOL    HW2  532   1.556   3.176   1.931
  795SOL     OW  533   1.400   1.969   2.288
  795SOL    HW1  534   1.376   1.932   2.198
  795SOL    HW2  535   1.499   1.985   2.292
  799SOL     OW  536   1.547   2.084   3.591
  799SOL    HW1  537   1.542   2.121   3.683
  799SOL    HW2  538   1.475   2.015   3.579
  800SOL     OW  539   0.614   1.984   1.979
  800SOL    HW1  540   0.712   1.962   1.986
  800SOL    HW2  541   0.583   1.967   1.886
  803SOL     OW  542   1.351   2.452   3.295
  803SOL    HW1  543   1.379   2.409   3.380
  803SOL    HW2  544   1.376   2.548   3.296
  805SOL     OW  545   0.922   2.365   2.761
  805SOL    HW1  546   0.897   2.356   2.665
  805SOL    HW2  547   0.970   2.283   2.792
  806SOL     OW  548   0.539   1.926   2.374
  806SOL    HW1  549   0.458   1.927   2.432
  806SOL    HW2  550   0.542   2.009   2.319
  807SOL     OW  551   1.434   3.050   1.903
  807SOL    HW1  552   1.466   2.974   1.960
  807SOL    HW2  553   1.342   3.077   1.933
  809SOL     OW  554   0.935   2.098   2.342
  809SOL    HW1  555   0.887   2.139   2.264
  809SOL    HW2  556   1.034   2.096   2.323
  810SOL     OW  557   1.076   2.545   3.326
  810SOL    HW1  558   0.996   2.484   3.329
  810SOL    HW2  559   1.157   2.492   3.302
  811SOL     OW  560   1.227   3.432   2.655
  811SOL    HW1  561   1.248   3.506   2.590
  811SOL    HW2  562   1.295   3.432   2.728
  813SOL     OW  563   1.271   3.659   2.453
  813SOL    HW1  564   1.315   3.723   2.389
  813SOL    HW2  565   1.221   3.711   2.523
  814SOL     OW  566   1.032   2.411   1.878
  814SOL    HW1  567   0.991   2.493   1.839
  814SOL    HW2  568   1.096   2.437   1.951
  817SOL     OW  569   0.866   2.316   2.504
  817SOL    HW1  570   0.834   2.388   2.442
  817SOL    HW2  571   0.890   2.235   2.451
  818SOL     OW  572   1.017   1.901   2.615
  818SOL    HW1  573   0.945   1.906   2.546
  818SOL    HW2  574   0.993   1.832   2.684
  819SOL     OW  575   1.429   3.035   2.729
  819SOL    HW1  576   1.374   2.951   2.722
  819SOL    HW2  577   1.455   3.064   2.637
  820SOL     OW  578   1.466   2.452   2.854
  820SOL    HW1  579   1.436   2.357   2.861
  820SOL    HW2  580   1.539   2.468   2.920
  821SOL     OW  581   1.857   2.695   2.239
  821SOL    HW1  582   1.899   2.631   2.303
  821SOL    HW2  583   1.819   2.644   2.161
  823SOL     OW  584   1.664   3.142   2.519
  823SOL    HW1  585   1.763   3.150   2.533
  823SOL    HW2  586   1.619   3.226   2.550
  824SOL     OW  587   1.390   2.437   1.940
  824SOL    HW1  588   1.336   2.416   2.021
  824SOL    HW2  589   1.481   2.396   1.949
  825SOL     OW  590   0.527   2.118   2.190
  825SOL    HW1  591   0.554   2.059   2.115
  825SOL    HW2  592   0.527   2.213   2.159
  826SOL     OW  593   1.754   3.085   3.450
  826SOL    HW1  594   1.845   3.046   3.437
  826SOL    HW2  595   1.762   3.181   3.474
  827SOL     OW  596   1.064   3.209   3.202
  827SOL    HW1  597   0.984   3.186   3.257
  827SOL    HW2  598   1.147   3.183   3.251
  829SOL     OW  599   1.111   3.057   2.962
  829SOL    HW1  600   1.071   3.101   3.043
  829SOL    HW2  601   1.070   3.094   2.879
  830SOL     OW  602   1.638   2.961   2.941
  830SOL    HW1  603   1.643   3.042   3.000
  830SOL    HW2  604   1.552   2.963   2.890
  831SOL     OW  605   0.915   1.951   3.264
  831SOL    HW1  606   0.940   1.931   3.169
  831SOL    HW2  607   0.987   2.007   3.306
  833SOL     OW  608   0.705   2.912   2.230
  833SOL    HW1  609   0.691   2.919   2.329
  833SOL    HW2  610   0.789   2.861   2.212
  835SOL     OW  611   1.274   2.248   3.124
  835SOL    HW1  612   1.295   2.322   3.188
  835SOL    HW2  613   1.185   2.265   3.081
  838SOL     OW  614   0.566   2.399   2.727
  838SOL    HW1  615   0.578   2.465   2.653
  838SOL    HW2  616   0.612   2.433   2.810
  839SOL     OW  617   1.252   3.210   2.250
  839SOL    HW1  618   1.302   3.287   2.290
  839SOL    HW2  619   1.157   3.212   2.282
  840SOL     OW  620   1.272   3.307   3.004
  840SOL    HW1  621   1.319   3.320   3.091
  840SOL    HW2  622   1.206   3.233   3.013
  841SOL     OW  623   1.582   2.501   2.334
  841SOL    HW1  624   1.551   2.562   2.407
  841SOL    HW2  625   1.632   2.553   2.265
  844SOL     OW  626   1.587   2.641   3.532
  844SOL    HW1  627   1.495   2.679   3.527
  844SOL    HW2  628   1.647   2.688   3.467
  848SOL     OW  629   1.360   2.724   2.907
  848SOL    HW1  630   1.285   2.724   2.841
  848SOL    HW2  631   1.397   2.632   2.916
  849SOL     OW  632   1.209   2.387   2.137
  849SOL    HW1  633   1.222   2.303   2.191
  849SOL    HW2  634   1.180   2.461   2.197
  852SOL     OW  635   0.732   2.496   2.926
  852SOL    HW1  636   0.791   2.470   2.850
  852SOL    HW2  637   0.704   2.592   2.915
  853SOL     OW  638   1.728   2.797   3.716
  853SOL    HW1  639   1.682   2.790   3.627
  853SOL    HW2  640   1.666   2.841   3.782
  855SOL     OW  641   1.622   2.229   2.236
  855SOL    HW1  642   1.624   2.153   2.300
  855SOL    HW2  643   1.574   2.306   2.276
  856SOL     OW  644   1.023   2.628   2.828
  856SOL    HW1  645   1.038   2.649   2.924
  856SOL    HW2  646   0.993   2.533   2.819
  858SOL     OW  647   1.859   3.380   3.467
  858SOL    HW1  648   1.873   3.407   3.372
  858SOL    HW2  649   1.942   3.402   3.520
  860SOL     OW  650   1.540   2.136   1.987
  860SOL    HW1  651   1.479   2.061   2.010
  860SOL    HW2  652   1.562   2.188   2.070
  861SOL     OW  653   1.303   2.700   1.904
  861SOL    HW1  654   1.337   2.607   1.919
  861SOL    HW2  655   1.321   2.727   1.809
  862SOL     OW  656   1.068   3.195   2.711
  862SOL    HW1  657   1.075   3.111   2.656
  862SOL    HW2  658   1.130   3.264   2.675
  865SOL     OW  659   1.138   2.242   3.540
  865SOL    HW1  660   1.093   2.305   3.604
  865SOL    HW2  661   1.231   2.273   3.523
  866SOL     OW  662   1.160   2.069   3.339
  866SOL    HW1  663   1.160   2.133   3.416
  866SOL    HW2  664   1.188   2.117   3.256
  870SOL     OW  665   1.002   2.658   3.100
  870SOL    HW1  666   1.043   2.626   3.186
  870SOL    HW2  667   0.906   2.631   3.097
  873SOL     OW  668   1.369   2.812   3.522
  873SOL    HW1  669   1.408   2.901   3.542
  873SOL    HW2  670   1.379   2.792   3.425
  874SOL     OW  671   0.815   2.434   2.187
  874SOL    HW1  672   0.822   2.345   2.141
  874SOL    HW2  673   0.721   2.468   2.179
  875SOL     OW  674   1.657   2.466   3.068
  875SOL    HW1  675   1.619   2.397   3.130
  875SOL    HW2  676   1.739   2.430   3.024
  881SOL     OW  677   1.347   2.921   3.096
  881SOL    HW1  678   1.371   2.858   3.022
  881SOL    HW2  679   1.257   2.961   3.078
  882SOL     OW  680   1.302   2.717   2.171
  882SOL    HW1  681   1.216   2.686   2.213
  882SOL    HW2  682   1.298   2.703   2.072
  883SOL     OW  683   1.759   3.609   3.016
  883SOL    HW1  684   1.820   3.639   2.943
  883SOL    HW2  685   1.721   3.520   2.994
  887SOL     OW  686   1.726   1.997   2.385
  887SOL    HW1  687   1.799   1.980   2.318
  887SOL    HW2  688   1.695   1.910   2.423
  888SOL     OW  689   1.388   3.435   2.339
  888SOL    HW1  690   1.455   3.447   2.265
  888SOL    HW2  691   1.348   3.524   2.362
  890SOL     OW  692   1.280   2.789   2.534
  890SOL    HW1  693   1.340   2.708   2.536
  890SOL    HW2  694   1.320   2.858   2.474
  893SOL     OW  695   1.650   3.582   3.256
  893SOL    HW1  696   1.703   3.592   3.172
  893SOL    HW2  697   1.623   3.672   3.290
  894SOL     OW  698   1.841   2.037   2.825
  894SOL    HW1  699   1.880   1.952   2.789
  894SOL    HW2  700   1.743   2.039   2.806
  896SOL     OW  701   1.194   3.474   1.893
  896SOL    HW1  702   1.200   3.381   1.930
  896SOL    HW2  703   1.135   3.474   1.813
  898SOL     OW  704   0.916   2.772   2.153
  898SOL    HW1  705   0.979   2.810   2.085
  898SOL    HW2  706   0.956   2.689   2.192
  899SOL     OW  707   1.504   3.469   1.906
  899SOL    HW1  708   1.412   3.506   1.913
  899SOL    HW2  709   1.542   3.489   1.816
  901SOL     OW  710   1.614   3.154   3.151
  901SOL    HW1  711   1.674   3.157   3.231
  901SOL    HW2  712   1.539   3.218   3.164
  902SOL     OW  713   1.039   2.960   2.558
  902SOL    HW1  714   0.969   2.913   2.612
  902SOL    HW2  715   1.098   2.892   2.515
  903SOL     OW  716   1.014   2.098   2.833
  903SOL    HW1  717   1.006   2.062   2.740
  903SOL    HW2  718   1.012   2.022   2.898
  905SOL     OW  719   1.709   2.247   3.243
  905SOL    HW1  720   1.782   2.316   3.247
  905SOL    HW2  721   1.737   2.172   3.184
  910SOL     OW  722   1.440   2.718   3.260
  910SOL    HW1  723   1.383   2.770   3.197
  910SOL    HW2  724   1.536   2.730   3.236
  912SOL     OW  725   1.183   3.197   1.981
  912SOL    HW1  726   1.084   3.186   1.983
  912SOL    HW2  727   1.217   3.212   2.074
  914SOL     OW  728   1.493   3.629   2.821
  914SOL    HW1  729   1.526   3.693   2.752
  914SOL    HW2  730   1.559   3.623   2.896
  916SOL     OW  731   1.450   3.082   3.495
  916SOL    HW1  732   1.441   3.072   3.594
  916SOL    HW2  733   1.546   3.075   3.469
  918SOL     OW  734   1.674   2.745   3.116
  918SOL    HW1  735   1.647   2.656   3.079
  918SOL    HW2  736   1.675   2.813   3.043
  919SOL     OW  737   1.225   2.187   2.311
  919SOL    HW1  738   1.290   2.113   2.300
  919SOL    HW2  739   1.245   2.237   2.395
  920SOL     OW  740   0.594   2.607   2.514
  920SOL    HW1  741   0.644   2.692   2.495
  920SOL    HW2  742   0.506   2.609   2.466
  921SOL     OW  743   1.777   2.204   3.504
  921SOL    HW1  744   1.760   2.235   3.410
  921SOL    HW2  745   1.693   2.167   3.542
  922SOL     OW  746   1.730   2.796   3.379
  922SOL    HW1  747   1.768   2.887   3.394
  922SOL    HW2  748   1.722   2.779   3.280
  923SOL     OW  749   0.859   3.236   1.878
  923SOL    HW1  750   0.813   3.251   1.966
  923SOL    HW2  751   0.903   3.321   1.848
  925SOL     OW  752   0.859   2.818   2.723
  925SOL    HW1  753   0.913   2.749   2.771
  925SOL    HW2  754   0.827   2.887   2.789
  926SOL     OW  755   1.083   2.846   1.949
  926SOL    HW1  756   1.060   2.899   1.867
  926SOL    HW2  757   1.164   2.790   1.930
  927SOL     OW  758   1.861   3.431   2.713
  927SOL    HW1  759   1.790   3.419   2.643
  927SOL    HW2  760   1.862   3.352   2.773
  931SOL     OW  761   1.824   2.054   3.089
  931SOL    HW1  762   1.820   1.964   3.133
  931SOL    HW2  763   1.827   2.043   2.990
  933SOL     OW  764   1.705   3.349   2.966
  933SOL    HW1  765   1.612   3.324   2.939
  933SOL    HW2  766   1.731   3.299   3.048
  936SOL     OW  767   1.424   2.076   2.974
  936SOL    HW1  768   1.476   2.011   3.029
  936SOL    HW2  769   1.375   2.139   3.035
  937SOL     OW  770   1.001   1.896   3.016
  937SOL    HW1  771   0.938   1.824   2.985
  937SOL    HW2  772   1.094   1.860   3.016
  938SOL     OW  773   0.770   3.192   2.163
  938SOL    HW1  774   0.724   3.105   2.180
  938SOL    HW2  775   0.861   3.189   2.204
  940SOL     OW  776   1.352   1.914   2.030
  940SOL    HW1  777   1.387   1.873   1.946
  940SOL    HW2  778   1.262   1.876   2.050
  941SOL     OW  779   1.300   2.315   2.553
  941SOL    HW1  780   1.241   2.395   2.557
  941SOL    HW2  781   1.315   2.280   2.646
  942SOL     OW  782   1.593   2.083   2.744
  942SOL    HW1  783   1.509   2.082   2.798
  942SOL    HW2  784   1.595   2.166   2.688
  948SOL     OW  785   1.755   2.469   3.955
  948SOL    HW1  786   1.743   2.456   3.856
  948SOL    HW2  787   1.725   2.388   4.004
  994SOL     OW  788   1.390   2.437   3.802
  994SOL    HW1  789   1.336   2.416   3.883
  994SOL    HW2  790   1.481   2.396   3.811
 1004SOL     OW  791   1.540   2.136   3.849
 1004SOL    HW1  792   1.479   2.061   3.872
 1004SOL    HW2  793   1.562   2.188   3.932
 1160SOL     OW  794   1.400   3.831   2.288
 1160SOL    HW1  795   1.376   3.794   2.198
 1160SOL    HW2  796   1.499   3.847   2.292
 1207SOL     OW  797   1.726   3.859   2.385
 1207SOL    HW1  798   1.799   3.842   2.318
 1207SOL    HW2  799   1.695   3.772   2.423
 1209SOL     OW  800   1.841   3.899   2.825
 1209SOL    HW1  801   1.880   3.814   2.789
 1209SOL    HW2  802   1.743   3.901   2.806
 1229SOL     OW  803   1.352   3.776   2.030
 1229SOL    HW1  804   1.387   3.735   1.946
 1229SOL    HW2  805   1.262   3.738   2.050
 1282SOL     OW  806   2.431   1.275   1.165
 1282SOL    HW1  807   2.338   1.268   1.128
 1282SOL    HW2  808   2.442   1.364   1.209
 1286SOL     OW  809   2.630   1.144   1.023
 1286SOL    HW1  810   2.552   1.161   1.083
 1286SOL    HW2  811   2.664   1.231   0.987
 1287SOL     OW  812   2.712   0.798   1.823
 1287SOL    HW1  813   2.708   0.874   1.888
 1287SOL    HW2  814   2.734   0.834   1.732
 1289SOL     OW  815   2.548   1.161   1.803
 1289SOL    HW1  816   2.608   1.240   1.817
 1289SOL    HW2  817   2.462   1.192   1.762
 1290SOL     OW  818   2.197   1.435   1.061
 1290SOL    HW1  819   2.119   1.404   1.008
 1290SOL    HW2  820   2.255   1.493   1.004
 1291SOL     OW  821   3.322   1.505   1.339
 1291SOL    HW1  822   3.346   1.599   1.365
 1291SOL    HW2  823   3.306   1.451   1.421
 1295SOL     OW  824   2.989   1.341   1.690
 1295SOL    HW1  825   3.036   1.341   1.778
 1295SOL    HW2  826   2.941   1.254   1.679
 1298SOL     OW  827   2.482   1.786   1.439
 1298SOL    HW1  828   2.390   1.769   1.474
 1298SOL    HW2  829   2.510   1.878   1.465
 1306SOL     OW  830   1.975   0.737   1.597
 1306SOL    HW1  831   2.063   0.724   1.642
 1306SOL    HW2  832   1.962   0.834   1.575
 1308SOL     OW  833   3.155   1.228   1.423
 1308SOL    HW1  834   3.192   1.155   1.365
 1308SOL    HW2  835   3.207   1.233   1.508
 1310SOL     OW  836   2.059   0.976   1.264
 1310SOL    HW1  837   2.148   0.931   1.250
 1310SOL    HW2  838   1.986   0.911   1.245
 1312SOL     OW  839   3.049   1.792   1.616
 1312SOL    HW1  840   3.073   1.852   1.540
 1312SOL    HW2  841   3.056   1.697   1.586
 1321SOL     OW  842   2.835   0.890   1.572
 1321SOL    HW1  843   2.881   0.806   1.543
 1321SOL    HW2  844   2.779   0.924   1.497
 1325SOL     OW  845   1.992   1.821   1.571
 1325SOL    HW1  846   1.982   1.806   1.670
 1325SOL    HW2  847   1.906   1.857   1.535
 1331SOL     OW  848   2.213   1.801   0.853
 1331SOL    HW1  849   2.263   1.715   0.859
 1331SOL    HW2  850   2.278   1.878   0.850
 1333SOL     OW  851   3.089   1.550   1.506
 1333SOL    HW1  852   3.095   1.473   1.570
 1333SOL    HW2  853   3.037   1.524   1.426
 1336SOL     OW  854   2.323   1.266   1.727
 1336SOL    HW1  855   2.273   1.267   1.641
 1336SOL    HW2  856   2.260   1.248   1.803
 1342SOL     OW  857   2.111   1.785   1.241
 1342SOL    HW1  858   2.168   1.720   1.291
 1342SOL    HW2  859   2.095   1.752   1.148
 1343SOL     OW  860   2.802   1.698   0.904
 1343SOL    HW1  861   2.882   1.641   0.925
 1343SOL    HW2  862   2.753   1.658   0.827
 1348SOL     OW  863   2.750   1.514   1.195
 1348SOL    HW1  864   2.727   1.489   1.101
 1348SOL    HW2  865   2.811   1.445   1.234
 1350SOL     OW  866   2.665   1.402   0.924
 1350SOL    HW1  867   2.755   1.416   0.882
 1350SOL    HW2  868   2.594   1.404   0.853
 1373SOL     OW  869   2.926   1.347   1.340
 1373SOL    HW1  870   2.846   1.324   1.395
 1373SOL    HW2  871   3.009   1.321   1.389
 1374SOL     OW  872   3.454   1.629   1.625
 1374SOL    HW1  873   3.481   1.663   1.535
 1374SOL    HW2  874   3.533   1.591   1.671
 1375SOL     OW  875   2.973   1.195   1.100
 1375SOL    HW1  876   2.933   1.239   1.181
 1375SOL    HW2  877   2.932   1.232   1.017
 1378SOL     OW  878   2.842   1.116   1.719
 1378SOL    HW1  879   2.743   1.122   1.729
 1378SOL    HW2  880   2.865   1.036   1.663
 1380SOL     OW  881   2.272   0.813   1.251
 1380SOL    HW1  882   2.358   0.825   1.301
 1380SOL    HW2  883   2.230   0.726   1.278
 1382SOL     OW  884   1.926   1.564   1.331
 1382SOL    HW1  885   1.880   1.646   1.297
 1382SOL    HW2  886   2.024   1.583   1.340
 1386SOL     OW  887   3.134   1.445   1.142
 1386SOL    HW1  888   3.181   1.458   1.229
 1386SOL    HW2  889   3.068   1.371   1.151
 1388SOL     OW  890   2.216   1.510   1.329
 1388SOL    HW1  891   2.195   1.466   1.242
 1388SOL    HW2  892   2.313   1.536   1.332
 1389SOL     OW  893   2.264   0.751   1.598
 1389SOL    HW1  894   2.332   0.806   1.551
 1389SOL    HW2  895   2.304   0.663   1.625
 1397SOL     OW  896   1.899   1.310   1.282
 1397SOL    HW1  897   1.952   1.261   1.350
 1397SOL    HW2  898   1.921   1.408   1.287
 1403SOL     OW  899   2.842   1.573   1.700
 1403SOL    HW1  900   2.822   1.617   1.612
 1403SOL    HW2  901   2.881   1.482   1.684
 1404SOL     OW  902   3.721   1.518   1.605
 1404SOL    HW1  903   3.735   1.545   1.510
 1404SOL    HW2  904   3.804   1.540   1.658
 1405SOL     OW  905   2.212   0.898   1.804
 1405SOL    HW1  906   2.288   0.942   1.852
 1405SOL    HW2  907   2.247   0.851   1.722
 1414SOL     OW  908   1.950   1.801   0.927
 1414SOL    HW1  909   1.908   1.715   0.900
 1414SOL    HW2  910   2.044   1.804   0.893
 1415SOL     OW  911   2.366   1.568   0.910
 1415SOL    HW1  912   2.432   1.642   0.919
 1415SOL    HW2  913   2.410   1.489   0.868
 1419SOL     OW  914   3.231   0.950   1.660
 1419SOL    HW1  915   3.270   1.039   1.680
 1419SOL    HW2  916   3.241   0.930   1.563
 1422SOL     OW  917   2.114   1.564   1.744
 1422SOL    HW1  918   2.084   1.621   1.820
 1422SOL    HW2  919   2.107   1.467   1.770
 1424SOL     OW  920   2.792   1.678   1.465
 1424SOL    HW1  921   2.768   1.660   1.370
 1424SOL    HW2  922   2.822   1.772   1.475
 1426SOL     OW  923   2.021   1.137   1.466
 1426SOL    HW1  924   2.043   1.076   1.542
 1426SOL    HW2  925   2.031   1.088   1.380
 1430SOL     OW  926   3.114   1.731   1.128
 1430SOL    HW1  927   3.198   1.736   1.074
 1430SOL    HW2  928   3.091   1.635   1.146
 1431SOL     OW  929   1.945   1.258   1.022
 1431SOL    HW1  930   1.940   1.257   1.122
 1431SOL    HW2  931   1.862   1.217   0.984
 1432SOL     OW  932   2.550   1.662   1.716
 1432SOL    HW1  933   2.494   1.743   1.725
 1432SOL    HW2  934   2.602   1.666   1.630
 1436SOL     OW  935   1.992   1.794   1.851
 1436SOL    HW1  936   1.951   1.720   1.904
 1436SOL    HW2  937   2.056   1.845   1.909
 1438SOL     OW  938   2.692   1.273   1.422
 1438SOL    HW1  939   2.687   1.306   1.517
 1438SOL    HW2  940   2.606   1.292   1.376
 1440SOL     OW  941   3.512   1.720   1.394
 1440SOL    HW1  942   3.565   1.730   1.310
 1440SOL    HW2  943   3.485   1.810   1.428
 1444SOL     OW  944   2.684   1.002   1.372
 1444SOL    HW1  945   2.724   1.001   1.280
 1444SOL    HW2  946   2.694   1.094   1.412
 1447SOL     OW  947   2.234   1.288   1.490
 1447SOL    HW1  948   2.221   1.381   1.456
 1447SOL    HW2  949   2.150   1.236   1.477
 1454SOL     OW  950   1.967   1.013   1.726
 1454SOL    HW1  951   1.890   0.980   1.780
 1454SOL    HW2  952   2.052   0.983   1.768
 1460SOL     OW  953   2.475   0.842   1.431
 1460SOL    HW1  954   2.531   0.923   1.414
 1460SOL    HW2  955   2.534   0.762   1.434
 1461SOL     OW  956   3.355   1.767   0.959
 1461SOL    HW1  957   3.388   1.831   0.890
 1461SOL    HW2  958   3.421   1.761   1.034
 1463SOL     OW  959   3.312   1.220   1.633
 1463SOL    HW1  960   3.303   1.210   1.732
 1463SOL    HW2  961   3.408   1.213   1.607
 1464SOL     OW  962   2.252   1.741   1.560
 1464SOL    HW1  963   2.161   1.782   1.558
 1464SOL    HW2  964   2.245   1.647   1.592
 1471SOL     OW  965   2.523   1.790   0.953
 1471SOL    HW1  966   2.477   1.878   0.940
 1471SOL    HW2  967   2.622   1.802   0.946
 1475SOL     OW  968   2.083   1.314   1.844
 1475SOL    HW1  969   2.018   1.241   1.823
 1475SOL    HW2  970   2.087   1.328   1.942
 1477SOL     OW  971   2.534   1.391   1.624
 1477SOL    HW1  972   2.456   1.341   1.662
 1477SOL    HW2  973   2.531   1.486   1.655
 1482SOL     OW  974   2.674   1.586   0.687
 1482SOL    HW1  975   2.706   1.596   0.593
 1482SOL    HW2  976   2.595   1.524   0.689
 1486SOL     OW  977   2.480   1.567   1.284
 1486SOL    HW1  978   2.475   1.649   1.341
 1486SOL    HW2  979   2.569   1.564   1.239
 1492SOL     OW  980   2.092   0.628   1.975
 1492SOL    HW1  981   1.999   0.626   2.012
 1492SOL    HW2  982   2.093   0.589   1.883
 1495SOL     OW  983   2.431   1.275   3.027
 1495SOL    HW1  984   2.338   1.268   2.990
 1495SOL    HW2  985   2.442   1.364   3.071
 1496SOL     OW  986   3.417   1.511   2.565
 1496SOL    HW1  987   3.360   1.495   2.646
 1496SOL    HW2  988   3.358   1.521   2.485
 1497SOL     OW  989   2.997   0.703   2.579
 1497SOL    HW1  990   3.054   0.781   2.554
 1497SOL    HW2  991   2.937   0.729   2.655
 1499SOL     OW  992   2.630   1.144   2.885
 1499SOL    HW1  993   2.552   1.161   2.945
 1499SOL    HW2  994   2.664   1.231   2.849
 1501SOL     OW  995   2.547   1.012   2.527
 1501SOL    HW1  996   2.616   0.996   2.597
 1501SOL    HW2  997   2.474   1.069   2.565
 1503SOL     OW  998   2.197   1.435   2.923
 1503SOL    HW1  999   2.119   1.404   2.870
 1503SOL    HW2 1000   2.255   1.493   2.866
 1504SOL     OW 1001   3.322   1.505   3.201
 1504SOL    HW1 1002   3.346   1.599   3.227
 1504SOL    HW2 1003   3.306   1.451   3.283
 1507SOL     OW 1004   2.093   1.713   2.345
 1507SOL    HW1 1005   2.127   1.790   2.399
 1507SOL    HW2 1006   2.137   1.713   2.255
 1508SOL     OW 1007   2.989   1.341   3.552
 1508SOL    HW1 1008   3.036   1.341   3.640
 1508SOL    HW2 1009   2.941   1.254   3.541
 1509SOL     OW 1010   2.092   1.434   2.400
 1509SOL    HW1 1011   2.066   1.530   2.400
 1509SOL    HW2 1012   2.021   1.380   2.445
 1510SOL     OW 1013   2.102   1.091   2.748
 1510SOL    HW1 1014   2.116   1.007   2.800
 1510SOL    HW2 1015   2.047   1.155   2.803
 1511SOL     OW 1016   2.482   1.786   3.301
 1511SOL    HW1 1017   2.390   1.769   3.336
 1511SOL    HW2 1018   2.510   1.878   3.327
 1512SOL     OW 1019   2.468   0.964   1.985
 1512SOL    HW1 1020   2.475   1.048   1.931
 1512SOL    HW2 1021   2.514   0.977   2.073
 1514SOL     OW 1022   1.984   0.643   2.425
 1514SOL    HW1 1023   1.939   0.555   2.442
 1514SOL    HW2 1024   1.983   0.697   2.509
 1515SOL     OW 1025   3.704   1.767   2.221
 1515SOL    HW1 1026   3.758   1.738   2.301
 1515SOL    HW2 1027   3.734   1.857   2.192
 1516SOL     OW 1028   1.889   1.596   1.979
 1516SOL    HW1 1029   1.870   1.500   2.000
 1516SOL    HW2 1030   1.856   1.654   2.054
 1518SOL     OW 1031   3.503   1.108   2.294
 1518SOL    HW1 1032   3.589   1.110   2.242
 1518SOL    HW2 1033   3.517   1.155   2.382
 1520SOL     OW 1034   2.475   1.365   2.588
 1520SOL    HW1 1035   2.426   1.278   2.597
 1520SOL    HW2 1036   2.452   1.408   2.501
 1521SOL     OW 1037   3.155   1.228   3.285
 1521SOL    HW1 1038   3.192   1.155   3.227
 1521SOL    HW2 1039   3.207   1.233   3.370
 1523SOL     OW 1040   2.059   0.976   3.126
 1523SOL    HW1 1041   2.148   0.931   3.112
 1523SOL    HW2 1042   1.986   0.911   3.107
 1524SOL     OW 1043   3.387   0.999   2.052
 1524SOL    HW1 1044   3.324   0.923   2.065
 1524SOL    HW2 1045   3.435   1.017   2.138
 1525SOL     OW 1046   3.049   1.792   3.478
 1525SOL    HW1 1047   3.073   1.852   3.402
 1525SOL    HW2 1048   3.056   1.697   3.448
 1527SOL     OW 1049   3.328   1.417   2.815
 1527SOL    HW1 1050   3.269   1.423   2.895
 1527SOL    HW2 1051   3.313   1.329   2.769
 1528SOL     OW 1052   3.529   1.714   2.434
 1528SOL    HW1 1053   3.488   1.691   2.346
 1528SOL    HW2 1054   3.511   1.640   2.499
 1529SOL     OW 1055   2.460   0.729   2.132
 1529SOL    HW1 1056   2.484   0.798   2.064
 1529SOL    HW2 1057   2.382   0.762   2.186
 1531SOL     OW 1058   3.438   1.662   2.169
 1531SOL    HW1 1059   3.527   1.708   2.172
 1531SOL    HW2 1060   3.417   1.638   2.074
 1536SOL     OW 1061   2.903   0.701   2.291
 1536SOL    HW1 1062   2.929   0.697   2.387
 1536SOL    HW2 1063   2.818   0.650   2.277
 1537SOL     OW 1064   1.938   0.811   2.651
 1537SOL    HW1 1065   2.037   0.799   2.660
 1537SOL    HW2 1066   1.914   0.906   2.672
 1538SOL     OW 1067   1.992   1.821   3.433
 1538SOL    HW1 1068   1.982   1.806   3.532
 1538SOL    HW2 1069   1.906   1.857   3.397
 1541SOL     OW 1070   3.224   1.144   2.407
 1541SOL    HW1 1071   3.307   1.115   2.359
 1541SOL    HW2 1072   3.175   1.211   2.351
 1543SOL     OW 1073   2.870   1.456   2.339
 1543SOL    HW1 1074   2.824   1.528   2.287
 1543SOL    HW2 1075   2.866   1.476   2.437
 1544SOL     OW 1076   2.213   1.801   2.715
 1544SOL    HW1 1077   2.263   1.715   2.721
 1544SOL    HW2 1078   2.278   1.878   2.712
 1546SOL     OW 1079   3.089   1.550   3.368
 1546SOL    HW1 1080   3.095   1.473   3.432
 1546SOL    HW2 1081   3.037   1.524   3.288
 1547SOL     OW 1082   2.183   0.943   2.104
 1547SOL    HW1 1083   2.265   0.982   2.062
 1547SOL    HW2 1084   2.156   0.861   2.055
 1549SOL     OW 1085   2.323   1.266   3.589
 1549SOL    HW1 1086   2.273   1.267   3.503
 1549SOL    HW2 1087   2.260   1.248   3.665
 1550SOL     OW 1088   2.973   1.776   2.099
 1550SOL    HW1 1089   2.913   1.714   2.149
 1550SOL    HW2 1090   3.004   1.732   2.014
 1552SOL     OW 1091   3.494   1.377   1.943
 1552SOL    HW1 1092   3.462   1.471   1.933
 1552SOL    HW2 1093   3.418   1.314   1.931
 1553SOL     OW 1094   2.326   1.743   2.185
 1553SOL    HW1 1095   2.359   1.782   2.271
 1553SOL    HW2 1096   2.402   1.736   2.120
 1555SOL     OW 1097   2.111   1.785   3.103
 1555SOL    HW1 1098   2.168   1.720   3.153
 1555SOL    HW2 1099   2.095   1.752   3.010
 1556SOL     OW 1100   2.802   1.698   2.766
 1556SOL    HW1 1101   2.882   1.641   2.787
 1556SOL    HW2 1102   2.753   1.658   2.689
 1557SOL     OW 1103   2.244   0.700   2.342
 1557SOL    HW1 1104   2.289   0.610   2.339
 1557SOL    HW2 1105   2.150   0.689   2.375
 1561SOL     OW 1106   2.750   1.514   3.057
 1561SOL    HW1 1107   2.727   1.489   2.963
 1561SOL    HW2 1108   2.811   1.445   3.096
 1563SOL     OW 1109   2.665   1.402   2.786
 1563SOL    HW1 1110   2.755   1.416   2.744
 1563SOL    HW2 1111   2.594   1.404   2.715
 1566SOL     OW 1112   3.296   1.188   1.903
 1566SOL    HW1 1113   3.328   1.112   1.960
 1566SOL    HW2 1114   3.204   1.215   1.933
 1570SOL     OW 1115   3.089   1.570   2.655
 1570SOL    HW1 1116   3.110   1.644   2.590
 1570SOL    HW2 1117   3.157   1.570   2.728
 1571SOL     OW 1118   2.321   1.152   2.603
 1571SOL    HW1 1119   2.250   1.125   2.668
 1571SOL    HW2 1120   2.295   1.124   2.510
 1572SOL     OW 1121   3.133   1.797   2.453
 1572SOL    HW1 1122   3.177   1.861   2.389
 1572SOL    HW2 1123   3.083   1.849   2.523
 1578SOL     OW 1124   3.291   1.173   2.729
 1578SOL    HW1 1125   3.236   1.089   2.722
 1578SOL    HW2 1126   3.317   1.202   2.637
 1581SOL     OW 1127   2.350   1.385   2.036
 1581SOL    HW1 1128   2.263   1.370   2.083
 1581SOL    HW2 1129   2.333   1.411   1.941
 1582SOL     OW 1130   3.526   1.280   2.519
 1582SOL    HW1 1131   3.625   1.288   2.533
 1582SOL    HW2 1132   3.481   1.364   2.550
 1586SOL     OW 1133   2.926   1.347   3.202
 1586SOL    HW1 1134   2.846   1.324   3.257
 1586SOL    HW2 1135   3.009   1.321   3.251
 1588SOL     OW 1136   2.973   1.195   2.962
 1588SOL    HW1 1137   2.933   1.239   3.043
 1588SOL    HW2 1138   2.932   1.232   2.879
 1592SOL     OW 1139   2.567   1.050   2.230
 1592SOL    HW1 1140   2.553   1.057   2.329
 1592SOL    HW2 1141   2.651   0.999   2.212
 1593SOL     OW 1142   2.272   0.813   3.113
 1593SOL    HW1 1143   2.358   0.825   3.163
 1593SOL    HW2 1144   2.230   0.726   3.140
 1595SOL     OW 1145   1.926   1.564   3.193
 1595SOL    HW1 1146   1.880   1.646   3.159
 1595SOL    HW2 1147   2.024   1.583   3.202
 1596SOL     OW 1148   2.229   1.100   2.363
 1596SOL    HW1 1149   2.222   1.183   2.307
 1596SOL    HW2 1150   2.233   1.020   2.303
 1598SOL     OW 1151   3.114   1.348   2.250
 1598SOL    HW1 1152   3.164   1.425   2.290
 1598SOL    HW2 1153   3.019   1.350   2.282
 1599SOL     OW 1154   3.134   1.445   3.004
 1599SOL    HW1 1155   3.181   1.458   3.091
 1599SOL    HW2 1156   3.068   1.371   3.013
 1601SOL     OW 1157   2.216   1.510   3.191
 1601SOL    HW1 1158   2.195   1.466   3.104
 1601SOL    HW2 1159   2.313   1.536   3.194
 1606SOL     OW 1160   2.435   0.870   2.891
 1606SOL    HW1 1161   2.479   0.959   2.882
 1606SOL    HW2 1162   2.372   0.870   2.968
 1610SOL     OW 1163   1.899   1.310   3.144
 1610SOL    HW1 1164   1.952   1.261   3.212
 1610SOL    HW2 1165   1.921   1.408   3.149
 1611SOL     OW 1166   2.594   0.634   2.926
 1611SOL    HW1 1167   2.653   0.608   2.850
 1611SOL    HW2 1168   2.566   0.730   2.915
 1615SOL     OW 1169   2.885   0.766   2.828
 1615SOL    HW1 1170   2.900   0.787   2.924
 1615SOL    HW2 1171   2.855   0.671   2.819
 1616SOL     OW 1172   2.842   1.573   3.562
 1616SOL    HW1 1173   2.822   1.617   3.474
 1616SOL    HW2 1174   2.881   1.482   3.546
 1620SOL     OW 1175   3.165   0.838   1.904
 1620SOL    HW1 1176   3.199   0.745   1.919
 1620SOL    HW2 1177   3.183   0.865   1.809
 1621SOL     OW 1178   2.930   1.333   2.711
 1621SOL    HW1 1179   2.937   1.249   2.656
 1621SOL    HW2 1180   2.992   1.402   2.675
 1622SOL     OW 1181   2.181   0.810   2.811
 1622SOL    HW1 1182   2.274   0.846   2.816
 1622SOL    HW2 1183   2.175   0.725   2.863
 1626SOL     OW 1184   1.870   1.326   2.062
 1626SOL    HW1 1185   1.777   1.347   2.031
 1626SOL    HW2 1186   1.880   1.227   2.075
 1627SOL     OW 1187   1.950   1.801   2.789
 1627SOL    HW1 1188   1.908   1.715   2.762
 1627SOL    HW2 1189   2.044   1.804   2.755
 1628SOL     OW 1190   2.366   1.568   2.772
 1628SOL    HW1 1191   2.432   1.642   2.781
 1628SOL    HW2 1192   2.410   1.489   2.730
 1629SOL     OW 1193   2.864   0.796   3.100
 1629SOL    HW1 1194   2.905   0.764   3.186
 1629SOL    HW2 1195   2.768   0.769   3.097
 1633SOL     OW 1196   2.677   0.572   2.187
 1633SOL    HW1 1197   2.684   0.483   2.141
 1633SOL    HW2 1198   2.583   0.606   2.179
 1635SOL     OW 1199   2.114   1.564   3.606
 1635SOL    HW1 1200   2.084   1.621   3.682
 1635SOL    HW2 1201   2.107   1.467   3.632
 1637SOL     OW 1202   2.792   1.678   3.327
 1637SOL    HW1 1203   2.768   1.660   3.232
 1637SOL    HW2 1204   2.822   1.772   3.337
 1638SOL     OW 1205   2.335   0.500   2.053
 1638SOL    HW1 1206   2.396   0.580   2.057
 1638SOL    HW2 1207   2.240   0.531   2.060
 1639SOL     OW 1208   2.021   1.137   3.328
 1639SOL    HW1 1209   2.043   1.076   3.404
 1639SOL    HW2 1210   2.031   1.088   3.242
 1640SOL     OW 1211   3.209   1.059   3.096
 1640SOL    HW1 1212   3.233   0.996   3.022
 1640SOL    HW2 1213   3.119   1.099   3.078
 1641SOL     OW 1214   3.164   0.855   2.171
 1641SOL    HW1 1215   3.078   0.824   2.213
 1641SOL    HW2 1216   3.160   0.841   2.072
 1642SOL     OW 1217   3.621   1.747   3.016
 1642SOL    HW1 1218   3.682   1.777   2.943
 1642SOL    HW2 1219   3.583   1.658   2.994
 1643SOL     OW 1220   3.114   1.731   2.990
 1643SOL    HW1 1221   3.198   1.736   2.936
 1643SOL    HW2 1222   3.091   1.635   3.008
 1644SOL     OW 1223   1.945   1.258   2.884
 1644SOL    HW1 1224   1.940   1.257   2.984
 1644SOL    HW2 1225   1.862   1.217   2.846
 1645SOL     OW 1226   2.550   1.662   3.578
 1645SOL    HW1 1227   2.494   1.743   3.587
 1645SOL    HW2 1228   2.602   1.666   3.492
 1647SOL     OW 1229   3.250   1.573   2.339
 1647SOL    HW1 1230   3.317   1.585   2.265
 1647SOL    HW2 1231   3.210   1.662   2.362
 1648SOL     OW 1232   1.992   1.794   3.713
 1648SOL    HW1 1233   1.951   1.720   3.766
 1648SOL    HW2 1234   2.056   1.845   3.771
 1649SOL     OW 1235   3.142   0.927   2.534
 1649SOL    HW1 1236   3.202   0.846   2.536
 1649SOL    HW2 1237   3.182   0.996   2.474
 1650SOL     OW 1238   2.692   1.273   3.284
 1650SOL    HW1 1239   2.687   1.306   3.379
 1650SOL    HW2 1240   2.606   1.292   3.238
 1651SOL     OW 1241   2.534   1.616   2.016
 1651SOL    HW1 1242   2.543   1.626   1.917
 1651SOL    HW2 1243   2.494   1.527   2.037
 1652SOL     OW 1244   3.512   1.720   3.256
 1652SOL    HW1 1245   3.565   1.730   3.172
 1652SOL    HW2 1246   3.485   1.810   3.290
 1655SOL     OW 1247   3.056   1.612   1.893
 1655SOL    HW1 1248   3.062   1.519   1.930
 1655SOL    HW2 1249   2.997   1.612   1.813
 1656SOL     OW 1250   2.684   1.002   3.234
 1656SOL    HW1 1251   2.724   1.001   3.142
 1656SOL    HW2 1252   2.694   1.094   3.274
 1657SOL     OW 1253   2.778   0.910   2.153
 1657SOL    HW1 1254   2.841   0.948   2.085
 1657SOL    HW2 1255   2.818   0.827   2.192
 1658SOL     OW 1256   3.366   1.607   1.906
 1658SOL    HW1 1257   3.274   1.644   1.913
 1658SOL    HW2 1258   3.404   1.627   1.816
 1659SOL     OW 1259   2.234   1.288   3.352
 1659SOL    HW1 1260   2.221   1.381   3.318
 1659SOL    HW2 1261   2.150   1.236   3.339
 1660SOL     OW 1262   3.476   1.292   3.151
 1660SOL    HW1 1263   3.536   1.295   3.231
 1660SOL    HW2 1264   3.401   1.356   3.164
 1661SOL     OW 1265   2.901   1.098   2.558
 1661SOL    HW1 1266   2.831   1.051   2.612
 1661SOL    HW2 1267   2.960   1.030   2.515
 1663SOL     OW 1268   2.452   1.487   2.353
 1663SOL    HW1 1269   2.494   1.429   2.283
 1663SOL    HW2 1270   2.408   1.566   2.309
 1665SOL     OW 1271   2.117   1.348   2.152
 1665SOL    HW1 1272   2.021   1.349   2.125
 1665SOL    HW2 1273   2.129   1.401   2.236
 1671SOL     OW 1274   3.045   1.335   1.981
 1671SOL    HW1 1275   2.946   1.324   1.983
 1671SOL    HW2 1276   3.079   1.350   2.074
 1672SOL     OW 1277   2.475   0.842   3.293
 1672SOL    HW1 1278   2.531   0.923   3.276
 1672SOL    HW2 1279   2.534   0.762   3.296
 1673SOL     OW 1280   3.355   1.767   2.821
 1673SOL    HW1 1281   3.388   1.831   2.752
 1673SOL    HW2 1282   3.421   1.761   2.896
 1676SOL     OW 1283   2.252   1.741   3.422
 1676SOL    HW1 1284   2.161   1.782   3.420
 1676SOL    HW2 1285   2.245   1.647   3.454
 1679SOL     OW 1286   2.456   0.745   2.514
 1679SOL    HW1 1287   2.506   0.830   2.495
 1679SOL    HW2 1288   2.368   0.747   2.466
 1682SOL     OW 1289   2.721   1.374   1.878
 1682SOL    HW1 1290   2.675   1.389   1.966
 1682SOL    HW2 1291   2.765   1.459   1.848
 1683SOL     OW 1292   2.523   1.790   2.815
 1683SOL    HW1 1293   2.477   1.878   2.802
 1683SOL    HW2 1294   2.622   1.802   2.808
 1684SOL     OW 1295   2.721   0.956   2.723
 1684SOL    HW1 1296   2.775   0.887   2.771
 1684SOL    HW2 1297   2.689   1.025   2.789
 1685SOL     OW 1298   2.945   0.984   1.949
 1685SOL    HW1 1299   2.922   1.037   1.867
 1685SOL    HW2 1300   3.026   0.928   1.930
 1686SOL     OW 1301   3.723   1.569   2.713
 1686SOL    HW1 1302   3.652   1.557   2.643
 1686SOL    HW2 1303   3.724   1.490   2.773
 1687SOL     OW 1304   2.083   1.314   3.706
 1687SOL    HW1 1305   2.018   1.241   3.685
 1687SOL    HW2 1306   2.087   1.328   3.804
 1688SOL     OW 1307   1.941   1.240   2.515
 1688SOL    HW1 1308   1.940   1.193   2.603
 1688SOL    HW2 1309   2.023   1.212   2.464
 1689SOL     OW 1310   2.534   1.391   3.486
 1689SOL    HW1 1311   2.456   1.341   3.524
 1689SOL    HW2 1312   2.531   1.486   3.517
 1692SOL     OW 1313   3.567   1.487   2.966
 1692SOL    HW1 1314   3.474   1.462   2.939
 1692SOL    HW2 1315   3.593   1.437   3.048
 1694SOL     OW 1316   2.674   1.586   2.549
 1694SOL    HW1 1317   2.706   1.596   2.455
 1694SOL    HW2 1318   2.595   1.524   2.551
 1697SOL     OW 1319   2.632   1.330   2.163
 1697SOL    HW1 1320   2.586   1.243   2.180
 1697SOL    HW2 1321   2.723   1.327   2.204
 1698SOL     OW 1322   2.480   1.567   3.146
 1698SOL    HW1 1323   2.475   1.649   3.203
 1698SOL    HW2 1324   2.569   1.564   3.101
 1702SOL     OW 1325   1.901   1.077   2.162
 1702SOL    HW1 1326   2.000   1.066   2.153
 1702SOL    HW2 1327   1.861   0.991   2.194
 1703SOL     OW 1328   2.737   1.646   2.199
 1703SOL    HW1 1329   2.660   1.611   2.145
 1703SOL    HW2 1330   2.705   1.717   2.261
 1716SOL     OW 1331   1.889   1.596   3.841
 1716SOL    HW1 1332   1.870   1.500   3.862
 1716SOL    HW2 1333   1.856   1.654   3.916
 1771SOL     OW 1334   2.534   1.616   3.878
 1771SOL    HW1 1335   2.543   1.626   3.779
 1771SOL    HW2 1336   2.494   1.527   3.899
 1774SOL     OW 1337   3.056   1.612   3.755
 1774SOL    HW1 1338   3.062   1.519   3.792
 1774SOL    HW2 1339   2.997   1.612   3.675
 1784SOL     OW 1340   2.721   1.374   3.740
 1784SOL    HW1 1341   2.675   1.389   3.828
 1784SOL    HW2 1342   2.765   1.459   3.710
 1798SOL     OW 1343   2.087   2.137   0.996
 1798SOL    HW1 1344   2.122   2.120   1.088
 1798SOL    HW2 1345   1.999   2.092   0.984
 1799SOL     OW 1346   1.881   2.230   0.647
 1799SOL    HW1 1347   1.799   2.273   0.686
 1799SOL    HW2 1348   1.853   2.157   0.584
 1800SOL     OW 1349   2.431   3.137   1.165
 1800SOL    HW1 1350   2.338   3.130   1.128
 1800SOL    HW2 1351   2.442   3.226   1.209
 1802SOL     OW 1352   2.997   2.565   0.717
 1802SOL    HW1 1353   3.054   2.643   0.692
 1802SOL    HW2 1354   2.937   2.591   0.793
 1804SOL     OW 1355   2.630   3.006   1.023
 1804SOL    HW1 1356   2.552   3.023   1.083
 1804SOL    HW2 1357   2.664   3.093   0.987
 1805SOL     OW 1358   2.712   2.660   1.823
 1805SOL    HW1 1359   2.708   2.736   1.888
 1805SOL    HW2 1360   2.734   2.696   1.732
 1806SOL     OW 1361   2.547   2.874   0.665
 1806SOL    HW1 1362   2.616   2.858   0.735
 1806SOL    HW2 1363   2.474   2.931   0.703
 1807SOL     OW 1364   2.548   3.023   1.803
 1807SOL    HW1 1365   2.608   3.102   1.817
 1807SOL    HW2 1366   2.462   3.054   1.762
 1808SOL     OW 1367   2.197   3.297   1.061
 1808SOL    HW1 1368   2.119   3.266   1.008
 1808SOL    HW2 1369   2.255   3.355   1.004
 1809SOL     OW 1370   3.322   3.367   1.339
 1809SOL    HW1 1371   3.346   3.461   1.365
 1809SOL    HW2 1372   3.306   3.313   1.421
 1810SOL     OW 1373   2.300   2.254   1.499
 1810SOL    HW1 1374   2.382   2.198   1.508
 1810SOL    HW2 1375   2.219   2.196   1.503
 1813SOL     OW 1376   2.989   3.203   1.690
 1813SOL    HW1 1377   3.036   3.203   1.778
 1813SOL    HW2 1378   2.941   3.116   1.679
 1815SOL     OW 1379   2.102   2.953   0.886
 1815SOL    HW1 1380   2.116   2.869   0.938
 1815SOL    HW2 1381   2.047   3.017   0.941
 1816SOL     OW 1382   2.482   3.648   1.439
 1816SOL    HW1 1383   2.390   3.631   1.474
 1816SOL    HW2 1384   2.510   3.740   1.465
 1818SOL     OW 1385   3.456   1.976   1.480
 1818SOL    HW1 1386   3.438   2.043   1.408
 1818SOL    HW2 1387   3.453   2.022   1.569
 1819SOL     OW 1388   1.984   2.505   0.563
 1819SOL    HW1 1389   1.939   2.417   0.580
 1819SOL    HW2 1390   1.983   2.559   0.647
 1824SOL     OW 1391   1.975   2.599   1.597
 1824SOL    HW1 1392   2.063   2.586   1.642
 1824SOL    HW2 1393   1.962   2.696   1.575
 1826SOL     OW 1394   3.155   3.090   1.423
 1826SOL    HW1 1395   3.192   3.017   1.365
 1826SOL    HW2 1396   3.207   3.095   1.508
 1828SOL     OW 1397   2.059   2.838   1.264
 1828SOL    HW1 1398   2.148   2.793   1.250
 1828SOL    HW2 1399   1.986   2.773   1.245
 1830SOL     OW 1400   3.049   3.654   1.616
 1830SOL    HW1 1401   3.073   3.714   1.540
 1830SOL    HW2 1402   3.056   3.559   1.586
 1831SOL     OW 1403   2.179   2.113   1.801
 1831SOL    HW1 1404   2.250   2.184   1.807
 1831SOL    HW2 1405   2.091   2.152   1.829
 1835SOL     OW 1406   3.143   2.207   0.944
 1835SOL    HW1 1407   3.057   2.157   0.931
 1835SOL    HW2 1408   3.205   2.153   1.000
 1837SOL     OW 1409   2.669   2.467   1.465
 1837SOL    HW1 1410   2.622   2.464   1.554
 1837SOL    HW2 1411   2.618   2.412   1.399
 1838SOL     OW 1412   3.256   2.331   1.674
 1838SOL    HW1 1413   3.236   2.374   1.762
 1838SOL    HW2 1414   3.334   2.269   1.683
 1839SOL     OW 1415   2.835   2.752   1.572
 1839SOL    HW1 1416   2.881   2.668   1.543
 1839SOL    HW2 1417   2.779   2.786   1.497
 1840SOL     OW 1418   2.853   2.272   1.242
 1840SOL    HW1 1419   2.776   2.306   1.296
 1840SOL    HW2 1420   2.819   2.221   1.163
 1842SOL     OW 1421   1.938   2.673   0.789
 1842SOL    HW1 1422   2.037   2.661   0.798
 1842SOL    HW2 1423   1.914   2.768   0.810
 1843SOL     OW 1424   1.992   3.683   1.571
 1843SOL    HW1 1425   1.982   3.668   1.670
 1843SOL    HW2 1426   1.906   3.719   1.535
 1845SOL     OW 1427   3.581   2.447   1.831
 1845SOL    HW1 1428   3.555   2.536   1.795
 1845SOL    HW2 1429   3.579   2.379   1.758
 1847SOL     OW 1430   2.412   2.058   0.885
 1847SOL    HW1 1431   2.407   2.053   0.985
 1847SOL    HW2 1432   2.414   2.154   0.856
 1851SOL     OW 1433   3.089   3.412   1.506
 1851SOL    HW1 1434   3.095   3.335   1.570
 1851SOL    HW2 1435   3.037   3.386   1.426
 1854SOL     OW 1436   2.323   3.128   1.727
 1854SOL    HW1 1437   2.273   3.129   1.641
 1854SOL    HW2 1438   2.260   3.110   1.803
 1856SOL     OW 1439   2.064   2.147   1.498
 1856SOL    HW1 1440   1.984   2.207   1.485
 1856SOL    HW2 1441   2.054   2.098   1.584
 1860SOL     OW 1442   2.111   3.647   1.241
 1860SOL    HW1 1443   2.168   3.582   1.291
 1860SOL    HW2 1444   2.095   3.614   1.148
 1863SOL     OW 1445   3.409   2.084   1.729
 1863SOL    HW1 1446   3.404   2.121   1.821
 1863SOL    HW2 1447   3.337   2.015   1.717
 1864SOL     OW 1448   2.643   2.126   1.749
 1864SOL    HW1 1449   2.710   2.065   1.792
 1864SOL    HW2 1450   2.570   2.145   1.814
 1865SOL     OW 1451   2.750   3.376   1.195
 1865SOL    HW1 1452   2.727   3.351   1.101
 1865SOL    HW2 1453   2.811   3.307   1.234
 1866SOL     OW 1454   3.213   2.452   1.433
 1866SOL    HW1 1455   3.241   2.409   1.518
 1866SOL    HW2 1456   3.238   2.548   1.434
 1867SOL     OW 1457   2.665   3.264   0.924
 1867SOL    HW1 1458   2.755   3.278   0.882
 1867SOL    HW2 1459   2.594   3.266   0.853
 1868SOL     OW 1460   2.784   2.365   0.899
 1868SOL    HW1 1461   2.759   2.356   0.803
 1868SOL    HW2 1462   2.832   2.283   0.930
 1873SOL     OW 1463   2.938   2.545   1.464
 1873SOL    HW1 1464   2.858   2.484   1.467
 1873SOL    HW2 1465   3.019   2.492   1.440
 1875SOL     OW 1466   2.321   3.014   0.741
 1875SOL    HW1 1467   2.250   2.987   0.806
 1875SOL    HW2 1468   2.295   2.986   0.648
 1878SOL     OW 1469   1.940   2.418   1.386
 1878SOL    HW1 1470   2.032   2.417   1.345
 1878SOL    HW2 1471   1.934   2.492   1.453
 1879SOL     OW 1472   2.423   2.084   1.147
 1879SOL    HW1 1473   2.461   2.000   1.184
 1879SOL    HW2 1474   2.335   2.103   1.191
 1880SOL     OW 1475   2.728   2.316   0.642
 1880SOL    HW1 1476   2.696   2.388   0.580
 1880SOL    HW2 1477   2.752   2.235   0.589
 1881SOL     OW 1478   2.879   1.901   0.753
 1881SOL    HW1 1479   2.807   1.906   0.684
 1881SOL    HW2 1480   2.855   1.832   0.822
 1883SOL     OW 1481   3.328   2.452   0.992
 1883SOL    HW1 1482   3.298   2.357   0.999
 1883SOL    HW2 1483   3.401   2.468   1.058
 1889SOL     OW 1484   3.616   3.085   1.588
 1889SOL    HW1 1485   3.707   3.046   1.575
 1889SOL    HW2 1486   3.624   3.181   1.612
 1890SOL     OW 1487   2.926   3.209   1.340
 1890SOL    HW1 1488   2.846   3.186   1.395
 1890SOL    HW2 1489   3.009   3.183   1.389
 1892SOL     OW 1490   2.973   3.057   1.100
 1892SOL    HW1 1491   2.933   3.101   1.181
 1892SOL    HW2 1492   2.932   3.094   1.017
 1894SOL     OW 1493   2.777   1.951   1.402
 1894SOL    HW1 1494   2.802   1.931   1.307
 1894SOL    HW2 1495   2.849   2.007   1.444
 1895SOL     OW 1496   2.842   2.978   1.719
 1895SOL    HW1 1497   2.743   2.984   1.729
 1895SOL    HW2 1498   2.865   2.898   1.663
 1897SOL     OW 1499   2.272   2.675   1.251
 1897SOL    HW1 1500   2.358   2.687   1.301
 1897SOL    HW2 1501   2.230   2.588   1.278
 1898SOL     OW 1502   3.136   2.248   1.262
 1898SOL    HW1 1503   3.157   2.322   1.326
 1898SOL    HW2 1504   3.047   2.265   1.219
 1899SOL     OW 1505   1.926   3.426   1.331
 1899SOL    HW1 1506   1.880   3.508   1.297
 1899SOL    HW2 1507   2.024   3.445   1.340
 1901SOL     OW 1508   2.428   2.399   0.865
 1901SOL    HW1 1509   2.440   2.465   0.791
 1901SOL    HW2 1510   2.474   2.433   0.948
 1903SOL     OW 1511   3.134   3.307   1.142
 1903SOL    HW1 1512   3.181   3.320   1.229
 1903SOL    HW2 1513   3.068   3.233   1.151
 1905SOL     OW 1514   2.216   3.372   1.329
 1905SOL    HW1 1515   2.195   3.328   1.242
 1905SOL    HW2 1516   2.313   3.398   1.332
 1906SOL     OW 1517   2.264   2.613   1.598
 1906SOL    HW1 1518   2.332   2.668   1.551
 1906SOL    HW2 1519   2.304   2.525   1.625
 1907SOL     OW 1520   3.449   2.641   1.670
 1907SOL    HW1 1521   3.357   2.679   1.665
 1907SOL    HW2 1522   3.509   2.688   1.605
 1908SOL     OW 1523   2.875   1.967   1.770
 1908SOL    HW1 1524   2.881   2.052   1.718
 1908SOL    HW2 1525   2.907   1.891   1.713
 1909SOL     OW 1526   2.366   1.912   1.740
 1909SOL    HW1 1527   2.324   1.855   1.670
 1909SOL    HW2 1528   2.300   1.981   1.772
 1910SOL     OW 1529   2.435   2.732   1.029
 1910SOL    HW1 1530   2.479   2.821   1.020
 1910SOL    HW2 1531   2.372   2.732   1.106
 1911SOL     OW 1532   3.222   2.724   1.045
 1911SOL    HW1 1533   3.147   2.724   0.979
 1911SOL    HW2 1534   3.259   2.632   1.054
 1913SOL     OW 1535   2.169   2.075   1.231
 1913SOL    HW1 1536   2.146   2.112   1.321
 1913SOL    HW2 1537   2.139   1.980   1.225
 1914SOL     OW 1538   1.899   3.172   1.282
 1914SOL    HW1 1539   1.952   3.123   1.350
 1914SOL    HW2 1540   1.921   3.270   1.287
 1915SOL     OW 1541   2.594   2.496   1.064
 1915SOL    HW1 1542   2.653   2.470   0.988
 1915SOL    HW2 1543   2.566   2.592   1.053
 1916SOL     OW 1544   3.590   2.797   1.854
 1916SOL    HW1 1545   3.544   2.790   1.765
 1916SOL    HW2 1546   3.528   2.841   1.920
 1917SOL     OW 1547   2.169   1.925   0.618
 1917SOL    HW1 1548   2.158   2.019   0.651
 1917SOL    HW2 1549   2.164   1.862   0.695
 1919SOL     OW 1550   2.885   2.628   0.966
 1919SOL    HW1 1551   2.900   2.649   1.062
 1919SOL    HW2 1552   2.855   2.533   0.957
 1920SOL     OW 1553   2.842   3.435   1.700
 1920SOL    HW1 1554   2.822   3.479   1.612
 1920SOL    HW2 1555   2.881   3.344   1.684
 1922SOL     OW 1556   2.212   2.760   1.804
 1922SOL    HW1 1557   2.288   2.804   1.852
 1922SOL    HW2 1558   2.247   2.713   1.722
 1926SOL     OW 1559   2.181   2.672   0.949
 1926SOL    HW1 1560   2.274   2.708   0.954
 1926SOL    HW2 1561   2.175   2.587   1.001
 1927SOL     OW 1562   2.201   2.371   1.006
 1927SOL    HW1 1563   2.149   2.288   0.989
 1927SOL    HW2 1564   2.278   2.376   0.942
 1928SOL     OW 1565   3.000   2.242   1.678
 1928SOL    HW1 1566   2.955   2.305   1.742
 1928SOL    HW2 1567   3.093   2.273   1.661
 1929SOL     OW 1568   3.022   2.069   1.477
 1929SOL    HW1 1569   3.022   2.133   1.554
 1929SOL    HW2 1570   3.050   2.117   1.394
 1932SOL     OW 1571   2.366   3.430   0.910
 1932SOL    HW1 1572   2.432   3.504   0.919
 1932SOL    HW2 1573   2.410   3.351   0.868
 1933SOL     OW 1574   2.864   2.658   1.238
 1933SOL    HW1 1575   2.905   2.626   1.324
 1933SOL    HW2 1576   2.768   2.631   1.235
 1934SOL     OW 1577   1.902   2.406   1.114
 1934SOL    HW1 1578   1.987   2.373   1.073
 1934SOL    HW2 1579   1.915   2.421   1.212
 1935SOL     OW 1580   2.051   2.382   1.722
 1935SOL    HW1 1581   2.110   2.342   1.652
 1935SOL    HW2 1582   1.993   2.453   1.681
 1936SOL     OW 1583   3.231   2.812   1.660
 1936SOL    HW1 1584   3.270   2.901   1.680
 1936SOL    HW2 1585   3.241   2.792   1.563
 1938SOL     OW 1586   3.519   2.466   1.206
 1938SOL    HW1 1587   3.481   2.397   1.268
 1938SOL    HW2 1588   3.601   2.430   1.162
 1939SOL     OW 1589   2.114   3.426   1.744
 1939SOL    HW1 1590   2.084   3.483   1.820
 1939SOL    HW2 1591   2.107   3.329   1.770
 1940SOL     OW 1592   2.533   2.326   1.269
 1940SOL    HW1 1593   2.499   2.237   1.239
 1940SOL    HW2 1594   2.559   2.380   1.189
 1941SOL     OW 1595   2.792   3.540   1.465
 1941SOL    HW1 1596   2.768   3.522   1.370
 1941SOL    HW2 1597   2.822   3.634   1.475
 1943SOL     OW 1598   2.021   2.999   1.466
 1943SOL    HW1 1599   2.043   2.938   1.542
 1943SOL    HW2 1600   2.031   2.950   1.380
 1944SOL     OW 1601   3.209   2.921   1.234
 1944SOL    HW1 1602   3.233   2.858   1.160
 1944SOL    HW2 1603   3.119   2.961   1.216
 1948SOL     OW 1604   1.945   3.120   1.022
 1948SOL    HW1 1605   1.940   3.119   1.122
 1948SOL    HW2 1606   1.862   3.079   0.984
 1949SOL     OW 1607   2.550   3.524   1.716
 1949SOL    HW1 1608   2.494   3.605   1.725
 1949SOL    HW2 1609   2.602   3.528   1.630
 1953SOL     OW 1610   1.992   3.656   1.851
 1953SOL    HW1 1611   1.951   3.582   1.904
 1953SOL    HW2 1612   2.056   3.707   1.909
 1955SOL     OW 1613   2.692   3.135   1.422
 1955SOL    HW1 1614   2.687   3.168   1.517
 1955SOL    HW2 1615   2.606   3.154   1.376
 1959SOL     OW 1616   2.125   2.188   0.720
 1959SOL    HW1 1617   2.046   2.239   0.686
 1959SOL    HW2 1618   2.116   2.173   0.818
 1961SOL     OW 1619   2.684   2.864   1.372
 1961SOL    HW1 1620   2.724   2.863   1.280
 1961SOL    HW2 1621   2.694   2.956   1.412
 1964SOL     OW 1622   2.234   3.150   1.490
 1964SOL    HW1 1623   2.221   3.243   1.456
 1964SOL    HW2 1624   2.150   3.098   1.477
 1965SOL     OW 1625   3.476   3.154   1.289
 1965SOL    HW1 1626   3.536   3.157   1.369
 1965SOL    HW2 1627   3.401   3.218   1.302
 1967SOL     OW 1628   2.876   2.098   0.971
 1967SOL    HW1 1629   2.868   2.062   0.878
 1967SOL    HW2 1630   2.874   2.022   1.036
 1969SOL     OW 1631   3.571   2.247   1.381
 1969SOL    HW1 1632   3.644   2.316   1.385
 1969SOL    HW2 1633   3.599   2.172   1.322
 1971SOL     OW 1634   1.967   2.875   1.726
 1971SOL    HW1 1635   1.890   2.842   1.780
 1971SOL    HW2 1636   2.052   2.845   1.768
 1972SOL     OW 1637   2.534   2.065   1.489
 1972SOL    HW1 1638   2.624   2.049   1.449
 1972SOL    HW2 1639   2.542   2.070   1.588
 1974SOL     OW 1640   3.302   2.718   1.398
 1974SOL    HW1 1641   3.245   2.770   1.335
 1974SOL    HW2 1642   3.398   2.730   1.374
 1977SOL     OW 1643   2.475   2.704   1.431
 1977SOL    HW1 1644   2.531   2.785   1.414
 1977SOL    HW2 1645   2.534   2.624   1.434
 1979SOL     OW 1646   2.578   2.427   1.708
 1979SOL    HW1 1647   2.597   2.492   1.782
 1979SOL    HW2 1648   2.638   2.347   1.717
 1980SOL     OW 1649   3.312   3.082   1.633
 1980SOL    HW1 1650   3.303   3.072   1.732
 1980SOL    HW2 1651   3.408   3.075   1.607
 1981SOL     OW 1652   2.252   3.603   1.560
 1981SOL    HW1 1653   2.161   3.644   1.558
 1981SOL    HW2 1654   2.245   3.509   1.592
 1982SOL     OW 1655   3.536   2.745   1.254
 1982SOL    HW1 1656   3.509   2.656   1.217
 1982SOL    HW2 1657   3.537   2.813   1.181
 1984SOL     OW 1658   2.456   2.607   0.652
 1984SOL    HW1 1659   2.506   2.692   0.633
 1984SOL    HW2 1660   2.368   2.609   0.604
 1985SOL     OW 1661   3.639   2.204   1.642
 1985SOL    HW1 1662   3.622   2.235   1.548
 1985SOL    HW2 1663   3.555   2.167   1.680
 1986SOL     OW 1664   3.592   2.796   1.517
 1986SOL    HW1 1665   3.630   2.887   1.532
 1986SOL    HW2 1666   3.584   2.779   1.418
 1989SOL     OW 1667   2.721   2.818   0.861
 1989SOL    HW1 1668   2.775   2.749   0.909
 1989SOL    HW2 1669   2.689   2.887   0.927
 1992SOL     OW 1670   2.083   3.176   1.844
 1992SOL    HW1 1671   2.018   3.103   1.823
 1992SOL    HW2 1672   2.087   3.190   1.942
 1994SOL     OW 1673   2.534   3.253   1.624
 1994SOL    HW1 1674   2.456   3.203   1.662
 1994SOL    HW2 1675   2.531   3.348   1.655
 1995SOL     OW 1676   3.686   2.054   1.227
 1995SOL    HW1 1677   3.682   1.964   1.271
 1995SOL    HW2 1678   3.689   2.043   1.128
 1996SOL     OW 1679   2.290   2.286   0.520
 1996SOL    HW1 1680   2.320   2.214   0.458
 1996SOL    HW2 1681   2.251   2.246   0.603
 1998SOL     OW 1682   2.179   2.409   1.280
 1998SOL    HW1 1683   2.217   2.350   1.352
 1998SOL    HW2 1684   2.219   2.383   1.192
 2000SOL     OW 1685   3.286   2.076   1.112
 2000SOL    HW1 1686   3.338   2.011   1.167
 2000SOL    HW2 1687   3.237   2.139   1.173
 2001SOL     OW 1688   2.863   1.896   1.154
 2001SOL    HW1 1689   2.800   1.824   1.123
 2001SOL    HW2 1690   2.956   1.860   1.154
 2003SOL     OW 1691   2.480   3.429   1.284
 2003SOL    HW1 1692   2.475   3.511   1.341
 2003SOL    HW2 1693   2.569   3.426   1.239
 2009SOL     OW 1694   2.092   2.490   1.975
 2009SOL    HW1 1695   1.999   2.488   2.012
 2009SOL    HW2 1696   2.093   2.451   1.883
 2010SOL     OW 1697   2.087   2.137   2.858
 2010SOL    HW1 1698   2.122   2.120   2.950
 2010SOL    HW2 1699   1.999   2.092   2.846
 2011SOL     OW 1700   1.881   2.230   2.509
 2011SOL    HW1 1701   1.799   2.273   2.548
 2011SOL    HW2 1702   1.853   2.157   2.446
 2012SOL     OW 1703   2.431   3.137   3.027
 2012SOL    HW1 1704   2.338   3.130   2.990
 2012SOL    HW2 1705   2.442   3.226   3.071
 2013SOL     OW 1706   3.417   3.373   2.565
 2013SOL    HW1 1707   3.360   3.357   2.646
 2013SOL    HW2 1708   3.358   3.383   2.485
 2014SOL     OW 1709   2.997   2.565   2.579
 2014SOL    HW1 1710   3.054   2.643   2.554
 2014SOL    HW2 1711   2.937   2.591   2.655
 2015SOL     OW 1712   3.617   2.469   2.093
 2015SOL    HW1 1713   3.605   2.456   1.994
 2015SOL    HW2 1714   3.587   2.388   2.142
 2016SOL     OW 1715   2.630   3.006   2.885
 2016SOL    HW1 1716   2.552   3.023   2.945
 2016SOL    HW2 1717   2.664   3.093   2.849
 2017SOL     OW 1718   2.712   2.660   3.685
 2017SOL    HW1 1719   2.708   2.736   3.750
 2017SOL    HW2 1720   2.734   2.696   3.594
 2018SOL     OW 1721   2.547   2.874   2.527
 2018SOL    HW1 1722   2.616   2.858   2.597
 2018SOL    HW2 1723   2.474   2.931   2.565
 2019SOL     OW 1724   2.548   3.023   3.665
 2019SOL    HW1 1725   2.608   3.102   3.679
 2019SOL    HW2 1726   2.462   3.054   3.624
 2020SOL     OW 1727   2.197   3.297   2.923
 2020SOL    HW1 1728   2.119   3.266   2.870
 2020SOL    HW2 1729   2.255   3.355   2.866
 2021SOL     OW 1730   3.322   3.367   3.201
 2021SOL    HW1 1731   3.346   3.461   3.227
 2021SOL    HW2 1732   3.306   3.313   3.283
 2022SOL     OW 1733   2.300   2.254   3.361
 2022SOL    HW1 1734   2.382   2.198   3.370
 2022SOL    HW2 1735   2.219   2.196   3.365
 2023SOL     OW 1736   3.465   2.309   2.599
 2023SOL    HW1 1737   3.391   2.355   2.549
 2023SOL    HW2 1738   3.516   2.377   2.652
 2024SOL     OW 1739   2.093   3.575   2.345
 2024SOL    HW1 1740   2.127   3.652   2.399
 2024SOL    HW2 1741   2.137   3.575   2.255
 2025SOL     OW 1742   2.989   3.203   3.552
 2025SOL    HW1 1743   3.036   3.203   3.640
 2025SOL    HW2 1744   2.941   3.116   3.541
 2026SOL     OW 1745   2.092   3.296   2.400
 2026SOL    HW1 1746   2.066   3.392   2.400
 2026SOL    HW2 1747   2.021   3.242   2.445
 2027SOL     OW 1748   2.102   2.953   2.748
 2027SOL    HW1 1749   2.116   2.869   2.800
 2027SOL    HW2 1750   2.047   3.017   2.803
 2028SOL     OW 1751   2.482   3.648   3.301
 2028SOL    HW1 1752   2.390   3.631   3.336
 2028SOL    HW2 1753   2.510   3.740   3.327
 2029SOL     OW 1754   2.468   2.826   1.985
 2029SOL    HW1 1755   2.475   2.910   1.931
 2029SOL    HW2 1756   2.514   2.839   2.073
 2030SOL     OW 1757   3.456   1.976   3.342
 2030SOL    HW1 1758   3.438   2.043   3.270
 2030SOL    HW2 1759   3.453   2.022   3.431
 2031SOL     OW 1760   1.984   2.505   2.425
 2031SOL    HW1 1761   1.939   2.417   2.442
 2031SOL    HW2 1762   1.983   2.559   2.509
 2033SOL     OW 1763   1.889   3.458   1.979
 2033SOL    HW1 1764   1.870   3.362   2.000
 2033SOL    HW2 1765   1.856   3.516   2.054
 2034SOL     OW 1766   3.551   2.784   2.474
 2034SOL    HW1 1767   3.646   2.755   2.482
 2034SOL    HW2 1768   3.543   2.849   2.399
 2035SOL     OW 1769   3.503   2.970   2.294
 2035SOL    HW1 1770   3.589   2.972   2.242
 2035SOL    HW2 1771   3.517   3.017   2.382
 2036SOL     OW 1772   1.975   2.599   3.459
 2036SOL    HW1 1773   2.063   2.586   3.504
 2036SOL    HW2 1774   1.962   2.696   3.437
 2037SOL     OW 1775   2.475   3.227   2.588
 2037SOL    HW1 1776   2.426   3.140   2.597
 2037SOL    HW2 1777   2.452   3.270   2.501
 2038SOL     OW 1778   3.155   3.090   3.285
 2038SOL    HW1 1779   3.192   3.017   3.227
 2038SOL    HW2 1780   3.207   3.095   3.370
 2039SOL     OW 1781   2.671   1.866   2.364
 2039SOL    HW1 1782   2.711   1.957   2.355
 2039SOL    HW2 1783   2.571   1.874   2.370
 2040SOL     OW 1784   2.059   2.838   3.126
 2040SOL    HW1 1785   2.148   2.793   3.112
 2040SOL    HW2 1786   1.986   2.773   3.107
 2041SOL     OW 1787   3.387   2.861   2.052
 2041SOL    HW1 1788   3.324   2.785   2.065
 2041SOL    HW2 1789   3.435   2.879   2.138
 2043SOL     OW 1790   2.179   2.113   3.663
 2043SOL    HW1 1791   2.250   2.184   3.669
 2043SOL    HW2 1792   2.091   2.152   3.691
 2044SOL     OW 1793   3.328   3.279   2.815
 2044SOL    HW1 1794   3.269   3.285   2.895
 2044SOL    HW2 1795   3.313   3.191   2.769
 2046SOL     OW 1796   2.460   2.591   2.132
 2046SOL    HW1 1797   2.484   2.660   2.064
 2046SOL    HW2 1798   2.382   2.624   2.186
 2047SOL     OW 1799   3.143   2.207   2.806
 2047SOL    HW1 1800   3.057   2.157   2.793
 2047SOL    HW2 1801   3.205   2.153   2.862
 2048SOL     OW 1802   3.438   3.524   2.169
 2048SOL    HW1 1803   3.527   3.570   2.172
 2048SOL    HW2 1804   3.417   3.500   2.074
 2049SOL     OW 1805   2.669   2.467   3.327
 2049SOL    HW1 1806   2.622   2.464   3.416
 2049SOL    HW2 1807   2.618   2.412   3.261
 2050SOL     OW 1808   3.256   2.331   3.536
 2050SOL    HW1 1809   3.236   2.374   3.624
 2050SOL    HW2 1810   3.334   2.269   3.545
 2051SOL     OW 1811   2.835   2.752   3.434
 2051SOL    HW1 1812   2.881   2.668   3.405
 2051SOL    HW2 1813   2.779   2.786   3.359
 2052SOL     OW 1814   2.853   2.272   3.104
 2052SOL    HW1 1815   2.776   2.306   3.158
 2052SOL    HW2 1816   2.819   2.221   3.025
 2053SOL     OW 1817   2.903   2.563   2.291
 2053SOL    HW1 1818   2.929   2.559   2.387
 2053SOL    HW2 1819   2.818   2.512   2.277
 2054SOL     OW 1820   1.938   2.673   2.651
 2054SOL    HW1 1821   2.037   2.661   2.660
 2054SOL    HW2 1822   1.914   2.768   2.672
 2056SOL     OW 1823   2.727   2.210   2.057
 2056SOL    HW1 1824   2.786   2.273   2.008
 2056SOL    HW2 1825   2.746   2.116   2.028
 2058SOL     OW 1826   3.224   3.006   2.407
 2058SOL    HW1 1827   3.307   2.977   2.359
 2058SOL    HW2 1828   3.175   3.073   2.351
 2059SOL     OW 1829   2.412   2.058   2.747
 2059SOL    HW1 1830   2.407   2.053   2.847
 2059SOL    HW2 1831   2.414   2.154   2.718
 2060SOL     OW 1832   2.870   3.318   2.339
 2060SOL    HW1 1833   2.824   3.390   2.287
 2060SOL    HW2 1834   2.866   3.338   2.437
 2061SOL     OW 1835   2.213   3.663   2.715
 2061SOL    HW1 1836   2.263   3.577   2.721
 2061SOL    HW2 1837   2.278   3.740   2.712
 2062SOL     OW 1838   3.657   2.928   2.735
 2062SOL    HW1 1839   3.595   2.913   2.659
 2062SOL    HW2 1840   3.605   2.939   2.820
 2063SOL     OW 1841   3.089   3.412   3.368
 2063SOL    HW1 1842   3.095   3.335   3.432
 2063SOL    HW2 1843   3.037   3.386   3.288
 2064SOL     OW 1844   2.183   2.805   2.104
 2064SOL    HW1 1845   2.265   2.844   2.062
 2064SOL    HW2 1846   2.156   2.723   2.055
 2065SOL     OW 1847   3.320   2.597   2.590
 2065SOL    HW1 1848   3.315   2.532   2.665
 2065SOL    HW2 1849   3.400   2.656   2.603
 2066SOL     OW 1850   2.323   3.128   3.589
 2066SOL    HW1 1851   2.273   3.129   3.503
 2066SOL    HW2 1852   2.260   3.110   3.665
 2067SOL     OW 1853   2.973   3.638   2.099
 2067SOL    HW1 1854   2.913   3.576   2.149
 2067SOL    HW2 1855   3.004   3.594   2.014
 2068SOL     OW 1856   2.064   2.147   3.360
 2068SOL    HW1 1857   1.984   2.207   3.347
 2068SOL    HW2 1858   2.054   2.098   3.446
 2069SOL     OW 1859   3.494   3.239   1.943
 2069SOL    HW1 1860   3.462   3.333   1.933
 2069SOL    HW2 1861   3.418   3.176   1.931
 2070SOL     OW 1862   2.326   3.605   2.185
 2070SOL    HW1 1863   2.359   3.644   2.271
 2070SOL    HW2 1864   2.402   3.598   2.120
 2071SOL     OW 1865   3.262   1.969   2.288
 2071SOL    HW1 1866   3.238   1.932   2.198
 2071SOL    HW2 1867   3.361   1.985   2.292
 2072SOL     OW 1868   2.111   3.647   3.103
 2072SOL    HW1 1869   2.168   3.582   3.153
 2072SOL    HW2 1870   2.095   3.614   3.010
 2073SOL     OW 1871   2.802   3.560   2.766
 2073SOL    HW1 1872   2.882   3.503   2.787
 2073SOL    HW2 1873   2.753   3.520   2.689
 2074SOL     OW 1874   3.409   2.084   3.591
 2074SOL    HW1 1875   3.404   2.121   3.683
 2074SOL    HW2 1876   3.337   2.015   3.579
 2075SOL     OW 1877   2.476   1.984   1.979
 2075SOL    HW1 1878   2.574   1.962   1.986
 2075SOL    HW2 1879   2.445   1.967   1.886
 2076SOL     OW 1880   2.643   2.126   3.611
 2076SOL    HW1 1881   2.710   2.065   3.654
 2076SOL    HW2 1882   2.570   2.145   3.676
 2077SOL     OW 1883   2.750   3.376   3.057
 2077SOL    HW1 1884   2.727   3.351   2.963
 2077SOL    HW2 1885   2.811   3.307   3.096
 2078SOL     OW 1886   3.213   2.452   3.295
 2078SOL    HW1 1887   3.241   2.409   3.380
 2078SOL    HW2 1888   3.238   2.548   3.296
 2079SOL     OW 1889   2.665   3.264   2.786
 2079SOL    HW1 1890   2.755   3.278   2.744
 2079SOL    HW2 1891   2.594   3.266   2.715
 2080SOL     OW 1892   2.784   2.365   2.761
 2080SOL    HW1 1893   2.759   2.356   2.665
 2080SOL    HW2 1894   2.832   2.283   2.792
 2081SOL     OW 1895   3.296   3.050   1.903
 2081SOL    HW1 1896   3.328   2.974   1.960
 2081SOL    HW2 1897   3.204   3.077   1.933
 2082SOL     OW 1898   2.159   1.897   2.033
 2082SOL    HW1 1899   2.208   1.981   2.012
 2082SOL    HW2 1900   2.221   1.832   2.078
 2083SOL     OW 1901   2.797   2.098   2.342
 2083SOL    HW1 1902   2.749   2.139   2.264
 2083SOL    HW2 1903   2.896   2.096   2.323
 2084SOL     OW 1904   2.938   2.545   3.326
 2084SOL    HW1 1905   2.858   2.484   3.329
 2084SOL    HW2 1906   3.019   2.492   3.302
 2085SOL     OW 1907   3.089   3.432   2.655
 2085SOL    HW1 1908   3.110   3.506   2.590
 2085SOL    HW2 1909   3.157   3.432   2.728
 2086SOL     OW 1910   2.321   3.014   2.603
 2086SOL    HW1 1911   2.250   2.987   2.668
 2086SOL    HW2 1912   2.295   2.986   2.510
 2087SOL     OW 1913   3.133   3.659   2.453
 2087SOL    HW1 1914   3.177   3.723   2.389
 2087SOL    HW2 1915   3.083   3.711   2.523
 2088SOL     OW 1916   2.894   2.411   1.878
 2088SOL    HW1 1917   2.853   2.493   1.839
 2088SOL    HW2 1918   2.958   2.437   1.951
 2089SOL     OW 1919   1.940   2.418   3.248
 2089SOL    HW1 1920   2.032   2.417   3.207
 2089SOL    HW2 1921   1.934   2.492   3.315
 2090SOL     OW 1922   2.423   2.084   3.009
 2090SOL    HW1 1923   2.461   2.000   3.046
 2090SOL    HW2 1924   2.335   2.103   3.053
 2091SOL     OW 1925   2.728   2.316   2.504
 2091SOL    HW1 1926   2.696   2.388   2.442
 2091SOL    HW2 1927   2.752   2.235   2.451
 2092SOL     OW 1928   2.879   1.901   2.615
 2092SOL    HW1 1929   2.807   1.906   2.546
 2092SOL    HW2 1930   2.855   1.832   2.684
 2093SOL     OW 1931   3.291   3.035   2.729
 2093SOL    HW1 1932   3.236   2.951   2.722
 2093SOL    HW2 1933   3.317   3.064   2.637
 2094SOL     OW 1934   3.328   2.452   2.854
 2094SOL    HW1 1935   3.298   2.357   2.861
 2094SOL    HW2 1936   3.401   2.468   2.920
 2095SOL     OW 1937   3.719   2.695   2.239
 2095SOL    HW1 1938   3.761   2.631   2.303
 2095SOL    HW2 1939   3.681   2.644   2.161
 2096SOL     OW 1940   2.350   3.247   2.036
 2096SOL    HW1 1941   2.263   3.232   2.083
 2096SOL    HW2 1942   2.333   3.273   1.941
 2097SOL     OW 1943   3.526   3.142   2.519
 2097SOL    HW1 1944   3.625   3.150   2.533
 2097SOL    HW2 1945   3.481   3.226   2.550
 2098SOL     OW 1946   3.252   2.437   1.940
 2098SOL    HW1 1947   3.198   2.416   2.021
 2098SOL    HW2 1948   3.343   2.396   1.949
 2100SOL     OW 1949   2.926   3.209   3.202
 2100SOL    HW1 1950   2.846   3.186   3.257
 2100SOL    HW2 1951   3.009   3.183   3.251
 2102SOL     OW 1952   2.973   3.057   2.962
 2102SOL    HW1 1953   2.933   3.101   3.043
 2102SOL    HW2 1954   2.932   3.094   2.879
 2103SOL     OW 1955   3.500   2.961   2.941
 2103SOL    HW1 1956   3.505   3.042   3.000
 2103SOL    HW2 1957   3.414   2.963   2.890
 2104SOL     OW 1958   2.777   1.951   3.264
 2104SOL    HW1 1959   2.802   1.931   3.169
 2104SOL    HW2 1960   2.849   2.007   3.306
 2105SOL     OW 1961   2.842   2.978   3.581
 2105SOL    HW1 1962   2.743   2.984   3.591
 2105SOL    HW2 1963   2.865   2.898   3.525
 2106SOL     OW 1964   2.567   2.912   2.230
 2106SOL    HW1 1965   2.553   2.919   2.329
 2106SOL    HW2 1966   2.651   2.861   2.212
 2107SOL     OW 1967   2.272   2.675   3.113
 2107SOL    HW1 1968   2.358   2.687   3.163
 2107SOL    HW2 1969   2.230   2.588   3.140
 2108SOL     OW 1970   3.136   2.248   3.124
 2108SOL    HW1 1971   3.157   2.322   3.188
 2108SOL    HW2 1972   3.047   2.265   3.081
 2109SOL     OW 1973   1.926   3.426   3.193
 2109SOL    HW1 1974   1.880   3.508   3.159
 2109SOL    HW2 1975   2.024   3.445   3.202
 2110SOL     OW 1976   2.229   2.962   2.363
 2110SOL    HW1 1977   2.222   3.045   2.307
 2110SOL    HW2 1978   2.233   2.882   2.303
 2111SOL     OW 1979   2.428   2.399   2.727
 2111SOL    HW1 1980   2.440   2.465   2.653
 2111SOL    HW2 1981   2.474   2.433   2.810
 2112SOL     OW 1982   3.114   3.210   2.250
 2112SOL    HW1 1983   3.164   3.287   2.290
 2112SOL    HW2 1984   3.019   3.212   2.282
 2113SOL     OW 1985   3.134   3.307   3.004
 2113SOL    HW1 1986   3.181   3.320   3.091
 2113SOL    HW2 1987   3.068   3.233   3.013
 2114SOL     OW 1988   3.444   2.501   2.334
 2114SOL    HW1 1989   3.413   2.562   2.407
 2114SOL    HW2 1990   3.494   2.553   2.265
 2115SOL     OW 1991   2.216   3.372   3.191
 2115SOL    HW1 1992   2.195   3.328   3.104
 2115SOL    HW2 1993   2.313   3.398   3.194
 2116SOL     OW 1994   2.264   2.613   3.460
 2116SOL    HW1 1995   2.332   2.668   3.413
 2116SOL    HW2 1996   2.304   2.525   3.487
 2117SOL     OW 1997   3.449   2.641   3.532
 2117SOL    HW1 1998   3.357   2.679   3.527
 2117SOL    HW2 1999   3.509   2.688   3.467
 2118SOL     OW 2000   2.875   1.967   3.632
 2118SOL    HW1 2001   2.881   2.052   3.580
 2118SOL    HW2 2002   2.907   1.891   3.575
 2119SOL     OW 2003   2.366   1.912   3.602
 2119SOL    HW1 2004   2.324   1.855   3.532
 2119SOL    HW2 2005   2.300   1.981   3.634
 2120SOL     OW 2006   2.435   2.732   2.891
 2120SOL    HW1 2007   2.479   2.821   2.882
 2120SOL    HW2 2008   2.372   2.732   2.968
 2121SOL     OW 2009   3.222   2.724   2.907
 2121SOL    HW1 2010   3.147   2.724   2.841
 2121SOL    HW2 2011   3.259   2.632   2.916
 2122SOL     OW 2012   3.071   2.387   2.137
 2122SOL    HW1 2013   3.084   2.303   2.191
 2122SOL    HW2 2014   3.042   2.461   2.197
 2123SOL     OW 2015   2.169   2.075   3.093
 2123SOL    HW1 2016   2.146   2.112   3.183
 2123SOL    HW2 2017   2.139   1.980   3.087
 2124SOL     OW 2018   1.899   3.172   3.144
 2124SOL    HW1 2019   1.952   3.123   3.212
 2124SOL    HW2 2020   1.921   3.270   3.149
 2125SOL     OW 2021   2.594   2.496   2.926
 2125SOL    HW1 2022   2.653   2.470   2.850
 2125SOL    HW2 2023   2.566   2.592   2.915
 2127SOL     OW 2024   2.169   1.925   2.480
 2127SOL    HW1 2025   2.158   2.019   2.513
 2127SOL    HW2 2026   2.164   1.862   2.557
 2128SOL     OW 2027   3.484   2.229   2.236
 2128SOL    HW1 2028   3.486   2.153   2.300
 2128SOL    HW2 2029   3.436   2.306   2.276
 2129SOL     OW 2030   2.885   2.628   2.828
 2129SOL    HW1 2031   2.900   2.649   2.924
 2129SOL    HW2 2032   2.855   2.533   2.819
 2132SOL     OW 2033   2.212   2.760   3.666
 2132SOL    HW1 2034   2.288   2.804   3.714
 2132SOL    HW2 2035   2.247   2.713   3.584
 2133SOL     OW 2036   3.402   2.136   1.987
 2133SOL    HW1 2037   3.341   2.061   2.010
 2133SOL    HW2 2038   3.424   2.188   2.070
 2134SOL     OW 2039   3.165   2.700   1.904
 2134SOL    HW1 2040   3.199   2.607   1.919
 2134SOL    HW2 2041   3.183   2.727   1.809
 2135SOL     OW 2042   2.930   3.195   2.711
 2135SOL    HW1 2043   2.937   3.111   2.656
 2135SOL    HW2 2044   2.992   3.264   2.675
 2136SOL     OW 2045   2.181   2.672   2.811
 2136SOL    HW1 2046   2.274   2.708   2.816
 2136SOL    HW2 2047   2.175   2.587   2.863
 2137SOL     OW 2048   2.201   2.371   2.868
 2137SOL    HW1 2049   2.149   2.288   2.851
 2137SOL    HW2 2050   2.278   2.376   2.804
 2138SOL     OW 2051   3.000   2.242   3.540
 2138SOL    HW1 2052   2.955   2.305   3.604
 2138SOL    HW2 2053   3.093   2.273   3.523
 2139SOL     OW 2054   3.022   2.069   3.339
 2139SOL    HW1 2055   3.022   2.133   3.416
 2139SOL    HW2 2056   3.050   2.117   3.256
 2140SOL     OW 2057   1.870   3.188   2.062
 2140SOL    HW1 2058   1.777   3.209   2.031
 2140SOL    HW2 2059   1.880   3.089   2.075
 2141SOL     OW 2060   1.950   3.663   2.789
 2141SOL    HW1 2061   1.908   3.577   2.762
 2141SOL    HW2 2062   2.044   3.666   2.755
 2142SOL     OW 2063   2.366   3.430   2.772
 2142SOL    HW1 2064   2.432   3.504   2.781
 2142SOL    HW2 2065   2.410   3.351   2.730
 2143SOL     OW 2066   2.864   2.658   3.100
 2143SOL    HW1 2067   2.905   2.626   3.186
 2143SOL    HW2 2068   2.768   2.631   3.097
 2144SOL     OW 2069   1.902   2.406   2.976
 2144SOL    HW1 2070   1.987   2.373   2.935
 2144SOL    HW2 2071   1.915   2.421   3.074
 2145SOL     OW 2072   2.051   2.382   3.584
 2145SOL    HW1 2073   2.110   2.342   3.514
 2145SOL    HW2 2074   1.993   2.453   3.543
 2146SOL     OW 2075   3.231   2.812   3.522
 2146SOL    HW1 2076   3.270   2.901   3.542
 2146SOL    HW2 2077   3.241   2.792   3.425
 2147SOL     OW 2078   2.677   2.434   2.187
 2147SOL    HW1 2079   2.684   2.345   2.141
 2147SOL    HW2 2080   2.583   2.468   2.179
 2148SOL     OW 2081   3.519   2.466   3.068
 2148SOL    HW1 2082   3.481   2.397   3.130
 2148SOL    HW2 2083   3.601   2.430   3.024
 2149SOL     OW 2084   2.114   3.426   3.606
 2149SOL    HW1 2085   2.084   3.483   3.682
 2149SOL    HW2 2086   2.107   3.329   3.632
 2150SOL     OW 2087   2.533   2.326   3.131
 2150SOL    HW1 2088   2.499   2.237   3.101
 2150SOL    HW2 2089   2.559   2.380   3.051
 2151SOL     OW 2090   2.792   3.540   3.327
 2151SOL    HW1 2091   2.768   3.522   3.232
 2151SOL    HW2 2092   2.822   3.634   3.337
 2152SOL     OW 2093   2.021   2.999   3.328
 2152SOL    HW1 2094   2.043   2.938   3.404
 2152SOL    HW2 2095   2.031   2.950   3.242
 2153SOL     OW 2096   3.209   2.921   3.096
 2153SOL    HW1 2097   3.233   2.858   3.022
 2153SOL    HW2 2098   3.119   2.961   3.078
 2154SOL     OW 2099   3.164   2.717   2.171
 2154SOL    HW1 2100   3.078   2.686   2.213
 2154SOL    HW2 2101   3.160   2.703   2.072
 2156SOL     OW 2102   3.114   3.593   2.990
 2156SOL    HW1 2103   3.198   3.598   2.936
 2156SOL    HW2 2104   3.091   3.497   3.008
 2157SOL     OW 2105   1.945   3.120   2.884
 2157SOL    HW1 2106   1.940   3.119   2.984
 2157SOL    HW2 2107   1.862   3.079   2.846
 2159SOL     OW 2108   3.588   1.997   2.385
 2159SOL    HW1 2109   3.661   1.980   2.318
 2159SOL    HW2 2110   3.557   1.910   2.423
 2160SOL     OW 2111   3.250   3.435   2.339
 2160SOL    HW1 2112   3.317   3.447   2.265
 2160SOL    HW2 2113   3.210   3.524   2.362
 2162SOL     OW 2114   3.142   2.789   2.534
 2162SOL    HW1 2115   3.202   2.708   2.536
 2162SOL    HW2 2116   3.182   2.858   2.474
 2163SOL     OW 2117   2.692   3.135   3.284
 2163SOL    HW1 2118   2.687   3.168   3.379
 2163SOL    HW2 2119   2.606   3.154   3.238
 2164SOL     OW 2120   2.534   3.478   2.016
 2164SOL    HW1 2121   2.543   3.488   1.917
 2164SOL    HW2 2122   2.494   3.389   2.037
 2166SOL     OW 2123   3.703   2.037   2.825
 2166SOL    HW1 2124   3.742   1.952   2.789
 2166SOL    HW2 2125   3.605   2.039   2.806
 2167SOL     OW 2126   3.056   3.474   1.893
 2167SOL    HW1 2127   3.062   3.381   1.930
 2167SOL    HW2 2128   2.997   3.474   1.813
 2168SOL     OW 2129   2.684   2.864   3.234
 2168SOL    HW1 2130   2.724   2.863   3.142
 2168SOL    HW2 2131   2.694   2.956   3.274
 2169SOL     OW 2132   2.778   2.772   2.153
 2169SOL    HW1 2133   2.841   2.810   2.085
 2169SOL    HW2 2134   2.818   2.689   2.192
 2170SOL     OW 2135   3.366   3.469   1.906
 2170SOL    HW1 2136   3.274   3.506   1.913
 2170SOL    HW2 2137   3.404   3.489   1.816
 2171SOL     OW 2138   2.234   3.150   3.352
 2171SOL    HW1 2139   2.221   3.243   3.318
 2171SOL    HW2 2140   2.150   3.098   3.339
 2172SOL     OW 2141   3.476   3.154   3.151
 2172SOL    HW1 2142   3.536   3.157   3.231
 2172SOL    HW2 2143   3.401   3.218   3.164
 2173SOL     OW 2144   2.901   2.960   2.558
 2173SOL    HW1 2145   2.831   2.913   2.612
 2173SOL    HW2 2146   2.960   2.892   2.515
 2174SOL     OW 2147   2.876   2.098   2.833
 2174SOL    HW1 2148   2.868   2.062   2.740
 2174SOL    HW2 2149   2.874   2.022   2.898
 2175SOL     OW 2150   2.452   3.349   2.353
 2175SOL    HW1 2151   2.494   3.291   2.283
 2175SOL    HW2 2152   2.408   3.428   2.309
 2176SOL     OW 2153   3.571   2.247   3.243
 2176SOL    HW1 2154   3.644   2.316   3.247
 2176SOL    HW2 2155   3.599   2.172   3.184
 2177SOL     OW 2156   2.117   3.210   2.152
 2177SOL    HW1 2157   2.021   3.211   2.125
 2177SOL    HW2 2158   2.129   3.263   2.236
 2178SOL     OW 2159   1.967   2.875   3.588
 2178SOL    HW1 2160   1.890   2.842   3.642
 2178SOL    HW2 2161   2.052   2.845   3.630
 2179SOL     OW 2162   2.534   2.065   3.351
 2179SOL    HW1 2163   2.624   2.049   3.311
 2179SOL    HW2 2164   2.542   2.070   3.450
 2180SOL     OW 2165   1.937   2.207   1.895
 2180SOL    HW1 2166   1.845   2.179   1.866
 2180SOL    HW2 2167   1.968   2.284   1.839
 2181SOL     OW 2168   3.302   2.718   3.260
 2181SOL    HW1 2169   3.245   2.770   3.197
 2181SOL    HW2 2170   3.398   2.730   3.236
 2182SOL     OW 2171   1.934   2.028   2.180
 2182SOL    HW1 2172   1.917   2.111   2.126
 2182SOL    HW2 2173   2.024   1.991   2.158
 2183SOL     OW 2174   3.045   3.197   1.981
 2183SOL    HW1 2175   2.946   3.186   1.983
 2183SOL    HW2 2176   3.079   3.212   2.074
 2184SOL     OW 2177   2.475   2.704   3.293
 2184SOL    HW1 2178   2.531   2.785   3.276
 2184SOL    HW2 2179   2.534   2.624   3.296
 2186SOL     OW 2180   2.578   2.427   3.570
 2186SOL    HW1 2181   2.597   2.492   3.644
 2186SOL    HW2 2182   2.638   2.347   3.579
 2187SOL     OW 2183   3.312   3.082   3.495
 2187SOL    HW1 2184   3.303   3.072   3.594
 2187SOL    HW2 2185   3.408   3.075   3.469
 2188SOL     OW 2186   2.252   3.603   3.422
 2188SOL    HW1 2187   2.161   3.644   3.420
 2188SOL    HW2 2188   2.245   3.509   3.454
 2189SOL     OW 2189   3.536   2.745   3.116
 2189SOL    HW1 2190   3.509   2.656   3.079
 2189SOL    HW2 2191   3.537   2.813   3.043
 2190SOL     OW 2192   3.087   2.187   2.311
 2190SOL    HW1 2193   3.152   2.113   2.300
 2190SOL    HW2 2194   3.107   2.237   2.395
 2191SOL     OW 2195   2.456   2.607   2.514
 2191SOL    HW1 2196   2.506   2.692   2.495
 2191SOL    HW2 2197   2.368   2.609   2.466
 2193SOL     OW 2198   3.592   2.796   3.379
 2193SOL    HW1 2199   3.630   2.887   3.394
 2193SOL    HW2 2200   3.584   2.779   3.280
 2194SOL     OW 2201   2.721   3.236   1.878
 2194SOL    HW1 2202   2.675   3.251   1.966
 2194SOL    HW2 2203   2.765   3.321   1.848
 2195SOL     OW 2204   2.523   3.652   2.815
 2195SOL    HW1 2205   2.477   3.740   2.802
 2195SOL    HW2 2206   2.622   3.664   2.808
 2196SOL     OW 2207   2.721   2.818   2.723
 2196SOL    HW1 2208   2.775   2.749   2.771
 2196SOL    HW2 2209   2.689   2.887   2.789
 2197SOL     OW 2210   2.945   2.846   1.949
 2197SOL    HW1 2211   2.922   2.899   1.867
 2197SOL    HW2 2212   3.026   2.790   1.930
 2199SOL     OW 2213   2.083   3.176   3.706
 2199SOL    HW1 2214   2.018   3.103   3.685
 2199SOL    HW2 2215   2.087   3.190   3.804
 2200SOL     OW 2216   1.941   3.102   2.515
 2200SOL    HW1 2217   1.940   3.055   2.603
 2200SOL    HW2 2218   2.023   3.074   2.464
 2201SOL     OW 2219   2.534   3.253   3.486
 2201SOL    HW1 2220   2.456   3.203   3.524
 2201SOL    HW2 2221   2.531   3.348   3.517
 2202SOL     OW 2222   3.686   2.054   3.089
 2202SOL    HW1 2223   3.682   1.964   3.133
 2202SOL    HW2 2224   3.689   2.043   2.990
 2204SOL     OW 2225   2.179   2.409   3.142
 2204SOL    HW1 2226   2.217   2.350   3.214
 2204SOL    HW2 2227   2.219   2.383   3.054
 2205SOL     OW 2228   2.674   3.448   2.549
 2205SOL    HW1 2229   2.706   3.458   2.455
 2205SOL    HW2 2230   2.595   3.386   2.551
 2206SOL     OW 2231   3.286   2.076   2.974
 2206SOL    HW1 2232   3.338   2.011   3.029
 2206SOL    HW2 2233   3.237   2.139   3.035
 2207SOL     OW 2234   2.863   1.896   3.016
 2207SOL    HW1 2235   2.800   1.824   2.985
 2207SOL    HW2 2236   2.956   1.860   3.016
 2208SOL     OW 2237   2.632   3.192   2.163
 2208SOL    HW1 2238   2.586   3.105   2.180
 2208SOL    HW2 2239   2.723   3.189   2.204
 2209SOL     OW 2240   2.480   3.429   3.146
 2209SOL    HW1 2241   2.475   3.511   3.203
 2209SOL    HW2 2242   2.569   3.426   3.101
 2210SOL     OW 2243   3.214   1.914   2.030
 2210SOL    HW1 2244   3.249   1.873   1.946
 2210SOL    HW2 2245   3.124   1.876   2.050
 2211SOL     OW 2246   3.162   2.315   2.553
 2211SOL    HW1 2247   3.103   2.395   2.557
 2211SOL    HW2 2248   3.177   2.280   2.646
 2212SOL     OW 2249   3.455   2.083   2.744
 2212SOL    HW1 2250   3.371   2.082   2.798
 2212SOL    HW2 2251   3.457   2.166   2.688
 2213SOL     OW 2252   1.901   2.939   2.162
 2213SOL    HW1 2253   2.000   2.928   2.153
 2213SOL    HW2 2254   1.861   2.853   2.194
 2214SOL     OW 2255   2.737   3.508   2.199
 2214SOL    HW1 2256   2.660   3.473   2.145
 2214SOL    HW2 2257   2.705   3.579   2.261
 2215SOL     OW 2258   2.092   2.490   3.837
 2215SOL    HW1 2259   1.999   2.488   3.874
 2215SOL    HW2 2260   2.093   2.451   3.745
 2224SOL     OW 2261   2.468   2.826   3.847
 2224SOL    HW1 2262   2.475   2.910   3.793
 2224SOL    HW2 2263   2.514   2.839   3.935
 2234SOL     OW 2264   2.460   2.591   3.994
 2234SOL    HW1 2265   2.484   2.660   3.926
 2234SOL    HW2 2266   2.382   2.624   4.048
 2239SOL     OW 2267   2.727   2.210   3.919
 2239SOL    HW1 2268   2.786   2.273   3.870
 2239SOL    HW2 2269   2.746   2.116   3.890
 2244SOL     OW 2270   2.183   2.805   3.966
 2244SOL    HW1 2271   2.265   2.844   3.924
 2244SOL    HW2 2272   2.156   2.723   3.917
 2252SOL     OW 2273   2.476   1.984   3.841
 2252SOL    HW1 2274   2.574   1.962   3.848
 2252SOL    HW2 2275   2.445   1.967   3.748
 2255SOL     OW 2276   2.159   1.897   3.895
 2255SOL    HW1 2277   2.208   1.981   3.874
 2255SOL    HW2 2278   2.221   1.832   3.940
 2259SOL     OW 2279   2.894   2.411   3.740
 2259SOL    HW1 2280   2.853   2.493   3.701
 2259SOL    HW2 2281   2.958   2.437   3.813
 2265SOL     OW 2282   2.389   2.118   4.052
 2265SOL    HW1 2283   2.416   2.059   3.977
 2265SOL    HW2 2284   2.389   2.213   4.021
 2275SOL     OW 2285   3.165   2.700   3.766
 2275SOL    HW1 2286   3.199   2.607   3.781
 2275SOL    HW2 2287   3.183   2.727   3.671
 2278SOL     OW 2288   2.335   2.362   3.915
 2278SOL    HW1 2289   2.396   2.442   3.919
 2278SOL    HW2 2290   2.240   2.393   3.922
 2290SOL     OW 2291   1.937   2.207   3.757
 2290SOL    HW1 2292   1.845   2.179   3.728
 2290SOL    HW2 2293   1.968   2.284   3.701
 2295SOL     OW 2294   2.721   3.236   3.740
 2295SOL    HW1 2295   2.675   3.251   3.828
 2295SOL    HW2 2296   2.765   3.321   3.710
 2298SOL     OW 2297   2.945   2.846   3.811
 2298SOL    HW1 2298   2.922   2.899   3.729
 2298SOL    HW2 2299   3.026   2.790   3.792
 2320SOL     OW 2300   2.179   3.975   1.801
 2320SOL    HW1 2301   2.250   4.046   1.807
 2320SOL    HW2 2302   2.091   4.014   1.829
 2358SOL     OW 2303   2.875   3.829   1.770
 2358SOL    HW1 2304   2.881   3.914   1.718
 2358SOL    HW2 2305   2.907   3.753   1.713
 2359SOL     OW 2306   2.366   3.774   1.740
 2359SOL    HW1 2307   2.324   3.717   1.670
 2359SOL    HW2 2308   2.300   3.843   1.772
 2414SOL     OW 2309   2.671   3.728   2.364
 2414SOL    HW1 2310   2.711   3.819   2.355
 2414SOL    HW2 2311   2.571   3.736   2.370
 2424SOL     OW 2312   2.412   3.920   2.747
 2424SOL    HW1 2313   2.407   3.915   2.847
 2424SOL    HW2 2314   2.414   4.016   2.718
 2430SOL     OW 2315   2.476   3.846   1.979
 2430SOL    HW1 2316   2.574   3.824   1.986
 2430SOL    HW2 2317   2.445   3.829   1.886
 2434SOL     OW 2318   2.401   3.788   2.374
 2434SOL    HW1 2319   2.320   3.789   2.432
 2434SOL    HW2 2320   2.404   3.871   2.319
 2435SOL     OW 2321   2.159   3.759   2.033
 2435SOL    HW1 2322   2.208   3.843   2.012
 2435SOL    HW2 2323   2.221   3.694   2.078
 2436SOL     OW 2324   2.797   3.960   2.342
 2436SOL    HW1 2325   2.749   4.001   2.264
 2436SOL    HW2 2326   2.896   3.958   2.323
 2442SOL     OW 2327   2.879   3.763   2.615
 2442SOL    HW1 2328   2.807   3.768   2.546
 2442SOL    HW2 2329   2.855   3.694   2.684
 2446SOL     OW 2330   2.389   3.980   2.190
 2446SOL    HW1 2331   2.416   3.921   2.115
 2446SOL    HW2 2332   2.389   4.075   2.159
 2461SOL     OW 2333   2.169   3.787   2.480
 2461SOL    HW1 2334   2.158   3.881   2.513
 2461SOL    HW2 2335   2.164   3.724   2.557
 2484SOL     OW 2336   1.934   3.890   2.180
 2484SOL    HW1 2337   1.917   3.973   2.126
 2484SOL    HW2 2338   2.024   3.853   2.158
 2495SOL     OW 2339   2.863   3.758   3.016
 2495SOL    HW1 2340   2.800   3.686   2.985
 2495SOL    HW2 2341   2.956   3.722   3.016
 2496SOL     OW 2342   3.214   3.776   2.030
 2496SOL    HW1 2343   3.249   3.735   1.946
 2496SOL    HW2 2344   3.124   3.738   2.050
 2567SOL     OW 2345   3.854   1.821   1.571
 2567SOL    HW1 2346   3.844   1.806   1.670
 2567SOL    HW2 2347   3.768   1.857   1.535
 2614SOL     OW 2348   3.854   1.794   1.851
 2614SOL    HW1 2349   3.813   1.720   1.904
 2614SOL    HW2 2350   3.918   1.845   1.909
 2648SOL     OW 2351   3.955   1.713   2.345
 2648SOL    HW1 2352   3.989   1.790   2.399
 2648SOL    HW2 2353   3.999   1.713   2.255
 2654SOL     OW 2354   3.751   1.596   1.979
 2654SOL    HW1 2355   3.732   1.500   2.000
 2654SOL    HW2 2356   3.718   1.654   2.054
 2698SOL     OW 2357   3.732   1.326   2.062
 2698SOL    HW1 2358   3.639   1.347   2.031
 2698SOL    HW2 2359   3.742   1.227   2.075
 2699SOL     OW 2360   3.812   1.801   2.789
 2699SOL    HW1 2361   3.770   1.715   2.762
 2699SOL    HW2 2362   3.906   1.804   2.755
 2793SOL     OW 2363   3.837   2.599   1.597
 2793SOL    HW1 2364   3.925   2.586   1.642
 2793SOL    HW2 2365   3.824   2.696   1.575
 2814SOL     OW 2366   3.802   2.418   1.386
 2814SOL    HW1 2367   3.894   2.417   1.345
 2814SOL    HW2 2368   3.796   2.492   1.453
 2839SOL     OW 2369   3.913   2.382   1.722
 2839SOL    HW1 2370   3.972   2.342   1.652
 2839SOL    HW2 2371   3.855   2.453   1.681
 2853SOL     OW 2372   3.829   2.875   1.726
 2853SOL    HW1 2373   3.752   2.842   1.780
 2853SOL    HW2 2374   3.914   2.845   1.768
 2870SOL     OW 2375   3.954   2.490   1.975
 2870SOL    HW1 2376   3.861   2.488   2.012
 2870SOL    HW2 2377   3.955   2.451   1.883
 2871SOL     OW 2378   3.949   2.137   2.858
 2871SOL    HW1 2379   3.984   2.120   2.950
 2871SOL    HW2 2380   3.861   2.092   2.846
 2872SOL     OW 2381   3.743   2.230   2.509
 2872SOL    HW1 2382   3.661   2.273   2.548
 2872SOL    HW2 2383   3.715   2.157   2.446
 2884SOL     OW 2384   3.846   2.505   2.425
 2884SOL    HW1 2385   3.801   2.417   2.442
 2884SOL    HW2 2386   3.845   2.559   2.509
 2892SOL     OW 2387   3.800   2.673   2.651
 2892SOL    HW1 2388   3.899   2.661   2.660
 2892SOL    HW2 2389   3.776   2.768   2.672
 2906SOL     OW 2390   4.021   1.897   2.033
 2906SOL    HW1 2391   4.070   1.981   2.012
 2906SOL    HW2 2392   4.083   1.832   2.078
 2924SOL     OW 2393   4.031   1.925   2.480
 2924SOL    HW1 2394   4.020   2.019   2.513
 2924SOL    HW2 2395   4.026   1.862   2.557
 2929SOL     OW 2396   3.732   3.188   2.062
 2929SOL    HW1 2397   3.639   3.209   2.031
 2929SOL    HW2 2398   3.742   3.089   2.075
 2932SOL     OW 2399   3.764   2.406   2.976
 2932SOL    HW1 2400   3.849   2.373   2.935
 2932SOL    HW2 2401   3.777   2.421   3.074
 2943SOL     OW 2402   3.987   2.188   2.582
 2943SOL    HW1 2403   3.908   2.239   2.548
 2943SOL    HW2 2404   3.978   2.173   2.680
 2950SOL     OW 2405   3.799   2.207   1.895
 2950SOL    HW1 2406   3.707   2.179   1.866
 2950SOL    HW2 2407   3.830   2.284   1.839
 2951SOL     OW 2408   3.796   2.028   2.180
 2951SOL    HW1 2409   3.779   2.111   2.126
 2951SOL    HW2 2410   3.886   1.991   2.158
 2958SOL     OW 2411   3.803   3.102   2.515
 2958SOL    HW1 2412   3.802   3.055   2.603
 2958SOL    HW2 2413   3.885   3.074   2.464
 2964SOL     OW 2414   3.763   2.939   2.162
 2964SOL    HW1 2415   3.862   2.928   2.153
 2964SOL    HW2 2416   3.723   2.853   2.194
   4.56111   4.56111   4.56111
