; mobley_4291494_GMX.itp created by acpype (v: 2023.10.27) on Thu May 21 00:21:31 2026

[ atomtypes ]
;name   bond_type     mass     charge   ptype   sigma         epsilon       Amb
 ca       ca          0.00000  0.00000   A     3.31521e-01   4.13379e-01 ; 1.86  0.0988
 nb       nb          0.00000  0.00000   A     3.38417e-01   3.93714e-01 ; 1.90  0.0941
 cl       cl          0.00000  0.00000   A     3.46595e-01   1.10374e+00 ; 1.95  0.2638
 ha       ha          0.00000  0.00000   A     2.62548e-01   6.73624e-02 ; 1.47  0.0161
 h4       h4          0.00000  0.00000   A     2.53639e-01   6.73624e-02 ; 1.42  0.0161

[ moleculetype ]
;name            nrexcl
 mobley_4291494   3

[ atoms ]
;   nr  type  resi  res  atom  cgnr     charge      mass       ; qtot   bond_type
     1   ca     1   MOL    C1    1    -0.086000     12.01000 ; qtot -0.086
     2   ca     1   MOL    C2    2    -0.247300     12.01000 ; qtot -0.333
     3   ca     1   MOL    C3    3    -0.235300     12.01000 ; qtot -0.569
     4   ca     1   MOL    C4    4     0.407200     12.01000 ; qtot -0.161
     5   ca     1   MOL    C5    5     0.488300     12.01000 ; qtot 0.327
     6   nb     1   MOL    N1    6    -0.654000     14.01000 ; qtot -0.327
     7   cl     1   MOL   CL1    7    -0.151000     35.45000 ; qtot -0.478
     8   ha     1   MOL    H1    8     0.144000      1.00800 ; qtot -0.334
     9   ha     1   MOL    H2    9     0.148000      1.00800 ; qtot -0.186
    10   ha     1   MOL    H3   10     0.157000      1.00800 ; qtot -0.029
    11   h4     1   MOL    H4   11     0.029100      1.00800 ; qtot 0.000

[ bonds ]
;   ai     aj funct   r             k
     1      2   1    1.3986e-01    2.9644e+05 ;     C1 - C2    
     1      3   1    1.3986e-01    2.9644e+05 ;     C1 - C3    
     1      8   1    1.0860e-01    3.0183e+05 ;     C1 - H1    
     2      4   1    1.3986e-01    2.9644e+05 ;     C2 - C4    
     2      9   1    1.0860e-01    3.0183e+05 ;     C2 - H2    
     3      5   1    1.3986e-01    2.9644e+05 ;     C3 - C5    
     3     10   1    1.0860e-01    3.0183e+05 ;     C3 - H3    
     4      6   1    1.3392e-01    3.2341e+05 ;     C4 - N1    
     4     11   1    1.0885e-01    2.9859e+05 ;     C4 - H4    
     5      6   1    1.3392e-01    3.2341e+05 ;     C5 - N1    
     5      7   1    1.7572e-01    1.5730e+05 ;     C5 - CL1   

[ pairs ]
;   ai     aj    funct
     1      6      1 ;     C1 - N1    
     1      7      1 ;     C1 - CL1   
     1     11      1 ;     C1 - H4    
     2      5      1 ;     C2 - C5    
     2     10      1 ;     C2 - H3    
     3      4      1 ;     C3 - C4    
     3      9      1 ;     C3 - H2    
     4      7      1 ;     C4 - CL1   
     5     11      1 ;     C5 - H4    
     6      9      1 ;     N1 - H2    
     6     10      1 ;     N1 - H3    
     7     10      1 ;    CL1 - H3    
     8      4      1 ;     H1 - C4    
     8      5      1 ;     H1 - C5    
     8      9      1 ;     H1 - H2    
     8     10      1 ;     H1 - H3    
     9     11      1 ;     H2 - H4    

[ angles ]
;   ai     aj     ak    funct   theta         cth
     1      2      4      1    1.2002e+02    5.3279e+02 ;     C1 - C2     - C4    
     1      2      9      1    1.1988e+02    3.7572e+02 ;     C1 - C2     - H2    
     1      3      5      1    1.2002e+02    5.3279e+02 ;     C1 - C3     - C5    
     1      3     10      1    1.1988e+02    3.7572e+02 ;     C1 - C3     - H3    
     2      1      3      1    1.2002e+02    5.3279e+02 ;     C2 - C1     - C3    
     2      1      8      1    1.1988e+02    3.7572e+02 ;     C2 - C1     - H1    
     2      4      6      1    1.2294e+02    5.7045e+02 ;     C2 - C4     - N1    
     2      4     11      1    1.2032e+02    3.7489e+02 ;     C2 - C4     - H4    
     3      1      8      1    1.1988e+02    3.7572e+02 ;     C3 - C1     - H1    
     3      5      6      1    1.2294e+02    5.7045e+02 ;     C3 - C5     - N1    
     3      5      7      1    1.1938e+02    5.3605e+02 ;     C3 - C5     - CL1   
     4      2      9      1    1.1988e+02    3.7572e+02 ;     C4 - C2     - H2    
     4      6      5      1    1.1724e+02    6.9580e+02 ;     C4 - N1     - C5    
     5      3     10      1    1.1988e+02    3.7572e+02 ;     C5 - C3     - H3    
     6      4     11      1    1.1602e+02    4.1924e+02 ;     N1 - C4     - H4    
     6      5      7      1    1.1619e+02    5.8158e+02 ;     N1 - C5     - CL1   

[ dihedrals ] ; propers
; for gromacs 4.5 or higher, using funct 9
;    i      j      k      l   func   phase     kd      pn
     1      2      4      6      9   180.00  15.16700   2 ;     C1-    C2-    C4-    N1
     1      2      4     11      9   180.00  15.16700   2 ;     C1-    C2-    C4-    H4
     1      3      5      6      9   180.00  15.16700   2 ;     C1-    C3-    C5-    N1
     1      3      5      7      9   180.00  15.16700   2 ;     C1-    C3-    C5-   CL1
     2      1      3      5      9   180.00  15.16700   2 ;     C2-    C1-    C3-    C5
     2      1      3     10      9   180.00  15.16700   2 ;     C2-    C1-    C3-    H3
     2      4      6      5      9   180.00  20.08320   2 ;     C2-    C4-    N1-    C5
     3      1      2      4      9   180.00  15.16700   2 ;     C3-    C1-    C2-    C4
     3      1      2      9      9   180.00  15.16700   2 ;     C3-    C1-    C2-    H2
     3      5      6      4      9   180.00  20.08320   2 ;     C3-    C5-    N1-    C4
     4      6      5      7      9   180.00  20.08320   2 ;     C4-    N1-    C5-   CL1
     5      6      4     11      9   180.00  20.08320   2 ;     C5-    N1-    C4-    H4
     6      4      2      9      9   180.00  15.16700   2 ;     N1-    C4-    C2-    H2
     6      5      3     10      9   180.00  15.16700   2 ;     N1-    C5-    C3-    H3
     7      5      3     10      9   180.00  15.16700   2 ;    CL1-    C5-    C3-    H3
     8      1      2      4      9   180.00  15.16700   2 ;     H1-    C1-    C2-    C4
     8      1      2      9      9   180.00  15.16700   2 ;     H1-    C1-    C2-    H2
     8      1      3      5      9   180.00  15.16700   2 ;     H1-    C1-    C3-    C5
     8      1      3     10      9   180.00  15.16700   2 ;     H1-    C1-    C3-    H3
     9      2      4     11      9   180.00  15.16700   2 ;     H2-    C2-    C4-    H4

[ dihedrals ] ; impropers
; treated as propers in GROMACS to use correct AMBER analytical function
;    i      j      k      l   func   phase     kd      pn
     1      4      2      9      4   180.00   4.60240   2 ;     C1-    C4-    C2-    H2
     1      5      3     10      4   180.00   4.60240   2 ;     C1-    C5-    C3-    H3
     2     11      4      6      4   180.00   4.60240   2 ;     C2-    H4-    C4-    N1
     3      7      5      6      4   180.00   4.60240   2 ;     C3-   CL1-    C5-    N1
     8      1      3      2      4   180.00   4.60240   2 ;     H1-    C1-    C3-    C2
