mobley_2518989_GMX.gro created by acpype (v: 2023.10.27) on Tue May 19 12:38:13 2026
 2425
    1MOL     C1    1   2.814   2.160   2.465
    1MOL     C2    2   2.895   2.173   2.580
    1MOL     C3    3   2.754   2.272   2.406
    1MOL     C4    4   2.917   2.298   2.638
    1MOL     C5    5   2.777   2.395   2.466
    1MOL     C6    6   2.856   2.407   2.579
    1MOL     C7    7   2.731   2.528   2.430
    1MOL     C8    8   2.860   2.549   2.614
    1MOL     C9    9   2.174   2.936   2.501
    1MOL    C10   10   2.442   2.647   3.013
    1MOL    C11   11   2.241   2.835   2.593
    1MOL    C12   12   2.464   2.606   2.868
    1MOL    C13   13   2.891   2.838   2.508
    1MOL    C14   14   2.760   2.758   2.518
    1MOL     N1   15   2.781   2.614   2.524
    1MOL     O1   16   2.662   2.553   2.333
    1MOL     O2   17   2.926   2.594   2.706
    1MOL     O3   18   2.381   2.848   2.581
    1MOL     O4   19   2.414   2.709   2.785
    1MOL     P1   20   2.477   2.729   2.636
    1MOL     S1   21   2.465   2.568   2.526
    1MOL     S2   22   2.665   2.817   2.662
    1MOL    CL1   23   2.981   2.796   2.359
    1MOL     H1   24   2.799   2.062   2.421
    1MOL     H2   25   2.940   2.084   2.623
    1MOL     H3   26   2.692   2.264   2.318
    1MOL     H4   27   2.979   2.309   2.727
    1MOL     H5   28   2.205   3.038   2.526
    1MOL     H6   29   2.204   2.919   2.397
    1MOL     H7   30   2.066   2.930   2.508
    1MOL     H8   31   2.495   2.740   3.035
    1MOL     H9   32   2.336   2.665   3.032
    1MOL    H10   33   2.478   2.569   3.081
    1MOL    H11   34   2.208   2.734   2.567
    1MOL    H12   35   2.212   2.855   2.697
    1MOL    H13   36   2.410   2.514   2.847
    1MOL    H14   37   2.571   2.590   2.850
    1MOL    H15   38   2.871   2.945   2.503
    1MOL    H16   39   2.958   2.820   2.592
    1MOL    H17   40   2.700   2.781   2.430
   97SOL     OW   41   1.592   1.629   1.625
   97SOL    HW1   42   1.619   1.663   1.535
   97SOL    HW2   43   1.671   1.591   1.671
  127SOL     OW   44   1.859   1.518   1.605
  127SOL    HW1   45   1.873   1.545   1.510
  127SOL    HW2   46   1.942   1.540   1.658
  163SOL     OW   47   1.650   1.720   1.394
  163SOL    HW1   48   1.703   1.730   1.310
  163SOL    HW2   49   1.623   1.810   1.428
  219SOL     OW   50   1.555   1.511   2.565
  219SOL    HW1   51   1.498   1.495   2.646
  219SOL    HW2   52   1.496   1.521   2.485
  227SOL     OW   53   1.460   1.505   3.201
  227SOL    HW1   54   1.484   1.599   3.227
  227SOL    HW2   55   1.444   1.451   3.283
  238SOL     OW   56   1.842   1.767   2.221
  238SOL    HW1   57   1.896   1.738   2.301
  238SOL    HW2   58   1.872   1.857   2.192
  250SOL     OW   59   1.466   1.417   2.815
  250SOL    HW1   60   1.407   1.423   2.895
  250SOL    HW2   61   1.451   1.329   2.769
  251SOL     OW   62   1.667   1.714   2.434
  251SOL    HW1   63   1.626   1.691   2.346
  251SOL    HW2   64   1.649   1.640   2.499
  254SOL     OW   65   1.576   1.662   2.169
  254SOL    HW1   66   1.665   1.708   2.172
  254SOL    HW2   67   1.555   1.638   2.074
  268SOL     OW   68   1.795   1.066   2.735
  268SOL    HW1   69   1.733   1.051   2.659
  268SOL    HW2   70   1.743   1.077   2.820
  273SOL     OW   71   1.111   1.776   2.099
  273SOL    HW1   72   1.051   1.714   2.149
  273SOL    HW2   73   1.142   1.732   2.014
  275SOL     OW   74   1.632   1.377   1.943
  275SOL    HW1   75   1.600   1.471   1.933
  275SOL    HW2   76   1.556   1.314   1.931
  293SOL     OW   77   1.227   1.570   2.655
  293SOL    HW1   78   1.248   1.644   2.590
  293SOL    HW2   79   1.295   1.570   2.728
  295SOL     OW   80   1.271   1.797   2.453
  295SOL    HW1   81   1.315   1.861   2.389
  295SOL    HW2   82   1.221   1.849   2.523
  305SOL     OW   83   1.664   1.280   2.519
  305SOL    HW1   84   1.763   1.288   2.533
  305SOL    HW2   85   1.619   1.364   2.550
  310SOL     OW   86   1.592   1.629   3.487
  310SOL    HW1   87   1.619   1.663   3.397
  310SOL    HW2   88   1.671   1.591   3.533
  340SOL     OW   89   1.859   1.518   3.467
  340SOL    HW1   90   1.873   1.545   3.372
  340SOL    HW2   91   1.942   1.540   3.520
  365SOL     OW   92   1.759   1.747   3.016
  365SOL    HW1   93   1.820   1.777   2.943
  365SOL    HW2   94   1.721   1.658   2.994
  366SOL     OW   95   1.252   1.731   2.990
  366SOL    HW1   96   1.336   1.736   2.936
  366SOL    HW2   97   1.229   1.635   3.008
  370SOL     OW   98   1.388   1.573   2.339
  370SOL    HW1   99   1.455   1.585   2.265
  370SOL    HW2  100   1.348   1.662   2.362
  375SOL     OW  101   1.650   1.720   3.256
  375SOL    HW1  102   1.703   1.730   3.172
  375SOL    HW2  103   1.623   1.810   3.290
  381SOL     OW  104   1.504   1.607   1.906
  381SOL    HW1  105   1.412   1.644   1.913
  381SOL    HW2  106   1.542   1.627   1.816
  383SOL     OW  107   1.614   1.292   3.151
  383SOL    HW1  108   1.674   1.295   3.231
  383SOL    HW2  109   1.539   1.356   3.164
  396SOL     OW  110   1.493   1.767   2.821
  396SOL    HW1  111   1.526   1.831   2.752
  396SOL    HW2  112   1.559   1.761   2.896
  409SOL     OW  113   1.861   1.569   2.713
  409SOL    HW1  114   1.790   1.557   2.643
  409SOL    HW2  115   1.862   1.490   2.773
  415SOL     OW  116   1.705   1.487   2.966
  415SOL    HW1  117   1.612   1.462   2.939
  415SOL    HW2  118   1.731   1.437   3.048
  615SOL     OW  119   1.594   1.976   1.480
  615SOL    HW1  120   1.576   2.043   1.408
  615SOL    HW2  121   1.591   2.022   1.569
  635SOL     OW  122   1.394   2.331   1.674
  635SOL    HW1  123   1.374   2.374   1.762
  635SOL    HW2  124   1.472   2.269   1.683
  642SOL     OW  125   1.719   2.447   1.831
  642SOL    HW1  126   1.693   2.536   1.795
  642SOL    HW2  127   1.717   2.379   1.758
  660SOL     OW  128   1.547   2.084   1.729
  660SOL    HW1  129   1.542   2.121   1.821
  660SOL    HW2  130   1.475   2.015   1.717
  663SOL     OW  131   1.351   2.452   1.433
  663SOL    HW1  132   1.379   2.409   1.518
  663SOL    HW2  133   1.376   2.548   1.434
  686SOL     OW  134   1.754   3.085   1.588
  686SOL    HW1  135   1.845   3.046   1.575
  686SOL    HW2  136   1.762   3.181   1.612
  688SOL     OW  137   1.592   3.491   1.625
  688SOL    HW1  138   1.619   3.525   1.535
  688SOL    HW2  139   1.671   3.453   1.671
  704SOL     OW  140   1.587   2.641   1.670
  704SOL    HW1  141   1.495   2.679   1.665
  704SOL    HW2  142   1.647   2.688   1.605
  713SOL     OW  143   1.728   2.797   1.854
  713SOL    HW1  144   1.682   2.790   1.765
  713SOL    HW2  145   1.666   2.841   1.920
  718SOL     OW  146   1.859   3.380   1.605
  718SOL    HW1  147   1.873   3.407   1.510
  718SOL    HW2  148   1.942   3.402   1.658
  725SOL     OW  149   1.138   2.242   1.678
  725SOL    HW1  150   1.093   2.305   1.742
  725SOL    HW2  151   1.231   2.273   1.661
  733SOL     OW  152   1.369   2.812   1.660
  733SOL    HW1  153   1.408   2.901   1.680
  733SOL    HW2  154   1.379   2.792   1.563
  735SOL     OW  155   1.657   2.466   1.206
  735SOL    HW1  156   1.619   2.397   1.268
  735SOL    HW2  157   1.739   2.430   1.162
  762SOL     OW  158   1.614   3.154   1.289
  762SOL    HW1  159   1.674   3.157   1.369
  762SOL    HW2  160   1.539   3.218   1.302
  766SOL     OW  161   1.709   2.247   1.381
  766SOL    HW1  162   1.782   2.316   1.385
  766SOL    HW2  163   1.737   2.172   1.322
  771SOL     OW  164   1.440   2.718   1.398
  771SOL    HW1  165   1.383   2.770   1.335
  771SOL    HW2  166   1.536   2.730   1.374
  777SOL     OW  167   1.450   3.082   1.633
  777SOL    HW1  168   1.441   3.072   1.732
  777SOL    HW2  169   1.546   3.075   1.607
  779SOL     OW  170   1.674   2.745   1.254
  779SOL    HW1  171   1.647   2.656   1.217
  779SOL    HW2  172   1.675   2.813   1.181
  782SOL     OW  173   1.777   2.204   1.642
  782SOL    HW1  174   1.760   2.235   1.548
  782SOL    HW2  175   1.693   2.167   1.680
  783SOL     OW  176   1.730   2.796   1.517
  783SOL    HW1  177   1.768   2.887   1.532
  783SOL    HW2  178   1.722   2.779   1.418
  792SOL     OW  179   1.824   2.054   1.227
  792SOL    HW1  180   1.820   1.964   1.271
  792SOL    HW2  181   1.827   2.043   1.128
  810SOL     OW  182   1.555   3.373   2.565
  810SOL    HW1  183   1.498   3.357   2.646
  810SOL    HW2  184   1.496   3.383   2.485
  811SOL     OW  185   1.135   2.565   2.579
  811SOL    HW1  186   1.192   2.643   2.554
  811SOL    HW2  187   1.075   2.591   2.655
  812SOL     OW  188   1.755   2.469   2.093
  812SOL    HW1  189   1.743   2.456   1.994
  812SOL    HW2  190   1.725   2.388   2.142
  818SOL     OW  191   1.460   3.367   3.201
  818SOL    HW1  192   1.484   3.461   3.227
  818SOL    HW2  193   1.444   3.313   3.283
  820SOL     OW  194   1.603   2.309   2.599
  820SOL    HW1  195   1.529   2.355   2.549
  820SOL    HW2  196   1.654   2.377   2.652
  827SOL     OW  197   1.594   1.976   3.342
  827SOL    HW1  198   1.576   2.043   3.270
  827SOL    HW2  199   1.591   2.022   3.431
  829SOL     OW  200   1.842   3.629   2.221
  829SOL    HW1  201   1.896   3.600   2.301
  829SOL    HW2  202   1.872   3.719   2.192
  831SOL     OW  203   1.689   2.784   2.474
  831SOL    HW1  204   1.784   2.755   2.482
  831SOL    HW2  205   1.681   2.849   2.399
  832SOL     OW  206   1.641   2.970   2.294
  832SOL    HW1  207   1.727   2.972   2.242
  832SOL    HW2  208   1.655   3.017   2.382
  835SOL     OW  209   1.293   3.090   3.285
  835SOL    HW1  210   1.330   3.017   3.227
  835SOL    HW2  211   1.345   3.095   3.370
  838SOL     OW  212   1.525   2.861   2.052
  838SOL    HW1  213   1.462   2.785   2.065
  838SOL    HW2  214   1.573   2.879   2.138
  841SOL     OW  215   1.466   3.279   2.815
  841SOL    HW1  216   1.407   3.285   2.895
  841SOL    HW2  217   1.451   3.191   2.769
  842SOL     OW  218   1.667   3.576   2.434
  842SOL    HW1  219   1.626   3.553   2.346
  842SOL    HW2  220   1.649   3.502   2.499
  844SOL     OW  221   1.281   2.207   2.806
  844SOL    HW1  222   1.195   2.157   2.793
  844SOL    HW2  223   1.343   2.153   2.862
  845SOL     OW  224   1.576   3.524   2.169
  845SOL    HW1  225   1.665   3.570   2.172
  845SOL    HW2  226   1.555   3.500   2.074
  847SOL     OW  227   1.394   2.331   3.536
  847SOL    HW1  228   1.374   2.374   3.624
  847SOL    HW2  229   1.472   2.269   3.545
  849SOL     OW  230   0.991   2.272   3.104
  849SOL    HW1  231   0.914   2.306   3.158
  849SOL    HW2  232   0.957   2.221   3.025
  850SOL     OW  233   1.041   2.563   2.291
  850SOL    HW1  234   1.067   2.559   2.387
  850SOL    HW2  235   0.956   2.512   2.277
  854SOL     OW  236   1.719   2.447   3.693
  854SOL    HW1  237   1.693   2.536   3.657
  854SOL    HW2  238   1.717   2.379   3.620
  855SOL     OW  239   1.362   3.006   2.407
  855SOL    HW1  240   1.445   2.977   2.359
  855SOL    HW2  241   1.313   3.073   2.351
  857SOL     OW  242   1.008   3.318   2.339
  857SOL    HW1  243   0.962   3.390   2.287
  857SOL    HW2  244   1.004   3.338   2.437
  859SOL     OW  245   1.795   2.928   2.735
  859SOL    HW1  246   1.733   2.913   2.659
  859SOL    HW2  247   1.743   2.939   2.820
  860SOL     OW  248   1.227   3.412   3.368
  860SOL    HW1  249   1.233   3.335   3.432
  860SOL    HW2  250   1.175   3.386   3.288
  862SOL     OW  251   1.458   2.597   2.590
  862SOL    HW1  252   1.453   2.532   2.665
  862SOL    HW2  253   1.538   2.656   2.603
  866SOL     OW  254   1.632   3.239   1.943
  866SOL    HW1  255   1.600   3.333   1.933
  866SOL    HW2  256   1.556   3.176   1.931
  868SOL     OW  257   1.400   1.969   2.288
  868SOL    HW1  258   1.376   1.932   2.198
  868SOL    HW2  259   1.499   1.985   2.292
  872SOL     OW  260   1.547   2.084   3.591
  872SOL    HW1  261   1.542   2.121   3.683
  872SOL    HW2  262   1.475   2.015   3.579
  876SOL     OW  263   1.351   2.452   3.295
  876SOL    HW1  264   1.379   2.409   3.380
  876SOL    HW2  265   1.376   2.548   3.296
  878SOL     OW  266   0.922   2.365   2.761
  878SOL    HW1  267   0.897   2.356   2.665
  878SOL    HW2  268   0.970   2.283   2.792
  880SOL     OW  269   1.434   3.050   1.903
  880SOL    HW1  270   1.466   2.974   1.960
  880SOL    HW2  271   1.342   3.077   1.933
  882SOL     OW  272   0.935   2.098   2.342
  882SOL    HW1  273   0.887   2.139   2.264
  882SOL    HW2  274   1.034   2.096   2.323
  883SOL     OW  275   1.076   2.545   3.326
  883SOL    HW1  276   0.996   2.484   3.329
  883SOL    HW2  277   1.157   2.492   3.302
  884SOL     OW  278   1.227   3.432   2.655
  884SOL    HW1  279   1.248   3.506   2.590
  884SOL    HW2  280   1.295   3.432   2.728
  886SOL     OW  281   1.271   3.659   2.453
  886SOL    HW1  282   1.315   3.723   2.389
  886SOL    HW2  283   1.221   3.711   2.523
  887SOL     OW  284   1.032   2.411   1.878
  887SOL    HW1  285   0.991   2.493   1.839
  887SOL    HW2  286   1.096   2.437   1.951
  890SOL     OW  287   0.866   2.316   2.504
  890SOL    HW1  288   0.834   2.388   2.442
  890SOL    HW2  289   0.890   2.235   2.451
  891SOL     OW  290   1.017   1.901   2.615
  891SOL    HW1  291   0.945   1.906   2.546
  891SOL    HW2  292   0.993   1.832   2.684
  892SOL     OW  293   1.429   3.035   2.729
  892SOL    HW1  294   1.374   2.951   2.722
  892SOL    HW2  295   1.455   3.064   2.637
  893SOL     OW  296   1.466   2.452   2.854
  893SOL    HW1  297   1.436   2.357   2.861
  893SOL    HW2  298   1.539   2.468   2.920
  894SOL     OW  299   1.857   2.695   2.239
  894SOL    HW1  300   1.899   2.631   2.303
  894SOL    HW2  301   1.819   2.644   2.161
  896SOL     OW  302   1.664   3.142   2.519
  896SOL    HW1  303   1.763   3.150   2.533
  896SOL    HW2  304   1.619   3.226   2.550
  897SOL     OW  305   1.390   2.437   1.940
  897SOL    HW1  306   1.336   2.416   2.021
  897SOL    HW2  307   1.481   2.396   1.949
  899SOL     OW  308   1.754   3.085   3.450
  899SOL    HW1  309   1.845   3.046   3.437
  899SOL    HW2  310   1.762   3.181   3.474
  900SOL     OW  311   1.064   3.209   3.202
  900SOL    HW1  312   0.984   3.186   3.257
  900SOL    HW2  313   1.147   3.183   3.251
  901SOL     OW  314   1.592   3.491   3.487
  901SOL    HW1  315   1.619   3.525   3.397
  901SOL    HW2  316   1.671   3.453   3.533
  902SOL     OW  317   1.111   3.057   2.962
  902SOL    HW1  318   1.071   3.101   3.043
  902SOL    HW2  319   1.070   3.094   2.879
  903SOL     OW  320   1.638   2.961   2.941
  903SOL    HW1  321   1.643   3.042   3.000
  903SOL    HW2  322   1.552   2.963   2.890
  908SOL     OW  323   1.274   2.248   3.124
  908SOL    HW1  324   1.295   2.322   3.188
  908SOL    HW2  325   1.185   2.265   3.081
  912SOL     OW  326   1.252   3.210   2.250
  912SOL    HW1  327   1.302   3.287   2.290
  912SOL    HW2  328   1.157   3.212   2.282
  913SOL     OW  329   1.272   3.307   3.004
  913SOL    HW1  330   1.319   3.320   3.091
  913SOL    HW2  331   1.206   3.233   3.013
  914SOL     OW  332   1.582   2.501   2.334
  914SOL    HW1  333   1.551   2.562   2.407
  914SOL    HW2  334   1.632   2.553   2.265
  917SOL     OW  335   1.587   2.641   3.532
  917SOL    HW1  336   1.495   2.679   3.527
  917SOL    HW2  337   1.647   2.688   3.467
  921SOL     OW  338   1.360   2.724   2.907
  921SOL    HW1  339   1.285   2.724   2.841
  921SOL    HW2  340   1.397   2.632   2.916
  922SOL     OW  341   1.209   2.387   2.137
  922SOL    HW1  342   1.222   2.303   2.191
  922SOL    HW2  343   1.180   2.461   2.197
  926SOL     OW  344   1.728   2.797   3.716
  926SOL    HW1  345   1.682   2.790   3.627
  926SOL    HW2  346   1.666   2.841   3.782
  928SOL     OW  347   1.622   2.229   2.236
  928SOL    HW1  348   1.624   2.153   2.300
  928SOL    HW2  349   1.574   2.306   2.276
  929SOL     OW  350   1.023   2.628   2.828
  929SOL    HW1  351   1.038   2.649   2.924
  929SOL    HW2  352   0.993   2.533   2.819
  931SOL     OW  353   1.859   3.380   3.467
  931SOL    HW1  354   1.873   3.407   3.372
  931SOL    HW2  355   1.942   3.402   3.520
  933SOL     OW  356   1.540   2.136   1.987
  933SOL    HW1  357   1.479   2.061   2.010
  933SOL    HW2  358   1.562   2.188   2.070
  934SOL     OW  359   1.303   2.700   1.904
  934SOL    HW1  360   1.337   2.607   1.919
  934SOL    HW2  361   1.321   2.727   1.809
  935SOL     OW  362   1.068   3.195   2.711
  935SOL    HW1  363   1.075   3.111   2.656
  935SOL    HW2  364   1.130   3.264   2.675
  938SOL     OW  365   1.138   2.242   3.540
  938SOL    HW1  366   1.093   2.305   3.604
  938SOL    HW2  367   1.231   2.273   3.523
  939SOL     OW  368   1.160   2.069   3.339
  939SOL    HW1  369   1.160   2.133   3.416
  939SOL    HW2  370   1.188   2.117   3.256
  943SOL     OW  371   1.002   2.658   3.100
  943SOL    HW1  372   1.043   2.626   3.186
  943SOL    HW2  373   0.906   2.631   3.097
  946SOL     OW  374   1.369   2.812   3.522
  946SOL    HW1  375   1.408   2.901   3.542
  946SOL    HW2  376   1.379   2.792   3.425
  948SOL     OW  377   1.657   2.466   3.068
  948SOL    HW1  378   1.619   2.397   3.130
  948SOL    HW2  379   1.739   2.430   3.024
  954SOL     OW  380   1.347   2.921   3.096
  954SOL    HW1  381   1.371   2.858   3.022
  954SOL    HW2  382   1.257   2.961   3.078
  955SOL     OW  383   1.302   2.717   2.171
  955SOL    HW1  384   1.216   2.686   2.213
  955SOL    HW2  385   1.298   2.703   2.072
  956SOL     OW  386   1.759   3.609   3.016
  956SOL    HW1  387   1.820   3.639   2.943
  956SOL    HW2  388   1.721   3.520   2.994
  957SOL     OW  389   1.252   3.593   2.990
  957SOL    HW1  390   1.336   3.598   2.936
  957SOL    HW2  391   1.229   3.497   3.008
  960SOL     OW  392   1.726   1.997   2.385
  960SOL    HW1  393   1.799   1.980   2.318
  960SOL    HW2  394   1.695   1.910   2.423
  961SOL     OW  395   1.388   3.435   2.339
  961SOL    HW1  396   1.455   3.447   2.265
  961SOL    HW2  397   1.348   3.524   2.362
  963SOL     OW  398   1.280   2.789   2.534
  963SOL    HW1  399   1.340   2.708   2.536
  963SOL    HW2  400   1.320   2.858   2.474
  966SOL     OW  401   1.650   3.582   3.256
  966SOL    HW1  402   1.703   3.592   3.172
  966SOL    HW2  403   1.623   3.672   3.290
  967SOL     OW  404   1.841   2.037   2.825
  967SOL    HW1  405   1.880   1.952   2.789
  967SOL    HW2  406   1.743   2.039   2.806
  971SOL     OW  407   0.916   2.772   2.153
  971SOL    HW1  408   0.979   2.810   2.085
  971SOL    HW2  409   0.956   2.689   2.192
  972SOL     OW  410   1.504   3.469   1.906
  972SOL    HW1  411   1.412   3.506   1.913
  972SOL    HW2  412   1.542   3.489   1.816
  974SOL     OW  413   1.614   3.154   3.151
  974SOL    HW1  414   1.674   3.157   3.231
  974SOL    HW2  415   1.539   3.218   3.164
  975SOL     OW  416   1.039   2.960   2.558
  975SOL    HW1  417   0.969   2.913   2.612
  975SOL    HW2  418   1.098   2.892   2.515
  976SOL     OW  419   1.014   2.098   2.833
  976SOL    HW1  420   1.006   2.062   2.740
  976SOL    HW2  421   1.012   2.022   2.898
  978SOL     OW  422   1.709   2.247   3.243
  978SOL    HW1  423   1.782   2.316   3.247
  978SOL    HW2  424   1.737   2.172   3.184
  983SOL     OW  425   1.440   2.718   3.260
  983SOL    HW1  426   1.383   2.770   3.197
  983SOL    HW2  427   1.536   2.730   3.236
  985SOL     OW  428   1.183   3.197   1.981
  985SOL    HW1  429   1.084   3.186   1.983
  985SOL    HW2  430   1.217   3.212   2.074
  987SOL     OW  431   1.493   3.629   2.821
  987SOL    HW1  432   1.526   3.693   2.752
  987SOL    HW2  433   1.559   3.623   2.896
  989SOL     OW  434   1.450   3.082   3.495
  989SOL    HW1  435   1.441   3.072   3.594
  989SOL    HW2  436   1.546   3.075   3.469
  991SOL     OW  437   1.674   2.745   3.116
  991SOL    HW1  438   1.647   2.656   3.079
  991SOL    HW2  439   1.675   2.813   3.043
  992SOL     OW  440   1.225   2.187   2.311
  992SOL    HW1  441   1.290   2.113   2.300
  992SOL    HW2  442   1.245   2.237   2.395
  994SOL     OW  443   1.777   2.204   3.504
  994SOL    HW1  444   1.760   2.235   3.410
  994SOL    HW2  445   1.693   2.167   3.542
  995SOL     OW  446   1.730   2.796   3.379
  995SOL    HW1  447   1.768   2.887   3.394
  995SOL    HW2  448   1.722   2.779   3.280
  998SOL     OW  449   0.859   2.818   2.723
  998SOL    HW1  450   0.913   2.749   2.771
  998SOL    HW2  451   0.827   2.887   2.789
  999SOL     OW  452   1.083   2.846   1.949
  999SOL    HW1  453   1.060   2.899   1.867
  999SOL    HW2  454   1.164   2.790   1.930
 1000SOL     OW  455   1.861   3.431   2.713
 1000SOL    HW1  456   1.790   3.419   2.643
 1000SOL    HW2  457   1.862   3.352   2.773
 1004SOL     OW  458   1.824   2.054   3.089
 1004SOL    HW1  459   1.820   1.964   3.133
 1004SOL    HW2  460   1.827   2.043   2.990
 1006SOL     OW  461   1.705   3.349   2.966
 1006SOL    HW1  462   1.612   3.324   2.939
 1006SOL    HW2  463   1.731   3.299   3.048
 1009SOL     OW  464   1.424   2.076   2.974
 1009SOL    HW1  465   1.476   2.011   3.029
 1009SOL    HW2  466   1.375   2.139   3.035
 1013SOL     OW  467   1.352   1.914   2.030
 1013SOL    HW1  468   1.387   1.873   1.946
 1013SOL    HW2  469   1.262   1.876   2.050
 1014SOL     OW  470   1.300   2.315   2.553
 1014SOL    HW1  471   1.241   2.395   2.557
 1014SOL    HW2  472   1.315   2.280   2.646
 1015SOL     OW  473   1.593   2.083   2.744
 1015SOL    HW1  474   1.509   2.082   2.798
 1015SOL    HW2  475   1.595   2.166   2.688
 1024SOL     OW  476   1.755   2.469   3.955
 1024SOL    HW1  477   1.743   2.456   3.856
 1024SOL    HW2  478   1.725   2.388   4.004
 1043SOL     OW  479   1.525   2.861   3.914
 1043SOL    HW1  480   1.462   2.785   3.927
 1043SOL    HW2  481   1.573   2.879   4.000
 1063SOL     OW  482   1.632   3.239   3.805
 1063SOL    HW1  483   1.600   3.333   3.795
 1063SOL    HW2  484   1.556   3.176   3.793
 1074SOL     OW  485   1.434   3.050   3.765
 1074SOL    HW1  486   1.466   2.974   3.822
 1074SOL    HW2  487   1.342   3.077   3.795
 1087SOL     OW  488   1.857   2.695   4.101
 1087SOL    HW1  489   1.899   2.631   4.165
 1087SOL    HW2  490   1.819   2.644   4.023
 1090SOL     OW  491   1.390   2.437   3.802
 1090SOL    HW1  492   1.336   2.416   3.883
 1090SOL    HW2  493   1.481   2.396   3.811
 1116SOL     OW  494   1.540   2.136   3.849
 1116SOL    HW1  495   1.479   2.061   3.872
 1116SOL    HW2  496   1.562   2.188   3.932
 1117SOL     OW  497   1.303   2.700   3.766
 1117SOL    HW1  498   1.337   2.607   3.781
 1117SOL    HW2  499   1.321   2.727   3.671
 1376SOL     OW  500   1.594   3.838   3.342
 1376SOL    HW1  501   1.576   3.905   3.270
 1376SOL    HW2  502   1.591   3.884   3.431
 1409SOL     OW  503   1.400   3.831   2.288
 1409SOL    HW1  504   1.376   3.794   2.198
 1409SOL    HW2  505   1.499   3.847   2.292
 1487SOL     OW  506   1.726   3.859   2.385
 1487SOL    HW1  507   1.799   3.842   2.318
 1487SOL    HW2  508   1.695   3.772   2.423
 1490SOL     OW  509   1.841   3.899   2.825
 1490SOL    HW1  510   1.880   3.814   2.789
 1490SOL    HW2  511   1.743   3.901   2.806
 1520SOL     OW  512   1.824   3.916   3.089
 1520SOL    HW1  513   1.820   3.826   3.133
 1520SOL    HW2  514   1.827   3.905   2.990
 1529SOL     OW  515   1.593   3.945   2.744
 1529SOL    HW1  516   1.509   3.944   2.798
 1529SOL    HW2  517   1.595   4.028   2.688
 1679SOL     OW  518   2.548   1.161   1.803
 1679SOL    HW1  519   2.608   1.240   1.817
 1679SOL    HW2  520   2.462   1.192   1.762
 1685SOL     OW  521   2.989   1.341   1.690
 1685SOL    HW1  522   3.036   1.341   1.778
 1685SOL    HW2  523   2.941   1.254   1.679
 1688SOL     OW  524   2.482   1.786   1.439
 1688SOL    HW1  525   2.390   1.769   1.474
 1688SOL    HW2  526   2.510   1.878   1.465
 1702SOL     OW  527   3.049   1.792   1.616
 1702SOL    HW1  528   3.073   1.852   1.540
 1702SOL    HW2  529   3.056   1.697   1.586
 1715SOL     OW  530   1.992   1.821   1.571
 1715SOL    HW1  531   1.982   1.806   1.670
 1715SOL    HW2  532   1.906   1.857   1.535
 1723SOL     OW  533   3.089   1.550   1.506
 1723SOL    HW1  534   3.095   1.473   1.570
 1723SOL    HW2  535   3.037   1.524   1.426
 1726SOL     OW  536   2.323   1.266   1.727
 1726SOL    HW1  537   2.273   1.267   1.641
 1726SOL    HW2  538   2.260   1.248   1.803
 1732SOL     OW  539   2.111   1.785   1.241
 1732SOL    HW1  540   2.168   1.720   1.291
 1732SOL    HW2  541   2.095   1.752   1.148
 1738SOL     OW  542   2.750   1.514   1.195
 1738SOL    HW1  543   2.727   1.489   1.101
 1738SOL    HW2  544   2.811   1.445   1.234
 1764SOL     OW  545   3.454   1.629   1.625
 1764SOL    HW1  546   3.481   1.663   1.535
 1764SOL    HW2  547   3.533   1.591   1.671
 1768SOL     OW  548   2.842   1.116   1.719
 1768SOL    HW1  549   2.743   1.122   1.729
 1768SOL    HW2  550   2.865   1.036   1.663
 1772SOL     OW  551   1.926   1.564   1.331
 1772SOL    HW1  552   1.880   1.646   1.297
 1772SOL    HW2  553   2.024   1.583   1.340
 1778SOL     OW  554   2.216   1.510   1.329
 1778SOL    HW1  555   2.195   1.466   1.242
 1778SOL    HW2  556   2.313   1.536   1.332
 1793SOL     OW  557   2.842   1.573   1.700
 1793SOL    HW1  558   2.822   1.617   1.612
 1793SOL    HW2  559   2.881   1.482   1.684
 1812SOL     OW  560   2.114   1.564   1.744
 1812SOL    HW1  561   2.084   1.621   1.820
 1812SOL    HW2  562   2.107   1.467   1.770
 1814SOL     OW  563   2.792   1.678   1.465
 1814SOL    HW1  564   2.768   1.660   1.370
 1814SOL    HW2  565   2.822   1.772   1.475
 1820SOL     OW  566   3.114   1.731   1.128
 1820SOL    HW1  567   3.198   1.736   1.074
 1820SOL    HW2  568   3.091   1.635   1.146
 1822SOL     OW  569   2.550   1.662   1.716
 1822SOL    HW1  570   2.494   1.743   1.725
 1822SOL    HW2  571   2.602   1.666   1.630
 1826SOL     OW  572   1.992   1.794   1.851
 1826SOL    HW1  573   1.951   1.720   1.904
 1826SOL    HW2  574   2.056   1.845   1.909
 1828SOL     OW  575   2.692   1.273   1.422
 1828SOL    HW1  576   2.687   1.306   1.517
 1828SOL    HW2  577   2.606   1.292   1.376
 1830SOL     OW  578   3.512   1.720   1.394
 1830SOL    HW1  579   3.565   1.730   1.310
 1830SOL    HW2  580   3.485   1.810   1.428
 1837SOL     OW  581   2.234   1.288   1.490
 1837SOL    HW1  582   2.221   1.381   1.456
 1837SOL    HW2  583   2.150   1.236   1.477
 1853SOL     OW  584   2.252   1.741   1.560
 1853SOL    HW1  585   2.161   1.782   1.558
 1853SOL    HW2  586   2.245   1.647   1.592
 1864SOL     OW  587   2.083   1.314   1.844
 1864SOL    HW1  588   2.018   1.241   1.823
 1864SOL    HW2  589   2.087   1.328   1.942
 1866SOL     OW  590   2.534   1.391   1.624
 1866SOL    HW1  591   2.456   1.341   1.662
 1866SOL    HW2  592   2.531   1.486   1.655
 1875SOL     OW  593   2.480   1.567   1.284
 1875SOL    HW1  594   2.475   1.649   1.341
 1875SOL    HW2  595   2.569   1.564   1.239
 1884SOL     OW  596   2.431   1.275   3.027
 1884SOL    HW1  597   2.338   1.268   2.990
 1884SOL    HW2  598   2.442   1.364   3.071
 1885SOL     OW  599   3.417   1.511   2.565
 1885SOL    HW1  600   3.360   1.495   2.646
 1885SOL    HW2  601   3.358   1.521   2.485
 1888SOL     OW  602   2.630   1.144   2.885
 1888SOL    HW1  603   2.552   1.161   2.945
 1888SOL    HW2  604   2.664   1.231   2.849
 1890SOL     OW  605   2.547   1.012   2.527
 1890SOL    HW1  606   2.616   0.996   2.597
 1890SOL    HW2  607   2.474   1.069   2.565
 1891SOL     OW  608   2.548   1.161   3.665
 1891SOL    HW1  609   2.608   1.240   3.679
 1891SOL    HW2  610   2.462   1.192   3.624
 1892SOL     OW  611   2.197   1.435   2.923
 1892SOL    HW1  612   2.119   1.404   2.870
 1892SOL    HW2  613   2.255   1.493   2.866
 1893SOL     OW  614   3.322   1.505   3.201
 1893SOL    HW1  615   3.346   1.599   3.227
 1893SOL    HW2  616   3.306   1.451   3.283
 1896SOL     OW  617   2.093   1.713   2.345
 1896SOL    HW1  618   2.127   1.790   2.399
 1896SOL    HW2  619   2.137   1.713   2.255
 1897SOL     OW  620   2.989   1.341   3.552
 1897SOL    HW1  621   3.036   1.341   3.640
 1897SOL    HW2  622   2.941   1.254   3.541
 1898SOL     OW  623   2.092   1.434   2.400
 1898SOL    HW1  624   2.066   1.530   2.400
 1898SOL    HW2  625   2.021   1.380   2.445
 1899SOL     OW  626   2.102   1.091   2.748
 1899SOL    HW1  627   2.116   1.007   2.800
 1899SOL    HW2  628   2.047   1.155   2.803
 1900SOL     OW  629   2.482   1.786   3.301
 1900SOL    HW1  630   2.390   1.769   3.336
 1900SOL    HW2  631   2.510   1.878   3.327
 1901SOL     OW  632   2.468   0.964   1.985
 1901SOL    HW1  633   2.475   1.048   1.931
 1901SOL    HW2  634   2.514   0.977   2.073
 1904SOL     OW  635   3.704   1.767   2.221
 1904SOL    HW1  636   3.758   1.738   2.301
 1904SOL    HW2  637   3.734   1.857   2.192
 1905SOL     OW  638   1.889   1.596   1.979
 1905SOL    HW1  639   1.870   1.500   2.000
 1905SOL    HW2  640   1.856   1.654   2.054
 1907SOL     OW  641   3.503   1.108   2.294
 1907SOL    HW1  642   3.589   1.110   2.242
 1907SOL    HW2  643   3.517   1.155   2.382
 1909SOL     OW  644   2.475   1.365   2.588
 1909SOL    HW1  645   2.426   1.278   2.597
 1909SOL    HW2  646   2.452   1.408   2.501
 1910SOL     OW  647   3.155   1.228   3.285
 1910SOL    HW1  648   3.192   1.155   3.227
 1910SOL    HW2  649   3.207   1.233   3.370
 1914SOL     OW  650   3.049   1.792   3.478
 1914SOL    HW1  651   3.073   1.852   3.402
 1914SOL    HW2  652   3.056   1.697   3.448
 1916SOL     OW  653   3.328   1.417   2.815
 1916SOL    HW1  654   3.269   1.423   2.895
 1916SOL    HW2  655   3.313   1.329   2.769
 1917SOL     OW  656   3.529   1.714   2.434
 1917SOL    HW1  657   3.488   1.691   2.346
 1917SOL    HW2  658   3.511   1.640   2.499
 1920SOL     OW  659   3.438   1.662   2.169
 1920SOL    HW1  660   3.527   1.708   2.172
 1920SOL    HW2  661   3.417   1.638   2.074
 1927SOL     OW  662   1.992   1.821   3.433
 1927SOL    HW1  663   1.982   1.806   3.532
 1927SOL    HW2  664   1.906   1.857   3.397
 1930SOL     OW  665   3.224   1.144   2.407
 1930SOL    HW1  666   3.307   1.115   2.359
 1930SOL    HW2  667   3.175   1.211   2.351
 1932SOL     OW  668   2.870   1.456   2.339
 1932SOL    HW1  669   2.824   1.528   2.287
 1932SOL    HW2  670   2.866   1.476   2.437
 1933SOL     OW  671   2.213   1.801   2.715
 1933SOL    HW1  672   2.263   1.715   2.721
 1933SOL    HW2  673   2.278   1.878   2.712
 1935SOL     OW  674   3.089   1.550   3.368
 1935SOL    HW1  675   3.095   1.473   3.432
 1935SOL    HW2  676   3.037   1.524   3.288
 1936SOL     OW  677   2.183   0.943   2.104
 1936SOL    HW1  678   2.265   0.982   2.062
 1936SOL    HW2  679   2.156   0.861   2.055
 1938SOL     OW  680   2.323   1.266   3.589
 1938SOL    HW1  681   2.273   1.267   3.503
 1938SOL    HW2  682   2.260   1.248   3.665
 1939SOL     OW  683   2.973   1.776   2.099
 1939SOL    HW1  684   2.913   1.714   2.149
 1939SOL    HW2  685   3.004   1.732   2.014
 1941SOL     OW  686   3.494   1.377   1.943
 1941SOL    HW1  687   3.462   1.471   1.933
 1941SOL    HW2  688   3.418   1.314   1.931
 1942SOL     OW  689   2.326   1.743   2.185
 1942SOL    HW1  690   2.359   1.782   2.271
 1942SOL    HW2  691   2.402   1.736   2.120
 1944SOL     OW  692   2.111   1.785   3.103
 1944SOL    HW1  693   2.168   1.720   3.153
 1944SOL    HW2  694   2.095   1.752   3.010
 1945SOL     OW  695   2.802   1.698   2.766
 1945SOL    HW1  696   2.882   1.641   2.787
 1945SOL    HW2  697   2.753   1.658   2.689
 1950SOL     OW  698   2.750   1.514   3.057
 1950SOL    HW1  699   2.727   1.489   2.963
 1950SOL    HW2  700   2.811   1.445   3.096
 1952SOL     OW  701   2.665   1.402   2.786
 1952SOL    HW1  702   2.755   1.416   2.744
 1952SOL    HW2  703   2.594   1.404   2.715
 1955SOL     OW  704   3.296   1.188   1.903
 1955SOL    HW1  705   3.328   1.112   1.960
 1955SOL    HW2  706   3.204   1.215   1.933
 1959SOL     OW  707   3.089   1.570   2.655
 1959SOL    HW1  708   3.110   1.644   2.590
 1959SOL    HW2  709   3.157   1.570   2.728
 1960SOL     OW  710   2.321   1.152   2.603
 1960SOL    HW1  711   2.250   1.125   2.668
 1960SOL    HW2  712   2.295   1.124   2.510
 1961SOL     OW  713   3.133   1.797   2.453
 1961SOL    HW1  714   3.177   1.861   2.389
 1961SOL    HW2  715   3.083   1.849   2.523
 1967SOL     OW  716   3.291   1.173   2.729
 1967SOL    HW1  717   3.236   1.089   2.722
 1967SOL    HW2  718   3.317   1.202   2.637
 1970SOL     OW  719   2.350   1.385   2.036
 1970SOL    HW1  720   2.263   1.370   2.083
 1970SOL    HW2  721   2.333   1.411   1.941
 1971SOL     OW  722   3.526   1.280   2.519
 1971SOL    HW1  723   3.625   1.288   2.533
 1971SOL    HW2  724   3.481   1.364   2.550
 1975SOL     OW  725   2.926   1.347   3.202
 1975SOL    HW1  726   2.846   1.324   3.257
 1975SOL    HW2  727   3.009   1.321   3.251
 1976SOL     OW  728   3.454   1.629   3.487
 1976SOL    HW1  729   3.481   1.663   3.397
 1976SOL    HW2  730   3.533   1.591   3.533
 1977SOL     OW  731   2.973   1.195   2.962
 1977SOL    HW1  732   2.933   1.239   3.043
 1977SOL    HW2  733   2.932   1.232   2.879
 1978SOL     OW  734   3.500   1.099   2.941
 1978SOL    HW1  735   3.505   1.180   3.000
 1978SOL    HW2  736   3.414   1.101   2.890
 1980SOL     OW  737   2.842   1.116   3.581
 1980SOL    HW1  738   2.743   1.122   3.591
 1980SOL    HW2  739   2.865   1.036   3.525
 1981SOL     OW  740   2.567   1.050   2.230
 1981SOL    HW1  741   2.553   1.057   2.329
 1981SOL    HW2  742   2.651   0.999   2.212
 1984SOL     OW  743   1.926   1.564   3.193
 1984SOL    HW1  744   1.880   1.646   3.159
 1984SOL    HW2  745   2.024   1.583   3.202
 1985SOL     OW  746   2.229   1.100   2.363
 1985SOL    HW1  747   2.222   1.183   2.307
 1985SOL    HW2  748   2.233   1.020   2.303
 1987SOL     OW  749   3.114   1.348   2.250
 1987SOL    HW1  750   3.164   1.425   2.290
 1987SOL    HW2  751   3.019   1.350   2.282
 1988SOL     OW  752   3.134   1.445   3.004
 1988SOL    HW1  753   3.181   1.458   3.091
 1988SOL    HW2  754   3.068   1.371   3.013
 1990SOL     OW  755   2.216   1.510   3.191
 1990SOL    HW1  756   2.195   1.466   3.104
 1990SOL    HW2  757   2.313   1.536   3.194
 1995SOL     OW  758   2.435   0.870   2.891
 1995SOL    HW1  759   2.479   0.959   2.882
 1995SOL    HW2  760   2.372   0.870   2.968
 1999SOL     OW  761   1.899   1.310   3.144
 1999SOL    HW1  762   1.952   1.261   3.212
 1999SOL    HW2  763   1.921   1.408   3.149
 2005SOL     OW  764   2.842   1.573   3.562
 2005SOL    HW1  765   2.822   1.617   3.474
 2005SOL    HW2  766   2.881   1.482   3.546
 2006SOL     OW  767   3.721   1.518   3.467
 2006SOL    HW1  768   3.735   1.545   3.372
 2006SOL    HW2  769   3.804   1.540   3.520
 2010SOL     OW  770   2.930   1.333   2.711
 2010SOL    HW1  771   2.937   1.249   2.656
 2010SOL    HW2  772   2.992   1.402   2.675
 2015SOL     OW  773   1.870   1.326   2.062
 2015SOL    HW1  774   1.777   1.347   2.031
 2015SOL    HW2  775   1.880   1.227   2.075
 2016SOL     OW  776   1.950   1.801   2.789
 2016SOL    HW1  777   1.908   1.715   2.762
 2016SOL    HW2  778   2.044   1.804   2.755
 2017SOL     OW  779   2.366   1.568   2.772
 2017SOL    HW1  780   2.432   1.642   2.781
 2017SOL    HW2  781   2.410   1.489   2.730
 2024SOL     OW  782   2.114   1.564   3.606
 2024SOL    HW1  783   2.084   1.621   3.682
 2024SOL    HW2  784   2.107   1.467   3.632
 2026SOL     OW  785   2.792   1.678   3.327
 2026SOL    HW1  786   2.768   1.660   3.232
 2026SOL    HW2  787   2.822   1.772   3.337
 2028SOL     OW  788   2.021   1.137   3.328
 2028SOL    HW1  789   2.043   1.076   3.404
 2028SOL    HW2  790   2.031   1.088   3.242
 2029SOL     OW  791   3.209   1.059   3.096
 2029SOL    HW1  792   3.233   0.996   3.022
 2029SOL    HW2  793   3.119   1.099   3.078
 2031SOL     OW  794   3.621   1.747   3.016
 2031SOL    HW1  795   3.682   1.777   2.943
 2031SOL    HW2  796   3.583   1.658   2.994
 2032SOL     OW  797   3.114   1.731   2.990
 2032SOL    HW1  798   3.198   1.736   2.936
 2032SOL    HW2  799   3.091   1.635   3.008
 2033SOL     OW  800   1.945   1.258   2.884
 2033SOL    HW1  801   1.940   1.257   2.984
 2033SOL    HW2  802   1.862   1.217   2.846
 2034SOL     OW  803   2.550   1.662   3.578
 2034SOL    HW1  804   2.494   1.743   3.587
 2034SOL    HW2  805   2.602   1.666   3.492
 2036SOL     OW  806   3.250   1.573   2.339
 2036SOL    HW1  807   3.317   1.585   2.265
 2036SOL    HW2  808   3.210   1.662   2.362
 2037SOL     OW  809   1.992   1.794   3.713
 2037SOL    HW1  810   1.951   1.720   3.766
 2037SOL    HW2  811   2.056   1.845   3.771
 2038SOL     OW  812   3.142   0.927   2.534
 2038SOL    HW1  813   3.202   0.846   2.536
 2038SOL    HW2  814   3.182   0.996   2.474
 2039SOL     OW  815   2.692   1.273   3.284
 2039SOL    HW1  816   2.687   1.306   3.379
 2039SOL    HW2  817   2.606   1.292   3.238
 2040SOL     OW  818   2.534   1.616   2.016
 2040SOL    HW1  819   2.543   1.626   1.917
 2040SOL    HW2  820   2.494   1.527   2.037
 2041SOL     OW  821   3.512   1.720   3.256
 2041SOL    HW1  822   3.565   1.730   3.172
 2041SOL    HW2  823   3.485   1.810   3.290
 2044SOL     OW  824   3.056   1.612   1.893
 2044SOL    HW1  825   3.062   1.519   1.930
 2044SOL    HW2  826   2.997   1.612   1.813
 2045SOL     OW  827   2.684   1.002   3.234
 2045SOL    HW1  828   2.724   1.001   3.142
 2045SOL    HW2  829   2.694   1.094   3.274
 2046SOL     OW  830   2.778   0.910   2.153
 2046SOL    HW1  831   2.841   0.948   2.085
 2046SOL    HW2  832   2.818   0.827   2.192
 2047SOL     OW  833   3.366   1.607   1.906
 2047SOL    HW1  834   3.274   1.644   1.913
 2047SOL    HW2  835   3.404   1.627   1.816
 2048SOL     OW  836   2.234   1.288   3.352
 2048SOL    HW1  837   2.221   1.381   3.318
 2048SOL    HW2  838   2.150   1.236   3.339
 2049SOL     OW  839   3.476   1.292   3.151
 2049SOL    HW1  840   3.536   1.295   3.231
 2049SOL    HW2  841   3.401   1.356   3.164
 2050SOL     OW  842   2.901   1.098   2.558
 2050SOL    HW1  843   2.831   1.051   2.612
 2050SOL    HW2  844   2.960   1.030   2.515
 2052SOL     OW  845   2.452   1.487   2.353
 2052SOL    HW1  846   2.494   1.429   2.283
 2052SOL    HW2  847   2.408   1.566   2.309
 2054SOL     OW  848   2.117   1.348   2.152
 2054SOL    HW1  849   2.021   1.349   2.125
 2054SOL    HW2  850   2.129   1.401   2.236
 2059SOL     OW  851   3.045   1.335   1.981
 2059SOL    HW1  852   2.946   1.324   1.983
 2059SOL    HW2  853   3.079   1.350   2.074
 2061SOL     OW  854   3.355   1.767   2.821
 2061SOL    HW1  855   3.388   1.831   2.752
 2061SOL    HW2  856   3.421   1.761   2.896
 2063SOL     OW  857   3.312   1.220   3.495
 2063SOL    HW1  858   3.303   1.210   3.594
 2063SOL    HW2  859   3.408   1.213   3.469
 2064SOL     OW  860   2.252   1.741   3.422
 2064SOL    HW1  861   2.161   1.782   3.420
 2064SOL    HW2  862   2.245   1.647   3.454
 2070SOL     OW  863   2.721   1.374   1.878
 2070SOL    HW1  864   2.675   1.389   1.966
 2070SOL    HW2  865   2.765   1.459   1.848
 2071SOL     OW  866   2.523   1.790   2.815
 2071SOL    HW1  867   2.477   1.878   2.802
 2071SOL    HW2  868   2.622   1.802   2.808
 2072SOL     OW  869   2.721   0.956   2.723
 2072SOL    HW1  870   2.775   0.887   2.771
 2072SOL    HW2  871   2.689   1.025   2.789
 2073SOL     OW  872   2.945   0.984   1.949
 2073SOL    HW1  873   2.922   1.037   1.867
 2073SOL    HW2  874   3.026   0.928   1.930
 2074SOL     OW  875   3.723   1.569   2.713
 2074SOL    HW1  876   3.652   1.557   2.643
 2074SOL    HW2  877   3.724   1.490   2.773
 2075SOL     OW  878   2.083   1.314   3.706
 2075SOL    HW1  879   2.018   1.241   3.685
 2075SOL    HW2  880   2.087   1.328   3.804
 2076SOL     OW  881   1.941   1.240   2.515
 2076SOL    HW1  882   1.940   1.193   2.603
 2076SOL    HW2  883   2.023   1.212   2.464
 2077SOL     OW  884   2.534   1.391   3.486
 2077SOL    HW1  885   2.456   1.341   3.524
 2077SOL    HW2  886   2.531   1.486   3.517
 2080SOL     OW  887   3.567   1.487   2.966
 2080SOL    HW1  888   3.474   1.462   2.939
 2080SOL    HW2  889   3.593   1.437   3.048
 2082SOL     OW  890   2.674   1.586   2.549
 2082SOL    HW1  891   2.706   1.596   2.455
 2082SOL    HW2  892   2.595   1.524   2.551
 2085SOL     OW  893   2.632   1.330   2.163
 2085SOL    HW1  894   2.586   1.243   2.180
 2085SOL    HW2  895   2.723   1.327   2.204
 2086SOL     OW  896   2.480   1.567   3.146
 2086SOL    HW1  897   2.475   1.649   3.203
 2086SOL    HW2  898   2.569   1.564   3.101
 2090SOL     OW  899   1.901   1.077   2.162
 2090SOL    HW1  900   2.000   1.066   2.153
 2090SOL    HW2  901   1.861   0.991   2.194
 2091SOL     OW  902   2.737   1.646   2.199
 2091SOL    HW1  903   2.660   1.611   2.145
 2091SOL    HW2  904   2.705   1.717   2.261
 2111SOL     OW  905   1.889   1.596   3.841
 2111SOL    HW1  906   1.870   1.500   3.862
 2111SOL    HW2  907   1.856   1.654   3.916
 2136SOL     OW  908   2.973   1.776   3.961
 2136SOL    HW1  909   2.913   1.714   4.011
 2136SOL    HW2  910   3.004   1.732   3.876
 2138SOL     OW  911   2.326   1.743   4.047
 2138SOL    HW1  912   2.359   1.782   4.133
 2138SOL    HW2  913   2.402   1.736   3.982
 2162SOL     OW  914   2.350   1.385   3.898
 2162SOL    HW1  915   2.263   1.370   3.945
 2162SOL    HW2  916   2.333   1.411   3.803
 2215SOL     OW  917   2.534   1.616   3.878
 2215SOL    HW1  918   2.543   1.626   3.779
 2215SOL    HW2  919   2.494   1.527   3.899
 2218SOL     OW  920   3.056   1.612   3.755
 2218SOL    HW1  921   3.062   1.519   3.792
 2218SOL    HW2  922   2.997   1.612   3.675
 2221SOL     OW  923   3.366   1.607   3.768
 2221SOL    HW1  924   3.274   1.644   3.775
 2221SOL    HW2  925   3.404   1.627   3.678
 2238SOL     OW  926   2.721   1.374   3.740
 2238SOL    HW1  927   2.675   1.389   3.828
 2238SOL    HW2  928   2.765   1.459   3.710
 2257SOL     OW  929   2.737   1.646   4.061
 2257SOL    HW1  930   2.660   1.611   4.007
 2257SOL    HW2  931   2.705   1.717   4.123
 2259SOL     OW  932   2.087   2.137   0.996
 2259SOL    HW1  933   2.122   2.120   1.088
 2259SOL    HW2  934   1.999   2.092   0.984
 2261SOL     OW  935   2.431   3.137   1.165
 2261SOL    HW1  936   2.338   3.130   1.128
 2261SOL    HW2  937   2.442   3.226   1.209
 2265SOL     OW  938   2.630   3.006   1.023
 2265SOL    HW1  939   2.552   3.023   1.083
 2265SOL    HW2  940   2.664   3.093   0.987
 2266SOL     OW  941   2.712   2.660   1.823
 2266SOL    HW1  942   2.708   2.736   1.888
 2266SOL    HW2  943   2.734   2.696   1.732
 2268SOL     OW  944   2.548   3.023   1.803
 2268SOL    HW1  945   2.608   3.102   1.817
 2268SOL    HW2  946   2.462   3.054   1.762
 2269SOL     OW  947   2.197   3.297   1.061
 2269SOL    HW1  948   2.119   3.266   1.008
 2269SOL    HW2  949   2.255   3.355   1.004
 2270SOL     OW  950   3.322   3.367   1.339
 2270SOL    HW1  951   3.346   3.461   1.365
 2270SOL    HW2  952   3.306   3.313   1.421
 2271SOL     OW  953   2.300   2.254   1.499
 2271SOL    HW1  954   2.382   2.198   1.508
 2271SOL    HW2  955   2.219   2.196   1.503
 2274SOL     OW  956   2.989   3.203   1.690
 2274SOL    HW1  957   3.036   3.203   1.778
 2274SOL    HW2  958   2.941   3.116   1.679
 2277SOL     OW  959   2.482   3.648   1.439
 2277SOL    HW1  960   2.390   3.631   1.474
 2277SOL    HW2  961   2.510   3.740   1.465
 2279SOL     OW  962   3.456   1.976   1.480
 2279SOL    HW1  963   3.438   2.043   1.408
 2279SOL    HW2  964   3.453   2.022   1.569
 2285SOL     OW  965   1.975   2.599   1.597
 2285SOL    HW1  966   2.063   2.586   1.642
 2285SOL    HW2  967   1.962   2.696   1.575
 2287SOL     OW  968   3.155   3.090   1.423
 2287SOL    HW1  969   3.192   3.017   1.365
 2287SOL    HW2  970   3.207   3.095   1.508
 2289SOL     OW  971   2.059   2.838   1.264
 2289SOL    HW1  972   2.148   2.793   1.250
 2289SOL    HW2  973   1.986   2.773   1.245
 2291SOL     OW  974   3.049   3.654   1.616
 2291SOL    HW1  975   3.073   3.714   1.540
 2291SOL    HW2  976   3.056   3.559   1.586
 2292SOL     OW  977   2.179   2.113   1.801
 2292SOL    HW1  978   2.250   2.184   1.807
 2292SOL    HW2  979   2.091   2.152   1.829
 2296SOL     OW  980   3.143   2.207   0.944
 2296SOL    HW1  981   3.057   2.157   0.931
 2296SOL    HW2  982   3.205   2.153   1.000
 2298SOL     OW  983   2.669   2.467   1.465
 2298SOL    HW1  984   2.622   2.464   1.554
 2298SOL    HW2  985   2.618   2.412   1.399
 2299SOL     OW  986   3.256   2.331   1.674
 2299SOL    HW1  987   3.236   2.374   1.762
 2299SOL    HW2  988   3.334   2.269   1.683
 2300SOL     OW  989   2.835   2.752   1.572
 2300SOL    HW1  990   2.881   2.668   1.543
 2300SOL    HW2  991   2.779   2.786   1.497
 2301SOL     OW  992   2.853   2.272   1.242
 2301SOL    HW1  993   2.776   2.306   1.296
 2301SOL    HW2  994   2.819   2.221   1.163
 2304SOL     OW  995   1.992   3.683   1.571
 2304SOL    HW1  996   1.982   3.668   1.670
 2304SOL    HW2  997   1.906   3.719   1.535
 2306SOL     OW  998   3.581   2.447   1.831
 2306SOL    HW1  999   3.555   2.536   1.795
 2306SOL    HW2 1000   3.579   2.379   1.758
 2312SOL     OW 1001   3.089   3.412   1.506
 2312SOL    HW1 1002   3.095   3.335   1.570
 2312SOL    HW2 1003   3.037   3.386   1.426
 2315SOL     OW 1004   2.323   3.128   1.727
 2315SOL    HW1 1005   2.273   3.129   1.641
 2315SOL    HW2 1006   2.260   3.110   1.803
 2317SOL     OW 1007   2.064   2.147   1.498
 2317SOL    HW1 1008   1.984   2.207   1.485
 2317SOL    HW2 1009   2.054   2.098   1.584
 2321SOL     OW 1010   2.111   3.647   1.241
 2321SOL    HW1 1011   2.168   3.582   1.291
 2321SOL    HW2 1012   2.095   3.614   1.148
 2324SOL     OW 1013   3.409   2.084   1.729
 2324SOL    HW1 1014   3.404   2.121   1.821
 2324SOL    HW2 1015   3.337   2.015   1.717
 2325SOL     OW 1016   2.643   2.126   1.749
 2325SOL    HW1 1017   2.710   2.065   1.792
 2325SOL    HW2 1018   2.570   2.145   1.814
 2326SOL     OW 1019   2.750   3.376   1.195
 2326SOL    HW1 1020   2.727   3.351   1.101
 2326SOL    HW2 1021   2.811   3.307   1.234
 2327SOL     OW 1022   3.213   2.452   1.433
 2327SOL    HW1 1023   3.241   2.409   1.518
 2327SOL    HW2 1024   3.238   2.548   1.434
 2329SOL     OW 1025   2.784   2.365   0.899
 2329SOL    HW1 1026   2.759   2.356   0.803
 2329SOL    HW2 1027   2.832   2.283   0.930
 2334SOL     OW 1028   2.938   2.545   1.464
 2334SOL    HW1 1029   2.858   2.484   1.467
 2334SOL    HW2 1030   3.019   2.492   1.440
 2339SOL     OW 1031   1.940   2.418   1.386
 2339SOL    HW1 1032   2.032   2.417   1.345
 2339SOL    HW2 1033   1.934   2.492   1.453
 2340SOL     OW 1034   2.423   2.084   1.147
 2340SOL    HW1 1035   2.461   2.000   1.184
 2340SOL    HW2 1036   2.335   2.103   1.191
 2344SOL     OW 1037   3.328   2.452   0.992
 2344SOL    HW1 1038   3.298   2.357   0.999
 2344SOL    HW2 1039   3.401   2.468   1.058
 2350SOL     OW 1040   3.616   3.085   1.588
 2350SOL    HW1 1041   3.707   3.046   1.575
 2350SOL    HW2 1042   3.624   3.181   1.612
 2351SOL     OW 1043   2.926   3.209   1.340
 2351SOL    HW1 1044   2.846   3.186   1.395
 2351SOL    HW2 1045   3.009   3.183   1.389
 2352SOL     OW 1046   3.454   3.491   1.625
 2352SOL    HW1 1047   3.481   3.525   1.535
 2352SOL    HW2 1048   3.533   3.453   1.671
 2353SOL     OW 1049   2.973   3.057   1.100
 2353SOL    HW1 1050   2.933   3.101   1.181
 2353SOL    HW2 1051   2.932   3.094   1.017
 2355SOL     OW 1052   2.777   1.951   1.402
 2355SOL    HW1 1053   2.802   1.931   1.307
 2355SOL    HW2 1054   2.849   2.007   1.444
 2356SOL     OW 1055   2.842   2.978   1.719
 2356SOL    HW1 1056   2.743   2.984   1.729
 2356SOL    HW2 1057   2.865   2.898   1.663
 2358SOL     OW 1058   2.272   2.675   1.251
 2358SOL    HW1 1059   2.358   2.687   1.301
 2358SOL    HW2 1060   2.230   2.588   1.278
 2359SOL     OW 1061   3.136   2.248   1.262
 2359SOL    HW1 1062   3.157   2.322   1.326
 2359SOL    HW2 1063   3.047   2.265   1.219
 2360SOL     OW 1064   1.926   3.426   1.331
 2360SOL    HW1 1065   1.880   3.508   1.297
 2360SOL    HW2 1066   2.024   3.445   1.340
 2362SOL     OW 1067   2.428   2.399   0.865
 2362SOL    HW1 1068   2.440   2.465   0.791
 2362SOL    HW2 1069   2.474   2.433   0.948
 2364SOL     OW 1070   3.134   3.307   1.142
 2364SOL    HW1 1071   3.181   3.320   1.229
 2364SOL    HW2 1072   3.068   3.233   1.151
 2366SOL     OW 1073   2.216   3.372   1.329
 2366SOL    HW1 1074   2.195   3.328   1.242
 2366SOL    HW2 1075   2.313   3.398   1.332
 2367SOL     OW 1076   2.264   2.613   1.598
 2367SOL    HW1 1077   2.332   2.668   1.551
 2367SOL    HW2 1078   2.304   2.525   1.625
 2368SOL     OW 1079   3.449   2.641   1.670
 2368SOL    HW1 1080   3.357   2.679   1.665
 2368SOL    HW2 1081   3.509   2.688   1.605
 2369SOL     OW 1082   2.875   1.967   1.770
 2369SOL    HW1 1083   2.881   2.052   1.718
 2369SOL    HW2 1084   2.907   1.891   1.713
 2370SOL     OW 1085   2.366   1.912   1.740
 2370SOL    HW1 1086   2.324   1.855   1.670
 2370SOL    HW2 1087   2.300   1.981   1.772
 2371SOL     OW 1088   2.435   2.732   1.029
 2371SOL    HW1 1089   2.479   2.821   1.020
 2371SOL    HW2 1090   2.372   2.732   1.106
 2372SOL     OW 1091   3.222   2.724   1.045
 2372SOL    HW1 1092   3.147   2.724   0.979
 2372SOL    HW2 1093   3.259   2.632   1.054
 2374SOL     OW 1094   2.169   2.075   1.231
 2374SOL    HW1 1095   2.146   2.112   1.321
 2374SOL    HW2 1096   2.139   1.980   1.225
 2375SOL     OW 1097   1.899   3.172   1.282
 2375SOL    HW1 1098   1.952   3.123   1.350
 2375SOL    HW2 1099   1.921   3.270   1.287
 2376SOL     OW 1100   2.594   2.496   1.064
 2376SOL    HW1 1101   2.653   2.470   0.988
 2376SOL    HW2 1102   2.566   2.592   1.053
 2377SOL     OW 1103   3.590   2.797   1.854
 2377SOL    HW1 1104   3.544   2.790   1.765
 2377SOL    HW2 1105   3.528   2.841   1.920
 2380SOL     OW 1106   2.885   2.628   0.966
 2380SOL    HW1 1107   2.900   2.649   1.062
 2380SOL    HW2 1108   2.855   2.533   0.957
 2381SOL     OW 1109   2.842   3.435   1.700
 2381SOL    HW1 1110   2.822   3.479   1.612
 2381SOL    HW2 1111   2.881   3.344   1.684
 2382SOL     OW 1112   3.721   3.380   1.605
 2382SOL    HW1 1113   3.735   3.407   1.510
 2382SOL    HW2 1114   3.804   3.402   1.658
 2383SOL     OW 1115   2.212   2.760   1.804
 2383SOL    HW1 1116   2.288   2.804   1.852
 2383SOL    HW2 1117   2.247   2.713   1.722
 2387SOL     OW 1118   2.181   2.672   0.949
 2387SOL    HW1 1119   2.274   2.708   0.954
 2387SOL    HW2 1120   2.175   2.587   1.001
 2388SOL     OW 1121   2.201   2.371   1.006
 2388SOL    HW1 1122   2.149   2.288   0.989
 2388SOL    HW2 1123   2.278   2.376   0.942
 2389SOL     OW 1124   3.000   2.242   1.678
 2389SOL    HW1 1125   2.955   2.305   1.742
 2389SOL    HW2 1126   3.093   2.273   1.661
 2390SOL     OW 1127   3.022   2.069   1.477
 2390SOL    HW1 1128   3.022   2.133   1.554
 2390SOL    HW2 1129   3.050   2.117   1.394
 2394SOL     OW 1130   2.864   2.658   1.238
 2394SOL    HW1 1131   2.905   2.626   1.324
 2394SOL    HW2 1132   2.768   2.631   1.235
 2395SOL     OW 1133   1.902   2.406   1.114
 2395SOL    HW1 1134   1.987   2.373   1.073
 2395SOL    HW2 1135   1.915   2.421   1.212
 2396SOL     OW 1136   2.051   2.382   1.722
 2396SOL    HW1 1137   2.110   2.342   1.652
 2396SOL    HW2 1138   1.993   2.453   1.681
 2397SOL     OW 1139   3.231   2.812   1.660
 2397SOL    HW1 1140   3.270   2.901   1.680
 2397SOL    HW2 1141   3.241   2.792   1.563
 2399SOL     OW 1142   3.519   2.466   1.206
 2399SOL    HW1 1143   3.481   2.397   1.268
 2399SOL    HW2 1144   3.601   2.430   1.162
 2400SOL     OW 1145   2.114   3.426   1.744
 2400SOL    HW1 1146   2.084   3.483   1.820
 2400SOL    HW2 1147   2.107   3.329   1.770
 2401SOL     OW 1148   2.533   2.326   1.269
 2401SOL    HW1 1149   2.499   2.237   1.239
 2401SOL    HW2 1150   2.559   2.380   1.189
 2402SOL     OW 1151   2.792   3.540   1.465
 2402SOL    HW1 1152   2.768   3.522   1.370
 2402SOL    HW2 1153   2.822   3.634   1.475
 2404SOL     OW 1154   2.021   2.999   1.466
 2404SOL    HW1 1155   2.043   2.938   1.542
 2404SOL    HW2 1156   2.031   2.950   1.380
 2405SOL     OW 1157   3.209   2.921   1.234
 2405SOL    HW1 1158   3.233   2.858   1.160
 2405SOL    HW2 1159   3.119   2.961   1.216
 2409SOL     OW 1160   1.945   3.120   1.022
 2409SOL    HW1 1161   1.940   3.119   1.122
 2409SOL    HW2 1162   1.862   3.079   0.984
 2410SOL     OW 1163   2.550   3.524   1.716
 2410SOL    HW1 1164   2.494   3.605   1.725
 2410SOL    HW2 1165   2.602   3.528   1.630
 2414SOL     OW 1166   1.992   3.656   1.851
 2414SOL    HW1 1167   1.951   3.582   1.904
 2414SOL    HW2 1168   2.056   3.707   1.909
 2416SOL     OW 1169   2.692   3.135   1.422
 2416SOL    HW1 1170   2.687   3.168   1.517
 2416SOL    HW2 1171   2.606   3.154   1.376
 2418SOL     OW 1172   3.512   3.582   1.394
 2418SOL    HW1 1173   3.565   3.592   1.310
 2418SOL    HW2 1174   3.485   3.672   1.428
 2422SOL     OW 1175   2.684   2.864   1.372
 2422SOL    HW1 1176   2.724   2.863   1.280
 2422SOL    HW2 1177   2.694   2.956   1.412
 2425SOL     OW 1178   2.234   3.150   1.490
 2425SOL    HW1 1179   2.221   3.243   1.456
 2425SOL    HW2 1180   2.150   3.098   1.477
 2426SOL     OW 1181   3.476   3.154   1.289
 2426SOL    HW1 1182   3.536   3.157   1.369
 2426SOL    HW2 1183   3.401   3.218   1.302
 2428SOL     OW 1184   2.876   2.098   0.971
 2428SOL    HW1 1185   2.868   2.062   0.878
 2428SOL    HW2 1186   2.874   2.022   1.036
 2430SOL     OW 1187   3.571   2.247   1.381
 2430SOL    HW1 1188   3.644   2.316   1.385
 2430SOL    HW2 1189   3.599   2.172   1.322
 2432SOL     OW 1190   1.967   2.875   1.726
 2432SOL    HW1 1191   1.890   2.842   1.780
 2432SOL    HW2 1192   2.052   2.845   1.768
 2433SOL     OW 1193   2.534   2.065   1.489
 2433SOL    HW1 1194   2.624   2.049   1.449
 2433SOL    HW2 1195   2.542   2.070   1.588
 2435SOL     OW 1196   3.302   2.718   1.398
 2435SOL    HW1 1197   3.245   2.770   1.335
 2435SOL    HW2 1198   3.398   2.730   1.374
 2438SOL     OW 1199   2.475   2.704   1.431
 2438SOL    HW1 1200   2.531   2.785   1.414
 2438SOL    HW2 1201   2.534   2.624   1.434
 2440SOL     OW 1202   2.578   2.427   1.708
 2440SOL    HW1 1203   2.597   2.492   1.782
 2440SOL    HW2 1204   2.638   2.347   1.717
 2441SOL     OW 1205   3.312   3.082   1.633
 2441SOL    HW1 1206   3.303   3.072   1.732
 2441SOL    HW2 1207   3.408   3.075   1.607
 2442SOL     OW 1208   2.252   3.603   1.560
 2442SOL    HW1 1209   2.161   3.644   1.558
 2442SOL    HW2 1210   2.245   3.509   1.592
 2443SOL     OW 1211   3.536   2.745   1.254
 2443SOL    HW1 1212   3.509   2.656   1.217
 2443SOL    HW2 1213   3.537   2.813   1.181
 2446SOL     OW 1214   3.639   2.204   1.642
 2446SOL    HW1 1215   3.622   2.235   1.548
 2446SOL    HW2 1216   3.555   2.167   1.680
 2447SOL     OW 1217   3.592   2.796   1.517
 2447SOL    HW1 1218   3.630   2.887   1.532
 2447SOL    HW2 1219   3.584   2.779   1.418
 2450SOL     OW 1220   2.721   2.818   0.861
 2450SOL    HW1 1221   2.775   2.749   0.909
 2450SOL    HW2 1222   2.689   2.887   0.927
 2453SOL     OW 1223   2.083   3.176   1.844
 2453SOL    HW1 1224   2.018   3.103   1.823
 2453SOL    HW2 1225   2.087   3.190   1.942
 2455SOL     OW 1226   2.534   3.253   1.624
 2455SOL    HW1 1227   2.456   3.203   1.662
 2455SOL    HW2 1228   2.531   3.348   1.655
 2459SOL     OW 1229   2.179   2.409   1.280
 2459SOL    HW1 1230   2.217   2.350   1.352
 2459SOL    HW2 1231   2.219   2.383   1.192
 2461SOL     OW 1232   3.286   2.076   1.112
 2461SOL    HW1 1233   3.338   2.011   1.167
 2461SOL    HW2 1234   3.237   2.139   1.173
 2462SOL     OW 1235   2.863   1.896   1.154
 2462SOL    HW1 1236   2.800   1.824   1.123
 2462SOL    HW2 1237   2.956   1.860   1.154
 2464SOL     OW 1238   2.480   3.429   1.284
 2464SOL    HW1 1239   2.475   3.511   1.341
 2464SOL    HW2 1240   2.569   3.426   1.239
 2470SOL     OW 1241   2.092   2.490   1.975
 2470SOL    HW1 1242   1.999   2.488   2.012
 2470SOL    HW2 1243   2.093   2.451   1.883
 2471SOL     OW 1244   2.087   2.137   2.858
 2471SOL    HW1 1245   2.122   2.120   2.950
 2471SOL    HW2 1246   1.999   2.092   2.846
 2472SOL     OW 1247   1.881   2.230   2.509
 2472SOL    HW1 1248   1.799   2.273   2.548
 2472SOL    HW2 1249   1.853   2.157   2.446
 2473SOL     OW 1250   2.431   3.137   3.027
 2473SOL    HW1 1251   2.338   3.130   2.990
 2473SOL    HW2 1252   2.442   3.226   3.071
 2474SOL     OW 1253   3.417   3.373   2.565
 2474SOL    HW1 1254   3.360   3.357   2.646
 2474SOL    HW2 1255   3.358   3.383   2.485
 2475SOL     OW 1256   3.617   2.469   2.093
 2475SOL    HW1 1257   3.605   2.456   1.994
 2475SOL    HW2 1258   3.587   2.388   2.142
 2476SOL     OW 1259   2.630   3.006   2.885
 2476SOL    HW1 1260   2.552   3.023   2.945
 2476SOL    HW2 1261   2.664   3.093   2.849
 2477SOL     OW 1262   2.712   2.660   3.685
 2477SOL    HW1 1263   2.708   2.736   3.750
 2477SOL    HW2 1264   2.734   2.696   3.594
 2478SOL     OW 1265   2.548   3.023   3.665
 2478SOL    HW1 1266   2.608   3.102   3.679
 2478SOL    HW2 1267   2.462   3.054   3.624
 2479SOL     OW 1268   2.197   3.297   2.923
 2479SOL    HW1 1269   2.119   3.266   2.870
 2479SOL    HW2 1270   2.255   3.355   2.866
 2480SOL     OW 1271   3.322   3.367   3.201
 2480SOL    HW1 1272   3.346   3.461   3.227
 2480SOL    HW2 1273   3.306   3.313   3.283
 2481SOL     OW 1274   2.300   2.254   3.361
 2481SOL    HW1 1275   2.382   2.198   3.370
 2481SOL    HW2 1276   2.219   2.196   3.365
 2482SOL     OW 1277   3.465   2.309   2.599
 2482SOL    HW1 1278   3.391   2.355   2.549
 2482SOL    HW2 1279   3.516   2.377   2.652
 2483SOL     OW 1280   2.093   3.575   2.345
 2483SOL    HW1 1281   2.127   3.652   2.399
 2483SOL    HW2 1282   2.137   3.575   2.255
 2484SOL     OW 1283   2.989   3.203   3.552
 2484SOL    HW1 1284   3.036   3.203   3.640
 2484SOL    HW2 1285   2.941   3.116   3.541
 2485SOL     OW 1286   2.092   3.296   2.400
 2485SOL    HW1 1287   2.066   3.392   2.400
 2485SOL    HW2 1288   2.021   3.242   2.445
 2486SOL     OW 1289   2.102   2.953   2.748
 2486SOL    HW1 1290   2.116   2.869   2.800
 2486SOL    HW2 1291   2.047   3.017   2.803
 2487SOL     OW 1292   2.482   3.648   3.301
 2487SOL    HW1 1293   2.390   3.631   3.336
 2487SOL    HW2 1294   2.510   3.740   3.327
 2488SOL     OW 1295   2.468   2.826   1.985
 2488SOL    HW1 1296   2.475   2.910   1.931
 2488SOL    HW2 1297   2.514   2.839   2.073
 2489SOL     OW 1298   3.456   1.976   3.342
 2489SOL    HW1 1299   3.438   2.043   3.270
 2489SOL    HW2 1300   3.453   2.022   3.431
 2490SOL     OW 1301   1.984   2.505   2.425
 2490SOL    HW1 1302   1.939   2.417   2.442
 2490SOL    HW2 1303   1.983   2.559   2.509
 2491SOL     OW 1304   3.704   3.629   2.221
 2491SOL    HW1 1305   3.758   3.600   2.301
 2491SOL    HW2 1306   3.734   3.719   2.192
 2492SOL     OW 1307   1.889   3.458   1.979
 2492SOL    HW1 1308   1.870   3.362   2.000
 2492SOL    HW2 1309   1.856   3.516   2.054
 2493SOL     OW 1310   3.551   2.784   2.474
 2493SOL    HW1 1311   3.646   2.755   2.482
 2493SOL    HW2 1312   3.543   2.849   2.399
 2494SOL     OW 1313   3.503   2.970   2.294
 2494SOL    HW1 1314   3.589   2.972   2.242
 2494SOL    HW2 1315   3.517   3.017   2.382
 2495SOL     OW 1316   1.975   2.599   3.459
 2495SOL    HW1 1317   2.063   2.586   3.504
 2495SOL    HW2 1318   1.962   2.696   3.437
 2496SOL     OW 1319   2.475   3.227   2.588
 2496SOL    HW1 1320   2.426   3.140   2.597
 2496SOL    HW2 1321   2.452   3.270   2.501
 2497SOL     OW 1322   3.155   3.090   3.285
 2497SOL    HW1 1323   3.192   3.017   3.227
 2497SOL    HW2 1324   3.207   3.095   3.370
 2498SOL     OW 1325   2.671   1.866   2.364
 2498SOL    HW1 1326   2.711   1.957   2.355
 2498SOL    HW2 1327   2.571   1.874   2.370
 2499SOL     OW 1328   2.059   2.838   3.126
 2499SOL    HW1 1329   2.148   2.793   3.112
 2499SOL    HW2 1330   1.986   2.773   3.107
 2500SOL     OW 1331   3.387   2.861   2.052
 2500SOL    HW1 1332   3.324   2.785   2.065
 2500SOL    HW2 1333   3.435   2.879   2.138
 2501SOL     OW 1334   3.049   3.654   3.478
 2501SOL    HW1 1335   3.073   3.714   3.402
 2501SOL    HW2 1336   3.056   3.559   3.448
 2502SOL     OW 1337   2.179   2.113   3.663
 2502SOL    HW1 1338   2.250   2.184   3.669
 2502SOL    HW2 1339   2.091   2.152   3.691
 2503SOL     OW 1340   3.328   3.279   2.815
 2503SOL    HW1 1341   3.269   3.285   2.895
 2503SOL    HW2 1342   3.313   3.191   2.769
 2504SOL     OW 1343   3.529   3.576   2.434
 2504SOL    HW1 1344   3.488   3.553   2.346
 2504SOL    HW2 1345   3.511   3.502   2.499
 2505SOL     OW 1346   2.460   2.591   2.132
 2505SOL    HW1 1347   2.484   2.660   2.064
 2505SOL    HW2 1348   2.382   2.624   2.186
 2506SOL     OW 1349   3.143   2.207   2.806
 2506SOL    HW1 1350   3.057   2.157   2.793
 2506SOL    HW2 1351   3.205   2.153   2.862
 2507SOL     OW 1352   3.438   3.524   2.169
 2507SOL    HW1 1353   3.527   3.570   2.172
 2507SOL    HW2 1354   3.417   3.500   2.074
 2508SOL     OW 1355   2.669   2.467   3.327
 2508SOL    HW1 1356   2.622   2.464   3.416
 2508SOL    HW2 1357   2.618   2.412   3.261
 2509SOL     OW 1358   3.256   2.331   3.536
 2509SOL    HW1 1359   3.236   2.374   3.624
 2509SOL    HW2 1360   3.334   2.269   3.545
 2510SOL     OW 1361   2.835   2.752   3.434
 2510SOL    HW1 1362   2.881   2.668   3.405
 2510SOL    HW2 1363   2.779   2.786   3.359
 2511SOL     OW 1364   2.853   2.272   3.104
 2511SOL    HW1 1365   2.776   2.306   3.158
 2511SOL    HW2 1366   2.819   2.221   3.025
 2512SOL     OW 1367   2.903   2.563   2.291
 2512SOL    HW1 1368   2.929   2.559   2.387
 2512SOL    HW2 1369   2.818   2.512   2.277
 2513SOL     OW 1370   1.938   2.673   2.651
 2513SOL    HW1 1371   2.037   2.661   2.660
 2513SOL    HW2 1372   1.914   2.768   2.672
 2514SOL     OW 1373   1.992   3.683   3.433
 2514SOL    HW1 1374   1.982   3.668   3.532
 2514SOL    HW2 1375   1.906   3.719   3.397
 2515SOL     OW 1376   2.727   2.210   2.057
 2515SOL    HW1 1377   2.786   2.273   2.008
 2515SOL    HW2 1378   2.746   2.116   2.028
 2516SOL     OW 1379   3.581   2.447   3.693
 2516SOL    HW1 1380   3.555   2.536   3.657
 2516SOL    HW2 1381   3.579   2.379   3.620
 2517SOL     OW 1382   3.224   3.006   2.407
 2517SOL    HW1 1383   3.307   2.977   2.359
 2517SOL    HW2 1384   3.175   3.073   2.351
 2518SOL     OW 1385   2.412   2.058   2.747
 2518SOL    HW1 1386   2.407   2.053   2.847
 2518SOL    HW2 1387   2.414   2.154   2.718
 2519SOL     OW 1388   2.870   3.318   2.339
 2519SOL    HW1 1389   2.824   3.390   2.287
 2519SOL    HW2 1390   2.866   3.338   2.437
 2520SOL     OW 1391   2.213   3.663   2.715
 2520SOL    HW1 1392   2.263   3.577   2.721
 2520SOL    HW2 1393   2.278   3.740   2.712
 2521SOL     OW 1394   3.657   2.928   2.735
 2521SOL    HW1 1395   3.595   2.913   2.659
 2521SOL    HW2 1396   3.605   2.939   2.820
 2522SOL     OW 1397   3.089   3.412   3.368
 2522SOL    HW1 1398   3.095   3.335   3.432
 2522SOL    HW2 1399   3.037   3.386   3.288
 2523SOL     OW 1400   2.183   2.805   2.104
 2523SOL    HW1 1401   2.265   2.844   2.062
 2523SOL    HW2 1402   2.156   2.723   2.055
 2524SOL     OW 1403   3.320   2.597   2.590
 2524SOL    HW1 1404   3.315   2.532   2.665
 2524SOL    HW2 1405   3.400   2.656   2.603
 2525SOL     OW 1406   2.323   3.128   3.589
 2525SOL    HW1 1407   2.273   3.129   3.503
 2525SOL    HW2 1408   2.260   3.110   3.665
 2526SOL     OW 1409   2.973   3.638   2.099
 2526SOL    HW1 1410   2.913   3.576   2.149
 2526SOL    HW2 1411   3.004   3.594   2.014
 2527SOL     OW 1412   2.064   2.147   3.360
 2527SOL    HW1 1413   1.984   2.207   3.347
 2527SOL    HW2 1414   2.054   2.098   3.446
 2528SOL     OW 1415   3.494   3.239   1.943
 2528SOL    HW1 1416   3.462   3.333   1.933
 2528SOL    HW2 1417   3.418   3.176   1.931
 2529SOL     OW 1418   2.326   3.605   2.185
 2529SOL    HW1 1419   2.359   3.644   2.271
 2529SOL    HW2 1420   2.402   3.598   2.120
 2530SOL     OW 1421   3.262   1.969   2.288
 2530SOL    HW1 1422   3.238   1.932   2.198
 2530SOL    HW2 1423   3.361   1.985   2.292
 2531SOL     OW 1424   2.111   3.647   3.103
 2531SOL    HW1 1425   2.168   3.582   3.153
 2531SOL    HW2 1426   2.095   3.614   3.010
 2532SOL     OW 1427   2.802   3.560   2.766
 2532SOL    HW1 1428   2.882   3.503   2.787
 2532SOL    HW2 1429   2.753   3.520   2.689
 2533SOL     OW 1430   2.244   2.562   2.342
 2533SOL    HW1 1431   2.289   2.472   2.339
 2533SOL    HW2 1432   2.150   2.551   2.375
 2534SOL     OW 1433   3.409   2.084   3.591
 2534SOL    HW1 1434   3.404   2.121   3.683
 2534SOL    HW2 1435   3.337   2.015   3.579
 2535SOL     OW 1436   2.476   1.984   1.979
 2535SOL    HW1 1437   2.574   1.962   1.986
 2535SOL    HW2 1438   2.445   1.967   1.886
 2536SOL     OW 1439   2.643   2.126   3.611
 2536SOL    HW1 1440   2.710   2.065   3.654
 2536SOL    HW2 1441   2.570   2.145   3.676
 2537SOL     OW 1442   2.750   3.376   3.057
 2537SOL    HW1 1443   2.727   3.351   2.963
 2537SOL    HW2 1444   2.811   3.307   3.096
 2538SOL     OW 1445   3.213   2.452   3.295
 2538SOL    HW1 1446   3.241   2.409   3.380
 2538SOL    HW2 1447   3.238   2.548   3.296
 2539SOL     OW 1448   2.665   3.264   2.786
 2539SOL    HW1 1449   2.755   3.278   2.744
 2539SOL    HW2 1450   2.594   3.266   2.715
 2540SOL     OW 1451   2.401   1.926   2.374
 2540SOL    HW1 1452   2.320   1.927   2.432
 2540SOL    HW2 1453   2.404   2.009   2.319
 2541SOL     OW 1454   3.296   3.050   1.903
 2541SOL    HW1 1455   3.328   2.974   1.960
 2541SOL    HW2 1456   3.204   3.077   1.933
 2542SOL     OW 1457   2.159   1.897   2.033
 2542SOL    HW1 1458   2.208   1.981   2.012
 2542SOL    HW2 1459   2.221   1.832   2.078
 2543SOL     OW 1460   2.938   2.545   3.326
 2543SOL    HW1 1461   2.858   2.484   3.329
 2543SOL    HW2 1462   3.019   2.492   3.302
 2544SOL     OW 1463   3.089   3.432   2.655
 2544SOL    HW1 1464   3.110   3.506   2.590
 2544SOL    HW2 1465   3.157   3.432   2.728
 2545SOL     OW 1466   3.133   3.659   2.453
 2545SOL    HW1 1467   3.177   3.723   2.389
 2545SOL    HW2 1468   3.083   3.711   2.523
 2546SOL     OW 1469   2.894   2.411   1.878
 2546SOL    HW1 1470   2.853   2.493   1.839
 2546SOL    HW2 1471   2.958   2.437   1.951
 2547SOL     OW 1472   1.940   2.418   3.248
 2547SOL    HW1 1473   2.032   2.417   3.207
 2547SOL    HW2 1474   1.934   2.492   3.315
 2548SOL     OW 1475   2.423   2.084   3.009
 2548SOL    HW1 1476   2.461   2.000   3.046
 2548SOL    HW2 1477   2.335   2.103   3.053
 2549SOL     OW 1478   2.879   1.901   2.615
 2549SOL    HW1 1479   2.807   1.906   2.546
 2549SOL    HW2 1480   2.855   1.832   2.684
 2550SOL     OW 1481   3.291   3.035   2.729
 2550SOL    HW1 1482   3.236   2.951   2.722
 2550SOL    HW2 1483   3.317   3.064   2.637
 2551SOL     OW 1484   3.328   2.452   2.854
 2551SOL    HW1 1485   3.298   2.357   2.861
 2551SOL    HW2 1486   3.401   2.468   2.920
 2552SOL     OW 1487   3.719   2.695   2.239
 2552SOL    HW1 1488   3.761   2.631   2.303
 2552SOL    HW2 1489   3.681   2.644   2.161
 2553SOL     OW 1490   2.350   3.247   2.036
 2553SOL    HW1 1491   2.263   3.232   2.083
 2553SOL    HW2 1492   2.333   3.273   1.941
 2554SOL     OW 1493   3.526   3.142   2.519
 2554SOL    HW1 1494   3.625   3.150   2.533
 2554SOL    HW2 1495   3.481   3.226   2.550
 2555SOL     OW 1496   3.252   2.437   1.940
 2555SOL    HW1 1497   3.198   2.416   2.021
 2555SOL    HW2 1498   3.343   2.396   1.949
 2556SOL     OW 1499   2.389   2.118   2.190
 2556SOL    HW1 1500   2.416   2.059   2.115
 2556SOL    HW2 1501   2.389   2.213   2.159
 2557SOL     OW 1502   3.616   3.085   3.450
 2557SOL    HW1 1503   3.707   3.046   3.437
 2557SOL    HW2 1504   3.624   3.181   3.474
 2558SOL     OW 1505   2.926   3.209   3.202
 2558SOL    HW1 1506   2.846   3.186   3.257
 2558SOL    HW2 1507   3.009   3.183   3.251
 2559SOL     OW 1508   3.454   3.491   3.487
 2559SOL    HW1 1509   3.481   3.525   3.397
 2559SOL    HW2 1510   3.533   3.453   3.533
 2560SOL     OW 1511   2.973   3.057   2.962
 2560SOL    HW1 1512   2.933   3.101   3.043
 2560SOL    HW2 1513   2.932   3.094   2.879
 2561SOL     OW 1514   3.500   2.961   2.941
 2561SOL    HW1 1515   3.505   3.042   3.000
 2561SOL    HW2 1516   3.414   2.963   2.890
 2562SOL     OW 1517   2.777   1.951   3.264
 2562SOL    HW1 1518   2.802   1.931   3.169
 2562SOL    HW2 1519   2.849   2.007   3.306
 2563SOL     OW 1520   2.842   2.978   3.581
 2563SOL    HW1 1521   2.743   2.984   3.591
 2563SOL    HW2 1522   2.865   2.898   3.525
 2564SOL     OW 1523   2.567   2.912   2.230
 2564SOL    HW1 1524   2.553   2.919   2.329
 2564SOL    HW2 1525   2.651   2.861   2.212
 2565SOL     OW 1526   3.136   2.248   3.124
 2565SOL    HW1 1527   3.157   2.322   3.188
 2565SOL    HW2 1528   3.047   2.265   3.081
 2566SOL     OW 1529   1.926   3.426   3.193
 2566SOL    HW1 1530   1.880   3.508   3.159
 2566SOL    HW2 1531   2.024   3.445   3.202
 2567SOL     OW 1532   3.114   3.210   2.250
 2567SOL    HW1 1533   3.164   3.287   2.290
 2567SOL    HW2 1534   3.019   3.212   2.282
 2568SOL     OW 1535   3.134   3.307   3.004
 2568SOL    HW1 1536   3.181   3.320   3.091
 2568SOL    HW2 1537   3.068   3.233   3.013
 2569SOL     OW 1538   3.444   2.501   2.334
 2569SOL    HW1 1539   3.413   2.562   2.407
 2569SOL    HW2 1540   3.494   2.553   2.265
 2570SOL     OW 1541   2.216   3.372   3.191
 2570SOL    HW1 1542   2.195   3.328   3.104
 2570SOL    HW2 1543   2.313   3.398   3.194
 2571SOL     OW 1544   2.264   2.613   3.460
 2571SOL    HW1 1545   2.332   2.668   3.413
 2571SOL    HW2 1546   2.304   2.525   3.487
 2572SOL     OW 1547   3.449   2.641   3.532
 2572SOL    HW1 1548   3.357   2.679   3.527
 2572SOL    HW2 1549   3.509   2.688   3.467
 2573SOL     OW 1550   2.875   1.967   3.632
 2573SOL    HW1 1551   2.881   2.052   3.580
 2573SOL    HW2 1552   2.907   1.891   3.575
 2574SOL     OW 1553   2.366   1.912   3.602
 2574SOL    HW1 1554   2.324   1.855   3.532
 2574SOL    HW2 1555   2.300   1.981   3.634
 2575SOL     OW 1556   3.222   2.724   2.907
 2575SOL    HW1 1557   3.147   2.724   2.841
 2575SOL    HW2 1558   3.259   2.632   2.916
 2576SOL     OW 1559   3.071   2.387   2.137
 2576SOL    HW1 1560   3.084   2.303   2.191
 2576SOL    HW2 1561   3.042   2.461   2.197
 2577SOL     OW 1562   2.169   2.075   3.093
 2577SOL    HW1 1563   2.146   2.112   3.183
 2577SOL    HW2 1564   2.139   1.980   3.087
 2578SOL     OW 1565   1.899   3.172   3.144
 2578SOL    HW1 1566   1.952   3.123   3.212
 2578SOL    HW2 1567   1.921   3.270   3.149
 2579SOL     OW 1568   3.590   2.797   3.716
 2579SOL    HW1 1569   3.544   2.790   3.627
 2579SOL    HW2 1570   3.528   2.841   3.782
 2580SOL     OW 1571   2.169   1.925   2.480
 2580SOL    HW1 1572   2.158   2.019   2.513
 2580SOL    HW2 1573   2.164   1.862   2.557
 2581SOL     OW 1574   3.484   2.229   2.236
 2581SOL    HW1 1575   3.486   2.153   2.300
 2581SOL    HW2 1576   3.436   2.306   2.276
 2582SOL     OW 1577   2.842   3.435   3.562
 2582SOL    HW1 1578   2.822   3.479   3.474
 2582SOL    HW2 1579   2.881   3.344   3.546
 2583SOL     OW 1580   3.721   3.380   3.467
 2583SOL    HW1 1581   3.735   3.407   3.372
 2583SOL    HW2 1582   3.804   3.402   3.520
 2584SOL     OW 1583   2.212   2.760   3.666
 2584SOL    HW1 1584   2.288   2.804   3.714
 2584SOL    HW2 1585   2.247   2.713   3.584
 2585SOL     OW 1586   3.402   2.136   1.987
 2585SOL    HW1 1587   3.341   2.061   2.010
 2585SOL    HW2 1588   3.424   2.188   2.070
 2586SOL     OW 1589   3.165   2.700   1.904
 2586SOL    HW1 1590   3.199   2.607   1.919
 2586SOL    HW2 1591   3.183   2.727   1.809
 2587SOL     OW 1592   2.930   3.195   2.711
 2587SOL    HW1 1593   2.937   3.111   2.656
 2587SOL    HW2 1594   2.992   3.264   2.675
 2588SOL     OW 1595   2.201   2.371   2.868
 2588SOL    HW1 1596   2.149   2.288   2.851
 2588SOL    HW2 1597   2.278   2.376   2.804
 2589SOL     OW 1598   3.000   2.242   3.540
 2589SOL    HW1 1599   2.955   2.305   3.604
 2589SOL    HW2 1600   3.093   2.273   3.523
 2590SOL     OW 1601   3.022   2.069   3.339
 2590SOL    HW1 1602   3.022   2.133   3.416
 2590SOL    HW2 1603   3.050   2.117   3.256
 2591SOL     OW 1604   1.870   3.188   2.062
 2591SOL    HW1 1605   1.777   3.209   2.031
 2591SOL    HW2 1606   1.880   3.089   2.075
 2592SOL     OW 1607   1.950   3.663   2.789
 2592SOL    HW1 1608   1.908   3.577   2.762
 2592SOL    HW2 1609   2.044   3.666   2.755
 2593SOL     OW 1610   2.366   3.430   2.772
 2593SOL    HW1 1611   2.432   3.504   2.781
 2593SOL    HW2 1612   2.410   3.351   2.730
 2594SOL     OW 1613   2.864   2.658   3.100
 2594SOL    HW1 1614   2.905   2.626   3.186
 2594SOL    HW2 1615   2.768   2.631   3.097
 2595SOL     OW 1616   1.902   2.406   2.976
 2595SOL    HW1 1617   1.987   2.373   2.935
 2595SOL    HW2 1618   1.915   2.421   3.074
 2596SOL     OW 1619   2.051   2.382   3.584
 2596SOL    HW1 1620   2.110   2.342   3.514
 2596SOL    HW2 1621   1.993   2.453   3.543
 2597SOL     OW 1622   3.231   2.812   3.522
 2597SOL    HW1 1623   3.270   2.901   3.542
 2597SOL    HW2 1624   3.241   2.792   3.425
 2598SOL     OW 1625   2.677   2.434   2.187
 2598SOL    HW1 1626   2.684   2.345   2.141
 2598SOL    HW2 1627   2.583   2.468   2.179
 2599SOL     OW 1628   3.519   2.466   3.068
 2599SOL    HW1 1629   3.481   2.397   3.130
 2599SOL    HW2 1630   3.601   2.430   3.024
 2600SOL     OW 1631   2.114   3.426   3.606
 2600SOL    HW1 1632   2.084   3.483   3.682
 2600SOL    HW2 1633   2.107   3.329   3.632
 2601SOL     OW 1634   2.533   2.326   3.131
 2601SOL    HW1 1635   2.499   2.237   3.101
 2601SOL    HW2 1636   2.559   2.380   3.051
 2602SOL     OW 1637   2.792   3.540   3.327
 2602SOL    HW1 1638   2.768   3.522   3.232
 2602SOL    HW2 1639   2.822   3.634   3.337
 2603SOL     OW 1640   2.335   2.362   2.053
 2603SOL    HW1 1641   2.396   2.442   2.057
 2603SOL    HW2 1642   2.240   2.393   2.060
 2604SOL     OW 1643   2.021   2.999   3.328
 2604SOL    HW1 1644   2.043   2.938   3.404
 2604SOL    HW2 1645   2.031   2.950   3.242
 2605SOL     OW 1646   3.209   2.921   3.096
 2605SOL    HW1 1647   3.233   2.858   3.022
 2605SOL    HW2 1648   3.119   2.961   3.078
 2606SOL     OW 1649   3.164   2.717   2.171
 2606SOL    HW1 1650   3.078   2.686   2.213
 2606SOL    HW2 1651   3.160   2.703   2.072
 2607SOL     OW 1652   3.621   3.609   3.016
 2607SOL    HW1 1653   3.682   3.639   2.943
 2607SOL    HW2 1654   3.583   3.520   2.994
 2608SOL     OW 1655   3.114   3.593   2.990
 2608SOL    HW1 1656   3.198   3.598   2.936
 2608SOL    HW2 1657   3.091   3.497   3.008
 2609SOL     OW 1658   1.945   3.120   2.884
 2609SOL    HW1 1659   1.940   3.119   2.984
 2609SOL    HW2 1660   1.862   3.079   2.846
 2610SOL     OW 1661   2.550   3.524   3.578
 2610SOL    HW1 1662   2.494   3.605   3.587
 2610SOL    HW2 1663   2.602   3.528   3.492
 2611SOL     OW 1664   3.588   1.997   2.385
 2611SOL    HW1 1665   3.661   1.980   2.318
 2611SOL    HW2 1666   3.557   1.910   2.423
 2612SOL     OW 1667   3.250   3.435   2.339
 2612SOL    HW1 1668   3.317   3.447   2.265
 2612SOL    HW2 1669   3.210   3.524   2.362
 2613SOL     OW 1670   1.992   3.656   3.713
 2613SOL    HW1 1671   1.951   3.582   3.766
 2613SOL    HW2 1672   2.056   3.707   3.771
 2614SOL     OW 1673   3.142   2.789   2.534
 2614SOL    HW1 1674   3.202   2.708   2.536
 2614SOL    HW2 1675   3.182   2.858   2.474
 2615SOL     OW 1676   2.692   3.135   3.284
 2615SOL    HW1 1677   2.687   3.168   3.379
 2615SOL    HW2 1678   2.606   3.154   3.238
 2616SOL     OW 1679   2.534   3.478   2.016
 2616SOL    HW1 1680   2.543   3.488   1.917
 2616SOL    HW2 1681   2.494   3.389   2.037
 2617SOL     OW 1682   3.512   3.582   3.256
 2617SOL    HW1 1683   3.565   3.592   3.172
 2617SOL    HW2 1684   3.485   3.672   3.290
 2618SOL     OW 1685   3.703   2.037   2.825
 2618SOL    HW1 1686   3.742   1.952   2.789
 2618SOL    HW2 1687   3.605   2.039   2.806
 2619SOL     OW 1688   2.125   2.188   2.582
 2619SOL    HW1 1689   2.046   2.239   2.548
 2619SOL    HW2 1690   2.116   2.173   2.680
 2620SOL     OW 1691   3.056   3.474   1.893
 2620SOL    HW1 1692   3.062   3.381   1.930
 2620SOL    HW2 1693   2.997   3.474   1.813
 2621SOL     OW 1694   2.684   2.864   3.234
 2621SOL    HW1 1695   2.724   2.863   3.142
 2621SOL    HW2 1696   2.694   2.956   3.274
 2622SOL     OW 1697   2.778   2.772   2.153
 2622SOL    HW1 1698   2.841   2.810   2.085
 2622SOL    HW2 1699   2.818   2.689   2.192
 2623SOL     OW 1700   3.366   3.469   1.906
 2623SOL    HW1 1701   3.274   3.506   1.913
 2623SOL    HW2 1702   3.404   3.489   1.816
 2624SOL     OW 1703   2.234   3.150   3.352
 2624SOL    HW1 1704   2.221   3.243   3.318
 2624SOL    HW2 1705   2.150   3.098   3.339
 2625SOL     OW 1706   3.476   3.154   3.151
 2625SOL    HW1 1707   3.536   3.157   3.231
 2625SOL    HW2 1708   3.401   3.218   3.164
 2626SOL     OW 1709   2.876   2.098   2.833
 2626SOL    HW1 1710   2.868   2.062   2.740
 2626SOL    HW2 1711   2.874   2.022   2.898
 2627SOL     OW 1712   2.452   3.349   2.353
 2627SOL    HW1 1713   2.494   3.291   2.283
 2627SOL    HW2 1714   2.408   3.428   2.309
 2628SOL     OW 1715   3.571   2.247   3.243
 2628SOL    HW1 1716   3.644   2.316   3.247
 2628SOL    HW2 1717   3.599   2.172   3.184
 2629SOL     OW 1718   2.117   3.210   2.152
 2629SOL    HW1 1719   2.021   3.211   2.125
 2629SOL    HW2 1720   2.129   3.263   2.236
 2630SOL     OW 1721   1.967   2.875   3.588
 2630SOL    HW1 1722   1.890   2.842   3.642
 2630SOL    HW2 1723   2.052   2.845   3.630
 2631SOL     OW 1724   2.534   2.065   3.351
 2631SOL    HW1 1725   2.624   2.049   3.311
 2631SOL    HW2 1726   2.542   2.070   3.450
 2632SOL     OW 1727   1.937   2.207   1.895
 2632SOL    HW1 1728   1.845   2.179   1.866
 2632SOL    HW2 1729   1.968   2.284   1.839
 2633SOL     OW 1730   3.302   2.718   3.260
 2633SOL    HW1 1731   3.245   2.770   3.197
 2633SOL    HW2 1732   3.398   2.730   3.236
 2634SOL     OW 1733   1.934   2.028   2.180
 2634SOL    HW1 1734   1.917   2.111   2.126
 2634SOL    HW2 1735   2.024   1.991   2.158
 2635SOL     OW 1736   3.045   3.197   1.981
 2635SOL    HW1 1737   2.946   3.186   1.983
 2635SOL    HW2 1738   3.079   3.212   2.074
 2636SOL     OW 1739   2.475   2.704   3.293
 2636SOL    HW1 1740   2.531   2.785   3.276
 2636SOL    HW2 1741   2.534   2.624   3.296
 2637SOL     OW 1742   3.355   3.629   2.821
 2637SOL    HW1 1743   3.388   3.693   2.752
 2637SOL    HW2 1744   3.421   3.623   2.896
 2638SOL     OW 1745   2.578   2.427   3.570
 2638SOL    HW1 1746   2.597   2.492   3.644
 2638SOL    HW2 1747   2.638   2.347   3.579
 2639SOL     OW 1748   3.312   3.082   3.495
 2639SOL    HW1 1749   3.303   3.072   3.594
 2639SOL    HW2 1750   3.408   3.075   3.469
 2640SOL     OW 1751   2.252   3.603   3.422
 2640SOL    HW1 1752   2.161   3.644   3.420
 2640SOL    HW2 1753   2.245   3.509   3.454
 2641SOL     OW 1754   3.536   2.745   3.116
 2641SOL    HW1 1755   3.509   2.656   3.079
 2641SOL    HW2 1756   3.537   2.813   3.043
 2642SOL     OW 1757   3.087   2.187   2.311
 2642SOL    HW1 1758   3.152   2.113   2.300
 2642SOL    HW2 1759   3.107   2.237   2.395
 2643SOL     OW 1760   3.639   2.204   3.504
 2643SOL    HW1 1761   3.622   2.235   3.410
 2643SOL    HW2 1762   3.555   2.167   3.542
 2644SOL     OW 1763   3.592   2.796   3.379
 2644SOL    HW1 1764   3.630   2.887   3.394
 2644SOL    HW2 1765   3.584   2.779   3.280
 2645SOL     OW 1766   2.721   3.236   1.878
 2645SOL    HW1 1767   2.675   3.251   1.966
 2645SOL    HW2 1768   2.765   3.321   1.848
 2646SOL     OW 1769   2.523   3.652   2.815
 2646SOL    HW1 1770   2.477   3.740   2.802
 2646SOL    HW2 1771   2.622   3.664   2.808
 2647SOL     OW 1772   2.945   2.846   1.949
 2647SOL    HW1 1773   2.922   2.899   1.867
 2647SOL    HW2 1774   3.026   2.790   1.930
 2648SOL     OW 1775   3.723   3.431   2.713
 2648SOL    HW1 1776   3.652   3.419   2.643
 2648SOL    HW2 1777   3.724   3.352   2.773
 2649SOL     OW 1778   2.083   3.176   3.706
 2649SOL    HW1 1779   2.018   3.103   3.685
 2649SOL    HW2 1780   2.087   3.190   3.804
 2650SOL     OW 1781   1.941   3.102   2.515
 2650SOL    HW1 1782   1.940   3.055   2.603
 2650SOL    HW2 1783   2.023   3.074   2.464
 2651SOL     OW 1784   2.534   3.253   3.486
 2651SOL    HW1 1785   2.456   3.203   3.524
 2651SOL    HW2 1786   2.531   3.348   3.517
 2652SOL     OW 1787   3.686   2.054   3.089
 2652SOL    HW1 1788   3.682   1.964   3.133
 2652SOL    HW2 1789   3.689   2.043   2.990
 2653SOL     OW 1790   2.290   2.286   2.382
 2653SOL    HW1 1791   2.320   2.214   2.320
 2653SOL    HW2 1792   2.251   2.246   2.465
 2654SOL     OW 1793   3.567   3.349   2.966
 2654SOL    HW1 1794   3.474   3.324   2.939
 2654SOL    HW2 1795   3.593   3.299   3.048
 2655SOL     OW 1796   2.179   2.409   3.142
 2655SOL    HW1 1797   2.217   2.350   3.214
 2655SOL    HW2 1798   2.219   2.383   3.054
 2656SOL     OW 1799   2.674   3.448   2.549
 2656SOL    HW1 1800   2.706   3.458   2.455
 2656SOL    HW2 1801   2.595   3.386   2.551
 2657SOL     OW 1802   3.286   2.076   2.974
 2657SOL    HW1 1803   3.338   2.011   3.029
 2657SOL    HW2 1804   3.237   2.139   3.035
 2658SOL     OW 1805   2.863   1.896   3.016
 2658SOL    HW1 1806   2.800   1.824   2.985
 2658SOL    HW2 1807   2.956   1.860   3.016
 2659SOL     OW 1808   2.632   3.192   2.163
 2659SOL    HW1 1809   2.586   3.105   2.180
 2659SOL    HW2 1810   2.723   3.189   2.204
 2660SOL     OW 1811   2.480   3.429   3.146
 2660SOL    HW1 1812   2.475   3.511   3.203
 2660SOL    HW2 1813   2.569   3.426   3.101
 2661SOL     OW 1814   3.214   1.914   2.030
 2661SOL    HW1 1815   3.249   1.873   1.946
 2661SOL    HW2 1816   3.124   1.876   2.050
 2662SOL     OW 1817   3.162   2.315   2.553
 2662SOL    HW1 1818   3.103   2.395   2.557
 2662SOL    HW2 1819   3.177   2.280   2.646
 2663SOL     OW 1820   3.455   2.083   2.744
 2663SOL    HW1 1821   3.371   2.082   2.798
 2663SOL    HW2 1822   3.457   2.166   2.688
 2664SOL     OW 1823   1.901   2.939   2.162
 2664SOL    HW1 1824   2.000   2.928   2.153
 2664SOL    HW2 1825   1.861   2.853   2.194
 2665SOL     OW 1826   2.737   3.508   2.199
 2665SOL    HW1 1827   2.660   3.473   2.145
 2665SOL    HW2 1828   2.705   3.579   2.261
 2666SOL     OW 1829   2.092   2.490   3.837
 2666SOL    HW1 1830   1.999   2.488   3.874
 2666SOL    HW2 1831   2.093   2.451   3.745
 2672SOL     OW 1832   3.617   2.469   3.955
 2672SOL    HW1 1833   3.605   2.456   3.856
 2672SOL    HW2 1834   3.587   2.388   4.004
 2674SOL     OW 1835   2.547   2.874   4.389
 2674SOL    HW1 1836   2.616   2.858   4.459
 2674SOL    HW2 1837   2.474   2.931   4.427
 2682SOL     OW 1838   2.468   2.826   3.847
 2682SOL    HW1 1839   2.475   2.910   3.793
 2682SOL    HW2 1840   2.514   2.839   3.935
 2683SOL     OW 1841   1.984   2.505   4.287
 2683SOL    HW1 1842   1.939   2.417   4.304
 2683SOL    HW2 1843   1.983   2.559   4.371
 2685SOL     OW 1844   1.889   3.458   3.841
 2685SOL    HW1 1845   1.870   3.362   3.862
 2685SOL    HW2 1846   1.856   3.516   3.916
 2689SOL     OW 1847   2.671   1.866   4.226
 2689SOL    HW1 1848   2.711   1.957   4.217
 2689SOL    HW2 1849   2.571   1.874   4.232
 2691SOL     OW 1850   3.387   2.861   3.914
 2691SOL    HW1 1851   3.324   2.785   3.927
 2691SOL    HW2 1852   3.435   2.879   4.000
 2694SOL     OW 1853   2.460   2.591   3.994
 2694SOL    HW1 1854   2.484   2.660   3.926
 2694SOL    HW2 1855   2.382   2.624   4.048
 2699SOL     OW 1856   2.903   2.563   4.153
 2699SOL    HW1 1857   2.929   2.559   4.249
 2699SOL    HW2 1858   2.818   2.512   4.139
 2702SOL     OW 1859   2.727   2.210   3.919
 2702SOL    HW1 1860   2.786   2.273   3.870
 2702SOL    HW2 1861   2.746   2.116   3.890
 2705SOL     OW 1862   2.870   3.318   4.201
 2705SOL    HW1 1863   2.824   3.390   4.149
 2705SOL    HW2 1864   2.866   3.338   4.299
 2708SOL     OW 1865   2.183   2.805   3.966
 2708SOL    HW1 1866   2.265   2.844   3.924
 2708SOL    HW2 1867   2.156   2.723   3.917
 2710SOL     OW 1868   2.973   3.638   3.961
 2710SOL    HW1 1869   2.913   3.576   4.011
 2710SOL    HW2 1870   3.004   3.594   3.876
 2711SOL     OW 1871   3.494   3.239   3.805
 2711SOL    HW1 1872   3.462   3.333   3.795
 2711SOL    HW2 1873   3.418   3.176   3.793
 2712SOL     OW 1874   2.326   3.605   4.047
 2712SOL    HW1 1875   2.359   3.644   4.133
 2712SOL    HW2 1876   2.402   3.598   3.982
 2713SOL     OW 1877   3.262   1.969   4.150
 2713SOL    HW1 1878   3.238   1.932   4.060
 2713SOL    HW2 1879   3.361   1.985   4.154
 2716SOL     OW 1880   2.244   2.562   4.204
 2716SOL    HW1 1881   2.289   2.472   4.201
 2716SOL    HW2 1882   2.150   2.551   4.237
 2717SOL     OW 1883   2.476   1.984   3.841
 2717SOL    HW1 1884   2.574   1.962   3.848
 2717SOL    HW2 1885   2.445   1.967   3.748
 2721SOL     OW 1886   2.401   1.926   4.236
 2721SOL    HW1 1887   2.320   1.927   4.294
 2721SOL    HW2 1888   2.404   2.009   4.181
 2722SOL     OW 1889   3.296   3.050   3.765
 2722SOL    HW1 1890   3.328   2.974   3.822
 2722SOL    HW2 1891   3.204   3.077   3.795
 2723SOL     OW 1892   2.159   1.897   3.895
 2723SOL    HW1 1893   2.208   1.981   3.874
 2723SOL    HW2 1894   2.221   1.832   3.940
 2724SOL     OW 1895   2.797   2.098   4.204
 2724SOL    HW1 1896   2.749   2.139   4.126
 2724SOL    HW2 1897   2.896   2.096   4.185
 2728SOL     OW 1898   2.894   2.411   3.740
 2728SOL    HW1 1899   2.853   2.493   3.701
 2728SOL    HW2 1900   2.958   2.437   3.813
 2731SOL     OW 1901   2.728   2.316   4.366
 2731SOL    HW1 1902   2.696   2.388   4.304
 2731SOL    HW2 1903   2.752   2.235   4.313
 2736SOL     OW 1904   2.350   3.247   3.898
 2736SOL    HW1 1905   2.263   3.232   3.945
 2736SOL    HW2 1906   2.333   3.273   3.803
 2738SOL     OW 1907   3.252   2.437   3.802
 2738SOL    HW1 1908   3.198   2.416   3.883
 2738SOL    HW2 1909   3.343   2.396   3.811
 2739SOL     OW 1910   2.389   2.118   4.052
 2739SOL    HW1 1911   2.416   2.059   3.977
 2739SOL    HW2 1912   2.389   2.213   4.021
 2743SOL     OW 1913   2.567   2.912   4.092
 2743SOL    HW1 1914   2.553   2.919   4.191
 2743SOL    HW2 1915   2.651   2.861   4.074
 2747SOL     OW 1916   2.229   2.962   4.225
 2747SOL    HW1 1917   2.222   3.045   4.169
 2747SOL    HW2 1918   2.233   2.882   4.165
 2749SOL     OW 1919   3.114   3.210   4.112
 2749SOL    HW1 1920   3.164   3.287   4.152
 2749SOL    HW2 1921   3.019   3.212   4.144
 2751SOL     OW 1922   3.444   2.501   4.196
 2751SOL    HW1 1923   3.413   2.562   4.269
 2751SOL    HW2 1924   3.494   2.553   4.127
 2756SOL     OW 1925   3.071   2.387   3.999
 2756SOL    HW1 1926   3.084   2.303   4.053
 2756SOL    HW2 1927   3.042   2.461   4.059
 2761SOL     OW 1928   3.484   2.229   4.098
 2761SOL    HW1 1929   3.486   2.153   4.162
 2761SOL    HW2 1930   3.436   2.306   4.138
 2764SOL     OW 1931   3.402   2.136   3.849
 2764SOL    HW1 1932   3.341   2.061   3.872
 2764SOL    HW2 1933   3.424   2.188   3.932
 2765SOL     OW 1934   3.165   2.700   3.766
 2765SOL    HW1 1935   3.199   2.607   3.781
 2765SOL    HW2 1936   3.183   2.727   3.671
 2770SOL     OW 1937   1.870   3.188   3.924
 2770SOL    HW1 1938   1.777   3.209   3.893
 2770SOL    HW2 1939   1.880   3.089   3.937
 2775SOL     OW 1940   2.677   2.434   4.049
 2775SOL    HW1 1941   2.684   2.345   4.003
 2775SOL    HW2 1942   2.583   2.468   4.041
 2779SOL     OW 1943   2.335   2.362   3.915
 2779SOL    HW1 1944   2.396   2.442   3.919
 2779SOL    HW2 1945   2.240   2.393   3.922
 2782SOL     OW 1946   3.164   2.717   4.033
 2782SOL    HW1 1947   3.078   2.686   4.075
 2782SOL    HW2 1948   3.160   2.703   3.934
 2789SOL     OW 1949   2.534   3.478   3.878
 2789SOL    HW1 1950   2.543   3.488   3.779
 2789SOL    HW2 1951   2.494   3.389   3.899
 2792SOL     OW 1952   3.056   3.474   3.755
 2792SOL    HW1 1953   3.062   3.381   3.792
 2792SOL    HW2 1954   2.997   3.474   3.675
 2794SOL     OW 1955   2.778   2.772   4.015
 2794SOL    HW1 1956   2.841   2.810   3.947
 2794SOL    HW2 1957   2.818   2.689   4.054
 2795SOL     OW 1958   3.366   3.469   3.768
 2795SOL    HW1 1959   3.274   3.506   3.775
 2795SOL    HW2 1960   3.404   3.489   3.678
 2800SOL     OW 1961   2.452   3.349   4.215
 2800SOL    HW1 1962   2.494   3.291   4.145
 2800SOL    HW2 1963   2.408   3.428   4.171
 2802SOL     OW 1964   2.117   3.210   4.014
 2802SOL    HW1 1965   2.021   3.211   3.987
 2802SOL    HW2 1966   2.129   3.263   4.098
 2804SOL     OW 1967   1.937   2.207   3.757
 2804SOL    HW1 1968   1.845   2.179   3.728
 2804SOL    HW2 1969   1.968   2.284   3.701
 2805SOL     OW 1970   1.934   2.028   4.042
 2805SOL    HW1 1971   1.917   2.111   3.988
 2805SOL    HW2 1972   2.024   1.991   4.020
 2806SOL     OW 1973   3.045   3.197   3.843
 2806SOL    HW1 1974   2.946   3.186   3.845
 2806SOL    HW2 1975   3.079   3.212   3.936
 2811SOL     OW 1976   3.087   2.187   4.173
 2811SOL    HW1 1977   3.152   2.113   4.162
 2811SOL    HW2 1978   3.107   2.237   4.257
 2812SOL     OW 1979   2.456   2.607   4.376
 2812SOL    HW1 1980   2.506   2.692   4.357
 2812SOL    HW2 1981   2.368   2.609   4.328
 2814SOL     OW 1982   2.721   3.236   3.740
 2814SOL    HW1 1983   2.675   3.251   3.828
 2814SOL    HW2 1984   2.765   3.321   3.710
 2817SOL     OW 1985   2.945   2.846   3.811
 2817SOL    HW1 1986   2.922   2.899   3.729
 2817SOL    HW2 1987   3.026   2.790   3.792
 2821SOL     OW 1988   2.290   2.286   4.244
 2821SOL    HW1 1989   2.320   2.214   4.182
 2821SOL    HW2 1990   2.251   2.246   4.327
 2827SOL     OW 1991   2.632   3.192   4.025
 2827SOL    HW1 1992   2.586   3.105   4.042
 2827SOL    HW2 1993   2.723   3.189   4.066
 2829SOL     OW 1994   3.214   1.914   3.892
 2829SOL    HW1 1995   3.249   1.873   3.808
 2829SOL    HW2 1996   3.124   1.876   3.912
 2832SOL     OW 1997   1.901   2.939   4.024
 2832SOL    HW1 1998   2.000   2.928   4.015
 2832SOL    HW2 1999   1.861   2.853   4.056
 2833SOL     OW 2000   2.737   3.508   4.061
 2833SOL    HW1 2001   2.660   3.473   4.007
 2833SOL    HW2 2002   2.705   3.579   4.123
 2864SOL     OW 2003   2.179   3.975   1.801
 2864SOL    HW1 2004   2.250   4.046   1.807
 2864SOL    HW2 2005   2.091   4.014   1.829
 2887SOL     OW 2006   3.409   3.946   1.729
 2887SOL    HW1 2007   3.404   3.983   1.821
 2887SOL    HW2 2008   3.337   3.877   1.717
 2888SOL     OW 2009   2.643   3.988   1.749
 2888SOL    HW1 2010   2.710   3.927   1.792
 2888SOL    HW2 2011   2.570   4.007   1.814
 2913SOL     OW 2012   2.777   3.813   1.402
 2913SOL    HW1 2013   2.802   3.793   1.307
 2913SOL    HW2 2014   2.849   3.869   1.444
 2926SOL     OW 2015   2.875   3.829   1.770
 2926SOL    HW1 2016   2.881   3.914   1.718
 2926SOL    HW2 2017   2.907   3.753   1.713
 2927SOL     OW 2018   2.366   3.774   1.740
 2927SOL    HW1 2019   2.324   3.717   1.670
 2927SOL    HW2 2020   2.300   3.843   1.772
 2946SOL     OW 2021   3.022   3.931   1.477
 2946SOL    HW1 2022   3.022   3.995   1.554
 2946SOL    HW2 2023   3.050   3.979   1.394
 2976SOL     OW 2024   2.534   3.927   1.489
 2976SOL    HW1 2025   2.624   3.911   1.449
 2976SOL    HW2 2026   2.542   3.932   1.588
 3007SOL     OW 2027   2.087   3.999   2.858
 3007SOL    HW1 2028   2.122   3.982   2.950
 3007SOL    HW2 2029   1.999   3.954   2.846
 3008SOL     OW 2030   1.881   4.092   2.509
 3008SOL    HW1 2031   1.799   4.135   2.548
 3008SOL    HW2 2032   1.853   4.019   2.446
 3018SOL     OW 2033   2.300   4.116   3.361
 3018SOL    HW1 2034   2.382   4.060   3.370
 3018SOL    HW2 2035   2.219   4.058   3.365
 3019SOL     OW 2036   3.465   4.171   2.599
 3019SOL    HW1 2037   3.391   4.217   2.549
 3019SOL    HW2 2038   3.516   4.239   2.652
 3024SOL     OW 2039   3.456   3.838   3.342
 3024SOL    HW1 2040   3.438   3.905   3.270
 3024SOL    HW2 2041   3.453   3.884   3.431
 3033SOL     OW 2042   2.671   3.728   2.364
 3033SOL    HW1 2043   2.711   3.819   2.355
 3033SOL    HW2 2044   2.571   3.736   2.370
 3036SOL     OW 2045   2.179   3.975   3.663
 3036SOL    HW1 2046   2.250   4.046   3.669
 3036SOL    HW2 2047   2.091   4.014   3.691
 3039SOL     OW 2048   3.143   4.069   2.806
 3039SOL    HW1 2049   3.057   4.019   2.793
 3039SOL    HW2 2050   3.205   4.015   2.862
 3043SOL     OW 2051   2.853   4.134   3.104
 3043SOL    HW1 2052   2.776   4.168   3.158
 3043SOL    HW2 2053   2.819   4.083   3.025
 3046SOL     OW 2054   2.727   4.072   2.057
 3046SOL    HW1 2055   2.786   4.135   2.008
 3046SOL    HW2 2056   2.746   3.978   2.028
 3049SOL     OW 2057   2.412   3.920   2.747
 3049SOL    HW1 2058   2.407   3.915   2.847
 3049SOL    HW2 2059   2.414   4.016   2.718
 3056SOL     OW 2060   2.064   4.009   3.360
 3056SOL    HW1 2061   1.984   4.069   3.347
 3056SOL    HW2 2062   2.054   3.960   3.446
 3058SOL     OW 2063   3.262   3.831   2.288
 3058SOL    HW1 2064   3.238   3.794   2.198
 3058SOL    HW2 2065   3.361   3.847   2.292
 3061SOL     OW 2066   2.476   3.846   1.979
 3061SOL    HW1 2067   2.574   3.824   1.986
 3061SOL    HW2 2068   2.445   3.829   1.886
 3062SOL     OW 2069   2.643   3.988   3.611
 3062SOL    HW1 2070   2.710   3.927   3.654
 3062SOL    HW2 2071   2.570   4.007   3.676
 3064SOL     OW 2072   2.784   4.227   2.761
 3064SOL    HW1 2073   2.759   4.218   2.665
 3064SOL    HW2 2074   2.832   4.145   2.792
 3065SOL     OW 2075   2.401   3.788   2.374
 3065SOL    HW1 2076   2.320   3.789   2.432
 3065SOL    HW2 2077   2.404   3.871   2.319
 3067SOL     OW 2078   2.159   3.759   2.033
 3067SOL    HW1 2079   2.208   3.843   2.012
 3067SOL    HW2 2080   2.221   3.694   2.078
 3068SOL     OW 2081   2.797   3.960   2.342
 3068SOL    HW1 2082   2.749   4.001   2.264
 3068SOL    HW2 2083   2.896   3.958   2.323
 3074SOL     OW 2084   2.423   3.946   3.009
 3074SOL    HW1 2085   2.461   3.862   3.046
 3074SOL    HW2 2086   2.335   3.965   3.053
 3075SOL     OW 2087   2.728   4.178   2.504
 3075SOL    HW1 2088   2.696   4.250   2.442
 3075SOL    HW2 2089   2.752   4.097   2.451
 3076SOL     OW 2090   2.879   3.763   2.615
 3076SOL    HW1 2091   2.807   3.768   2.546
 3076SOL    HW2 2092   2.855   3.694   2.684
 3082SOL     OW 2093   2.389   3.980   2.190
 3082SOL    HW1 2094   2.416   3.921   2.115
 3082SOL    HW2 2095   2.389   4.075   2.159
 3087SOL     OW 2096   2.777   3.813   3.264
 3087SOL    HW1 2097   2.802   3.793   3.169
 3087SOL    HW2 2098   2.849   3.869   3.306
 3091SOL     OW 2099   3.136   4.110   3.124
 3091SOL    HW1 2100   3.157   4.184   3.188
 3091SOL    HW2 2101   3.047   4.127   3.081
 3093SOL     OW 2102   2.428   4.261   2.727
 3093SOL    HW1 2103   2.440   4.327   2.653
 3093SOL    HW2 2104   2.474   4.295   2.810
 3100SOL     OW 2105   2.875   3.829   3.632
 3100SOL    HW1 2106   2.881   3.914   3.580
 3100SOL    HW2 2107   2.907   3.753   3.575
 3101SOL     OW 2108   2.366   3.774   3.602
 3101SOL    HW1 2109   2.324   3.717   3.532
 3101SOL    HW2 2110   2.300   3.843   3.634
 3104SOL     OW 2111   3.071   4.249   2.137
 3104SOL    HW1 2112   3.084   4.165   2.191
 3104SOL    HW2 2113   3.042   4.323   2.197
 3105SOL     OW 2114   2.169   3.937   3.093
 3105SOL    HW1 2115   2.146   3.974   3.183
 3105SOL    HW2 2116   2.139   3.842   3.087
 3107SOL     OW 2117   2.594   4.358   2.926
 3107SOL    HW1 2118   2.653   4.332   2.850
 3107SOL    HW2 2119   2.566   4.454   2.915
 3109SOL     OW 2120   2.169   3.787   2.480
 3109SOL    HW1 2121   2.158   3.881   2.513
 3109SOL    HW2 2122   2.164   3.724   2.557
 3110SOL     OW 2123   3.484   4.091   2.236
 3110SOL    HW1 2124   3.486   4.015   2.300
 3110SOL    HW2 2125   3.436   4.168   2.276
 3114SOL     OW 2126   3.402   3.998   1.987
 3114SOL    HW1 2127   3.341   3.923   2.010
 3114SOL    HW2 2128   3.424   4.050   2.070
 3118SOL     OW 2129   2.201   4.233   2.868
 3118SOL    HW1 2130   2.149   4.150   2.851
 3118SOL    HW2 2131   2.278   4.238   2.804
 3120SOL     OW 2132   3.022   3.931   3.339
 3120SOL    HW1 2133   3.022   3.995   3.416
 3120SOL    HW2 2134   3.050   3.979   3.256
 3126SOL     OW 2135   2.677   4.296   2.187
 3126SOL    HW1 2136   2.684   4.207   2.141
 3126SOL    HW2 2137   2.583   4.330   2.179
 3129SOL     OW 2138   2.533   4.188   3.131
 3129SOL    HW1 2139   2.499   4.099   3.101
 3129SOL    HW2 2140   2.559   4.242   3.051
 3130SOL     OW 2141   2.335   4.224   2.053
 3130SOL    HW1 2142   2.396   4.304   2.057
 3130SOL    HW2 2143   2.240   4.255   2.060
 3135SOL     OW 2144   3.588   3.859   2.385
 3135SOL    HW1 2145   3.661   3.842   2.318
 3135SOL    HW2 2146   3.557   3.772   2.423
 3138SOL     OW 2147   3.703   3.899   2.825
 3138SOL    HW1 2148   3.742   3.814   2.789
 3138SOL    HW2 2149   3.605   3.901   2.806
 3139SOL     OW 2150   2.125   4.050   2.582
 3139SOL    HW1 2151   2.046   4.101   2.548
 3139SOL    HW2 2152   2.116   4.035   2.680
 3145SOL     OW 2153   2.876   3.960   2.833
 3145SOL    HW1 2154   2.868   3.924   2.740
 3145SOL    HW2 2155   2.874   3.884   2.898
 3149SOL     OW 2156   2.534   3.927   3.351
 3149SOL    HW1 2157   2.624   3.911   3.311
 3149SOL    HW2 2158   2.542   3.932   3.450
 3150SOL     OW 2159   1.937   4.069   1.895
 3150SOL    HW1 2160   1.845   4.041   1.866
 3150SOL    HW2 2161   1.968   4.146   1.839
 3152SOL     OW 2162   1.934   3.890   2.180
 3152SOL    HW1 2163   1.917   3.973   2.126
 3152SOL    HW2 2164   2.024   3.853   2.158
 3158SOL     OW 2165   3.087   4.049   2.311
 3158SOL    HW1 2166   3.152   3.975   2.300
 3158SOL    HW2 2167   3.107   4.099   2.395
 3168SOL     OW 2168   3.686   3.916   3.089
 3168SOL    HW1 2169   3.682   3.826   3.133
 3168SOL    HW2 2170   3.689   3.905   2.990
 3169SOL     OW 2171   2.290   4.148   2.382
 3169SOL    HW1 2172   2.320   4.076   2.320
 3169SOL    HW2 2173   2.251   4.108   2.465
 3171SOL     OW 2174   2.179   4.271   3.142
 3171SOL    HW1 2175   2.217   4.212   3.214
 3171SOL    HW2 2176   2.219   4.245   3.054
 3172SOL     OW 2177   3.286   3.938   2.974
 3172SOL    HW1 2178   3.338   3.873   3.029
 3172SOL    HW2 2179   3.237   4.001   3.035
 3173SOL     OW 2180   2.863   3.758   3.016
 3173SOL    HW1 2181   2.800   3.686   2.985
 3173SOL    HW2 2182   2.956   3.722   3.016
 3175SOL     OW 2183   3.214   3.776   2.030
 3175SOL    HW1 2184   3.249   3.735   1.946
 3175SOL    HW2 2185   3.124   3.738   2.050
 3176SOL     OW 2186   3.162   4.177   2.553
 3176SOL    HW1 2187   3.103   4.257   2.557
 3176SOL    HW2 2188   3.177   4.142   2.646
 3177SOL     OW 2189   3.455   3.945   2.744
 3177SOL    HW1 2190   3.371   3.944   2.798
 3177SOL    HW2 2191   3.457   4.028   2.688
 3223SOL     OW 2192   2.476   3.846   3.841
 3223SOL    HW1 2193   2.574   3.824   3.848
 3223SOL    HW2 2194   2.445   3.829   3.748
 3227SOL     OW 2195   2.159   3.759   3.895
 3227SOL    HW1 2196   2.208   3.843   3.874
 3227SOL    HW2 2197   2.221   3.694   3.940
 3443SOL     OW 2198   3.854   1.794   1.851
 3443SOL    HW1 2199   3.813   1.720   1.904
 3443SOL    HW2 2200   3.918   1.845   1.909
 3495SOL     OW 2201   3.955   1.713   2.345
 3495SOL    HW1 2202   3.989   1.790   2.399
 3495SOL    HW2 2203   3.999   1.713   2.255
 3497SOL     OW 2204   3.954   1.434   2.400
 3497SOL    HW1 2205   3.928   1.530   2.400
 3497SOL    HW2 2206   3.883   1.380   2.445
 3502SOL     OW 2207   3.751   1.596   1.979
 3502SOL    HW1 2208   3.732   1.500   2.000
 3502SOL    HW2 2209   3.718   1.654   2.054
 3520SOL     OW 2210   3.854   1.821   3.433
 3520SOL    HW1 2211   3.844   1.806   3.532
 3520SOL    HW2 2212   3.768   1.857   3.397
 3525SOL     OW 2213   4.075   1.801   2.715
 3525SOL    HW1 2214   4.125   1.715   2.721
 3525SOL    HW2 2215   4.140   1.878   2.712
 3532SOL     OW 2216   3.973   1.785   3.103
 3532SOL    HW1 2217   4.030   1.720   3.153
 3532SOL    HW2 2218   3.957   1.752   3.010
 3564SOL     OW 2219   3.788   1.564   3.193
 3564SOL    HW1 2220   3.742   1.646   3.159
 3564SOL    HW2 2221   3.886   1.583   3.202
 3589SOL     OW 2222   3.732   1.326   2.062
 3589SOL    HW1 2223   3.639   1.347   2.031
 3589SOL    HW2 2224   3.742   1.227   2.075
 3590SOL     OW 2225   3.812   1.801   2.789
 3590SOL    HW1 2226   3.770   1.715   2.762
 3590SOL    HW2 2227   3.906   1.804   2.755
 3801SOL     OW 2228   3.837   2.599   1.597
 3801SOL    HW1 2229   3.925   2.586   1.642
 3801SOL    HW2 2230   3.824   2.696   1.575
 3807SOL     OW 2231   4.041   2.113   1.801
 3807SOL    HW1 2232   4.112   2.184   1.807
 3807SOL    HW2 2233   3.953   2.152   1.829
 3827SOL     OW 2234   3.926   2.147   1.498
 3827SOL    HW1 2235   3.846   2.207   1.485
 3827SOL    HW2 2236   3.916   2.098   1.584
 3846SOL     OW 2237   3.802   2.418   1.386
 3846SOL    HW1 2238   3.894   2.417   1.345
 3846SOL    HW2 2239   3.796   2.492   1.453
 3879SOL     OW 2240   4.074   2.760   1.804
 3879SOL    HW1 2241   4.150   2.804   1.852
 3879SOL    HW2 2242   4.109   2.713   1.722
 3891SOL     OW 2243   3.913   2.382   1.722
 3891SOL    HW1 2244   3.972   2.342   1.652
 3891SOL    HW2 2245   3.855   2.453   1.681
 3898SOL     OW 2246   3.883   2.999   1.466
 3898SOL    HW1 2247   3.905   2.938   1.542
 3898SOL    HW2 2248   3.893   2.950   1.380
 3906SOL     OW 2249   3.854   3.656   1.851
 3906SOL    HW1 2250   3.813   3.582   1.904
 3906SOL    HW2 2251   3.918   3.707   1.909
 3919SOL     OW 2252   3.829   2.875   1.726
 3919SOL    HW1 2253   3.752   2.842   1.780
 3919SOL    HW2 2254   3.914   2.845   1.768
 3935SOL     OW 2255   3.945   3.176   1.844
 3935SOL    HW1 2256   3.880   3.103   1.823
 3935SOL    HW2 2257   3.949   3.190   1.942
 3948SOL     OW 2258   3.954   2.490   1.975
 3948SOL    HW1 2259   3.861   2.488   2.012
 3948SOL    HW2 2260   3.955   2.451   1.883
 3949SOL     OW 2261   3.949   2.137   2.858
 3949SOL    HW1 2262   3.984   2.120   2.950
 3949SOL    HW2 2263   3.861   2.092   2.846
 3950SOL     OW 2264   3.743   2.230   2.509
 3950SOL    HW1 2265   3.661   2.273   2.548
 3950SOL    HW2 2266   3.715   2.157   2.446
 3958SOL     OW 2267   4.059   3.297   2.923
 3958SOL    HW1 2268   3.981   3.266   2.870
 3958SOL    HW2 2269   4.117   3.355   2.866
 3959SOL     OW 2270   4.162   2.254   3.361
 3959SOL    HW1 2271   4.244   2.198   3.370
 3959SOL    HW2 2272   4.081   2.196   3.365
 3960SOL     OW 2273   3.955   3.575   2.345
 3960SOL    HW1 2274   3.989   3.652   2.399
 3960SOL    HW2 2275   3.999   3.575   2.255
 3962SOL     OW 2276   3.954   3.296   2.400
 3962SOL    HW1 2277   3.928   3.392   2.400
 3962SOL    HW2 2278   3.883   3.242   2.445
 3963SOL     OW 2279   3.964   2.953   2.748
 3963SOL    HW1 2280   3.978   2.869   2.800
 3963SOL    HW2 2281   3.909   3.017   2.803
 3966SOL     OW 2282   3.846   2.505   2.425
 3966SOL    HW1 2283   3.801   2.417   2.442
 3966SOL    HW2 2284   3.845   2.559   2.509
 3967SOL     OW 2285   3.751   3.458   1.979
 3967SOL    HW1 2286   3.732   3.362   2.000
 3967SOL    HW2 2287   3.718   3.516   2.054
 3969SOL     OW 2288   3.837   2.599   3.459
 3969SOL    HW1 2289   3.925   2.586   3.504
 3969SOL    HW2 2290   3.824   2.696   3.437
 3973SOL     OW 2291   3.921   2.838   3.126
 3973SOL    HW1 2292   4.010   2.793   3.112
 3973SOL    HW2 2293   3.848   2.773   3.107
 3977SOL     OW 2294   4.322   2.591   2.132
 3977SOL    HW1 2295   4.346   2.660   2.064
 3977SOL    HW2 2296   4.244   2.624   2.186
 3984SOL     OW 2297   3.800   2.673   2.651
 3984SOL    HW1 2298   3.899   2.661   2.660
 3984SOL    HW2 2299   3.776   2.768   2.672
 3988SOL     OW 2300   4.274   2.058   2.747
 3988SOL    HW1 2301   4.269   2.053   2.847
 3988SOL    HW2 2302   4.276   2.154   2.718
 3992SOL     OW 2303   4.045   2.805   2.104
 3992SOL    HW1 2304   4.127   2.844   2.062
 3992SOL    HW2 2305   4.018   2.723   2.055
 3995SOL     OW 2306   3.926   2.147   3.360
 3995SOL    HW1 2307   3.846   2.207   3.347
 3995SOL    HW2 2308   3.916   2.098   3.446
 3997SOL     OW 2309   3.973   3.647   3.103
 3997SOL    HW1 2310   4.030   3.582   3.153
 3997SOL    HW2 2311   3.957   3.614   3.010
 3999SOL     OW 2312   4.106   2.562   2.342
 3999SOL    HW1 2313   4.151   2.472   2.339
 3999SOL    HW2 2314   4.012   2.551   2.375
 4008SOL     OW 2315   4.021   1.897   2.033
 4008SOL    HW1 2316   4.070   1.981   2.012
 4008SOL    HW2 2317   4.083   1.832   2.078
 4012SOL     OW 2318   4.183   3.014   2.603
 4012SOL    HW1 2319   4.112   2.987   2.668
 4012SOL    HW2 2320   4.157   2.986   2.510
 4015SOL     OW 2321   3.802   2.418   3.248
 4015SOL    HW1 2322   3.894   2.417   3.207
 4015SOL    HW2 2323   3.796   2.492   3.315
 4016SOL     OW 2324   4.285   2.084   3.009
 4016SOL    HW1 2325   4.323   2.000   3.046
 4016SOL    HW2 2326   4.197   2.103   3.053
 4021SOL     OW 2327   4.251   2.118   2.190
 4021SOL    HW1 2328   4.278   2.059   2.115
 4021SOL    HW2 2329   4.251   2.213   2.159
 4027SOL     OW 2330   4.134   2.675   3.113
 4027SOL    HW1 2331   4.220   2.687   3.163
 4027SOL    HW2 2332   4.092   2.588   3.140
 4029SOL     OW 2333   3.788   3.426   3.193
 4029SOL    HW1 2334   3.742   3.508   3.159
 4029SOL    HW2 2335   3.886   3.445   3.202
 4030SOL     OW 2336   4.091   2.962   2.363
 4030SOL    HW1 2337   4.084   3.045   2.307
 4030SOL    HW2 2338   4.095   2.882   2.303
 4031SOL     OW 2339   4.290   2.399   2.727
 4031SOL    HW1 2340   4.302   2.465   2.653
 4031SOL    HW2 2341   4.336   2.433   2.810
 4034SOL     OW 2342   4.078   3.372   3.191
 4034SOL    HW1 2343   4.057   3.328   3.104
 4034SOL    HW2 2344   4.175   3.398   3.194
 4035SOL     OW 2345   4.126   2.613   3.460
 4035SOL    HW1 2346   4.194   2.668   3.413
 4035SOL    HW2 2347   4.166   2.525   3.487
 4038SOL     OW 2348   4.297   2.732   2.891
 4038SOL    HW1 2349   4.341   2.821   2.882
 4038SOL    HW2 2350   4.234   2.732   2.968
 4041SOL     OW 2351   4.031   2.075   3.093
 4041SOL    HW1 2352   4.008   2.112   3.183
 4041SOL    HW2 2353   4.001   1.980   3.087
 4042SOL     OW 2354   3.761   3.172   3.144
 4042SOL    HW1 2355   3.814   3.123   3.212
 4042SOL    HW2 2356   3.783   3.270   3.149
 4044SOL     OW 2357   4.031   1.925   2.480
 4044SOL    HW1 2358   4.020   2.019   2.513
 4044SOL    HW2 2359   4.026   1.862   2.557
 4051SOL     OW 2360   4.043   2.672   2.811
 4051SOL    HW1 2361   4.136   2.708   2.816
 4051SOL    HW2 2362   4.037   2.587   2.863
 4052SOL     OW 2363   4.063   2.371   2.868
 4052SOL    HW1 2364   4.011   2.288   2.851
 4052SOL    HW2 2365   4.140   2.376   2.804
 4055SOL     OW 2366   3.732   3.188   2.062
 4055SOL    HW1 2367   3.639   3.209   2.031
 4055SOL    HW2 2368   3.742   3.089   2.075
 4056SOL     OW 2369   3.812   3.663   2.789
 4056SOL    HW1 2370   3.770   3.577   2.762
 4056SOL    HW2 2371   3.906   3.666   2.755
 4059SOL     OW 2372   3.764   2.406   2.976
 4059SOL    HW1 2373   3.849   2.373   2.935
 4059SOL    HW2 2374   3.777   2.421   3.074
 4060SOL     OW 2375   3.913   2.382   3.584
 4060SOL    HW1 2376   3.972   2.342   3.514
 4060SOL    HW2 2377   3.855   2.453   3.543
 4066SOL     OW 2378   4.197   2.362   2.053
 4066SOL    HW1 2379   4.258   2.442   2.057
 4066SOL    HW2 2380   4.102   2.393   2.060
 4067SOL     OW 2381   3.883   2.999   3.328
 4067SOL    HW1 2382   3.905   2.938   3.404
 4067SOL    HW2 2383   3.893   2.950   3.242
 4071SOL     OW 2384   3.807   3.120   2.884
 4071SOL    HW1 2385   3.802   3.119   2.984
 4071SOL    HW2 2386   3.724   3.079   2.846
 4078SOL     OW 2387   3.987   2.188   2.582
 4078SOL    HW1 2388   3.908   2.239   2.548
 4078SOL    HW2 2389   3.978   2.173   2.680
 4082SOL     OW 2390   4.096   3.150   3.352
 4082SOL    HW1 2391   4.083   3.243   3.318
 4082SOL    HW2 2392   4.012   3.098   3.339
 4086SOL     OW 2393   3.979   3.210   2.152
 4086SOL    HW1 2394   3.883   3.211   2.125
 4086SOL    HW2 2395   3.991   3.263   2.236
 4087SOL     OW 2396   3.829   2.875   3.588
 4087SOL    HW1 2397   3.752   2.842   3.642
 4087SOL    HW2 2398   3.914   2.845   3.630
 4089SOL     OW 2399   3.799   2.207   1.895
 4089SOL    HW1 2400   3.707   2.179   1.866
 4089SOL    HW2 2401   3.830   2.284   1.839
 4091SOL     OW 2402   3.796   2.028   2.180
 4091SOL    HW1 2403   3.779   2.111   2.126
 4091SOL    HW2 2404   3.886   1.991   2.158
 4098SOL     OW 2405   4.318   2.607   2.514
 4098SOL    HW1 2406   4.368   2.692   2.495
 4098SOL    HW2 2407   4.230   2.609   2.466
 4104SOL     OW 2408   3.803   3.102   2.515
 4104SOL    HW1 2409   3.802   3.055   2.603
 4104SOL    HW2 2410   3.885   3.074   2.464
 4106SOL     OW 2411   4.152   2.286   2.382
 4106SOL    HW1 2412   4.182   2.214   2.320
 4106SOL    HW2 2413   4.113   2.246   2.465
 4107SOL     OW 2414   4.041   2.409   3.142
 4107SOL    HW1 2415   4.079   2.350   3.214
 4107SOL    HW2 2416   4.081   2.383   3.054
 4114SOL     OW 2417   3.763   2.939   2.162
 4114SOL    HW1 2418   3.862   2.928   2.153
 4114SOL    HW2 2419   3.723   2.853   2.194
 4230SOL     OW 2420   3.799   2.207   3.757
 4230SOL    HW1 2421   3.707   2.179   3.728
 4230SOL    HW2 2422   3.830   2.284   3.701
 4508SOL     OW 2423   3.796   3.890   2.180
 4508SOL    HW1 2424   3.779   3.973   2.126
 4508SOL    HW2 2425   3.886   3.853   2.158
   5.22181   5.22181   5.22181
