mobley_2197088_GMX.gro created by acpype (v: 2023.10.27) on Tue May 19 12:36:06 2026
 2396
    1MOL     C1    1   3.040   3.055   2.821
    1MOL     C2    2   2.289   2.258   2.492
    1MOL     C3    3   2.967   2.924   2.848
    1MOL     C4    4   2.362   2.388   2.464
    1MOL     C5    5   2.867   2.892   2.737
    1MOL     C6    6   2.448   2.430   2.584
    1MOL     C7    7   2.791   2.762   2.766
    1MOL     C8    8   2.523   2.562   2.561
    1MOL     C9    9   2.694   2.728   2.653
    1MOL    C10   10   2.615   2.600   2.678
    1MOL     H1   11   3.111   3.076   2.902
    1MOL     H2   12   2.970   3.139   2.815
    1MOL     H3   13   3.096   3.050   2.727
    1MOL     H4   14   2.228   2.230   2.405
    1MOL     H5   15   2.359   2.176   2.511
    1MOL     H6   16   2.223   2.268   2.578
    1MOL     H7   17   2.915   2.932   2.944
    1MOL     H8   18   3.040   2.843   2.857
    1MOL     H9   19   2.289   2.466   2.441
    1MOL    H10   20   2.426   2.376   2.375
    1MOL    H11   21   2.921   2.883   2.642
    1MOL    H12   22   2.796   2.975   2.726
    1MOL    H13   23   2.522   2.352   2.604
    1MOL    H14   24   2.385   2.438   2.673
    1MOL    H15   25   2.737   2.774   2.861
    1MOL    H16   26   2.863   2.680   2.780
    1MOL    H17   27   2.451   2.642   2.542
    1MOL    H18   28   2.583   2.552   2.470
    1MOL    H19   29   2.751   2.716   2.560
    1MOL    H20   30   2.625   2.812   2.637
    1MOL    H21   31   2.556   2.611   2.770
    1MOL    H22   32   2.686   2.518   2.696
  127SOL     OW   33   1.859   1.518   1.605
  127SOL    HW1   34   1.873   1.545   1.510
  127SOL    HW2   35   1.942   1.540   1.658
  219SOL     OW   36   1.555   1.511   2.565
  219SOL    HW1   37   1.498   1.495   2.646
  219SOL    HW2   38   1.496   1.521   2.485
  227SOL     OW   39   1.460   1.505   3.201
  227SOL    HW1   40   1.484   1.599   3.227
  227SOL    HW2   41   1.444   1.451   3.283
  238SOL     OW   42   1.842   1.767   2.221
  238SOL    HW1   43   1.896   1.738   2.301
  238SOL    HW2   44   1.872   1.857   2.192
  250SOL     OW   45   1.466   1.417   2.815
  250SOL    HW1   46   1.407   1.423   2.895
  250SOL    HW2   47   1.451   1.329   2.769
  251SOL     OW   48   1.667   1.714   2.434
  251SOL    HW1   49   1.626   1.691   2.346
  251SOL    HW2   50   1.649   1.640   2.499
  254SOL     OW   51   1.576   1.662   2.169
  254SOL    HW1   52   1.665   1.708   2.172
  254SOL    HW2   53   1.555   1.638   2.074
  275SOL     OW   54   1.632   1.377   1.943
  275SOL    HW1   55   1.600   1.471   1.933
  275SOL    HW2   56   1.556   1.314   1.931
  295SOL     OW   57   1.271   1.797   2.453
  295SOL    HW1   58   1.315   1.861   2.389
  295SOL    HW2   59   1.221   1.849   2.523
  305SOL     OW   60   1.664   1.280   2.519
  305SOL    HW1   61   1.763   1.288   2.533
  305SOL    HW2   62   1.619   1.364   2.550
  310SOL     OW   63   1.592   1.629   3.487
  310SOL    HW1   64   1.619   1.663   3.397
  310SOL    HW2   65   1.671   1.591   3.533
  340SOL     OW   66   1.859   1.518   3.467
  340SOL    HW1   67   1.873   1.545   3.372
  340SOL    HW2   68   1.942   1.540   3.520
  365SOL     OW   69   1.759   1.747   3.016
  365SOL    HW1   70   1.820   1.777   2.943
  365SOL    HW2   71   1.721   1.658   2.994
  366SOL     OW   72   1.252   1.731   2.990
  366SOL    HW1   73   1.336   1.736   2.936
  366SOL    HW2   74   1.229   1.635   3.008
  370SOL     OW   75   1.388   1.573   2.339
  370SOL    HW1   76   1.455   1.585   2.265
  370SOL    HW2   77   1.348   1.662   2.362
  375SOL     OW   78   1.650   1.720   3.256
  375SOL    HW1   79   1.703   1.730   3.172
  375SOL    HW2   80   1.623   1.810   3.290
  381SOL     OW   81   1.504   1.607   1.906
  381SOL    HW1   82   1.412   1.644   1.913
  381SOL    HW2   83   1.542   1.627   1.816
  383SOL     OW   84   1.614   1.292   3.151
  383SOL    HW1   85   1.674   1.295   3.231
  383SOL    HW2   86   1.539   1.356   3.164
  396SOL     OW   87   1.493   1.767   2.821
  396SOL    HW1   88   1.526   1.831   2.752
  396SOL    HW2   89   1.559   1.761   2.896
  409SOL     OW   90   1.861   1.569   2.713
  409SOL    HW1   91   1.790   1.557   2.643
  409SOL    HW2   92   1.862   1.490   2.773
  415SOL     OW   93   1.705   1.487   2.966
  415SOL    HW1   94   1.612   1.462   2.939
  415SOL    HW2   95   1.731   1.437   3.048
  630SOL     OW   96   1.594   1.976   1.480
  630SOL    HW1   97   1.576   2.043   1.408
  630SOL    HW2   98   1.591   2.022   1.569
  650SOL     OW   99   1.394   2.331   1.674
  650SOL    HW1  100   1.374   2.374   1.762
  650SOL    HW2  101   1.472   2.269   1.683
  657SOL     OW  102   1.719   2.447   1.831
  657SOL    HW1  103   1.693   2.536   1.795
  657SOL    HW2  104   1.717   2.379   1.758
  675SOL     OW  105   1.547   2.084   1.729
  675SOL    HW1  106   1.542   2.121   1.821
  675SOL    HW2  107   1.475   2.015   1.717
  702SOL     OW  108   1.754   3.085   1.588
  702SOL    HW1  109   1.845   3.046   1.575
  702SOL    HW2  110   1.762   3.181   1.612
  704SOL     OW  111   1.592   3.491   1.625
  704SOL    HW1  112   1.619   3.525   1.535
  704SOL    HW2  113   1.671   3.453   1.671
  720SOL     OW  114   1.587   2.641   1.670
  720SOL    HW1  115   1.495   2.679   1.665
  720SOL    HW2  116   1.647   2.688   1.605
  729SOL     OW  117   1.728   2.797   1.854
  729SOL    HW1  118   1.682   2.790   1.765
  729SOL    HW2  119   1.666   2.841   1.920
  734SOL     OW  120   1.859   3.380   1.605
  734SOL    HW1  121   1.873   3.407   1.510
  734SOL    HW2  122   1.942   3.402   1.658
  749SOL     OW  123   1.369   2.812   1.660
  749SOL    HW1  124   1.408   2.901   1.680
  749SOL    HW2  125   1.379   2.792   1.563
  751SOL     OW  126   1.657   2.466   1.206
  751SOL    HW1  127   1.619   2.397   1.268
  751SOL    HW2  128   1.739   2.430   1.162
  778SOL     OW  129   1.614   3.154   1.289
  778SOL    HW1  130   1.674   3.157   1.369
  778SOL    HW2  131   1.539   3.218   1.302
  782SOL     OW  132   1.709   2.247   1.381
  782SOL    HW1  133   1.782   2.316   1.385
  782SOL    HW2  134   1.737   2.172   1.322
  787SOL     OW  135   1.440   2.718   1.398
  787SOL    HW1  136   1.383   2.770   1.335
  787SOL    HW2  137   1.536   2.730   1.374
  793SOL     OW  138   1.450   3.082   1.633
  793SOL    HW1  139   1.441   3.072   1.732
  793SOL    HW2  140   1.546   3.075   1.607
  795SOL     OW  141   1.674   2.745   1.254
  795SOL    HW1  142   1.647   2.656   1.217
  795SOL    HW2  143   1.675   2.813   1.181
  798SOL     OW  144   1.777   2.204   1.642
  798SOL    HW1  145   1.760   2.235   1.548
  798SOL    HW2  146   1.693   2.167   1.680
  799SOL     OW  147   1.730   2.796   1.517
  799SOL    HW1  148   1.768   2.887   1.532
  799SOL    HW2  149   1.722   2.779   1.418
  808SOL     OW  150   1.824   2.054   1.227
  808SOL    HW1  151   1.820   1.964   1.271
  808SOL    HW2  152   1.827   2.043   1.128
  826SOL     OW  153   1.555   3.373   2.565
  826SOL    HW1  154   1.498   3.357   2.646
  826SOL    HW2  155   1.496   3.383   2.485
  827SOL     OW  156   1.135   2.565   2.579
  827SOL    HW1  157   1.192   2.643   2.554
  827SOL    HW2  158   1.075   2.591   2.655
  828SOL     OW  159   1.755   2.469   2.093
  828SOL    HW1  160   1.743   2.456   1.994
  828SOL    HW2  161   1.725   2.388   2.142
  834SOL     OW  162   1.460   3.367   3.201
  834SOL    HW1  163   1.484   3.461   3.227
  834SOL    HW2  164   1.444   3.313   3.283
  836SOL     OW  165   1.603   2.309   2.599
  836SOL    HW1  166   1.529   2.355   2.549
  836SOL    HW2  167   1.654   2.377   2.652
  843SOL     OW  168   1.594   1.976   3.342
  843SOL    HW1  169   1.576   2.043   3.270
  843SOL    HW2  170   1.591   2.022   3.431
  845SOL     OW  171   1.842   3.629   2.221
  845SOL    HW1  172   1.896   3.600   2.301
  845SOL    HW2  173   1.872   3.719   2.192
  847SOL     OW  174   1.689   2.784   2.474
  847SOL    HW1  175   1.784   2.755   2.482
  847SOL    HW2  176   1.681   2.849   2.399
  848SOL     OW  177   1.641   2.970   2.294
  848SOL    HW1  178   1.727   2.972   2.242
  848SOL    HW2  179   1.655   3.017   2.382
  851SOL     OW  180   1.293   3.090   3.285
  851SOL    HW1  181   1.330   3.017   3.227
  851SOL    HW2  182   1.345   3.095   3.370
  854SOL     OW  183   1.525   2.861   2.052
  854SOL    HW1  184   1.462   2.785   2.065
  854SOL    HW2  185   1.573   2.879   2.138
  857SOL     OW  186   1.466   3.279   2.815
  857SOL    HW1  187   1.407   3.285   2.895
  857SOL    HW2  188   1.451   3.191   2.769
  858SOL     OW  189   1.667   3.576   2.434
  858SOL    HW1  190   1.626   3.553   2.346
  858SOL    HW2  191   1.649   3.502   2.499
  860SOL     OW  192   1.281   2.207   2.806
  860SOL    HW1  193   1.195   2.157   2.793
  860SOL    HW2  194   1.343   2.153   2.862
  861SOL     OW  195   1.576   3.524   2.169
  861SOL    HW1  196   1.665   3.570   2.172
  861SOL    HW2  197   1.555   3.500   2.074
  863SOL     OW  198   1.394   2.331   3.536
  863SOL    HW1  199   1.374   2.374   3.624
  863SOL    HW2  200   1.472   2.269   3.545
  865SOL     OW  201   0.991   2.272   3.104
  865SOL    HW1  202   0.914   2.306   3.158
  865SOL    HW2  203   0.957   2.221   3.025
  866SOL     OW  204   1.041   2.563   2.291
  866SOL    HW1  205   1.067   2.559   2.387
  866SOL    HW2  206   0.956   2.512   2.277
  870SOL     OW  207   1.719   2.447   3.693
  870SOL    HW1  208   1.693   2.536   3.657
  870SOL    HW2  209   1.717   2.379   3.620
  871SOL     OW  210   1.362   3.006   2.407
  871SOL    HW1  211   1.445   2.977   2.359
  871SOL    HW2  212   1.313   3.073   2.351
  875SOL     OW  213   1.795   2.928   2.735
  875SOL    HW1  214   1.733   2.913   2.659
  875SOL    HW2  215   1.743   2.939   2.820
  876SOL     OW  216   1.227   3.412   3.368
  876SOL    HW1  217   1.233   3.335   3.432
  876SOL    HW2  218   1.175   3.386   3.288
  878SOL     OW  219   1.458   2.597   2.590
  878SOL    HW1  220   1.453   2.532   2.665
  878SOL    HW2  221   1.538   2.656   2.603
  882SOL     OW  222   1.632   3.239   1.943
  882SOL    HW1  223   1.600   3.333   1.933
  882SOL    HW2  224   1.556   3.176   1.931
  884SOL     OW  225   1.400   1.969   2.288
  884SOL    HW1  226   1.376   1.932   2.198
  884SOL    HW2  227   1.499   1.985   2.292
  888SOL     OW  228   1.547   2.084   3.591
  888SOL    HW1  229   1.542   2.121   3.683
  888SOL    HW2  230   1.475   2.015   3.579
  892SOL     OW  231   1.351   2.452   3.295
  892SOL    HW1  232   1.379   2.409   3.380
  892SOL    HW2  233   1.376   2.548   3.296
  894SOL     OW  234   0.922   2.365   2.761
  894SOL    HW1  235   0.897   2.356   2.665
  894SOL    HW2  236   0.970   2.283   2.792
  896SOL     OW  237   1.434   3.050   1.903
  896SOL    HW1  238   1.466   2.974   1.960
  896SOL    HW2  239   1.342   3.077   1.933
  899SOL     OW  240   1.076   2.545   3.326
  899SOL    HW1  241   0.996   2.484   3.329
  899SOL    HW2  242   1.157   2.492   3.302
  900SOL     OW  243   1.227   3.432   2.655
  900SOL    HW1  244   1.248   3.506   2.590
  900SOL    HW2  245   1.295   3.432   2.728
  902SOL     OW  246   1.271   3.659   2.453
  902SOL    HW1  247   1.315   3.723   2.389
  902SOL    HW2  248   1.221   3.711   2.523
  908SOL     OW  249   1.429   3.035   2.729
  908SOL    HW1  250   1.374   2.951   2.722
  908SOL    HW2  251   1.455   3.064   2.637
  909SOL     OW  252   1.466   2.452   2.854
  909SOL    HW1  253   1.436   2.357   2.861
  909SOL    HW2  254   1.539   2.468   2.920
  910SOL     OW  255   1.857   2.695   2.239
  910SOL    HW1  256   1.899   2.631   2.303
  910SOL    HW2  257   1.819   2.644   2.161
  912SOL     OW  258   1.664   3.142   2.519
  912SOL    HW1  259   1.763   3.150   2.533
  912SOL    HW2  260   1.619   3.226   2.550
  913SOL     OW  261   1.390   2.437   1.940
  913SOL    HW1  262   1.336   2.416   2.021
  913SOL    HW2  263   1.481   2.396   1.949
  915SOL     OW  264   1.754   3.085   3.450
  915SOL    HW1  265   1.845   3.046   3.437
  915SOL    HW2  266   1.762   3.181   3.474
  916SOL     OW  267   1.064   3.209   3.202
  916SOL    HW1  268   0.984   3.186   3.257
  916SOL    HW2  269   1.147   3.183   3.251
  917SOL     OW  270   1.592   3.491   3.487
  917SOL    HW1  271   1.619   3.525   3.397
  917SOL    HW2  272   1.671   3.453   3.533
  918SOL     OW  273   1.111   3.057   2.962
  918SOL    HW1  274   1.071   3.101   3.043
  918SOL    HW2  275   1.070   3.094   2.879
  919SOL     OW  276   1.638   2.961   2.941
  919SOL    HW1  277   1.643   3.042   3.000
  919SOL    HW2  278   1.552   2.963   2.890
  924SOL     OW  279   1.274   2.248   3.124
  924SOL    HW1  280   1.295   2.322   3.188
  924SOL    HW2  281   1.185   2.265   3.081
  928SOL     OW  282   1.252   3.210   2.250
  928SOL    HW1  283   1.302   3.287   2.290
  928SOL    HW2  284   1.157   3.212   2.282
  929SOL     OW  285   1.272   3.307   3.004
  929SOL    HW1  286   1.319   3.320   3.091
  929SOL    HW2  287   1.206   3.233   3.013
  930SOL     OW  288   1.582   2.501   2.334
  930SOL    HW1  289   1.551   2.562   2.407
  930SOL    HW2  290   1.632   2.553   2.265
  933SOL     OW  291   1.587   2.641   3.532
  933SOL    HW1  292   1.495   2.679   3.527
  933SOL    HW2  293   1.647   2.688   3.467
  937SOL     OW  294   1.360   2.724   2.907
  937SOL    HW1  295   1.285   2.724   2.841
  937SOL    HW2  296   1.397   2.632   2.916
  938SOL     OW  297   1.209   2.387   2.137
  938SOL    HW1  298   1.222   2.303   2.191
  938SOL    HW2  299   1.180   2.461   2.197
  942SOL     OW  300   1.728   2.797   3.716
  942SOL    HW1  301   1.682   2.790   3.627
  942SOL    HW2  302   1.666   2.841   3.782
  944SOL     OW  303   1.622   2.229   2.236
  944SOL    HW1  304   1.624   2.153   2.300
  944SOL    HW2  305   1.574   2.306   2.276
  945SOL     OW  306   1.023   2.628   2.828
  945SOL    HW1  307   1.038   2.649   2.924
  945SOL    HW2  308   0.993   2.533   2.819
  947SOL     OW  309   1.859   3.380   3.467
  947SOL    HW1  310   1.873   3.407   3.372
  947SOL    HW2  311   1.942   3.402   3.520
  949SOL     OW  312   1.540   2.136   1.987
  949SOL    HW1  313   1.479   2.061   2.010
  949SOL    HW2  314   1.562   2.188   2.070
  950SOL     OW  315   1.303   2.700   1.904
  950SOL    HW1  316   1.337   2.607   1.919
  950SOL    HW2  317   1.321   2.727   1.809
  951SOL     OW  318   1.068   3.195   2.711
  951SOL    HW1  319   1.075   3.111   2.656
  951SOL    HW2  320   1.130   3.264   2.675
  955SOL     OW  321   1.160   2.069   3.339
  955SOL    HW1  322   1.160   2.133   3.416
  955SOL    HW2  323   1.188   2.117   3.256
  959SOL     OW  324   1.002   2.658   3.100
  959SOL    HW1  325   1.043   2.626   3.186
  959SOL    HW2  326   0.906   2.631   3.097
  962SOL     OW  327   1.369   2.812   3.522
  962SOL    HW1  328   1.408   2.901   3.542
  962SOL    HW2  329   1.379   2.792   3.425
  964SOL     OW  330   1.657   2.466   3.068
  964SOL    HW1  331   1.619   2.397   3.130
  964SOL    HW2  332   1.739   2.430   3.024
  970SOL     OW  333   1.347   2.921   3.096
  970SOL    HW1  334   1.371   2.858   3.022
  970SOL    HW2  335   1.257   2.961   3.078
  971SOL     OW  336   1.302   2.717   2.171
  971SOL    HW1  337   1.216   2.686   2.213
  971SOL    HW2  338   1.298   2.703   2.072
  972SOL     OW  339   1.759   3.609   3.016
  972SOL    HW1  340   1.820   3.639   2.943
  972SOL    HW2  341   1.721   3.520   2.994
  973SOL     OW  342   1.252   3.593   2.990
  973SOL    HW1  343   1.336   3.598   2.936
  973SOL    HW2  344   1.229   3.497   3.008
  976SOL     OW  345   1.726   1.997   2.385
  976SOL    HW1  346   1.799   1.980   2.318
  976SOL    HW2  347   1.695   1.910   2.423
  977SOL     OW  348   1.388   3.435   2.339
  977SOL    HW1  349   1.455   3.447   2.265
  977SOL    HW2  350   1.348   3.524   2.362
  979SOL     OW  351   1.280   2.789   2.534
  979SOL    HW1  352   1.340   2.708   2.536
  979SOL    HW2  353   1.320   2.858   2.474
  982SOL     OW  354   1.650   3.582   3.256
  982SOL    HW1  355   1.703   3.592   3.172
  982SOL    HW2  356   1.623   3.672   3.290
  983SOL     OW  357   1.841   2.037   2.825
  983SOL    HW1  358   1.880   1.952   2.789
  983SOL    HW2  359   1.743   2.039   2.806
  988SOL     OW  360   1.504   3.469   1.906
  988SOL    HW1  361   1.412   3.506   1.913
  988SOL    HW2  362   1.542   3.489   1.816
  990SOL     OW  363   1.614   3.154   3.151
  990SOL    HW1  364   1.674   3.157   3.231
  990SOL    HW2  365   1.539   3.218   3.164
  991SOL     OW  366   1.039   2.960   2.558
  991SOL    HW1  367   0.969   2.913   2.612
  991SOL    HW2  368   1.098   2.892   2.515
  992SOL     OW  369   1.014   2.098   2.833
  992SOL    HW1  370   1.006   2.062   2.740
  992SOL    HW2  371   1.012   2.022   2.898
  994SOL     OW  372   1.709   2.247   3.243
  994SOL    HW1  373   1.782   2.316   3.247
  994SOL    HW2  374   1.737   2.172   3.184
  999SOL     OW  375   1.440   2.718   3.260
  999SOL    HW1  376   1.383   2.770   3.197
  999SOL    HW2  377   1.536   2.730   3.236
 1001SOL     OW  378   1.183   3.197   1.981
 1001SOL    HW1  379   1.084   3.186   1.983
 1001SOL    HW2  380   1.217   3.212   2.074
 1003SOL     OW  381   1.493   3.629   2.821
 1003SOL    HW1  382   1.526   3.693   2.752
 1003SOL    HW2  383   1.559   3.623   2.896
 1005SOL     OW  384   1.450   3.082   3.495
 1005SOL    HW1  385   1.441   3.072   3.594
 1005SOL    HW2  386   1.546   3.075   3.469
 1007SOL     OW  387   1.674   2.745   3.116
 1007SOL    HW1  388   1.647   2.656   3.079
 1007SOL    HW2  389   1.675   2.813   3.043
 1008SOL     OW  390   1.225   2.187   2.311
 1008SOL    HW1  391   1.290   2.113   2.300
 1008SOL    HW2  392   1.245   2.237   2.395
 1010SOL     OW  393   1.777   2.204   3.504
 1010SOL    HW1  394   1.760   2.235   3.410
 1010SOL    HW2  395   1.693   2.167   3.542
 1011SOL     OW  396   1.730   2.796   3.379
 1011SOL    HW1  397   1.768   2.887   3.394
 1011SOL    HW2  398   1.722   2.779   3.280
 1015SOL     OW  399   1.083   2.846   1.949
 1015SOL    HW1  400   1.060   2.899   1.867
 1015SOL    HW2  401   1.164   2.790   1.930
 1016SOL     OW  402   1.861   3.431   2.713
 1016SOL    HW1  403   1.790   3.419   2.643
 1016SOL    HW2  404   1.862   3.352   2.773
 1020SOL     OW  405   1.824   2.054   3.089
 1020SOL    HW1  406   1.820   1.964   3.133
 1020SOL    HW2  407   1.827   2.043   2.990
 1022SOL     OW  408   1.705   3.349   2.966
 1022SOL    HW1  409   1.612   3.324   2.939
 1022SOL    HW2  410   1.731   3.299   3.048
 1025SOL     OW  411   1.424   2.076   2.974
 1025SOL    HW1  412   1.476   2.011   3.029
 1025SOL    HW2  413   1.375   2.139   3.035
 1029SOL     OW  414   1.352   1.914   2.030
 1029SOL    HW1  415   1.387   1.873   1.946
 1029SOL    HW2  416   1.262   1.876   2.050
 1030SOL     OW  417   1.300   2.315   2.553
 1030SOL    HW1  418   1.241   2.395   2.557
 1030SOL    HW2  419   1.315   2.280   2.646
 1031SOL     OW  420   1.593   2.083   2.744
 1031SOL    HW1  421   1.509   2.082   2.798
 1031SOL    HW2  422   1.595   2.166   2.688
 1040SOL     OW  423   1.755   2.469   3.955
 1040SOL    HW1  424   1.743   2.456   3.856
 1040SOL    HW2  425   1.725   2.388   4.004
 1062SOL     OW  426   1.525   2.861   3.914
 1062SOL    HW1  427   1.462   2.785   3.927
 1062SOL    HW2  428   1.573   2.879   4.000
 1083SOL     OW  429   1.632   3.239   3.805
 1083SOL    HW1  430   1.600   3.333   3.795
 1083SOL    HW2  431   1.556   3.176   3.793
 1095SOL     OW  432   1.434   3.050   3.765
 1095SOL    HW1  433   1.466   2.974   3.822
 1095SOL    HW2  434   1.342   3.077   3.795
 1108SOL     OW  435   1.857   2.695   4.101
 1108SOL    HW1  436   1.899   2.631   4.165
 1108SOL    HW2  437   1.819   2.644   4.023
 1111SOL     OW  438   1.390   2.437   3.802
 1111SOL    HW1  439   1.336   2.416   3.883
 1111SOL    HW2  440   1.481   2.396   3.811
 1140SOL     OW  441   1.540   2.136   3.849
 1140SOL    HW1  442   1.479   2.061   3.872
 1140SOL    HW2  443   1.562   2.188   3.932
 1141SOL     OW  444   1.303   2.700   3.766
 1141SOL    HW1  445   1.337   2.607   3.781
 1141SOL    HW2  446   1.321   2.727   3.671
 1175SOL     OW  447   1.504   3.469   3.768
 1175SOL    HW1  448   1.412   3.506   3.775
 1175SOL    HW2  449   1.542   3.489   3.678
 1417SOL     OW  450   1.594   3.838   3.342
 1417SOL    HW1  451   1.576   3.905   3.270
 1417SOL    HW2  452   1.591   3.884   3.431
 1452SOL     OW  453   1.400   3.831   2.288
 1452SOL    HW1  454   1.376   3.794   2.198
 1452SOL    HW2  455   1.499   3.847   2.292
 1533SOL     OW  456   1.726   3.859   2.385
 1533SOL    HW1  457   1.799   3.842   2.318
 1533SOL    HW2  458   1.695   3.772   2.423
 1536SOL     OW  459   1.841   3.899   2.825
 1536SOL    HW1  460   1.880   3.814   2.789
 1536SOL    HW2  461   1.743   3.901   2.806
 1566SOL     OW  462   1.824   3.916   3.089
 1566SOL    HW1  463   1.820   3.826   3.133
 1566SOL    HW2  464   1.827   3.905   2.990
 1576SOL     OW  465   1.593   3.945   2.744
 1576SOL    HW1  466   1.509   3.944   2.798
 1576SOL    HW2  467   1.595   4.028   2.688
 1741SOL     OW  468   2.548   1.161   1.803
 1741SOL    HW1  469   2.608   1.240   1.817
 1741SOL    HW2  470   2.462   1.192   1.762
 1747SOL     OW  471   2.989   1.341   1.690
 1747SOL    HW1  472   3.036   1.341   1.778
 1747SOL    HW2  473   2.941   1.254   1.679
 1750SOL     OW  474   2.482   1.786   1.439
 1750SOL    HW1  475   2.390   1.769   1.474
 1750SOL    HW2  476   2.510   1.878   1.465
 1764SOL     OW  477   3.049   1.792   1.616
 1764SOL    HW1  478   3.073   1.852   1.540
 1764SOL    HW2  479   3.056   1.697   1.586
 1777SOL     OW  480   1.992   1.821   1.571
 1777SOL    HW1  481   1.982   1.806   1.670
 1777SOL    HW2  482   1.906   1.857   1.535
 1785SOL     OW  483   3.089   1.550   1.506
 1785SOL    HW1  484   3.095   1.473   1.570
 1785SOL    HW2  485   3.037   1.524   1.426
 1788SOL     OW  486   2.323   1.266   1.727
 1788SOL    HW1  487   2.273   1.267   1.641
 1788SOL    HW2  488   2.260   1.248   1.803
 1794SOL     OW  489   2.111   1.785   1.241
 1794SOL    HW1  490   2.168   1.720   1.291
 1794SOL    HW2  491   2.095   1.752   1.148
 1826SOL     OW  492   3.454   1.629   1.625
 1826SOL    HW1  493   3.481   1.663   1.535
 1826SOL    HW2  494   3.533   1.591   1.671
 1855SOL     OW  495   2.842   1.573   1.700
 1855SOL    HW1  496   2.822   1.617   1.612
 1855SOL    HW2  497   2.881   1.482   1.684
 1874SOL     OW  498   2.114   1.564   1.744
 1874SOL    HW1  499   2.084   1.621   1.820
 1874SOL    HW2  500   2.107   1.467   1.770
 1876SOL     OW  501   2.792   1.678   1.465
 1876SOL    HW1  502   2.768   1.660   1.370
 1876SOL    HW2  503   2.822   1.772   1.475
 1884SOL     OW  504   2.550   1.662   1.716
 1884SOL    HW1  505   2.494   1.743   1.725
 1884SOL    HW2  506   2.602   1.666   1.630
 1888SOL     OW  507   1.992   1.794   1.851
 1888SOL    HW1  508   1.951   1.720   1.904
 1888SOL    HW2  509   2.056   1.845   1.909
 1892SOL     OW  510   3.512   1.720   1.394
 1892SOL    HW1  511   3.565   1.730   1.310
 1892SOL    HW2  512   3.485   1.810   1.428
 1915SOL     OW  513   2.252   1.741   1.560
 1915SOL    HW1  514   2.161   1.782   1.558
 1915SOL    HW2  515   2.245   1.647   1.592
 1926SOL     OW  516   2.083   1.314   1.844
 1926SOL    HW1  517   2.018   1.241   1.823
 1926SOL    HW2  518   2.087   1.328   1.942
 1928SOL     OW  519   2.534   1.391   1.624
 1928SOL    HW1  520   2.456   1.341   1.662
 1928SOL    HW2  521   2.531   1.486   1.655
 1937SOL     OW  522   2.480   1.567   1.284
 1937SOL    HW1  523   2.475   1.649   1.341
 1937SOL    HW2  524   2.569   1.564   1.239
 1946SOL     OW  525   2.431   1.275   3.027
 1946SOL    HW1  526   2.338   1.268   2.990
 1946SOL    HW2  527   2.442   1.364   3.071
 1947SOL     OW  528   3.417   1.511   2.565
 1947SOL    HW1  529   3.360   1.495   2.646
 1947SOL    HW2  530   3.358   1.521   2.485
 1950SOL     OW  531   2.630   1.144   2.885
 1950SOL    HW1  532   2.552   1.161   2.945
 1950SOL    HW2  533   2.664   1.231   2.849
 1952SOL     OW  534   2.547   1.012   2.527
 1952SOL    HW1  535   2.616   0.996   2.597
 1952SOL    HW2  536   2.474   1.069   2.565
 1954SOL     OW  537   2.197   1.435   2.923
 1954SOL    HW1  538   2.119   1.404   2.870
 1954SOL    HW2  539   2.255   1.493   2.866
 1955SOL     OW  540   3.322   1.505   3.201
 1955SOL    HW1  541   3.346   1.599   3.227
 1955SOL    HW2  542   3.306   1.451   3.283
 1958SOL     OW  543   2.093   1.713   2.345
 1958SOL    HW1  544   2.127   1.790   2.399
 1958SOL    HW2  545   2.137   1.713   2.255
 1959SOL     OW  546   2.989   1.341   3.552
 1959SOL    HW1  547   3.036   1.341   3.640
 1959SOL    HW2  548   2.941   1.254   3.541
 1960SOL     OW  549   2.092   1.434   2.400
 1960SOL    HW1  550   2.066   1.530   2.400
 1960SOL    HW2  551   2.021   1.380   2.445
 1961SOL     OW  552   2.102   1.091   2.748
 1961SOL    HW1  553   2.116   1.007   2.800
 1961SOL    HW2  554   2.047   1.155   2.803
 1962SOL     OW  555   2.482   1.786   3.301
 1962SOL    HW1  556   2.390   1.769   3.336
 1962SOL    HW2  557   2.510   1.878   3.327
 1966SOL     OW  558   3.704   1.767   2.221
 1966SOL    HW1  559   3.758   1.738   2.301
 1966SOL    HW2  560   3.734   1.857   2.192
 1967SOL     OW  561   1.889   1.596   1.979
 1967SOL    HW1  562   1.870   1.500   2.000
 1967SOL    HW2  563   1.856   1.654   2.054
 1971SOL     OW  564   2.475   1.365   2.588
 1971SOL    HW1  565   2.426   1.278   2.597
 1971SOL    HW2  566   2.452   1.408   2.501
 1972SOL     OW  567   3.155   1.228   3.285
 1972SOL    HW1  568   3.192   1.155   3.227
 1972SOL    HW2  569   3.207   1.233   3.370
 1976SOL     OW  570   3.049   1.792   3.478
 1976SOL    HW1  571   3.073   1.852   3.402
 1976SOL    HW2  572   3.056   1.697   3.448
 1978SOL     OW  573   3.328   1.417   2.815
 1978SOL    HW1  574   3.269   1.423   2.895
 1978SOL    HW2  575   3.313   1.329   2.769
 1979SOL     OW  576   3.529   1.714   2.434
 1979SOL    HW1  577   3.488   1.691   2.346
 1979SOL    HW2  578   3.511   1.640   2.499
 1982SOL     OW  579   3.438   1.662   2.169
 1982SOL    HW1  580   3.527   1.708   2.172
 1982SOL    HW2  581   3.417   1.638   2.074
 1989SOL     OW  582   1.992   1.821   3.433
 1989SOL    HW1  583   1.982   1.806   3.532
 1989SOL    HW2  584   1.906   1.857   3.397
 1992SOL     OW  585   3.224   1.144   2.407
 1992SOL    HW1  586   3.307   1.115   2.359
 1992SOL    HW2  587   3.175   1.211   2.351
 1994SOL     OW  588   2.870   1.456   2.339
 1994SOL    HW1  589   2.824   1.528   2.287
 1994SOL    HW2  590   2.866   1.476   2.437
 1995SOL     OW  591   2.213   1.801   2.715
 1995SOL    HW1  592   2.263   1.715   2.721
 1995SOL    HW2  593   2.278   1.878   2.712
 1997SOL     OW  594   3.089   1.550   3.368
 1997SOL    HW1  595   3.095   1.473   3.432
 1997SOL    HW2  596   3.037   1.524   3.288
 2000SOL     OW  597   2.323   1.266   3.589
 2000SOL    HW1  598   2.273   1.267   3.503
 2000SOL    HW2  599   2.260   1.248   3.665
 2001SOL     OW  600   2.973   1.776   2.099
 2001SOL    HW1  601   2.913   1.714   2.149
 2001SOL    HW2  602   3.004   1.732   2.014
 2003SOL     OW  603   3.494   1.377   1.943
 2003SOL    HW1  604   3.462   1.471   1.933
 2003SOL    HW2  605   3.418   1.314   1.931
 2004SOL     OW  606   2.326   1.743   2.185
 2004SOL    HW1  607   2.359   1.782   2.271
 2004SOL    HW2  608   2.402   1.736   2.120
 2006SOL     OW  609   2.111   1.785   3.103
 2006SOL    HW1  610   2.168   1.720   3.153
 2006SOL    HW2  611   2.095   1.752   3.010
 2007SOL     OW  612   2.802   1.698   2.766
 2007SOL    HW1  613   2.882   1.641   2.787
 2007SOL    HW2  614   2.753   1.658   2.689
 2012SOL     OW  615   2.750   1.514   3.057
 2012SOL    HW1  616   2.727   1.489   2.963
 2012SOL    HW2  617   2.811   1.445   3.096
 2014SOL     OW  618   2.665   1.402   2.786
 2014SOL    HW1  619   2.755   1.416   2.744
 2014SOL    HW2  620   2.594   1.404   2.715
 2017SOL     OW  621   3.296   1.188   1.903
 2017SOL    HW1  622   3.328   1.112   1.960
 2017SOL    HW2  623   3.204   1.215   1.933
 2021SOL     OW  624   3.089   1.570   2.655
 2021SOL    HW1  625   3.110   1.644   2.590
 2021SOL    HW2  626   3.157   1.570   2.728
 2022SOL     OW  627   2.321   1.152   2.603
 2022SOL    HW1  628   2.250   1.125   2.668
 2022SOL    HW2  629   2.295   1.124   2.510
 2023SOL     OW  630   3.133   1.797   2.453
 2023SOL    HW1  631   3.177   1.861   2.389
 2023SOL    HW2  632   3.083   1.849   2.523
 2029SOL     OW  633   3.291   1.173   2.729
 2029SOL    HW1  634   3.236   1.089   2.722
 2029SOL    HW2  635   3.317   1.202   2.637
 2032SOL     OW  636   2.350   1.385   2.036
 2032SOL    HW1  637   2.263   1.370   2.083
 2032SOL    HW2  638   2.333   1.411   1.941
 2033SOL     OW  639   3.526   1.280   2.519
 2033SOL    HW1  640   3.625   1.288   2.533
 2033SOL    HW2  641   3.481   1.364   2.550
 2037SOL     OW  642   2.926   1.347   3.202
 2037SOL    HW1  643   2.846   1.324   3.257
 2037SOL    HW2  644   3.009   1.321   3.251
 2038SOL     OW  645   3.454   1.629   3.487
 2038SOL    HW1  646   3.481   1.663   3.397
 2038SOL    HW2  647   3.533   1.591   3.533
 2039SOL     OW  648   2.973   1.195   2.962
 2039SOL    HW1  649   2.933   1.239   3.043
 2039SOL    HW2  650   2.932   1.232   2.879
 2040SOL     OW  651   3.500   1.099   2.941
 2040SOL    HW1  652   3.505   1.180   3.000
 2040SOL    HW2  653   3.414   1.101   2.890
 2043SOL     OW  654   2.567   1.050   2.230
 2043SOL    HW1  655   2.553   1.057   2.329
 2043SOL    HW2  656   2.651   0.999   2.212
 2046SOL     OW  657   1.926   1.564   3.193
 2046SOL    HW1  658   1.880   1.646   3.159
 2046SOL    HW2  659   2.024   1.583   3.202
 2047SOL     OW  660   2.229   1.100   2.363
 2047SOL    HW1  661   2.222   1.183   2.307
 2047SOL    HW2  662   2.233   1.020   2.303
 2049SOL     OW  663   3.114   1.348   2.250
 2049SOL    HW1  664   3.164   1.425   2.290
 2049SOL    HW2  665   3.019   1.350   2.282
 2050SOL     OW  666   3.134   1.445   3.004
 2050SOL    HW1  667   3.181   1.458   3.091
 2050SOL    HW2  668   3.068   1.371   3.013
 2052SOL     OW  669   2.216   1.510   3.191
 2052SOL    HW1  670   2.195   1.466   3.104
 2052SOL    HW2  671   2.313   1.536   3.194
 2061SOL     OW  672   1.899   1.310   3.144
 2061SOL    HW1  673   1.952   1.261   3.212
 2061SOL    HW2  674   1.921   1.408   3.149
 2067SOL     OW  675   2.842   1.573   3.562
 2067SOL    HW1  676   2.822   1.617   3.474
 2067SOL    HW2  677   2.881   1.482   3.546
 2068SOL     OW  678   3.721   1.518   3.467
 2068SOL    HW1  679   3.735   1.545   3.372
 2068SOL    HW2  680   3.804   1.540   3.520
 2072SOL     OW  681   2.930   1.333   2.711
 2072SOL    HW1  682   2.937   1.249   2.656
 2072SOL    HW2  683   2.992   1.402   2.675
 2077SOL     OW  684   1.870   1.326   2.062
 2077SOL    HW1  685   1.777   1.347   2.031
 2077SOL    HW2  686   1.880   1.227   2.075
 2078SOL     OW  687   1.950   1.801   2.789
 2078SOL    HW1  688   1.908   1.715   2.762
 2078SOL    HW2  689   2.044   1.804   2.755
 2079SOL     OW  690   2.366   1.568   2.772
 2079SOL    HW1  691   2.432   1.642   2.781
 2079SOL    HW2  692   2.410   1.489   2.730
 2086SOL     OW  693   2.114   1.564   3.606
 2086SOL    HW1  694   2.084   1.621   3.682
 2086SOL    HW2  695   2.107   1.467   3.632
 2088SOL     OW  696   2.792   1.678   3.327
 2088SOL    HW1  697   2.768   1.660   3.232
 2088SOL    HW2  698   2.822   1.772   3.337
 2090SOL     OW  699   2.021   1.137   3.328
 2090SOL    HW1  700   2.043   1.076   3.404
 2090SOL    HW2  701   2.031   1.088   3.242
 2091SOL     OW  702   3.209   1.059   3.096
 2091SOL    HW1  703   3.233   0.996   3.022
 2091SOL    HW2  704   3.119   1.099   3.078
 2093SOL     OW  705   3.621   1.747   3.016
 2093SOL    HW1  706   3.682   1.777   2.943
 2093SOL    HW2  707   3.583   1.658   2.994
 2094SOL     OW  708   3.114   1.731   2.990
 2094SOL    HW1  709   3.198   1.736   2.936
 2094SOL    HW2  710   3.091   1.635   3.008
 2095SOL     OW  711   1.945   1.258   2.884
 2095SOL    HW1  712   1.940   1.257   2.984
 2095SOL    HW2  713   1.862   1.217   2.846
 2096SOL     OW  714   2.550   1.662   3.578
 2096SOL    HW1  715   2.494   1.743   3.587
 2096SOL    HW2  716   2.602   1.666   3.492
 2098SOL     OW  717   3.250   1.573   2.339
 2098SOL    HW1  718   3.317   1.585   2.265
 2098SOL    HW2  719   3.210   1.662   2.362
 2099SOL     OW  720   1.992   1.794   3.713
 2099SOL    HW1  721   1.951   1.720   3.766
 2099SOL    HW2  722   2.056   1.845   3.771
 2101SOL     OW  723   2.692   1.273   3.284
 2101SOL    HW1  724   2.687   1.306   3.379
 2101SOL    HW2  725   2.606   1.292   3.238
 2102SOL     OW  726   2.534   1.616   2.016
 2102SOL    HW1  727   2.543   1.626   1.917
 2102SOL    HW2  728   2.494   1.527   2.037
 2103SOL     OW  729   3.512   1.720   3.256
 2103SOL    HW1  730   3.565   1.730   3.172
 2103SOL    HW2  731   3.485   1.810   3.290
 2106SOL     OW  732   3.056   1.612   1.893
 2106SOL    HW1  733   3.062   1.519   1.930
 2106SOL    HW2  734   2.997   1.612   1.813
 2107SOL     OW  735   2.684   1.002   3.234
 2107SOL    HW1  736   2.724   1.001   3.142
 2107SOL    HW2  737   2.694   1.094   3.274
 2109SOL     OW  738   3.366   1.607   1.906
 2109SOL    HW1  739   3.274   1.644   1.913
 2109SOL    HW2  740   3.404   1.627   1.816
 2110SOL     OW  741   2.234   1.288   3.352
 2110SOL    HW1  742   2.221   1.381   3.318
 2110SOL    HW2  743   2.150   1.236   3.339
 2111SOL     OW  744   3.476   1.292   3.151
 2111SOL    HW1  745   3.536   1.295   3.231
 2111SOL    HW2  746   3.401   1.356   3.164
 2112SOL     OW  747   2.901   1.098   2.558
 2112SOL    HW1  748   2.831   1.051   2.612
 2112SOL    HW2  749   2.960   1.030   2.515
 2114SOL     OW  750   2.452   1.487   2.353
 2114SOL    HW1  751   2.494   1.429   2.283
 2114SOL    HW2  752   2.408   1.566   2.309
 2116SOL     OW  753   2.117   1.348   2.152
 2116SOL    HW1  754   2.021   1.349   2.125
 2116SOL    HW2  755   2.129   1.401   2.236
 2122SOL     OW  756   3.045   1.335   1.981
 2122SOL    HW1  757   2.946   1.324   1.983
 2122SOL    HW2  758   3.079   1.350   2.074
 2124SOL     OW  759   3.355   1.767   2.821
 2124SOL    HW1  760   3.388   1.831   2.752
 2124SOL    HW2  761   3.421   1.761   2.896
 2126SOL     OW  762   3.312   1.220   3.495
 2126SOL    HW1  763   3.303   1.210   3.594
 2126SOL    HW2  764   3.408   1.213   3.469
 2127SOL     OW  765   2.252   1.741   3.422
 2127SOL    HW1  766   2.161   1.782   3.420
 2127SOL    HW2  767   2.245   1.647   3.454
 2133SOL     OW  768   2.721   1.374   1.878
 2133SOL    HW1  769   2.675   1.389   1.966
 2133SOL    HW2  770   2.765   1.459   1.848
 2134SOL     OW  771   2.523   1.790   2.815
 2134SOL    HW1  772   2.477   1.878   2.802
 2134SOL    HW2  773   2.622   1.802   2.808
 2135SOL     OW  774   2.721   0.956   2.723
 2135SOL    HW1  775   2.775   0.887   2.771
 2135SOL    HW2  776   2.689   1.025   2.789
 2137SOL     OW  777   3.723   1.569   2.713
 2137SOL    HW1  778   3.652   1.557   2.643
 2137SOL    HW2  779   3.724   1.490   2.773
 2138SOL     OW  780   2.083   1.314   3.706
 2138SOL    HW1  781   2.018   1.241   3.685
 2138SOL    HW2  782   2.087   1.328   3.804
 2139SOL     OW  783   1.941   1.240   2.515
 2139SOL    HW1  784   1.940   1.193   2.603
 2139SOL    HW2  785   2.023   1.212   2.464
 2140SOL     OW  786   2.534   1.391   3.486
 2140SOL    HW1  787   2.456   1.341   3.524
 2140SOL    HW2  788   2.531   1.486   3.517
 2143SOL     OW  789   3.567   1.487   2.966
 2143SOL    HW1  790   3.474   1.462   2.939
 2143SOL    HW2  791   3.593   1.437   3.048
 2145SOL     OW  792   2.674   1.586   2.549
 2145SOL    HW1  793   2.706   1.596   2.455
 2145SOL    HW2  794   2.595   1.524   2.551
 2148SOL     OW  795   2.632   1.330   2.163
 2148SOL    HW1  796   2.586   1.243   2.180
 2148SOL    HW2  797   2.723   1.327   2.204
 2149SOL     OW  798   2.480   1.567   3.146
 2149SOL    HW1  799   2.475   1.649   3.203
 2149SOL    HW2  800   2.569   1.564   3.101
 2154SOL     OW  801   2.737   1.646   2.199
 2154SOL    HW1  802   2.660   1.611   2.145
 2154SOL    HW2  803   2.705   1.717   2.261
 2176SOL     OW  804   1.889   1.596   3.841
 2176SOL    HW1  805   1.870   1.500   3.862
 2176SOL    HW2  806   1.856   1.654   3.916
 2203SOL     OW  807   2.973   1.776   3.961
 2203SOL    HW1  808   2.913   1.714   4.011
 2203SOL    HW2  809   3.004   1.732   3.876
 2206SOL     OW  810   2.326   1.743   4.047
 2206SOL    HW1  811   2.359   1.782   4.133
 2206SOL    HW2  812   2.402   1.736   3.982
 2289SOL     OW  813   2.534   1.616   3.878
 2289SOL    HW1  814   2.543   1.626   3.779
 2289SOL    HW2  815   2.494   1.527   3.899
 2293SOL     OW  816   3.056   1.612   3.755
 2293SOL    HW1  817   3.062   1.519   3.792
 2293SOL    HW2  818   2.997   1.612   3.675
 2296SOL     OW  819   3.366   1.607   3.768
 2296SOL    HW1  820   3.274   1.644   3.775
 2296SOL    HW2  821   3.404   1.627   3.678
 2317SOL     OW  822   2.721   1.374   3.740
 2317SOL    HW1  823   2.675   1.389   3.828
 2317SOL    HW2  824   2.765   1.459   3.710
 2336SOL     OW  825   2.737   1.646   4.061
 2336SOL    HW1  826   2.660   1.611   4.007
 2336SOL    HW2  827   2.705   1.717   4.123
 2340SOL     OW  828   2.431   3.137   1.165
 2340SOL    HW1  829   2.338   3.130   1.128
 2340SOL    HW2  830   2.442   3.226   1.209
 2344SOL     OW  831   2.630   3.006   1.023
 2344SOL    HW1  832   2.552   3.023   1.083
 2344SOL    HW2  833   2.664   3.093   0.987
 2345SOL     OW  834   2.712   2.660   1.823
 2345SOL    HW1  835   2.708   2.736   1.888
 2345SOL    HW2  836   2.734   2.696   1.732
 2347SOL     OW  837   2.548   3.023   1.803
 2347SOL    HW1  838   2.608   3.102   1.817
 2347SOL    HW2  839   2.462   3.054   1.762
 2348SOL     OW  840   2.197   3.297   1.061
 2348SOL    HW1  841   2.119   3.266   1.008
 2348SOL    HW2  842   2.255   3.355   1.004
 2349SOL     OW  843   3.322   3.367   1.339
 2349SOL    HW1  844   3.346   3.461   1.365
 2349SOL    HW2  845   3.306   3.313   1.421
 2350SOL     OW  846   2.300   2.254   1.499
 2350SOL    HW1  847   2.382   2.198   1.508
 2350SOL    HW2  848   2.219   2.196   1.503
 2353SOL     OW  849   2.989   3.203   1.690
 2353SOL    HW1  850   3.036   3.203   1.778
 2353SOL    HW2  851   2.941   3.116   1.679
 2356SOL     OW  852   2.482   3.648   1.439
 2356SOL    HW1  853   2.390   3.631   1.474
 2356SOL    HW2  854   2.510   3.740   1.465
 2358SOL     OW  855   3.456   1.976   1.480
 2358SOL    HW1  856   3.438   2.043   1.408
 2358SOL    HW2  857   3.453   2.022   1.569
 2364SOL     OW  858   1.975   2.599   1.597
 2364SOL    HW1  859   2.063   2.586   1.642
 2364SOL    HW2  860   1.962   2.696   1.575
 2366SOL     OW  861   3.155   3.090   1.423
 2366SOL    HW1  862   3.192   3.017   1.365
 2366SOL    HW2  863   3.207   3.095   1.508
 2368SOL     OW  864   2.059   2.838   1.264
 2368SOL    HW1  865   2.148   2.793   1.250
 2368SOL    HW2  866   1.986   2.773   1.245
 2370SOL     OW  867   3.049   3.654   1.616
 2370SOL    HW1  868   3.073   3.714   1.540
 2370SOL    HW2  869   3.056   3.559   1.586
 2371SOL     OW  870   2.179   2.113   1.801
 2371SOL    HW1  871   2.250   2.184   1.807
 2371SOL    HW2  872   2.091   2.152   1.829
 2377SOL     OW  873   2.669   2.467   1.465
 2377SOL    HW1  874   2.622   2.464   1.554
 2377SOL    HW2  875   2.618   2.412   1.399
 2378SOL     OW  876   3.256   2.331   1.674
 2378SOL    HW1  877   3.236   2.374   1.762
 2378SOL    HW2  878   3.334   2.269   1.683
 2379SOL     OW  879   2.835   2.752   1.572
 2379SOL    HW1  880   2.881   2.668   1.543
 2379SOL    HW2  881   2.779   2.786   1.497
 2380SOL     OW  882   2.853   2.272   1.242
 2380SOL    HW1  883   2.776   2.306   1.296
 2380SOL    HW2  884   2.819   2.221   1.163
 2383SOL     OW  885   1.992   3.683   1.571
 2383SOL    HW1  886   1.982   3.668   1.670
 2383SOL    HW2  887   1.906   3.719   1.535
 2385SOL     OW  888   3.581   2.447   1.831
 2385SOL    HW1  889   3.555   2.536   1.795
 2385SOL    HW2  890   3.579   2.379   1.758
 2391SOL     OW  891   3.089   3.412   1.506
 2391SOL    HW1  892   3.095   3.335   1.570
 2391SOL    HW2  893   3.037   3.386   1.426
 2394SOL     OW  894   2.323   3.128   1.727
 2394SOL    HW1  895   2.273   3.129   1.641
 2394SOL    HW2  896   2.260   3.110   1.803
 2396SOL     OW  897   2.064   2.147   1.498
 2396SOL    HW1  898   1.984   2.207   1.485
 2396SOL    HW2  899   2.054   2.098   1.584
 2403SOL     OW  900   3.409   2.084   1.729
 2403SOL    HW1  901   3.404   2.121   1.821
 2403SOL    HW2  902   3.337   2.015   1.717
 2405SOL     OW  903   2.643   2.126   1.749
 2405SOL    HW1  904   2.710   2.065   1.792
 2405SOL    HW2  905   2.570   2.145   1.814
 2406SOL     OW  906   2.750   3.376   1.195
 2406SOL    HW1  907   2.727   3.351   1.101
 2406SOL    HW2  908   2.811   3.307   1.234
 2407SOL     OW  909   3.213   2.452   1.433
 2407SOL    HW1  910   3.241   2.409   1.518
 2407SOL    HW2  911   3.238   2.548   1.434
 2409SOL     OW  912   2.784   2.365   0.899
 2409SOL    HW1  913   2.759   2.356   0.803
 2409SOL    HW2  914   2.832   2.283   0.930
 2414SOL     OW  915   2.938   2.545   1.464
 2414SOL    HW1  916   2.858   2.484   1.467
 2414SOL    HW2  917   3.019   2.492   1.440
 2419SOL     OW  918   1.940   2.418   1.386
 2419SOL    HW1  919   2.032   2.417   1.345
 2419SOL    HW2  920   1.934   2.492   1.453
 2420SOL     OW  921   2.423   2.084   1.147
 2420SOL    HW1  922   2.461   2.000   1.184
 2420SOL    HW2  923   2.335   2.103   1.191
 2430SOL     OW  924   3.616   3.085   1.588
 2430SOL    HW1  925   3.707   3.046   1.575
 2430SOL    HW2  926   3.624   3.181   1.612
 2431SOL     OW  927   2.926   3.209   1.340
 2431SOL    HW1  928   2.846   3.186   1.395
 2431SOL    HW2  929   3.009   3.183   1.389
 2432SOL     OW  930   3.454   3.491   1.625
 2432SOL    HW1  931   3.481   3.525   1.535
 2432SOL    HW2  932   3.533   3.453   1.671
 2433SOL     OW  933   2.973   3.057   1.100
 2433SOL    HW1  934   2.933   3.101   1.181
 2433SOL    HW2  935   2.932   3.094   1.017
 2435SOL     OW  936   2.777   1.951   1.402
 2435SOL    HW1  937   2.802   1.931   1.307
 2435SOL    HW2  938   2.849   2.007   1.444
 2436SOL     OW  939   2.842   2.978   1.719
 2436SOL    HW1  940   2.743   2.984   1.729
 2436SOL    HW2  941   2.865   2.898   1.663
 2438SOL     OW  942   2.272   2.675   1.251
 2438SOL    HW1  943   2.358   2.687   1.301
 2438SOL    HW2  944   2.230   2.588   1.278
 2439SOL     OW  945   3.136   2.248   1.262
 2439SOL    HW1  946   3.157   2.322   1.326
 2439SOL    HW2  947   3.047   2.265   1.219
 2440SOL     OW  948   1.926   3.426   1.331
 2440SOL    HW1  949   1.880   3.508   1.297
 2440SOL    HW2  950   2.024   3.445   1.340
 2444SOL     OW  951   3.134   3.307   1.142
 2444SOL    HW1  952   3.181   3.320   1.229
 2444SOL    HW2  953   3.068   3.233   1.151
 2446SOL     OW  954   2.216   3.372   1.329
 2446SOL    HW1  955   2.195   3.328   1.242
 2446SOL    HW2  956   2.313   3.398   1.332
 2447SOL     OW  957   2.264   2.613   1.598
 2447SOL    HW1  958   2.332   2.668   1.551
 2447SOL    HW2  959   2.304   2.525   1.625
 2448SOL     OW  960   3.449   2.641   1.670
 2448SOL    HW1  961   3.357   2.679   1.665
 2448SOL    HW2  962   3.509   2.688   1.605
 2449SOL     OW  963   2.875   1.967   1.770
 2449SOL    HW1  964   2.881   2.052   1.718
 2449SOL    HW2  965   2.907   1.891   1.713
 2450SOL     OW  966   2.366   1.912   1.740
 2450SOL    HW1  967   2.324   1.855   1.670
 2450SOL    HW2  968   2.300   1.981   1.772
 2451SOL     OW  969   2.435   2.732   1.029
 2451SOL    HW1  970   2.479   2.821   1.020
 2451SOL    HW2  971   2.372   2.732   1.106
 2452SOL     OW  972   3.222   2.724   1.045
 2452SOL    HW1  973   3.147   2.724   0.979
 2452SOL    HW2  974   3.259   2.632   1.054
 2454SOL     OW  975   2.169   2.075   1.231
 2454SOL    HW1  976   2.146   2.112   1.321
 2454SOL    HW2  977   2.139   1.980   1.225
 2455SOL     OW  978   1.899   3.172   1.282
 2455SOL    HW1  979   1.952   3.123   1.350
 2455SOL    HW2  980   1.921   3.270   1.287
 2456SOL     OW  981   2.594   2.496   1.064
 2456SOL    HW1  982   2.653   2.470   0.988
 2456SOL    HW2  983   2.566   2.592   1.053
 2457SOL     OW  984   3.590   2.797   1.854
 2457SOL    HW1  985   3.544   2.790   1.765
 2457SOL    HW2  986   3.528   2.841   1.920
 2460SOL     OW  987   2.885   2.628   0.966
 2460SOL    HW1  988   2.900   2.649   1.062
 2460SOL    HW2  989   2.855   2.533   0.957
 2461SOL     OW  990   2.842   3.435   1.700
 2461SOL    HW1  991   2.822   3.479   1.612
 2461SOL    HW2  992   2.881   3.344   1.684
 2462SOL     OW  993   3.721   3.380   1.605
 2462SOL    HW1  994   3.735   3.407   1.510
 2462SOL    HW2  995   3.804   3.402   1.658
 2463SOL     OW  996   2.212   2.760   1.804
 2463SOL    HW1  997   2.288   2.804   1.852
 2463SOL    HW2  998   2.247   2.713   1.722
 2467SOL     OW  999   2.181   2.672   0.949
 2467SOL    HW1 1000   2.274   2.708   0.954
 2467SOL    HW2 1001   2.175   2.587   1.001
 2468SOL     OW 1002   2.201   2.371   1.006
 2468SOL    HW1 1003   2.149   2.288   0.989
 2468SOL    HW2 1004   2.278   2.376   0.942
 2469SOL     OW 1005   3.000   2.242   1.678
 2469SOL    HW1 1006   2.955   2.305   1.742
 2469SOL    HW2 1007   3.093   2.273   1.661
 2470SOL     OW 1008   3.022   2.069   1.477
 2470SOL    HW1 1009   3.022   2.133   1.554
 2470SOL    HW2 1010   3.050   2.117   1.394
 2474SOL     OW 1011   2.864   2.658   1.238
 2474SOL    HW1 1012   2.905   2.626   1.324
 2474SOL    HW2 1013   2.768   2.631   1.235
 2475SOL     OW 1014   1.902   2.406   1.114
 2475SOL    HW1 1015   1.987   2.373   1.073
 2475SOL    HW2 1016   1.915   2.421   1.212
 2476SOL     OW 1017   2.051   2.382   1.722
 2476SOL    HW1 1018   2.110   2.342   1.652
 2476SOL    HW2 1019   1.993   2.453   1.681
 2477SOL     OW 1020   3.231   2.812   1.660
 2477SOL    HW1 1021   3.270   2.901   1.680
 2477SOL    HW2 1022   3.241   2.792   1.563
 2479SOL     OW 1023   3.519   2.466   1.206
 2479SOL    HW1 1024   3.481   2.397   1.268
 2479SOL    HW2 1025   3.601   2.430   1.162
 2480SOL     OW 1026   2.114   3.426   1.744
 2480SOL    HW1 1027   2.084   3.483   1.820
 2480SOL    HW2 1028   2.107   3.329   1.770
 2481SOL     OW 1029   2.533   2.326   1.269
 2481SOL    HW1 1030   2.499   2.237   1.239
 2481SOL    HW2 1031   2.559   2.380   1.189
 2482SOL     OW 1032   2.792   3.540   1.465
 2482SOL    HW1 1033   2.768   3.522   1.370
 2482SOL    HW2 1034   2.822   3.634   1.475
 2484SOL     OW 1035   2.021   2.999   1.466
 2484SOL    HW1 1036   2.043   2.938   1.542
 2484SOL    HW2 1037   2.031   2.950   1.380
 2485SOL     OW 1038   3.209   2.921   1.234
 2485SOL    HW1 1039   3.233   2.858   1.160
 2485SOL    HW2 1040   3.119   2.961   1.216
 2490SOL     OW 1041   2.550   3.524   1.716
 2490SOL    HW1 1042   2.494   3.605   1.725
 2490SOL    HW2 1043   2.602   3.528   1.630
 2494SOL     OW 1044   1.992   3.656   1.851
 2494SOL    HW1 1045   1.951   3.582   1.904
 2494SOL    HW2 1046   2.056   3.707   1.909
 2496SOL     OW 1047   2.692   3.135   1.422
 2496SOL    HW1 1048   2.687   3.168   1.517
 2496SOL    HW2 1049   2.606   3.154   1.376
 2498SOL     OW 1050   3.512   3.582   1.394
 2498SOL    HW1 1051   3.565   3.592   1.310
 2498SOL    HW2 1052   3.485   3.672   1.428
 2502SOL     OW 1053   2.684   2.864   1.372
 2502SOL    HW1 1054   2.724   2.863   1.280
 2502SOL    HW2 1055   2.694   2.956   1.412
 2505SOL     OW 1056   2.234   3.150   1.490
 2505SOL    HW1 1057   2.221   3.243   1.456
 2505SOL    HW2 1058   2.150   3.098   1.477
 2506SOL     OW 1059   3.476   3.154   1.289
 2506SOL    HW1 1060   3.536   3.157   1.369
 2506SOL    HW2 1061   3.401   3.218   1.302
 2508SOL     OW 1062   2.876   2.098   0.971
 2508SOL    HW1 1063   2.868   2.062   0.878
 2508SOL    HW2 1064   2.874   2.022   1.036
 2510SOL     OW 1065   3.571   2.247   1.381
 2510SOL    HW1 1066   3.644   2.316   1.385
 2510SOL    HW2 1067   3.599   2.172   1.322
 2512SOL     OW 1068   1.967   2.875   1.726
 2512SOL    HW1 1069   1.890   2.842   1.780
 2512SOL    HW2 1070   2.052   2.845   1.768
 2513SOL     OW 1071   2.534   2.065   1.489
 2513SOL    HW1 1072   2.624   2.049   1.449
 2513SOL    HW2 1073   2.542   2.070   1.588
 2514SOL     OW 1074   3.302   2.718   1.398
 2514SOL    HW1 1075   3.245   2.770   1.335
 2514SOL    HW2 1076   3.398   2.730   1.374
 2517SOL     OW 1077   2.475   2.704   1.431
 2517SOL    HW1 1078   2.531   2.785   1.414
 2517SOL    HW2 1079   2.534   2.624   1.434
 2519SOL     OW 1080   2.578   2.427   1.708
 2519SOL    HW1 1081   2.597   2.492   1.782
 2519SOL    HW2 1082   2.638   2.347   1.717
 2520SOL     OW 1083   3.312   3.082   1.633
 2520SOL    HW1 1084   3.303   3.072   1.732
 2520SOL    HW2 1085   3.408   3.075   1.607
 2521SOL     OW 1086   2.252   3.603   1.560
 2521SOL    HW1 1087   2.161   3.644   1.558
 2521SOL    HW2 1088   2.245   3.509   1.592
 2522SOL     OW 1089   3.536   2.745   1.254
 2522SOL    HW1 1090   3.509   2.656   1.217
 2522SOL    HW2 1091   3.537   2.813   1.181
 2525SOL     OW 1092   3.639   2.204   1.642
 2525SOL    HW1 1093   3.622   2.235   1.548
 2525SOL    HW2 1094   3.555   2.167   1.680
 2526SOL     OW 1095   3.592   2.796   1.517
 2526SOL    HW1 1096   3.630   2.887   1.532
 2526SOL    HW2 1097   3.584   2.779   1.418
 2532SOL     OW 1098   2.083   3.176   1.844
 2532SOL    HW1 1099   2.018   3.103   1.823
 2532SOL    HW2 1100   2.087   3.190   1.942
 2534SOL     OW 1101   2.534   3.253   1.624
 2534SOL    HW1 1102   2.456   3.203   1.662
 2534SOL    HW2 1103   2.531   3.348   1.655
 2538SOL     OW 1104   2.179   2.409   1.280
 2538SOL    HW1 1105   2.217   2.350   1.352
 2538SOL    HW2 1106   2.219   2.383   1.192
 2540SOL     OW 1107   3.286   2.076   1.112
 2540SOL    HW1 1108   3.338   2.011   1.167
 2540SOL    HW2 1109   3.237   2.139   1.173
 2541SOL     OW 1110   2.863   1.896   1.154
 2541SOL    HW1 1111   2.800   1.824   1.123
 2541SOL    HW2 1112   2.956   1.860   1.154
 2543SOL     OW 1113   2.480   3.429   1.284
 2543SOL    HW1 1114   2.475   3.511   1.341
 2543SOL    HW2 1115   2.569   3.426   1.239
 2549SOL     OW 1116   2.092   2.490   1.975
 2549SOL    HW1 1117   1.999   2.488   2.012
 2549SOL    HW2 1118   2.093   2.451   1.883
 2550SOL     OW 1119   2.087   2.137   2.858
 2550SOL    HW1 1120   2.122   2.120   2.950
 2550SOL    HW2 1121   1.999   2.092   2.846
 2551SOL     OW 1122   1.881   2.230   2.509
 2551SOL    HW1 1123   1.799   2.273   2.548
 2551SOL    HW2 1124   1.853   2.157   2.446
 2552SOL     OW 1125   2.431   3.137   3.027
 2552SOL    HW1 1126   2.338   3.130   2.990
 2552SOL    HW2 1127   2.442   3.226   3.071
 2553SOL     OW 1128   3.417   3.373   2.565
 2553SOL    HW1 1129   3.360   3.357   2.646
 2553SOL    HW2 1130   3.358   3.383   2.485
 2554SOL     OW 1131   2.997   2.565   2.579
 2554SOL    HW1 1132   3.054   2.643   2.554
 2554SOL    HW2 1133   2.937   2.591   2.655
 2555SOL     OW 1134   3.617   2.469   2.093
 2555SOL    HW1 1135   3.605   2.456   1.994
 2555SOL    HW2 1136   3.587   2.388   2.142
 2556SOL     OW 1137   2.630   3.006   2.885
 2556SOL    HW1 1138   2.552   3.023   2.945
 2556SOL    HW2 1139   2.664   3.093   2.849
 2557SOL     OW 1140   2.712   2.660   3.685
 2557SOL    HW1 1141   2.708   2.736   3.750
 2557SOL    HW2 1142   2.734   2.696   3.594
 2558SOL     OW 1143   2.548   3.023   3.665
 2558SOL    HW1 1144   2.608   3.102   3.679
 2558SOL    HW2 1145   2.462   3.054   3.624
 2559SOL     OW 1146   2.197   3.297   2.923
 2559SOL    HW1 1147   2.119   3.266   2.870
 2559SOL    HW2 1148   2.255   3.355   2.866
 2560SOL     OW 1149   3.322   3.367   3.201
 2560SOL    HW1 1150   3.346   3.461   3.227
 2560SOL    HW2 1151   3.306   3.313   3.283
 2561SOL     OW 1152   2.300   2.254   3.361
 2561SOL    HW1 1153   2.382   2.198   3.370
 2561SOL    HW2 1154   2.219   2.196   3.365
 2562SOL     OW 1155   3.465   2.309   2.599
 2562SOL    HW1 1156   3.391   2.355   2.549
 2562SOL    HW2 1157   3.516   2.377   2.652
 2563SOL     OW 1158   2.093   3.575   2.345
 2563SOL    HW1 1159   2.127   3.652   2.399
 2563SOL    HW2 1160   2.137   3.575   2.255
 2564SOL     OW 1161   2.989   3.203   3.552
 2564SOL    HW1 1162   3.036   3.203   3.640
 2564SOL    HW2 1163   2.941   3.116   3.541
 2565SOL     OW 1164   2.092   3.296   2.400
 2565SOL    HW1 1165   2.066   3.392   2.400
 2565SOL    HW2 1166   2.021   3.242   2.445
 2566SOL     OW 1167   2.102   2.953   2.748
 2566SOL    HW1 1168   2.116   2.869   2.800
 2566SOL    HW2 1169   2.047   3.017   2.803
 2567SOL     OW 1170   2.482   3.648   3.301
 2567SOL    HW1 1171   2.390   3.631   3.336
 2567SOL    HW2 1172   2.510   3.740   3.327
 2568SOL     OW 1173   2.468   2.826   1.985
 2568SOL    HW1 1174   2.475   2.910   1.931
 2568SOL    HW2 1175   2.514   2.839   2.073
 2569SOL     OW 1176   3.456   1.976   3.342
 2569SOL    HW1 1177   3.438   2.043   3.270
 2569SOL    HW2 1178   3.453   2.022   3.431
 2570SOL     OW 1179   1.984   2.505   2.425
 2570SOL    HW1 1180   1.939   2.417   2.442
 2570SOL    HW2 1181   1.983   2.559   2.509
 2571SOL     OW 1182   3.704   3.629   2.221
 2571SOL    HW1 1183   3.758   3.600   2.301
 2571SOL    HW2 1184   3.734   3.719   2.192
 2572SOL     OW 1185   1.889   3.458   1.979
 2572SOL    HW1 1186   1.870   3.362   2.000
 2572SOL    HW2 1187   1.856   3.516   2.054
 2573SOL     OW 1188   3.551   2.784   2.474
 2573SOL    HW1 1189   3.646   2.755   2.482
 2573SOL    HW2 1190   3.543   2.849   2.399
 2574SOL     OW 1191   3.503   2.970   2.294
 2574SOL    HW1 1192   3.589   2.972   2.242
 2574SOL    HW2 1193   3.517   3.017   2.382
 2575SOL     OW 1194   1.975   2.599   3.459
 2575SOL    HW1 1195   2.063   2.586   3.504
 2575SOL    HW2 1196   1.962   2.696   3.437
 2576SOL     OW 1197   2.475   3.227   2.588
 2576SOL    HW1 1198   2.426   3.140   2.597
 2576SOL    HW2 1199   2.452   3.270   2.501
 2577SOL     OW 1200   3.155   3.090   3.285
 2577SOL    HW1 1201   3.192   3.017   3.227
 2577SOL    HW2 1202   3.207   3.095   3.370
 2578SOL     OW 1203   2.671   1.866   2.364
 2578SOL    HW1 1204   2.711   1.957   2.355
 2578SOL    HW2 1205   2.571   1.874   2.370
 2579SOL     OW 1206   2.059   2.838   3.126
 2579SOL    HW1 1207   2.148   2.793   3.112
 2579SOL    HW2 1208   1.986   2.773   3.107
 2580SOL     OW 1209   3.387   2.861   2.052
 2580SOL    HW1 1210   3.324   2.785   2.065
 2580SOL    HW2 1211   3.435   2.879   2.138
 2581SOL     OW 1212   3.049   3.654   3.478
 2581SOL    HW1 1213   3.073   3.714   3.402
 2581SOL    HW2 1214   3.056   3.559   3.448
 2582SOL     OW 1215   2.179   2.113   3.663
 2582SOL    HW1 1216   2.250   2.184   3.669
 2582SOL    HW2 1217   2.091   2.152   3.691
 2583SOL     OW 1218   3.328   3.279   2.815
 2583SOL    HW1 1219   3.269   3.285   2.895
 2583SOL    HW2 1220   3.313   3.191   2.769
 2584SOL     OW 1221   3.529   3.576   2.434
 2584SOL    HW1 1222   3.488   3.553   2.346
 2584SOL    HW2 1223   3.511   3.502   2.499
 2585SOL     OW 1224   2.460   2.591   2.132
 2585SOL    HW1 1225   2.484   2.660   2.064
 2585SOL    HW2 1226   2.382   2.624   2.186
 2586SOL     OW 1227   3.143   2.207   2.806
 2586SOL    HW1 1228   3.057   2.157   2.793
 2586SOL    HW2 1229   3.205   2.153   2.862
 2587SOL     OW 1230   3.438   3.524   2.169
 2587SOL    HW1 1231   3.527   3.570   2.172
 2587SOL    HW2 1232   3.417   3.500   2.074
 2588SOL     OW 1233   2.669   2.467   3.327
 2588SOL    HW1 1234   2.622   2.464   3.416
 2588SOL    HW2 1235   2.618   2.412   3.261
 2589SOL     OW 1236   3.256   2.331   3.536
 2589SOL    HW1 1237   3.236   2.374   3.624
 2589SOL    HW2 1238   3.334   2.269   3.545
 2590SOL     OW 1239   2.835   2.752   3.434
 2590SOL    HW1 1240   2.881   2.668   3.405
 2590SOL    HW2 1241   2.779   2.786   3.359
 2591SOL     OW 1242   2.853   2.272   3.104
 2591SOL    HW1 1243   2.776   2.306   3.158
 2591SOL    HW2 1244   2.819   2.221   3.025
 2592SOL     OW 1245   2.903   2.563   2.291
 2592SOL    HW1 1246   2.929   2.559   2.387
 2592SOL    HW2 1247   2.818   2.512   2.277
 2593SOL     OW 1248   1.938   2.673   2.651
 2593SOL    HW1 1249   2.037   2.661   2.660
 2593SOL    HW2 1250   1.914   2.768   2.672
 2594SOL     OW 1251   1.992   3.683   3.433
 2594SOL    HW1 1252   1.982   3.668   3.532
 2594SOL    HW2 1253   1.906   3.719   3.397
 2595SOL     OW 1254   2.727   2.210   2.057
 2595SOL    HW1 1255   2.786   2.273   2.008
 2595SOL    HW2 1256   2.746   2.116   2.028
 2596SOL     OW 1257   3.581   2.447   3.693
 2596SOL    HW1 1258   3.555   2.536   3.657
 2596SOL    HW2 1259   3.579   2.379   3.620
 2597SOL     OW 1260   3.224   3.006   2.407
 2597SOL    HW1 1261   3.307   2.977   2.359
 2597SOL    HW2 1262   3.175   3.073   2.351
 2598SOL     OW 1263   2.412   2.058   2.747
 2598SOL    HW1 1264   2.407   2.053   2.847
 2598SOL    HW2 1265   2.414   2.154   2.718
 2599SOL     OW 1266   2.870   3.318   2.339
 2599SOL    HW1 1267   2.824   3.390   2.287
 2599SOL    HW2 1268   2.866   3.338   2.437
 2600SOL     OW 1269   2.213   3.663   2.715
 2600SOL    HW1 1270   2.263   3.577   2.721
 2600SOL    HW2 1271   2.278   3.740   2.712
 2601SOL     OW 1272   3.657   2.928   2.735
 2601SOL    HW1 1273   3.595   2.913   2.659
 2601SOL    HW2 1274   3.605   2.939   2.820
 2602SOL     OW 1275   3.089   3.412   3.368
 2602SOL    HW1 1276   3.095   3.335   3.432
 2602SOL    HW2 1277   3.037   3.386   3.288
 2603SOL     OW 1278   2.183   2.805   2.104
 2603SOL    HW1 1279   2.265   2.844   2.062
 2603SOL    HW2 1280   2.156   2.723   2.055
 2604SOL     OW 1281   3.320   2.597   2.590
 2604SOL    HW1 1282   3.315   2.532   2.665
 2604SOL    HW2 1283   3.400   2.656   2.603
 2605SOL     OW 1284   2.323   3.128   3.589
 2605SOL    HW1 1285   2.273   3.129   3.503
 2605SOL    HW2 1286   2.260   3.110   3.665
 2606SOL     OW 1287   2.973   3.638   2.099
 2606SOL    HW1 1288   2.913   3.576   2.149
 2606SOL    HW2 1289   3.004   3.594   2.014
 2607SOL     OW 1290   2.064   2.147   3.360
 2607SOL    HW1 1291   1.984   2.207   3.347
 2607SOL    HW2 1292   2.054   2.098   3.446
 2608SOL     OW 1293   3.494   3.239   1.943
 2608SOL    HW1 1294   3.462   3.333   1.933
 2608SOL    HW2 1295   3.418   3.176   1.931
 2609SOL     OW 1296   2.326   3.605   2.185
 2609SOL    HW1 1297   2.359   3.644   2.271
 2609SOL    HW2 1298   2.402   3.598   2.120
 2610SOL     OW 1299   3.262   1.969   2.288
 2610SOL    HW1 1300   3.238   1.932   2.198
 2610SOL    HW2 1301   3.361   1.985   2.292
 2611SOL     OW 1302   2.111   3.647   3.103
 2611SOL    HW1 1303   2.168   3.582   3.153
 2611SOL    HW2 1304   2.095   3.614   3.010
 2612SOL     OW 1305   2.802   3.560   2.766
 2612SOL    HW1 1306   2.882   3.503   2.787
 2612SOL    HW2 1307   2.753   3.520   2.689
 2613SOL     OW 1308   3.409   2.084   3.591
 2613SOL    HW1 1309   3.404   2.121   3.683
 2613SOL    HW2 1310   3.337   2.015   3.579
 2614SOL     OW 1311   2.476   1.984   1.979
 2614SOL    HW1 1312   2.574   1.962   1.986
 2614SOL    HW2 1313   2.445   1.967   1.886
 2615SOL     OW 1314   2.643   2.126   3.611
 2615SOL    HW1 1315   2.710   2.065   3.654
 2615SOL    HW2 1316   2.570   2.145   3.676
 2616SOL     OW 1317   2.750   3.376   3.057
 2616SOL    HW1 1318   2.727   3.351   2.963
 2616SOL    HW2 1319   2.811   3.307   3.096
 2617SOL     OW 1320   3.213   2.452   3.295
 2617SOL    HW1 1321   3.241   2.409   3.380
 2617SOL    HW2 1322   3.238   2.548   3.296
 2618SOL     OW 1323   2.665   3.264   2.786
 2618SOL    HW1 1324   2.755   3.278   2.744
 2618SOL    HW2 1325   2.594   3.266   2.715
 2619SOL     OW 1326   2.784   2.365   2.761
 2619SOL    HW1 1327   2.759   2.356   2.665
 2619SOL    HW2 1328   2.832   2.283   2.792
 2620SOL     OW 1329   2.401   1.926   2.374
 2620SOL    HW1 1330   2.320   1.927   2.432
 2620SOL    HW2 1331   2.404   2.009   2.319
 2621SOL     OW 1332   3.296   3.050   1.903
 2621SOL    HW1 1333   3.328   2.974   1.960
 2621SOL    HW2 1334   3.204   3.077   1.933
 2622SOL     OW 1335   2.159   1.897   2.033
 2622SOL    HW1 1336   2.208   1.981   2.012
 2622SOL    HW2 1337   2.221   1.832   2.078
 2623SOL     OW 1338   2.797   2.098   2.342
 2623SOL    HW1 1339   2.749   2.139   2.264
 2623SOL    HW2 1340   2.896   2.096   2.323
 2624SOL     OW 1341   2.938   2.545   3.326
 2624SOL    HW1 1342   2.858   2.484   3.329
 2624SOL    HW2 1343   3.019   2.492   3.302
 2625SOL     OW 1344   3.089   3.432   2.655
 2625SOL    HW1 1345   3.110   3.506   2.590
 2625SOL    HW2 1346   3.157   3.432   2.728
 2626SOL     OW 1347   2.321   3.014   2.603
 2626SOL    HW1 1348   2.250   2.987   2.668
 2626SOL    HW2 1349   2.295   2.986   2.510
 2627SOL     OW 1350   3.133   3.659   2.453
 2627SOL    HW1 1351   3.177   3.723   2.389
 2627SOL    HW2 1352   3.083   3.711   2.523
 2628SOL     OW 1353   2.894   2.411   1.878
 2628SOL    HW1 1354   2.853   2.493   1.839
 2628SOL    HW2 1355   2.958   2.437   1.951
 2629SOL     OW 1356   1.940   2.418   3.248
 2629SOL    HW1 1357   2.032   2.417   3.207
 2629SOL    HW2 1358   1.934   2.492   3.315
 2630SOL     OW 1359   2.423   2.084   3.009
 2630SOL    HW1 1360   2.461   2.000   3.046
 2630SOL    HW2 1361   2.335   2.103   3.053
 2631SOL     OW 1362   2.728   2.316   2.504
 2631SOL    HW1 1363   2.696   2.388   2.442
 2631SOL    HW2 1364   2.752   2.235   2.451
 2632SOL     OW 1365   2.879   1.901   2.615
 2632SOL    HW1 1366   2.807   1.906   2.546
 2632SOL    HW2 1367   2.855   1.832   2.684
 2633SOL     OW 1368   3.291   3.035   2.729
 2633SOL    HW1 1369   3.236   2.951   2.722
 2633SOL    HW2 1370   3.317   3.064   2.637
 2634SOL     OW 1371   3.328   2.452   2.854
 2634SOL    HW1 1372   3.298   2.357   2.861
 2634SOL    HW2 1373   3.401   2.468   2.920
 2635SOL     OW 1374   3.719   2.695   2.239
 2635SOL    HW1 1375   3.761   2.631   2.303
 2635SOL    HW2 1376   3.681   2.644   2.161
 2636SOL     OW 1377   2.350   3.247   2.036
 2636SOL    HW1 1378   2.263   3.232   2.083
 2636SOL    HW2 1379   2.333   3.273   1.941
 2637SOL     OW 1380   3.526   3.142   2.519
 2637SOL    HW1 1381   3.625   3.150   2.533
 2637SOL    HW2 1382   3.481   3.226   2.550
 2638SOL     OW 1383   3.252   2.437   1.940
 2638SOL    HW1 1384   3.198   2.416   2.021
 2638SOL    HW2 1385   3.343   2.396   1.949
 2639SOL     OW 1386   2.389   2.118   2.190
 2639SOL    HW1 1387   2.416   2.059   2.115
 2639SOL    HW2 1388   2.389   2.213   2.159
 2640SOL     OW 1389   3.616   3.085   3.450
 2640SOL    HW1 1390   3.707   3.046   3.437
 2640SOL    HW2 1391   3.624   3.181   3.474
 2641SOL     OW 1392   2.926   3.209   3.202
 2641SOL    HW1 1393   2.846   3.186   3.257
 2641SOL    HW2 1394   3.009   3.183   3.251
 2642SOL     OW 1395   3.454   3.491   3.487
 2642SOL    HW1 1396   3.481   3.525   3.397
 2642SOL    HW2 1397   3.533   3.453   3.533
 2643SOL     OW 1398   3.500   2.961   2.941
 2643SOL    HW1 1399   3.505   3.042   3.000
 2643SOL    HW2 1400   3.414   2.963   2.890
 2644SOL     OW 1401   2.777   1.951   3.264
 2644SOL    HW1 1402   2.802   1.931   3.169
 2644SOL    HW2 1403   2.849   2.007   3.306
 2645SOL     OW 1404   2.842   2.978   3.581
 2645SOL    HW1 1405   2.743   2.984   3.591
 2645SOL    HW2 1406   2.865   2.898   3.525
 2646SOL     OW 1407   2.567   2.912   2.230
 2646SOL    HW1 1408   2.553   2.919   2.329
 2646SOL    HW2 1409   2.651   2.861   2.212
 2647SOL     OW 1410   2.272   2.675   3.113
 2647SOL    HW1 1411   2.358   2.687   3.163
 2647SOL    HW2 1412   2.230   2.588   3.140
 2648SOL     OW 1413   3.136   2.248   3.124
 2648SOL    HW1 1414   3.157   2.322   3.188
 2648SOL    HW2 1415   3.047   2.265   3.081
 2649SOL     OW 1416   1.926   3.426   3.193
 2649SOL    HW1 1417   1.880   3.508   3.159
 2649SOL    HW2 1418   2.024   3.445   3.202
 2650SOL     OW 1419   2.229   2.962   2.363
 2650SOL    HW1 1420   2.222   3.045   2.307
 2650SOL    HW2 1421   2.233   2.882   2.303
 2651SOL     OW 1422   3.114   3.210   2.250
 2651SOL    HW1 1423   3.164   3.287   2.290
 2651SOL    HW2 1424   3.019   3.212   2.282
 2652SOL     OW 1425   3.134   3.307   3.004
 2652SOL    HW1 1426   3.181   3.320   3.091
 2652SOL    HW2 1427   3.068   3.233   3.013
 2653SOL     OW 1428   3.444   2.501   2.334
 2653SOL    HW1 1429   3.413   2.562   2.407
 2653SOL    HW2 1430   3.494   2.553   2.265
 2654SOL     OW 1431   2.216   3.372   3.191
 2654SOL    HW1 1432   2.195   3.328   3.104
 2654SOL    HW2 1433   2.313   3.398   3.194
 2655SOL     OW 1434   2.264   2.613   3.460
 2655SOL    HW1 1435   2.332   2.668   3.413
 2655SOL    HW2 1436   2.304   2.525   3.487
 2656SOL     OW 1437   3.449   2.641   3.532
 2656SOL    HW1 1438   3.357   2.679   3.527
 2656SOL    HW2 1439   3.509   2.688   3.467
 2657SOL     OW 1440   2.875   1.967   3.632
 2657SOL    HW1 1441   2.881   2.052   3.580
 2657SOL    HW2 1442   2.907   1.891   3.575
 2658SOL     OW 1443   2.366   1.912   3.602
 2658SOL    HW1 1444   2.324   1.855   3.532
 2658SOL    HW2 1445   2.300   1.981   3.634
 2659SOL     OW 1446   2.435   2.732   2.891
 2659SOL    HW1 1447   2.479   2.821   2.882
 2659SOL    HW2 1448   2.372   2.732   2.968
 2660SOL     OW 1449   3.222   2.724   2.907
 2660SOL    HW1 1450   3.147   2.724   2.841
 2660SOL    HW2 1451   3.259   2.632   2.916
 2661SOL     OW 1452   3.071   2.387   2.137
 2661SOL    HW1 1453   3.084   2.303   2.191
 2661SOL    HW2 1454   3.042   2.461   2.197
 2662SOL     OW 1455   2.169   2.075   3.093
 2662SOL    HW1 1456   2.146   2.112   3.183
 2662SOL    HW2 1457   2.139   1.980   3.087
 2663SOL     OW 1458   1.899   3.172   3.144
 2663SOL    HW1 1459   1.952   3.123   3.212
 2663SOL    HW2 1460   1.921   3.270   3.149
 2664SOL     OW 1461   2.594   2.496   2.926
 2664SOL    HW1 1462   2.653   2.470   2.850
 2664SOL    HW2 1463   2.566   2.592   2.915
 2665SOL     OW 1464   3.590   2.797   3.716
 2665SOL    HW1 1465   3.544   2.790   3.627
 2665SOL    HW2 1466   3.528   2.841   3.782
 2666SOL     OW 1467   2.169   1.925   2.480
 2666SOL    HW1 1468   2.158   2.019   2.513
 2666SOL    HW2 1469   2.164   1.862   2.557
 2667SOL     OW 1470   3.484   2.229   2.236
 2667SOL    HW1 1471   3.486   2.153   2.300
 2667SOL    HW2 1472   3.436   2.306   2.276
 2668SOL     OW 1473   2.842   3.435   3.562
 2668SOL    HW1 1474   2.822   3.479   3.474
 2668SOL    HW2 1475   2.881   3.344   3.546
 2669SOL     OW 1476   3.721   3.380   3.467
 2669SOL    HW1 1477   3.735   3.407   3.372
 2669SOL    HW2 1478   3.804   3.402   3.520
 2670SOL     OW 1479   2.212   2.760   3.666
 2670SOL    HW1 1480   2.288   2.804   3.714
 2670SOL    HW2 1481   2.247   2.713   3.584
 2671SOL     OW 1482   3.402   2.136   1.987
 2671SOL    HW1 1483   3.341   2.061   2.010
 2671SOL    HW2 1484   3.424   2.188   2.070
 2672SOL     OW 1485   3.165   2.700   1.904
 2672SOL    HW1 1486   3.199   2.607   1.919
 2672SOL    HW2 1487   3.183   2.727   1.809
 2673SOL     OW 1488   2.181   2.672   2.811
 2673SOL    HW1 1489   2.274   2.708   2.816
 2673SOL    HW2 1490   2.175   2.587   2.863
 2674SOL     OW 1491   2.201   2.371   2.868
 2674SOL    HW1 1492   2.149   2.288   2.851
 2674SOL    HW2 1493   2.278   2.376   2.804
 2675SOL     OW 1494   3.000   2.242   3.540
 2675SOL    HW1 1495   2.955   2.305   3.604
 2675SOL    HW2 1496   3.093   2.273   3.523
 2676SOL     OW 1497   3.022   2.069   3.339
 2676SOL    HW1 1498   3.022   2.133   3.416
 2676SOL    HW2 1499   3.050   2.117   3.256
 2677SOL     OW 1500   1.870   3.188   2.062
 2677SOL    HW1 1501   1.777   3.209   2.031
 2677SOL    HW2 1502   1.880   3.089   2.075
 2678SOL     OW 1503   1.950   3.663   2.789
 2678SOL    HW1 1504   1.908   3.577   2.762
 2678SOL    HW2 1505   2.044   3.666   2.755
 2679SOL     OW 1506   2.366   3.430   2.772
 2679SOL    HW1 1507   2.432   3.504   2.781
 2679SOL    HW2 1508   2.410   3.351   2.730
 2680SOL     OW 1509   2.864   2.658   3.100
 2680SOL    HW1 1510   2.905   2.626   3.186
 2680SOL    HW2 1511   2.768   2.631   3.097
 2681SOL     OW 1512   1.902   2.406   2.976
 2681SOL    HW1 1513   1.987   2.373   2.935
 2681SOL    HW2 1514   1.915   2.421   3.074
 2682SOL     OW 1515   2.051   2.382   3.584
 2682SOL    HW1 1516   2.110   2.342   3.514
 2682SOL    HW2 1517   1.993   2.453   3.543
 2683SOL     OW 1518   3.231   2.812   3.522
 2683SOL    HW1 1519   3.270   2.901   3.542
 2683SOL    HW2 1520   3.241   2.792   3.425
 2684SOL     OW 1521   2.677   2.434   2.187
 2684SOL    HW1 1522   2.684   2.345   2.141
 2684SOL    HW2 1523   2.583   2.468   2.179
 2685SOL     OW 1524   3.519   2.466   3.068
 2685SOL    HW1 1525   3.481   2.397   3.130
 2685SOL    HW2 1526   3.601   2.430   3.024
 2686SOL     OW 1527   2.114   3.426   3.606
 2686SOL    HW1 1528   2.084   3.483   3.682
 2686SOL    HW2 1529   2.107   3.329   3.632
 2687SOL     OW 1530   2.533   2.326   3.131
 2687SOL    HW1 1531   2.499   2.237   3.101
 2687SOL    HW2 1532   2.559   2.380   3.051
 2688SOL     OW 1533   2.792   3.540   3.327
 2688SOL    HW1 1534   2.768   3.522   3.232
 2688SOL    HW2 1535   2.822   3.634   3.337
 2689SOL     OW 1536   2.335   2.362   2.053
 2689SOL    HW1 1537   2.396   2.442   2.057
 2689SOL    HW2 1538   2.240   2.393   2.060
 2690SOL     OW 1539   2.021   2.999   3.328
 2690SOL    HW1 1540   2.043   2.938   3.404
 2690SOL    HW2 1541   2.031   2.950   3.242
 2691SOL     OW 1542   3.209   2.921   3.096
 2691SOL    HW1 1543   3.233   2.858   3.022
 2691SOL    HW2 1544   3.119   2.961   3.078
 2692SOL     OW 1545   3.164   2.717   2.171
 2692SOL    HW1 1546   3.078   2.686   2.213
 2692SOL    HW2 1547   3.160   2.703   2.072
 2693SOL     OW 1548   3.621   3.609   3.016
 2693SOL    HW1 1549   3.682   3.639   2.943
 2693SOL    HW2 1550   3.583   3.520   2.994
 2694SOL     OW 1551   3.114   3.593   2.990
 2694SOL    HW1 1552   3.198   3.598   2.936
 2694SOL    HW2 1553   3.091   3.497   3.008
 2695SOL     OW 1554   1.945   3.120   2.884
 2695SOL    HW1 1555   1.940   3.119   2.984
 2695SOL    HW2 1556   1.862   3.079   2.846
 2696SOL     OW 1557   2.550   3.524   3.578
 2696SOL    HW1 1558   2.494   3.605   3.587
 2696SOL    HW2 1559   2.602   3.528   3.492
 2697SOL     OW 1560   3.588   1.997   2.385
 2697SOL    HW1 1561   3.661   1.980   2.318
 2697SOL    HW2 1562   3.557   1.910   2.423
 2698SOL     OW 1563   3.250   3.435   2.339
 2698SOL    HW1 1564   3.317   3.447   2.265
 2698SOL    HW2 1565   3.210   3.524   2.362
 2699SOL     OW 1566   1.992   3.656   3.713
 2699SOL    HW1 1567   1.951   3.582   3.766
 2699SOL    HW2 1568   2.056   3.707   3.771
 2700SOL     OW 1569   3.142   2.789   2.534
 2700SOL    HW1 1570   3.202   2.708   2.536
 2700SOL    HW2 1571   3.182   2.858   2.474
 2701SOL     OW 1572   2.692   3.135   3.284
 2701SOL    HW1 1573   2.687   3.168   3.379
 2701SOL    HW2 1574   2.606   3.154   3.238
 2702SOL     OW 1575   2.534   3.478   2.016
 2702SOL    HW1 1576   2.543   3.488   1.917
 2702SOL    HW2 1577   2.494   3.389   2.037
 2703SOL     OW 1578   3.512   3.582   3.256
 2703SOL    HW1 1579   3.565   3.592   3.172
 2703SOL    HW2 1580   3.485   3.672   3.290
 2704SOL     OW 1581   3.703   2.037   2.825
 2704SOL    HW1 1582   3.742   1.952   2.789
 2704SOL    HW2 1583   3.605   2.039   2.806
 2705SOL     OW 1584   3.056   3.474   1.893
 2705SOL    HW1 1585   3.062   3.381   1.930
 2705SOL    HW2 1586   2.997   3.474   1.813
 2706SOL     OW 1587   2.684   2.864   3.234
 2706SOL    HW1 1588   2.724   2.863   3.142
 2706SOL    HW2 1589   2.694   2.956   3.274
 2707SOL     OW 1590   2.778   2.772   2.153
 2707SOL    HW1 1591   2.841   2.810   2.085
 2707SOL    HW2 1592   2.818   2.689   2.192
 2708SOL     OW 1593   3.366   3.469   1.906
 2708SOL    HW1 1594   3.274   3.506   1.913
 2708SOL    HW2 1595   3.404   3.489   1.816
 2709SOL     OW 1596   2.234   3.150   3.352
 2709SOL    HW1 1597   2.221   3.243   3.318
 2709SOL    HW2 1598   2.150   3.098   3.339
 2710SOL     OW 1599   3.476   3.154   3.151
 2710SOL    HW1 1600   3.536   3.157   3.231
 2710SOL    HW2 1601   3.401   3.218   3.164
 2711SOL     OW 1602   2.876   2.098   2.833
 2711SOL    HW1 1603   2.868   2.062   2.740
 2711SOL    HW2 1604   2.874   2.022   2.898
 2712SOL     OW 1605   2.452   3.349   2.353
 2712SOL    HW1 1606   2.494   3.291   2.283
 2712SOL    HW2 1607   2.408   3.428   2.309
 2713SOL     OW 1608   3.571   2.247   3.243
 2713SOL    HW1 1609   3.644   2.316   3.247
 2713SOL    HW2 1610   3.599   2.172   3.184
 2714SOL     OW 1611   2.117   3.210   2.152
 2714SOL    HW1 1612   2.021   3.211   2.125
 2714SOL    HW2 1613   2.129   3.263   2.236
 2715SOL     OW 1614   1.967   2.875   3.588
 2715SOL    HW1 1615   1.890   2.842   3.642
 2715SOL    HW2 1616   2.052   2.845   3.630
 2716SOL     OW 1617   2.534   2.065   3.351
 2716SOL    HW1 1618   2.624   2.049   3.311
 2716SOL    HW2 1619   2.542   2.070   3.450
 2717SOL     OW 1620   1.937   2.207   1.895
 2717SOL    HW1 1621   1.845   2.179   1.866
 2717SOL    HW2 1622   1.968   2.284   1.839
 2718SOL     OW 1623   3.302   2.718   3.260
 2718SOL    HW1 1624   3.245   2.770   3.197
 2718SOL    HW2 1625   3.398   2.730   3.236
 2719SOL     OW 1626   1.934   2.028   2.180
 2719SOL    HW1 1627   1.917   2.111   2.126
 2719SOL    HW2 1628   2.024   1.991   2.158
 2720SOL     OW 1629   3.045   3.197   1.981
 2720SOL    HW1 1630   2.946   3.186   1.983
 2720SOL    HW2 1631   3.079   3.212   2.074
 2721SOL     OW 1632   2.475   2.704   3.293
 2721SOL    HW1 1633   2.531   2.785   3.276
 2721SOL    HW2 1634   2.534   2.624   3.296
 2722SOL     OW 1635   3.355   3.629   2.821
 2722SOL    HW1 1636   3.388   3.693   2.752
 2722SOL    HW2 1637   3.421   3.623   2.896
 2723SOL     OW 1638   2.578   2.427   3.570
 2723SOL    HW1 1639   2.597   2.492   3.644
 2723SOL    HW2 1640   2.638   2.347   3.579
 2724SOL     OW 1641   3.312   3.082   3.495
 2724SOL    HW1 1642   3.303   3.072   3.594
 2724SOL    HW2 1643   3.408   3.075   3.469
 2725SOL     OW 1644   2.252   3.603   3.422
 2725SOL    HW1 1645   2.161   3.644   3.420
 2725SOL    HW2 1646   2.245   3.509   3.454
 2726SOL     OW 1647   3.536   2.745   3.116
 2726SOL    HW1 1648   3.509   2.656   3.079
 2726SOL    HW2 1649   3.537   2.813   3.043
 2727SOL     OW 1650   3.087   2.187   2.311
 2727SOL    HW1 1651   3.152   2.113   2.300
 2727SOL    HW2 1652   3.107   2.237   2.395
 2728SOL     OW 1653   3.639   2.204   3.504
 2728SOL    HW1 1654   3.622   2.235   3.410
 2728SOL    HW2 1655   3.555   2.167   3.542
 2729SOL     OW 1656   3.592   2.796   3.379
 2729SOL    HW1 1657   3.630   2.887   3.394
 2729SOL    HW2 1658   3.584   2.779   3.280
 2730SOL     OW 1659   2.721   3.236   1.878
 2730SOL    HW1 1660   2.675   3.251   1.966
 2730SOL    HW2 1661   2.765   3.321   1.848
 2731SOL     OW 1662   2.523   3.652   2.815
 2731SOL    HW1 1663   2.477   3.740   2.802
 2731SOL    HW2 1664   2.622   3.664   2.808
 2732SOL     OW 1665   2.945   2.846   1.949
 2732SOL    HW1 1666   2.922   2.899   1.867
 2732SOL    HW2 1667   3.026   2.790   1.930
 2733SOL     OW 1668   3.723   3.431   2.713
 2733SOL    HW1 1669   3.652   3.419   2.643
 2733SOL    HW2 1670   3.724   3.352   2.773
 2734SOL     OW 1671   2.083   3.176   3.706
 2734SOL    HW1 1672   2.018   3.103   3.685
 2734SOL    HW2 1673   2.087   3.190   3.804
 2735SOL     OW 1674   1.941   3.102   2.515
 2735SOL    HW1 1675   1.940   3.055   2.603
 2735SOL    HW2 1676   2.023   3.074   2.464
 2736SOL     OW 1677   2.534   3.253   3.486
 2736SOL    HW1 1678   2.456   3.203   3.524
 2736SOL    HW2 1679   2.531   3.348   3.517
 2737SOL     OW 1680   3.686   2.054   3.089
 2737SOL    HW1 1681   3.682   1.964   3.133
 2737SOL    HW2 1682   3.689   2.043   2.990
 2738SOL     OW 1683   3.567   3.349   2.966
 2738SOL    HW1 1684   3.474   3.324   2.939
 2738SOL    HW2 1685   3.593   3.299   3.048
 2739SOL     OW 1686   2.179   2.409   3.142
 2739SOL    HW1 1687   2.217   2.350   3.214
 2739SOL    HW2 1688   2.219   2.383   3.054
 2740SOL     OW 1689   2.674   3.448   2.549
 2740SOL    HW1 1690   2.706   3.458   2.455
 2740SOL    HW2 1691   2.595   3.386   2.551
 2741SOL     OW 1692   3.286   2.076   2.974
 2741SOL    HW1 1693   3.338   2.011   3.029
 2741SOL    HW2 1694   3.237   2.139   3.035
 2742SOL     OW 1695   2.863   1.896   3.016
 2742SOL    HW1 1696   2.800   1.824   2.985
 2742SOL    HW2 1697   2.956   1.860   3.016
 2743SOL     OW 1698   2.632   3.192   2.163
 2743SOL    HW1 1699   2.586   3.105   2.180
 2743SOL    HW2 1700   2.723   3.189   2.204
 2744SOL     OW 1701   2.480   3.429   3.146
 2744SOL    HW1 1702   2.475   3.511   3.203
 2744SOL    HW2 1703   2.569   3.426   3.101
 2745SOL     OW 1704   3.214   1.914   2.030
 2745SOL    HW1 1705   3.249   1.873   1.946
 2745SOL    HW2 1706   3.124   1.876   2.050
 2746SOL     OW 1707   3.162   2.315   2.553
 2746SOL    HW1 1708   3.103   2.395   2.557
 2746SOL    HW2 1709   3.177   2.280   2.646
 2747SOL     OW 1710   3.455   2.083   2.744
 2747SOL    HW1 1711   3.371   2.082   2.798
 2747SOL    HW2 1712   3.457   2.166   2.688
 2748SOL     OW 1713   1.901   2.939   2.162
 2748SOL    HW1 1714   2.000   2.928   2.153
 2748SOL    HW2 1715   1.861   2.853   2.194
 2749SOL     OW 1716   2.737   3.508   2.199
 2749SOL    HW1 1717   2.660   3.473   2.145
 2749SOL    HW2 1718   2.705   3.579   2.261
 2750SOL     OW 1719   2.092   2.490   3.837
 2750SOL    HW1 1720   1.999   2.488   3.874
 2750SOL    HW2 1721   2.093   2.451   3.745
 2756SOL     OW 1722   3.617   2.469   3.955
 2756SOL    HW1 1723   3.605   2.456   3.856
 2756SOL    HW2 1724   3.587   2.388   4.004
 2758SOL     OW 1725   2.547   2.874   4.389
 2758SOL    HW1 1726   2.616   2.858   4.459
 2758SOL    HW2 1727   2.474   2.931   4.427
 2767SOL     OW 1728   2.468   2.826   3.847
 2767SOL    HW1 1729   2.475   2.910   3.793
 2767SOL    HW2 1730   2.514   2.839   3.935
 2769SOL     OW 1731   1.984   2.505   4.287
 2769SOL    HW1 1732   1.939   2.417   4.304
 2769SOL    HW2 1733   1.983   2.559   4.371
 2771SOL     OW 1734   1.889   3.458   3.841
 2771SOL    HW1 1735   1.870   3.362   3.862
 2771SOL    HW2 1736   1.856   3.516   3.916
 2773SOL     OW 1737   3.503   2.970   4.156
 2773SOL    HW1 1738   3.589   2.972   4.104
 2773SOL    HW2 1739   3.517   3.017   4.244
 2776SOL     OW 1740   2.671   1.866   4.226
 2776SOL    HW1 1741   2.711   1.957   4.217
 2776SOL    HW2 1742   2.571   1.874   4.232
 2778SOL     OW 1743   3.387   2.861   3.914
 2778SOL    HW1 1744   3.324   2.785   3.927
 2778SOL    HW2 1745   3.435   2.879   4.000
 2781SOL     OW 1746   2.460   2.591   3.994
 2781SOL    HW1 1747   2.484   2.660   3.926
 2781SOL    HW2 1748   2.382   2.624   4.048
 2783SOL     OW 1749   3.438   3.524   4.031
 2783SOL    HW1 1750   3.527   3.570   4.034
 2783SOL    HW2 1751   3.417   3.500   3.936
 2787SOL     OW 1752   2.903   2.563   4.153
 2787SOL    HW1 1753   2.929   2.559   4.249
 2787SOL    HW2 1754   2.818   2.512   4.139
 2790SOL     OW 1755   2.727   2.210   3.919
 2790SOL    HW1 1756   2.786   2.273   3.870
 2790SOL    HW2 1757   2.746   2.116   3.890
 2791SOL     OW 1758   3.224   3.006   4.269
 2791SOL    HW1 1759   3.307   2.977   4.221
 2791SOL    HW2 1760   3.175   3.073   4.213
 2793SOL     OW 1761   2.870   3.318   4.201
 2793SOL    HW1 1762   2.824   3.390   4.149
 2793SOL    HW2 1763   2.866   3.338   4.299
 2796SOL     OW 1764   2.183   2.805   3.966
 2796SOL    HW1 1765   2.265   2.844   3.924
 2796SOL    HW2 1766   2.156   2.723   3.917
 2798SOL     OW 1767   2.973   3.638   3.961
 2798SOL    HW1 1768   2.913   3.576   4.011
 2798SOL    HW2 1769   3.004   3.594   3.876
 2800SOL     OW 1770   3.494   3.239   3.805
 2800SOL    HW1 1771   3.462   3.333   3.795
 2800SOL    HW2 1772   3.418   3.176   3.793
 2801SOL     OW 1773   2.326   3.605   4.047
 2801SOL    HW1 1774   2.359   3.644   4.133
 2801SOL    HW2 1775   2.402   3.598   3.982
 2802SOL     OW 1776   3.262   1.969   4.150
 2802SOL    HW1 1777   3.238   1.932   4.060
 2802SOL    HW2 1778   3.361   1.985   4.154
 2805SOL     OW 1779   2.244   2.562   4.204
 2805SOL    HW1 1780   2.289   2.472   4.201
 2805SOL    HW2 1781   2.150   2.551   4.237
 2806SOL     OW 1782   2.476   1.984   3.841
 2806SOL    HW1 1783   2.574   1.962   3.848
 2806SOL    HW2 1784   2.445   1.967   3.748
 2811SOL     OW 1785   2.401   1.926   4.236
 2811SOL    HW1 1786   2.320   1.927   4.294
 2811SOL    HW2 1787   2.404   2.009   4.181
 2812SOL     OW 1788   3.296   3.050   3.765
 2812SOL    HW1 1789   3.328   2.974   3.822
 2812SOL    HW2 1790   3.204   3.077   3.795
 2813SOL     OW 1791   2.159   1.897   3.895
 2813SOL    HW1 1792   2.208   1.981   3.874
 2813SOL    HW2 1793   2.221   1.832   3.940
 2814SOL     OW 1794   2.797   2.098   4.204
 2814SOL    HW1 1795   2.749   2.139   4.126
 2814SOL    HW2 1796   2.896   2.096   4.185
 2818SOL     OW 1797   2.894   2.411   3.740
 2818SOL    HW1 1798   2.853   2.493   3.701
 2818SOL    HW2 1799   2.958   2.437   3.813
 2821SOL     OW 1800   2.728   2.316   4.366
 2821SOL    HW1 1801   2.696   2.388   4.304
 2821SOL    HW2 1802   2.752   2.235   4.313
 2825SOL     OW 1803   3.719   2.695   4.101
 2825SOL    HW1 1804   3.761   2.631   4.165
 2825SOL    HW2 1805   3.681   2.644   4.023
 2826SOL     OW 1806   2.350   3.247   3.898
 2826SOL    HW1 1807   2.263   3.232   3.945
 2826SOL    HW2 1808   2.333   3.273   3.803
 2828SOL     OW 1809   3.252   2.437   3.802
 2828SOL    HW1 1810   3.198   2.416   3.883
 2828SOL    HW2 1811   3.343   2.396   3.811
 2829SOL     OW 1812   2.389   2.118   4.052
 2829SOL    HW1 1813   2.416   2.059   3.977
 2829SOL    HW2 1814   2.389   2.213   4.021
 2835SOL     OW 1815   2.567   2.912   4.092
 2835SOL    HW1 1816   2.553   2.919   4.191
 2835SOL    HW2 1817   2.651   2.861   4.074
 2839SOL     OW 1818   2.229   2.962   4.225
 2839SOL    HW1 1819   2.222   3.045   4.169
 2839SOL    HW2 1820   2.233   2.882   4.165
 2841SOL     OW 1821   3.114   3.210   4.112
 2841SOL    HW1 1822   3.164   3.287   4.152
 2841SOL    HW2 1823   3.019   3.212   4.144
 2843SOL     OW 1824   3.444   2.501   4.196
 2843SOL    HW1 1825   3.413   2.562   4.269
 2843SOL    HW2 1826   3.494   2.553   4.127
 2849SOL     OW 1827   3.071   2.387   3.999
 2849SOL    HW1 1828   3.084   2.303   4.053
 2849SOL    HW2 1829   3.042   2.461   4.059
 2854SOL     OW 1830   3.484   2.229   4.098
 2854SOL    HW1 1831   3.486   2.153   4.162
 2854SOL    HW2 1832   3.436   2.306   4.138
 2857SOL     OW 1833   3.402   2.136   3.849
 2857SOL    HW1 1834   3.341   2.061   3.872
 2857SOL    HW2 1835   3.424   2.188   3.932
 2858SOL     OW 1836   3.165   2.700   3.766
 2858SOL    HW1 1837   3.199   2.607   3.781
 2858SOL    HW2 1838   3.183   2.727   3.671
 2864SOL     OW 1839   1.870   3.188   3.924
 2864SOL    HW1 1840   1.777   3.209   3.893
 2864SOL    HW2 1841   1.880   3.089   3.937
 2869SOL     OW 1842   2.677   2.434   4.049
 2869SOL    HW1 1843   2.684   2.345   4.003
 2869SOL    HW2 1844   2.583   2.468   4.041
 2874SOL     OW 1845   2.335   2.362   3.915
 2874SOL    HW1 1846   2.396   2.442   3.919
 2874SOL    HW2 1847   2.240   2.393   3.922
 2877SOL     OW 1848   3.164   2.717   4.033
 2877SOL    HW1 1849   3.078   2.686   4.075
 2877SOL    HW2 1850   3.160   2.703   3.934
 2884SOL     OW 1851   2.534   3.478   3.878
 2884SOL    HW1 1852   2.543   3.488   3.779
 2884SOL    HW2 1853   2.494   3.389   3.899
 2888SOL     OW 1854   3.056   3.474   3.755
 2888SOL    HW1 1855   3.062   3.381   3.792
 2888SOL    HW2 1856   2.997   3.474   3.675
 2890SOL     OW 1857   2.778   2.772   4.015
 2890SOL    HW1 1858   2.841   2.810   3.947
 2890SOL    HW2 1859   2.818   2.689   4.054
 2891SOL     OW 1860   3.366   3.469   3.768
 2891SOL    HW1 1861   3.274   3.506   3.775
 2891SOL    HW2 1862   3.404   3.489   3.678
 2896SOL     OW 1863   2.452   3.349   4.215
 2896SOL    HW1 1864   2.494   3.291   4.145
 2896SOL    HW2 1865   2.408   3.428   4.171
 2898SOL     OW 1866   2.117   3.210   4.014
 2898SOL    HW1 1867   2.021   3.211   3.987
 2898SOL    HW2 1868   2.129   3.263   4.098
 2900SOL     OW 1869   1.937   2.207   3.757
 2900SOL    HW1 1870   1.845   2.179   3.728
 2900SOL    HW2 1871   1.968   2.284   3.701
 2902SOL     OW 1872   1.934   2.028   4.042
 2902SOL    HW1 1873   1.917   2.111   3.988
 2902SOL    HW2 1874   2.024   1.991   4.020
 2903SOL     OW 1875   3.045   3.197   3.843
 2903SOL    HW1 1876   2.946   3.186   3.845
 2903SOL    HW2 1877   3.079   3.212   3.936
 2908SOL     OW 1878   3.087   2.187   4.173
 2908SOL    HW1 1879   3.152   2.113   4.162
 2908SOL    HW2 1880   3.107   2.237   4.257
 2909SOL     OW 1881   2.456   2.607   4.376
 2909SOL    HW1 1882   2.506   2.692   4.357
 2909SOL    HW2 1883   2.368   2.609   4.328
 2912SOL     OW 1884   2.721   3.236   3.740
 2912SOL    HW1 1885   2.675   3.251   3.828
 2912SOL    HW2 1886   2.765   3.321   3.710
 2915SOL     OW 1887   2.945   2.846   3.811
 2915SOL    HW1 1888   2.922   2.899   3.729
 2915SOL    HW2 1889   3.026   2.790   3.792
 2919SOL     OW 1890   2.290   2.286   4.244
 2919SOL    HW1 1891   2.320   2.214   4.182
 2919SOL    HW2 1892   2.251   2.246   4.327
 2925SOL     OW 1893   2.632   3.192   4.025
 2925SOL    HW1 1894   2.586   3.105   4.042
 2925SOL    HW2 1895   2.723   3.189   4.066
 2927SOL     OW 1896   3.214   1.914   3.892
 2927SOL    HW1 1897   3.249   1.873   3.808
 2927SOL    HW2 1898   3.124   1.876   3.912
 2930SOL     OW 1899   1.901   2.939   4.024
 2930SOL    HW1 1900   2.000   2.928   4.015
 2930SOL    HW2 1901   1.861   2.853   4.056
 2931SOL     OW 1902   2.737   3.508   4.061
 2931SOL    HW1 1903   2.660   3.473   4.007
 2931SOL    HW2 1904   2.705   3.579   4.123
 2962SOL     OW 1905   2.179   3.975   1.801
 2962SOL    HW1 1906   2.250   4.046   1.807
 2962SOL    HW2 1907   2.091   4.014   1.829
 2988SOL     OW 1908   3.409   3.946   1.729
 2988SOL    HW1 1909   3.404   3.983   1.821
 2988SOL    HW2 1910   3.337   3.877   1.717
 2990SOL     OW 1911   2.643   3.988   1.749
 2990SOL    HW1 1912   2.710   3.927   1.792
 2990SOL    HW2 1913   2.570   4.007   1.814
 3017SOL     OW 1914   2.777   3.813   1.402
 3017SOL    HW1 1915   2.802   3.793   1.307
 3017SOL    HW2 1916   2.849   3.869   1.444
 3030SOL     OW 1917   2.875   3.829   1.770
 3030SOL    HW1 1918   2.881   3.914   1.718
 3030SOL    HW2 1919   2.907   3.753   1.713
 3031SOL     OW 1920   2.366   3.774   1.740
 3031SOL    HW1 1921   2.324   3.717   1.670
 3031SOL    HW2 1922   2.300   3.843   1.772
 3049SOL     OW 1923   3.000   4.104   1.678
 3049SOL    HW1 1924   2.955   4.167   1.742
 3049SOL    HW2 1925   3.093   4.135   1.661
 3050SOL     OW 1926   3.022   3.931   1.477
 3050SOL    HW1 1927   3.022   3.995   1.554
 3050SOL    HW2 1928   3.050   3.979   1.394
 3082SOL     OW 1929   2.534   3.927   1.489
 3082SOL    HW1 1930   2.624   3.911   1.449
 3082SOL    HW2 1931   2.542   3.932   1.588
 3113SOL     OW 1932   2.087   3.999   2.858
 3113SOL    HW1 1933   2.122   3.982   2.950
 3113SOL    HW2 1934   1.999   3.954   2.846
 3114SOL     OW 1935   1.881   4.092   2.509
 3114SOL    HW1 1936   1.799   4.135   2.548
 3114SOL    HW2 1937   1.853   4.019   2.446
 3125SOL     OW 1938   2.300   4.116   3.361
 3125SOL    HW1 1939   2.382   4.060   3.370
 3125SOL    HW2 1940   2.219   4.058   3.365
 3126SOL     OW 1941   3.465   4.171   2.599
 3126SOL    HW1 1942   3.391   4.217   2.549
 3126SOL    HW2 1943   3.516   4.239   2.652
 3131SOL     OW 1944   3.456   3.838   3.342
 3131SOL    HW1 1945   3.438   3.905   3.270
 3131SOL    HW2 1946   3.453   3.884   3.431
 3139SOL     OW 1947   2.671   3.728   2.364
 3139SOL    HW1 1948   2.711   3.819   2.355
 3139SOL    HW2 1949   2.571   3.736   2.370
 3142SOL     OW 1950   2.179   3.975   3.663
 3142SOL    HW1 1951   2.250   4.046   3.669
 3142SOL    HW2 1952   2.091   4.014   3.691
 3145SOL     OW 1953   3.143   4.069   2.806
 3145SOL    HW1 1954   3.057   4.019   2.793
 3145SOL    HW2 1955   3.205   4.015   2.862
 3147SOL     OW 1956   2.669   4.329   3.327
 3147SOL    HW1 1957   2.622   4.326   3.416
 3147SOL    HW2 1958   2.618   4.274   3.261
 3150SOL     OW 1959   2.853   4.134   3.104
 3150SOL    HW1 1960   2.776   4.168   3.158
 3150SOL    HW2 1961   2.819   4.083   3.025
 3153SOL     OW 1962   2.727   4.072   2.057
 3153SOL    HW1 1963   2.786   4.135   2.008
 3153SOL    HW2 1964   2.746   3.978   2.028
 3156SOL     OW 1965   2.412   3.920   2.747
 3156SOL    HW1 1966   2.407   3.915   2.847
 3156SOL    HW2 1967   2.414   4.016   2.718
 3164SOL     OW 1968   2.064   4.009   3.360
 3164SOL    HW1 1969   1.984   4.069   3.347
 3164SOL    HW2 1970   2.054   3.960   3.446
 3166SOL     OW 1971   3.262   3.831   2.288
 3166SOL    HW1 1972   3.238   3.794   2.198
 3166SOL    HW2 1973   3.361   3.847   2.292
 3168SOL     OW 1974   3.409   3.946   3.591
 3168SOL    HW1 1975   3.404   3.983   3.683
 3168SOL    HW2 1976   3.337   3.877   3.579
 3169SOL     OW 1977   2.476   3.846   1.979
 3169SOL    HW1 1978   2.574   3.824   1.986
 3169SOL    HW2 1979   2.445   3.829   1.886
 3170SOL     OW 1980   2.643   3.988   3.611
 3170SOL    HW1 1981   2.710   3.927   3.654
 3170SOL    HW2 1982   2.570   4.007   3.676
 3173SOL     OW 1983   2.784   4.227   2.761
 3173SOL    HW1 1984   2.759   4.218   2.665
 3173SOL    HW2 1985   2.832   4.145   2.792
 3174SOL     OW 1986   2.401   3.788   2.374
 3174SOL    HW1 1987   2.320   3.789   2.432
 3174SOL    HW2 1988   2.404   3.871   2.319
 3176SOL     OW 1989   2.159   3.759   2.033
 3176SOL    HW1 1990   2.208   3.843   2.012
 3176SOL    HW2 1991   2.221   3.694   2.078
 3177SOL     OW 1992   2.797   3.960   2.342
 3177SOL    HW1 1993   2.749   4.001   2.264
 3177SOL    HW2 1994   2.896   3.958   2.323
 3183SOL     OW 1995   2.423   3.946   3.009
 3183SOL    HW1 1996   2.461   3.862   3.046
 3183SOL    HW2 1997   2.335   3.965   3.053
 3184SOL     OW 1998   2.728   4.178   2.504
 3184SOL    HW1 1999   2.696   4.250   2.442
 3184SOL    HW2 2000   2.752   4.097   2.451
 3185SOL     OW 2001   2.879   3.763   2.615
 3185SOL    HW1 2002   2.807   3.768   2.546
 3185SOL    HW2 2003   2.855   3.694   2.684
 3187SOL     OW 2004   3.328   4.314   2.854
 3187SOL    HW1 2005   3.298   4.219   2.861
 3187SOL    HW2 2006   3.401   4.330   2.920
 3192SOL     OW 2007   2.389   3.980   2.190
 3192SOL    HW1 2008   2.416   3.921   2.115
 3192SOL    HW2 2009   2.389   4.075   2.159
 3197SOL     OW 2010   2.777   3.813   3.264
 3197SOL    HW1 2011   2.802   3.793   3.169
 3197SOL    HW2 2012   2.849   3.869   3.306
 3201SOL     OW 2013   3.136   4.110   3.124
 3201SOL    HW1 2014   3.157   4.184   3.188
 3201SOL    HW2 2015   3.047   4.127   3.081
 3203SOL     OW 2016   2.428   4.261   2.727
 3203SOL    HW1 2017   2.440   4.327   2.653
 3203SOL    HW2 2018   2.474   4.295   2.810
 3210SOL     OW 2019   2.875   3.829   3.632
 3210SOL    HW1 2020   2.881   3.914   3.580
 3210SOL    HW2 2021   2.907   3.753   3.575
 3211SOL     OW 2022   2.366   3.774   3.602
 3211SOL    HW1 2023   2.324   3.717   3.532
 3211SOL    HW2 2024   2.300   3.843   3.634
 3214SOL     OW 2025   3.071   4.249   2.137
 3214SOL    HW1 2026   3.084   4.165   2.191
 3214SOL    HW2 2027   3.042   4.323   2.197
 3215SOL     OW 2028   2.169   3.937   3.093
 3215SOL    HW1 2029   2.146   3.974   3.183
 3215SOL    HW2 2030   2.139   3.842   3.087
 3217SOL     OW 2031   2.594   4.358   2.926
 3217SOL    HW1 2032   2.653   4.332   2.850
 3217SOL    HW2 2033   2.566   4.454   2.915
 3219SOL     OW 2034   2.169   3.787   2.480
 3219SOL    HW1 2035   2.158   3.881   2.513
 3219SOL    HW2 2036   2.164   3.724   2.557
 3220SOL     OW 2037   3.484   4.091   2.236
 3220SOL    HW1 2038   3.486   4.015   2.300
 3220SOL    HW2 2039   3.436   4.168   2.276
 3224SOL     OW 2040   3.402   3.998   1.987
 3224SOL    HW1 2041   3.341   3.923   2.010
 3224SOL    HW2 2042   3.424   4.050   2.070
 3228SOL     OW 2043   2.201   4.233   2.868
 3228SOL    HW1 2044   2.149   4.150   2.851
 3228SOL    HW2 2045   2.278   4.238   2.804
 3229SOL     OW 2046   3.000   4.104   3.540
 3229SOL    HW1 2047   2.955   4.167   3.604
 3229SOL    HW2 2048   3.093   4.135   3.523
 3230SOL     OW 2049   3.022   3.931   3.339
 3230SOL    HW1 2050   3.022   3.995   3.416
 3230SOL    HW2 2051   3.050   3.979   3.256
 3236SOL     OW 2052   2.677   4.296   2.187
 3236SOL    HW1 2053   2.684   4.207   2.141
 3236SOL    HW2 2054   2.583   4.330   2.179
 3239SOL     OW 2055   2.533   4.188   3.131
 3239SOL    HW1 2056   2.499   4.099   3.101
 3239SOL    HW2 2057   2.559   4.242   3.051
 3240SOL     OW 2058   2.335   4.224   2.053
 3240SOL    HW1 2059   2.396   4.304   2.057
 3240SOL    HW2 2060   2.240   4.255   2.060
 3246SOL     OW 2061   3.588   3.859   2.385
 3246SOL    HW1 2062   3.661   3.842   2.318
 3246SOL    HW2 2063   3.557   3.772   2.423
 3249SOL     OW 2064   3.703   3.899   2.825
 3249SOL    HW1 2065   3.742   3.814   2.789
 3249SOL    HW2 2066   3.605   3.901   2.806
 3250SOL     OW 2067   2.125   4.050   2.582
 3250SOL    HW1 2068   2.046   4.101   2.548
 3250SOL    HW2 2069   2.116   4.035   2.680
 3256SOL     OW 2070   2.876   3.960   2.833
 3256SOL    HW1 2071   2.868   3.924   2.740
 3256SOL    HW2 2072   2.874   3.884   2.898
 3260SOL     OW 2073   2.534   3.927   3.351
 3260SOL    HW1 2074   2.624   3.911   3.311
 3260SOL    HW2 2075   2.542   3.932   3.450
 3261SOL     OW 2076   1.937   4.069   1.895
 3261SOL    HW1 2077   1.845   4.041   1.866
 3261SOL    HW2 2078   1.968   4.146   1.839
 3263SOL     OW 2079   1.934   3.890   2.180
 3263SOL    HW1 2080   1.917   3.973   2.126
 3263SOL    HW2 2081   2.024   3.853   2.158
 3269SOL     OW 2082   3.087   4.049   2.311
 3269SOL    HW1 2083   3.152   3.975   2.300
 3269SOL    HW2 2084   3.107   4.099   2.395
 3279SOL     OW 2085   3.686   3.916   3.089
 3279SOL    HW1 2086   3.682   3.826   3.133
 3279SOL    HW2 2087   3.689   3.905   2.990
 3280SOL     OW 2088   2.290   4.148   2.382
 3280SOL    HW1 2089   2.320   4.076   2.320
 3280SOL    HW2 2090   2.251   4.108   2.465
 3282SOL     OW 2091   2.179   4.271   3.142
 3282SOL    HW1 2092   2.217   4.212   3.214
 3282SOL    HW2 2093   2.219   4.245   3.054
 3283SOL     OW 2094   3.286   3.938   2.974
 3283SOL    HW1 2095   3.338   3.873   3.029
 3283SOL    HW2 2096   3.237   4.001   3.035
 3284SOL     OW 2097   2.863   3.758   3.016
 3284SOL    HW1 2098   2.800   3.686   2.985
 3284SOL    HW2 2099   2.956   3.722   3.016
 3287SOL     OW 2100   3.214   3.776   2.030
 3287SOL    HW1 2101   3.249   3.735   1.946
 3287SOL    HW2 2102   3.124   3.738   2.050
 3288SOL     OW 2103   3.162   4.177   2.553
 3288SOL    HW1 2104   3.103   4.257   2.557
 3288SOL    HW2 2105   3.177   4.142   2.646
 3289SOL     OW 2106   3.455   3.945   2.744
 3289SOL    HW1 2107   3.371   3.944   2.798
 3289SOL    HW2 2108   3.457   4.028   2.688
 3338SOL     OW 2109   2.476   3.846   3.841
 3338SOL    HW1 2110   2.574   3.824   3.848
 3338SOL    HW2 2111   2.445   3.829   3.748
 3344SOL     OW 2112   2.159   3.759   3.895
 3344SOL    HW1 2113   2.208   3.843   3.874
 3344SOL    HW2 2114   2.221   3.694   3.940
 3439SOL     OW 2115   3.214   3.776   3.892
 3439SOL    HW1 2116   3.249   3.735   3.808
 3439SOL    HW2 2117   3.124   3.738   3.912
 3577SOL     OW 2118   3.854   1.794   1.851
 3577SOL    HW1 2119   3.813   1.720   1.904
 3577SOL    HW2 2120   3.918   1.845   1.909
 3634SOL     OW 2121   3.955   1.713   2.345
 3634SOL    HW1 2122   3.989   1.790   2.399
 3634SOL    HW2 2123   3.999   1.713   2.255
 3642SOL     OW 2124   3.751   1.596   1.979
 3642SOL    HW1 2125   3.732   1.500   2.000
 3642SOL    HW2 2126   3.718   1.654   2.054
 3661SOL     OW 2127   3.854   1.821   3.433
 3661SOL    HW1 2128   3.844   1.806   3.532
 3661SOL    HW2 2129   3.768   1.857   3.397
 3666SOL     OW 2130   4.075   1.801   2.715
 3666SOL    HW1 2131   4.125   1.715   2.721
 3666SOL    HW2 2132   4.140   1.878   2.712
 3674SOL     OW 2133   3.973   1.785   3.103
 3674SOL    HW1 2134   4.030   1.720   3.153
 3674SOL    HW2 2135   3.957   1.752   3.010
 3708SOL     OW 2136   3.788   1.564   3.193
 3708SOL    HW1 2137   3.742   1.646   3.159
 3708SOL    HW2 2138   3.886   1.583   3.202
 3735SOL     OW 2139   3.812   1.801   2.789
 3735SOL    HW1 2140   3.770   1.715   2.762
 3735SOL    HW2 2141   3.906   1.804   2.755
 3974SOL     OW 2142   3.837   2.599   1.597
 3974SOL    HW1 2143   3.925   2.586   1.642
 3974SOL    HW2 2144   3.824   2.696   1.575
 3980SOL     OW 2145   4.041   2.113   1.801
 3980SOL    HW1 2146   4.112   2.184   1.807
 3980SOL    HW2 2147   3.953   2.152   1.829
 4001SOL     OW 2148   3.926   2.147   1.498
 4001SOL    HW1 2149   3.846   2.207   1.485
 4001SOL    HW2 2150   3.916   2.098   1.584
 4022SOL     OW 2151   3.802   2.418   1.386
 4022SOL    HW1 2152   3.894   2.417   1.345
 4022SOL    HW2 2153   3.796   2.492   1.453
 4057SOL     OW 2154   4.074   2.760   1.804
 4057SOL    HW1 2155   4.150   2.804   1.852
 4057SOL    HW2 2156   4.109   2.713   1.722
 4069SOL     OW 2157   3.913   2.382   1.722
 4069SOL    HW1 2158   3.972   2.342   1.652
 4069SOL    HW2 2159   3.855   2.453   1.681
 4072SOL     OW 2160   3.976   3.426   1.744
 4072SOL    HW1 2161   3.946   3.483   1.820
 4072SOL    HW2 2162   3.969   3.329   1.770
 4076SOL     OW 2163   3.883   2.999   1.466
 4076SOL    HW1 2164   3.905   2.938   1.542
 4076SOL    HW2 2165   3.893   2.950   1.380
 4085SOL     OW 2166   3.854   3.656   1.851
 4085SOL    HW1 2167   3.813   3.582   1.904
 4085SOL    HW2 2168   3.918   3.707   1.909
 4098SOL     OW 2169   3.829   2.875   1.726
 4098SOL    HW1 2170   3.752   2.842   1.780
 4098SOL    HW2 2171   3.914   2.845   1.768
 4114SOL     OW 2172   3.945   3.176   1.844
 4114SOL    HW1 2173   3.880   3.103   1.823
 4114SOL    HW2 2174   3.949   3.190   1.942
 4129SOL     OW 2175   3.954   2.490   1.975
 4129SOL    HW1 2176   3.861   2.488   2.012
 4129SOL    HW2 2177   3.955   2.451   1.883
 4130SOL     OW 2178   3.949   2.137   2.858
 4130SOL    HW1 2179   3.984   2.120   2.950
 4130SOL    HW2 2180   3.861   2.092   2.846
 4131SOL     OW 2181   3.743   2.230   2.509
 4131SOL    HW1 2182   3.661   2.273   2.548
 4131SOL    HW2 2183   3.715   2.157   2.446
 4132SOL     OW 2184   4.293   3.137   3.027
 4132SOL    HW1 2185   4.200   3.130   2.990
 4132SOL    HW2 2186   4.304   3.226   3.071
 4137SOL     OW 2187   4.409   2.874   2.527
 4137SOL    HW1 2188   4.478   2.858   2.597
 4137SOL    HW2 2189   4.336   2.931   2.565
 4139SOL     OW 2190   4.059   3.297   2.923
 4139SOL    HW1 2191   3.981   3.266   2.870
 4139SOL    HW2 2192   4.117   3.355   2.866
 4141SOL     OW 2193   4.162   2.254   3.361
 4141SOL    HW1 2194   4.244   2.198   3.370
 4141SOL    HW2 2195   4.081   2.196   3.365
 4142SOL     OW 2196   3.955   3.575   2.345
 4142SOL    HW1 2197   3.989   3.652   2.399
 4142SOL    HW2 2198   3.999   3.575   2.255
 4144SOL     OW 2199   3.954   3.296   2.400
 4144SOL    HW1 2200   3.928   3.392   2.400
 4144SOL    HW2 2201   3.883   3.242   2.445
 4145SOL     OW 2202   3.964   2.953   2.748
 4145SOL    HW1 2203   3.978   2.869   2.800
 4145SOL    HW2 2204   3.909   3.017   2.803
 4148SOL     OW 2205   3.846   2.505   2.425
 4148SOL    HW1 2206   3.801   2.417   2.442
 4148SOL    HW2 2207   3.845   2.559   2.509
 4149SOL     OW 2208   3.751   3.458   1.979
 4149SOL    HW1 2209   3.732   3.362   2.000
 4149SOL    HW2 2210   3.718   3.516   2.054
 4151SOL     OW 2211   3.837   2.599   3.459
 4151SOL    HW1 2212   3.925   2.586   3.504
 4151SOL    HW2 2213   3.824   2.696   3.437
 4152SOL     OW 2214   4.337   3.227   2.588
 4152SOL    HW1 2215   4.288   3.140   2.597
 4152SOL    HW2 2216   4.314   3.270   2.501
 4155SOL     OW 2217   3.921   2.838   3.126
 4155SOL    HW1 2218   4.010   2.793   3.112
 4155SOL    HW2 2219   3.848   2.773   3.107
 4157SOL     OW 2220   4.041   2.113   3.663
 4157SOL    HW1 2221   4.112   2.184   3.669
 4157SOL    HW2 2222   3.953   2.152   3.691
 4160SOL     OW 2223   4.322   2.591   2.132
 4160SOL    HW1 2224   4.346   2.660   2.064
 4160SOL    HW2 2225   4.244   2.624   2.186
 4167SOL     OW 2226   3.800   2.673   2.651
 4167SOL    HW1 2227   3.899   2.661   2.660
 4167SOL    HW2 2228   3.776   2.768   2.672
 4168SOL     OW 2229   3.854   3.683   3.433
 4168SOL    HW1 2230   3.844   3.668   3.532
 4168SOL    HW2 2231   3.768   3.719   3.397
 4171SOL     OW 2232   4.274   2.058   2.747
 4171SOL    HW1 2233   4.269   2.053   2.847
 4171SOL    HW2 2234   4.276   2.154   2.718
 4173SOL     OW 2235   4.075   3.663   2.715
 4173SOL    HW1 2236   4.125   3.577   2.721
 4173SOL    HW2 2237   4.140   3.740   2.712
 4175SOL     OW 2238   4.045   2.805   2.104
 4175SOL    HW1 2239   4.127   2.844   2.062
 4175SOL    HW2 2240   4.018   2.723   2.055
 4178SOL     OW 2241   3.926   2.147   3.360
 4178SOL    HW1 2242   3.846   2.207   3.347
 4178SOL    HW2 2243   3.916   2.098   3.446
 4181SOL     OW 2244   3.973   3.647   3.103
 4181SOL    HW1 2245   4.030   3.582   3.153
 4181SOL    HW2 2246   3.957   3.614   3.010
 4183SOL     OW 2247   4.106   2.562   2.342
 4183SOL    HW1 2248   4.151   2.472   2.339
 4183SOL    HW2 2249   4.012   2.551   2.375
 4190SOL     OW 2250   4.263   1.926   2.374
 4190SOL    HW1 2251   4.182   1.927   2.432
 4190SOL    HW2 2252   4.266   2.009   2.319
 4192SOL     OW 2253   4.021   1.897   2.033
 4192SOL    HW1 2254   4.070   1.981   2.012
 4192SOL    HW2 2255   4.083   1.832   2.078
 4196SOL     OW 2256   4.183   3.014   2.603
 4196SOL    HW1 2257   4.112   2.987   2.668
 4196SOL    HW2 2258   4.157   2.986   2.510
 4199SOL     OW 2259   3.802   2.418   3.248
 4199SOL    HW1 2260   3.894   2.417   3.207
 4199SOL    HW2 2261   3.796   2.492   3.315
 4200SOL     OW 2262   4.285   2.084   3.009
 4200SOL    HW1 2263   4.323   2.000   3.046
 4200SOL    HW2 2264   4.197   2.103   3.053
 4204SOL     OW 2265   4.212   3.247   2.036
 4204SOL    HW1 2266   4.125   3.232   2.083
 4204SOL    HW2 2267   4.195   3.273   1.941
 4206SOL     OW 2268   4.251   2.118   2.190
 4206SOL    HW1 2269   4.278   2.059   2.115
 4206SOL    HW2 2270   4.251   2.213   2.159
 4213SOL     OW 2271   4.134   2.675   3.113
 4213SOL    HW1 2272   4.220   2.687   3.163
 4213SOL    HW2 2273   4.092   2.588   3.140
 4215SOL     OW 2274   3.788   3.426   3.193
 4215SOL    HW1 2275   3.742   3.508   3.159
 4215SOL    HW2 2276   3.886   3.445   3.202
 4216SOL     OW 2277   4.091   2.962   2.363
 4216SOL    HW1 2278   4.084   3.045   2.307
 4216SOL    HW2 2279   4.095   2.882   2.303
 4217SOL     OW 2280   4.290   2.399   2.727
 4217SOL    HW1 2281   4.302   2.465   2.653
 4217SOL    HW2 2282   4.336   2.433   2.810
 4220SOL     OW 2283   4.078   3.372   3.191
 4220SOL    HW1 2284   4.057   3.328   3.104
 4220SOL    HW2 2285   4.175   3.398   3.194
 4221SOL     OW 2286   4.126   2.613   3.460
 4221SOL    HW1 2287   4.194   2.668   3.413
 4221SOL    HW2 2288   4.166   2.525   3.487
 4224SOL     OW 2289   4.297   2.732   2.891
 4224SOL    HW1 2290   4.341   2.821   2.882
 4224SOL    HW2 2291   4.234   2.732   2.968
 4227SOL     OW 2292   4.031   2.075   3.093
 4227SOL    HW1 2293   4.008   2.112   3.183
 4227SOL    HW2 2294   4.001   1.980   3.087
 4228SOL     OW 2295   3.761   3.172   3.144
 4228SOL    HW1 2296   3.814   3.123   3.212
 4228SOL    HW2 2297   3.783   3.270   3.149
 4230SOL     OW 2298   4.031   1.925   2.480
 4230SOL    HW1 2299   4.020   2.019   2.513
 4230SOL    HW2 2300   4.026   1.862   2.557
 4234SOL     OW 2301   4.074   2.760   3.666
 4234SOL    HW1 2302   4.150   2.804   3.714
 4234SOL    HW2 2303   4.109   2.713   3.584
 4237SOL     OW 2304   4.043   2.672   2.811
 4237SOL    HW1 2305   4.136   2.708   2.816
 4237SOL    HW2 2306   4.037   2.587   2.863
 4238SOL     OW 2307   4.063   2.371   2.868
 4238SOL    HW1 2308   4.011   2.288   2.851
 4238SOL    HW2 2309   4.140   2.376   2.804
 4241SOL     OW 2310   3.732   3.188   2.062
 4241SOL    HW1 2311   3.639   3.209   2.031
 4241SOL    HW2 2312   3.742   3.089   2.075
 4242SOL     OW 2313   3.812   3.663   2.789
 4242SOL    HW1 2314   3.770   3.577   2.762
 4242SOL    HW2 2315   3.906   3.666   2.755
 4243SOL     OW 2316   4.228   3.430   2.772
 4243SOL    HW1 2317   4.294   3.504   2.781
 4243SOL    HW2 2318   4.272   3.351   2.730
 4245SOL     OW 2319   3.764   2.406   2.976
 4245SOL    HW1 2320   3.849   2.373   2.935
 4245SOL    HW2 2321   3.777   2.421   3.074
 4246SOL     OW 2322   3.913   2.382   3.584
 4246SOL    HW1 2323   3.972   2.342   3.514
 4246SOL    HW2 2324   3.855   2.453   3.543
 4249SOL     OW 2325   3.976   3.426   3.606
 4249SOL    HW1 2326   3.946   3.483   3.682
 4249SOL    HW2 2327   3.969   3.329   3.632
 4252SOL     OW 2328   4.197   2.362   2.053
 4252SOL    HW1 2329   4.258   2.442   2.057
 4252SOL    HW2 2330   4.102   2.393   2.060
 4253SOL     OW 2331   3.883   2.999   3.328
 4253SOL    HW1 2332   3.905   2.938   3.404
 4253SOL    HW2 2333   3.893   2.950   3.242
 4257SOL     OW 2334   3.807   3.120   2.884
 4257SOL    HW1 2335   3.802   3.119   2.984
 4257SOL    HW2 2336   3.724   3.079   2.846
 4265SOL     OW 2337   3.987   2.188   2.582
 4265SOL    HW1 2338   3.908   2.239   2.548
 4265SOL    HW2 2339   3.978   2.173   2.680
 4269SOL     OW 2340   4.096   3.150   3.352
 4269SOL    HW1 2341   4.083   3.243   3.318
 4269SOL    HW2 2342   4.012   3.098   3.339
 4273SOL     OW 2343   3.979   3.210   2.152
 4273SOL    HW1 2344   3.883   3.211   2.125
 4273SOL    HW2 2345   3.991   3.263   2.236
 4274SOL     OW 2346   3.829   2.875   3.588
 4274SOL    HW1 2347   3.752   2.842   3.642
 4274SOL    HW2 2348   3.914   2.845   3.630
 4276SOL     OW 2349   3.799   2.207   1.895
 4276SOL    HW1 2350   3.707   2.179   1.866
 4276SOL    HW2 2351   3.830   2.284   1.839
 4278SOL     OW 2352   3.796   2.028   2.180
 4278SOL    HW1 2353   3.779   2.111   2.126
 4278SOL    HW2 2354   3.886   1.991   2.158
 4280SOL     OW 2355   4.337   2.704   3.293
 4280SOL    HW1 2356   4.393   2.785   3.276
 4280SOL    HW2 2357   4.396   2.624   3.296
 4286SOL     OW 2358   4.318   2.607   2.514
 4286SOL    HW1 2359   4.368   2.692   2.495
 4286SOL    HW2 2360   4.230   2.609   2.466
 4291SOL     OW 2361   3.945   3.176   3.706
 4291SOL    HW1 2362   3.880   3.103   3.685
 4291SOL    HW2 2363   3.949   3.190   3.804
 4292SOL     OW 2364   3.803   3.102   2.515
 4292SOL    HW1 2365   3.802   3.055   2.603
 4292SOL    HW2 2366   3.885   3.074   2.464
 4294SOL     OW 2367   4.152   2.286   2.382
 4294SOL    HW1 2368   4.182   2.214   2.320
 4294SOL    HW2 2369   4.113   2.246   2.465
 4295SOL     OW 2370   4.041   2.409   3.142
 4295SOL    HW1 2371   4.079   2.350   3.214
 4295SOL    HW2 2372   4.081   2.383   3.054
 4304SOL     OW 2373   3.763   2.939   2.162
 4304SOL    HW1 2374   3.862   2.928   2.153
 4304SOL    HW2 2375   3.723   2.853   2.194
 4306SOL     OW 2376   3.954   2.490   3.837
 4306SOL    HW1 2377   3.861   2.488   3.874
 4306SOL    HW2 2378   3.955   2.451   3.745
 4323SOL     OW 2379   3.751   3.458   3.841
 4323SOL    HW1 2380   3.732   3.362   3.862
 4323SOL    HW2 2381   3.718   3.516   3.916
 4403SOL     OW 2382   3.732   3.188   3.924
 4403SOL    HW1 2383   3.639   3.209   3.893
 4403SOL    HW2 2384   3.742   3.089   3.937
 4432SOL     OW 2385   3.799   2.207   3.757
 4432SOL    HW1 2386   3.707   2.179   3.728
 4432SOL    HW2 2387   3.830   2.284   3.701
 4456SOL     OW 2388   3.763   2.939   4.024
 4456SOL    HW1 2389   3.862   2.928   4.015
 4456SOL    HW2 2390   3.723   2.853   4.056
 4697SOL     OW 2391   4.031   3.787   2.480
 4697SOL    HW1 2392   4.020   3.881   2.513
 4697SOL    HW2 2393   4.026   3.724   2.557
 4735SOL     OW 2394   3.796   3.890   2.180
 4735SOL    HW1 2395   3.779   3.973   2.126
 4735SOL    HW2 2396   3.886   3.853   2.158
   5.32001   5.32001   5.32001
