; mobley_9407874_GMX.itp created by acpype (v: 2023.10.27) on Thu May 21 00:17:18 2026

[ atomtypes ]
;name   bond_type     mass     charge   ptype   sigma         epsilon       Amb
 c        c           0.00000  0.00000   A     3.31521e-01   4.13379e-01 ; 1.86  0.0988
 c3       c3          0.00000  0.00000   A     3.39771e-01   4.51035e-01 ; 1.91  0.1078
 o        o           0.00000  0.00000   A     3.04812e-01   6.12119e-01 ; 1.71  0.1463
 hc       hc          0.00000  0.00000   A     2.60018e-01   8.70272e-02 ; 1.46  0.0208

[ moleculetype ]
;name            nrexcl
 mobley_9407874   3

[ atoms ]
;   nr  type  resi  res  atom  cgnr     charge      mass       ; qtot   bond_type
     1    c     1   MOL    C1    1     0.564102     12.01000 ; qtot 0.564
     2   c3     1   MOL    C2    2    -0.205100     12.01000 ; qtot 0.359
     3   c3     1   MOL    C3    3    -0.093100     12.01000 ; qtot 0.266
     4   c3     1   MOL    C4    4    -0.182400     12.01000 ; qtot 0.084
     5   c3     1   MOL    C5    5    -0.080400     12.01000 ; qtot 0.003
     6   c3     1   MOL    C6    6    -0.075400     12.01000 ; qtot -0.072
     7   c3     1   MOL    C7    7    -0.079400     12.01000 ; qtot -0.152
     8   c3     1   MOL    C8    8    -0.078400     12.01000 ; qtot -0.230
     9    o     1   MOL    O1    9    -0.530100     16.00000 ; qtot -0.760
    10   hc     1   MOL    H1   10     0.063033      1.00800 ; qtot -0.697
    11   hc     1   MOL    H2   11     0.063033      1.00800 ; qtot -0.634
    12   hc     1   MOL    H3   12     0.063033      1.00800 ; qtot -0.571
    13   hc     1   MOL    H4   13     0.033033      1.00800 ; qtot -0.538
    14   hc     1   MOL    H5   14     0.033033      1.00800 ; qtot -0.505
    15   hc     1   MOL    H6   15     0.033033      1.00800 ; qtot -0.472
    16   hc     1   MOL    H7   16     0.063700      1.00800 ; qtot -0.408
    17   hc     1   MOL    H8   17     0.063700      1.00800 ; qtot -0.345
    18   hc     1   MOL    H9   18     0.037700      1.00800 ; qtot -0.307
    19   hc     1   MOL   H10   19     0.037700      1.00800 ; qtot -0.269
    20   hc     1   MOL   H11   20     0.055200      1.00800 ; qtot -0.214
    21   hc     1   MOL   H12   21     0.055200      1.00800 ; qtot -0.159
    22   hc     1   MOL   H13   22     0.042200      1.00800 ; qtot -0.117
    23   hc     1   MOL   H14   23     0.042200      1.00800 ; qtot -0.074
    24   hc     1   MOL   H15   24     0.037200      1.00800 ; qtot -0.037
    25   hc     1   MOL   H16   25     0.037200      1.00800 ; qtot 0.000

[ bonds ]
;   ai     aj funct   r             k
     1      2   1    1.5270e-01    1.9652e+05 ;     C1 - C2    
     1      4   1    1.5270e-01    1.9652e+05 ;     C1 - C4    
     1      9   1    1.2190e-01    4.9421e+05 ;     C1 - O1    
     2     10   1    1.0962e-01    2.8891e+05 ;     C2 - H1    
     2     11   1    1.0962e-01    2.8891e+05 ;     C2 - H2    
     2     12   1    1.0962e-01    2.8891e+05 ;     C2 - H3    
     3      5   1    1.5354e-01    1.9154e+05 ;     C3 - C5    
     3     13   1    1.0962e-01    2.8891e+05 ;     C3 - H4    
     3     14   1    1.0962e-01    2.8891e+05 ;     C3 - H5    
     3     15   1    1.0962e-01    2.8891e+05 ;     C3 - H6    
     4      6   1    1.5354e-01    1.9154e+05 ;     C4 - C6    
     4     16   1    1.0962e-01    2.8891e+05 ;     C4 - H7    
     4     17   1    1.0962e-01    2.8891e+05 ;     C4 - H8    
     5      7   1    1.5354e-01    1.9154e+05 ;     C5 - C7    
     5     18   1    1.0962e-01    2.8891e+05 ;     C5 - H9    
     5     19   1    1.0962e-01    2.8891e+05 ;     C5 - H10   
     6      8   1    1.5354e-01    1.9154e+05 ;     C6 - C8    
     6     20   1    1.0962e-01    2.8891e+05 ;     C6 - H11   
     6     21   1    1.0962e-01    2.8891e+05 ;     C6 - H12   
     7      8   1    1.5354e-01    1.9154e+05 ;     C7 - C8    
     7     22   1    1.0962e-01    2.8891e+05 ;     C7 - H13   
     7     23   1    1.0962e-01    2.8891e+05 ;     C7 - H14   
     8     24   1    1.0962e-01    2.8891e+05 ;     C8 - H15   
     8     25   1    1.0962e-01    2.8891e+05 ;     C8 - H16   

[ pairs ]
;   ai     aj    funct
     1      8      1 ;     C1 - C8    
     1     20      1 ;     C1 - H11   
     1     21      1 ;     C1 - H12   
     2      6      1 ;     C2 - C6    
     2     16      1 ;     C2 - H7    
     2     17      1 ;     C2 - H8    
     3      8      1 ;     C3 - C8    
     3     22      1 ;     C3 - H13   
     3     23      1 ;     C3 - H14   
     4      7      1 ;     C4 - C7    
     4     10      1 ;     C4 - H1    
     4     11      1 ;     C4 - H2    
     4     12      1 ;     C4 - H3    
     4     24      1 ;     C4 - H15   
     4     25      1 ;     C4 - H16   
     5      6      1 ;     C5 - C6    
     5     24      1 ;     C5 - H15   
     5     25      1 ;     C5 - H16   
     6     22      1 ;     C6 - H13   
     6     23      1 ;     C6 - H14   
     7     13      1 ;     C7 - H4    
     7     14      1 ;     C7 - H5    
     7     15      1 ;     C7 - H6    
     7     20      1 ;     C7 - H11   
     7     21      1 ;     C7 - H12   
     8     16      1 ;     C8 - H7    
     8     17      1 ;     C8 - H8    
     8     18      1 ;     C8 - H9    
     8     19      1 ;     C8 - H10   
     9      6      1 ;     O1 - C6    
     9     10      1 ;     O1 - H1    
     9     11      1 ;     O1 - H2    
     9     12      1 ;     O1 - H3    
     9     16      1 ;     O1 - H7    
     9     17      1 ;     O1 - H8    
    13     18      1 ;     H4 - H9    
    13     19      1 ;     H4 - H10   
    14     18      1 ;     H5 - H9    
    14     19      1 ;     H5 - H10   
    15     18      1 ;     H6 - H9    
    15     19      1 ;     H6 - H10   
    16     20      1 ;     H7 - H11   
    16     21      1 ;     H7 - H12   
    17     20      1 ;     H8 - H11   
    17     21      1 ;     H8 - H12   
    18     22      1 ;     H9 - H13   
    18     23      1 ;     H9 - H14   
    19     22      1 ;    H10 - H13   
    19     23      1 ;    H10 - H14   
    20     24      1 ;    H11 - H15   
    20     25      1 ;    H11 - H16   
    21     24      1 ;    H12 - H15   
    21     25      1 ;    H12 - H16   
    22     24      1 ;    H13 - H15   
    22     25      1 ;    H13 - H16   
    23     24      1 ;    H14 - H15   
    23     25      1 ;    H14 - H16   

[ angles ]
;   ai     aj     ak    funct   theta         cth
     1      2     10      1    1.0895e+02    3.6510e+02 ;     C1 - C2     - H1    
     1      2     11      1    1.0895e+02    3.6510e+02 ;     C1 - C2     - H2    
     1      2     12      1    1.0895e+02    3.6510e+02 ;     C1 - C2     - H3    
     1      4      6      1    1.1143e+02    5.0509e+02 ;     C1 - C4     - C6    
     1      4     16      1    1.0895e+02    3.6510e+02 ;     C1 - C4     - H7    
     1      4     17      1    1.0895e+02    3.6510e+02 ;     C1 - C4     - H8    
     2      1      4      1    1.1668e+02    4.9497e+02 ;     C2 - C1     - C4    
     2      1      9      1    1.2290e+02    6.3973e+02 ;     C2 - C1     - O1    
     3      5      7      1    1.1263e+02    5.0099e+02 ;     C3 - C5     - C7    
     3      5     18      1    1.0968e+02    3.6208e+02 ;     C3 - C5     - H9    
     3      5     19      1    1.0968e+02    3.6208e+02 ;     C3 - C5     - H10   
     4      1      9      1    1.2290e+02    6.3973e+02 ;     C4 - C1     - O1    
     4      6      8      1    1.1263e+02    5.0099e+02 ;     C4 - C6     - C8    
     4      6     20      1    1.0968e+02    3.6208e+02 ;     C4 - C6     - H11   
     4      6     21      1    1.0968e+02    3.6208e+02 ;     C4 - C6     - H12   
     5      3     13      1    1.0968e+02    3.6208e+02 ;     C5 - C3     - H4    
     5      3     14      1    1.0968e+02    3.6208e+02 ;     C5 - C3     - H5    
     5      3     15      1    1.0968e+02    3.6208e+02 ;     C5 - C3     - H6    
     5      7      8      1    1.1263e+02    5.0099e+02 ;     C5 - C7     - C8    
     5      7     22      1    1.0968e+02    3.6208e+02 ;     C5 - C7     - H13   
     5      7     23      1    1.0968e+02    3.6208e+02 ;     C5 - C7     - H14   
     6      4     16      1    1.0968e+02    3.6208e+02 ;     C6 - C4     - H7    
     6      4     17      1    1.0968e+02    3.6208e+02 ;     C6 - C4     - H8    
     6      8      7      1    1.1263e+02    5.0099e+02 ;     C6 - C8     - C7    
     6      8     24      1    1.0968e+02    3.6208e+02 ;     C6 - C8     - H15   
     6      8     25      1    1.0968e+02    3.6208e+02 ;     C6 - C8     - H16   
     7      5     18      1    1.0968e+02    3.6208e+02 ;     C7 - C5     - H9    
     7      5     19      1    1.0968e+02    3.6208e+02 ;     C7 - C5     - H10   
     7      8     24      1    1.0968e+02    3.6208e+02 ;     C7 - C8     - H15   
     7      8     25      1    1.0968e+02    3.6208e+02 ;     C7 - C8     - H16   
     8      6     20      1    1.0968e+02    3.6208e+02 ;     C8 - C6     - H11   
     8      6     21      1    1.0968e+02    3.6208e+02 ;     C8 - C6     - H12   
     8      7     22      1    1.0968e+02    3.6208e+02 ;     C8 - C7     - H13   
     8      7     23      1    1.0968e+02    3.6208e+02 ;     C8 - C7     - H14   
    10      2     11      1    1.0773e+02    2.9957e+02 ;     H1 - C2     - H2    
    10      2     12      1    1.0773e+02    2.9957e+02 ;     H1 - C2     - H3    
    11      2     12      1    1.0773e+02    2.9957e+02 ;     H2 - C2     - H3    
    13      3     14      1    1.0773e+02    2.9957e+02 ;     H4 - C3     - H5    
    13      3     15      1    1.0773e+02    2.9957e+02 ;     H4 - C3     - H6    
    14      3     15      1    1.0773e+02    2.9957e+02 ;     H5 - C3     - H6    
    16      4     17      1    1.0773e+02    2.9957e+02 ;     H7 - C4     - H8    
    18      5     19      1    1.0773e+02    2.9957e+02 ;     H9 - C5     - H10   
    20      6     21      1    1.0773e+02    2.9957e+02 ;    H11 - C6     - H12   
    22      7     23      1    1.0773e+02    2.9957e+02 ;    H13 - C7     - H14   
    24      8     25      1    1.0773e+02    2.9957e+02 ;    H15 - C8     - H16   

[ dihedrals ] ; propers
; for gromacs 4.5 or higher, using funct 9
;    i      j      k      l   func   phase     kd      pn
     1      4      6      8      9     0.00   0.00000   0 ;     C1-    C4-    C6-    C8
     1      4      6      8      9     0.00   0.16736   2 ;     C1-    C4-    C6-    C8
     1      4      6      8      9   180.00   1.92464   1 ;     C1-    C4-    C6-    C8
     1      4      6     20      9     0.00   0.65084   3 ;     C1-    C4-    C6-   H11
     1      4      6     21      9     0.00   0.65084   3 ;     C1-    C4-    C6-   H12
     2      1      4      6      9   180.00   1.09621   2 ;     C2-    C1-    C4-    C6
     2      1      4     16      9   180.00   0.00000   3 ;     C2-    C1-    C4-    H7
     2      1      4     17      9   180.00   0.00000   3 ;     C2-    C1-    C4-    H8
     3      5      7      8      9     0.00   2.17568   3 ;     C3-    C5-    C7-    C8
     3      5      7     22      9     0.00   0.54392   3 ;     C3-    C5-    C7-   H13
     3      5      7     23      9     0.00   0.54392   3 ;     C3-    C5-    C7-   H14
     4      1      2     10      9   180.00   0.00000   3 ;     C4-    C1-    C2-    H1
     4      1      2     11      9   180.00   0.00000   3 ;     C4-    C1-    C2-    H2
     4      1      2     12      9   180.00   0.00000   3 ;     C4-    C1-    C2-    H3
     4      6      8      7      9     0.00   2.17568   3 ;     C4-    C6-    C8-    C7
     4      6      8     24      9     0.00   0.54392   3 ;     C4-    C6-    C8-   H15
     4      6      8     25      9     0.00   0.54392   3 ;     C4-    C6-    C8-   H16
     5      7      8      6      9     0.00   2.17568   3 ;     C5-    C7-    C8-    C6
     5      7      8     24      9     0.00   0.54392   3 ;     C5-    C7-    C8-   H15
     5      7      8     25      9     0.00   0.54392   3 ;     C5-    C7-    C8-   H16
     6      8      7     22      9     0.00   0.54392   3 ;     C6-    C8-    C7-   H13
     6      8      7     23      9     0.00   0.54392   3 ;     C6-    C8-    C7-   H14
     7      5      3     13      9     0.00   0.54392   3 ;     C7-    C5-    C3-    H4
     7      5      3     14      9     0.00   0.54392   3 ;     C7-    C5-    C3-    H5
     7      5      3     15      9     0.00   0.54392   3 ;     C7-    C5-    C3-    H6
     7      8      6     20      9     0.00   0.54392   3 ;     C7-    C8-    C6-   H11
     7      8      6     21      9     0.00   0.54392   3 ;     C7-    C8-    C6-   H12
     8      6      4     16      9     0.00   0.54392   3 ;     C8-    C6-    C4-    H7
     8      6      4     17      9     0.00   0.54392   3 ;     C8-    C6-    C4-    H8
     8      7      5     18      9     0.00   0.54392   3 ;     C8-    C7-    C5-    H9
     8      7      5     19      9     0.00   0.54392   3 ;     C8-    C7-    C5-   H10
     9      1      2     10      9     0.00  16.86152   1 ;     O1-    C1-    C2-    H1
     9      1      2     10      9   180.00  15.31344   2 ;     O1-    C1-    C2-    H1
     9      1      2     11      9     0.00  16.86152   1 ;     O1-    C1-    C2-    H2
     9      1      2     11      9   180.00  15.31344   2 ;     O1-    C1-    C2-    H2
     9      1      2     12      9     0.00  16.86152   1 ;     O1-    C1-    C2-    H3
     9      1      2     12      9   180.00  15.31344   2 ;     O1-    C1-    C2-    H3
     9      1      4      6      9     0.00   2.84512   1 ;     O1-    C1-    C4-    C6
     9      1      4      6      9   180.00   0.83680   2 ;     O1-    C1-    C4-    C6
     9      1      4      6      9   180.00   1.84096   3 ;     O1-    C1-    C4-    C6
     9      1      4     16      9     0.00  16.86152   1 ;     O1-    C1-    C4-    H7
     9      1      4     16      9   180.00  15.31344   2 ;     O1-    C1-    C4-    H7
     9      1      4     17      9     0.00  16.86152   1 ;     O1-    C1-    C4-    H8
     9      1      4     17      9   180.00  15.31344   2 ;     O1-    C1-    C4-    H8
    13      3      5     18      9     0.00   0.50208   3 ;     H4-    C3-    C5-    H9
    13      3      5     19      9     0.00   0.50208   3 ;     H4-    C3-    C5-   H10
    14      3      5     18      9     0.00   0.50208   3 ;     H5-    C3-    C5-    H9
    14      3      5     19      9     0.00   0.50208   3 ;     H5-    C3-    C5-   H10
    15      3      5     18      9     0.00   0.50208   3 ;     H6-    C3-    C5-    H9
    15      3      5     19      9     0.00   0.50208   3 ;     H6-    C3-    C5-   H10
    16      4      6     20      9     0.00   0.50208   3 ;     H7-    C4-    C6-   H11
    16      4      6     21      9     0.00   0.50208   3 ;     H7-    C4-    C6-   H12
    17      4      6     20      9     0.00   0.50208   3 ;     H8-    C4-    C6-   H11
    17      4      6     21      9     0.00   0.50208   3 ;     H8-    C4-    C6-   H12
    18      5      7     22      9     0.00   0.50208   3 ;     H9-    C5-    C7-   H13
    18      5      7     23      9     0.00   0.50208   3 ;     H9-    C5-    C7-   H14
    19      5      7     22      9     0.00   0.50208   3 ;    H10-    C5-    C7-   H13
    19      5      7     23      9     0.00   0.50208   3 ;    H10-    C5-    C7-   H14
    20      6      8     24      9     0.00   0.50208   3 ;    H11-    C6-    C8-   H15
    20      6      8     25      9     0.00   0.50208   3 ;    H11-    C6-    C8-   H16
    21      6      8     24      9     0.00   0.50208   3 ;    H12-    C6-    C8-   H15
    21      6      8     25      9     0.00   0.50208   3 ;    H12-    C6-    C8-   H16
    22      7      8     24      9     0.00   0.50208   3 ;    H13-    C7-    C8-   H15
    22      7      8     25      9     0.00   0.50208   3 ;    H13-    C7-    C8-   H16
    23      7      8     24      9     0.00   0.50208   3 ;    H14-    C7-    C8-   H15
    23      7      8     25      9     0.00   0.50208   3 ;    H14-    C7-    C8-   H16

[ dihedrals ] ; impropers
; treated as propers in GROMACS to use correct AMBER analytical function
;    i      j      k      l   func   phase     kd      pn
     9      1      4      2      4   180.00   4.60240   2 ;     O1-    C1-    C4-    C2
