; mobley_6248915_GMX.itp created by acpype (v: 2023.10.27) on Thu May 21 00:20:27 2026

[ atomtypes ]
;name   bond_type     mass     charge   ptype   sigma         epsilon       Amb
 c3       c3          0.00000  0.00000   A     3.39771e-01   4.51035e-01 ; 1.91  0.1078
 n8       n8          0.00000  0.00000   A     3.65019e-01   1.35143e-01 ; 2.05  0.0323
 hc       hc          0.00000  0.00000   A     2.60018e-01   8.70272e-02 ; 1.46  0.0208
 h1       h1          0.00000  0.00000   A     2.42200e-01   8.70272e-02 ; 1.36  0.0208
 hn       hn          0.00000  0.00000   A     1.10650e-01   4.18400e-02 ; 0.62  0.0100

[ moleculetype ]
;name            nrexcl
 mobley_6248915   3

[ atoms ]
;   nr  type  resi  res  atom  cgnr     charge      mass       ; qtot   bond_type
     1   c3     1   MOL    C1    1    -0.092100     12.01000 ; qtot -0.092
     2   c3     1   MOL    C2    2    -0.080400     12.01000 ; qtot -0.172
     3   c3     1   MOL    C3    3    -0.079400     12.01000 ; qtot -0.252
     4   c3     1   MOL    C4    4    -0.079400     12.01000 ; qtot -0.331
     5   c3     1   MOL    C5    5    -0.078400     12.01000 ; qtot -0.410
     6   c3     1   MOL    C6    6    -0.079400     12.01000 ; qtot -0.489
     7   c3     1   MOL    C7    7    -0.083400     12.01000 ; qtot -0.573
     8   c3     1   MOL    C8    8     0.158800     12.01000 ; qtot -0.414
     9   n8     1   MOL    N1    9    -0.915800     14.01000 ; qtot -1.330
    10   hc     1   MOL    H1   10     0.032700      1.00800 ; qtot -1.297
    11   hc     1   MOL    H2   11     0.032700      1.00800 ; qtot -1.264
    12   hc     1   MOL    H3   12     0.032700      1.00800 ; qtot -1.231
    13   hc     1   MOL    H4   13     0.038200      1.00800 ; qtot -1.193
    14   hc     1   MOL    H5   14     0.038200      1.00800 ; qtot -1.155
    15   hc     1   MOL    H6   15     0.039700      1.00800 ; qtot -1.115
    16   hc     1   MOL    H7   16     0.039700      1.00800 ; qtot -1.076
    17   hc     1   MOL    H8   17     0.039200      1.00800 ; qtot -1.036
    18   hc     1   MOL    H9   18     0.039200      1.00800 ; qtot -0.997
    19   hc     1   MOL   H10   19     0.040700      1.00800 ; qtot -0.957
    20   hc     1   MOL   H11   20     0.040700      1.00800 ; qtot -0.916
    21   hc     1   MOL   H12   21     0.040200      1.00800 ; qtot -0.876
    22   hc     1   MOL   H13   22     0.040200      1.00800 ; qtot -0.835
    23   hc     1   MOL   H14   23     0.046200      1.00800 ; qtot -0.789
    24   hc     1   MOL   H15   24     0.046200      1.00800 ; qtot -0.743
    25   h1     1   MOL   H16   25     0.023700      1.00800 ; qtot -0.719
    26   h1     1   MOL   H17   26     0.023700      1.00800 ; qtot -0.696
    27   hn     1   MOL   H18   27     0.347800      1.00800 ; qtot -0.348
    28   hn     1   MOL   H19   28     0.347800      1.00800 ; qtot -0.000

[ bonds ]
;   ai     aj funct   r             k
     1      2   1    1.5354e-01    1.9154e+05 ;     C1 - C2    
     1     10   1    1.0962e-01    2.8891e+05 ;     C1 - H1    
     1     11   1    1.0962e-01    2.8891e+05 ;     C1 - H2    
     1     12   1    1.0962e-01    2.8891e+05 ;     C1 - H3    
     2      3   1    1.5354e-01    1.9154e+05 ;     C2 - C3    
     2     13   1    1.0962e-01    2.8891e+05 ;     C2 - H4    
     2     14   1    1.0962e-01    2.8891e+05 ;     C2 - H5    
     3      4   1    1.5354e-01    1.9154e+05 ;     C3 - C4    
     3     15   1    1.0962e-01    2.8891e+05 ;     C3 - H6    
     3     16   1    1.0962e-01    2.8891e+05 ;     C3 - H7    
     4      5   1    1.5354e-01    1.9154e+05 ;     C4 - C5    
     4     17   1    1.0962e-01    2.8891e+05 ;     C4 - H8    
     4     18   1    1.0962e-01    2.8891e+05 ;     C4 - H9    
     5      6   1    1.5354e-01    1.9154e+05 ;     C5 - C6    
     5     19   1    1.0962e-01    2.8891e+05 ;     C5 - H10   
     5     20   1    1.0962e-01    2.8891e+05 ;     C5 - H11   
     6      7   1    1.5354e-01    1.9154e+05 ;     C6 - C7    
     6     21   1    1.0962e-01    2.8891e+05 ;     C6 - H12   
     6     22   1    1.0962e-01    2.8891e+05 ;     C6 - H13   
     7      8   1    1.5354e-01    1.9154e+05 ;     C7 - C8    
     7     23   1    1.0962e-01    2.8891e+05 ;     C7 - H14   
     7     24   1    1.0962e-01    2.8891e+05 ;     C7 - H15   
     8      9   1    1.4651e-01    2.1239e+05 ;     C8 - N1    
     8     25   1    1.0969e-01    2.8804e+05 ;     C8 - H16   
     8     26   1    1.0969e-01    2.8804e+05 ;     C8 - H17   
     9     27   1    1.0192e-01    3.8550e+05 ;     N1 - H18   
     9     28   1    1.0192e-01    3.8550e+05 ;     N1 - H19   

[ pairs ]
;   ai     aj    funct
     1      4      1 ;     C1 - C4    
     1     15      1 ;     C1 - H6    
     1     16      1 ;     C1 - H7    
     2      5      1 ;     C2 - C5    
     2     17      1 ;     C2 - H8    
     2     18      1 ;     C2 - H9    
     3      6      1 ;     C3 - C6    
     3     19      1 ;     C3 - H10   
     3     20      1 ;     C3 - H11   
     4      7      1 ;     C4 - C7    
     4     13      1 ;     C4 - H4    
     4     14      1 ;     C4 - H5    
     4     21      1 ;     C4 - H12   
     4     22      1 ;     C4 - H13   
     5      8      1 ;     C5 - C8    
     5     15      1 ;     C5 - H6    
     5     16      1 ;     C5 - H7    
     5     23      1 ;     C5 - H14   
     5     24      1 ;     C5 - H15   
     6      9      1 ;     C6 - N1    
     6     17      1 ;     C6 - H8    
     6     18      1 ;     C6 - H9    
     6     25      1 ;     C6 - H16   
     6     26      1 ;     C6 - H17   
     7     19      1 ;     C7 - H10   
     7     20      1 ;     C7 - H11   
     7     27      1 ;     C7 - H18   
     7     28      1 ;     C7 - H19   
     8     21      1 ;     C8 - H12   
     8     22      1 ;     C8 - H13   
     9     23      1 ;     N1 - H14   
     9     24      1 ;     N1 - H15   
    10      3      1 ;     H1 - C3    
    10     13      1 ;     H1 - H4    
    10     14      1 ;     H1 - H5    
    11      3      1 ;     H2 - C3    
    11     13      1 ;     H2 - H4    
    11     14      1 ;     H2 - H5    
    12      3      1 ;     H3 - C3    
    12     13      1 ;     H3 - H4    
    12     14      1 ;     H3 - H5    
    13     15      1 ;     H4 - H6    
    13     16      1 ;     H4 - H7    
    14     15      1 ;     H5 - H6    
    14     16      1 ;     H5 - H7    
    15     17      1 ;     H6 - H8    
    15     18      1 ;     H6 - H9    
    16     17      1 ;     H7 - H8    
    16     18      1 ;     H7 - H9    
    17     19      1 ;     H8 - H10   
    17     20      1 ;     H8 - H11   
    18     19      1 ;     H9 - H10   
    18     20      1 ;     H9 - H11   
    19     21      1 ;    H10 - H12   
    19     22      1 ;    H10 - H13   
    20     21      1 ;    H11 - H12   
    20     22      1 ;    H11 - H13   
    21     23      1 ;    H12 - H14   
    21     24      1 ;    H12 - H15   
    22     23      1 ;    H13 - H14   
    22     24      1 ;    H13 - H15   
    23     25      1 ;    H14 - H16   
    23     26      1 ;    H14 - H17   
    24     25      1 ;    H15 - H16   
    24     26      1 ;    H15 - H17   
    25     27      1 ;    H16 - H18   
    25     28      1 ;    H16 - H19   
    26     27      1 ;    H17 - H18   
    26     28      1 ;    H17 - H19   

[ angles ]
;   ai     aj     ak    funct   theta         cth
     1      2      3      1    1.1263e+02    5.0099e+02 ;     C1 - C2     - C3    
     1      2     13      1    1.0968e+02    3.6208e+02 ;     C1 - C2     - H4    
     1      2     14      1    1.0968e+02    3.6208e+02 ;     C1 - C2     - H5    
     2      1     10      1    1.0968e+02    3.6208e+02 ;     C2 - C1     - H1    
     2      1     11      1    1.0968e+02    3.6208e+02 ;     C2 - C1     - H2    
     2      1     12      1    1.0968e+02    3.6208e+02 ;     C2 - C1     - H3    
     2      3      4      1    1.1263e+02    5.0099e+02 ;     C2 - C3     - C4    
     2      3     15      1    1.0968e+02    3.6208e+02 ;     C2 - C3     - H6    
     2      3     16      1    1.0968e+02    3.6208e+02 ;     C2 - C3     - H7    
     3      2     13      1    1.0968e+02    3.6208e+02 ;     C3 - C2     - H4    
     3      2     14      1    1.0968e+02    3.6208e+02 ;     C3 - C2     - H5    
     3      4      5      1    1.1263e+02    5.0099e+02 ;     C3 - C4     - C5    
     3      4     17      1    1.0968e+02    3.6208e+02 ;     C3 - C4     - H8    
     3      4     18      1    1.0968e+02    3.6208e+02 ;     C3 - C4     - H9    
     4      3     15      1    1.0968e+02    3.6208e+02 ;     C4 - C3     - H6    
     4      3     16      1    1.0968e+02    3.6208e+02 ;     C4 - C3     - H7    
     4      5      6      1    1.1263e+02    5.0099e+02 ;     C4 - C5     - C6    
     4      5     19      1    1.0968e+02    3.6208e+02 ;     C4 - C5     - H10   
     4      5     20      1    1.0968e+02    3.6208e+02 ;     C4 - C5     - H11   
     5      4     17      1    1.0968e+02    3.6208e+02 ;     C5 - C4     - H8    
     5      4     18      1    1.0968e+02    3.6208e+02 ;     C5 - C4     - H9    
     5      6      7      1    1.1263e+02    5.0099e+02 ;     C5 - C6     - C7    
     5      6     21      1    1.0968e+02    3.6208e+02 ;     C5 - C6     - H12   
     5      6     22      1    1.0968e+02    3.6208e+02 ;     C5 - C6     - H13   
     6      5     19      1    1.0968e+02    3.6208e+02 ;     C6 - C5     - H10   
     6      5     20      1    1.0968e+02    3.6208e+02 ;     C6 - C5     - H11   
     6      7      8      1    1.1263e+02    5.0099e+02 ;     C6 - C7     - C8    
     6      7     23      1    1.0968e+02    3.6208e+02 ;     C6 - C7     - H14   
     6      7     24      1    1.0968e+02    3.6208e+02 ;     C6 - C7     - H15   
     7      6     21      1    1.0968e+02    3.6208e+02 ;     C7 - C6     - H12   
     7      6     22      1    1.0968e+02    3.6208e+02 ;     C7 - C6     - H13   
     7      8      9      1    1.1091e+02    5.4794e+02 ;     C7 - C8     - N1    
     7      8     25      1    1.0959e+02    3.6217e+02 ;     C7 - C8     - H16   
     7      8     26      1    1.0959e+02    3.6217e+02 ;     C7 - C8     - H17   
     8      7     23      1    1.0968e+02    3.6208e+02 ;     C8 - C7     - H14   
     8      7     24      1    1.0968e+02    3.6208e+02 ;     C8 - C7     - H15   
     8      9     27      1    1.0961e+02    4.7003e+02 ;     C8 - N1     - H18   
     8      9     28      1    1.0961e+02    4.7003e+02 ;     C8 - N1     - H19   
     9      8     25      1    1.0812e+02    4.0342e+02 ;     N1 - C8     - H16   
     9      8     26      1    1.0812e+02    4.0342e+02 ;     N1 - C8     - H17   
    10      1     11      1    1.0773e+02    2.9957e+02 ;     H1 - C1     - H2    
    10      1     12      1    1.0773e+02    2.9957e+02 ;     H1 - C1     - H3    
    11      1     12      1    1.0773e+02    2.9957e+02 ;     H2 - C1     - H3    
    13      2     14      1    1.0773e+02    2.9957e+02 ;     H4 - C2     - H5    
    15      3     16      1    1.0773e+02    2.9957e+02 ;     H6 - C3     - H7    
    17      4     18      1    1.0773e+02    2.9957e+02 ;     H8 - C4     - H9    
    19      5     20      1    1.0773e+02    2.9957e+02 ;    H10 - C5     - H11   
    21      6     22      1    1.0773e+02    2.9957e+02 ;    H12 - C6     - H13   
    23      7     24      1    1.0773e+02    2.9957e+02 ;    H14 - C7     - H15   
    25      8     26      1    1.0855e+02    2.9824e+02 ;    H16 - C8     - H17   
    27      9     28      1    1.0638e+02    4.0074e+02 ;    H18 - N1     - H19   

[ dihedrals ] ; propers
; for gromacs 4.5 or higher, using funct 9
;    i      j      k      l   func   phase     kd      pn
     1      2      3      4      9     0.00   2.17568   3 ;     C1-    C2-    C3-    C4
     1      2      3     15      9     0.00   0.54392   3 ;     C1-    C2-    C3-    H6
     1      2      3     16      9     0.00   0.54392   3 ;     C1-    C2-    C3-    H7
     2      3      4      5      9     0.00   2.17568   3 ;     C2-    C3-    C4-    C5
     2      3      4     17      9     0.00   0.54392   3 ;     C2-    C3-    C4-    H8
     2      3      4     18      9     0.00   0.54392   3 ;     C2-    C3-    C4-    H9
     3      4      5      6      9     0.00   2.17568   3 ;     C3-    C4-    C5-    C6
     3      4      5     19      9     0.00   0.54392   3 ;     C3-    C4-    C5-   H10
     3      4      5     20      9     0.00   0.54392   3 ;     C3-    C4-    C5-   H11
     4      3      2     13      9     0.00   0.54392   3 ;     C4-    C3-    C2-    H4
     4      3      2     14      9     0.00   0.54392   3 ;     C4-    C3-    C2-    H5
     4      5      6      7      9     0.00   2.17568   3 ;     C4-    C5-    C6-    C7
     4      5      6     21      9     0.00   0.54392   3 ;     C4-    C5-    C6-   H12
     4      5      6     22      9     0.00   0.54392   3 ;     C4-    C5-    C6-   H13
     5      4      3     15      9     0.00   0.54392   3 ;     C5-    C4-    C3-    H6
     5      4      3     16      9     0.00   0.54392   3 ;     C5-    C4-    C3-    H7
     5      6      7      8      9     0.00   2.17568   3 ;     C5-    C6-    C7-    C8
     5      6      7     23      9     0.00   0.54392   3 ;     C5-    C6-    C7-   H14
     5      6      7     24      9     0.00   0.54392   3 ;     C5-    C6-    C7-   H15
     6      5      4     17      9     0.00   0.54392   3 ;     C6-    C5-    C4-    H8
     6      5      4     18      9     0.00   0.54392   3 ;     C6-    C5-    C4-    H9
     6      7      8      9      9     0.00   2.17568   3 ;     C6-    C7-    C8-    N1
     6      7      8     25      9     0.00   0.65084   3 ;     C6-    C7-    C8-   H16
     6      7      8     26      9     0.00   0.65084   3 ;     C6-    C7-    C8-   H17
     7      6      5     19      9     0.00   0.54392   3 ;     C7-    C6-    C5-   H10
     7      6      5     20      9     0.00   0.54392   3 ;     C7-    C6-    C5-   H11
     7      8      9     27      9   180.00   0.12552   3 ;     C7-    C8-    N1-   H18
     7      8      9     28      9   180.00   0.12552   3 ;     C7-    C8-    N1-   H19
     8      7      6     21      9     0.00   0.54392   3 ;     C8-    C7-    C6-   H12
     8      7      6     22      9     0.00   0.54392   3 ;     C8-    C7-    C6-   H13
     9      8      7     23      9     0.00   0.20920   3 ;     N1-    C8-    C7-   H14
     9      8      7     24      9     0.00   0.20920   3 ;     N1-    C8-    C7-   H15
    10      1      2      3      9     0.00   0.54392   3 ;     H1-    C1-    C2-    C3
    10      1      2     13      9     0.00   0.50208   3 ;     H1-    C1-    C2-    H4
    10      1      2     14      9     0.00   0.50208   3 ;     H1-    C1-    C2-    H5
    11      1      2      3      9     0.00   0.54392   3 ;     H2-    C1-    C2-    C3
    11      1      2     13      9     0.00   0.50208   3 ;     H2-    C1-    C2-    H4
    11      1      2     14      9     0.00   0.50208   3 ;     H2-    C1-    C2-    H5
    12      1      2      3      9     0.00   0.54392   3 ;     H3-    C1-    C2-    C3
    12      1      2     13      9     0.00   0.50208   3 ;     H3-    C1-    C2-    H4
    12      1      2     14      9     0.00   0.50208   3 ;     H3-    C1-    C2-    H5
    13      2      3     15      9     0.00   0.50208   3 ;     H4-    C2-    C3-    H6
    13      2      3     16      9     0.00   0.50208   3 ;     H4-    C2-    C3-    H7
    14      2      3     15      9     0.00   0.50208   3 ;     H5-    C2-    C3-    H6
    14      2      3     16      9     0.00   0.50208   3 ;     H5-    C2-    C3-    H7
    15      3      4     17      9     0.00   0.50208   3 ;     H6-    C3-    C4-    H8
    15      3      4     18      9     0.00   0.50208   3 ;     H6-    C3-    C4-    H9
    16      3      4     17      9     0.00   0.50208   3 ;     H7-    C3-    C4-    H8
    16      3      4     18      9     0.00   0.50208   3 ;     H7-    C3-    C4-    H9
    17      4      5     19      9     0.00   0.50208   3 ;     H8-    C4-    C5-   H10
    17      4      5     20      9     0.00   0.50208   3 ;     H8-    C4-    C5-   H11
    18      4      5     19      9     0.00   0.50208   3 ;     H9-    C4-    C5-   H10
    18      4      5     20      9     0.00   0.50208   3 ;     H9-    C4-    C5-   H11
    19      5      6     21      9     0.00   0.50208   3 ;    H10-    C5-    C6-   H12
    19      5      6     22      9     0.00   0.50208   3 ;    H10-    C5-    C6-   H13
    20      5      6     21      9     0.00   0.50208   3 ;    H11-    C5-    C6-   H12
    20      5      6     22      9     0.00   0.50208   3 ;    H11-    C5-    C6-   H13
    21      6      7     23      9     0.00   0.50208   3 ;    H12-    C6-    C7-   H14
    21      6      7     24      9     0.00   0.50208   3 ;    H12-    C6-    C7-   H15
    22      6      7     23      9     0.00   0.50208   3 ;    H13-    C6-    C7-   H14
    22      6      7     24      9     0.00   0.50208   3 ;    H13-    C6-    C7-   H15
    23      7      8     25      9     0.00   0.65084   3 ;    H14-    C7-    C8-   H16
    23      7      8     26      9     0.00   0.65084   3 ;    H14-    C7-    C8-   H17
    24      7      8     25      9     0.00   0.65084   3 ;    H15-    C7-    C8-   H16
    24      7      8     26      9     0.00   0.65084   3 ;    H15-    C7-    C8-   H17
    25      8      9     27      9     0.00   1.25520   3 ;    H16-    C8-    N1-   H18
    25      8      9     28      9     0.00   1.25520   3 ;    H16-    C8-    N1-   H19
    26      8      9     27      9     0.00   1.25520   3 ;    H17-    C8-    N1-   H18
    26      8      9     28      9     0.00   1.25520   3 ;    H17-    C8-    N1-   H19
