; mobley_7676709_GMX.itp created by acpype (v: 2023.10.27) on Thu May 21 00:15:30 2026

[ atomtypes ]
;name   bond_type     mass     charge   ptype   sigma         epsilon       Amb
 ce       ce          0.00000  0.00000   A     3.31521e-01   4.13379e-01 ; 1.86  0.0988
 c2       c2          0.00000  0.00000   A     3.31521e-01   4.13379e-01 ; 1.86  0.0988
 c        c           0.00000  0.00000   A     3.31521e-01   4.13379e-01 ; 1.86  0.0988
 c6       c6          0.00000  0.00000   A     3.39771e-01   4.51035e-01 ; 1.91  0.1078
 c3       c3          0.00000  0.00000   A     3.39771e-01   4.51035e-01 ; 1.91  0.1078
 o        o           0.00000  0.00000   A     3.04812e-01   6.12119e-01 ; 1.71  0.1463
 ha       ha          0.00000  0.00000   A     2.62548e-01   6.73624e-02 ; 1.47  0.0161
 hc       hc          0.00000  0.00000   A     2.60018e-01   8.70272e-02 ; 1.46  0.0208

[ moleculetype ]
;name            nrexcl
 mobley_7676709   3

[ atoms ]
;   nr  type  resi  res  atom  cgnr     charge      mass       ; qtot   bond_type
     1   ce     1   MOL    C1    1    -0.261200     12.01000 ; qtot -0.261
     2   c2     1   MOL    C2    2    -0.043400     12.01000 ; qtot -0.305
     3    c     1   MOL    C3    3     0.569302     12.01000 ; qtot 0.265
     4   c6     1   MOL    C4    4    -0.061200     12.01000 ; qtot 0.204
     5   c6     1   MOL    C5    5    -0.070400     12.01000 ; qtot 0.133
     6   c6     1   MOL    C6    6    -0.155700     12.01000 ; qtot -0.023
     7   c3     1   MOL    C7    7    -0.072900     12.01000 ; qtot -0.095
     8   c3     1   MOL    C8    8    -0.090100     12.01000 ; qtot -0.186
     9   c3     1   MOL    C9    9    -0.090100     12.01000 ; qtot -0.276
    10   c3     1   MOL   C10   10    -0.061700     12.01000 ; qtot -0.337
    11    o     1   MOL    O1   11    -0.536100     16.00000 ; qtot -0.873
    12   ha     1   MOL    H1   12     0.148000      1.00800 ; qtot -0.725
    13   hc     1   MOL    H2   13     0.057200      1.00800 ; qtot -0.668
    14   hc     1   MOL    H3   14     0.057200      1.00800 ; qtot -0.611
    15   hc     1   MOL    H4   15     0.052700      1.00800 ; qtot -0.558
    16   hc     1   MOL    H5   16     0.052700      1.00800 ; qtot -0.506
    17   hc     1   MOL    H6   17     0.071700      1.00800 ; qtot -0.434
    18   hc     1   MOL    H7   18     0.050700      1.00800 ; qtot -0.383
    19   hc     1   MOL    H8   19     0.050700      1.00800 ; qtot -0.333
    20   hc     1   MOL    H9   20     0.050700      1.00800 ; qtot -0.282
    21   hc     1   MOL   H10   21     0.035033      1.00800 ; qtot -0.247
    22   hc     1   MOL   H11   22     0.035033      1.00800 ; qtot -0.212
    23   hc     1   MOL   H12   23     0.035033      1.00800 ; qtot -0.177
    24   hc     1   MOL   H13   24     0.035033      1.00800 ; qtot -0.142
    25   hc     1   MOL   H14   25     0.035033      1.00800 ; qtot -0.107
    26   hc     1   MOL   H15   26     0.035033      1.00800 ; qtot -0.072
    27   hc     1   MOL   H16   27     0.071700      1.00800 ; qtot 0.000

[ bonds ]
;   ai     aj funct   r             k
     1      2   1    1.3457e-01    3.5505e+05 ;     C1 - C2    
     1      3   1    1.4848e-01    2.2406e+05 ;     C1 - C3    
     1     12   1    1.0880e-01    2.9923e+05 ;     C1 - H1    
     2      4   1    1.5133e-01    2.0498e+05 ;     C2 - C4    
     2      7   1    1.5088e-01    2.0786e+05 ;     C2 - C7    
     3      6   1    1.5287e-01    1.9550e+05 ;     C3 - C6    
     3     11   1    1.2190e-01    4.9421e+05 ;     C3 - O1    
     4      5   1    1.5384e-01    1.8979e+05 ;     C4 - C5    
     4     13   1    1.0979e-01    2.8681e+05 ;     C4 - H2    
     4     14   1    1.0979e-01    2.8681e+05 ;     C4 - H3    
     5      6   1    1.5384e-01    1.8979e+05 ;     C5 - C6    
     5     15   1    1.0979e-01    2.8681e+05 ;     C5 - H4    
     5     16   1    1.0979e-01    2.8681e+05 ;     C5 - H5    
     6     10   1    1.5428e-01    1.8728e+05 ;     C6 - C10   
     6     17   1    1.0979e-01    2.8681e+05 ;     C6 - H6    
     7     18   1    1.0962e-01    2.8891e+05 ;     C7 - H7    
     7     19   1    1.0962e-01    2.8891e+05 ;     C7 - H8    
     7     20   1    1.0962e-01    2.8891e+05 ;     C7 - H9    
     8     10   1    1.5354e-01    1.9154e+05 ;     C8 - C10   
     8     21   1    1.0962e-01    2.8891e+05 ;     C8 - H10   
     8     22   1    1.0962e-01    2.8891e+05 ;     C8 - H11   
     8     23   1    1.0962e-01    2.8891e+05 ;     C8 - H12   
     9     10   1    1.5354e-01    1.9154e+05 ;     C9 - C10   
     9     24   1    1.0962e-01    2.8891e+05 ;     C9 - H13   
     9     25   1    1.0962e-01    2.8891e+05 ;     C9 - H14   
     9     26   1    1.0962e-01    2.8891e+05 ;     C9 - H15   
    10     27   1    1.0962e-01    2.8891e+05 ;    C10 - H16   

[ pairs ]
;   ai     aj    funct
     1      5      1 ;     C1 - C5    
     1     10      1 ;     C1 - C10   
     1     13      1 ;     C1 - H2    
     1     14      1 ;     C1 - H3    
     1     17      1 ;     C1 - H6    
     1     18      1 ;     C1 - H7    
     1     19      1 ;     C1 - H8    
     1     20      1 ;     C1 - H9    
     2      6      1 ;     C2 - C6    
     2     11      1 ;     C2 - O1    
     2     15      1 ;     C2 - H4    
     2     16      1 ;     C2 - H5    
     3      4      1 ;     C3 - C4    
     3      7      1 ;     C3 - C7    
     3      8      1 ;     C3 - C8    
     3      9      1 ;     C3 - C9    
     3     15      1 ;     C3 - H4    
     3     16      1 ;     C3 - H5    
     3     27      1 ;     C3 - H16   
     4     10      1 ;     C4 - C10   
     4     17      1 ;     C4 - H6    
     4     18      1 ;     C4 - H7    
     4     19      1 ;     C4 - H8    
     4     20      1 ;     C4 - H9    
     5      7      1 ;     C5 - C7    
     5      8      1 ;     C5 - C8    
     5      9      1 ;     C5 - C9    
     5     11      1 ;     C5 - O1    
     5     27      1 ;     C5 - H16   
     6     13      1 ;     C6 - H2    
     6     14      1 ;     C6 - H3    
     6     21      1 ;     C6 - H10   
     6     22      1 ;     C6 - H11   
     6     23      1 ;     C6 - H12   
     6     24      1 ;     C6 - H13   
     6     25      1 ;     C6 - H14   
     6     26      1 ;     C6 - H15   
     7     13      1 ;     C7 - H2    
     7     14      1 ;     C7 - H3    
     8     17      1 ;     C8 - H6    
     8     24      1 ;     C8 - H13   
     8     25      1 ;     C8 - H14   
     8     26      1 ;     C8 - H15   
     9     17      1 ;     C9 - H6    
     9     21      1 ;     C9 - H10   
     9     22      1 ;     C9 - H11   
     9     23      1 ;     C9 - H12   
    10     11      1 ;    C10 - O1    
    10     15      1 ;    C10 - H4    
    10     16      1 ;    C10 - H5    
    11     17      1 ;     O1 - H6    
    12      4      1 ;     H1 - C4    
    12      6      1 ;     H1 - C6    
    12      7      1 ;     H1 - C7    
    12     11      1 ;     H1 - O1    
    13     15      1 ;     H2 - H4    
    13     16      1 ;     H2 - H5    
    14     15      1 ;     H3 - H4    
    14     16      1 ;     H3 - H5    
    15     17      1 ;     H4 - H6    
    16     17      1 ;     H5 - H6    
    17     27      1 ;     H6 - H16   
    21     27      1 ;    H10 - H16   
    22     27      1 ;    H11 - H16   
    23     27      1 ;    H12 - H16   
    24     27      1 ;    H13 - H16   
    25     27      1 ;    H14 - H16   
    26     27      1 ;    H15 - H16   

[ angles ]
;   ai     aj     ak    funct   theta         cth
     1      2      4      1    1.2265e+02    5.1212e+02 ;     C1 - C2     - C4    
     1      2      7      1    1.2558e+02    5.0710e+02 ;     C1 - C2     - C7    
     1      3      6      1    1.1615e+02    5.0258e+02 ;     C1 - C3     - C6    
     1      3     11      1    1.2324e+02    6.5262e+02 ;     C1 - C3     - O1    
     2      1      3      1    1.2200e+02    5.1974e+02 ;     C2 - C1     - C3    
     2      1     12      1    1.2000e+02    3.8694e+02 ;     C2 - C1     - H1    
     2      4      5      1    1.1141e+02    5.0685e+02 ;     C2 - C4     - C5    
     2      4     13      1    1.0931e+02    3.6736e+02 ;     C2 - C4     - H2    
     2      4     14      1    1.0931e+02    3.6736e+02 ;     C2 - C4     - H3    
     2      7     18      1    1.1065e+02    3.6618e+02 ;     C2 - C7     - H7    
     2      7     19      1    1.1065e+02    3.6618e+02 ;     C2 - C7     - H8    
     2      7     20      1    1.1065e+02    3.6618e+02 ;     C2 - C7     - H9    
     3      1     12      1    1.1641e+02    3.6242e+02 ;     C3 - C1     - H1    
     3      6      5      1    1.1143e+02    5.0434e+02 ;     C3 - C6     - C5    
     3      6     10      1    1.0869e+02    5.0986e+02 ;     C3 - C6     - C10   
     3      6     17      1    1.0767e+02    3.6685e+02 ;     C3 - C6     - H6    
     4      2      7      1    1.1671e+02    5.0016e+02 ;     C4 - C2     - C7    
     4      5      6      1    1.1106e+02    5.0359e+02 ;     C4 - C5     - C6    
     4      5     15      1    1.0945e+02    3.6175e+02 ;     C4 - C5     - H4    
     4      5     16      1    1.0945e+02    3.6175e+02 ;     C4 - C5     - H5    
     5      4     13      1    1.0945e+02    3.6175e+02 ;     C5 - C4     - H2    
     5      4     14      1    1.0945e+02    3.6175e+02 ;     C5 - C4     - H3    
     5      6     10      1    1.1143e+02    5.0200e+02 ;     C5 - C6     - C10   
     5      6     17      1    1.0945e+02    3.6175e+02 ;     C5 - C6     - H6    
     6      3     11      1    1.2234e+02    6.4065e+02 ;     C6 - C3     - O1    
     6      5     15      1    1.0945e+02    3.6175e+02 ;     C6 - C5     - H4    
     6      5     16      1    1.0945e+02    3.6175e+02 ;     C6 - C5     - H5    
     6     10      8      1    1.1393e+02    4.9698e+02 ;     C6 - C10    - C8    
     6     10      9      1    1.1393e+02    4.9698e+02 ;     C6 - C10    - C9    
     6     10     27      1    1.1063e+02    3.5890e+02 ;     C6 - C10    - H16   
     8     10      9      1    1.1263e+02    5.0099e+02 ;     C8 - C10    - C9    
     8     10     27      1    1.0968e+02    3.6208e+02 ;     C8 - C10    - H16   
     9     10     27      1    1.0968e+02    3.6208e+02 ;     C9 - C10    - H16   
    10      6     17      1    1.0746e+02    3.6418e+02 ;    C10 - C6     - H6    
    10      8     21      1    1.0968e+02    3.6208e+02 ;    C10 - C8     - H10   
    10      8     22      1    1.0968e+02    3.6208e+02 ;    C10 - C8     - H11   
    10      8     23      1    1.0968e+02    3.6208e+02 ;    C10 - C8     - H12   
    10      9     24      1    1.0968e+02    3.6208e+02 ;    C10 - C9     - H13   
    10      9     25      1    1.0968e+02    3.6208e+02 ;    C10 - C9     - H14   
    10      9     26      1    1.0968e+02    3.6208e+02 ;    C10 - C9     - H15   
    13      4     14      1    1.0662e+02    3.0066e+02 ;     H2 - C4     - H3    
    15      5     16      1    1.0662e+02    3.0066e+02 ;     H4 - C5     - H5    
    18      7     19      1    1.0773e+02    2.9957e+02 ;     H7 - C7     - H8    
    18      7     20      1    1.0773e+02    2.9957e+02 ;     H7 - C7     - H9    
    19      7     20      1    1.0773e+02    2.9957e+02 ;     H8 - C7     - H9    
    21      8     22      1    1.0773e+02    2.9957e+02 ;    H10 - C8     - H11   
    21      8     23      1    1.0773e+02    2.9957e+02 ;    H10 - C8     - H12   
    22      8     23      1    1.0773e+02    2.9957e+02 ;    H11 - C8     - H12   
    24      9     25      1    1.0773e+02    2.9957e+02 ;    H13 - C9     - H14   
    24      9     26      1    1.0773e+02    2.9957e+02 ;    H13 - C9     - H15   
    25      9     26      1    1.0773e+02    2.9957e+02 ;    H14 - C9     - H15   

[ dihedrals ] ; propers
; for gromacs 4.5 or higher, using funct 9
;    i      j      k      l   func   phase     kd      pn
     1      2      4      5      9     0.00   0.00000   0 ;     C1-    C2-    C4-    C5
     1      2      4     13      9     0.00   0.00000   0 ;     C1-    C2-    C4-    H2
     1      2      4     14      9     0.00   0.00000   0 ;     C1-    C2-    C4-    H3
     1      2      7     18      9     0.00   0.00000   0 ;     C1-    C2-    C7-    H7
     1      2      7     19      9     0.00   0.00000   0 ;     C1-    C2-    C7-    H8
     1      2      7     20      9     0.00   0.00000   0 ;     C1-    C2-    C7-    H9
     1      3      6      5      9   180.00   0.00000   2 ;     C1-    C3-    C6-    C5
     1      3      6     10      9   180.00   0.00000   2 ;     C1-    C3-    C6-   C10
     1      3      6     17      9   180.00   0.00000   2 ;     C1-    C3-    C6-    H6
     2      1      3      6      9     0.00  12.13360   2 ;     C2-    C1-    C3-    C6
     2      1      3     11      9   180.00   9.10020   2 ;     C2-    C1-    C3-    O1
     2      4      5      6      9     0.00   0.65084   3 ;     C2-    C4-    C5-    C6
     2      4      5     15      9     0.00   0.65084   3 ;     C2-    C4-    C5-    H4
     2      4      5     16      9     0.00   0.65084   3 ;     C2-    C4-    C5-    H5
     3      1      2      4      9   180.00  27.82360   2 ;     C3-    C1-    C2-    C4
     3      1      2      7      9   180.00  27.82360   2 ;     C3-    C1-    C2-    C7
     3      6      5      4      9     0.00   0.00000   0 ;     C3-    C6-    C5-    C4
     3      6      5      4      9     0.00   0.16736   2 ;     C3-    C6-    C5-    C4
     3      6      5      4      9   180.00   1.92464   1 ;     C3-    C6-    C5-    C4
     3      6      5     15      9     0.00   0.65084   3 ;     C3-    C6-    C5-    H4
     3      6      5     16      9     0.00   0.65084   3 ;     C3-    C6-    C5-    H5
     3      6     10      8      9     0.00   0.00000   0 ;     C3-    C6-   C10-    C8
     3      6     10      8      9     0.00   0.16736   2 ;     C3-    C6-   C10-    C8
     3      6     10      8      9   180.00   1.92464   1 ;     C3-    C6-   C10-    C8
     3      6     10      9      9     0.00   0.00000   0 ;     C3-    C6-   C10-    C9
     3      6     10      9      9     0.00   0.16736   2 ;     C3-    C6-   C10-    C9
     3      6     10      9      9   180.00   1.92464   1 ;     C3-    C6-   C10-    C9
     3      6     10     27      9     0.00   0.65084   3 ;     C3-    C6-   C10-   H16
     4      2      7     18      9     0.00   0.62760   3 ;     C4-    C2-    C7-    H7
     4      2      7     19      9     0.00   0.62760   3 ;     C4-    C2-    C7-    H8
     4      2      7     20      9     0.00   0.62760   3 ;     C4-    C2-    C7-    H9
     4      5      6     10      9     0.00   2.17568   3 ;     C4-    C5-    C6-   C10
     4      5      6     17      9     0.00   0.54392   3 ;     C4-    C5-    C6-    H6
     5      4      2      7      9     0.00   0.00000   0 ;     C5-    C4-    C2-    C7
     5      6      3     11      9     0.00   0.46024   2 ;     C5-    C6-    C3-    O1
     5      6      3     11      9     0.00  49.12016   1 ;     C5-    C6-    C3-    O1
     5      6      3     11      9   180.00   0.33472   3 ;     C5-    C6-    C3-    O1
     5      6     10      8      9     0.00   2.17568   3 ;     C5-    C6-   C10-    C8
     5      6     10      9      9     0.00   2.17568   3 ;     C5-    C6-   C10-    C9
     5      6     10     27      9     0.00   0.54392   3 ;     C5-    C6-   C10-   H16
     6      5      4     13      9     0.00   0.54392   3 ;     C6-    C5-    C4-    H2
     6      5      4     14      9     0.00   0.54392   3 ;     C6-    C5-    C4-    H3
     6     10      8     21      9     0.00   0.54392   3 ;     C6-   C10-    C8-   H10
     6     10      8     22      9     0.00   0.54392   3 ;     C6-   C10-    C8-   H11
     6     10      8     23      9     0.00   0.54392   3 ;     C6-   C10-    C8-   H12
     6     10      9     24      9     0.00   0.54392   3 ;     C6-   C10-    C9-   H13
     6     10      9     25      9     0.00   0.54392   3 ;     C6-   C10-    C9-   H14
     6     10      9     26      9     0.00   0.54392   3 ;     C6-   C10-    C9-   H15
     7      2      4     13      9     0.00   0.62760   3 ;     C7-    C2-    C4-    H2
     7      2      4     14      9     0.00   0.62760   3 ;     C7-    C2-    C4-    H3
     8     10      6     17      9     0.00   0.54392   3 ;     C8-   C10-    C6-    H6
     8     10      9     24      9     0.00   0.54392   3 ;     C8-   C10-    C9-   H13
     8     10      9     25      9     0.00   0.54392   3 ;     C8-   C10-    C9-   H14
     8     10      9     26      9     0.00   0.54392   3 ;     C8-   C10-    C9-   H15
     9     10      6     17      9     0.00   0.54392   3 ;     C9-   C10-    C6-    H6
     9     10      8     21      9     0.00   0.54392   3 ;     C9-   C10-    C8-   H10
     9     10      8     22      9     0.00   0.54392   3 ;     C9-   C10-    C8-   H11
     9     10      8     23      9     0.00   0.54392   3 ;     C9-   C10-    C8-   H12
    10      6      3     11      9     0.00   2.84512   1 ;    C10-    C6-    C3-    O1
    10      6      3     11      9   180.00   0.83680   2 ;    C10-    C6-    C3-    O1
    10      6      3     11      9   180.00   1.84096   3 ;    C10-    C6-    C3-    O1
    10      6      5     15      9     0.00   0.54392   3 ;    C10-    C6-    C5-    H4
    10      6      5     16      9     0.00   0.54392   3 ;    C10-    C6-    C5-    H5
    11      3      6     17      9     0.00  16.86152   1 ;     O1-    C3-    C6-    H6
    11      3      6     17      9   180.00  15.31344   2 ;     O1-    C3-    C6-    H6
    12      1      2      4      9   180.00  27.82360   2 ;     H1-    C1-    C2-    C4
    12      1      2      7      9   180.00  27.82360   2 ;     H1-    C1-    C2-    C7
    12      1      3      6      9   180.00   9.10020   2 ;     H1-    C1-    C3-    C6
    12      1      3     11      9   180.00   9.10020   2 ;     H1-    C1-    C3-    O1
    13      4      5     15      9     0.00   0.50208   3 ;     H2-    C4-    C5-    H4
    13      4      5     16      9     0.00   0.50208   3 ;     H2-    C4-    C5-    H5
    14      4      5     15      9     0.00   0.50208   3 ;     H3-    C4-    C5-    H4
    14      4      5     16      9     0.00   0.50208   3 ;     H3-    C4-    C5-    H5
    15      5      6     17      9     0.00   0.50208   3 ;     H4-    C5-    C6-    H6
    16      5      6     17      9     0.00   0.50208   3 ;     H5-    C5-    C6-    H6
    17      6     10     27      9     0.00   0.50208   3 ;     H6-    C6-   C10-   H16
    21      8     10     27      9     0.00   0.50208   3 ;    H10-    C8-   C10-   H16
    22      8     10     27      9     0.00   0.50208   3 ;    H11-    C8-   C10-   H16
    23      8     10     27      9     0.00   0.50208   3 ;    H12-    C8-   C10-   H16
    24      9     10     27      9     0.00   0.50208   3 ;    H13-    C9-   C10-   H16
    25      9     10     27      9     0.00   0.50208   3 ;    H14-    C9-   C10-   H16
    26      9     10     27      9     0.00   0.50208   3 ;    H15-    C9-   C10-   H16

[ dihedrals ] ; impropers
; treated as propers in GROMACS to use correct AMBER analytical function
;    i      j      k      l   func   phase     kd      pn
     1      2      4      7      4   180.00   4.60240   2 ;     C1-    C2-    C4-    C7
     6      1      3     11      4   180.00  43.93200   2 ;     C6-    C1-    C3-    O1
    12      1      2      3      4   180.00   4.60240   2 ;     H1-    C1-    C2-    C3
