mobley_8983100_GMX.gro created by acpype (v: 2023.10.27) on Tue May 19 14:12:09 2026
 2411
    1MOL     C1    1   2.139   2.115   2.118
    1MOL    BR1    2   1.996   2.220   2.195
    1MOL     H1    3   2.207   2.183   2.066
    1MOL     H2    4   2.190   2.063   2.199
    1MOL     H3    5   2.095   2.044   2.048
    6SOL     OW    6   1.555   1.511   0.703
    6SOL    HW1    7   1.498   1.495   0.784
    6SOL    HW2    8   1.496   1.521   0.623
   12SOL     OW    9   0.686   1.161   1.803
   12SOL    HW1   10   0.746   1.240   1.817
   12SOL    HW2   11   0.600   1.192   1.762
   14SOL     OW   12   1.460   1.505   1.339
   14SOL    HW1   13   1.484   1.599   1.365
   14SOL    HW2   14   1.444   1.451   1.421
   18SOL     OW   15   1.127   1.341   1.690
   18SOL    HW1   16   1.174   1.341   1.778
   18SOL    HW2   17   1.079   1.254   1.679
   21SOL     OW   18   0.620   1.786   1.439
   21SOL    HW1   19   0.528   1.769   1.474
   21SOL    HW2   20   0.648   1.878   1.465
   31SOL     OW   21   1.293   1.228   1.423
   31SOL    HW1   22   1.330   1.155   1.365
   31SOL    HW2   23   1.345   1.233   1.508
   35SOL     OW   24   1.187   1.792   1.616
   35SOL    HW1   25   1.211   1.852   1.540
   35SOL    HW2   26   1.194   1.697   1.586
   37SOL     OW   27   1.466   1.417   0.953
   37SOL    HW1   28   1.407   1.423   1.033
   37SOL    HW2   29   1.451   1.329   0.907
   38SOL     OW   30   1.667   1.714   0.572
   38SOL    HW1   31   1.626   1.691   0.484
   38SOL    HW2   32   1.649   1.640   0.637
   44SOL     OW   33   0.973   0.890   1.572
   44SOL    HW1   34   1.019   0.806   1.543
   44SOL    HW2   35   0.917   0.924   1.497
   50SOL     OW   36   1.719   0.585   1.831
   50SOL    HW1   37   1.693   0.674   1.795
   50SOL    HW2   38   1.717   0.517   1.758
   55SOL     OW   39   1.795   1.066   0.873
   55SOL    HW1   40   1.733   1.051   0.797
   55SOL    HW2   41   1.743   1.077   0.958
   56SOL     OW   42   1.227   1.550   1.506
   56SOL    HW1   43   1.233   1.473   1.570
   56SOL    HW2   44   1.175   1.524   1.426
   66SOL     OW   45   0.940   1.698   0.904
   66SOL    HW1   46   1.020   1.641   0.925
   66SOL    HW2   47   0.891   1.658   0.827
   71SOL     OW   48   0.888   1.514   1.195
   71SOL    HW1   49   0.865   1.489   1.101
   71SOL    HW2   50   0.949   1.445   1.234
   80SOL     OW   51   1.227   1.570   0.793
   80SOL    HW1   52   1.248   1.644   0.728
   80SOL    HW2   53   1.295   1.570   0.866
   82SOL     OW   54   1.271   1.797   0.591
   82SOL    HW1   55   1.315   1.861   0.527
   82SOL    HW2   56   1.221   1.849   0.661
   88SOL     OW   57   1.429   1.173   0.867
   88SOL    HW1   58   1.374   1.089   0.860
   88SOL    HW2   59   1.455   1.202   0.775
   92SOL     OW   60   1.664   1.280   0.657
   92SOL    HW1   61   1.763   1.288   0.671
   92SOL    HW2   62   1.619   1.364   0.688
   95SOL     OW   63   1.754   1.223   1.588
   95SOL    HW1   64   1.845   1.184   1.575
   95SOL    HW2   65   1.762   1.319   1.612
   96SOL     OW   66   1.064   1.347   1.340
   96SOL    HW1   67   0.984   1.324   1.395
   96SOL    HW2   68   1.147   1.321   1.389
   97SOL     OW   69   1.592   1.629   1.625
   97SOL    HW1   70   1.619   1.663   1.535
   97SOL    HW2   71   1.671   1.591   1.671
   98SOL     OW   72   1.111   1.195   1.100
   98SOL    HW1   73   1.071   1.239   1.181
   98SOL    HW2   74   1.070   1.232   1.017
   99SOL     OW   75   1.638   1.099   1.079
   99SOL    HW1   76   1.643   1.180   1.138
   99SOL    HW2   77   1.552   1.101   1.028
  101SOL     OW   78   0.980   1.116   1.719
  101SOL    HW1   79   0.881   1.122   1.729
  101SOL    HW2   80   1.003   1.036   1.663
  109SOL     OW   81   1.272   1.445   1.142
  109SOL    HW1   82   1.319   1.458   1.229
  109SOL    HW2   83   1.206   1.371   1.151
  113SOL     OW   84   1.587   0.779   1.670
  113SOL    HW1   85   1.495   0.817   1.665
  113SOL    HW2   86   1.647   0.826   1.605
  122SOL     OW   87   1.728   0.935   1.854
  122SOL    HW1   88   1.682   0.928   1.765
  122SOL    HW2   89   1.666   0.979   1.920
  126SOL     OW   90   0.980   1.573   1.700
  126SOL    HW1   91   0.960   1.617   1.612
  126SOL    HW2   92   1.019   1.482   1.684
  127SOL     OW   93   1.859   1.518   1.605
  127SOL    HW1   94   1.873   1.545   1.510
  127SOL    HW2   95   1.942   1.540   1.658
  142SOL     OW   96   1.369   0.950   1.660
  142SOL    HW1   97   1.408   1.039   1.680
  142SOL    HW2   98   1.379   0.930   1.563
  147SOL     OW   99   0.930   1.678   1.465
  147SOL    HW1  100   0.906   1.660   1.370
  147SOL    HW2  101   0.960   1.772   1.475
  150SOL     OW  102   1.347   1.059   1.234
  150SOL    HW1  103   1.371   0.996   1.160
  150SOL    HW2  104   1.257   1.099   1.216
  152SOL     OW  105   1.759   1.747   1.154
  152SOL    HW1  106   1.820   1.777   1.081
  152SOL    HW2  107   1.721   1.658   1.132
  153SOL     OW  108   1.252   1.731   1.128
  153SOL    HW1  109   1.336   1.736   1.074
  153SOL    HW2  110   1.229   1.635   1.146
  155SOL     OW  111   0.688   1.662   1.716
  155SOL    HW1  112   0.632   1.743   1.725
  155SOL    HW2  113   0.740   1.666   1.630
  161SOL     OW  114   0.830   1.273   1.422
  161SOL    HW1  115   0.825   1.306   1.517
  161SOL    HW2  116   0.744   1.292   1.376
  163SOL     OW  117   1.650   1.720   1.394
  163SOL    HW1  118   1.703   1.730   1.310
  163SOL    HW2  119   1.623   1.810   1.428
  171SOL     OW  120   1.614   1.292   1.289
  171SOL    HW1  121   1.674   1.295   1.369
  171SOL    HW2  122   1.539   1.356   1.302
  180SOL     OW  123   1.440   0.856   1.398
  180SOL    HW1  124   1.383   0.908   1.335
  180SOL    HW2  125   1.536   0.868   1.374
  184SOL     OW  126   1.493   1.767   0.959
  184SOL    HW1  127   1.526   1.831   0.890
  184SOL    HW2  128   1.559   1.761   1.034
  186SOL     OW  129   1.450   1.220   1.633
  186SOL    HW1  130   1.441   1.210   1.732
  186SOL    HW2  131   1.546   1.213   1.607
  188SOL     OW  132   1.674   0.883   1.254
  188SOL    HW1  133   1.647   0.794   1.217
  188SOL    HW2  134   1.675   0.951   1.181
  192SOL     OW  135   1.730   0.934   1.517
  192SOL    HW1  136   1.768   1.025   1.532
  192SOL    HW2  137   1.722   0.917   1.418
  197SOL     OW  138   1.861   1.569   0.851
  197SOL    HW1  139   1.790   1.557   0.781
  197SOL    HW2  140   1.862   1.490   0.911
  200SOL     OW  141   0.672   1.391   1.624
  200SOL    HW1  142   0.594   1.341   1.662
  200SOL    HW2  143   0.669   1.486   1.655
  203SOL     OW  144   1.705   1.487   1.104
  203SOL    HW1  145   1.612   1.462   1.077
  203SOL    HW2  146   1.731   1.437   1.186
  219SOL     OW  147   1.555   1.511   2.565
  219SOL    HW1  148   1.498   1.495   2.646
  219SOL    HW2  149   1.496   1.521   2.485
  220SOL     OW  150   1.135   0.703   2.579
  220SOL    HW1  151   1.192   0.781   2.554
  220SOL    HW2  152   1.075   0.729   2.655
  221SOL     OW  153   1.755   0.607   2.093
  221SOL    HW1  154   1.743   0.594   1.994
  221SOL    HW2  155   1.725   0.526   2.142
  227SOL     OW  156   1.460   1.505   3.201
  227SOL    HW1  157   1.484   1.599   3.227
  227SOL    HW2  158   1.444   1.451   3.283
  238SOL     OW  159   1.842   1.767   2.221
  238SOL    HW1  160   1.896   1.738   2.301
  238SOL    HW2  161   1.872   1.857   2.192
  240SOL     OW  162   1.689   0.922   2.474
  240SOL    HW1  163   1.784   0.893   2.482
  240SOL    HW2  164   1.681   0.987   2.399
  241SOL     OW  165   1.641   1.108   2.294
  241SOL    HW1  166   1.727   1.110   2.242
  241SOL    HW2  167   1.655   1.155   2.382
  243SOL     OW  168   0.613   1.365   2.588
  243SOL    HW1  169   0.564   1.278   2.597
  243SOL    HW2  170   0.590   1.408   2.501
  244SOL     OW  171   1.293   1.228   3.285
  244SOL    HW1  172   1.330   1.155   3.227
  244SOL    HW2  173   1.345   1.233   3.370
  247SOL     OW  174   1.525   0.999   2.052
  247SOL    HW1  175   1.462   0.923   2.065
  247SOL    HW2  176   1.573   1.017   2.138
  248SOL     OW  177   1.187   1.792   3.478
  248SOL    HW1  178   1.211   1.852   3.402
  248SOL    HW2  179   1.194   1.697   3.448
  250SOL     OW  180   1.466   1.417   2.815
  250SOL    HW1  181   1.407   1.423   2.895
  250SOL    HW2  182   1.451   1.329   2.769
  251SOL     OW  183   1.667   1.714   2.434
  251SOL    HW1  184   1.626   1.691   2.346
  251SOL    HW2  185   1.649   1.640   2.499
  254SOL     OW  186   1.576   1.662   2.169
  254SOL    HW1  187   1.665   1.708   2.172
  254SOL    HW2  188   1.555   1.638   2.074
  259SOL     OW  189   1.041   0.701   2.291
  259SOL    HW1  190   1.067   0.697   2.387
  259SOL    HW2  191   0.956   0.650   2.277
  264SOL     OW  192   1.362   1.144   2.407
  264SOL    HW1  193   1.445   1.115   2.359
  264SOL    HW2  194   1.313   1.211   2.351
  266SOL     OW  195   1.008   1.456   2.339
  266SOL    HW1  196   0.962   1.528   2.287
  266SOL    HW2  197   1.004   1.476   2.437
  268SOL     OW  198   1.795   1.066   2.735
  268SOL    HW1  199   1.733   1.051   2.659
  268SOL    HW2  200   1.743   1.077   2.820
  269SOL     OW  201   1.227   1.550   3.368
  269SOL    HW1  202   1.233   1.473   3.432
  269SOL    HW2  203   1.175   1.524   3.288
  271SOL     OW  204   1.458   0.735   2.590
  271SOL    HW1  205   1.453   0.670   2.665
  271SOL    HW2  206   1.538   0.794   2.603
  273SOL     OW  207   1.111   1.776   2.099
  273SOL    HW1  208   1.051   1.714   2.149
  273SOL    HW2  209   1.142   1.732   2.014
  275SOL     OW  210   1.632   1.377   1.943
  275SOL    HW1  211   1.600   1.471   1.933
  275SOL    HW2  212   1.556   1.314   1.931
  276SOL     OW  213   0.464   1.743   2.185
  276SOL    HW1  214   0.497   1.782   2.271
  276SOL    HW2  215   0.540   1.736   2.120
  279SOL     OW  216   0.940   1.698   2.766
  279SOL    HW1  217   1.020   1.641   2.787
  279SOL    HW2  218   0.891   1.658   2.689
  284SOL     OW  219   0.888   1.514   3.057
  284SOL    HW1  220   0.865   1.489   2.963
  284SOL    HW2  221   0.949   1.445   3.096
  286SOL     OW  222   0.803   1.402   2.786
  286SOL    HW1  223   0.893   1.416   2.744
  286SOL    HW2  224   0.732   1.404   2.715
  289SOL     OW  225   1.434   1.188   1.903
  289SOL    HW1  226   1.466   1.112   1.960
  289SOL    HW2  227   1.342   1.215   1.933
  293SOL     OW  228   1.227   1.570   2.655
  293SOL    HW1  229   1.248   1.644   2.590
  293SOL    HW2  230   1.295   1.570   2.728
  295SOL     OW  231   1.271   1.797   2.453
  295SOL    HW1  232   1.315   1.861   2.389
  295SOL    HW2  233   1.221   1.849   2.523
  301SOL     OW  234   1.429   1.173   2.729
  301SOL    HW1  235   1.374   1.089   2.722
  301SOL    HW2  236   1.455   1.202   2.637
  303SOL     OW  237   1.857   0.833   2.239
  303SOL    HW1  238   1.899   0.769   2.303
  303SOL    HW2  239   1.819   0.782   2.161
  304SOL     OW  240   0.488   1.385   2.036
  304SOL    HW1  241   0.401   1.370   2.083
  304SOL    HW2  242   0.471   1.411   1.941
  305SOL     OW  243   1.664   1.280   2.519
  305SOL    HW1  244   1.763   1.288   2.533
  305SOL    HW2  245   1.619   1.364   2.550
  306SOL     OW  246   1.390   0.575   1.940
  306SOL    HW1  247   1.336   0.554   2.021
  306SOL    HW2  248   1.481   0.534   1.949
  308SOL     OW  249   1.754   1.223   3.450
  308SOL    HW1  250   1.845   1.184   3.437
  308SOL    HW2  251   1.762   1.319   3.474
  309SOL     OW  252   1.064   1.347   3.202
  309SOL    HW1  253   0.984   1.324   3.257
  309SOL    HW2  254   1.147   1.321   3.251
  310SOL     OW  255   1.592   1.629   3.487
  310SOL    HW1  256   1.619   1.663   3.397
  310SOL    HW2  257   1.671   1.591   3.533
  311SOL     OW  258   1.111   1.195   2.962
  311SOL    HW1  259   1.071   1.239   3.043
  311SOL    HW2  260   1.070   1.232   2.879
  312SOL     OW  261   1.638   1.099   2.941
  312SOL    HW1  262   1.643   1.180   3.000
  312SOL    HW2  263   1.552   1.101   2.890
  315SOL     OW  264   0.705   1.050   2.230
  315SOL    HW1  265   0.691   1.057   2.329
  315SOL    HW2  266   0.789   0.999   2.212
  321SOL     OW  267   1.252   1.348   2.250
  321SOL    HW1  268   1.302   1.425   2.290
  321SOL    HW2  269   1.157   1.350   2.282
  322SOL     OW  270   1.272   1.445   3.004
  322SOL    HW1  271   1.319   1.458   3.091
  322SOL    HW2  272   1.206   1.371   3.013
  323SOL     OW  273   1.582   0.639   2.334
  323SOL    HW1  274   1.551   0.700   2.407
  323SOL    HW2  275   1.632   0.691   2.265
  330SOL     OW  276   1.360   0.862   2.907
  330SOL    HW1  277   1.285   0.862   2.841
  330SOL    HW2  278   1.397   0.770   2.916
  340SOL     OW  279   1.859   1.518   3.467
  340SOL    HW1  280   1.873   1.545   3.372
  340SOL    HW2  281   1.942   1.540   3.520
  343SOL     OW  282   1.303   0.838   1.904
  343SOL    HW1  283   1.337   0.745   1.919
  343SOL    HW2  284   1.321   0.865   1.809
  344SOL     OW  285   1.068   1.333   2.711
  344SOL    HW1  286   1.075   1.249   2.656
  344SOL    HW2  287   1.130   1.402   2.675
  360SOL     OW  288   0.930   1.678   3.327
  360SOL    HW1  289   0.906   1.660   3.232
  360SOL    HW2  290   0.960   1.772   3.337
  363SOL     OW  291   1.347   1.059   3.096
  363SOL    HW1  292   1.371   0.996   3.022
  363SOL    HW2  293   1.257   1.099   3.078
  364SOL     OW  294   1.302   0.855   2.171
  364SOL    HW1  295   1.216   0.824   2.213
  364SOL    HW2  296   1.298   0.841   2.072
  365SOL     OW  297   1.759   1.747   3.016
  365SOL    HW1  298   1.820   1.777   2.943
  365SOL    HW2  299   1.721   1.658   2.994
  366SOL     OW  300   1.252   1.731   2.990
  366SOL    HW1  301   1.336   1.736   2.936
  366SOL    HW2  302   1.229   1.635   3.008
  370SOL     OW  303   1.388   1.573   2.339
  370SOL    HW1  304   1.455   1.585   2.265
  370SOL    HW2  305   1.348   1.662   2.362
  372SOL     OW  306   1.280   0.927   2.534
  372SOL    HW1  307   1.340   0.846   2.536
  372SOL    HW2  308   1.320   0.996   2.474
  374SOL     OW  309   0.672   1.616   2.016
  374SOL    HW1  310   0.681   1.626   1.917
  374SOL    HW2  311   0.632   1.527   2.037
  375SOL     OW  312   1.650   1.720   3.256
  375SOL    HW1  313   1.703   1.730   3.172
  375SOL    HW2  314   1.623   1.810   3.290
  378SOL     OW  315   1.194   1.612   1.893
  378SOL    HW1  316   1.200   1.519   1.930
  378SOL    HW2  317   1.135   1.612   1.813
  380SOL     OW  318   0.916   0.910   2.153
  380SOL    HW1  319   0.979   0.948   2.085
  380SOL    HW2  320   0.956   0.827   2.192
  381SOL     OW  321   1.504   1.607   1.906
  381SOL    HW1  322   1.412   1.644   1.913
  381SOL    HW2  323   1.542   1.627   1.816
  383SOL     OW  324   1.614   1.292   3.151
  383SOL    HW1  325   1.674   1.295   3.231
  383SOL    HW2  326   1.539   1.356   3.164
  384SOL     OW  327   1.039   1.098   2.558
  384SOL    HW1  328   0.969   1.051   2.612
  384SOL    HW2  329   1.098   1.030   2.515
  386SOL     OW  330   0.590   1.487   2.353
  386SOL    HW1  331   0.632   1.429   2.283
  386SOL    HW2  332   0.546   1.566   2.309
  394SOL     OW  333   1.183   1.335   1.981
  394SOL    HW1  334   1.084   1.324   1.983
  394SOL    HW2  335   1.217   1.350   2.074
  396SOL     OW  336   1.493   1.767   2.821
  396SOL    HW1  337   1.526   1.831   2.752
  396SOL    HW2  338   1.559   1.761   2.896
  398SOL     OW  339   1.450   1.220   3.495
  398SOL    HW1  340   1.441   1.210   3.594
  398SOL    HW2  341   1.546   1.213   3.469
  400SOL     OW  342   1.674   0.883   3.116
  400SOL    HW1  343   1.647   0.794   3.079
  400SOL    HW2  344   1.675   0.951   3.043
  404SOL     OW  345   1.730   0.934   3.379
  404SOL    HW1  346   1.768   1.025   3.394
  404SOL    HW2  347   1.722   0.917   3.280
  405SOL     OW  348   0.859   1.374   1.878
  405SOL    HW1  349   0.813   1.389   1.966
  405SOL    HW2  350   0.903   1.459   1.848
  406SOL     OW  351   0.661   1.790   2.815
  406SOL    HW1  352   0.615   1.878   2.802
  406SOL    HW2  353   0.760   1.802   2.808
  408SOL     OW  354   1.083   0.984   1.949
  408SOL    HW1  355   1.060   1.037   1.867
  408SOL    HW2  356   1.164   0.928   1.930
  409SOL     OW  357   1.861   1.569   2.713
  409SOL    HW1  358   1.790   1.557   2.643
  409SOL    HW2  359   1.862   1.490   2.773
  415SOL     OW  360   1.705   1.487   2.966
  415SOL    HW1  361   1.612   1.462   2.939
  415SOL    HW2  362   1.731   1.437   3.048
  417SOL     OW  363   0.812   1.586   2.549
  417SOL    HW1  364   0.844   1.596   2.455
  417SOL    HW2  365   0.733   1.524   2.551
  420SOL     OW  366   0.770   1.330   2.163
  420SOL    HW1  367   0.724   1.243   2.180
  420SOL    HW2  368   0.861   1.327   2.204
  426SOL     OW  369   0.875   1.646   2.199
  426SOL    HW1  370   0.798   1.611   2.145
  426SOL    HW2  371   0.843   1.717   2.261
  496SOL     OW  372   1.135   2.565   0.717
  496SOL    HW1  373   1.192   2.643   0.692
  496SOL    HW2  374   1.075   2.591   0.793
  499SOL     OW  375   0.850   2.660   1.823
  499SOL    HW1  376   0.846   2.736   1.888
  499SOL    HW2  377   0.872   2.696   1.732
  501SOL     OW  378   0.686   3.023   1.803
  501SOL    HW1  379   0.746   3.102   1.817
  501SOL    HW2  380   0.600   3.054   1.762
  503SOL     OW  381   1.460   3.367   1.339
  503SOL    HW1  382   1.484   3.461   1.365
  503SOL    HW2  383   1.444   3.313   1.421
  505SOL     OW  384   1.603   2.309   0.737
  505SOL    HW1  385   1.529   2.355   0.687
  505SOL    HW2  386   1.654   2.377   0.790
  507SOL     OW  387   1.127   3.203   1.690
  507SOL    HW1  388   1.174   3.203   1.778
  507SOL    HW2  389   1.079   3.116   1.679
  512SOL     OW  390   1.594   1.976   1.480
  512SOL    HW1  391   1.576   2.043   1.408
  512SOL    HW2  392   1.591   2.022   1.569
  516SOL     OW  393   1.689   2.784   0.612
  516SOL    HW1  394   1.784   2.755   0.620
  516SOL    HW2  395   1.681   2.849   0.537
  520SOL     OW  396   1.293   3.090   1.423
  520SOL    HW1  397   1.330   3.017   1.365
  520SOL    HW2  398   1.345   3.095   1.508
  526SOL     OW  399   1.466   3.279   0.953
  526SOL    HW1  400   1.407   3.285   1.033
  526SOL    HW2  401   1.451   3.191   0.907
  529SOL     OW  402   1.281   2.207   0.944
  529SOL    HW1  403   1.195   2.157   0.931
  529SOL    HW2  404   1.343   2.153   1.000
  531SOL     OW  405   0.807   2.467   1.465
  531SOL    HW1  406   0.760   2.464   1.554
  531SOL    HW2  407   0.756   2.412   1.399
  532SOL     OW  408   1.394   2.331   1.674
  532SOL    HW1  409   1.374   2.374   1.762
  532SOL    HW2  410   1.472   2.269   1.683
  533SOL     OW  411   0.973   2.752   1.572
  533SOL    HW1  412   1.019   2.668   1.543
  533SOL    HW2  413   0.917   2.786   1.497
  534SOL     OW  414   0.991   2.272   1.242
  534SOL    HW1  415   0.914   2.306   1.296
  534SOL    HW2  416   0.957   2.221   1.163
  539SOL     OW  417   1.719   2.447   1.831
  539SOL    HW1  418   1.693   2.536   1.795
  539SOL    HW2  419   1.717   2.379   1.758
  544SOL     OW  420   1.795   2.928   0.873
  544SOL    HW1  421   1.733   2.913   0.797
  544SOL    HW2  422   1.743   2.939   0.958
  545SOL     OW  423   1.227   3.412   1.506
  545SOL    HW1  424   1.233   3.335   1.570
  545SOL    HW2  425   1.175   3.386   1.426
  547SOL     OW  426   1.458   2.597   0.728
  547SOL    HW1  427   1.453   2.532   0.803
  547SOL    HW2  428   1.538   2.656   0.741
  557SOL     OW  429   1.547   2.084   1.729
  557SOL    HW1  430   1.542   2.121   1.821
  557SOL    HW2  431   1.475   2.015   1.717
  559SOL     OW  432   0.781   2.126   1.749
  559SOL    HW1  433   0.848   2.065   1.792
  559SOL    HW2  434   0.708   2.145   1.814
  561SOL     OW  435   1.351   2.452   1.433
  561SOL    HW1  436   1.379   2.409   1.518
  561SOL    HW2  437   1.376   2.548   1.434
  563SOL     OW  438   0.922   2.365   0.899
  563SOL    HW1  439   0.897   2.356   0.803
  563SOL    HW2  440   0.970   2.283   0.930
  568SOL     OW  441   1.076   2.545   1.464
  568SOL    HW1  442   0.996   2.484   1.467
  568SOL    HW2  443   1.157   2.492   1.440
  576SOL     OW  444   1.017   1.901   0.753
  576SOL    HW1  445   0.945   1.906   0.684
  576SOL    HW2  446   0.993   1.832   0.822
  577SOL     OW  447   1.429   3.035   0.867
  577SOL    HW1  448   1.374   2.951   0.860
  577SOL    HW2  449   1.455   3.064   0.775
  578SOL     OW  450   1.466   2.452   0.992
  578SOL    HW1  451   1.436   2.357   0.999
  578SOL    HW2  452   1.539   2.468   1.058
  584SOL     OW  453   1.754   3.085   1.588
  584SOL    HW1  454   1.845   3.046   1.575
  584SOL    HW2  455   1.762   3.181   1.612
  585SOL     OW  456   1.064   3.209   1.340
  585SOL    HW1  457   0.984   3.186   1.395
  585SOL    HW2  458   1.147   3.183   1.389
  586SOL     OW  459   1.592   3.491   1.625
  586SOL    HW1  460   1.619   3.525   1.535
  586SOL    HW2  461   1.671   3.453   1.671
  587SOL     OW  462   1.111   3.057   1.100
  587SOL    HW1  463   1.071   3.101   1.181
  587SOL    HW2  464   1.070   3.094   1.017
  588SOL     OW  465   1.638   2.961   1.079
  588SOL    HW1  466   1.643   3.042   1.138
  588SOL    HW2  467   1.552   2.963   1.028
  589SOL     OW  468   0.915   1.951   1.402
  589SOL    HW1  469   0.940   1.931   1.307
  589SOL    HW2  470   0.987   2.007   1.444
  590SOL     OW  471   0.980   2.978   1.719
  590SOL    HW1  472   0.881   2.984   1.729
  590SOL    HW2  473   1.003   2.898   1.663
  593SOL     OW  474   1.274   2.248   1.262
  593SOL    HW1  475   1.295   2.322   1.326
  593SOL    HW2  476   1.185   2.265   1.219
  598SOL     OW  477   1.272   3.307   1.142
  598SOL    HW1  478   1.319   3.320   1.229
  598SOL    HW2  479   1.206   3.233   1.151
  599SOL     OW  480   1.582   2.501   0.472
  599SOL    HW1  481   1.551   2.562   0.545
  599SOL    HW2  482   1.632   2.553   0.403
  602SOL     OW  483   1.587   2.641   1.670
  602SOL    HW1  484   1.495   2.679   1.665
  602SOL    HW2  485   1.647   2.688   1.605
  603SOL     OW  486   1.013   1.967   1.770
  603SOL    HW1  487   1.019   2.052   1.718
  603SOL    HW2  488   1.045   1.891   1.713
  604SOL     OW  489   0.504   1.912   1.740
  604SOL    HW1  490   0.462   1.855   1.670
  604SOL    HW2  491   0.438   1.981   1.772
  606SOL     OW  492   1.360   2.724   1.045
  606SOL    HW1  493   1.285   2.724   0.979
  606SOL    HW2  494   1.397   2.632   1.054
  610SOL     OW  495   0.732   2.496   1.064
  610SOL    HW1  496   0.791   2.470   0.988
  610SOL    HW2  497   0.704   2.592   1.053
  611SOL     OW  498   1.728   2.797   1.854
  611SOL    HW1  499   1.682   2.790   1.765
  611SOL    HW2  500   1.666   2.841   1.920
  614SOL     OW  501   1.023   2.628   0.966
  614SOL    HW1  502   1.038   2.649   1.062
  614SOL    HW2  503   0.993   2.533   0.957
  615SOL     OW  504   0.980   3.435   1.700
  615SOL    HW1  505   0.960   3.479   1.612
  615SOL    HW2  506   1.019   3.344   1.684
  616SOL     OW  507   1.859   3.380   1.605
  616SOL    HW1  508   1.873   3.407   1.510
  616SOL    HW2  509   1.942   3.402   1.658
  623SOL     OW  510   1.138   2.242   1.678
  623SOL    HW1  511   1.093   2.305   1.742
  623SOL    HW2  512   1.231   2.273   1.661
  624SOL     OW  513   1.160   2.069   1.477
  624SOL    HW1  514   1.160   2.133   1.554
  624SOL    HW2  515   1.188   2.117   1.394
  628SOL     OW  516   1.002   2.658   1.238
  628SOL    HW1  517   1.043   2.626   1.324
  628SOL    HW2  518   0.906   2.631   1.235
  631SOL     OW  519   1.369   2.812   1.660
  631SOL    HW1  520   1.408   2.901   1.680
  631SOL    HW2  521   1.379   2.792   1.563
  633SOL     OW  522   1.657   2.466   1.206
  633SOL    HW1  523   1.619   2.397   1.268
  633SOL    HW2  524   1.739   2.430   1.162
  635SOL     OW  525   0.671   2.326   1.269
  635SOL    HW1  526   0.637   2.237   1.239
  635SOL    HW2  527   0.697   2.380   1.189
  639SOL     OW  528   1.347   2.921   1.234
  639SOL    HW1  529   1.371   2.858   1.160
  639SOL    HW2  530   1.257   2.961   1.216
  646SOL     OW  531   1.726   1.997   0.523
  646SOL    HW1  532   1.799   1.980   0.456
  646SOL    HW2  533   1.695   1.910   0.561
  650SOL     OW  534   0.830   3.135   1.422
  650SOL    HW1  535   0.825   3.168   1.517
  650SOL    HW2  536   0.744   3.154   1.376
  652SOL     OW  537   1.650   3.582   1.394
  652SOL    HW1  538   1.703   3.592   1.310
  652SOL    HW2  539   1.623   3.672   1.428
  653SOL     OW  540   1.841   2.037   0.963
  653SOL    HW1  541   1.880   1.952   0.927
  653SOL    HW2  542   1.743   2.039   0.944
  656SOL     OW  543   0.822   2.864   1.372
  656SOL    HW1  544   0.862   2.863   1.280
  656SOL    HW2  545   0.832   2.956   1.412
  660SOL     OW  546   1.614   3.154   1.289
  660SOL    HW1  547   1.674   3.157   1.369
  660SOL    HW2  548   1.539   3.218   1.302
  662SOL     OW  549   1.014   2.098   0.971
  662SOL    HW1  550   1.006   2.062   0.878
  662SOL    HW2  551   1.012   2.022   1.036
  664SOL     OW  552   1.709   2.247   1.381
  664SOL    HW1  553   1.782   2.316   1.385
  664SOL    HW2  554   1.737   2.172   1.322
  667SOL     OW  555   0.672   2.065   1.489
  667SOL    HW1  556   0.762   2.049   1.449
  667SOL    HW2  557   0.680   2.070   1.588
  669SOL     OW  558   1.440   2.718   1.398
  669SOL    HW1  559   1.383   2.770   1.335
  669SOL    HW2  560   1.536   2.730   1.374
  672SOL     OW  561   0.613   2.704   1.431
  672SOL    HW1  562   0.669   2.785   1.414
  672SOL    HW2  563   0.672   2.624   1.434
  674SOL     OW  564   0.716   2.427   1.708
  674SOL    HW1  565   0.735   2.492   1.782
  674SOL    HW2  566   0.776   2.347   1.717
  675SOL     OW  567   1.450   3.082   1.633
  675SOL    HW1  568   1.441   3.072   1.732
  675SOL    HW2  569   1.546   3.075   1.607
  677SOL     OW  570   1.674   2.745   1.254
  677SOL    HW1  571   1.647   2.656   1.217
  677SOL    HW2  572   1.675   2.813   1.181
  680SOL     OW  573   1.777   2.204   1.642
  680SOL    HW1  574   1.760   2.235   1.548
  680SOL    HW2  575   1.693   2.167   1.680
  681SOL     OW  576   1.730   2.796   1.517
  681SOL    HW1  577   1.768   2.887   1.532
  681SOL    HW2  578   1.722   2.779   1.418
  690SOL     OW  579   1.824   2.054   1.227
  690SOL    HW1  580   1.820   1.964   1.271
  690SOL    HW2  581   1.827   2.043   1.128
  692SOL     OW  582   1.705   3.349   1.104
  692SOL    HW1  583   1.612   3.324   1.077
  692SOL    HW2  584   1.731   3.299   1.186
  695SOL     OW  585   1.424   2.076   1.112
  695SOL    HW1  586   1.476   2.011   1.167
  695SOL    HW2  587   1.375   2.139   1.173
  696SOL     OW  588   1.001   1.896   1.154
  696SOL    HW1  589   0.938   1.824   1.123
  696SOL    HW2  590   1.094   1.860   1.154
  699SOL     OW  591   1.300   2.315   0.691
  699SOL    HW1  592   1.241   2.395   0.695
  699SOL    HW2  593   1.315   2.280   0.784
  700SOL     OW  594   1.593   2.083   0.882
  700SOL    HW1  595   1.509   2.082   0.936
  700SOL    HW2  596   1.595   2.166   0.826
  707SOL     OW  597   1.555   3.373   2.565
  707SOL    HW1  598   1.498   3.357   2.646
  707SOL    HW2  599   1.496   3.383   2.485
  708SOL     OW  600   1.135   2.565   2.579
  708SOL    HW1  601   1.192   2.643   2.554
  708SOL    HW2  602   1.075   2.591   2.655
  709SOL     OW  603   1.755   2.469   2.093
  709SOL    HW1  604   1.743   2.456   1.994
  709SOL    HW2  605   1.725   2.388   2.142
  710SOL     OW  606   0.768   3.006   2.885
  710SOL    HW1  607   0.690   3.023   2.945
  710SOL    HW2  608   0.802   3.093   2.849
  712SOL     OW  609   0.685   2.874   2.527
  712SOL    HW1  610   0.754   2.858   2.597
  712SOL    HW2  611   0.612   2.931   2.565
  715SOL     OW  612   1.460   3.367   3.201
  715SOL    HW1  613   1.484   3.461   3.227
  715SOL    HW2  614   1.444   3.313   3.283
  717SOL     OW  615   1.603   2.309   2.599
  717SOL    HW1  616   1.529   2.355   2.549
  717SOL    HW2  617   1.654   2.377   2.652
  723SOL     OW  618   0.606   2.826   1.985
  723SOL    HW1  619   0.613   2.910   1.931
  723SOL    HW2  620   0.652   2.839   2.073
  724SOL     OW  621   1.594   1.976   3.342
  724SOL    HW1  622   1.576   2.043   3.270
  724SOL    HW2  623   1.591   2.022   3.431
  726SOL     OW  624   1.842   3.629   2.221
  726SOL    HW1  625   1.896   3.600   2.301
  726SOL    HW2  626   1.872   3.719   2.192
  728SOL     OW  627   1.689   2.784   2.474
  728SOL    HW1  628   1.784   2.755   2.482
  728SOL    HW2  629   1.681   2.849   2.399
  729SOL     OW  630   1.641   2.970   2.294
  729SOL    HW1  631   1.727   2.972   2.242
  729SOL    HW2  632   1.655   3.017   2.382
  732SOL     OW  633   1.293   3.090   3.285
  732SOL    HW1  634   1.330   3.017   3.227
  732SOL    HW2  635   1.345   3.095   3.370
  733SOL     OW  636   0.809   1.866   2.364
  733SOL    HW1  637   0.849   1.957   2.355
  733SOL    HW2  638   0.709   1.874   2.370
  735SOL     OW  639   1.525   2.861   2.052
  735SOL    HW1  640   1.462   2.785   2.065
  735SOL    HW2  641   1.573   2.879   2.138
  738SOL     OW  642   1.466   3.279   2.815
  738SOL    HW1  643   1.407   3.285   2.895
  738SOL    HW2  644   1.451   3.191   2.769
  739SOL     OW  645   1.667   3.576   2.434
  739SOL    HW1  646   1.626   3.553   2.346
  739SOL    HW2  647   1.649   3.502   2.499
  740SOL     OW  648   0.598   2.591   2.132
  740SOL    HW1  649   0.622   2.660   2.064
  740SOL    HW2  650   0.520   2.624   2.186
  741SOL     OW  651   1.281   2.207   2.806
  741SOL    HW1  652   1.195   2.157   2.793
  741SOL    HW2  653   1.343   2.153   2.862
  742SOL     OW  654   1.576   3.524   2.169
  742SOL    HW1  655   1.665   3.570   2.172
  742SOL    HW2  656   1.555   3.500   2.074
  744SOL     OW  657   1.394   2.331   3.536
  744SOL    HW1  658   1.374   2.374   3.624
  744SOL    HW2  659   1.472   2.269   3.545
  746SOL     OW  660   0.991   2.272   3.104
  746SOL    HW1  661   0.914   2.306   3.158
  746SOL    HW2  662   0.957   2.221   3.025
  747SOL     OW  663   1.041   2.563   2.291
  747SOL    HW1  664   1.067   2.559   2.387
  747SOL    HW2  665   0.956   2.512   2.277
  750SOL     OW  666   0.865   2.210   2.057
  750SOL    HW1  667   0.924   2.273   2.008
  750SOL    HW2  668   0.884   2.116   2.028
  751SOL     OW  669   1.719   2.447   3.693
  751SOL    HW1  670   1.693   2.536   3.657
  751SOL    HW2  671   1.717   2.379   3.620
  752SOL     OW  672   1.362   3.006   2.407
  752SOL    HW1  673   1.445   2.977   2.359
  752SOL    HW2  674   1.313   3.073   2.351
  753SOL     OW  675   0.550   2.058   2.747
  753SOL    HW1  676   0.545   2.053   2.847
  753SOL    HW2  677   0.552   2.154   2.718
  754SOL     OW  678   1.008   3.318   2.339
  754SOL    HW1  679   0.962   3.390   2.287
  754SOL    HW2  680   1.004   3.338   2.437
  756SOL     OW  681   1.795   2.928   2.735
  756SOL    HW1  682   1.733   2.913   2.659
  756SOL    HW2  683   1.743   2.939   2.820
  759SOL     OW  684   1.458   2.597   2.590
  759SOL    HW1  685   1.453   2.532   2.665
  759SOL    HW2  686   1.538   2.656   2.603
  763SOL     OW  687   1.632   3.239   1.943
  763SOL    HW1  688   1.600   3.333   1.933
  763SOL    HW2  689   1.556   3.176   1.931
  765SOL     OW  690   1.400   1.969   2.288
  765SOL    HW1  691   1.376   1.932   2.198
  765SOL    HW2  692   1.499   1.985   2.292
  769SOL     OW  693   1.547   2.084   3.591
  769SOL    HW1  694   1.542   2.121   3.683
  769SOL    HW2  695   1.475   2.015   3.579
  770SOL     OW  696   0.614   1.984   1.979
  770SOL    HW1  697   0.712   1.962   1.986
  770SOL    HW2  698   0.583   1.967   1.886
  773SOL     OW  699   1.351   2.452   3.295
  773SOL    HW1  700   1.379   2.409   3.380
  773SOL    HW2  701   1.376   2.548   3.296
  775SOL     OW  702   0.922   2.365   2.761
  775SOL    HW1  703   0.897   2.356   2.665
  775SOL    HW2  704   0.970   2.283   2.792
  776SOL     OW  705   0.539   1.926   2.374
  776SOL    HW1  706   0.458   1.927   2.432
  776SOL    HW2  707   0.542   2.009   2.319
  777SOL     OW  708   1.434   3.050   1.903
  777SOL    HW1  709   1.466   2.974   1.960
  777SOL    HW2  710   1.342   3.077   1.933
  779SOL     OW  711   0.935   2.098   2.342
  779SOL    HW1  712   0.887   2.139   2.264
  779SOL    HW2  713   1.034   2.096   2.323
  780SOL     OW  714   1.076   2.545   3.326
  780SOL    HW1  715   0.996   2.484   3.329
  780SOL    HW2  716   1.157   2.492   3.302
  781SOL     OW  717   1.227   3.432   2.655
  781SOL    HW1  718   1.248   3.506   2.590
  781SOL    HW2  719   1.295   3.432   2.728
  783SOL     OW  720   1.271   3.659   2.453
  783SOL    HW1  721   1.315   3.723   2.389
  783SOL    HW2  722   1.221   3.711   2.523
  784SOL     OW  723   1.032   2.411   1.878
  784SOL    HW1  724   0.991   2.493   1.839
  784SOL    HW2  725   1.096   2.437   1.951
  786SOL     OW  726   0.561   2.084   3.009
  786SOL    HW1  727   0.599   2.000   3.046
  786SOL    HW2  728   0.473   2.103   3.053
  787SOL     OW  729   0.866   2.316   2.504
  787SOL    HW1  730   0.834   2.388   2.442
  787SOL    HW2  731   0.890   2.235   2.451
  788SOL     OW  732   1.017   1.901   2.615
  788SOL    HW1  733   0.945   1.906   2.546
  788SOL    HW2  734   0.993   1.832   2.684
  789SOL     OW  735   1.429   3.035   2.729
  789SOL    HW1  736   1.374   2.951   2.722
  789SOL    HW2  737   1.455   3.064   2.637
  790SOL     OW  738   1.466   2.452   2.854
  790SOL    HW1  739   1.436   2.357   2.861
  790SOL    HW2  740   1.539   2.468   2.920
  791SOL     OW  741   1.857   2.695   2.239
  791SOL    HW1  742   1.899   2.631   2.303
  791SOL    HW2  743   1.819   2.644   2.161
  793SOL     OW  744   1.664   3.142   2.519
  793SOL    HW1  745   1.763   3.150   2.533
  793SOL    HW2  746   1.619   3.226   2.550
  794SOL     OW  747   1.390   2.437   1.940
  794SOL    HW1  748   1.336   2.416   2.021
  794SOL    HW2  749   1.481   2.396   1.949
  795SOL     OW  750   0.527   2.118   2.190
  795SOL    HW1  751   0.554   2.059   2.115
  795SOL    HW2  752   0.527   2.213   2.159
  796SOL     OW  753   1.754   3.085   3.450
  796SOL    HW1  754   1.845   3.046   3.437
  796SOL    HW2  755   1.762   3.181   3.474
  799SOL     OW  756   1.111   3.057   2.962
  799SOL    HW1  757   1.071   3.101   3.043
  799SOL    HW2  758   1.070   3.094   2.879
  800SOL     OW  759   1.638   2.961   2.941
  800SOL    HW1  760   1.643   3.042   3.000
  800SOL    HW2  761   1.552   2.963   2.890
  801SOL     OW  762   0.915   1.951   3.264
  801SOL    HW1  763   0.940   1.931   3.169
  801SOL    HW2  764   0.987   2.007   3.306
  803SOL     OW  765   0.705   2.912   2.230
  803SOL    HW1  766   0.691   2.919   2.329
  803SOL    HW2  767   0.789   2.861   2.212
  805SOL     OW  768   1.274   2.248   3.124
  805SOL    HW1  769   1.295   2.322   3.188
  805SOL    HW2  770   1.185   2.265   3.081
  808SOL     OW  771   0.566   2.399   2.727
  808SOL    HW1  772   0.578   2.465   2.653
  808SOL    HW2  773   0.612   2.433   2.810
  809SOL     OW  774   1.252   3.210   2.250
  809SOL    HW1  775   1.302   3.287   2.290
  809SOL    HW2  776   1.157   3.212   2.282
  810SOL     OW  777   1.272   3.307   3.004
  810SOL    HW1  778   1.319   3.320   3.091
  810SOL    HW2  779   1.206   3.233   3.013
  811SOL     OW  780   1.582   2.501   2.334
  811SOL    HW1  781   1.551   2.562   2.407
  811SOL    HW2  782   1.632   2.553   2.265
  814SOL     OW  783   1.587   2.641   3.532
  814SOL    HW1  784   1.495   2.679   3.527
  814SOL    HW2  785   1.647   2.688   3.467
  818SOL     OW  786   1.360   2.724   2.907
  818SOL    HW1  787   1.285   2.724   2.841
  818SOL    HW2  788   1.397   2.632   2.916
  819SOL     OW  789   1.209   2.387   2.137
  819SOL    HW1  790   1.222   2.303   2.191
  819SOL    HW2  791   1.180   2.461   2.197
  822SOL     OW  792   0.732   2.496   2.926
  822SOL    HW1  793   0.791   2.470   2.850
  822SOL    HW2  794   0.704   2.592   2.915
  823SOL     OW  795   1.728   2.797   3.716
  823SOL    HW1  796   1.682   2.790   3.627
  823SOL    HW2  797   1.666   2.841   3.782
  825SOL     OW  798   1.622   2.229   2.236
  825SOL    HW1  799   1.624   2.153   2.300
  825SOL    HW2  800   1.574   2.306   2.276
  826SOL     OW  801   1.023   2.628   2.828
  826SOL    HW1  802   1.038   2.649   2.924
  826SOL    HW2  803   0.993   2.533   2.819
  830SOL     OW  804   1.540   2.136   1.987
  830SOL    HW1  805   1.479   2.061   2.010
  830SOL    HW2  806   1.562   2.188   2.070
  831SOL     OW  807   1.303   2.700   1.904
  831SOL    HW1  808   1.337   2.607   1.919
  831SOL    HW2  809   1.321   2.727   1.809
  832SOL     OW  810   1.068   3.195   2.711
  832SOL    HW1  811   1.075   3.111   2.656
  832SOL    HW2  812   1.130   3.264   2.675
  835SOL     OW  813   1.138   2.242   3.540
  835SOL    HW1  814   1.093   2.305   3.604
  835SOL    HW2  815   1.231   2.273   3.523
  836SOL     OW  816   1.160   2.069   3.339
  836SOL    HW1  817   1.160   2.133   3.416
  836SOL    HW2  818   1.188   2.117   3.256
  840SOL     OW  819   1.002   2.658   3.100
  840SOL    HW1  820   1.043   2.626   3.186
  840SOL    HW2  821   0.906   2.631   3.097
  843SOL     OW  822   1.369   2.812   3.522
  843SOL    HW1  823   1.408   2.901   3.542
  843SOL    HW2  824   1.379   2.792   3.425
  844SOL     OW  825   0.815   2.434   2.187
  844SOL    HW1  826   0.822   2.345   2.141
  844SOL    HW2  827   0.721   2.468   2.179
  845SOL     OW  828   1.657   2.466   3.068
  845SOL    HW1  829   1.619   2.397   3.130
  845SOL    HW2  830   1.739   2.430   3.024
  847SOL     OW  831   0.671   2.326   3.131
  847SOL    HW1  832   0.637   2.237   3.101
  847SOL    HW2  833   0.697   2.380   3.051
  849SOL     OW  834   0.473   2.362   2.053
  849SOL    HW1  835   0.534   2.442   2.057
  849SOL    HW2  836   0.378   2.393   2.060
  851SOL     OW  837   1.347   2.921   3.096
  851SOL    HW1  838   1.371   2.858   3.022
  851SOL    HW2  839   1.257   2.961   3.078
  852SOL     OW  840   1.302   2.717   2.171
  852SOL    HW1  841   1.216   2.686   2.213
  852SOL    HW2  842   1.298   2.703   2.072
  853SOL     OW  843   1.759   3.609   3.016
  853SOL    HW1  844   1.820   3.639   2.943
  853SOL    HW2  845   1.721   3.520   2.994
  857SOL     OW  846   1.726   1.997   2.385
  857SOL    HW1  847   1.799   1.980   2.318
  857SOL    HW2  848   1.695   1.910   2.423
  858SOL     OW  849   1.388   3.435   2.339
  858SOL    HW1  850   1.455   3.447   2.265
  858SOL    HW2  851   1.348   3.524   2.362
  860SOL     OW  852   1.280   2.789   2.534
  860SOL    HW1  853   1.340   2.708   2.536
  860SOL    HW2  854   1.320   2.858   2.474
  864SOL     OW  855   1.841   2.037   2.825
  864SOL    HW1  856   1.880   1.952   2.789
  864SOL    HW2  857   1.743   2.039   2.806
  866SOL     OW  858   1.194   3.474   1.893
  866SOL    HW1  859   1.200   3.381   1.930
  866SOL    HW2  860   1.135   3.474   1.813
  868SOL     OW  861   0.916   2.772   2.153
  868SOL    HW1  862   0.979   2.810   2.085
  868SOL    HW2  863   0.956   2.689   2.192
  869SOL     OW  864   1.504   3.469   1.906
  869SOL    HW1  865   1.412   3.506   1.913
  869SOL    HW2  866   1.542   3.489   1.816
  871SOL     OW  867   1.614   3.154   3.151
  871SOL    HW1  868   1.674   3.157   3.231
  871SOL    HW2  869   1.539   3.218   3.164
  872SOL     OW  870   1.039   2.960   2.558
  872SOL    HW1  871   0.969   2.913   2.612
  872SOL    HW2  872   1.098   2.892   2.515
  873SOL     OW  873   1.014   2.098   2.833
  873SOL    HW1  874   1.006   2.062   2.740
  873SOL    HW2  875   1.012   2.022   2.898
  875SOL     OW  876   1.709   2.247   3.243
  875SOL    HW1  877   1.782   2.316   3.247
  875SOL    HW2  878   1.737   2.172   3.184
  880SOL     OW  879   1.440   2.718   3.260
  880SOL    HW1  880   1.383   2.770   3.197
  880SOL    HW2  881   1.536   2.730   3.236
  882SOL     OW  882   1.183   3.197   1.981
  882SOL    HW1  883   1.084   3.186   1.983
  882SOL    HW2  884   1.217   3.212   2.074
  884SOL     OW  885   1.493   3.629   2.821
  884SOL    HW1  886   1.526   3.693   2.752
  884SOL    HW2  887   1.559   3.623   2.896
  888SOL     OW  888   1.674   2.745   3.116
  888SOL    HW1  889   1.647   2.656   3.079
  888SOL    HW2  890   1.675   2.813   3.043
  889SOL     OW  891   1.225   2.187   2.311
  889SOL    HW1  892   1.290   2.113   2.300
  889SOL    HW2  893   1.245   2.237   2.395
  890SOL     OW  894   0.594   2.607   2.514
  890SOL    HW1  895   0.644   2.692   2.495
  890SOL    HW2  896   0.506   2.609   2.466
  891SOL     OW  897   1.777   2.204   3.504
  891SOL    HW1  898   1.760   2.235   3.410
  891SOL    HW2  899   1.693   2.167   3.542
  892SOL     OW  900   1.730   2.796   3.379
  892SOL    HW1  901   1.768   2.887   3.394
  892SOL    HW2  902   1.722   2.779   3.280
  893SOL     OW  903   0.859   3.236   1.878
  893SOL    HW1  904   0.813   3.251   1.966
  893SOL    HW2  905   0.903   3.321   1.848
  895SOL     OW  906   0.859   2.818   2.723
  895SOL    HW1  907   0.913   2.749   2.771
  895SOL    HW2  908   0.827   2.887   2.789
  896SOL     OW  909   1.083   2.846   1.949
  896SOL    HW1  910   1.060   2.899   1.867
  896SOL    HW2  911   1.164   2.790   1.930
  897SOL     OW  912   1.861   3.431   2.713
  897SOL    HW1  913   1.790   3.419   2.643
  897SOL    HW2  914   1.862   3.352   2.773
  901SOL     OW  915   1.824   2.054   3.089
  901SOL    HW1  916   1.820   1.964   3.133
  901SOL    HW2  917   1.827   2.043   2.990
  902SOL     OW  918   0.428   2.286   2.382
  902SOL    HW1  919   0.458   2.214   2.320
  902SOL    HW2  920   0.389   2.246   2.465
  903SOL     OW  921   1.705   3.349   2.966
  903SOL    HW1  922   1.612   3.324   2.939
  903SOL    HW2  923   1.731   3.299   3.048
  906SOL     OW  924   1.424   2.076   2.974
  906SOL    HW1  925   1.476   2.011   3.029
  906SOL    HW2  926   1.375   2.139   3.035
  907SOL     OW  927   1.001   1.896   3.016
  907SOL    HW1  928   0.938   1.824   2.985
  907SOL    HW2  929   1.094   1.860   3.016
  908SOL     OW  930   0.770   3.192   2.163
  908SOL    HW1  931   0.724   3.105   2.180
  908SOL    HW2  932   0.861   3.189   2.204
  910SOL     OW  933   1.352   1.914   2.030
  910SOL    HW1  934   1.387   1.873   1.946
  910SOL    HW2  935   1.262   1.876   2.050
  911SOL     OW  936   1.300   2.315   2.553
  911SOL    HW1  937   1.241   2.395   2.557
  911SOL    HW2  938   1.315   2.280   2.646
  912SOL     OW  939   1.593   2.083   2.744
  912SOL    HW1  940   1.509   2.082   2.798
  912SOL    HW2  941   1.595   2.166   2.688
 1086SOL     OW  942   1.726   3.859   2.385
 1086SOL    HW1  943   1.799   3.842   2.318
 1086SOL    HW2  944   1.695   3.772   2.423
 1129SOL     OW  945   2.431   1.275   1.165
 1129SOL    HW1  946   2.338   1.268   1.128
 1129SOL    HW2  947   2.442   1.364   1.209
 1133SOL     OW  948   2.630   1.144   1.023
 1133SOL    HW1  949   2.552   1.161   1.083
 1133SOL    HW2  950   2.664   1.231   0.987
 1134SOL     OW  951   2.712   0.798   1.823
 1134SOL    HW1  952   2.708   0.874   1.888
 1134SOL    HW2  953   2.734   0.834   1.732
 1136SOL     OW  954   2.548   1.161   1.803
 1136SOL    HW1  955   2.608   1.240   1.817
 1136SOL    HW2  956   2.462   1.192   1.762
 1137SOL     OW  957   2.197   1.435   1.061
 1137SOL    HW1  958   2.119   1.404   1.008
 1137SOL    HW2  959   2.255   1.493   1.004
 1138SOL     OW  960   3.322   1.505   1.339
 1138SOL    HW1  961   3.346   1.599   1.365
 1138SOL    HW2  962   3.306   1.451   1.421
 1141SOL     OW  963   2.093   1.713   0.483
 1141SOL    HW1  964   2.127   1.790   0.537
 1141SOL    HW2  965   2.137   1.713   0.393
 1142SOL     OW  966   2.989   1.341   1.690
 1142SOL    HW1  967   3.036   1.341   1.778
 1142SOL    HW2  968   2.941   1.254   1.679
 1143SOL     OW  969   2.092   1.434   0.538
 1143SOL    HW1  970   2.066   1.530   0.538
 1143SOL    HW2  971   2.021   1.380   0.583
 1144SOL     OW  972   2.102   1.091   0.886
 1144SOL    HW1  973   2.116   1.007   0.938
 1144SOL    HW2  974   2.047   1.155   0.941
 1145SOL     OW  975   2.482   1.786   1.439
 1145SOL    HW1  976   2.390   1.769   1.474
 1145SOL    HW2  977   2.510   1.878   1.465
 1152SOL     OW  978   1.975   0.737   1.597
 1152SOL    HW1  979   2.063   0.724   1.642
 1152SOL    HW2  980   1.962   0.834   1.575
 1153SOL     OW  981   2.475   1.365   0.726
 1153SOL    HW1  982   2.426   1.278   0.735
 1153SOL    HW2  983   2.452   1.408   0.639
 1154SOL     OW  984   3.155   1.228   1.423
 1154SOL    HW1  985   3.192   1.155   1.365
 1154SOL    HW2  986   3.207   1.233   1.508
 1156SOL     OW  987   2.059   0.976   1.264
 1156SOL    HW1  988   2.148   0.931   1.250
 1156SOL    HW2  989   1.986   0.911   1.245
 1158SOL     OW  990   3.049   1.792   1.616
 1158SOL    HW1  991   3.073   1.852   1.540
 1158SOL    HW2  992   3.056   1.697   1.586
 1165SOL     OW  993   2.669   0.605   1.465
 1165SOL    HW1  994   2.622   0.602   1.554
 1165SOL    HW2  995   2.618   0.550   1.399
 1167SOL     OW  996   2.835   0.890   1.572
 1167SOL    HW1  997   2.881   0.806   1.543
 1167SOL    HW2  998   2.779   0.924   1.497
 1171SOL     OW  999   1.992   1.821   1.571
 1171SOL    HW1 1000   1.982   1.806   1.670
 1171SOL    HW2 1001   1.906   1.857   1.535
 1177SOL     OW 1002   2.213   1.801   0.853
 1177SOL    HW1 1003   2.263   1.715   0.859
 1177SOL    HW2 1004   2.278   1.878   0.850
 1179SOL     OW 1005   3.089   1.550   1.506
 1179SOL    HW1 1006   3.095   1.473   1.570
 1179SOL    HW2 1007   3.037   1.524   1.426
 1182SOL     OW 1008   2.323   1.266   1.727
 1182SOL    HW1 1009   2.273   1.267   1.641
 1182SOL    HW2 1010   2.260   1.248   1.803
 1188SOL     OW 1011   2.111   1.785   1.241
 1188SOL    HW1 1012   2.168   1.720   1.291
 1188SOL    HW2 1013   2.095   1.752   1.148
 1189SOL     OW 1014   2.802   1.698   0.904
 1189SOL    HW1 1015   2.882   1.641   0.925
 1189SOL    HW2 1016   2.753   1.658   0.827
 1194SOL     OW 1017   2.750   1.514   1.195
 1194SOL    HW1 1018   2.727   1.489   1.101
 1194SOL    HW2 1019   2.811   1.445   1.234
 1196SOL     OW 1020   2.665   1.402   0.924
 1196SOL    HW1 1021   2.755   1.416   0.882
 1196SOL    HW2 1022   2.594   1.404   0.853
 1202SOL     OW 1023   2.938   0.683   1.464
 1202SOL    HW1 1024   2.858   0.622   1.467
 1202SOL    HW2 1025   3.019   0.630   1.440
 1203SOL     OW 1026   3.089   1.570   0.793
 1203SOL    HW1 1027   3.110   1.644   0.728
 1203SOL    HW2 1028   3.157   1.570   0.866
 1204SOL     OW 1029   2.321   1.152   0.741
 1204SOL    HW1 1030   2.250   1.125   0.806
 1204SOL    HW2 1031   2.295   1.124   0.648
 1207SOL     OW 1032   1.940   0.556   1.386
 1207SOL    HW1 1033   2.032   0.555   1.345
 1207SOL    HW2 1034   1.934   0.630   1.453
 1219SOL     OW 1035   2.926   1.347   1.340
 1219SOL    HW1 1036   2.846   1.324   1.395
 1219SOL    HW2 1037   3.009   1.321   1.389
 1220SOL     OW 1038   3.454   1.629   1.625
 1220SOL    HW1 1039   3.481   1.663   1.535
 1220SOL    HW2 1040   3.533   1.591   1.671
 1221SOL     OW 1041   2.973   1.195   1.100
 1221SOL    HW1 1042   2.933   1.239   1.181
 1221SOL    HW2 1043   2.932   1.232   1.017
 1224SOL     OW 1044   2.842   1.116   1.719
 1224SOL    HW1 1045   2.743   1.122   1.729
 1224SOL    HW2 1046   2.865   1.036   1.663
 1226SOL     OW 1047   2.272   0.813   1.251
 1226SOL    HW1 1048   2.358   0.825   1.301
 1226SOL    HW2 1049   2.230   0.726   1.278
 1228SOL     OW 1050   1.926   1.564   1.331
 1228SOL    HW1 1051   1.880   1.646   1.297
 1228SOL    HW2 1052   2.024   1.583   1.340
 1232SOL     OW 1053   3.134   1.445   1.142
 1232SOL    HW1 1054   3.181   1.458   1.229
 1232SOL    HW2 1055   3.068   1.371   1.151
 1234SOL     OW 1056   2.216   1.510   1.329
 1234SOL    HW1 1057   2.195   1.466   1.242
 1234SOL    HW2 1058   2.313   1.536   1.332
 1235SOL     OW 1059   2.264   0.751   1.598
 1235SOL    HW1 1060   2.332   0.806   1.551
 1235SOL    HW2 1061   2.304   0.663   1.625
 1239SOL     OW 1062   2.435   0.870   1.029
 1239SOL    HW1 1063   2.479   0.959   1.020
 1239SOL    HW2 1064   2.372   0.870   1.106
 1243SOL     OW 1065   1.899   1.310   1.282
 1243SOL    HW1 1066   1.952   1.261   1.350
 1243SOL    HW2 1067   1.921   1.408   1.287
 1249SOL     OW 1068   2.842   1.573   1.700
 1249SOL    HW1 1069   2.822   1.617   1.612
 1249SOL    HW2 1070   2.881   1.482   1.684
 1250SOL     OW 1071   3.721   1.518   1.605
 1250SOL    HW1 1072   3.735   1.545   1.510
 1250SOL    HW2 1073   3.804   1.540   1.658
 1251SOL     OW 1074   2.212   0.898   1.804
 1251SOL    HW1 1075   2.288   0.942   1.852
 1251SOL    HW2 1076   2.247   0.851   1.722
 1254SOL     OW 1077   2.930   1.333   0.849
 1254SOL    HW1 1078   2.937   1.249   0.794
 1254SOL    HW2 1079   2.992   1.402   0.813
 1255SOL     OW 1080   2.181   0.810   0.949
 1255SOL    HW1 1081   2.274   0.846   0.954
 1255SOL    HW2 1082   2.175   0.725   1.001
 1260SOL     OW 1083   1.950   1.801   0.927
 1260SOL    HW1 1084   1.908   1.715   0.900
 1260SOL    HW2 1085   2.044   1.804   0.893
 1261SOL     OW 1086   2.366   1.568   0.910
 1261SOL    HW1 1087   2.432   1.642   0.919
 1261SOL    HW2 1088   2.410   1.489   0.868
 1262SOL     OW 1089   2.864   0.796   1.238
 1262SOL    HW1 1090   2.905   0.764   1.324
 1262SOL    HW2 1091   2.768   0.769   1.235
 1264SOL     OW 1092   2.051   0.520   1.722
 1264SOL    HW1 1093   2.110   0.480   1.652
 1264SOL    HW2 1094   1.993   0.591   1.681
 1265SOL     OW 1095   3.231   0.950   1.660
 1265SOL    HW1 1096   3.270   1.039   1.680
 1265SOL    HW2 1097   3.241   0.930   1.563
 1268SOL     OW 1098   2.114   1.564   1.744
 1268SOL    HW1 1099   2.084   1.621   1.820
 1268SOL    HW2 1100   2.107   1.467   1.770
 1270SOL     OW 1101   2.792   1.678   1.465
 1270SOL    HW1 1102   2.768   1.660   1.370
 1270SOL    HW2 1103   2.822   1.772   1.475
 1272SOL     OW 1104   2.021   1.137   1.466
 1272SOL    HW1 1105   2.043   1.076   1.542
 1272SOL    HW2 1106   2.031   1.088   1.380
 1273SOL     OW 1107   3.209   1.059   1.234
 1273SOL    HW1 1108   3.233   0.996   1.160
 1273SOL    HW2 1109   3.119   1.099   1.216
 1276SOL     OW 1110   3.114   1.731   1.128
 1276SOL    HW1 1111   3.198   1.736   1.074
 1276SOL    HW2 1112   3.091   1.635   1.146
 1277SOL     OW 1113   1.945   1.258   1.022
 1277SOL    HW1 1114   1.940   1.257   1.122
 1277SOL    HW2 1115   1.862   1.217   0.984
 1278SOL     OW 1116   2.550   1.662   1.716
 1278SOL    HW1 1117   2.494   1.743   1.725
 1278SOL    HW2 1118   2.602   1.666   1.630
 1282SOL     OW 1119   1.992   1.794   1.851
 1282SOL    HW1 1120   1.951   1.720   1.904
 1282SOL    HW2 1121   2.056   1.845   1.909
 1284SOL     OW 1122   2.692   1.273   1.422
 1284SOL    HW1 1123   2.687   1.306   1.517
 1284SOL    HW2 1124   2.606   1.292   1.376
 1286SOL     OW 1125   3.512   1.720   1.394
 1286SOL    HW1 1126   3.565   1.730   1.310
 1286SOL    HW2 1127   3.485   1.810   1.428
 1290SOL     OW 1128   2.684   1.002   1.372
 1290SOL    HW1 1129   2.724   1.001   1.280
 1290SOL    HW2 1130   2.694   1.094   1.412
 1293SOL     OW 1131   2.234   1.288   1.490
 1293SOL    HW1 1132   2.221   1.381   1.456
 1293SOL    HW2 1133   2.150   1.236   1.477
 1294SOL     OW 1134   3.476   1.292   1.289
 1294SOL    HW1 1135   3.536   1.295   1.369
 1294SOL    HW2 1136   3.401   1.356   1.302
 1297SOL     OW 1137   2.452   1.487   0.491
 1297SOL    HW1 1138   2.494   1.429   0.421
 1297SOL    HW2 1139   2.408   1.566   0.447
 1300SOL     OW 1140   1.967   1.013   1.726
 1300SOL    HW1 1141   1.890   0.980   1.780
 1300SOL    HW2 1142   2.052   0.983   1.768
 1306SOL     OW 1143   2.475   0.842   1.431
 1306SOL    HW1 1144   2.531   0.923   1.414
 1306SOL    HW2 1145   2.534   0.762   1.434
 1307SOL     OW 1146   3.355   1.767   0.959
 1307SOL    HW1 1147   3.388   1.831   0.890
 1307SOL    HW2 1148   3.421   1.761   1.034
 1308SOL     OW 1149   2.578   0.565   1.708
 1308SOL    HW1 1150   2.597   0.630   1.782
 1308SOL    HW2 1151   2.638   0.485   1.717
 1309SOL     OW 1152   3.312   1.220   1.633
 1309SOL    HW1 1153   3.303   1.210   1.732
 1309SOL    HW2 1154   3.408   1.213   1.607
 1310SOL     OW 1155   2.252   1.741   1.560
 1310SOL    HW1 1156   2.161   1.782   1.558
 1310SOL    HW2 1157   2.245   1.647   1.592
 1317SOL     OW 1158   2.523   1.790   0.953
 1317SOL    HW1 1159   2.477   1.878   0.940
 1317SOL    HW2 1160   2.622   1.802   0.946
 1321SOL     OW 1161   2.083   1.314   1.844
 1321SOL    HW1 1162   2.018   1.241   1.823
 1321SOL    HW2 1163   2.087   1.328   1.942
 1322SOL     OW 1164   1.941   1.240   0.653
 1322SOL    HW1 1165   1.940   1.193   0.741
 1322SOL    HW2 1166   2.023   1.212   0.602
 1323SOL     OW 1167   2.534   1.391   1.624
 1323SOL    HW1 1168   2.456   1.341   1.662
 1323SOL    HW2 1169   2.531   1.486   1.655
 1327SOL     OW 1170   2.179   0.547   1.280
 1327SOL    HW1 1171   2.217   0.488   1.352
 1327SOL    HW2 1172   2.219   0.521   1.192
 1328SOL     OW 1173   2.674   1.586   0.687
 1328SOL    HW1 1174   2.706   1.596   0.593
 1328SOL    HW2 1175   2.595   1.524   0.689
 1332SOL     OW 1176   2.480   1.567   1.284
 1332SOL    HW1 1177   2.475   1.649   1.341
 1332SOL    HW2 1178   2.569   1.564   1.239
 1338SOL     OW 1179   2.092   0.628   1.975
 1338SOL    HW1 1180   1.999   0.626   2.012
 1338SOL    HW2 1181   2.093   0.589   1.883
 1341SOL     OW 1182   2.431   1.275   3.027
 1341SOL    HW1 1183   2.338   1.268   2.990
 1341SOL    HW2 1184   2.442   1.364   3.071
 1342SOL     OW 1185   3.417   1.511   2.565
 1342SOL    HW1 1186   3.360   1.495   2.646
 1342SOL    HW2 1187   3.358   1.521   2.485
 1343SOL     OW 1188   2.997   0.703   2.579
 1343SOL    HW1 1189   3.054   0.781   2.554
 1343SOL    HW2 1190   2.937   0.729   2.655
 1345SOL     OW 1191   2.630   1.144   2.885
 1345SOL    HW1 1192   2.552   1.161   2.945
 1345SOL    HW2 1193   2.664   1.231   2.849
 1347SOL     OW 1194   2.547   1.012   2.527
 1347SOL    HW1 1195   2.616   0.996   2.597
 1347SOL    HW2 1196   2.474   1.069   2.565
 1349SOL     OW 1197   2.197   1.435   2.923
 1349SOL    HW1 1198   2.119   1.404   2.870
 1349SOL    HW2 1199   2.255   1.493   2.866
 1350SOL     OW 1200   3.322   1.505   3.201
 1350SOL    HW1 1201   3.346   1.599   3.227
 1350SOL    HW2 1202   3.306   1.451   3.283
 1353SOL     OW 1203   2.093   1.713   2.345
 1353SOL    HW1 1204   2.127   1.790   2.399
 1353SOL    HW2 1205   2.137   1.713   2.255
 1355SOL     OW 1206   2.092   1.434   2.400
 1355SOL    HW1 1207   2.066   1.530   2.400
 1355SOL    HW2 1208   2.021   1.380   2.445
 1356SOL     OW 1209   2.102   1.091   2.748
 1356SOL    HW1 1210   2.116   1.007   2.800
 1356SOL    HW2 1211   2.047   1.155   2.803
 1357SOL     OW 1212   2.482   1.786   3.301
 1357SOL    HW1 1213   2.390   1.769   3.336
 1357SOL    HW2 1214   2.510   1.878   3.327
 1358SOL     OW 1215   2.468   0.964   1.985
 1358SOL    HW1 1216   2.475   1.048   1.931
 1358SOL    HW2 1217   2.514   0.977   2.073
 1360SOL     OW 1218   1.984   0.643   2.425
 1360SOL    HW1 1219   1.939   0.555   2.442
 1360SOL    HW2 1220   1.983   0.697   2.509
 1361SOL     OW 1221   3.704   1.767   2.221
 1361SOL    HW1 1222   3.758   1.738   2.301
 1361SOL    HW2 1223   3.734   1.857   2.192
 1362SOL     OW 1224   1.889   1.596   1.979
 1362SOL    HW1 1225   1.870   1.500   2.000
 1362SOL    HW2 1226   1.856   1.654   2.054
 1364SOL     OW 1227   3.503   1.108   2.294
 1364SOL    HW1 1228   3.589   1.110   2.242
 1364SOL    HW2 1229   3.517   1.155   2.382
 1366SOL     OW 1230   2.475   1.365   2.588
 1366SOL    HW1 1231   2.426   1.278   2.597
 1366SOL    HW2 1232   2.452   1.408   2.501
 1367SOL     OW 1233   3.155   1.228   3.285
 1367SOL    HW1 1234   3.192   1.155   3.227
 1367SOL    HW2 1235   3.207   1.233   3.370
 1369SOL     OW 1236   2.059   0.976   3.126
 1369SOL    HW1 1237   2.148   0.931   3.112
 1369SOL    HW2 1238   1.986   0.911   3.107
 1370SOL     OW 1239   3.387   0.999   2.052
 1370SOL    HW1 1240   3.324   0.923   2.065
 1370SOL    HW2 1241   3.435   1.017   2.138
 1371SOL     OW 1242   3.049   1.792   3.478
 1371SOL    HW1 1243   3.073   1.852   3.402
 1371SOL    HW2 1244   3.056   1.697   3.448
 1373SOL     OW 1245   3.328   1.417   2.815
 1373SOL    HW1 1246   3.269   1.423   2.895
 1373SOL    HW2 1247   3.313   1.329   2.769
 1374SOL     OW 1248   3.529   1.714   2.434
 1374SOL    HW1 1249   3.488   1.691   2.346
 1374SOL    HW2 1250   3.511   1.640   2.499
 1375SOL     OW 1251   2.460   0.729   2.132
 1375SOL    HW1 1252   2.484   0.798   2.064
 1375SOL    HW2 1253   2.382   0.762   2.186
 1377SOL     OW 1254   3.438   1.662   2.169
 1377SOL    HW1 1255   3.527   1.708   2.172
 1377SOL    HW2 1256   3.417   1.638   2.074
 1382SOL     OW 1257   2.903   0.701   2.291
 1382SOL    HW1 1258   2.929   0.697   2.387
 1382SOL    HW2 1259   2.818   0.650   2.277
 1383SOL     OW 1260   1.938   0.811   2.651
 1383SOL    HW1 1261   2.037   0.799   2.660
 1383SOL    HW2 1262   1.914   0.906   2.672
 1384SOL     OW 1263   1.992   1.821   3.433
 1384SOL    HW1 1264   1.982   1.806   3.532
 1384SOL    HW2 1265   1.906   1.857   3.397
 1387SOL     OW 1266   3.224   1.144   2.407
 1387SOL    HW1 1267   3.307   1.115   2.359
 1387SOL    HW2 1268   3.175   1.211   2.351
 1389SOL     OW 1269   2.870   1.456   2.339
 1389SOL    HW1 1270   2.824   1.528   2.287
 1389SOL    HW2 1271   2.866   1.476   2.437
 1390SOL     OW 1272   2.213   1.801   2.715
 1390SOL    HW1 1273   2.263   1.715   2.721
 1390SOL    HW2 1274   2.278   1.878   2.712
 1392SOL     OW 1275   3.089   1.550   3.368
 1392SOL    HW1 1276   3.095   1.473   3.432
 1392SOL    HW2 1277   3.037   1.524   3.288
 1393SOL     OW 1278   2.183   0.943   2.104
 1393SOL    HW1 1279   2.265   0.982   2.062
 1393SOL    HW2 1280   2.156   0.861   2.055
 1395SOL     OW 1281   2.323   1.266   3.589
 1395SOL    HW1 1282   2.273   1.267   3.503
 1395SOL    HW2 1283   2.260   1.248   3.665
 1396SOL     OW 1284   2.973   1.776   2.099
 1396SOL    HW1 1285   2.913   1.714   2.149
 1396SOL    HW2 1286   3.004   1.732   2.014
 1398SOL     OW 1287   3.494   1.377   1.943
 1398SOL    HW1 1288   3.462   1.471   1.933
 1398SOL    HW2 1289   3.418   1.314   1.931
 1399SOL     OW 1290   2.326   1.743   2.185
 1399SOL    HW1 1291   2.359   1.782   2.271
 1399SOL    HW2 1292   2.402   1.736   2.120
 1401SOL     OW 1293   2.111   1.785   3.103
 1401SOL    HW1 1294   2.168   1.720   3.153
 1401SOL    HW2 1295   2.095   1.752   3.010
 1402SOL     OW 1296   2.802   1.698   2.766
 1402SOL    HW1 1297   2.882   1.641   2.787
 1402SOL    HW2 1298   2.753   1.658   2.689
 1403SOL     OW 1299   2.244   0.700   2.342
 1403SOL    HW1 1300   2.289   0.610   2.339
 1403SOL    HW2 1301   2.150   0.689   2.375
 1407SOL     OW 1302   2.750   1.514   3.057
 1407SOL    HW1 1303   2.727   1.489   2.963
 1407SOL    HW2 1304   2.811   1.445   3.096
 1409SOL     OW 1305   2.665   1.402   2.786
 1409SOL    HW1 1306   2.755   1.416   2.744
 1409SOL    HW2 1307   2.594   1.404   2.715
 1412SOL     OW 1308   3.296   1.188   1.903
 1412SOL    HW1 1309   3.328   1.112   1.960
 1412SOL    HW2 1310   3.204   1.215   1.933
 1416SOL     OW 1311   3.089   1.570   2.655
 1416SOL    HW1 1312   3.110   1.644   2.590
 1416SOL    HW2 1313   3.157   1.570   2.728
 1417SOL     OW 1314   2.321   1.152   2.603
 1417SOL    HW1 1315   2.250   1.125   2.668
 1417SOL    HW2 1316   2.295   1.124   2.510
 1418SOL     OW 1317   3.133   1.797   2.453
 1418SOL    HW1 1318   3.177   1.861   2.389
 1418SOL    HW2 1319   3.083   1.849   2.523
 1419SOL     OW 1320   2.894   0.549   1.878
 1419SOL    HW1 1321   2.853   0.631   1.839
 1419SOL    HW2 1322   2.958   0.575   1.951
 1424SOL     OW 1323   3.291   1.173   2.729
 1424SOL    HW1 1324   3.236   1.089   2.722
 1424SOL    HW2 1325   3.317   1.202   2.637
 1427SOL     OW 1326   2.350   1.385   2.036
 1427SOL    HW1 1327   2.263   1.370   2.083
 1427SOL    HW2 1328   2.333   1.411   1.941
 1428SOL     OW 1329   3.526   1.280   2.519
 1428SOL    HW1 1330   3.625   1.288   2.533
 1428SOL    HW2 1331   3.481   1.364   2.550
 1432SOL     OW 1332   2.926   1.347   3.202
 1432SOL    HW1 1333   2.846   1.324   3.257
 1432SOL    HW2 1334   3.009   1.321   3.251
 1434SOL     OW 1335   2.973   1.195   2.962
 1434SOL    HW1 1336   2.933   1.239   3.043
 1434SOL    HW2 1337   2.932   1.232   2.879
 1438SOL     OW 1338   2.567   1.050   2.230
 1438SOL    HW1 1339   2.553   1.057   2.329
 1438SOL    HW2 1340   2.651   0.999   2.212
 1439SOL     OW 1341   2.272   0.813   3.113
 1439SOL    HW1 1342   2.358   0.825   3.163
 1439SOL    HW2 1343   2.230   0.726   3.140
 1441SOL     OW 1344   1.926   1.564   3.193
 1441SOL    HW1 1345   1.880   1.646   3.159
 1441SOL    HW2 1346   2.024   1.583   3.202
 1442SOL     OW 1347   2.229   1.100   2.363
 1442SOL    HW1 1348   2.222   1.183   2.307
 1442SOL    HW2 1349   2.233   1.020   2.303
 1443SOL     OW 1350   2.428   0.537   2.727
 1443SOL    HW1 1351   2.440   0.603   2.653
 1443SOL    HW2 1352   2.474   0.571   2.810
 1444SOL     OW 1353   3.114   1.348   2.250
 1444SOL    HW1 1354   3.164   1.425   2.290
 1444SOL    HW2 1355   3.019   1.350   2.282
 1445SOL     OW 1356   3.134   1.445   3.004
 1445SOL    HW1 1357   3.181   1.458   3.091
 1445SOL    HW2 1358   3.068   1.371   3.013
 1447SOL     OW 1359   2.216   1.510   3.191
 1447SOL    HW1 1360   2.195   1.466   3.104
 1447SOL    HW2 1361   2.313   1.536   3.194
 1452SOL     OW 1362   2.435   0.870   2.891
 1452SOL    HW1 1363   2.479   0.959   2.882
 1452SOL    HW2 1364   2.372   0.870   2.968
 1456SOL     OW 1365   1.899   1.310   3.144
 1456SOL    HW1 1366   1.952   1.261   3.212
 1456SOL    HW2 1367   1.921   1.408   3.149
 1457SOL     OW 1368   2.594   0.634   2.926
 1457SOL    HW1 1369   2.653   0.608   2.850
 1457SOL    HW2 1370   2.566   0.730   2.915
 1461SOL     OW 1371   2.885   0.766   2.828
 1461SOL    HW1 1372   2.900   0.787   2.924
 1461SOL    HW2 1373   2.855   0.671   2.819
 1462SOL     OW 1374   2.842   1.573   3.562
 1462SOL    HW1 1375   2.822   1.617   3.474
 1462SOL    HW2 1376   2.881   1.482   3.546
 1466SOL     OW 1377   3.165   0.838   1.904
 1466SOL    HW1 1378   3.199   0.745   1.919
 1466SOL    HW2 1379   3.183   0.865   1.809
 1467SOL     OW 1380   2.930   1.333   2.711
 1467SOL    HW1 1381   2.937   1.249   2.656
 1467SOL    HW2 1382   2.992   1.402   2.675
 1468SOL     OW 1383   2.181   0.810   2.811
 1468SOL    HW1 1384   2.274   0.846   2.816
 1468SOL    HW2 1385   2.175   0.725   2.863
 1469SOL     OW 1386   2.201   0.509   2.868
 1469SOL    HW1 1387   2.149   0.426   2.851
 1469SOL    HW2 1388   2.278   0.514   2.804
 1472SOL     OW 1389   1.870   1.326   2.062
 1472SOL    HW1 1390   1.777   1.347   2.031
 1472SOL    HW2 1391   1.880   1.227   2.075
 1473SOL     OW 1392   1.950   1.801   2.789
 1473SOL    HW1 1393   1.908   1.715   2.762
 1473SOL    HW2 1394   2.044   1.804   2.755
 1474SOL     OW 1395   2.366   1.568   2.772
 1474SOL    HW1 1396   2.432   1.642   2.781
 1474SOL    HW2 1397   2.410   1.489   2.730
 1479SOL     OW 1398   2.677   0.572   2.187
 1479SOL    HW1 1399   2.684   0.483   2.141
 1479SOL    HW2 1400   2.583   0.606   2.179
 1481SOL     OW 1401   2.114   1.564   3.606
 1481SOL    HW1 1402   2.084   1.621   3.682
 1481SOL    HW2 1403   2.107   1.467   3.632
 1483SOL     OW 1404   2.792   1.678   3.327
 1483SOL    HW1 1405   2.768   1.660   3.232
 1483SOL    HW2 1406   2.822   1.772   3.337
 1484SOL     OW 1407   2.335   0.500   2.053
 1484SOL    HW1 1408   2.396   0.580   2.057
 1484SOL    HW2 1409   2.240   0.531   2.060
 1485SOL     OW 1410   2.021   1.137   3.328
 1485SOL    HW1 1411   2.043   1.076   3.404
 1485SOL    HW2 1412   2.031   1.088   3.242
 1487SOL     OW 1413   3.164   0.855   2.171
 1487SOL    HW1 1414   3.078   0.824   2.213
 1487SOL    HW2 1415   3.160   0.841   2.072
 1488SOL     OW 1416   3.621   1.747   3.016
 1488SOL    HW1 1417   3.682   1.777   2.943
 1488SOL    HW2 1418   3.583   1.658   2.994
 1489SOL     OW 1419   3.114   1.731   2.990
 1489SOL    HW1 1420   3.198   1.736   2.936
 1489SOL    HW2 1421   3.091   1.635   3.008
 1490SOL     OW 1422   1.945   1.258   2.884
 1490SOL    HW1 1423   1.940   1.257   2.984
 1490SOL    HW2 1424   1.862   1.217   2.846
 1491SOL     OW 1425   2.550   1.662   3.578
 1491SOL    HW1 1426   2.494   1.743   3.587
 1491SOL    HW2 1427   2.602   1.666   3.492
 1493SOL     OW 1428   3.250   1.573   2.339
 1493SOL    HW1 1429   3.317   1.585   2.265
 1493SOL    HW2 1430   3.210   1.662   2.362
 1494SOL     OW 1431   1.992   1.794   3.713
 1494SOL    HW1 1432   1.951   1.720   3.766
 1494SOL    HW2 1433   2.056   1.845   3.771
 1495SOL     OW 1434   3.142   0.927   2.534
 1495SOL    HW1 1435   3.202   0.846   2.536
 1495SOL    HW2 1436   3.182   0.996   2.474
 1496SOL     OW 1437   2.692   1.273   3.284
 1496SOL    HW1 1438   2.687   1.306   3.379
 1496SOL    HW2 1439   2.606   1.292   3.238
 1497SOL     OW 1440   2.534   1.616   2.016
 1497SOL    HW1 1441   2.543   1.626   1.917
 1497SOL    HW2 1442   2.494   1.527   2.037
 1501SOL     OW 1443   3.056   1.612   1.893
 1501SOL    HW1 1444   3.062   1.519   1.930
 1501SOL    HW2 1445   2.997   1.612   1.813
 1502SOL     OW 1446   2.684   1.002   3.234
 1502SOL    HW1 1447   2.724   1.001   3.142
 1502SOL    HW2 1448   2.694   1.094   3.274
 1503SOL     OW 1449   2.778   0.910   2.153
 1503SOL    HW1 1450   2.841   0.948   2.085
 1503SOL    HW2 1451   2.818   0.827   2.192
 1504SOL     OW 1452   3.366   1.607   1.906
 1504SOL    HW1 1453   3.274   1.644   1.913
 1504SOL    HW2 1454   3.404   1.627   1.816
 1505SOL     OW 1455   2.234   1.288   3.352
 1505SOL    HW1 1456   2.221   1.381   3.318
 1505SOL    HW2 1457   2.150   1.236   3.339
 1507SOL     OW 1458   2.901   1.098   2.558
 1507SOL    HW1 1459   2.831   1.051   2.612
 1507SOL    HW2 1460   2.960   1.030   2.515
 1509SOL     OW 1461   2.452   1.487   2.353
 1509SOL    HW1 1462   2.494   1.429   2.283
 1509SOL    HW2 1463   2.408   1.566   2.309
 1511SOL     OW 1464   2.117   1.348   2.152
 1511SOL    HW1 1465   2.021   1.349   2.125
 1511SOL    HW2 1466   2.129   1.401   2.236
 1517SOL     OW 1467   3.045   1.335   1.981
 1517SOL    HW1 1468   2.946   1.324   1.983
 1517SOL    HW2 1469   3.079   1.350   2.074
 1518SOL     OW 1470   2.475   0.842   3.293
 1518SOL    HW1 1471   2.531   0.923   3.276
 1518SOL    HW2 1472   2.534   0.762   3.296
 1519SOL     OW 1473   3.355   1.767   2.821
 1519SOL    HW1 1474   3.388   1.831   2.752
 1519SOL    HW2 1475   3.421   1.761   2.896
 1522SOL     OW 1476   2.252   1.741   3.422
 1522SOL    HW1 1477   2.161   1.782   3.420
 1522SOL    HW2 1478   2.245   1.647   3.454
 1525SOL     OW 1479   2.456   0.745   2.514
 1525SOL    HW1 1480   2.506   0.830   2.495
 1525SOL    HW2 1481   2.368   0.747   2.466
 1528SOL     OW 1482   2.721   1.374   1.878
 1528SOL    HW1 1483   2.675   1.389   1.966
 1528SOL    HW2 1484   2.765   1.459   1.848
 1529SOL     OW 1485   2.523   1.790   2.815
 1529SOL    HW1 1486   2.477   1.878   2.802
 1529SOL    HW2 1487   2.622   1.802   2.808
 1530SOL     OW 1488   2.721   0.956   2.723
 1530SOL    HW1 1489   2.775   0.887   2.771
 1530SOL    HW2 1490   2.689   1.025   2.789
 1531SOL     OW 1491   2.945   0.984   1.949
 1531SOL    HW1 1492   2.922   1.037   1.867
 1531SOL    HW2 1493   3.026   0.928   1.930
 1532SOL     OW 1494   3.723   1.569   2.713
 1532SOL    HW1 1495   3.652   1.557   2.643
 1532SOL    HW2 1496   3.724   1.490   2.773
 1533SOL     OW 1497   2.083   1.314   3.706
 1533SOL    HW1 1498   2.018   1.241   3.685
 1533SOL    HW2 1499   2.087   1.328   3.804
 1534SOL     OW 1500   1.941   1.240   2.515
 1534SOL    HW1 1501   1.940   1.193   2.603
 1534SOL    HW2 1502   2.023   1.212   2.464
 1535SOL     OW 1503   2.534   1.391   3.486
 1535SOL    HW1 1504   2.456   1.341   3.524
 1535SOL    HW2 1505   2.531   1.486   3.517
 1537SOL     OW 1506   2.290   0.424   2.382
 1537SOL    HW1 1507   2.320   0.352   2.320
 1537SOL    HW2 1508   2.251   0.384   2.465
 1538SOL     OW 1509   3.567   1.487   2.966
 1538SOL    HW1 1510   3.474   1.462   2.939
 1538SOL    HW2 1511   3.593   1.437   3.048
 1540SOL     OW 1512   2.674   1.586   2.549
 1540SOL    HW1 1513   2.706   1.596   2.455
 1540SOL    HW2 1514   2.595   1.524   2.551
 1543SOL     OW 1515   2.632   1.330   2.163
 1543SOL    HW1 1516   2.586   1.243   2.180
 1543SOL    HW2 1517   2.723   1.327   2.204
 1544SOL     OW 1518   2.480   1.567   3.146
 1544SOL    HW1 1519   2.475   1.649   3.203
 1544SOL    HW2 1520   2.569   1.564   3.101
 1548SOL     OW 1521   1.901   1.077   2.162
 1548SOL    HW1 1522   2.000   1.066   2.153
 1548SOL    HW2 1523   1.861   0.991   2.194
 1549SOL     OW 1524   2.737   1.646   2.199
 1549SOL    HW1 1525   2.660   1.611   2.145
 1549SOL    HW2 1526   2.705   1.717   2.261
 1615SOL     OW 1527   2.087   2.137   0.996
 1615SOL    HW1 1528   2.122   2.120   1.088
 1615SOL    HW2 1529   1.999   2.092   0.984
 1616SOL     OW 1530   1.881   2.230   0.647
 1616SOL    HW1 1531   1.799   2.273   0.686
 1616SOL    HW2 1532   1.853   2.157   0.584
 1617SOL     OW 1533   2.431   3.137   1.165
 1617SOL    HW1 1534   2.338   3.130   1.128
 1617SOL    HW2 1535   2.442   3.226   1.209
 1619SOL     OW 1536   2.997   2.565   0.717
 1619SOL    HW1 1537   3.054   2.643   0.692
 1619SOL    HW2 1538   2.937   2.591   0.793
 1621SOL     OW 1539   2.630   3.006   1.023
 1621SOL    HW1 1540   2.552   3.023   1.083
 1621SOL    HW2 1541   2.664   3.093   0.987
 1622SOL     OW 1542   2.712   2.660   1.823
 1622SOL    HW1 1543   2.708   2.736   1.888
 1622SOL    HW2 1544   2.734   2.696   1.732
 1623SOL     OW 1545   2.547   2.874   0.665
 1623SOL    HW1 1546   2.616   2.858   0.735
 1623SOL    HW2 1547   2.474   2.931   0.703
 1624SOL     OW 1548   2.548   3.023   1.803
 1624SOL    HW1 1549   2.608   3.102   1.817
 1624SOL    HW2 1550   2.462   3.054   1.762
 1625SOL     OW 1551   2.197   3.297   1.061
 1625SOL    HW1 1552   2.119   3.266   1.008
 1625SOL    HW2 1553   2.255   3.355   1.004
 1627SOL     OW 1554   2.300   2.254   1.499
 1627SOL    HW1 1555   2.382   2.198   1.508
 1627SOL    HW2 1556   2.219   2.196   1.503
 1630SOL     OW 1557   2.989   3.203   1.690
 1630SOL    HW1 1558   3.036   3.203   1.778
 1630SOL    HW2 1559   2.941   3.116   1.679
 1632SOL     OW 1560   2.102   2.953   0.886
 1632SOL    HW1 1561   2.116   2.869   0.938
 1632SOL    HW2 1562   2.047   3.017   0.941
 1633SOL     OW 1563   2.482   3.648   1.439
 1633SOL    HW1 1564   2.390   3.631   1.474
 1633SOL    HW2 1565   2.510   3.740   1.465
 1635SOL     OW 1566   3.456   1.976   1.480
 1635SOL    HW1 1567   3.438   2.043   1.408
 1635SOL    HW2 1568   3.453   2.022   1.569
 1636SOL     OW 1569   1.984   2.505   0.563
 1636SOL    HW1 1570   1.939   2.417   0.580
 1636SOL    HW2 1571   1.983   2.559   0.647
 1640SOL     OW 1572   1.975   2.599   1.597
 1640SOL    HW1 1573   2.063   2.586   1.642
 1640SOL    HW2 1574   1.962   2.696   1.575
 1642SOL     OW 1575   3.155   3.090   1.423
 1642SOL    HW1 1576   3.192   3.017   1.365
 1642SOL    HW2 1577   3.207   3.095   1.508
 1643SOL     OW 1578   2.671   1.866   0.502
 1643SOL    HW1 1579   2.711   1.957   0.493
 1643SOL    HW2 1580   2.571   1.874   0.508
 1644SOL     OW 1581   2.059   2.838   1.264
 1644SOL    HW1 1582   2.148   2.793   1.250
 1644SOL    HW2 1583   1.986   2.773   1.245
 1647SOL     OW 1584   2.179   2.113   1.801
 1647SOL    HW1 1585   2.250   2.184   1.807
 1647SOL    HW2 1586   2.091   2.152   1.829
 1651SOL     OW 1587   3.143   2.207   0.944
 1651SOL    HW1 1588   3.057   2.157   0.931
 1651SOL    HW2 1589   3.205   2.153   1.000
 1653SOL     OW 1590   2.669   2.467   1.465
 1653SOL    HW1 1591   2.622   2.464   1.554
 1653SOL    HW2 1592   2.618   2.412   1.399
 1654SOL     OW 1593   3.256   2.331   1.674
 1654SOL    HW1 1594   3.236   2.374   1.762
 1654SOL    HW2 1595   3.334   2.269   1.683
 1655SOL     OW 1596   2.835   2.752   1.572
 1655SOL    HW1 1597   2.881   2.668   1.543
 1655SOL    HW2 1598   2.779   2.786   1.497
 1656SOL     OW 1599   2.853   2.272   1.242
 1656SOL    HW1 1600   2.776   2.306   1.296
 1656SOL    HW2 1601   2.819   2.221   1.163
 1658SOL     OW 1602   1.938   2.673   0.789
 1658SOL    HW1 1603   2.037   2.661   0.798
 1658SOL    HW2 1604   1.914   2.768   0.810
 1659SOL     OW 1605   1.992   3.683   1.571
 1659SOL    HW1 1606   1.982   3.668   1.670
 1659SOL    HW2 1607   1.906   3.719   1.535
 1661SOL     OW 1608   3.581   2.447   1.831
 1661SOL    HW1 1609   3.555   2.536   1.795
 1661SOL    HW2 1610   3.579   2.379   1.758
 1663SOL     OW 1611   2.412   2.058   0.885
 1663SOL    HW1 1612   2.407   2.053   0.985
 1663SOL    HW2 1613   2.414   2.154   0.856
 1667SOL     OW 1614   3.089   3.412   1.506
 1667SOL    HW1 1615   3.095   3.335   1.570
 1667SOL    HW2 1616   3.037   3.386   1.426
 1670SOL     OW 1617   2.323   3.128   1.727
 1670SOL    HW1 1618   2.273   3.129   1.641
 1670SOL    HW2 1619   2.260   3.110   1.803
 1672SOL     OW 1620   2.064   2.147   1.498
 1672SOL    HW1 1621   1.984   2.207   1.485
 1672SOL    HW2 1622   2.054   2.098   1.584
 1676SOL     OW 1623   2.111   3.647   1.241
 1676SOL    HW1 1624   2.168   3.582   1.291
 1676SOL    HW2 1625   2.095   3.614   1.148
 1678SOL     OW 1626   2.244   2.562   0.480
 1678SOL    HW1 1627   2.289   2.472   0.477
 1678SOL    HW2 1628   2.150   2.551   0.513
 1679SOL     OW 1629   3.409   2.084   1.729
 1679SOL    HW1 1630   3.404   2.121   1.821
 1679SOL    HW2 1631   3.337   2.015   1.717
 1681SOL     OW 1632   2.643   2.126   1.749
 1681SOL    HW1 1633   2.710   2.065   1.792
 1681SOL    HW2 1634   2.570   2.145   1.814
 1682SOL     OW 1635   2.750   3.376   1.195
 1682SOL    HW1 1636   2.727   3.351   1.101
 1682SOL    HW2 1637   2.811   3.307   1.234
 1683SOL     OW 1638   3.213   2.452   1.433
 1683SOL    HW1 1639   3.241   2.409   1.518
 1683SOL    HW2 1640   3.238   2.548   1.434
 1684SOL     OW 1641   2.665   3.264   0.924
 1684SOL    HW1 1642   2.755   3.278   0.882
 1684SOL    HW2 1643   2.594   3.266   0.853
 1685SOL     OW 1644   2.784   2.365   0.899
 1685SOL    HW1 1645   2.759   2.356   0.803
 1685SOL    HW2 1646   2.832   2.283   0.930
 1686SOL     OW 1647   2.401   1.926   0.512
 1686SOL    HW1 1648   2.320   1.927   0.570
 1686SOL    HW2 1649   2.404   2.009   0.457
 1689SOL     OW 1650   2.797   2.098   0.480
 1689SOL    HW1 1651   2.749   2.139   0.402
 1689SOL    HW2 1652   2.896   2.096   0.461
 1690SOL     OW 1653   2.938   2.545   1.464
 1690SOL    HW1 1654   2.858   2.484   1.467
 1690SOL    HW2 1655   3.019   2.492   1.440
 1692SOL     OW 1656   2.321   3.014   0.741
 1692SOL    HW1 1657   2.250   2.987   0.806
 1692SOL    HW2 1658   2.295   2.986   0.648
 1695SOL     OW 1659   1.940   2.418   1.386
 1695SOL    HW1 1660   2.032   2.417   1.345
 1695SOL    HW2 1661   1.934   2.492   1.453
 1696SOL     OW 1662   2.423   2.084   1.147
 1696SOL    HW1 1663   2.461   2.000   1.184
 1696SOL    HW2 1664   2.335   2.103   1.191
 1697SOL     OW 1665   2.728   2.316   0.642
 1697SOL    HW1 1666   2.696   2.388   0.580
 1697SOL    HW2 1667   2.752   2.235   0.589
 1698SOL     OW 1668   2.879   1.901   0.753
 1698SOL    HW1 1669   2.807   1.906   0.684
 1698SOL    HW2 1670   2.855   1.832   0.822
 1700SOL     OW 1671   3.328   2.452   0.992
 1700SOL    HW1 1672   3.298   2.357   0.999
 1700SOL    HW2 1673   3.401   2.468   1.058
 1707SOL     OW 1674   2.926   3.209   1.340
 1707SOL    HW1 1675   2.846   3.186   1.395
 1707SOL    HW2 1676   3.009   3.183   1.389
 1709SOL     OW 1677   2.973   3.057   1.100
 1709SOL    HW1 1678   2.933   3.101   1.181
 1709SOL    HW2 1679   2.932   3.094   1.017
 1711SOL     OW 1680   2.777   1.951   1.402
 1711SOL    HW1 1681   2.802   1.931   1.307
 1711SOL    HW2 1682   2.849   2.007   1.444
 1712SOL     OW 1683   2.842   2.978   1.719
 1712SOL    HW1 1684   2.743   2.984   1.729
 1712SOL    HW2 1685   2.865   2.898   1.663
 1714SOL     OW 1686   2.272   2.675   1.251
 1714SOL    HW1 1687   2.358   2.687   1.301
 1714SOL    HW2 1688   2.230   2.588   1.278
 1715SOL     OW 1689   3.136   2.248   1.262
 1715SOL    HW1 1690   3.157   2.322   1.326
 1715SOL    HW2 1691   3.047   2.265   1.219
 1716SOL     OW 1692   1.926   3.426   1.331
 1716SOL    HW1 1693   1.880   3.508   1.297
 1716SOL    HW2 1694   2.024   3.445   1.340
 1718SOL     OW 1695   2.428   2.399   0.865
 1718SOL    HW1 1696   2.440   2.465   0.791
 1718SOL    HW2 1697   2.474   2.433   0.948
 1722SOL     OW 1698   2.216   3.372   1.329
 1722SOL    HW1 1699   2.195   3.328   1.242
 1722SOL    HW2 1700   2.313   3.398   1.332
 1723SOL     OW 1701   2.264   2.613   1.598
 1723SOL    HW1 1702   2.332   2.668   1.551
 1723SOL    HW2 1703   2.304   2.525   1.625
 1724SOL     OW 1704   3.449   2.641   1.670
 1724SOL    HW1 1705   3.357   2.679   1.665
 1724SOL    HW2 1706   3.509   2.688   1.605
 1725SOL     OW 1707   2.875   1.967   1.770
 1725SOL    HW1 1708   2.881   2.052   1.718
 1725SOL    HW2 1709   2.907   1.891   1.713
 1726SOL     OW 1710   2.366   1.912   1.740
 1726SOL    HW1 1711   2.324   1.855   1.670
 1726SOL    HW2 1712   2.300   1.981   1.772
 1727SOL     OW 1713   2.435   2.732   1.029
 1727SOL    HW1 1714   2.479   2.821   1.020
 1727SOL    HW2 1715   2.372   2.732   1.106
 1728SOL     OW 1716   3.222   2.724   1.045
 1728SOL    HW1 1717   3.147   2.724   0.979
 1728SOL    HW2 1718   3.259   2.632   1.054
 1730SOL     OW 1719   2.169   2.075   1.231
 1730SOL    HW1 1720   2.146   2.112   1.321
 1730SOL    HW2 1721   2.139   1.980   1.225
 1731SOL     OW 1722   1.899   3.172   1.282
 1731SOL    HW1 1723   1.952   3.123   1.350
 1731SOL    HW2 1724   1.921   3.270   1.287
 1732SOL     OW 1725   2.594   2.496   1.064
 1732SOL    HW1 1726   2.653   2.470   0.988
 1732SOL    HW2 1727   2.566   2.592   1.053
 1733SOL     OW 1728   3.590   2.797   1.854
 1733SOL    HW1 1729   3.544   2.790   1.765
 1733SOL    HW2 1730   3.528   2.841   1.920
 1734SOL     OW 1731   2.169   1.925   0.618
 1734SOL    HW1 1732   2.158   2.019   0.651
 1734SOL    HW2 1733   2.164   1.862   0.695
 1736SOL     OW 1734   2.885   2.628   0.966
 1736SOL    HW1 1735   2.900   2.649   1.062
 1736SOL    HW2 1736   2.855   2.533   0.957
 1737SOL     OW 1737   2.842   3.435   1.700
 1737SOL    HW1 1738   2.822   3.479   1.612
 1737SOL    HW2 1739   2.881   3.344   1.684
 1739SOL     OW 1740   2.212   2.760   1.804
 1739SOL    HW1 1741   2.288   2.804   1.852
 1739SOL    HW2 1742   2.247   2.713   1.722
 1743SOL     OW 1743   2.181   2.672   0.949
 1743SOL    HW1 1744   2.274   2.708   0.954
 1743SOL    HW2 1745   2.175   2.587   1.001
 1744SOL     OW 1746   2.201   2.371   1.006
 1744SOL    HW1 1747   2.149   2.288   0.989
 1744SOL    HW2 1748   2.278   2.376   0.942
 1745SOL     OW 1749   3.000   2.242   1.678
 1745SOL    HW1 1750   2.955   2.305   1.742
 1745SOL    HW2 1751   3.093   2.273   1.661
 1746SOL     OW 1752   3.022   2.069   1.477
 1746SOL    HW1 1753   3.022   2.133   1.554
 1746SOL    HW2 1754   3.050   2.117   1.394
 1749SOL     OW 1755   2.366   3.430   0.910
 1749SOL    HW1 1756   2.432   3.504   0.919
 1749SOL    HW2 1757   2.410   3.351   0.868
 1750SOL     OW 1758   2.864   2.658   1.238
 1750SOL    HW1 1759   2.905   2.626   1.324
 1750SOL    HW2 1760   2.768   2.631   1.235
 1751SOL     OW 1761   1.902   2.406   1.114
 1751SOL    HW1 1762   1.987   2.373   1.073
 1751SOL    HW2 1763   1.915   2.421   1.212
 1752SOL     OW 1764   2.051   2.382   1.722
 1752SOL    HW1 1765   2.110   2.342   1.652
 1752SOL    HW2 1766   1.993   2.453   1.681
 1753SOL     OW 1767   3.231   2.812   1.660
 1753SOL    HW1 1768   3.270   2.901   1.680
 1753SOL    HW2 1769   3.241   2.792   1.563
 1755SOL     OW 1770   3.519   2.466   1.206
 1755SOL    HW1 1771   3.481   2.397   1.268
 1755SOL    HW2 1772   3.601   2.430   1.162
 1756SOL     OW 1773   2.114   3.426   1.744
 1756SOL    HW1 1774   2.084   3.483   1.820
 1756SOL    HW2 1775   2.107   3.329   1.770
 1757SOL     OW 1776   2.533   2.326   1.269
 1757SOL    HW1 1777   2.499   2.237   1.239
 1757SOL    HW2 1778   2.559   2.380   1.189
 1758SOL     OW 1779   2.792   3.540   1.465
 1758SOL    HW1 1780   2.768   3.522   1.370
 1758SOL    HW2 1781   2.822   3.634   1.475
 1760SOL     OW 1782   2.021   2.999   1.466
 1760SOL    HW1 1783   2.043   2.938   1.542
 1760SOL    HW2 1784   2.031   2.950   1.380
 1761SOL     OW 1785   3.209   2.921   1.234
 1761SOL    HW1 1786   3.233   2.858   1.160
 1761SOL    HW2 1787   3.119   2.961   1.216
 1765SOL     OW 1788   1.945   3.120   1.022
 1765SOL    HW1 1789   1.940   3.119   1.122
 1765SOL    HW2 1790   1.862   3.079   0.984
 1766SOL     OW 1791   2.550   3.524   1.716
 1766SOL    HW1 1792   2.494   3.605   1.725
 1766SOL    HW2 1793   2.602   3.528   1.630
 1770SOL     OW 1794   1.992   3.656   1.851
 1770SOL    HW1 1795   1.951   3.582   1.904
 1770SOL    HW2 1796   2.056   3.707   1.909
 1772SOL     OW 1797   2.692   3.135   1.422
 1772SOL    HW1 1798   2.687   3.168   1.517
 1772SOL    HW2 1799   2.606   3.154   1.376
 1776SOL     OW 1800   2.125   2.188   0.720
 1776SOL    HW1 1801   2.046   2.239   0.686
 1776SOL    HW2 1802   2.116   2.173   0.818
 1778SOL     OW 1803   2.684   2.864   1.372
 1778SOL    HW1 1804   2.724   2.863   1.280
 1778SOL    HW2 1805   2.694   2.956   1.412
 1781SOL     OW 1806   2.234   3.150   1.490
 1781SOL    HW1 1807   2.221   3.243   1.456
 1781SOL    HW2 1808   2.150   3.098   1.477
 1784SOL     OW 1809   2.876   2.098   0.971
 1784SOL    HW1 1810   2.868   2.062   0.878
 1784SOL    HW2 1811   2.874   2.022   1.036
 1786SOL     OW 1812   3.571   2.247   1.381
 1786SOL    HW1 1813   3.644   2.316   1.385
 1786SOL    HW2 1814   3.599   2.172   1.322
 1788SOL     OW 1815   1.967   2.875   1.726
 1788SOL    HW1 1816   1.890   2.842   1.780
 1788SOL    HW2 1817   2.052   2.845   1.768
 1789SOL     OW 1818   2.534   2.065   1.489
 1789SOL    HW1 1819   2.624   2.049   1.449
 1789SOL    HW2 1820   2.542   2.070   1.588
 1791SOL     OW 1821   3.302   2.718   1.398
 1791SOL    HW1 1822   3.245   2.770   1.335
 1791SOL    HW2 1823   3.398   2.730   1.374
 1794SOL     OW 1824   2.475   2.704   1.431
 1794SOL    HW1 1825   2.531   2.785   1.414
 1794SOL    HW2 1826   2.534   2.624   1.434
 1796SOL     OW 1827   2.578   2.427   1.708
 1796SOL    HW1 1828   2.597   2.492   1.782
 1796SOL    HW2 1829   2.638   2.347   1.717
 1797SOL     OW 1830   3.312   3.082   1.633
 1797SOL    HW1 1831   3.303   3.072   1.732
 1797SOL    HW2 1832   3.408   3.075   1.607
 1798SOL     OW 1833   2.252   3.603   1.560
 1798SOL    HW1 1834   2.161   3.644   1.558
 1798SOL    HW2 1835   2.245   3.509   1.592
 1799SOL     OW 1836   3.536   2.745   1.254
 1799SOL    HW1 1837   3.509   2.656   1.217
 1799SOL    HW2 1838   3.537   2.813   1.181
 1801SOL     OW 1839   2.456   2.607   0.652
 1801SOL    HW1 1840   2.506   2.692   0.633
 1801SOL    HW2 1841   2.368   2.609   0.604
 1802SOL     OW 1842   3.639   2.204   1.642
 1802SOL    HW1 1843   3.622   2.235   1.548
 1802SOL    HW2 1844   3.555   2.167   1.680
 1803SOL     OW 1845   3.592   2.796   1.517
 1803SOL    HW1 1846   3.630   2.887   1.532
 1803SOL    HW2 1847   3.584   2.779   1.418
 1806SOL     OW 1848   2.721   2.818   0.861
 1806SOL    HW1 1849   2.775   2.749   0.909
 1806SOL    HW2 1850   2.689   2.887   0.927
 1809SOL     OW 1851   2.083   3.176   1.844
 1809SOL    HW1 1852   2.018   3.103   1.823
 1809SOL    HW2 1853   2.087   3.190   1.942
 1810SOL     OW 1854   1.941   3.102   0.653
 1810SOL    HW1 1855   1.940   3.055   0.741
 1810SOL    HW2 1856   2.023   3.074   0.602
 1811SOL     OW 1857   2.534   3.253   1.624
 1811SOL    HW1 1858   2.456   3.203   1.662
 1811SOL    HW2 1859   2.531   3.348   1.655
 1813SOL     OW 1860   2.290   2.286   0.520
 1813SOL    HW1 1861   2.320   2.214   0.458
 1813SOL    HW2 1862   2.251   2.246   0.603
 1815SOL     OW 1863   2.179   2.409   1.280
 1815SOL    HW1 1864   2.217   2.350   1.352
 1815SOL    HW2 1865   2.219   2.383   1.192
 1817SOL     OW 1866   3.286   2.076   1.112
 1817SOL    HW1 1867   3.338   2.011   1.167
 1817SOL    HW2 1868   3.237   2.139   1.173
 1818SOL     OW 1869   2.863   1.896   1.154
 1818SOL    HW1 1870   2.800   1.824   1.123
 1818SOL    HW2 1871   2.956   1.860   1.154
 1820SOL     OW 1872   2.480   3.429   1.284
 1820SOL    HW1 1873   2.475   3.511   1.341
 1820SOL    HW2 1874   2.569   3.426   1.239
 1821SOL     OW 1875   3.162   2.315   0.691
 1821SOL    HW1 1876   3.103   2.395   0.695
 1821SOL    HW2 1877   3.177   2.280   0.784
 1825SOL     OW 1878   2.092   2.490   1.975
 1825SOL    HW1 1879   1.999   2.488   2.012
 1825SOL    HW2 1880   2.093   2.451   1.883
 1826SOL     OW 1881   2.087   2.137   2.858
 1826SOL    HW1 1882   2.122   2.120   2.950
 1826SOL    HW2 1883   1.999   2.092   2.846
 1827SOL     OW 1884   1.881   2.230   2.509
 1827SOL    HW1 1885   1.799   2.273   2.548
 1827SOL    HW2 1886   1.853   2.157   2.446
 1828SOL     OW 1887   2.431   3.137   3.027
 1828SOL    HW1 1888   2.338   3.130   2.990
 1828SOL    HW2 1889   2.442   3.226   3.071
 1830SOL     OW 1890   2.997   2.565   2.579
 1830SOL    HW1 1891   3.054   2.643   2.554
 1830SOL    HW2 1892   2.937   2.591   2.655
 1831SOL     OW 1893   3.617   2.469   2.093
 1831SOL    HW1 1894   3.605   2.456   1.994
 1831SOL    HW2 1895   3.587   2.388   2.142
 1832SOL     OW 1896   2.630   3.006   2.885
 1832SOL    HW1 1897   2.552   3.023   2.945
 1832SOL    HW2 1898   2.664   3.093   2.849
 1833SOL     OW 1899   2.712   2.660   3.685
 1833SOL    HW1 1900   2.708   2.736   3.750
 1833SOL    HW2 1901   2.734   2.696   3.594
 1834SOL     OW 1902   2.547   2.874   2.527
 1834SOL    HW1 1903   2.616   2.858   2.597
 1834SOL    HW2 1904   2.474   2.931   2.565
 1836SOL     OW 1905   2.197   3.297   2.923
 1836SOL    HW1 1906   2.119   3.266   2.870
 1836SOL    HW2 1907   2.255   3.355   2.866
 1838SOL     OW 1908   2.300   2.254   3.361
 1838SOL    HW1 1909   2.382   2.198   3.370
 1838SOL    HW2 1910   2.219   2.196   3.365
 1839SOL     OW 1911   3.465   2.309   2.599
 1839SOL    HW1 1912   3.391   2.355   2.549
 1839SOL    HW2 1913   3.516   2.377   2.652
 1840SOL     OW 1914   2.093   3.575   2.345
 1840SOL    HW1 1915   2.127   3.652   2.399
 1840SOL    HW2 1916   2.137   3.575   2.255
 1842SOL     OW 1917   2.092   3.296   2.400
 1842SOL    HW1 1918   2.066   3.392   2.400
 1842SOL    HW2 1919   2.021   3.242   2.445
 1843SOL     OW 1920   2.102   2.953   2.748
 1843SOL    HW1 1921   2.116   2.869   2.800
 1843SOL    HW2 1922   2.047   3.017   2.803
 1845SOL     OW 1923   2.468   2.826   1.985
 1845SOL    HW1 1924   2.475   2.910   1.931
 1845SOL    HW2 1925   2.514   2.839   2.073
 1847SOL     OW 1926   1.984   2.505   2.425
 1847SOL    HW1 1927   1.939   2.417   2.442
 1847SOL    HW2 1928   1.983   2.559   2.509
 1849SOL     OW 1929   1.889   3.458   1.979
 1849SOL    HW1 1930   1.870   3.362   2.000
 1849SOL    HW2 1931   1.856   3.516   2.054
 1850SOL     OW 1932   3.551   2.784   2.474
 1850SOL    HW1 1933   3.646   2.755   2.482
 1850SOL    HW2 1934   3.543   2.849   2.399
 1851SOL     OW 1935   3.503   2.970   2.294
 1851SOL    HW1 1936   3.589   2.972   2.242
 1851SOL    HW2 1937   3.517   3.017   2.382
 1852SOL     OW 1938   1.975   2.599   3.459
 1852SOL    HW1 1939   2.063   2.586   3.504
 1852SOL    HW2 1940   1.962   2.696   3.437
 1853SOL     OW 1941   2.475   3.227   2.588
 1853SOL    HW1 1942   2.426   3.140   2.597
 1853SOL    HW2 1943   2.452   3.270   2.501
 1855SOL     OW 1944   2.671   1.866   2.364
 1855SOL    HW1 1945   2.711   1.957   2.355
 1855SOL    HW2 1946   2.571   1.874   2.370
 1856SOL     OW 1947   2.059   2.838   3.126
 1856SOL    HW1 1948   2.148   2.793   3.112
 1856SOL    HW2 1949   1.986   2.773   3.107
 1857SOL     OW 1950   3.387   2.861   2.052
 1857SOL    HW1 1951   3.324   2.785   2.065
 1857SOL    HW2 1952   3.435   2.879   2.138
 1859SOL     OW 1953   2.179   2.113   3.663
 1859SOL    HW1 1954   2.250   2.184   3.669
 1859SOL    HW2 1955   2.091   2.152   3.691
 1862SOL     OW 1956   2.460   2.591   2.132
 1862SOL    HW1 1957   2.484   2.660   2.064
 1862SOL    HW2 1958   2.382   2.624   2.186
 1863SOL     OW 1959   3.143   2.207   2.806
 1863SOL    HW1 1960   3.057   2.157   2.793
 1863SOL    HW2 1961   3.205   2.153   2.862
 1865SOL     OW 1962   2.669   2.467   3.327
 1865SOL    HW1 1963   2.622   2.464   3.416
 1865SOL    HW2 1964   2.618   2.412   3.261
 1867SOL     OW 1965   2.835   2.752   3.434
 1867SOL    HW1 1966   2.881   2.668   3.405
 1867SOL    HW2 1967   2.779   2.786   3.359
 1868SOL     OW 1968   2.853   2.272   3.104
 1868SOL    HW1 1969   2.776   2.306   3.158
 1868SOL    HW2 1970   2.819   2.221   3.025
 1869SOL     OW 1971   2.903   2.563   2.291
 1869SOL    HW1 1972   2.929   2.559   2.387
 1869SOL    HW2 1973   2.818   2.512   2.277
 1870SOL     OW 1974   1.938   2.673   2.651
 1870SOL    HW1 1975   2.037   2.661   2.660
 1870SOL    HW2 1976   1.914   2.768   2.672
 1872SOL     OW 1977   2.727   2.210   2.057
 1872SOL    HW1 1978   2.786   2.273   2.008
 1872SOL    HW2 1979   2.746   2.116   2.028
 1874SOL     OW 1980   3.224   3.006   2.407
 1874SOL    HW1 1981   3.307   2.977   2.359
 1874SOL    HW2 1982   3.175   3.073   2.351
 1875SOL     OW 1983   2.412   2.058   2.747
 1875SOL    HW1 1984   2.407   2.053   2.847
 1875SOL    HW2 1985   2.414   2.154   2.718
 1876SOL     OW 1986   2.870   3.318   2.339
 1876SOL    HW1 1987   2.824   3.390   2.287
 1876SOL    HW2 1988   2.866   3.338   2.437
 1877SOL     OW 1989   2.213   3.663   2.715
 1877SOL    HW1 1990   2.263   3.577   2.721
 1877SOL    HW2 1991   2.278   3.740   2.712
 1880SOL     OW 1992   2.183   2.805   2.104
 1880SOL    HW1 1993   2.265   2.844   2.062
 1880SOL    HW2 1994   2.156   2.723   2.055
 1881SOL     OW 1995   3.320   2.597   2.590
 1881SOL    HW1 1996   3.315   2.532   2.665
 1881SOL    HW2 1997   3.400   2.656   2.603
 1882SOL     OW 1998   2.323   3.128   3.589
 1882SOL    HW1 1999   2.273   3.129   3.503
 1882SOL    HW2 2000   2.260   3.110   3.665
 1883SOL     OW 2001   2.973   3.638   2.099
 1883SOL    HW1 2002   2.913   3.576   2.149
 1883SOL    HW2 2003   3.004   3.594   2.014
 1884SOL     OW 2004   2.064   2.147   3.360
 1884SOL    HW1 2005   1.984   2.207   3.347
 1884SOL    HW2 2006   2.054   2.098   3.446
 1885SOL     OW 2007   3.494   3.239   1.943
 1885SOL    HW1 2008   3.462   3.333   1.933
 1885SOL    HW2 2009   3.418   3.176   1.931
 1886SOL     OW 2010   2.326   3.605   2.185
 1886SOL    HW1 2011   2.359   3.644   2.271
 1886SOL    HW2 2012   2.402   3.598   2.120
 1887SOL     OW 2013   3.262   1.969   2.288
 1887SOL    HW1 2014   3.238   1.932   2.198
 1887SOL    HW2 2015   3.361   1.985   2.292
 1889SOL     OW 2016   2.802   3.560   2.766
 1889SOL    HW1 2017   2.882   3.503   2.787
 1889SOL    HW2 2018   2.753   3.520   2.689
 1890SOL     OW 2019   2.244   2.562   2.342
 1890SOL    HW1 2020   2.289   2.472   2.339
 1890SOL    HW2 2021   2.150   2.551   2.375
 1892SOL     OW 2022   2.476   1.984   1.979
 1892SOL    HW1 2023   2.574   1.962   1.986
 1892SOL    HW2 2024   2.445   1.967   1.886
 1893SOL     OW 2025   2.643   2.126   3.611
 1893SOL    HW1 2026   2.710   2.065   3.654
 1893SOL    HW2 2027   2.570   2.145   3.676
 1894SOL     OW 2028   2.750   3.376   3.057
 1894SOL    HW1 2029   2.727   3.351   2.963
 1894SOL    HW2 2030   2.811   3.307   3.096
 1895SOL     OW 2031   3.213   2.452   3.295
 1895SOL    HW1 2032   3.241   2.409   3.380
 1895SOL    HW2 2033   3.238   2.548   3.296
 1896SOL     OW 2034   2.665   3.264   2.786
 1896SOL    HW1 2035   2.755   3.278   2.744
 1896SOL    HW2 2036   2.594   3.266   2.715
 1897SOL     OW 2037   2.784   2.365   2.761
 1897SOL    HW1 2038   2.759   2.356   2.665
 1897SOL    HW2 2039   2.832   2.283   2.792
 1898SOL     OW 2040   2.401   1.926   2.374
 1898SOL    HW1 2041   2.320   1.927   2.432
 1898SOL    HW2 2042   2.404   2.009   2.319
 1899SOL     OW 2043   3.296   3.050   1.903
 1899SOL    HW1 2044   3.328   2.974   1.960
 1899SOL    HW2 2045   3.204   3.077   1.933
 1900SOL     OW 2046   2.797   2.098   2.342
 1900SOL    HW1 2047   2.749   2.139   2.264
 1900SOL    HW2 2048   2.896   2.096   2.323
 1901SOL     OW 2049   2.938   2.545   3.326
 1901SOL    HW1 2050   2.858   2.484   3.329
 1901SOL    HW2 2051   3.019   2.492   3.302
 1902SOL     OW 2052   3.089   3.432   2.655
 1902SOL    HW1 2053   3.110   3.506   2.590
 1902SOL    HW2 2054   3.157   3.432   2.728
 1903SOL     OW 2055   2.321   3.014   2.603
 1903SOL    HW1 2056   2.250   2.987   2.668
 1903SOL    HW2 2057   2.295   2.986   2.510
 1905SOL     OW 2058   2.894   2.411   1.878
 1905SOL    HW1 2059   2.853   2.493   1.839
 1905SOL    HW2 2060   2.958   2.437   1.951
 1906SOL     OW 2061   1.940   2.418   3.248
 1906SOL    HW1 2062   2.032   2.417   3.207
 1906SOL    HW2 2063   1.934   2.492   3.315
 1907SOL     OW 2064   2.423   2.084   3.009
 1907SOL    HW1 2065   2.461   2.000   3.046
 1907SOL    HW2 2066   2.335   2.103   3.053
 1908SOL     OW 2067   2.728   2.316   2.504
 1908SOL    HW1 2068   2.696   2.388   2.442
 1908SOL    HW2 2069   2.752   2.235   2.451
 1909SOL     OW 2070   2.879   1.901   2.615
 1909SOL    HW1 2071   2.807   1.906   2.546
 1909SOL    HW2 2072   2.855   1.832   2.684
 1910SOL     OW 2073   3.291   3.035   2.729
 1910SOL    HW1 2074   3.236   2.951   2.722
 1910SOL    HW2 2075   3.317   3.064   2.637
 1911SOL     OW 2076   3.328   2.452   2.854
 1911SOL    HW1 2077   3.298   2.357   2.861
 1911SOL    HW2 2078   3.401   2.468   2.920
 1912SOL     OW 2079   3.719   2.695   2.239
 1912SOL    HW1 2080   3.761   2.631   2.303
 1912SOL    HW2 2081   3.681   2.644   2.161
 1913SOL     OW 2082   2.350   3.247   2.036
 1913SOL    HW1 2083   2.263   3.232   2.083
 1913SOL    HW2 2084   2.333   3.273   1.941
 1914SOL     OW 2085   3.526   3.142   2.519
 1914SOL    HW1 2086   3.625   3.150   2.533
 1914SOL    HW2 2087   3.481   3.226   2.550
 1915SOL     OW 2088   3.252   2.437   1.940
 1915SOL    HW1 2089   3.198   2.416   2.021
 1915SOL    HW2 2090   3.343   2.396   1.949
 1916SOL     OW 2091   2.389   2.118   2.190
 1916SOL    HW1 2092   2.416   2.059   2.115
 1916SOL    HW2 2093   2.389   2.213   2.159
 1918SOL     OW 2094   2.926   3.209   3.202
 1918SOL    HW1 2095   2.846   3.186   3.257
 1918SOL    HW2 2096   3.009   3.183   3.251
 1920SOL     OW 2097   2.973   3.057   2.962
 1920SOL    HW1 2098   2.933   3.101   3.043
 1920SOL    HW2 2099   2.932   3.094   2.879
 1922SOL     OW 2100   2.777   1.951   3.264
 1922SOL    HW1 2101   2.802   1.931   3.169
 1922SOL    HW2 2102   2.849   2.007   3.306
 1924SOL     OW 2103   2.567   2.912   2.230
 1924SOL    HW1 2104   2.553   2.919   2.329
 1924SOL    HW2 2105   2.651   2.861   2.212
 1925SOL     OW 2106   2.272   2.675   3.113
 1925SOL    HW1 2107   2.358   2.687   3.163
 1925SOL    HW2 2108   2.230   2.588   3.140
 1926SOL     OW 2109   3.136   2.248   3.124
 1926SOL    HW1 2110   3.157   2.322   3.188
 1926SOL    HW2 2111   3.047   2.265   3.081
 1927SOL     OW 2112   1.926   3.426   3.193
 1927SOL    HW1 2113   1.880   3.508   3.159
 1927SOL    HW2 2114   2.024   3.445   3.202
 1928SOL     OW 2115   2.229   2.962   2.363
 1928SOL    HW1 2116   2.222   3.045   2.307
 1928SOL    HW2 2117   2.233   2.882   2.303
 1929SOL     OW 2118   2.428   2.399   2.727
 1929SOL    HW1 2119   2.440   2.465   2.653
 1929SOL    HW2 2120   2.474   2.433   2.810
 1930SOL     OW 2121   3.114   3.210   2.250
 1930SOL    HW1 2122   3.164   3.287   2.290
 1930SOL    HW2 2123   3.019   3.212   2.282
 1931SOL     OW 2124   3.134   3.307   3.004
 1931SOL    HW1 2125   3.181   3.320   3.091
 1931SOL    HW2 2126   3.068   3.233   3.013
 1932SOL     OW 2127   3.444   2.501   2.334
 1932SOL    HW1 2128   3.413   2.562   2.407
 1932SOL    HW2 2129   3.494   2.553   2.265
 1933SOL     OW 2130   2.216   3.372   3.191
 1933SOL    HW1 2131   2.195   3.328   3.104
 1933SOL    HW2 2132   2.313   3.398   3.194
 1934SOL     OW 2133   2.264   2.613   3.460
 1934SOL    HW1 2134   2.332   2.668   3.413
 1934SOL    HW2 2135   2.304   2.525   3.487
 1936SOL     OW 2136   2.875   1.967   3.632
 1936SOL    HW1 2137   2.881   2.052   3.580
 1936SOL    HW2 2138   2.907   1.891   3.575
 1937SOL     OW 2139   2.366   1.912   3.602
 1937SOL    HW1 2140   2.324   1.855   3.532
 1937SOL    HW2 2141   2.300   1.981   3.634
 1938SOL     OW 2142   2.435   2.732   2.891
 1938SOL    HW1 2143   2.479   2.821   2.882
 1938SOL    HW2 2144   2.372   2.732   2.968
 1939SOL     OW 2145   3.222   2.724   2.907
 1939SOL    HW1 2146   3.147   2.724   2.841
 1939SOL    HW2 2147   3.259   2.632   2.916
 1940SOL     OW 2148   3.071   2.387   2.137
 1940SOL    HW1 2149   3.084   2.303   2.191
 1940SOL    HW2 2150   3.042   2.461   2.197
 1941SOL     OW 2151   2.169   2.075   3.093
 1941SOL    HW1 2152   2.146   2.112   3.183
 1941SOL    HW2 2153   2.139   1.980   3.087
 1942SOL     OW 2154   1.899   3.172   3.144
 1942SOL    HW1 2155   1.952   3.123   3.212
 1942SOL    HW2 2156   1.921   3.270   3.149
 1943SOL     OW 2157   2.594   2.496   2.926
 1943SOL    HW1 2158   2.653   2.470   2.850
 1943SOL    HW2 2159   2.566   2.592   2.915
 1945SOL     OW 2160   2.169   1.925   2.480
 1945SOL    HW1 2161   2.158   2.019   2.513
 1945SOL    HW2 2162   2.164   1.862   2.557
 1946SOL     OW 2163   3.484   2.229   2.236
 1946SOL    HW1 2164   3.486   2.153   2.300
 1946SOL    HW2 2165   3.436   2.306   2.276
 1947SOL     OW 2166   2.885   2.628   2.828
 1947SOL    HW1 2167   2.900   2.649   2.924
 1947SOL    HW2 2168   2.855   2.533   2.819
 1950SOL     OW 2169   2.212   2.760   3.666
 1950SOL    HW1 2170   2.288   2.804   3.714
 1950SOL    HW2 2171   2.247   2.713   3.584
 1951SOL     OW 2172   3.402   2.136   1.987
 1951SOL    HW1 2173   3.341   2.061   2.010
 1951SOL    HW2 2174   3.424   2.188   2.070
 1952SOL     OW 2175   3.165   2.700   1.904
 1952SOL    HW1 2176   3.199   2.607   1.919
 1952SOL    HW2 2177   3.183   2.727   1.809
 1953SOL     OW 2178   2.930   3.195   2.711
 1953SOL    HW1 2179   2.937   3.111   2.656
 1953SOL    HW2 2180   2.992   3.264   2.675
 1954SOL     OW 2181   2.181   2.672   2.811
 1954SOL    HW1 2182   2.274   2.708   2.816
 1954SOL    HW2 2183   2.175   2.587   2.863
 1955SOL     OW 2184   2.201   2.371   2.868
 1955SOL    HW1 2185   2.149   2.288   2.851
 1955SOL    HW2 2186   2.278   2.376   2.804
 1956SOL     OW 2187   3.000   2.242   3.540
 1956SOL    HW1 2188   2.955   2.305   3.604
 1956SOL    HW2 2189   3.093   2.273   3.523
 1957SOL     OW 2190   3.022   2.069   3.339
 1957SOL    HW1 2191   3.022   2.133   3.416
 1957SOL    HW2 2192   3.050   2.117   3.256
 1958SOL     OW 2193   1.870   3.188   2.062
 1958SOL    HW1 2194   1.777   3.209   2.031
 1958SOL    HW2 2195   1.880   3.089   2.075
 1959SOL     OW 2196   1.950   3.663   2.789
 1959SOL    HW1 2197   1.908   3.577   2.762
 1959SOL    HW2 2198   2.044   3.666   2.755
 1960SOL     OW 2199   2.366   3.430   2.772
 1960SOL    HW1 2200   2.432   3.504   2.781
 1960SOL    HW2 2201   2.410   3.351   2.730
 1961SOL     OW 2202   2.864   2.658   3.100
 1961SOL    HW1 2203   2.905   2.626   3.186
 1961SOL    HW2 2204   2.768   2.631   3.097
 1962SOL     OW 2205   1.902   2.406   2.976
 1962SOL    HW1 2206   1.987   2.373   2.935
 1962SOL    HW2 2207   1.915   2.421   3.074
 1963SOL     OW 2208   2.051   2.382   3.584
 1963SOL    HW1 2209   2.110   2.342   3.514
 1963SOL    HW2 2210   1.993   2.453   3.543
 1965SOL     OW 2211   2.677   2.434   2.187
 1965SOL    HW1 2212   2.684   2.345   2.141
 1965SOL    HW2 2213   2.583   2.468   2.179
 1966SOL     OW 2214   3.519   2.466   3.068
 1966SOL    HW1 2215   3.481   2.397   3.130
 1966SOL    HW2 2216   3.601   2.430   3.024
 1968SOL     OW 2217   2.533   2.326   3.131
 1968SOL    HW1 2218   2.499   2.237   3.101
 1968SOL    HW2 2219   2.559   2.380   3.051
 1970SOL     OW 2220   2.335   2.362   2.053
 1970SOL    HW1 2221   2.396   2.442   2.057
 1970SOL    HW2 2222   2.240   2.393   2.060
 1971SOL     OW 2223   2.021   2.999   3.328
 1971SOL    HW1 2224   2.043   2.938   3.404
 1971SOL    HW2 2225   2.031   2.950   3.242
 1972SOL     OW 2226   3.209   2.921   3.096
 1972SOL    HW1 2227   3.233   2.858   3.022
 1972SOL    HW2 2228   3.119   2.961   3.078
 1973SOL     OW 2229   3.164   2.717   2.171
 1973SOL    HW1 2230   3.078   2.686   2.213
 1973SOL    HW2 2231   3.160   2.703   2.072
 1976SOL     OW 2232   1.945   3.120   2.884
 1976SOL    HW1 2233   1.940   3.119   2.984
 1976SOL    HW2 2234   1.862   3.079   2.846
 1978SOL     OW 2235   3.588   1.997   2.385
 1978SOL    HW1 2236   3.661   1.980   2.318
 1978SOL    HW2 2237   3.557   1.910   2.423
 1979SOL     OW 2238   3.250   3.435   2.339
 1979SOL    HW1 2239   3.317   3.447   2.265
 1979SOL    HW2 2240   3.210   3.524   2.362
 1981SOL     OW 2241   3.142   2.789   2.534
 1981SOL    HW1 2242   3.202   2.708   2.536
 1981SOL    HW2 2243   3.182   2.858   2.474
 1982SOL     OW 2244   2.692   3.135   3.284
 1982SOL    HW1 2245   2.687   3.168   3.379
 1982SOL    HW2 2246   2.606   3.154   3.238
 1983SOL     OW 2247   2.534   3.478   2.016
 1983SOL    HW1 2248   2.543   3.488   1.917
 1983SOL    HW2 2249   2.494   3.389   2.037
 1985SOL     OW 2250   3.703   2.037   2.825
 1985SOL    HW1 2251   3.742   1.952   2.789
 1985SOL    HW2 2252   3.605   2.039   2.806
 1986SOL     OW 2253   2.125   2.188   2.582
 1986SOL    HW1 2254   2.046   2.239   2.548
 1986SOL    HW2 2255   2.116   2.173   2.680
 1987SOL     OW 2256   3.056   3.474   1.893
 1987SOL    HW1 2257   3.062   3.381   1.930
 1987SOL    HW2 2258   2.997   3.474   1.813
 1988SOL     OW 2259   2.684   2.864   3.234
 1988SOL    HW1 2260   2.724   2.863   3.142
 1988SOL    HW2 2261   2.694   2.956   3.274
 1989SOL     OW 2262   2.778   2.772   2.153
 1989SOL    HW1 2263   2.841   2.810   2.085
 1989SOL    HW2 2264   2.818   2.689   2.192
 1991SOL     OW 2265   2.234   3.150   3.352
 1991SOL    HW1 2266   2.221   3.243   3.318
 1991SOL    HW2 2267   2.150   3.098   3.339
 1993SOL     OW 2268   2.901   2.960   2.558
 1993SOL    HW1 2269   2.831   2.913   2.612
 1993SOL    HW2 2270   2.960   2.892   2.515
 1994SOL     OW 2271   2.876   2.098   2.833
 1994SOL    HW1 2272   2.868   2.062   2.740
 1994SOL    HW2 2273   2.874   2.022   2.898
 1995SOL     OW 2274   2.452   3.349   2.353
 1995SOL    HW1 2275   2.494   3.291   2.283
 1995SOL    HW2 2276   2.408   3.428   2.309
 1997SOL     OW 2277   2.117   3.210   2.152
 1997SOL    HW1 2278   2.021   3.211   2.125
 1997SOL    HW2 2279   2.129   3.263   2.236
 1998SOL     OW 2280   1.967   2.875   3.588
 1998SOL    HW1 2281   1.890   2.842   3.642
 1998SOL    HW2 2282   2.052   2.845   3.630
 1999SOL     OW 2283   2.534   2.065   3.351
 1999SOL    HW1 2284   2.624   2.049   3.311
 1999SOL    HW2 2285   2.542   2.070   3.450
 2000SOL     OW 2286   1.937   2.207   1.895
 2000SOL    HW1 2287   1.845   2.179   1.866
 2000SOL    HW2 2288   1.968   2.284   1.839
 2001SOL     OW 2289   3.302   2.718   3.260
 2001SOL    HW1 2290   3.245   2.770   3.197
 2001SOL    HW2 2291   3.398   2.730   3.236
 2002SOL     OW 2292   3.045   3.197   1.981
 2002SOL    HW1 2293   2.946   3.186   1.983
 2002SOL    HW2 2294   3.079   3.212   2.074
 2003SOL     OW 2295   2.475   2.704   3.293
 2003SOL    HW1 2296   2.531   2.785   3.276
 2003SOL    HW2 2297   2.534   2.624   3.296
 2005SOL     OW 2298   2.578   2.427   3.570
 2005SOL    HW1 2299   2.597   2.492   3.644
 2005SOL    HW2 2300   2.638   2.347   3.579
 2009SOL     OW 2301   3.087   2.187   2.311
 2009SOL    HW1 2302   3.152   2.113   2.300
 2009SOL    HW2 2303   3.107   2.237   2.395
 2010SOL     OW 2304   2.456   2.607   2.514
 2010SOL    HW1 2305   2.506   2.692   2.495
 2010SOL    HW2 2306   2.368   2.609   2.466
 2013SOL     OW 2307   2.721   3.236   1.878
 2013SOL    HW1 2308   2.675   3.251   1.966
 2013SOL    HW2 2309   2.765   3.321   1.848
 2014SOL     OW 2310   2.523   3.652   2.815
 2014SOL    HW1 2311   2.477   3.740   2.802
 2014SOL    HW2 2312   2.622   3.664   2.808
 2015SOL     OW 2313   2.721   2.818   2.723
 2015SOL    HW1 2314   2.775   2.749   2.771
 2015SOL    HW2 2315   2.689   2.887   2.789
 2016SOL     OW 2316   2.945   2.846   1.949
 2016SOL    HW1 2317   2.922   2.899   1.867
 2016SOL    HW2 2318   3.026   2.790   1.930
 2019SOL     OW 2319   1.941   3.102   2.515
 2019SOL    HW1 2320   1.940   3.055   2.603
 2019SOL    HW2 2321   2.023   3.074   2.464
 2022SOL     OW 2322   2.290   2.286   2.382
 2022SOL    HW1 2323   2.320   2.214   2.320
 2022SOL    HW2 2324   2.251   2.246   2.465
 2024SOL     OW 2325   2.179   2.409   3.142
 2024SOL    HW1 2326   2.217   2.350   3.214
 2024SOL    HW2 2327   2.219   2.383   3.054
 2025SOL     OW 2328   2.674   3.448   2.549
 2025SOL    HW1 2329   2.706   3.458   2.455
 2025SOL    HW2 2330   2.595   3.386   2.551
 2026SOL     OW 2331   3.286   2.076   2.974
 2026SOL    HW1 2332   3.338   2.011   3.029
 2026SOL    HW2 2333   3.237   2.139   3.035
 2027SOL     OW 2334   2.863   1.896   3.016
 2027SOL    HW1 2335   2.800   1.824   2.985
 2027SOL    HW2 2336   2.956   1.860   3.016
 2028SOL     OW 2337   2.632   3.192   2.163
 2028SOL    HW1 2338   2.586   3.105   2.180
 2028SOL    HW2 2339   2.723   3.189   2.204
 2029SOL     OW 2340   2.480   3.429   3.146
 2029SOL    HW1 2341   2.475   3.511   3.203
 2029SOL    HW2 2342   2.569   3.426   3.101
 2030SOL     OW 2343   3.214   1.914   2.030
 2030SOL    HW1 2344   3.249   1.873   1.946
 2030SOL    HW2 2345   3.124   1.876   2.050
 2031SOL     OW 2346   3.162   2.315   2.553
 2031SOL    HW1 2347   3.103   2.395   2.557
 2031SOL    HW2 2348   3.177   2.280   2.646
 2032SOL     OW 2349   3.455   2.083   2.744
 2032SOL    HW1 2350   3.371   2.082   2.798
 2032SOL    HW2 2351   3.457   2.166   2.688
 2033SOL     OW 2352   1.901   2.939   2.162
 2033SOL    HW1 2353   2.000   2.928   2.153
 2033SOL    HW2 2354   1.861   2.853   2.194
 2034SOL     OW 2355   2.737   3.508   2.199
 2034SOL    HW1 2356   2.660   3.473   2.145
 2034SOL    HW2 2357   2.705   3.579   2.261
 2035SOL     OW 2358   2.092   2.490   3.837
 2035SOL    HW1 2359   1.999   2.488   3.874
 2035SOL    HW2 2360   2.093   2.451   3.745
 2054SOL     OW 2361   2.476   1.984   3.841
 2054SOL    HW1 2362   2.574   1.962   3.848
 2054SOL    HW2 2363   2.445   1.967   3.748
 2056SOL     OW 2364   2.159   1.897   3.895
 2056SOL    HW1 2365   2.208   1.981   3.874
 2056SOL    HW2 2366   2.221   1.832   3.940
 2087SOL     OW 2367   1.937   2.207   3.757
 2087SOL    HW1 2368   1.845   2.179   3.728
 2087SOL    HW2 2369   1.968   2.284   3.701
 2129SOL     OW 2370   2.366   3.774   1.740
 2129SOL    HW1 2371   2.324   3.717   1.670
 2129SOL    HW2 2372   2.300   3.843   1.772
 2167SOL     OW 2373   2.671   3.728   2.364
 2167SOL    HW1 2374   2.711   3.819   2.355
 2167SOL    HW2 2375   2.571   3.736   2.370
 2177SOL     OW 2376   2.476   3.846   1.979
 2177SOL    HW1 2377   2.574   3.824   1.986
 2177SOL    HW2 2378   2.445   3.829   1.886
 2180SOL     OW 2379   2.401   3.788   2.374
 2180SOL    HW1 2380   2.320   3.789   2.432
 2180SOL    HW2 2381   2.404   3.871   2.319
 2181SOL     OW 2382   2.159   3.759   2.033
 2181SOL    HW1 2383   2.208   3.843   2.012
 2181SOL    HW2 2384   2.221   3.694   2.078
 2194SOL     OW 2385   2.169   3.787   2.480
 2194SOL    HW1 2386   2.158   3.881   2.513
 2194SOL    HW2 2387   2.164   3.724   2.557
 2211SOL     OW 2388   1.934   3.890   2.180
 2211SOL    HW1 2389   1.917   3.973   2.126
 2211SOL    HW2 2390   2.024   3.853   2.158
 2286SOL     OW 2391   3.854   1.794   1.851
 2286SOL    HW1 2392   3.813   1.720   1.904
 2286SOL    HW2 2393   3.918   1.845   1.909
 2308SOL     OW 2394   3.751   1.596   1.979
 2308SOL    HW1 2395   3.732   1.500   2.000
 2308SOL    HW2 2396   3.718   1.654   2.054
 2335SOL     OW 2397   3.732   1.326   2.062
 2335SOL    HW1 2398   3.639   1.347   2.031
 2335SOL    HW2 2399   3.742   1.227   2.075
 2432SOL     OW 2400   3.743   2.230   2.509
 2432SOL    HW1 2401   3.661   2.273   2.548
 2432SOL    HW2 2402   3.715   2.157   2.446
 2437SOL     OW 2403   3.846   2.505   2.425
 2437SOL    HW1 2404   3.801   2.417   2.442
 2437SOL    HW2 2405   3.845   2.559   2.509
 2479SOL     OW 2406   3.799   2.207   1.895
 2479SOL    HW1 2407   3.707   2.179   1.866
 2479SOL    HW2 2408   3.830   2.284   1.839
 2480SOL     OW 2409   3.796   2.028   2.180
 2480SOL    HW1 2410   3.779   2.111   2.126
 2480SOL    HW2 2411   3.886   1.991   2.158
   4.25006   4.25006   4.25006
