mobley_8789465_GMX.gro created by acpype (v: 2023.10.27) on Tue May 19 14:10:16 2026
 2401
    1MOL     C1    1   2.284   2.303   2.133
    1MOL     C2    2   2.177   2.363   2.200
    1MOL     C3    3   2.389   2.247   2.205
    1MOL     C4    4   2.175   2.366   2.340
    1MOL     C5    5   2.387   2.250   2.345
    1MOL     C6    6   2.280   2.309   2.412
    1MOL     O1    7   2.491   2.193   2.412
    1MOL     I1    8   2.273   2.317   2.621
    1MOL     H1    9   2.285   2.301   2.024
    1MOL     H2   10   2.095   2.407   2.144
    1MOL     H3   11   2.471   2.200   2.152
    1MOL     H4   12   2.091   2.413   2.390
    1MOL     H5   13   2.484   2.216   2.506
   14SOL     OW   14   1.460   1.505   1.339
   14SOL    HW1   15   1.484   1.599   1.365
   14SOL    HW2   16   1.444   1.451   1.421
   18SOL     OW   17   1.127   1.341   1.690
   18SOL    HW1   18   1.174   1.341   1.778
   18SOL    HW2   19   1.079   1.254   1.679
   31SOL     OW   20   1.293   1.228   1.423
   31SOL    HW1   21   1.330   1.155   1.365
   31SOL    HW2   22   1.345   1.233   1.508
   35SOL     OW   23   1.187   1.792   1.616
   35SOL    HW1   24   1.211   1.852   1.540
   35SOL    HW2   25   1.194   1.697   1.586
   56SOL     OW   26   1.227   1.550   1.506
   56SOL    HW1   27   1.233   1.473   1.570
   56SOL    HW2   28   1.175   1.524   1.426
   95SOL     OW   29   1.754   1.223   1.588
   95SOL    HW1   30   1.845   1.184   1.575
   95SOL    HW2   31   1.762   1.319   1.612
   97SOL     OW   32   1.592   1.629   1.625
   97SOL    HW1   33   1.619   1.663   1.535
   97SOL    HW2   34   1.671   1.591   1.671
  109SOL     OW   35   1.272   1.445   1.142
  109SOL    HW1   36   1.319   1.458   1.229
  109SOL    HW2   37   1.206   1.371   1.151
  113SOL     OW   38   1.587   0.779   1.670
  113SOL    HW1   39   1.495   0.817   1.665
  113SOL    HW2   40   1.647   0.826   1.605
  122SOL     OW   41   1.728   0.935   1.854
  122SOL    HW1   42   1.682   0.928   1.765
  122SOL    HW2   43   1.666   0.979   1.920
  126SOL     OW   44   0.980   1.573   1.700
  126SOL    HW1   45   0.960   1.617   1.612
  126SOL    HW2   46   1.019   1.482   1.684
  127SOL     OW   47   1.859   1.518   1.605
  127SOL    HW1   48   1.873   1.545   1.510
  127SOL    HW2   49   1.942   1.540   1.658
  142SOL     OW   50   1.369   0.950   1.660
  142SOL    HW1   51   1.408   1.039   1.680
  142SOL    HW2   52   1.379   0.930   1.563
  147SOL     OW   53   0.930   1.678   1.465
  147SOL    HW1   54   0.906   1.660   1.370
  147SOL    HW2   55   0.960   1.772   1.475
  152SOL     OW   56   1.759   1.747   1.154
  152SOL    HW1   57   1.820   1.777   1.081
  152SOL    HW2   58   1.721   1.658   1.132
  153SOL     OW   59   1.252   1.731   1.128
  153SOL    HW1   60   1.336   1.736   1.074
  153SOL    HW2   61   1.229   1.635   1.146
  163SOL     OW   62   1.650   1.720   1.394
  163SOL    HW1   63   1.703   1.730   1.310
  163SOL    HW2   64   1.623   1.810   1.428
  171SOL     OW   65   1.614   1.292   1.289
  171SOL    HW1   66   1.674   1.295   1.369
  171SOL    HW2   67   1.539   1.356   1.302
  184SOL     OW   68   1.493   1.767   0.959
  184SOL    HW1   69   1.526   1.831   0.890
  184SOL    HW2   70   1.559   1.761   1.034
  186SOL     OW   71   1.450   1.220   1.633
  186SOL    HW1   72   1.441   1.210   1.732
  186SOL    HW2   73   1.546   1.213   1.607
  192SOL     OW   74   1.730   0.934   1.517
  192SOL    HW1   75   1.768   1.025   1.532
  192SOL    HW2   76   1.722   0.917   1.418
  197SOL     OW   77   1.861   1.569   0.851
  197SOL    HW1   78   1.790   1.557   0.781
  197SOL    HW2   79   1.862   1.490   0.911
  203SOL     OW   80   1.705   1.487   1.104
  203SOL    HW1   81   1.612   1.462   1.077
  203SOL    HW2   82   1.731   1.437   1.186
  219SOL     OW   83   1.555   1.511   2.565
  219SOL    HW1   84   1.498   1.495   2.646
  219SOL    HW2   85   1.496   1.521   2.485
  221SOL     OW   86   1.755   0.607   2.093
  221SOL    HW1   87   1.743   0.594   1.994
  221SOL    HW2   88   1.725   0.526   2.142
  227SOL     OW   89   1.460   1.505   3.201
  227SOL    HW1   90   1.484   1.599   3.227
  227SOL    HW2   91   1.444   1.451   3.283
  238SOL     OW   92   1.842   1.767   2.221
  238SOL    HW1   93   1.896   1.738   2.301
  238SOL    HW2   94   1.872   1.857   2.192
  240SOL     OW   95   1.689   0.922   2.474
  240SOL    HW1   96   1.784   0.893   2.482
  240SOL    HW2   97   1.681   0.987   2.399
  241SOL     OW   98   1.641   1.108   2.294
  241SOL    HW1   99   1.727   1.110   2.242
  241SOL    HW2  100   1.655   1.155   2.382
  244SOL     OW  101   1.293   1.228   3.285
  244SOL    HW1  102   1.330   1.155   3.227
  244SOL    HW2  103   1.345   1.233   3.370
  247SOL     OW  104   1.525   0.999   2.052
  247SOL    HW1  105   1.462   0.923   2.065
  247SOL    HW2  106   1.573   1.017   2.138
  248SOL     OW  107   1.187   1.792   3.478
  248SOL    HW1  108   1.211   1.852   3.402
  248SOL    HW2  109   1.194   1.697   3.448
  250SOL     OW  110   1.466   1.417   2.815
  250SOL    HW1  111   1.407   1.423   2.895
  250SOL    HW2  112   1.451   1.329   2.769
  251SOL     OW  113   1.667   1.714   2.434
  251SOL    HW1  114   1.626   1.691   2.346
  251SOL    HW2  115   1.649   1.640   2.499
  254SOL     OW  116   1.576   1.662   2.169
  254SOL    HW1  117   1.665   1.708   2.172
  254SOL    HW2  118   1.555   1.638   2.074
  264SOL     OW  119   1.362   1.144   2.407
  264SOL    HW1  120   1.445   1.115   2.359
  264SOL    HW2  121   1.313   1.211   2.351
  266SOL     OW  122   1.008   1.456   2.339
  266SOL    HW1  123   0.962   1.528   2.287
  266SOL    HW2  124   1.004   1.476   2.437
  268SOL     OW  125   1.795   1.066   2.735
  268SOL    HW1  126   1.733   1.051   2.659
  268SOL    HW2  127   1.743   1.077   2.820
  269SOL     OW  128   1.227   1.550   3.368
  269SOL    HW1  129   1.233   1.473   3.432
  269SOL    HW2  130   1.175   1.524   3.288
  271SOL     OW  131   1.458   0.735   2.590
  271SOL    HW1  132   1.453   0.670   2.665
  271SOL    HW2  133   1.538   0.794   2.603
  273SOL     OW  134   1.111   1.776   2.099
  273SOL    HW1  135   1.051   1.714   2.149
  273SOL    HW2  136   1.142   1.732   2.014
  275SOL     OW  137   1.632   1.377   1.943
  275SOL    HW1  138   1.600   1.471   1.933
  275SOL    HW2  139   1.556   1.314   1.931
  279SOL     OW  140   0.940   1.698   2.766
  279SOL    HW1  141   1.020   1.641   2.787
  279SOL    HW2  142   0.891   1.658   2.689
  284SOL     OW  143   0.888   1.514   3.057
  284SOL    HW1  144   0.865   1.489   2.963
  284SOL    HW2  145   0.949   1.445   3.096
  289SOL     OW  146   1.434   1.188   1.903
  289SOL    HW1  147   1.466   1.112   1.960
  289SOL    HW2  148   1.342   1.215   1.933
  293SOL     OW  149   1.227   1.570   2.655
  293SOL    HW1  150   1.248   1.644   2.590
  293SOL    HW2  151   1.295   1.570   2.728
  295SOL     OW  152   1.271   1.797   2.453
  295SOL    HW1  153   1.315   1.861   2.389
  295SOL    HW2  154   1.221   1.849   2.523
  301SOL     OW  155   1.429   1.173   2.729
  301SOL    HW1  156   1.374   1.089   2.722
  301SOL    HW2  157   1.455   1.202   2.637
  303SOL     OW  158   1.857   0.833   2.239
  303SOL    HW1  159   1.899   0.769   2.303
  303SOL    HW2  160   1.819   0.782   2.161
  305SOL     OW  161   1.664   1.280   2.519
  305SOL    HW1  162   1.763   1.288   2.533
  305SOL    HW2  163   1.619   1.364   2.550
  308SOL     OW  164   1.754   1.223   3.450
  308SOL    HW1  165   1.845   1.184   3.437
  308SOL    HW2  166   1.762   1.319   3.474
  310SOL     OW  167   1.592   1.629   3.487
  310SOL    HW1  168   1.619   1.663   3.397
  310SOL    HW2  169   1.671   1.591   3.533
  311SOL     OW  170   1.111   1.195   2.962
  311SOL    HW1  171   1.071   1.239   3.043
  311SOL    HW2  172   1.070   1.232   2.879
  312SOL     OW  173   1.638   1.099   2.941
  312SOL    HW1  174   1.643   1.180   3.000
  312SOL    HW2  175   1.552   1.101   2.890
  321SOL     OW  176   1.252   1.348   2.250
  321SOL    HW1  177   1.302   1.425   2.290
  321SOL    HW2  178   1.157   1.350   2.282
  322SOL     OW  179   1.272   1.445   3.004
  322SOL    HW1  180   1.319   1.458   3.091
  322SOL    HW2  181   1.206   1.371   3.013
  340SOL     OW  182   1.859   1.518   3.467
  340SOL    HW1  183   1.873   1.545   3.372
  340SOL    HW2  184   1.942   1.540   3.520
  344SOL     OW  185   1.068   1.333   2.711
  344SOL    HW1  186   1.075   1.249   2.656
  344SOL    HW2  187   1.130   1.402   2.675
  363SOL     OW  188   1.347   1.059   3.096
  363SOL    HW1  189   1.371   0.996   3.022
  363SOL    HW2  190   1.257   1.099   3.078
  364SOL     OW  191   1.302   0.855   2.171
  364SOL    HW1  192   1.216   0.824   2.213
  364SOL    HW2  193   1.298   0.841   2.072
  365SOL     OW  194   1.759   1.747   3.016
  365SOL    HW1  195   1.820   1.777   2.943
  365SOL    HW2  196   1.721   1.658   2.994
  366SOL     OW  197   1.252   1.731   2.990
  366SOL    HW1  198   1.336   1.736   2.936
  366SOL    HW2  199   1.229   1.635   3.008
  370SOL     OW  200   1.388   1.573   2.339
  370SOL    HW1  201   1.455   1.585   2.265
  370SOL    HW2  202   1.348   1.662   2.362
  372SOL     OW  203   1.280   0.927   2.534
  372SOL    HW1  204   1.340   0.846   2.536
  372SOL    HW2  205   1.320   0.996   2.474
  374SOL     OW  206   0.672   1.616   2.016
  374SOL    HW1  207   0.681   1.626   1.917
  374SOL    HW2  208   0.632   1.527   2.037
  375SOL     OW  209   1.650   1.720   3.256
  375SOL    HW1  210   1.703   1.730   3.172
  375SOL    HW2  211   1.623   1.810   3.290
  378SOL     OW  212   1.194   1.612   1.893
  378SOL    HW1  213   1.200   1.519   1.930
  378SOL    HW2  214   1.135   1.612   1.813
  381SOL     OW  215   1.504   1.607   1.906
  381SOL    HW1  216   1.412   1.644   1.913
  381SOL    HW2  217   1.542   1.627   1.816
  383SOL     OW  218   1.614   1.292   3.151
  383SOL    HW1  219   1.674   1.295   3.231
  383SOL    HW2  220   1.539   1.356   3.164
  384SOL     OW  221   1.039   1.098   2.558
  384SOL    HW1  222   0.969   1.051   2.612
  384SOL    HW2  223   1.098   1.030   2.515
  394SOL     OW  224   1.183   1.335   1.981
  394SOL    HW1  225   1.084   1.324   1.983
  394SOL    HW2  226   1.217   1.350   2.074
  396SOL     OW  227   1.493   1.767   2.821
  396SOL    HW1  228   1.526   1.831   2.752
  396SOL    HW2  229   1.559   1.761   2.896
  400SOL     OW  230   1.674   0.883   3.116
  400SOL    HW1  231   1.647   0.794   3.079
  400SOL    HW2  232   1.675   0.951   3.043
  405SOL     OW  233   0.859   1.374   1.878
  405SOL    HW1  234   0.813   1.389   1.966
  405SOL    HW2  235   0.903   1.459   1.848
  406SOL     OW  236   0.661   1.790   2.815
  406SOL    HW1  237   0.615   1.878   2.802
  406SOL    HW2  238   0.760   1.802   2.808
  409SOL     OW  239   1.861   1.569   2.713
  409SOL    HW1  240   1.790   1.557   2.643
  409SOL    HW2  241   1.862   1.490   2.773
  415SOL     OW  242   1.705   1.487   2.966
  415SOL    HW1  243   1.612   1.462   2.939
  415SOL    HW2  244   1.731   1.437   3.048
  417SOL     OW  245   0.812   1.586   2.549
  417SOL    HW1  246   0.844   1.596   2.455
  417SOL    HW2  247   0.733   1.524   2.551
  426SOL     OW  248   0.875   1.646   2.199
  426SOL    HW1  249   0.798   1.611   2.145
  426SOL    HW2  250   0.843   1.717   2.261
  532SOL     OW  251   0.850   2.660   1.823
  532SOL    HW1  252   0.846   2.736   1.888
  532SOL    HW2  253   0.872   2.696   1.732
  536SOL     OW  254   1.460   3.367   1.339
  536SOL    HW1  255   1.484   3.461   1.365
  536SOL    HW2  256   1.444   3.313   1.421
  538SOL     OW  257   1.603   2.309   0.737
  538SOL    HW1  258   1.529   2.355   0.687
  538SOL    HW2  259   1.654   2.377   0.790
  540SOL     OW  260   1.127   3.203   1.690
  540SOL    HW1  261   1.174   3.203   1.778
  540SOL    HW2  262   1.079   3.116   1.679
  545SOL     OW  263   1.594   1.976   1.480
  545SOL    HW1  264   1.576   2.043   1.408
  545SOL    HW2  265   1.591   2.022   1.569
  553SOL     OW  266   1.293   3.090   1.423
  553SOL    HW1  267   1.330   3.017   1.365
  553SOL    HW2  268   1.345   3.095   1.508
  562SOL     OW  269   1.281   2.207   0.944
  562SOL    HW1  270   1.195   2.157   0.931
  562SOL    HW2  271   1.343   2.153   1.000
  564SOL     OW  272   0.807   2.467   1.465
  564SOL    HW1  273   0.760   2.464   1.554
  564SOL    HW2  274   0.756   2.412   1.399
  565SOL     OW  275   1.394   2.331   1.674
  565SOL    HW1  276   1.374   2.374   1.762
  565SOL    HW2  277   1.472   2.269   1.683
  566SOL     OW  278   0.973   2.752   1.572
  566SOL    HW1  279   1.019   2.668   1.543
  566SOL    HW2  280   0.917   2.786   1.497
  567SOL     OW  281   0.991   2.272   1.242
  567SOL    HW1  282   0.914   2.306   1.296
  567SOL    HW2  283   0.957   2.221   1.163
  572SOL     OW  284   1.719   2.447   1.831
  572SOL    HW1  285   1.693   2.536   1.795
  572SOL    HW2  286   1.717   2.379   1.758
  577SOL     OW  287   1.795   2.928   0.873
  577SOL    HW1  288   1.733   2.913   0.797
  577SOL    HW2  289   1.743   2.939   0.958
  578SOL     OW  290   1.227   3.412   1.506
  578SOL    HW1  291   1.233   3.335   1.570
  578SOL    HW2  292   1.175   3.386   1.426
  590SOL     OW  293   1.547   2.084   1.729
  590SOL    HW1  294   1.542   2.121   1.821
  590SOL    HW2  295   1.475   2.015   1.717
  591SOL     OW  296   0.781   2.126   1.749
  591SOL    HW1  297   0.848   2.065   1.792
  591SOL    HW2  298   0.708   2.145   1.814
  593SOL     OW  299   1.351   2.452   1.433
  593SOL    HW1  300   1.379   2.409   1.518
  593SOL    HW2  301   1.376   2.548   1.434
  600SOL     OW  302   1.076   2.545   1.464
  600SOL    HW1  303   0.996   2.484   1.467
  600SOL    HW2  304   1.157   2.492   1.440
  610SOL     OW  305   1.466   2.452   0.992
  610SOL    HW1  306   1.436   2.357   0.999
  610SOL    HW2  307   1.539   2.468   1.058
  616SOL     OW  308   1.754   3.085   1.588
  616SOL    HW1  309   1.845   3.046   1.575
  616SOL    HW2  310   1.762   3.181   1.612
  618SOL     OW  311   1.592   3.491   1.625
  618SOL    HW1  312   1.619   3.525   1.535
  618SOL    HW2  313   1.671   3.453   1.671
  620SOL     OW  314   1.638   2.961   1.079
  620SOL    HW1  315   1.643   3.042   1.138
  620SOL    HW2  316   1.552   2.963   1.028
  621SOL     OW  317   0.915   1.951   1.402
  621SOL    HW1  318   0.940   1.931   1.307
  621SOL    HW2  319   0.987   2.007   1.444
  622SOL     OW  320   0.980   2.978   1.719
  622SOL    HW1  321   0.881   2.984   1.729
  622SOL    HW2  322   1.003   2.898   1.663
  625SOL     OW  323   1.274   2.248   1.262
  625SOL    HW1  324   1.295   2.322   1.326
  625SOL    HW2  325   1.185   2.265   1.219
  634SOL     OW  326   1.587   2.641   1.670
  634SOL    HW1  327   1.495   2.679   1.665
  634SOL    HW2  328   1.647   2.688   1.605
  635SOL     OW  329   1.013   1.967   1.770
  635SOL    HW1  330   1.019   2.052   1.718
  635SOL    HW2  331   1.045   1.891   1.713
  638SOL     OW  332   1.360   2.724   1.045
  638SOL    HW1  333   1.285   2.724   0.979
  638SOL    HW2  334   1.397   2.632   1.054
  643SOL     OW  335   1.728   2.797   1.854
  643SOL    HW1  336   1.682   2.790   1.765
  643SOL    HW2  337   1.666   2.841   1.920
  648SOL     OW  338   1.859   3.380   1.605
  648SOL    HW1  339   1.873   3.407   1.510
  648SOL    HW2  340   1.942   3.402   1.658
  655SOL     OW  341   1.138   2.242   1.678
  655SOL    HW1  342   1.093   2.305   1.742
  655SOL    HW2  343   1.231   2.273   1.661
  656SOL     OW  344   1.160   2.069   1.477
  656SOL    HW1  345   1.160   2.133   1.554
  656SOL    HW2  346   1.188   2.117   1.394
  660SOL     OW  347   1.002   2.658   1.238
  660SOL    HW1  348   1.043   2.626   1.324
  660SOL    HW2  349   0.906   2.631   1.235
  663SOL     OW  350   1.369   2.812   1.660
  663SOL    HW1  351   1.408   2.901   1.680
  663SOL    HW2  352   1.379   2.792   1.563
  665SOL     OW  353   1.657   2.466   1.206
  665SOL    HW1  354   1.619   2.397   1.268
  665SOL    HW2  355   1.739   2.430   1.162
  671SOL     OW  356   1.347   2.921   1.234
  671SOL    HW1  357   1.371   2.858   1.160
  671SOL    HW2  358   1.257   2.961   1.216
  684SOL     OW  359   1.650   3.582   1.394
  684SOL    HW1  360   1.703   3.592   1.310
  684SOL    HW2  361   1.623   3.672   1.428
  685SOL     OW  362   1.841   2.037   0.963
  685SOL    HW1  363   1.880   1.952   0.927
  685SOL    HW2  364   1.743   2.039   0.944
  692SOL     OW  365   1.614   3.154   1.289
  692SOL    HW1  366   1.674   3.157   1.369
  692SOL    HW2  367   1.539   3.218   1.302
  696SOL     OW  368   1.709   2.247   1.381
  696SOL    HW1  369   1.782   2.316   1.385
  696SOL    HW2  370   1.737   2.172   1.322
  701SOL     OW  371   1.440   2.718   1.398
  701SOL    HW1  372   1.383   2.770   1.335
  701SOL    HW2  373   1.536   2.730   1.374
  706SOL     OW  374   0.716   2.427   1.708
  706SOL    HW1  375   0.735   2.492   1.782
  706SOL    HW2  376   0.776   2.347   1.717
  707SOL     OW  377   1.450   3.082   1.633
  707SOL    HW1  378   1.441   3.072   1.732
  707SOL    HW2  379   1.546   3.075   1.607
  709SOL     OW  380   1.674   2.745   1.254
  709SOL    HW1  381   1.647   2.656   1.217
  709SOL    HW2  382   1.675   2.813   1.181
  712SOL     OW  383   1.777   2.204   1.642
  712SOL    HW1  384   1.760   2.235   1.548
  712SOL    HW2  385   1.693   2.167   1.680
  713SOL     OW  386   1.730   2.796   1.517
  713SOL    HW1  387   1.768   2.887   1.532
  713SOL    HW2  388   1.722   2.779   1.418
  722SOL     OW  389   1.824   2.054   1.227
  722SOL    HW1  390   1.820   1.964   1.271
  722SOL    HW2  391   1.827   2.043   1.128
  724SOL     OW  392   1.705   3.349   1.104
  724SOL    HW1  393   1.612   3.324   1.077
  724SOL    HW2  394   1.731   3.299   1.186
  727SOL     OW  395   1.424   2.076   1.112
  727SOL    HW1  396   1.476   2.011   1.167
  727SOL    HW2  397   1.375   2.139   1.173
  728SOL     OW  398   1.001   1.896   1.154
  728SOL    HW1  399   0.938   1.824   1.123
  728SOL    HW2  400   1.094   1.860   1.154
  733SOL     OW  401   1.593   2.083   0.882
  733SOL    HW1  402   1.509   2.082   0.936
  733SOL    HW2  403   1.595   2.166   0.826
  740SOL     OW  404   1.555   3.373   2.565
  740SOL    HW1  405   1.498   3.357   2.646
  740SOL    HW2  406   1.496   3.383   2.485
  741SOL     OW  407   1.135   2.565   2.579
  741SOL    HW1  408   1.192   2.643   2.554
  741SOL    HW2  409   1.075   2.591   2.655
  742SOL     OW  410   1.755   2.469   2.093
  742SOL    HW1  411   1.743   2.456   1.994
  742SOL    HW2  412   1.725   2.388   2.142
  743SOL     OW  413   0.768   3.006   2.885
  743SOL    HW1  414   0.690   3.023   2.945
  743SOL    HW2  415   0.802   3.093   2.849
  745SOL     OW  416   0.685   2.874   2.527
  745SOL    HW1  417   0.754   2.858   2.597
  745SOL    HW2  418   0.612   2.931   2.565
  748SOL     OW  419   1.460   3.367   3.201
  748SOL    HW1  420   1.484   3.461   3.227
  748SOL    HW2  421   1.444   3.313   3.283
  750SOL     OW  422   1.603   2.309   2.599
  750SOL    HW1  423   1.529   2.355   2.549
  750SOL    HW2  424   1.654   2.377   2.652
  757SOL     OW  425   1.594   1.976   3.342
  757SOL    HW1  426   1.576   2.043   3.270
  757SOL    HW2  427   1.591   2.022   3.431
  759SOL     OW  428   1.842   3.629   2.221
  759SOL    HW1  429   1.896   3.600   2.301
  759SOL    HW2  430   1.872   3.719   2.192
  761SOL     OW  431   1.689   2.784   2.474
  761SOL    HW1  432   1.784   2.755   2.482
  761SOL    HW2  433   1.681   2.849   2.399
  762SOL     OW  434   1.641   2.970   2.294
  762SOL    HW1  435   1.727   2.972   2.242
  762SOL    HW2  436   1.655   3.017   2.382
  765SOL     OW  437   1.293   3.090   3.285
  765SOL    HW1  438   1.330   3.017   3.227
  765SOL    HW2  439   1.345   3.095   3.370
  766SOL     OW  440   0.809   1.866   2.364
  766SOL    HW1  441   0.849   1.957   2.355
  766SOL    HW2  442   0.709   1.874   2.370
  768SOL     OW  443   1.525   2.861   2.052
  768SOL    HW1  444   1.462   2.785   2.065
  768SOL    HW2  445   1.573   2.879   2.138
  771SOL     OW  446   1.466   3.279   2.815
  771SOL    HW1  447   1.407   3.285   2.895
  771SOL    HW2  448   1.451   3.191   2.769
  772SOL     OW  449   1.667   3.576   2.434
  772SOL    HW1  450   1.626   3.553   2.346
  772SOL    HW2  451   1.649   3.502   2.499
  773SOL     OW  452   0.598   2.591   2.132
  773SOL    HW1  453   0.622   2.660   2.064
  773SOL    HW2  454   0.520   2.624   2.186
  774SOL     OW  455   1.281   2.207   2.806
  774SOL    HW1  456   1.195   2.157   2.793
  774SOL    HW2  457   1.343   2.153   2.862
  775SOL     OW  458   1.576   3.524   2.169
  775SOL    HW1  459   1.665   3.570   2.172
  775SOL    HW2  460   1.555   3.500   2.074
  777SOL     OW  461   1.394   2.331   3.536
  777SOL    HW1  462   1.374   2.374   3.624
  777SOL    HW2  463   1.472   2.269   3.545
  779SOL     OW  464   0.991   2.272   3.104
  779SOL    HW1  465   0.914   2.306   3.158
  779SOL    HW2  466   0.957   2.221   3.025
  780SOL     OW  467   1.041   2.563   2.291
  780SOL    HW1  468   1.067   2.559   2.387
  780SOL    HW2  469   0.956   2.512   2.277
  783SOL     OW  470   0.865   2.210   2.057
  783SOL    HW1  471   0.924   2.273   2.008
  783SOL    HW2  472   0.884   2.116   2.028
  784SOL     OW  473   1.719   2.447   3.693
  784SOL    HW1  474   1.693   2.536   3.657
  784SOL    HW2  475   1.717   2.379   3.620
  785SOL     OW  476   1.362   3.006   2.407
  785SOL    HW1  477   1.445   2.977   2.359
  785SOL    HW2  478   1.313   3.073   2.351
  787SOL     OW  479   1.008   3.318   2.339
  787SOL    HW1  480   0.962   3.390   2.287
  787SOL    HW2  481   1.004   3.338   2.437
  789SOL     OW  482   1.795   2.928   2.735
  789SOL    HW1  483   1.733   2.913   2.659
  789SOL    HW2  484   1.743   2.939   2.820
  792SOL     OW  485   1.458   2.597   2.590
  792SOL    HW1  486   1.453   2.532   2.665
  792SOL    HW2  487   1.538   2.656   2.603
  796SOL     OW  488   1.632   3.239   1.943
  796SOL    HW1  489   1.600   3.333   1.933
  796SOL    HW2  490   1.556   3.176   1.931
  798SOL     OW  491   1.400   1.969   2.288
  798SOL    HW1  492   1.376   1.932   2.198
  798SOL    HW2  493   1.499   1.985   2.292
  802SOL     OW  494   1.547   2.084   3.591
  802SOL    HW1  495   1.542   2.121   3.683
  802SOL    HW2  496   1.475   2.015   3.579
  803SOL     OW  497   0.614   1.984   1.979
  803SOL    HW1  498   0.712   1.962   1.986
  803SOL    HW2  499   0.583   1.967   1.886
  806SOL     OW  500   1.351   2.452   3.295
  806SOL    HW1  501   1.379   2.409   3.380
  806SOL    HW2  502   1.376   2.548   3.296
  808SOL     OW  503   0.922   2.365   2.761
  808SOL    HW1  504   0.897   2.356   2.665
  808SOL    HW2  505   0.970   2.283   2.792
  810SOL     OW  506   1.434   3.050   1.903
  810SOL    HW1  507   1.466   2.974   1.960
  810SOL    HW2  508   1.342   3.077   1.933
  812SOL     OW  509   0.935   2.098   2.342
  812SOL    HW1  510   0.887   2.139   2.264
  812SOL    HW2  511   1.034   2.096   2.323
  813SOL     OW  512   1.076   2.545   3.326
  813SOL    HW1  513   0.996   2.484   3.329
  813SOL    HW2  514   1.157   2.492   3.302
  814SOL     OW  515   1.227   3.432   2.655
  814SOL    HW1  516   1.248   3.506   2.590
  814SOL    HW2  517   1.295   3.432   2.728
  816SOL     OW  518   1.271   3.659   2.453
  816SOL    HW1  519   1.315   3.723   2.389
  816SOL    HW2  520   1.221   3.711   2.523
  817SOL     OW  521   1.032   2.411   1.878
  817SOL    HW1  522   0.991   2.493   1.839
  817SOL    HW2  523   1.096   2.437   1.951
  820SOL     OW  524   0.866   2.316   2.504
  820SOL    HW1  525   0.834   2.388   2.442
  820SOL    HW2  526   0.890   2.235   2.451
  821SOL     OW  527   1.017   1.901   2.615
  821SOL    HW1  528   0.945   1.906   2.546
  821SOL    HW2  529   0.993   1.832   2.684
  822SOL     OW  530   1.429   3.035   2.729
  822SOL    HW1  531   1.374   2.951   2.722
  822SOL    HW2  532   1.455   3.064   2.637
  823SOL     OW  533   1.466   2.452   2.854
  823SOL    HW1  534   1.436   2.357   2.861
  823SOL    HW2  535   1.539   2.468   2.920
  824SOL     OW  536   1.857   2.695   2.239
  824SOL    HW1  537   1.899   2.631   2.303
  824SOL    HW2  538   1.819   2.644   2.161
  826SOL     OW  539   1.664   3.142   2.519
  826SOL    HW1  540   1.763   3.150   2.533
  826SOL    HW2  541   1.619   3.226   2.550
  827SOL     OW  542   1.390   2.437   1.940
  827SOL    HW1  543   1.336   2.416   2.021
  827SOL    HW2  544   1.481   2.396   1.949
  828SOL     OW  545   0.527   2.118   2.190
  828SOL    HW1  546   0.554   2.059   2.115
  828SOL    HW2  547   0.527   2.213   2.159
  829SOL     OW  548   1.754   3.085   3.450
  829SOL    HW1  549   1.845   3.046   3.437
  829SOL    HW2  550   1.762   3.181   3.474
  830SOL     OW  551   1.064   3.209   3.202
  830SOL    HW1  552   0.984   3.186   3.257
  830SOL    HW2  553   1.147   3.183   3.251
  832SOL     OW  554   1.111   3.057   2.962
  832SOL    HW1  555   1.071   3.101   3.043
  832SOL    HW2  556   1.070   3.094   2.879
  833SOL     OW  557   1.638   2.961   2.941
  833SOL    HW1  558   1.643   3.042   3.000
  833SOL    HW2  559   1.552   2.963   2.890
  834SOL     OW  560   0.915   1.951   3.264
  834SOL    HW1  561   0.940   1.931   3.169
  834SOL    HW2  562   0.987   2.007   3.306
  836SOL     OW  563   0.705   2.912   2.230
  836SOL    HW1  564   0.691   2.919   2.329
  836SOL    HW2  565   0.789   2.861   2.212
  838SOL     OW  566   1.274   2.248   3.124
  838SOL    HW1  567   1.295   2.322   3.188
  838SOL    HW2  568   1.185   2.265   3.081
  841SOL     OW  569   0.566   2.399   2.727
  841SOL    HW1  570   0.578   2.465   2.653
  841SOL    HW2  571   0.612   2.433   2.810
  842SOL     OW  572   1.252   3.210   2.250
  842SOL    HW1  573   1.302   3.287   2.290
  842SOL    HW2  574   1.157   3.212   2.282
  843SOL     OW  575   1.272   3.307   3.004
  843SOL    HW1  576   1.319   3.320   3.091
  843SOL    HW2  577   1.206   3.233   3.013
  844SOL     OW  578   1.582   2.501   2.334
  844SOL    HW1  579   1.551   2.562   2.407
  844SOL    HW2  580   1.632   2.553   2.265
  847SOL     OW  581   1.587   2.641   3.532
  847SOL    HW1  582   1.495   2.679   3.527
  847SOL    HW2  583   1.647   2.688   3.467
  851SOL     OW  584   1.360   2.724   2.907
  851SOL    HW1  585   1.285   2.724   2.841
  851SOL    HW2  586   1.397   2.632   2.916
  852SOL     OW  587   1.209   2.387   2.137
  852SOL    HW1  588   1.222   2.303   2.191
  852SOL    HW2  589   1.180   2.461   2.197
  855SOL     OW  590   0.732   2.496   2.926
  855SOL    HW1  591   0.791   2.470   2.850
  855SOL    HW2  592   0.704   2.592   2.915
  856SOL     OW  593   1.728   2.797   3.716
  856SOL    HW1  594   1.682   2.790   3.627
  856SOL    HW2  595   1.666   2.841   3.782
  858SOL     OW  596   1.622   2.229   2.236
  858SOL    HW1  597   1.624   2.153   2.300
  858SOL    HW2  598   1.574   2.306   2.276
  859SOL     OW  599   1.023   2.628   2.828
  859SOL    HW1  600   1.038   2.649   2.924
  859SOL    HW2  601   0.993   2.533   2.819
  861SOL     OW  602   1.859   3.380   3.467
  861SOL    HW1  603   1.873   3.407   3.372
  861SOL    HW2  604   1.942   3.402   3.520
  863SOL     OW  605   1.540   2.136   1.987
  863SOL    HW1  606   1.479   2.061   2.010
  863SOL    HW2  607   1.562   2.188   2.070
  864SOL     OW  608   1.303   2.700   1.904
  864SOL    HW1  609   1.337   2.607   1.919
  864SOL    HW2  610   1.321   2.727   1.809
  865SOL     OW  611   1.068   3.195   2.711
  865SOL    HW1  612   1.075   3.111   2.656
  865SOL    HW2  613   1.130   3.264   2.675
  868SOL     OW  614   1.138   2.242   3.540
  868SOL    HW1  615   1.093   2.305   3.604
  868SOL    HW2  616   1.231   2.273   3.523
  869SOL     OW  617   1.160   2.069   3.339
  869SOL    HW1  618   1.160   2.133   3.416
  869SOL    HW2  619   1.188   2.117   3.256
  873SOL     OW  620   1.002   2.658   3.100
  873SOL    HW1  621   1.043   2.626   3.186
  873SOL    HW2  622   0.906   2.631   3.097
  876SOL     OW  623   1.369   2.812   3.522
  876SOL    HW1  624   1.408   2.901   3.542
  876SOL    HW2  625   1.379   2.792   3.425
  877SOL     OW  626   0.815   2.434   2.187
  877SOL    HW1  627   0.822   2.345   2.141
  877SOL    HW2  628   0.721   2.468   2.179
  878SOL     OW  629   1.657   2.466   3.068
  878SOL    HW1  630   1.619   2.397   3.130
  878SOL    HW2  631   1.739   2.430   3.024
  884SOL     OW  632   1.347   2.921   3.096
  884SOL    HW1  633   1.371   2.858   3.022
  884SOL    HW2  634   1.257   2.961   3.078
  885SOL     OW  635   1.302   2.717   2.171
  885SOL    HW1  636   1.216   2.686   2.213
  885SOL    HW2  637   1.298   2.703   2.072
  886SOL     OW  638   1.759   3.609   3.016
  886SOL    HW1  639   1.820   3.639   2.943
  886SOL    HW2  640   1.721   3.520   2.994
  890SOL     OW  641   1.726   1.997   2.385
  890SOL    HW1  642   1.799   1.980   2.318
  890SOL    HW2  643   1.695   1.910   2.423
  891SOL     OW  644   1.388   3.435   2.339
  891SOL    HW1  645   1.455   3.447   2.265
  891SOL    HW2  646   1.348   3.524   2.362
  893SOL     OW  647   1.280   2.789   2.534
  893SOL    HW1  648   1.340   2.708   2.536
  893SOL    HW2  649   1.320   2.858   2.474
  896SOL     OW  650   1.650   3.582   3.256
  896SOL    HW1  651   1.703   3.592   3.172
  896SOL    HW2  652   1.623   3.672   3.290
  897SOL     OW  653   1.841   2.037   2.825
  897SOL    HW1  654   1.880   1.952   2.789
  897SOL    HW2  655   1.743   2.039   2.806
  899SOL     OW  656   1.194   3.474   1.893
  899SOL    HW1  657   1.200   3.381   1.930
  899SOL    HW2  658   1.135   3.474   1.813
  901SOL     OW  659   0.916   2.772   2.153
  901SOL    HW1  660   0.979   2.810   2.085
  901SOL    HW2  661   0.956   2.689   2.192
  902SOL     OW  662   1.504   3.469   1.906
  902SOL    HW1  663   1.412   3.506   1.913
  902SOL    HW2  664   1.542   3.489   1.816
  904SOL     OW  665   1.614   3.154   3.151
  904SOL    HW1  666   1.674   3.157   3.231
  904SOL    HW2  667   1.539   3.218   3.164
  905SOL     OW  668   1.039   2.960   2.558
  905SOL    HW1  669   0.969   2.913   2.612
  905SOL    HW2  670   1.098   2.892   2.515
  906SOL     OW  671   1.014   2.098   2.833
  906SOL    HW1  672   1.006   2.062   2.740
  906SOL    HW2  673   1.012   2.022   2.898
  908SOL     OW  674   1.709   2.247   3.243
  908SOL    HW1  675   1.782   2.316   3.247
  908SOL    HW2  676   1.737   2.172   3.184
  913SOL     OW  677   1.440   2.718   3.260
  913SOL    HW1  678   1.383   2.770   3.197
  913SOL    HW2  679   1.536   2.730   3.236
  915SOL     OW  680   1.183   3.197   1.981
  915SOL    HW1  681   1.084   3.186   1.983
  915SOL    HW2  682   1.217   3.212   2.074
  917SOL     OW  683   1.493   3.629   2.821
  917SOL    HW1  684   1.526   3.693   2.752
  917SOL    HW2  685   1.559   3.623   2.896
  919SOL     OW  686   1.450   3.082   3.495
  919SOL    HW1  687   1.441   3.072   3.594
  919SOL    HW2  688   1.546   3.075   3.469
  921SOL     OW  689   1.674   2.745   3.116
  921SOL    HW1  690   1.647   2.656   3.079
  921SOL    HW2  691   1.675   2.813   3.043
  922SOL     OW  692   1.225   2.187   2.311
  922SOL    HW1  693   1.290   2.113   2.300
  922SOL    HW2  694   1.245   2.237   2.395
  923SOL     OW  695   0.594   2.607   2.514
  923SOL    HW1  696   0.644   2.692   2.495
  923SOL    HW2  697   0.506   2.609   2.466
  924SOL     OW  698   1.777   2.204   3.504
  924SOL    HW1  699   1.760   2.235   3.410
  924SOL    HW2  700   1.693   2.167   3.542
  925SOL     OW  701   1.730   2.796   3.379
  925SOL    HW1  702   1.768   2.887   3.394
  925SOL    HW2  703   1.722   2.779   3.280
  926SOL     OW  704   0.859   3.236   1.878
  926SOL    HW1  705   0.813   3.251   1.966
  926SOL    HW2  706   0.903   3.321   1.848
  928SOL     OW  707   0.859   2.818   2.723
  928SOL    HW1  708   0.913   2.749   2.771
  928SOL    HW2  709   0.827   2.887   2.789
  929SOL     OW  710   1.083   2.846   1.949
  929SOL    HW1  711   1.060   2.899   1.867
  929SOL    HW2  712   1.164   2.790   1.930
  930SOL     OW  713   1.861   3.431   2.713
  930SOL    HW1  714   1.790   3.419   2.643
  930SOL    HW2  715   1.862   3.352   2.773
  934SOL     OW  716   1.824   2.054   3.089
  934SOL    HW1  717   1.820   1.964   3.133
  934SOL    HW2  718   1.827   2.043   2.990
  936SOL     OW  719   1.705   3.349   2.966
  936SOL    HW1  720   1.612   3.324   2.939
  936SOL    HW2  721   1.731   3.299   3.048
  939SOL     OW  722   1.424   2.076   2.974
  939SOL    HW1  723   1.476   2.011   3.029
  939SOL    HW2  724   1.375   2.139   3.035
  940SOL     OW  725   1.001   1.896   3.016
  940SOL    HW1  726   0.938   1.824   2.985
  940SOL    HW2  727   1.094   1.860   3.016
  941SOL     OW  728   0.770   3.192   2.163
  941SOL    HW1  729   0.724   3.105   2.180
  941SOL    HW2  730   0.861   3.189   2.204
  943SOL     OW  731   1.352   1.914   2.030
  943SOL    HW1  732   1.387   1.873   1.946
  943SOL    HW2  733   1.262   1.876   2.050
  944SOL     OW  734   1.300   2.315   2.553
  944SOL    HW1  735   1.241   2.395   2.557
  944SOL    HW2  736   1.315   2.280   2.646
  945SOL     OW  737   1.593   2.083   2.744
  945SOL    HW1  738   1.509   2.082   2.798
  945SOL    HW2  739   1.595   2.166   2.688
  952SOL     OW  740   1.755   2.469   3.955
  952SOL    HW1  741   1.743   2.456   3.856
  952SOL    HW2  742   1.725   2.388   4.004
 1001SOL     OW  743   1.390   2.437   3.802
 1001SOL    HW1  744   1.336   2.416   3.883
 1001SOL    HW2  745   1.481   2.396   3.811
 1011SOL     OW  746   1.540   2.136   3.849
 1011SOL    HW1  747   1.479   2.061   3.872
 1011SOL    HW2  748   1.562   2.188   3.932
 1170SOL     OW  749   1.400   3.831   2.288
 1170SOL    HW1  750   1.376   3.794   2.198
 1170SOL    HW2  751   1.499   3.847   2.292
 1217SOL     OW  752   1.726   3.859   2.385
 1217SOL    HW1  753   1.799   3.842   2.318
 1217SOL    HW2  754   1.695   3.772   2.423
 1219SOL     OW  755   1.841   3.899   2.825
 1219SOL    HW1  756   1.880   3.814   2.789
 1219SOL    HW2  757   1.743   3.901   2.806
 1240SOL     OW  758   1.352   3.776   2.030
 1240SOL    HW1  759   1.387   3.735   1.946
 1240SOL    HW2  760   1.262   3.738   2.050
 1295SOL     OW  761   2.431   1.275   1.165
 1295SOL    HW1  762   2.338   1.268   1.128
 1295SOL    HW2  763   2.442   1.364   1.209
 1299SOL     OW  764   2.630   1.144   1.023
 1299SOL    HW1  765   2.552   1.161   1.083
 1299SOL    HW2  766   2.664   1.231   0.987
 1300SOL     OW  767   2.712   0.798   1.823
 1300SOL    HW1  768   2.708   0.874   1.888
 1300SOL    HW2  769   2.734   0.834   1.732
 1302SOL     OW  770   2.548   1.161   1.803
 1302SOL    HW1  771   2.608   1.240   1.817
 1302SOL    HW2  772   2.462   1.192   1.762
 1303SOL     OW  773   2.197   1.435   1.061
 1303SOL    HW1  774   2.119   1.404   1.008
 1303SOL    HW2  775   2.255   1.493   1.004
 1304SOL     OW  776   3.322   1.505   1.339
 1304SOL    HW1  777   3.346   1.599   1.365
 1304SOL    HW2  778   3.306   1.451   1.421
 1308SOL     OW  779   2.989   1.341   1.690
 1308SOL    HW1  780   3.036   1.341   1.778
 1308SOL    HW2  781   2.941   1.254   1.679
 1311SOL     OW  782   2.482   1.786   1.439
 1311SOL    HW1  783   2.390   1.769   1.474
 1311SOL    HW2  784   2.510   1.878   1.465
 1319SOL     OW  785   1.975   0.737   1.597
 1319SOL    HW1  786   2.063   0.724   1.642
 1319SOL    HW2  787   1.962   0.834   1.575
 1321SOL     OW  788   3.155   1.228   1.423
 1321SOL    HW1  789   3.192   1.155   1.365
 1321SOL    HW2  790   3.207   1.233   1.508
 1323SOL     OW  791   2.059   0.976   1.264
 1323SOL    HW1  792   2.148   0.931   1.250
 1323SOL    HW2  793   1.986   0.911   1.245
 1325SOL     OW  794   3.049   1.792   1.616
 1325SOL    HW1  795   3.073   1.852   1.540
 1325SOL    HW2  796   3.056   1.697   1.586
 1334SOL     OW  797   2.835   0.890   1.572
 1334SOL    HW1  798   2.881   0.806   1.543
 1334SOL    HW2  799   2.779   0.924   1.497
 1338SOL     OW  800   1.992   1.821   1.571
 1338SOL    HW1  801   1.982   1.806   1.670
 1338SOL    HW2  802   1.906   1.857   1.535
 1344SOL     OW  803   2.213   1.801   0.853
 1344SOL    HW1  804   2.263   1.715   0.859
 1344SOL    HW2  805   2.278   1.878   0.850
 1346SOL     OW  806   3.089   1.550   1.506
 1346SOL    HW1  807   3.095   1.473   1.570
 1346SOL    HW2  808   3.037   1.524   1.426
 1349SOL     OW  809   2.323   1.266   1.727
 1349SOL    HW1  810   2.273   1.267   1.641
 1349SOL    HW2  811   2.260   1.248   1.803
 1355SOL     OW  812   2.111   1.785   1.241
 1355SOL    HW1  813   2.168   1.720   1.291
 1355SOL    HW2  814   2.095   1.752   1.148
 1356SOL     OW  815   2.802   1.698   0.904
 1356SOL    HW1  816   2.882   1.641   0.925
 1356SOL    HW2  817   2.753   1.658   0.827
 1361SOL     OW  818   2.750   1.514   1.195
 1361SOL    HW1  819   2.727   1.489   1.101
 1361SOL    HW2  820   2.811   1.445   1.234
 1363SOL     OW  821   2.665   1.402   0.924
 1363SOL    HW1  822   2.755   1.416   0.882
 1363SOL    HW2  823   2.594   1.404   0.853
 1386SOL     OW  824   2.926   1.347   1.340
 1386SOL    HW1  825   2.846   1.324   1.395
 1386SOL    HW2  826   3.009   1.321   1.389
 1387SOL     OW  827   3.454   1.629   1.625
 1387SOL    HW1  828   3.481   1.663   1.535
 1387SOL    HW2  829   3.533   1.591   1.671
 1388SOL     OW  830   2.973   1.195   1.100
 1388SOL    HW1  831   2.933   1.239   1.181
 1388SOL    HW2  832   2.932   1.232   1.017
 1391SOL     OW  833   2.842   1.116   1.719
 1391SOL    HW1  834   2.743   1.122   1.729
 1391SOL    HW2  835   2.865   1.036   1.663
 1395SOL     OW  836   1.926   1.564   1.331
 1395SOL    HW1  837   1.880   1.646   1.297
 1395SOL    HW2  838   2.024   1.583   1.340
 1399SOL     OW  839   3.134   1.445   1.142
 1399SOL    HW1  840   3.181   1.458   1.229
 1399SOL    HW2  841   3.068   1.371   1.151
 1401SOL     OW  842   2.216   1.510   1.329
 1401SOL    HW1  843   2.195   1.466   1.242
 1401SOL    HW2  844   2.313   1.536   1.332
 1402SOL     OW  845   2.264   0.751   1.598
 1402SOL    HW1  846   2.332   0.806   1.551
 1402SOL    HW2  847   2.304   0.663   1.625
 1410SOL     OW  848   1.899   1.310   1.282
 1410SOL    HW1  849   1.952   1.261   1.350
 1410SOL    HW2  850   1.921   1.408   1.287
 1416SOL     OW  851   2.842   1.573   1.700
 1416SOL    HW1  852   2.822   1.617   1.612
 1416SOL    HW2  853   2.881   1.482   1.684
 1417SOL     OW  854   3.721   1.518   1.605
 1417SOL    HW1  855   3.735   1.545   1.510
 1417SOL    HW2  856   3.804   1.540   1.658
 1418SOL     OW  857   2.212   0.898   1.804
 1418SOL    HW1  858   2.288   0.942   1.852
 1418SOL    HW2  859   2.247   0.851   1.722
 1427SOL     OW  860   1.950   1.801   0.927
 1427SOL    HW1  861   1.908   1.715   0.900
 1427SOL    HW2  862   2.044   1.804   0.893
 1428SOL     OW  863   2.366   1.568   0.910
 1428SOL    HW1  864   2.432   1.642   0.919
 1428SOL    HW2  865   2.410   1.489   0.868
 1432SOL     OW  866   3.231   0.950   1.660
 1432SOL    HW1  867   3.270   1.039   1.680
 1432SOL    HW2  868   3.241   0.930   1.563
 1435SOL     OW  869   2.114   1.564   1.744
 1435SOL    HW1  870   2.084   1.621   1.820
 1435SOL    HW2  871   2.107   1.467   1.770
 1437SOL     OW  872   2.792   1.678   1.465
 1437SOL    HW1  873   2.768   1.660   1.370
 1437SOL    HW2  874   2.822   1.772   1.475
 1439SOL     OW  875   2.021   1.137   1.466
 1439SOL    HW1  876   2.043   1.076   1.542
 1439SOL    HW2  877   2.031   1.088   1.380
 1443SOL     OW  878   3.114   1.731   1.128
 1443SOL    HW1  879   3.198   1.736   1.074
 1443SOL    HW2  880   3.091   1.635   1.146
 1444SOL     OW  881   1.945   1.258   1.022
 1444SOL    HW1  882   1.940   1.257   1.122
 1444SOL    HW2  883   1.862   1.217   0.984
 1445SOL     OW  884   2.550   1.662   1.716
 1445SOL    HW1  885   2.494   1.743   1.725
 1445SOL    HW2  886   2.602   1.666   1.630
 1449SOL     OW  887   1.992   1.794   1.851
 1449SOL    HW1  888   1.951   1.720   1.904
 1449SOL    HW2  889   2.056   1.845   1.909
 1451SOL     OW  890   2.692   1.273   1.422
 1451SOL    HW1  891   2.687   1.306   1.517
 1451SOL    HW2  892   2.606   1.292   1.376
 1453SOL     OW  893   3.512   1.720   1.394
 1453SOL    HW1  894   3.565   1.730   1.310
 1453SOL    HW2  895   3.485   1.810   1.428
 1457SOL     OW  896   2.684   1.002   1.372
 1457SOL    HW1  897   2.724   1.001   1.280
 1457SOL    HW2  898   2.694   1.094   1.412
 1460SOL     OW  899   2.234   1.288   1.490
 1460SOL    HW1  900   2.221   1.381   1.456
 1460SOL    HW2  901   2.150   1.236   1.477
 1467SOL     OW  902   1.967   1.013   1.726
 1467SOL    HW1  903   1.890   0.980   1.780
 1467SOL    HW2  904   2.052   0.983   1.768
 1473SOL     OW  905   2.475   0.842   1.431
 1473SOL    HW1  906   2.531   0.923   1.414
 1473SOL    HW2  907   2.534   0.762   1.434
 1474SOL     OW  908   3.355   1.767   0.959
 1474SOL    HW1  909   3.388   1.831   0.890
 1474SOL    HW2  910   3.421   1.761   1.034
 1476SOL     OW  911   3.312   1.220   1.633
 1476SOL    HW1  912   3.303   1.210   1.732
 1476SOL    HW2  913   3.408   1.213   1.607
 1477SOL     OW  914   2.252   1.741   1.560
 1477SOL    HW1  915   2.161   1.782   1.558
 1477SOL    HW2  916   2.245   1.647   1.592
 1484SOL     OW  917   2.523   1.790   0.953
 1484SOL    HW1  918   2.477   1.878   0.940
 1484SOL    HW2  919   2.622   1.802   0.946
 1488SOL     OW  920   2.083   1.314   1.844
 1488SOL    HW1  921   2.018   1.241   1.823
 1488SOL    HW2  922   2.087   1.328   1.942
 1490SOL     OW  923   2.534   1.391   1.624
 1490SOL    HW1  924   2.456   1.341   1.662
 1490SOL    HW2  925   2.531   1.486   1.655
 1499SOL     OW  926   2.480   1.567   1.284
 1499SOL    HW1  927   2.475   1.649   1.341
 1499SOL    HW2  928   2.569   1.564   1.239
 1505SOL     OW  929   2.092   0.628   1.975
 1505SOL    HW1  930   1.999   0.626   2.012
 1505SOL    HW2  931   2.093   0.589   1.883
 1508SOL     OW  932   2.431   1.275   3.027
 1508SOL    HW1  933   2.338   1.268   2.990
 1508SOL    HW2  934   2.442   1.364   3.071
 1509SOL     OW  935   3.417   1.511   2.565
 1509SOL    HW1  936   3.360   1.495   2.646
 1509SOL    HW2  937   3.358   1.521   2.485
 1510SOL     OW  938   2.997   0.703   2.579
 1510SOL    HW1  939   3.054   0.781   2.554
 1510SOL    HW2  940   2.937   0.729   2.655
 1512SOL     OW  941   2.630   1.144   2.885
 1512SOL    HW1  942   2.552   1.161   2.945
 1512SOL    HW2  943   2.664   1.231   2.849
 1514SOL     OW  944   2.547   1.012   2.527
 1514SOL    HW1  945   2.616   0.996   2.597
 1514SOL    HW2  946   2.474   1.069   2.565
 1515SOL     OW  947   2.548   1.161   3.665
 1515SOL    HW1  948   2.608   1.240   3.679
 1515SOL    HW2  949   2.462   1.192   3.624
 1516SOL     OW  950   2.197   1.435   2.923
 1516SOL    HW1  951   2.119   1.404   2.870
 1516SOL    HW2  952   2.255   1.493   2.866
 1517SOL     OW  953   3.322   1.505   3.201
 1517SOL    HW1  954   3.346   1.599   3.227
 1517SOL    HW2  955   3.306   1.451   3.283
 1520SOL     OW  956   2.093   1.713   2.345
 1520SOL    HW1  957   2.127   1.790   2.399
 1520SOL    HW2  958   2.137   1.713   2.255
 1521SOL     OW  959   2.989   1.341   3.552
 1521SOL    HW1  960   3.036   1.341   3.640
 1521SOL    HW2  961   2.941   1.254   3.541
 1522SOL     OW  962   2.092   1.434   2.400
 1522SOL    HW1  963   2.066   1.530   2.400
 1522SOL    HW2  964   2.021   1.380   2.445
 1523SOL     OW  965   2.102   1.091   2.748
 1523SOL    HW1  966   2.116   1.007   2.800
 1523SOL    HW2  967   2.047   1.155   2.803
 1524SOL     OW  968   2.482   1.786   3.301
 1524SOL    HW1  969   2.390   1.769   3.336
 1524SOL    HW2  970   2.510   1.878   3.327
 1525SOL     OW  971   2.468   0.964   1.985
 1525SOL    HW1  972   2.475   1.048   1.931
 1525SOL    HW2  973   2.514   0.977   2.073
 1527SOL     OW  974   1.984   0.643   2.425
 1527SOL    HW1  975   1.939   0.555   2.442
 1527SOL    HW2  976   1.983   0.697   2.509
 1528SOL     OW  977   3.704   1.767   2.221
 1528SOL    HW1  978   3.758   1.738   2.301
 1528SOL    HW2  979   3.734   1.857   2.192
 1529SOL     OW  980   1.889   1.596   1.979
 1529SOL    HW1  981   1.870   1.500   2.000
 1529SOL    HW2  982   1.856   1.654   2.054
 1531SOL     OW  983   3.503   1.108   2.294
 1531SOL    HW1  984   3.589   1.110   2.242
 1531SOL    HW2  985   3.517   1.155   2.382
 1533SOL     OW  986   2.475   1.365   2.588
 1533SOL    HW1  987   2.426   1.278   2.597
 1533SOL    HW2  988   2.452   1.408   2.501
 1534SOL     OW  989   3.155   1.228   3.285
 1534SOL    HW1  990   3.192   1.155   3.227
 1534SOL    HW2  991   3.207   1.233   3.370
 1536SOL     OW  992   2.059   0.976   3.126
 1536SOL    HW1  993   2.148   0.931   3.112
 1536SOL    HW2  994   1.986   0.911   3.107
 1537SOL     OW  995   3.387   0.999   2.052
 1537SOL    HW1  996   3.324   0.923   2.065
 1537SOL    HW2  997   3.435   1.017   2.138
 1538SOL     OW  998   3.049   1.792   3.478
 1538SOL    HW1  999   3.073   1.852   3.402
 1538SOL    HW2 1000   3.056   1.697   3.448
 1540SOL     OW 1001   3.328   1.417   2.815
 1540SOL    HW1 1002   3.269   1.423   2.895
 1540SOL    HW2 1003   3.313   1.329   2.769
 1541SOL     OW 1004   3.529   1.714   2.434
 1541SOL    HW1 1005   3.488   1.691   2.346
 1541SOL    HW2 1006   3.511   1.640   2.499
 1542SOL     OW 1007   2.460   0.729   2.132
 1542SOL    HW1 1008   2.484   0.798   2.064
 1542SOL    HW2 1009   2.382   0.762   2.186
 1544SOL     OW 1010   3.438   1.662   2.169
 1544SOL    HW1 1011   3.527   1.708   2.172
 1544SOL    HW2 1012   3.417   1.638   2.074
 1549SOL     OW 1013   2.903   0.701   2.291
 1549SOL    HW1 1014   2.929   0.697   2.387
 1549SOL    HW2 1015   2.818   0.650   2.277
 1550SOL     OW 1016   1.938   0.811   2.651
 1550SOL    HW1 1017   2.037   0.799   2.660
 1550SOL    HW2 1018   1.914   0.906   2.672
 1551SOL     OW 1019   1.992   1.821   3.433
 1551SOL    HW1 1020   1.982   1.806   3.532
 1551SOL    HW2 1021   1.906   1.857   3.397
 1554SOL     OW 1022   3.224   1.144   2.407
 1554SOL    HW1 1023   3.307   1.115   2.359
 1554SOL    HW2 1024   3.175   1.211   2.351
 1556SOL     OW 1025   2.870   1.456   2.339
 1556SOL    HW1 1026   2.824   1.528   2.287
 1556SOL    HW2 1027   2.866   1.476   2.437
 1557SOL     OW 1028   2.213   1.801   2.715
 1557SOL    HW1 1029   2.263   1.715   2.721
 1557SOL    HW2 1030   2.278   1.878   2.712
 1559SOL     OW 1031   3.089   1.550   3.368
 1559SOL    HW1 1032   3.095   1.473   3.432
 1559SOL    HW2 1033   3.037   1.524   3.288
 1560SOL     OW 1034   2.183   0.943   2.104
 1560SOL    HW1 1035   2.265   0.982   2.062
 1560SOL    HW2 1036   2.156   0.861   2.055
 1562SOL     OW 1037   2.323   1.266   3.589
 1562SOL    HW1 1038   2.273   1.267   3.503
 1562SOL    HW2 1039   2.260   1.248   3.665
 1563SOL     OW 1040   2.973   1.776   2.099
 1563SOL    HW1 1041   2.913   1.714   2.149
 1563SOL    HW2 1042   3.004   1.732   2.014
 1565SOL     OW 1043   3.494   1.377   1.943
 1565SOL    HW1 1044   3.462   1.471   1.933
 1565SOL    HW2 1045   3.418   1.314   1.931
 1566SOL     OW 1046   2.326   1.743   2.185
 1566SOL    HW1 1047   2.359   1.782   2.271
 1566SOL    HW2 1048   2.402   1.736   2.120
 1568SOL     OW 1049   2.111   1.785   3.103
 1568SOL    HW1 1050   2.168   1.720   3.153
 1568SOL    HW2 1051   2.095   1.752   3.010
 1569SOL     OW 1052   2.802   1.698   2.766
 1569SOL    HW1 1053   2.882   1.641   2.787
 1569SOL    HW2 1054   2.753   1.658   2.689
 1570SOL     OW 1055   2.244   0.700   2.342
 1570SOL    HW1 1056   2.289   0.610   2.339
 1570SOL    HW2 1057   2.150   0.689   2.375
 1574SOL     OW 1058   2.750   1.514   3.057
 1574SOL    HW1 1059   2.727   1.489   2.963
 1574SOL    HW2 1060   2.811   1.445   3.096
 1576SOL     OW 1061   2.665   1.402   2.786
 1576SOL    HW1 1062   2.755   1.416   2.744
 1576SOL    HW2 1063   2.594   1.404   2.715
 1579SOL     OW 1064   3.296   1.188   1.903
 1579SOL    HW1 1065   3.328   1.112   1.960
 1579SOL    HW2 1066   3.204   1.215   1.933
 1583SOL     OW 1067   3.089   1.570   2.655
 1583SOL    HW1 1068   3.110   1.644   2.590
 1583SOL    HW2 1069   3.157   1.570   2.728
 1584SOL     OW 1070   2.321   1.152   2.603
 1584SOL    HW1 1071   2.250   1.125   2.668
 1584SOL    HW2 1072   2.295   1.124   2.510
 1585SOL     OW 1073   3.133   1.797   2.453
 1585SOL    HW1 1074   3.177   1.861   2.389
 1585SOL    HW2 1075   3.083   1.849   2.523
 1591SOL     OW 1076   3.291   1.173   2.729
 1591SOL    HW1 1077   3.236   1.089   2.722
 1591SOL    HW2 1078   3.317   1.202   2.637
 1594SOL     OW 1079   2.350   1.385   2.036
 1594SOL    HW1 1080   2.263   1.370   2.083
 1594SOL    HW2 1081   2.333   1.411   1.941
 1595SOL     OW 1082   3.526   1.280   2.519
 1595SOL    HW1 1083   3.625   1.288   2.533
 1595SOL    HW2 1084   3.481   1.364   2.550
 1599SOL     OW 1085   2.926   1.347   3.202
 1599SOL    HW1 1086   2.846   1.324   3.257
 1599SOL    HW2 1087   3.009   1.321   3.251
 1600SOL     OW 1088   3.454   1.629   3.487
 1600SOL    HW1 1089   3.481   1.663   3.397
 1600SOL    HW2 1090   3.533   1.591   3.533
 1601SOL     OW 1091   2.973   1.195   2.962
 1601SOL    HW1 1092   2.933   1.239   3.043
 1601SOL    HW2 1093   2.932   1.232   2.879
 1605SOL     OW 1094   2.567   1.050   2.230
 1605SOL    HW1 1095   2.553   1.057   2.329
 1605SOL    HW2 1096   2.651   0.999   2.212
 1606SOL     OW 1097   2.272   0.813   3.113
 1606SOL    HW1 1098   2.358   0.825   3.163
 1606SOL    HW2 1099   2.230   0.726   3.140
 1608SOL     OW 1100   1.926   1.564   3.193
 1608SOL    HW1 1101   1.880   1.646   3.159
 1608SOL    HW2 1102   2.024   1.583   3.202
 1609SOL     OW 1103   2.229   1.100   2.363
 1609SOL    HW1 1104   2.222   1.183   2.307
 1609SOL    HW2 1105   2.233   1.020   2.303
 1611SOL     OW 1106   3.114   1.348   2.250
 1611SOL    HW1 1107   3.164   1.425   2.290
 1611SOL    HW2 1108   3.019   1.350   2.282
 1612SOL     OW 1109   3.134   1.445   3.004
 1612SOL    HW1 1110   3.181   1.458   3.091
 1612SOL    HW2 1111   3.068   1.371   3.013
 1614SOL     OW 1112   2.216   1.510   3.191
 1614SOL    HW1 1113   2.195   1.466   3.104
 1614SOL    HW2 1114   2.313   1.536   3.194
 1619SOL     OW 1115   2.435   0.870   2.891
 1619SOL    HW1 1116   2.479   0.959   2.882
 1619SOL    HW2 1117   2.372   0.870   2.968
 1623SOL     OW 1118   1.899   1.310   3.144
 1623SOL    HW1 1119   1.952   1.261   3.212
 1623SOL    HW2 1120   1.921   1.408   3.149
 1628SOL     OW 1121   2.885   0.766   2.828
 1628SOL    HW1 1122   2.900   0.787   2.924
 1628SOL    HW2 1123   2.855   0.671   2.819
 1629SOL     OW 1124   2.842   1.573   3.562
 1629SOL    HW1 1125   2.822   1.617   3.474
 1629SOL    HW2 1126   2.881   1.482   3.546
 1633SOL     OW 1127   3.165   0.838   1.904
 1633SOL    HW1 1128   3.199   0.745   1.919
 1633SOL    HW2 1129   3.183   0.865   1.809
 1634SOL     OW 1130   2.930   1.333   2.711
 1634SOL    HW1 1131   2.937   1.249   2.656
 1634SOL    HW2 1132   2.992   1.402   2.675
 1635SOL     OW 1133   2.181   0.810   2.811
 1635SOL    HW1 1134   2.274   0.846   2.816
 1635SOL    HW2 1135   2.175   0.725   2.863
 1639SOL     OW 1136   1.870   1.326   2.062
 1639SOL    HW1 1137   1.777   1.347   2.031
 1639SOL    HW2 1138   1.880   1.227   2.075
 1640SOL     OW 1139   1.950   1.801   2.789
 1640SOL    HW1 1140   1.908   1.715   2.762
 1640SOL    HW2 1141   2.044   1.804   2.755
 1641SOL     OW 1142   2.366   1.568   2.772
 1641SOL    HW1 1143   2.432   1.642   2.781
 1641SOL    HW2 1144   2.410   1.489   2.730
 1642SOL     OW 1145   2.864   0.796   3.100
 1642SOL    HW1 1146   2.905   0.764   3.186
 1642SOL    HW2 1147   2.768   0.769   3.097
 1646SOL     OW 1148   2.677   0.572   2.187
 1646SOL    HW1 1149   2.684   0.483   2.141
 1646SOL    HW2 1150   2.583   0.606   2.179
 1648SOL     OW 1151   2.114   1.564   3.606
 1648SOL    HW1 1152   2.084   1.621   3.682
 1648SOL    HW2 1153   2.107   1.467   3.632
 1650SOL     OW 1154   2.792   1.678   3.327
 1650SOL    HW1 1155   2.768   1.660   3.232
 1650SOL    HW2 1156   2.822   1.772   3.337
 1652SOL     OW 1157   2.021   1.137   3.328
 1652SOL    HW1 1158   2.043   1.076   3.404
 1652SOL    HW2 1159   2.031   1.088   3.242
 1653SOL     OW 1160   3.209   1.059   3.096
 1653SOL    HW1 1161   3.233   0.996   3.022
 1653SOL    HW2 1162   3.119   1.099   3.078
 1654SOL     OW 1163   3.164   0.855   2.171
 1654SOL    HW1 1164   3.078   0.824   2.213
 1654SOL    HW2 1165   3.160   0.841   2.072
 1655SOL     OW 1166   3.621   1.747   3.016
 1655SOL    HW1 1167   3.682   1.777   2.943
 1655SOL    HW2 1168   3.583   1.658   2.994
 1656SOL     OW 1169   3.114   1.731   2.990
 1656SOL    HW1 1170   3.198   1.736   2.936
 1656SOL    HW2 1171   3.091   1.635   3.008
 1657SOL     OW 1172   1.945   1.258   2.884
 1657SOL    HW1 1173   1.940   1.257   2.984
 1657SOL    HW2 1174   1.862   1.217   2.846
 1658SOL     OW 1175   2.550   1.662   3.578
 1658SOL    HW1 1176   2.494   1.743   3.587
 1658SOL    HW2 1177   2.602   1.666   3.492
 1660SOL     OW 1178   3.250   1.573   2.339
 1660SOL    HW1 1179   3.317   1.585   2.265
 1660SOL    HW2 1180   3.210   1.662   2.362
 1661SOL     OW 1181   1.992   1.794   3.713
 1661SOL    HW1 1182   1.951   1.720   3.766
 1661SOL    HW2 1183   2.056   1.845   3.771
 1662SOL     OW 1184   3.142   0.927   2.534
 1662SOL    HW1 1185   3.202   0.846   2.536
 1662SOL    HW2 1186   3.182   0.996   2.474
 1663SOL     OW 1187   2.692   1.273   3.284
 1663SOL    HW1 1188   2.687   1.306   3.379
 1663SOL    HW2 1189   2.606   1.292   3.238
 1664SOL     OW 1190   2.534   1.616   2.016
 1664SOL    HW1 1191   2.543   1.626   1.917
 1664SOL    HW2 1192   2.494   1.527   2.037
 1665SOL     OW 1193   3.512   1.720   3.256
 1665SOL    HW1 1194   3.565   1.730   3.172
 1665SOL    HW2 1195   3.485   1.810   3.290
 1668SOL     OW 1196   3.056   1.612   1.893
 1668SOL    HW1 1197   3.062   1.519   1.930
 1668SOL    HW2 1198   2.997   1.612   1.813
 1669SOL     OW 1199   2.684   1.002   3.234
 1669SOL    HW1 1200   2.724   1.001   3.142
 1669SOL    HW2 1201   2.694   1.094   3.274
 1670SOL     OW 1202   2.778   0.910   2.153
 1670SOL    HW1 1203   2.841   0.948   2.085
 1670SOL    HW2 1204   2.818   0.827   2.192
 1671SOL     OW 1205   3.366   1.607   1.906
 1671SOL    HW1 1206   3.274   1.644   1.913
 1671SOL    HW2 1207   3.404   1.627   1.816
 1672SOL     OW 1208   2.234   1.288   3.352
 1672SOL    HW1 1209   2.221   1.381   3.318
 1672SOL    HW2 1210   2.150   1.236   3.339
 1673SOL     OW 1211   3.476   1.292   3.151
 1673SOL    HW1 1212   3.536   1.295   3.231
 1673SOL    HW2 1213   3.401   1.356   3.164
 1674SOL     OW 1214   2.901   1.098   2.558
 1674SOL    HW1 1215   2.831   1.051   2.612
 1674SOL    HW2 1216   2.960   1.030   2.515
 1676SOL     OW 1217   2.452   1.487   2.353
 1676SOL    HW1 1218   2.494   1.429   2.283
 1676SOL    HW2 1219   2.408   1.566   2.309
 1678SOL     OW 1220   2.117   1.348   2.152
 1678SOL    HW1 1221   2.021   1.349   2.125
 1678SOL    HW2 1222   2.129   1.401   2.236
 1684SOL     OW 1223   3.045   1.335   1.981
 1684SOL    HW1 1224   2.946   1.324   1.983
 1684SOL    HW2 1225   3.079   1.350   2.074
 1685SOL     OW 1226   2.475   0.842   3.293
 1685SOL    HW1 1227   2.531   0.923   3.276
 1685SOL    HW2 1228   2.534   0.762   3.296
 1686SOL     OW 1229   3.355   1.767   2.821
 1686SOL    HW1 1230   3.388   1.831   2.752
 1686SOL    HW2 1231   3.421   1.761   2.896
 1689SOL     OW 1232   2.252   1.741   3.422
 1689SOL    HW1 1233   2.161   1.782   3.420
 1689SOL    HW2 1234   2.245   1.647   3.454
 1692SOL     OW 1235   2.456   0.745   2.514
 1692SOL    HW1 1236   2.506   0.830   2.495
 1692SOL    HW2 1237   2.368   0.747   2.466
 1695SOL     OW 1238   2.721   1.374   1.878
 1695SOL    HW1 1239   2.675   1.389   1.966
 1695SOL    HW2 1240   2.765   1.459   1.848
 1696SOL     OW 1241   2.523   1.790   2.815
 1696SOL    HW1 1242   2.477   1.878   2.802
 1696SOL    HW2 1243   2.622   1.802   2.808
 1697SOL     OW 1244   2.721   0.956   2.723
 1697SOL    HW1 1245   2.775   0.887   2.771
 1697SOL    HW2 1246   2.689   1.025   2.789
 1698SOL     OW 1247   2.945   0.984   1.949
 1698SOL    HW1 1248   2.922   1.037   1.867
 1698SOL    HW2 1249   3.026   0.928   1.930
 1699SOL     OW 1250   3.723   1.569   2.713
 1699SOL    HW1 1251   3.652   1.557   2.643
 1699SOL    HW2 1252   3.724   1.490   2.773
 1700SOL     OW 1253   2.083   1.314   3.706
 1700SOL    HW1 1254   2.018   1.241   3.685
 1700SOL    HW2 1255   2.087   1.328   3.804
 1701SOL     OW 1256   1.941   1.240   2.515
 1701SOL    HW1 1257   1.940   1.193   2.603
 1701SOL    HW2 1258   2.023   1.212   2.464
 1702SOL     OW 1259   2.534   1.391   3.486
 1702SOL    HW1 1260   2.456   1.341   3.524
 1702SOL    HW2 1261   2.531   1.486   3.517
 1705SOL     OW 1262   3.567   1.487   2.966
 1705SOL    HW1 1263   3.474   1.462   2.939
 1705SOL    HW2 1264   3.593   1.437   3.048
 1707SOL     OW 1265   2.674   1.586   2.549
 1707SOL    HW1 1266   2.706   1.596   2.455
 1707SOL    HW2 1267   2.595   1.524   2.551
 1710SOL     OW 1268   2.632   1.330   2.163
 1710SOL    HW1 1269   2.586   1.243   2.180
 1710SOL    HW2 1270   2.723   1.327   2.204
 1711SOL     OW 1271   2.480   1.567   3.146
 1711SOL    HW1 1272   2.475   1.649   3.203
 1711SOL    HW2 1273   2.569   1.564   3.101
 1715SOL     OW 1274   1.901   1.077   2.162
 1715SOL    HW1 1275   2.000   1.066   2.153
 1715SOL    HW2 1276   1.861   0.991   2.194
 1716SOL     OW 1277   2.737   1.646   2.199
 1716SOL    HW1 1278   2.660   1.611   2.145
 1716SOL    HW2 1279   2.705   1.717   2.261
 1731SOL     OW 1280   1.889   1.596   3.841
 1731SOL    HW1 1281   1.870   1.500   3.862
 1731SOL    HW2 1282   1.856   1.654   3.916
 1788SOL     OW 1283   2.534   1.616   3.878
 1788SOL    HW1 1284   2.543   1.626   3.779
 1788SOL    HW2 1285   2.494   1.527   3.899
 1791SOL     OW 1286   3.056   1.612   3.755
 1791SOL    HW1 1287   3.062   1.519   3.792
 1791SOL    HW2 1288   2.997   1.612   3.675
 1802SOL     OW 1289   2.721   1.374   3.740
 1802SOL    HW1 1290   2.675   1.389   3.828
 1802SOL    HW2 1291   2.765   1.459   3.710
 1815SOL     OW 1292   2.087   2.137   0.996
 1815SOL    HW1 1293   2.122   2.120   1.088
 1815SOL    HW2 1294   1.999   2.092   0.984
 1816SOL     OW 1295   1.881   2.230   0.647
 1816SOL    HW1 1296   1.799   2.273   0.686
 1816SOL    HW2 1297   1.853   2.157   0.584
 1817SOL     OW 1298   2.431   3.137   1.165
 1817SOL    HW1 1299   2.338   3.130   1.128
 1817SOL    HW2 1300   2.442   3.226   1.209
 1819SOL     OW 1301   2.997   2.565   0.717
 1819SOL    HW1 1302   3.054   2.643   0.692
 1819SOL    HW2 1303   2.937   2.591   0.793
 1821SOL     OW 1304   2.630   3.006   1.023
 1821SOL    HW1 1305   2.552   3.023   1.083
 1821SOL    HW2 1306   2.664   3.093   0.987
 1822SOL     OW 1307   2.712   2.660   1.823
 1822SOL    HW1 1308   2.708   2.736   1.888
 1822SOL    HW2 1309   2.734   2.696   1.732
 1823SOL     OW 1310   2.547   2.874   0.665
 1823SOL    HW1 1311   2.616   2.858   0.735
 1823SOL    HW2 1312   2.474   2.931   0.703
 1824SOL     OW 1313   2.548   3.023   1.803
 1824SOL    HW1 1314   2.608   3.102   1.817
 1824SOL    HW2 1315   2.462   3.054   1.762
 1825SOL     OW 1316   2.197   3.297   1.061
 1825SOL    HW1 1317   2.119   3.266   1.008
 1825SOL    HW2 1318   2.255   3.355   1.004
 1826SOL     OW 1319   3.322   3.367   1.339
 1826SOL    HW1 1320   3.346   3.461   1.365
 1826SOL    HW2 1321   3.306   3.313   1.421
 1827SOL     OW 1322   2.300   2.254   1.499
 1827SOL    HW1 1323   2.382   2.198   1.508
 1827SOL    HW2 1324   2.219   2.196   1.503
 1830SOL     OW 1325   2.989   3.203   1.690
 1830SOL    HW1 1326   3.036   3.203   1.778
 1830SOL    HW2 1327   2.941   3.116   1.679
 1832SOL     OW 1328   2.102   2.953   0.886
 1832SOL    HW1 1329   2.116   2.869   0.938
 1832SOL    HW2 1330   2.047   3.017   0.941
 1833SOL     OW 1331   2.482   3.648   1.439
 1833SOL    HW1 1332   2.390   3.631   1.474
 1833SOL    HW2 1333   2.510   3.740   1.465
 1835SOL     OW 1334   3.456   1.976   1.480
 1835SOL    HW1 1335   3.438   2.043   1.408
 1835SOL    HW2 1336   3.453   2.022   1.569
 1836SOL     OW 1337   1.984   2.505   0.563
 1836SOL    HW1 1338   1.939   2.417   0.580
 1836SOL    HW2 1339   1.983   2.559   0.647
 1841SOL     OW 1340   1.975   2.599   1.597
 1841SOL    HW1 1341   2.063   2.586   1.642
 1841SOL    HW2 1342   1.962   2.696   1.575
 1843SOL     OW 1343   3.155   3.090   1.423
 1843SOL    HW1 1344   3.192   3.017   1.365
 1843SOL    HW2 1345   3.207   3.095   1.508
 1845SOL     OW 1346   2.059   2.838   1.264
 1845SOL    HW1 1347   2.148   2.793   1.250
 1845SOL    HW2 1348   1.986   2.773   1.245
 1847SOL     OW 1349   3.049   3.654   1.616
 1847SOL    HW1 1350   3.073   3.714   1.540
 1847SOL    HW2 1351   3.056   3.559   1.586
 1848SOL     OW 1352   2.179   2.113   1.801
 1848SOL    HW1 1353   2.250   2.184   1.807
 1848SOL    HW2 1354   2.091   2.152   1.829
 1852SOL     OW 1355   3.143   2.207   0.944
 1852SOL    HW1 1356   3.057   2.157   0.931
 1852SOL    HW2 1357   3.205   2.153   1.000
 1854SOL     OW 1358   2.669   2.467   1.465
 1854SOL    HW1 1359   2.622   2.464   1.554
 1854SOL    HW2 1360   2.618   2.412   1.399
 1855SOL     OW 1361   3.256   2.331   1.674
 1855SOL    HW1 1362   3.236   2.374   1.762
 1855SOL    HW2 1363   3.334   2.269   1.683
 1856SOL     OW 1364   2.835   2.752   1.572
 1856SOL    HW1 1365   2.881   2.668   1.543
 1856SOL    HW2 1366   2.779   2.786   1.497
 1857SOL     OW 1367   2.853   2.272   1.242
 1857SOL    HW1 1368   2.776   2.306   1.296
 1857SOL    HW2 1369   2.819   2.221   1.163
 1859SOL     OW 1370   1.938   2.673   0.789
 1859SOL    HW1 1371   2.037   2.661   0.798
 1859SOL    HW2 1372   1.914   2.768   0.810
 1860SOL     OW 1373   1.992   3.683   1.571
 1860SOL    HW1 1374   1.982   3.668   1.670
 1860SOL    HW2 1375   1.906   3.719   1.535
 1862SOL     OW 1376   3.581   2.447   1.831
 1862SOL    HW1 1377   3.555   2.536   1.795
 1862SOL    HW2 1378   3.579   2.379   1.758
 1864SOL     OW 1379   2.412   2.058   0.885
 1864SOL    HW1 1380   2.407   2.053   0.985
 1864SOL    HW2 1381   2.414   2.154   0.856
 1868SOL     OW 1382   3.089   3.412   1.506
 1868SOL    HW1 1383   3.095   3.335   1.570
 1868SOL    HW2 1384   3.037   3.386   1.426
 1871SOL     OW 1385   2.323   3.128   1.727
 1871SOL    HW1 1386   2.273   3.129   1.641
 1871SOL    HW2 1387   2.260   3.110   1.803
 1873SOL     OW 1388   2.064   2.147   1.498
 1873SOL    HW1 1389   1.984   2.207   1.485
 1873SOL    HW2 1390   2.054   2.098   1.584
 1877SOL     OW 1391   2.111   3.647   1.241
 1877SOL    HW1 1392   2.168   3.582   1.291
 1877SOL    HW2 1393   2.095   3.614   1.148
 1880SOL     OW 1394   3.409   2.084   1.729
 1880SOL    HW1 1395   3.404   2.121   1.821
 1880SOL    HW2 1396   3.337   2.015   1.717
 1881SOL     OW 1397   2.643   2.126   1.749
 1881SOL    HW1 1398   2.710   2.065   1.792
 1881SOL    HW2 1399   2.570   2.145   1.814
 1882SOL     OW 1400   2.750   3.376   1.195
 1882SOL    HW1 1401   2.727   3.351   1.101
 1882SOL    HW2 1402   2.811   3.307   1.234
 1883SOL     OW 1403   3.213   2.452   1.433
 1883SOL    HW1 1404   3.241   2.409   1.518
 1883SOL    HW2 1405   3.238   2.548   1.434
 1884SOL     OW 1406   2.665   3.264   0.924
 1884SOL    HW1 1407   2.755   3.278   0.882
 1884SOL    HW2 1408   2.594   3.266   0.853
 1885SOL     OW 1409   2.784   2.365   0.899
 1885SOL    HW1 1410   2.759   2.356   0.803
 1885SOL    HW2 1411   2.832   2.283   0.930
 1890SOL     OW 1412   2.938   2.545   1.464
 1890SOL    HW1 1413   2.858   2.484   1.467
 1890SOL    HW2 1414   3.019   2.492   1.440
 1892SOL     OW 1415   2.321   3.014   0.741
 1892SOL    HW1 1416   2.250   2.987   0.806
 1892SOL    HW2 1417   2.295   2.986   0.648
 1895SOL     OW 1418   1.940   2.418   1.386
 1895SOL    HW1 1419   2.032   2.417   1.345
 1895SOL    HW2 1420   1.934   2.492   1.453
 1896SOL     OW 1421   2.423   2.084   1.147
 1896SOL    HW1 1422   2.461   2.000   1.184
 1896SOL    HW2 1423   2.335   2.103   1.191
 1897SOL     OW 1424   2.728   2.316   0.642
 1897SOL    HW1 1425   2.696   2.388   0.580
 1897SOL    HW2 1426   2.752   2.235   0.589
 1898SOL     OW 1427   2.879   1.901   0.753
 1898SOL    HW1 1428   2.807   1.906   0.684
 1898SOL    HW2 1429   2.855   1.832   0.822
 1900SOL     OW 1430   3.328   2.452   0.992
 1900SOL    HW1 1431   3.298   2.357   0.999
 1900SOL    HW2 1432   3.401   2.468   1.058
 1906SOL     OW 1433   3.616   3.085   1.588
 1906SOL    HW1 1434   3.707   3.046   1.575
 1906SOL    HW2 1435   3.624   3.181   1.612
 1907SOL     OW 1436   2.926   3.209   1.340
 1907SOL    HW1 1437   2.846   3.186   1.395
 1907SOL    HW2 1438   3.009   3.183   1.389
 1908SOL     OW 1439   3.454   3.491   1.625
 1908SOL    HW1 1440   3.481   3.525   1.535
 1908SOL    HW2 1441   3.533   3.453   1.671
 1909SOL     OW 1442   2.973   3.057   1.100
 1909SOL    HW1 1443   2.933   3.101   1.181
 1909SOL    HW2 1444   2.932   3.094   1.017
 1911SOL     OW 1445   2.777   1.951   1.402
 1911SOL    HW1 1446   2.802   1.931   1.307
 1911SOL    HW2 1447   2.849   2.007   1.444
 1912SOL     OW 1448   2.842   2.978   1.719
 1912SOL    HW1 1449   2.743   2.984   1.729
 1912SOL    HW2 1450   2.865   2.898   1.663
 1914SOL     OW 1451   2.272   2.675   1.251
 1914SOL    HW1 1452   2.358   2.687   1.301
 1914SOL    HW2 1453   2.230   2.588   1.278
 1915SOL     OW 1454   3.136   2.248   1.262
 1915SOL    HW1 1455   3.157   2.322   1.326
 1915SOL    HW2 1456   3.047   2.265   1.219
 1916SOL     OW 1457   1.926   3.426   1.331
 1916SOL    HW1 1458   1.880   3.508   1.297
 1916SOL    HW2 1459   2.024   3.445   1.340
 1918SOL     OW 1460   2.428   2.399   0.865
 1918SOL    HW1 1461   2.440   2.465   0.791
 1918SOL    HW2 1462   2.474   2.433   0.948
 1920SOL     OW 1463   3.134   3.307   1.142
 1920SOL    HW1 1464   3.181   3.320   1.229
 1920SOL    HW2 1465   3.068   3.233   1.151
 1922SOL     OW 1466   2.216   3.372   1.329
 1922SOL    HW1 1467   2.195   3.328   1.242
 1922SOL    HW2 1468   2.313   3.398   1.332
 1923SOL     OW 1469   2.264   2.613   1.598
 1923SOL    HW1 1470   2.332   2.668   1.551
 1923SOL    HW2 1471   2.304   2.525   1.625
 1924SOL     OW 1472   3.449   2.641   1.670
 1924SOL    HW1 1473   3.357   2.679   1.665
 1924SOL    HW2 1474   3.509   2.688   1.605
 1925SOL     OW 1475   2.875   1.967   1.770
 1925SOL    HW1 1476   2.881   2.052   1.718
 1925SOL    HW2 1477   2.907   1.891   1.713
 1926SOL     OW 1478   2.366   1.912   1.740
 1926SOL    HW1 1479   2.324   1.855   1.670
 1926SOL    HW2 1480   2.300   1.981   1.772
 1927SOL     OW 1481   2.435   2.732   1.029
 1927SOL    HW1 1482   2.479   2.821   1.020
 1927SOL    HW2 1483   2.372   2.732   1.106
 1928SOL     OW 1484   3.222   2.724   1.045
 1928SOL    HW1 1485   3.147   2.724   0.979
 1928SOL    HW2 1486   3.259   2.632   1.054
 1930SOL     OW 1487   2.169   2.075   1.231
 1930SOL    HW1 1488   2.146   2.112   1.321
 1930SOL    HW2 1489   2.139   1.980   1.225
 1931SOL     OW 1490   1.899   3.172   1.282
 1931SOL    HW1 1491   1.952   3.123   1.350
 1931SOL    HW2 1492   1.921   3.270   1.287
 1932SOL     OW 1493   2.594   2.496   1.064
 1932SOL    HW1 1494   2.653   2.470   0.988
 1932SOL    HW2 1495   2.566   2.592   1.053
 1933SOL     OW 1496   3.590   2.797   1.854
 1933SOL    HW1 1497   3.544   2.790   1.765
 1933SOL    HW2 1498   3.528   2.841   1.920
 1934SOL     OW 1499   2.169   1.925   0.618
 1934SOL    HW1 1500   2.158   2.019   0.651
 1934SOL    HW2 1501   2.164   1.862   0.695
 1936SOL     OW 1502   2.885   2.628   0.966
 1936SOL    HW1 1503   2.900   2.649   1.062
 1936SOL    HW2 1504   2.855   2.533   0.957
 1937SOL     OW 1505   2.842   3.435   1.700
 1937SOL    HW1 1506   2.822   3.479   1.612
 1937SOL    HW2 1507   2.881   3.344   1.684
 1939SOL     OW 1508   2.212   2.760   1.804
 1939SOL    HW1 1509   2.288   2.804   1.852
 1939SOL    HW2 1510   2.247   2.713   1.722
 1943SOL     OW 1511   2.181   2.672   0.949
 1943SOL    HW1 1512   2.274   2.708   0.954
 1943SOL    HW2 1513   2.175   2.587   1.001
 1944SOL     OW 1514   2.201   2.371   1.006
 1944SOL    HW1 1515   2.149   2.288   0.989
 1944SOL    HW2 1516   2.278   2.376   0.942
 1945SOL     OW 1517   3.000   2.242   1.678
 1945SOL    HW1 1518   2.955   2.305   1.742
 1945SOL    HW2 1519   3.093   2.273   1.661
 1946SOL     OW 1520   3.022   2.069   1.477
 1946SOL    HW1 1521   3.022   2.133   1.554
 1946SOL    HW2 1522   3.050   2.117   1.394
 1949SOL     OW 1523   2.366   3.430   0.910
 1949SOL    HW1 1524   2.432   3.504   0.919
 1949SOL    HW2 1525   2.410   3.351   0.868
 1950SOL     OW 1526   2.864   2.658   1.238
 1950SOL    HW1 1527   2.905   2.626   1.324
 1950SOL    HW2 1528   2.768   2.631   1.235
 1951SOL     OW 1529   1.902   2.406   1.114
 1951SOL    HW1 1530   1.987   2.373   1.073
 1951SOL    HW2 1531   1.915   2.421   1.212
 1952SOL     OW 1532   2.051   2.382   1.722
 1952SOL    HW1 1533   2.110   2.342   1.652
 1952SOL    HW2 1534   1.993   2.453   1.681
 1953SOL     OW 1535   3.231   2.812   1.660
 1953SOL    HW1 1536   3.270   2.901   1.680
 1953SOL    HW2 1537   3.241   2.792   1.563
 1955SOL     OW 1538   3.519   2.466   1.206
 1955SOL    HW1 1539   3.481   2.397   1.268
 1955SOL    HW2 1540   3.601   2.430   1.162
 1956SOL     OW 1541   2.114   3.426   1.744
 1956SOL    HW1 1542   2.084   3.483   1.820
 1956SOL    HW2 1543   2.107   3.329   1.770
 1957SOL     OW 1544   2.533   2.326   1.269
 1957SOL    HW1 1545   2.499   2.237   1.239
 1957SOL    HW2 1546   2.559   2.380   1.189
 1958SOL     OW 1547   2.792   3.540   1.465
 1958SOL    HW1 1548   2.768   3.522   1.370
 1958SOL    HW2 1549   2.822   3.634   1.475
 1960SOL     OW 1550   2.021   2.999   1.466
 1960SOL    HW1 1551   2.043   2.938   1.542
 1960SOL    HW2 1552   2.031   2.950   1.380
 1961SOL     OW 1553   3.209   2.921   1.234
 1961SOL    HW1 1554   3.233   2.858   1.160
 1961SOL    HW2 1555   3.119   2.961   1.216
 1965SOL     OW 1556   1.945   3.120   1.022
 1965SOL    HW1 1557   1.940   3.119   1.122
 1965SOL    HW2 1558   1.862   3.079   0.984
 1966SOL     OW 1559   2.550   3.524   1.716
 1966SOL    HW1 1560   2.494   3.605   1.725
 1966SOL    HW2 1561   2.602   3.528   1.630
 1970SOL     OW 1562   1.992   3.656   1.851
 1970SOL    HW1 1563   1.951   3.582   1.904
 1970SOL    HW2 1564   2.056   3.707   1.909
 1972SOL     OW 1565   2.692   3.135   1.422
 1972SOL    HW1 1566   2.687   3.168   1.517
 1972SOL    HW2 1567   2.606   3.154   1.376
 1976SOL     OW 1568   2.125   2.188   0.720
 1976SOL    HW1 1569   2.046   2.239   0.686
 1976SOL    HW2 1570   2.116   2.173   0.818
 1978SOL     OW 1571   2.684   2.864   1.372
 1978SOL    HW1 1572   2.724   2.863   1.280
 1978SOL    HW2 1573   2.694   2.956   1.412
 1981SOL     OW 1574   2.234   3.150   1.490
 1981SOL    HW1 1575   2.221   3.243   1.456
 1981SOL    HW2 1576   2.150   3.098   1.477
 1982SOL     OW 1577   3.476   3.154   1.289
 1982SOL    HW1 1578   3.536   3.157   1.369
 1982SOL    HW2 1579   3.401   3.218   1.302
 1984SOL     OW 1580   2.876   2.098   0.971
 1984SOL    HW1 1581   2.868   2.062   0.878
 1984SOL    HW2 1582   2.874   2.022   1.036
 1986SOL     OW 1583   3.571   2.247   1.381
 1986SOL    HW1 1584   3.644   2.316   1.385
 1986SOL    HW2 1585   3.599   2.172   1.322
 1988SOL     OW 1586   1.967   2.875   1.726
 1988SOL    HW1 1587   1.890   2.842   1.780
 1988SOL    HW2 1588   2.052   2.845   1.768
 1989SOL     OW 1589   2.534   2.065   1.489
 1989SOL    HW1 1590   2.624   2.049   1.449
 1989SOL    HW2 1591   2.542   2.070   1.588
 1991SOL     OW 1592   3.302   2.718   1.398
 1991SOL    HW1 1593   3.245   2.770   1.335
 1991SOL    HW2 1594   3.398   2.730   1.374
 1994SOL     OW 1595   2.475   2.704   1.431
 1994SOL    HW1 1596   2.531   2.785   1.414
 1994SOL    HW2 1597   2.534   2.624   1.434
 1996SOL     OW 1598   2.578   2.427   1.708
 1996SOL    HW1 1599   2.597   2.492   1.782
 1996SOL    HW2 1600   2.638   2.347   1.717
 1997SOL     OW 1601   3.312   3.082   1.633
 1997SOL    HW1 1602   3.303   3.072   1.732
 1997SOL    HW2 1603   3.408   3.075   1.607
 1998SOL     OW 1604   2.252   3.603   1.560
 1998SOL    HW1 1605   2.161   3.644   1.558
 1998SOL    HW2 1606   2.245   3.509   1.592
 1999SOL     OW 1607   3.536   2.745   1.254
 1999SOL    HW1 1608   3.509   2.656   1.217
 1999SOL    HW2 1609   3.537   2.813   1.181
 2001SOL     OW 1610   2.456   2.607   0.652
 2001SOL    HW1 1611   2.506   2.692   0.633
 2001SOL    HW2 1612   2.368   2.609   0.604
 2002SOL     OW 1613   3.639   2.204   1.642
 2002SOL    HW1 1614   3.622   2.235   1.548
 2002SOL    HW2 1615   3.555   2.167   1.680
 2003SOL     OW 1616   3.592   2.796   1.517
 2003SOL    HW1 1617   3.630   2.887   1.532
 2003SOL    HW2 1618   3.584   2.779   1.418
 2006SOL     OW 1619   2.721   2.818   0.861
 2006SOL    HW1 1620   2.775   2.749   0.909
 2006SOL    HW2 1621   2.689   2.887   0.927
 2009SOL     OW 1622   2.083   3.176   1.844
 2009SOL    HW1 1623   2.018   3.103   1.823
 2009SOL    HW2 1624   2.087   3.190   1.942
 2011SOL     OW 1625   2.534   3.253   1.624
 2011SOL    HW1 1626   2.456   3.203   1.662
 2011SOL    HW2 1627   2.531   3.348   1.655
 2012SOL     OW 1628   3.686   2.054   1.227
 2012SOL    HW1 1629   3.682   1.964   1.271
 2012SOL    HW2 1630   3.689   2.043   1.128
 2013SOL     OW 1631   2.290   2.286   0.520
 2013SOL    HW1 1632   2.320   2.214   0.458
 2013SOL    HW2 1633   2.251   2.246   0.603
 2015SOL     OW 1634   2.179   2.409   1.280
 2015SOL    HW1 1635   2.217   2.350   1.352
 2015SOL    HW2 1636   2.219   2.383   1.192
 2017SOL     OW 1637   3.286   2.076   1.112
 2017SOL    HW1 1638   3.338   2.011   1.167
 2017SOL    HW2 1639   3.237   2.139   1.173
 2018SOL     OW 1640   2.863   1.896   1.154
 2018SOL    HW1 1641   2.800   1.824   1.123
 2018SOL    HW2 1642   2.956   1.860   1.154
 2020SOL     OW 1643   2.480   3.429   1.284
 2020SOL    HW1 1644   2.475   3.511   1.341
 2020SOL    HW2 1645   2.569   3.426   1.239
 2026SOL     OW 1646   2.092   2.490   1.975
 2026SOL    HW1 1647   1.999   2.488   2.012
 2026SOL    HW2 1648   2.093   2.451   1.883
 2027SOL     OW 1649   2.087   2.137   2.858
 2027SOL    HW1 1650   2.122   2.120   2.950
 2027SOL    HW2 1651   1.999   2.092   2.846
 2028SOL     OW 1652   1.881   2.230   2.509
 2028SOL    HW1 1653   1.799   2.273   2.548
 2028SOL    HW2 1654   1.853   2.157   2.446
 2029SOL     OW 1655   2.431   3.137   3.027
 2029SOL    HW1 1656   2.338   3.130   2.990
 2029SOL    HW2 1657   2.442   3.226   3.071
 2030SOL     OW 1658   3.417   3.373   2.565
 2030SOL    HW1 1659   3.360   3.357   2.646
 2030SOL    HW2 1660   3.358   3.383   2.485
 2031SOL     OW 1661   2.997   2.565   2.579
 2031SOL    HW1 1662   3.054   2.643   2.554
 2031SOL    HW2 1663   2.937   2.591   2.655
 2032SOL     OW 1664   3.617   2.469   2.093
 2032SOL    HW1 1665   3.605   2.456   1.994
 2032SOL    HW2 1666   3.587   2.388   2.142
 2033SOL     OW 1667   2.630   3.006   2.885
 2033SOL    HW1 1668   2.552   3.023   2.945
 2033SOL    HW2 1669   2.664   3.093   2.849
 2034SOL     OW 1670   2.712   2.660   3.685
 2034SOL    HW1 1671   2.708   2.736   3.750
 2034SOL    HW2 1672   2.734   2.696   3.594
 2035SOL     OW 1673   2.547   2.874   2.527
 2035SOL    HW1 1674   2.616   2.858   2.597
 2035SOL    HW2 1675   2.474   2.931   2.565
 2036SOL     OW 1676   2.548   3.023   3.665
 2036SOL    HW1 1677   2.608   3.102   3.679
 2036SOL    HW2 1678   2.462   3.054   3.624
 2037SOL     OW 1679   2.197   3.297   2.923
 2037SOL    HW1 1680   2.119   3.266   2.870
 2037SOL    HW2 1681   2.255   3.355   2.866
 2038SOL     OW 1682   3.322   3.367   3.201
 2038SOL    HW1 1683   3.346   3.461   3.227
 2038SOL    HW2 1684   3.306   3.313   3.283
 2039SOL     OW 1685   2.300   2.254   3.361
 2039SOL    HW1 1686   2.382   2.198   3.370
 2039SOL    HW2 1687   2.219   2.196   3.365
 2040SOL     OW 1688   3.465   2.309   2.599
 2040SOL    HW1 1689   3.391   2.355   2.549
 2040SOL    HW2 1690   3.516   2.377   2.652
 2041SOL     OW 1691   2.093   3.575   2.345
 2041SOL    HW1 1692   2.127   3.652   2.399
 2041SOL    HW2 1693   2.137   3.575   2.255
 2042SOL     OW 1694   2.989   3.203   3.552
 2042SOL    HW1 1695   3.036   3.203   3.640
 2042SOL    HW2 1696   2.941   3.116   3.541
 2043SOL     OW 1697   2.092   3.296   2.400
 2043SOL    HW1 1698   2.066   3.392   2.400
 2043SOL    HW2 1699   2.021   3.242   2.445
 2044SOL     OW 1700   2.102   2.953   2.748
 2044SOL    HW1 1701   2.116   2.869   2.800
 2044SOL    HW2 1702   2.047   3.017   2.803
 2045SOL     OW 1703   2.482   3.648   3.301
 2045SOL    HW1 1704   2.390   3.631   3.336
 2045SOL    HW2 1705   2.510   3.740   3.327
 2046SOL     OW 1706   2.468   2.826   1.985
 2046SOL    HW1 1707   2.475   2.910   1.931
 2046SOL    HW2 1708   2.514   2.839   2.073
 2047SOL     OW 1709   3.456   1.976   3.342
 2047SOL    HW1 1710   3.438   2.043   3.270
 2047SOL    HW2 1711   3.453   2.022   3.431
 2049SOL     OW 1712   1.889   3.458   1.979
 2049SOL    HW1 1713   1.870   3.362   2.000
 2049SOL    HW2 1714   1.856   3.516   2.054
 2050SOL     OW 1715   3.551   2.784   2.474
 2050SOL    HW1 1716   3.646   2.755   2.482
 2050SOL    HW2 1717   3.543   2.849   2.399
 2051SOL     OW 1718   3.503   2.970   2.294
 2051SOL    HW1 1719   3.589   2.972   2.242
 2051SOL    HW2 1720   3.517   3.017   2.382
 2052SOL     OW 1721   1.975   2.599   3.459
 2052SOL    HW1 1722   2.063   2.586   3.504
 2052SOL    HW2 1723   1.962   2.696   3.437
 2053SOL     OW 1724   2.475   3.227   2.588
 2053SOL    HW1 1725   2.426   3.140   2.597
 2053SOL    HW2 1726   2.452   3.270   2.501
 2054SOL     OW 1727   3.155   3.090   3.285
 2054SOL    HW1 1728   3.192   3.017   3.227
 2054SOL    HW2 1729   3.207   3.095   3.370
 2055SOL     OW 1730   2.671   1.866   2.364
 2055SOL    HW1 1731   2.711   1.957   2.355
 2055SOL    HW2 1732   2.571   1.874   2.370
 2056SOL     OW 1733   2.059   2.838   3.126
 2056SOL    HW1 1734   2.148   2.793   3.112
 2056SOL    HW2 1735   1.986   2.773   3.107
 2057SOL     OW 1736   3.387   2.861   2.052
 2057SOL    HW1 1737   3.324   2.785   2.065
 2057SOL    HW2 1738   3.435   2.879   2.138
 2059SOL     OW 1739   2.179   2.113   3.663
 2059SOL    HW1 1740   2.250   2.184   3.669
 2059SOL    HW2 1741   2.091   2.152   3.691
 2060SOL     OW 1742   3.328   3.279   2.815
 2060SOL    HW1 1743   3.269   3.285   2.895
 2060SOL    HW2 1744   3.313   3.191   2.769
 2061SOL     OW 1745   3.529   3.576   2.434
 2061SOL    HW1 1746   3.488   3.553   2.346
 2061SOL    HW2 1747   3.511   3.502   2.499
 2062SOL     OW 1748   2.460   2.591   2.132
 2062SOL    HW1 1749   2.484   2.660   2.064
 2062SOL    HW2 1750   2.382   2.624   2.186
 2063SOL     OW 1751   3.143   2.207   2.806
 2063SOL    HW1 1752   3.057   2.157   2.793
 2063SOL    HW2 1753   3.205   2.153   2.862
 2064SOL     OW 1754   3.438   3.524   2.169
 2064SOL    HW1 1755   3.527   3.570   2.172
 2064SOL    HW2 1756   3.417   3.500   2.074
 2065SOL     OW 1757   2.669   2.467   3.327
 2065SOL    HW1 1758   2.622   2.464   3.416
 2065SOL    HW2 1759   2.618   2.412   3.261
 2066SOL     OW 1760   3.256   2.331   3.536
 2066SOL    HW1 1761   3.236   2.374   3.624
 2066SOL    HW2 1762   3.334   2.269   3.545
 2067SOL     OW 1763   2.835   2.752   3.434
 2067SOL    HW1 1764   2.881   2.668   3.405
 2067SOL    HW2 1765   2.779   2.786   3.359
 2068SOL     OW 1766   2.853   2.272   3.104
 2068SOL    HW1 1767   2.776   2.306   3.158
 2068SOL    HW2 1768   2.819   2.221   3.025
 2069SOL     OW 1769   2.903   2.563   2.291
 2069SOL    HW1 1770   2.929   2.559   2.387
 2069SOL    HW2 1771   2.818   2.512   2.277
 2070SOL     OW 1772   1.938   2.673   2.651
 2070SOL    HW1 1773   2.037   2.661   2.660
 2070SOL    HW2 1774   1.914   2.768   2.672
 2072SOL     OW 1775   2.727   2.210   2.057
 2072SOL    HW1 1776   2.786   2.273   2.008
 2072SOL    HW2 1777   2.746   2.116   2.028
 2074SOL     OW 1778   3.224   3.006   2.407
 2074SOL    HW1 1779   3.307   2.977   2.359
 2074SOL    HW2 1780   3.175   3.073   2.351
 2075SOL     OW 1781   2.412   2.058   2.747
 2075SOL    HW1 1782   2.407   2.053   2.847
 2075SOL    HW2 1783   2.414   2.154   2.718
 2076SOL     OW 1784   2.870   3.318   2.339
 2076SOL    HW1 1785   2.824   3.390   2.287
 2076SOL    HW2 1786   2.866   3.338   2.437
 2077SOL     OW 1787   2.213   3.663   2.715
 2077SOL    HW1 1788   2.263   3.577   2.721
 2077SOL    HW2 1789   2.278   3.740   2.712
 2078SOL     OW 1790   3.657   2.928   2.735
 2078SOL    HW1 1791   3.595   2.913   2.659
 2078SOL    HW2 1792   3.605   2.939   2.820
 2079SOL     OW 1793   3.089   3.412   3.368
 2079SOL    HW1 1794   3.095   3.335   3.432
 2079SOL    HW2 1795   3.037   3.386   3.288
 2080SOL     OW 1796   2.183   2.805   2.104
 2080SOL    HW1 1797   2.265   2.844   2.062
 2080SOL    HW2 1798   2.156   2.723   2.055
 2081SOL     OW 1799   3.320   2.597   2.590
 2081SOL    HW1 1800   3.315   2.532   2.665
 2081SOL    HW2 1801   3.400   2.656   2.603
 2082SOL     OW 1802   2.323   3.128   3.589
 2082SOL    HW1 1803   2.273   3.129   3.503
 2082SOL    HW2 1804   2.260   3.110   3.665
 2083SOL     OW 1805   2.973   3.638   2.099
 2083SOL    HW1 1806   2.913   3.576   2.149
 2083SOL    HW2 1807   3.004   3.594   2.014
 2084SOL     OW 1808   2.064   2.147   3.360
 2084SOL    HW1 1809   1.984   2.207   3.347
 2084SOL    HW2 1810   2.054   2.098   3.446
 2085SOL     OW 1811   3.494   3.239   1.943
 2085SOL    HW1 1812   3.462   3.333   1.933
 2085SOL    HW2 1813   3.418   3.176   1.931
 2086SOL     OW 1814   2.326   3.605   2.185
 2086SOL    HW1 1815   2.359   3.644   2.271
 2086SOL    HW2 1816   2.402   3.598   2.120
 2087SOL     OW 1817   3.262   1.969   2.288
 2087SOL    HW1 1818   3.238   1.932   2.198
 2087SOL    HW2 1819   3.361   1.985   2.292
 2088SOL     OW 1820   2.111   3.647   3.103
 2088SOL    HW1 1821   2.168   3.582   3.153
 2088SOL    HW2 1822   2.095   3.614   3.010
 2089SOL     OW 1823   2.802   3.560   2.766
 2089SOL    HW1 1824   2.882   3.503   2.787
 2089SOL    HW2 1825   2.753   3.520   2.689
 2090SOL     OW 1826   3.409   2.084   3.591
 2090SOL    HW1 1827   3.404   2.121   3.683
 2090SOL    HW2 1828   3.337   2.015   3.579
 2091SOL     OW 1829   2.476   1.984   1.979
 2091SOL    HW1 1830   2.574   1.962   1.986
 2091SOL    HW2 1831   2.445   1.967   1.886
 2092SOL     OW 1832   2.643   2.126   3.611
 2092SOL    HW1 1833   2.710   2.065   3.654
 2092SOL    HW2 1834   2.570   2.145   3.676
 2093SOL     OW 1835   2.750   3.376   3.057
 2093SOL    HW1 1836   2.727   3.351   2.963
 2093SOL    HW2 1837   2.811   3.307   3.096
 2094SOL     OW 1838   3.213   2.452   3.295
 2094SOL    HW1 1839   3.241   2.409   3.380
 2094SOL    HW2 1840   3.238   2.548   3.296
 2095SOL     OW 1841   2.665   3.264   2.786
 2095SOL    HW1 1842   2.755   3.278   2.744
 2095SOL    HW2 1843   2.594   3.266   2.715
 2096SOL     OW 1844   2.784   2.365   2.761
 2096SOL    HW1 1845   2.759   2.356   2.665
 2096SOL    HW2 1846   2.832   2.283   2.792
 2097SOL     OW 1847   2.401   1.926   2.374
 2097SOL    HW1 1848   2.320   1.927   2.432
 2097SOL    HW2 1849   2.404   2.009   2.319
 2098SOL     OW 1850   3.296   3.050   1.903
 2098SOL    HW1 1851   3.328   2.974   1.960
 2098SOL    HW2 1852   3.204   3.077   1.933
 2099SOL     OW 1853   2.159   1.897   2.033
 2099SOL    HW1 1854   2.208   1.981   2.012
 2099SOL    HW2 1855   2.221   1.832   2.078
 2100SOL     OW 1856   2.797   2.098   2.342
 2100SOL    HW1 1857   2.749   2.139   2.264
 2100SOL    HW2 1858   2.896   2.096   2.323
 2101SOL     OW 1859   2.938   2.545   3.326
 2101SOL    HW1 1860   2.858   2.484   3.329
 2101SOL    HW2 1861   3.019   2.492   3.302
 2102SOL     OW 1862   3.089   3.432   2.655
 2102SOL    HW1 1863   3.110   3.506   2.590
 2102SOL    HW2 1864   3.157   3.432   2.728
 2103SOL     OW 1865   2.321   3.014   2.603
 2103SOL    HW1 1866   2.250   2.987   2.668
 2103SOL    HW2 1867   2.295   2.986   2.510
 2104SOL     OW 1868   3.133   3.659   2.453
 2104SOL    HW1 1869   3.177   3.723   2.389
 2104SOL    HW2 1870   3.083   3.711   2.523
 2105SOL     OW 1871   2.894   2.411   1.878
 2105SOL    HW1 1872   2.853   2.493   1.839
 2105SOL    HW2 1873   2.958   2.437   1.951
 2106SOL     OW 1874   1.940   2.418   3.248
 2106SOL    HW1 1875   2.032   2.417   3.207
 2106SOL    HW2 1876   1.934   2.492   3.315
 2107SOL     OW 1877   2.423   2.084   3.009
 2107SOL    HW1 1878   2.461   2.000   3.046
 2107SOL    HW2 1879   2.335   2.103   3.053
 2108SOL     OW 1880   2.728   2.316   2.504
 2108SOL    HW1 1881   2.696   2.388   2.442
 2108SOL    HW2 1882   2.752   2.235   2.451
 2109SOL     OW 1883   2.879   1.901   2.615
 2109SOL    HW1 1884   2.807   1.906   2.546
 2109SOL    HW2 1885   2.855   1.832   2.684
 2110SOL     OW 1886   3.291   3.035   2.729
 2110SOL    HW1 1887   3.236   2.951   2.722
 2110SOL    HW2 1888   3.317   3.064   2.637
 2111SOL     OW 1889   3.328   2.452   2.854
 2111SOL    HW1 1890   3.298   2.357   2.861
 2111SOL    HW2 1891   3.401   2.468   2.920
 2112SOL     OW 1892   3.719   2.695   2.239
 2112SOL    HW1 1893   3.761   2.631   2.303
 2112SOL    HW2 1894   3.681   2.644   2.161
 2113SOL     OW 1895   2.350   3.247   2.036
 2113SOL    HW1 1896   2.263   3.232   2.083
 2113SOL    HW2 1897   2.333   3.273   1.941
 2114SOL     OW 1898   3.526   3.142   2.519
 2114SOL    HW1 1899   3.625   3.150   2.533
 2114SOL    HW2 1900   3.481   3.226   2.550
 2115SOL     OW 1901   3.252   2.437   1.940
 2115SOL    HW1 1902   3.198   2.416   2.021
 2115SOL    HW2 1903   3.343   2.396   1.949
 2117SOL     OW 1904   2.926   3.209   3.202
 2117SOL    HW1 1905   2.846   3.186   3.257
 2117SOL    HW2 1906   3.009   3.183   3.251
 2119SOL     OW 1907   2.973   3.057   2.962
 2119SOL    HW1 1908   2.933   3.101   3.043
 2119SOL    HW2 1909   2.932   3.094   2.879
 2120SOL     OW 1910   3.500   2.961   2.941
 2120SOL    HW1 1911   3.505   3.042   3.000
 2120SOL    HW2 1912   3.414   2.963   2.890
 2121SOL     OW 1913   2.777   1.951   3.264
 2121SOL    HW1 1914   2.802   1.931   3.169
 2121SOL    HW2 1915   2.849   2.007   3.306
 2122SOL     OW 1916   2.842   2.978   3.581
 2122SOL    HW1 1917   2.743   2.984   3.591
 2122SOL    HW2 1918   2.865   2.898   3.525
 2123SOL     OW 1919   2.567   2.912   2.230
 2123SOL    HW1 1920   2.553   2.919   2.329
 2123SOL    HW2 1921   2.651   2.861   2.212
 2124SOL     OW 1922   2.272   2.675   3.113
 2124SOL    HW1 1923   2.358   2.687   3.163
 2124SOL    HW2 1924   2.230   2.588   3.140
 2125SOL     OW 1925   3.136   2.248   3.124
 2125SOL    HW1 1926   3.157   2.322   3.188
 2125SOL    HW2 1927   3.047   2.265   3.081
 2126SOL     OW 1928   1.926   3.426   3.193
 2126SOL    HW1 1929   1.880   3.508   3.159
 2126SOL    HW2 1930   2.024   3.445   3.202
 2127SOL     OW 1931   2.229   2.962   2.363
 2127SOL    HW1 1932   2.222   3.045   2.307
 2127SOL    HW2 1933   2.233   2.882   2.303
 2128SOL     OW 1934   2.428   2.399   2.727
 2128SOL    HW1 1935   2.440   2.465   2.653
 2128SOL    HW2 1936   2.474   2.433   2.810
 2129SOL     OW 1937   3.114   3.210   2.250
 2129SOL    HW1 1938   3.164   3.287   2.290
 2129SOL    HW2 1939   3.019   3.212   2.282
 2130SOL     OW 1940   3.134   3.307   3.004
 2130SOL    HW1 1941   3.181   3.320   3.091
 2130SOL    HW2 1942   3.068   3.233   3.013
 2131SOL     OW 1943   3.444   2.501   2.334
 2131SOL    HW1 1944   3.413   2.562   2.407
 2131SOL    HW2 1945   3.494   2.553   2.265
 2132SOL     OW 1946   2.216   3.372   3.191
 2132SOL    HW1 1947   2.195   3.328   3.104
 2132SOL    HW2 1948   2.313   3.398   3.194
 2133SOL     OW 1949   2.264   2.613   3.460
 2133SOL    HW1 1950   2.332   2.668   3.413
 2133SOL    HW2 1951   2.304   2.525   3.487
 2134SOL     OW 1952   3.449   2.641   3.532
 2134SOL    HW1 1953   3.357   2.679   3.527
 2134SOL    HW2 1954   3.509   2.688   3.467
 2135SOL     OW 1955   2.875   1.967   3.632
 2135SOL    HW1 1956   2.881   2.052   3.580
 2135SOL    HW2 1957   2.907   1.891   3.575
 2136SOL     OW 1958   2.366   1.912   3.602
 2136SOL    HW1 1959   2.324   1.855   3.532
 2136SOL    HW2 1960   2.300   1.981   3.634
 2137SOL     OW 1961   2.435   2.732   2.891
 2137SOL    HW1 1962   2.479   2.821   2.882
 2137SOL    HW2 1963   2.372   2.732   2.968
 2138SOL     OW 1964   3.222   2.724   2.907
 2138SOL    HW1 1965   3.147   2.724   2.841
 2138SOL    HW2 1966   3.259   2.632   2.916
 2139SOL     OW 1967   3.071   2.387   2.137
 2139SOL    HW1 1968   3.084   2.303   2.191
 2139SOL    HW2 1969   3.042   2.461   2.197
 2140SOL     OW 1970   2.169   2.075   3.093
 2140SOL    HW1 1971   2.146   2.112   3.183
 2140SOL    HW2 1972   2.139   1.980   3.087
 2141SOL     OW 1973   1.899   3.172   3.144
 2141SOL    HW1 1974   1.952   3.123   3.212
 2141SOL    HW2 1975   1.921   3.270   3.149
 2142SOL     OW 1976   2.594   2.496   2.926
 2142SOL    HW1 1977   2.653   2.470   2.850
 2142SOL    HW2 1978   2.566   2.592   2.915
 2144SOL     OW 1979   2.169   1.925   2.480
 2144SOL    HW1 1980   2.158   2.019   2.513
 2144SOL    HW2 1981   2.164   1.862   2.557
 2145SOL     OW 1982   3.484   2.229   2.236
 2145SOL    HW1 1983   3.486   2.153   2.300
 2145SOL    HW2 1984   3.436   2.306   2.276
 2146SOL     OW 1985   2.885   2.628   2.828
 2146SOL    HW1 1986   2.900   2.649   2.924
 2146SOL    HW2 1987   2.855   2.533   2.819
 2147SOL     OW 1988   2.842   3.435   3.562
 2147SOL    HW1 1989   2.822   3.479   3.474
 2147SOL    HW2 1990   2.881   3.344   3.546
 2149SOL     OW 1991   2.212   2.760   3.666
 2149SOL    HW1 1992   2.288   2.804   3.714
 2149SOL    HW2 1993   2.247   2.713   3.584
 2150SOL     OW 1994   3.402   2.136   1.987
 2150SOL    HW1 1995   3.341   2.061   2.010
 2150SOL    HW2 1996   3.424   2.188   2.070
 2151SOL     OW 1997   3.165   2.700   1.904
 2151SOL    HW1 1998   3.199   2.607   1.919
 2151SOL    HW2 1999   3.183   2.727   1.809
 2152SOL     OW 2000   2.930   3.195   2.711
 2152SOL    HW1 2001   2.937   3.111   2.656
 2152SOL    HW2 2002   2.992   3.264   2.675
 2153SOL     OW 2003   2.181   2.672   2.811
 2153SOL    HW1 2004   2.274   2.708   2.816
 2153SOL    HW2 2005   2.175   2.587   2.863
 2154SOL     OW 2006   2.201   2.371   2.868
 2154SOL    HW1 2007   2.149   2.288   2.851
 2154SOL    HW2 2008   2.278   2.376   2.804
 2155SOL     OW 2009   3.000   2.242   3.540
 2155SOL    HW1 2010   2.955   2.305   3.604
 2155SOL    HW2 2011   3.093   2.273   3.523
 2156SOL     OW 2012   3.022   2.069   3.339
 2156SOL    HW1 2013   3.022   2.133   3.416
 2156SOL    HW2 2014   3.050   2.117   3.256
 2157SOL     OW 2015   1.870   3.188   2.062
 2157SOL    HW1 2016   1.777   3.209   2.031
 2157SOL    HW2 2017   1.880   3.089   2.075
 2158SOL     OW 2018   1.950   3.663   2.789
 2158SOL    HW1 2019   1.908   3.577   2.762
 2158SOL    HW2 2020   2.044   3.666   2.755
 2159SOL     OW 2021   2.366   3.430   2.772
 2159SOL    HW1 2022   2.432   3.504   2.781
 2159SOL    HW2 2023   2.410   3.351   2.730
 2160SOL     OW 2024   2.864   2.658   3.100
 2160SOL    HW1 2025   2.905   2.626   3.186
 2160SOL    HW2 2026   2.768   2.631   3.097
 2161SOL     OW 2027   1.902   2.406   2.976
 2161SOL    HW1 2028   1.987   2.373   2.935
 2161SOL    HW2 2029   1.915   2.421   3.074
 2162SOL     OW 2030   2.051   2.382   3.584
 2162SOL    HW1 2031   2.110   2.342   3.514
 2162SOL    HW2 2032   1.993   2.453   3.543
 2163SOL     OW 2033   3.231   2.812   3.522
 2163SOL    HW1 2034   3.270   2.901   3.542
 2163SOL    HW2 2035   3.241   2.792   3.425
 2164SOL     OW 2036   2.677   2.434   2.187
 2164SOL    HW1 2037   2.684   2.345   2.141
 2164SOL    HW2 2038   2.583   2.468   2.179
 2165SOL     OW 2039   3.519   2.466   3.068
 2165SOL    HW1 2040   3.481   2.397   3.130
 2165SOL    HW2 2041   3.601   2.430   3.024
 2166SOL     OW 2042   2.114   3.426   3.606
 2166SOL    HW1 2043   2.084   3.483   3.682
 2166SOL    HW2 2044   2.107   3.329   3.632
 2167SOL     OW 2045   2.533   2.326   3.131
 2167SOL    HW1 2046   2.499   2.237   3.101
 2167SOL    HW2 2047   2.559   2.380   3.051
 2168SOL     OW 2048   2.792   3.540   3.327
 2168SOL    HW1 2049   2.768   3.522   3.232
 2168SOL    HW2 2050   2.822   3.634   3.337
 2169SOL     OW 2051   2.021   2.999   3.328
 2169SOL    HW1 2052   2.043   2.938   3.404
 2169SOL    HW2 2053   2.031   2.950   3.242
 2170SOL     OW 2054   3.209   2.921   3.096
 2170SOL    HW1 2055   3.233   2.858   3.022
 2170SOL    HW2 2056   3.119   2.961   3.078
 2171SOL     OW 2057   3.164   2.717   2.171
 2171SOL    HW1 2058   3.078   2.686   2.213
 2171SOL    HW2 2059   3.160   2.703   2.072
 2173SOL     OW 2060   3.114   3.593   2.990
 2173SOL    HW1 2061   3.198   3.598   2.936
 2173SOL    HW2 2062   3.091   3.497   3.008
 2174SOL     OW 2063   1.945   3.120   2.884
 2174SOL    HW1 2064   1.940   3.119   2.984
 2174SOL    HW2 2065   1.862   3.079   2.846
 2175SOL     OW 2066   2.550   3.524   3.578
 2175SOL    HW1 2067   2.494   3.605   3.587
 2175SOL    HW2 2068   2.602   3.528   3.492
 2176SOL     OW 2069   3.588   1.997   2.385
 2176SOL    HW1 2070   3.661   1.980   2.318
 2176SOL    HW2 2071   3.557   1.910   2.423
 2177SOL     OW 2072   3.250   3.435   2.339
 2177SOL    HW1 2073   3.317   3.447   2.265
 2177SOL    HW2 2074   3.210   3.524   2.362
 2179SOL     OW 2075   3.142   2.789   2.534
 2179SOL    HW1 2076   3.202   2.708   2.536
 2179SOL    HW2 2077   3.182   2.858   2.474
 2180SOL     OW 2078   2.692   3.135   3.284
 2180SOL    HW1 2079   2.687   3.168   3.379
 2180SOL    HW2 2080   2.606   3.154   3.238
 2181SOL     OW 2081   2.534   3.478   2.016
 2181SOL    HW1 2082   2.543   3.488   1.917
 2181SOL    HW2 2083   2.494   3.389   2.037
 2183SOL     OW 2084   3.703   2.037   2.825
 2183SOL    HW1 2085   3.742   1.952   2.789
 2183SOL    HW2 2086   3.605   2.039   2.806
 2184SOL     OW 2087   2.125   2.188   2.582
 2184SOL    HW1 2088   2.046   2.239   2.548
 2184SOL    HW2 2089   2.116   2.173   2.680
 2185SOL     OW 2090   3.056   3.474   1.893
 2185SOL    HW1 2091   3.062   3.381   1.930
 2185SOL    HW2 2092   2.997   3.474   1.813
 2186SOL     OW 2093   2.684   2.864   3.234
 2186SOL    HW1 2094   2.724   2.863   3.142
 2186SOL    HW2 2095   2.694   2.956   3.274
 2187SOL     OW 2096   2.778   2.772   2.153
 2187SOL    HW1 2097   2.841   2.810   2.085
 2187SOL    HW2 2098   2.818   2.689   2.192
 2188SOL     OW 2099   3.366   3.469   1.906
 2188SOL    HW1 2100   3.274   3.506   1.913
 2188SOL    HW2 2101   3.404   3.489   1.816
 2189SOL     OW 2102   2.234   3.150   3.352
 2189SOL    HW1 2103   2.221   3.243   3.318
 2189SOL    HW2 2104   2.150   3.098   3.339
 2190SOL     OW 2105   3.476   3.154   3.151
 2190SOL    HW1 2106   3.536   3.157   3.231
 2190SOL    HW2 2107   3.401   3.218   3.164
 2191SOL     OW 2108   2.901   2.960   2.558
 2191SOL    HW1 2109   2.831   2.913   2.612
 2191SOL    HW2 2110   2.960   2.892   2.515
 2192SOL     OW 2111   2.876   2.098   2.833
 2192SOL    HW1 2112   2.868   2.062   2.740
 2192SOL    HW2 2113   2.874   2.022   2.898
 2193SOL     OW 2114   2.452   3.349   2.353
 2193SOL    HW1 2115   2.494   3.291   2.283
 2193SOL    HW2 2116   2.408   3.428   2.309
 2194SOL     OW 2117   3.571   2.247   3.243
 2194SOL    HW1 2118   3.644   2.316   3.247
 2194SOL    HW2 2119   3.599   2.172   3.184
 2195SOL     OW 2120   2.117   3.210   2.152
 2195SOL    HW1 2121   2.021   3.211   2.125
 2195SOL    HW2 2122   2.129   3.263   2.236
 2196SOL     OW 2123   1.967   2.875   3.588
 2196SOL    HW1 2124   1.890   2.842   3.642
 2196SOL    HW2 2125   2.052   2.845   3.630
 2197SOL     OW 2126   2.534   2.065   3.351
 2197SOL    HW1 2127   2.624   2.049   3.311
 2197SOL    HW2 2128   2.542   2.070   3.450
 2198SOL     OW 2129   1.937   2.207   1.895
 2198SOL    HW1 2130   1.845   2.179   1.866
 2198SOL    HW2 2131   1.968   2.284   1.839
 2199SOL     OW 2132   3.302   2.718   3.260
 2199SOL    HW1 2133   3.245   2.770   3.197
 2199SOL    HW2 2134   3.398   2.730   3.236
 2200SOL     OW 2135   1.934   2.028   2.180
 2200SOL    HW1 2136   1.917   2.111   2.126
 2200SOL    HW2 2137   2.024   1.991   2.158
 2201SOL     OW 2138   3.045   3.197   1.981
 2201SOL    HW1 2139   2.946   3.186   1.983
 2201SOL    HW2 2140   3.079   3.212   2.074
 2202SOL     OW 2141   2.475   2.704   3.293
 2202SOL    HW1 2142   2.531   2.785   3.276
 2202SOL    HW2 2143   2.534   2.624   3.296
 2203SOL     OW 2144   3.355   3.629   2.821
 2203SOL    HW1 2145   3.388   3.693   2.752
 2203SOL    HW2 2146   3.421   3.623   2.896
 2204SOL     OW 2147   2.578   2.427   3.570
 2204SOL    HW1 2148   2.597   2.492   3.644
 2204SOL    HW2 2149   2.638   2.347   3.579
 2205SOL     OW 2150   3.312   3.082   3.495
 2205SOL    HW1 2151   3.303   3.072   3.594
 2205SOL    HW2 2152   3.408   3.075   3.469
 2206SOL     OW 2153   2.252   3.603   3.422
 2206SOL    HW1 2154   2.161   3.644   3.420
 2206SOL    HW2 2155   2.245   3.509   3.454
 2207SOL     OW 2156   3.536   2.745   3.116
 2207SOL    HW1 2157   3.509   2.656   3.079
 2207SOL    HW2 2158   3.537   2.813   3.043
 2208SOL     OW 2159   3.087   2.187   2.311
 2208SOL    HW1 2160   3.152   2.113   2.300
 2208SOL    HW2 2161   3.107   2.237   2.395
 2209SOL     OW 2162   2.456   2.607   2.514
 2209SOL    HW1 2163   2.506   2.692   2.495
 2209SOL    HW2 2164   2.368   2.609   2.466
 2211SOL     OW 2165   3.592   2.796   3.379
 2211SOL    HW1 2166   3.630   2.887   3.394
 2211SOL    HW2 2167   3.584   2.779   3.280
 2212SOL     OW 2168   2.721   3.236   1.878
 2212SOL    HW1 2169   2.675   3.251   1.966
 2212SOL    HW2 2170   2.765   3.321   1.848
 2213SOL     OW 2171   2.523   3.652   2.815
 2213SOL    HW1 2172   2.477   3.740   2.802
 2213SOL    HW2 2173   2.622   3.664   2.808
 2214SOL     OW 2174   2.721   2.818   2.723
 2214SOL    HW1 2175   2.775   2.749   2.771
 2214SOL    HW2 2176   2.689   2.887   2.789
 2215SOL     OW 2177   2.945   2.846   1.949
 2215SOL    HW1 2178   2.922   2.899   1.867
 2215SOL    HW2 2179   3.026   2.790   1.930
 2217SOL     OW 2180   2.083   3.176   3.706
 2217SOL    HW1 2181   2.018   3.103   3.685
 2217SOL    HW2 2182   2.087   3.190   3.804
 2218SOL     OW 2183   1.941   3.102   2.515
 2218SOL    HW1 2184   1.940   3.055   2.603
 2218SOL    HW2 2185   2.023   3.074   2.464
 2219SOL     OW 2186   2.534   3.253   3.486
 2219SOL    HW1 2187   2.456   3.203   3.524
 2219SOL    HW2 2188   2.531   3.348   3.517
 2220SOL     OW 2189   3.686   2.054   3.089
 2220SOL    HW1 2190   3.682   1.964   3.133
 2220SOL    HW2 2191   3.689   2.043   2.990
 2221SOL     OW 2192   3.567   3.349   2.966
 2221SOL    HW1 2193   3.474   3.324   2.939
 2221SOL    HW2 2194   3.593   3.299   3.048
 2222SOL     OW 2195   2.179   2.409   3.142
 2222SOL    HW1 2196   2.217   2.350   3.214
 2222SOL    HW2 2197   2.219   2.383   3.054
 2223SOL     OW 2198   2.674   3.448   2.549
 2223SOL    HW1 2199   2.706   3.458   2.455
 2223SOL    HW2 2200   2.595   3.386   2.551
 2224SOL     OW 2201   3.286   2.076   2.974
 2224SOL    HW1 2202   3.338   2.011   3.029
 2224SOL    HW2 2203   3.237   2.139   3.035
 2225SOL     OW 2204   2.863   1.896   3.016
 2225SOL    HW1 2205   2.800   1.824   2.985
 2225SOL    HW2 2206   2.956   1.860   3.016
 2226SOL     OW 2207   2.632   3.192   2.163
 2226SOL    HW1 2208   2.586   3.105   2.180
 2226SOL    HW2 2209   2.723   3.189   2.204
 2227SOL     OW 2210   2.480   3.429   3.146
 2227SOL    HW1 2211   2.475   3.511   3.203
 2227SOL    HW2 2212   2.569   3.426   3.101
 2228SOL     OW 2213   3.214   1.914   2.030
 2228SOL    HW1 2214   3.249   1.873   1.946
 2228SOL    HW2 2215   3.124   1.876   2.050
 2229SOL     OW 2216   3.162   2.315   2.553
 2229SOL    HW1 2217   3.103   2.395   2.557
 2229SOL    HW2 2218   3.177   2.280   2.646
 2230SOL     OW 2219   3.455   2.083   2.744
 2230SOL    HW1 2220   3.371   2.082   2.798
 2230SOL    HW2 2221   3.457   2.166   2.688
 2231SOL     OW 2222   1.901   2.939   2.162
 2231SOL    HW1 2223   2.000   2.928   2.153
 2231SOL    HW2 2224   1.861   2.853   2.194
 2232SOL     OW 2225   2.737   3.508   2.199
 2232SOL    HW1 2226   2.660   3.473   2.145
 2232SOL    HW2 2227   2.705   3.579   2.261
 2233SOL     OW 2228   2.092   2.490   3.837
 2233SOL    HW1 2229   1.999   2.488   3.874
 2233SOL    HW2 2230   2.093   2.451   3.745
 2244SOL     OW 2231   2.468   2.826   3.847
 2244SOL    HW1 2232   2.475   2.910   3.793
 2244SOL    HW2 2233   2.514   2.839   3.935
 2254SOL     OW 2234   2.460   2.591   3.994
 2254SOL    HW1 2235   2.484   2.660   3.926
 2254SOL    HW2 2236   2.382   2.624   4.048
 2259SOL     OW 2237   2.727   2.210   3.919
 2259SOL    HW1 2238   2.786   2.273   3.870
 2259SOL    HW2 2239   2.746   2.116   3.890
 2265SOL     OW 2240   2.183   2.805   3.966
 2265SOL    HW1 2241   2.265   2.844   3.924
 2265SOL    HW2 2242   2.156   2.723   3.917
 2273SOL     OW 2243   2.476   1.984   3.841
 2273SOL    HW1 2244   2.574   1.962   3.848
 2273SOL    HW2 2245   2.445   1.967   3.748
 2276SOL     OW 2246   2.159   1.897   3.895
 2276SOL    HW1 2247   2.208   1.981   3.874
 2276SOL    HW2 2248   2.221   1.832   3.940
 2280SOL     OW 2249   2.894   2.411   3.740
 2280SOL    HW1 2250   2.853   2.493   3.701
 2280SOL    HW2 2251   2.958   2.437   3.813
 2286SOL     OW 2252   3.252   2.437   3.802
 2286SOL    HW1 2253   3.198   2.416   3.883
 2286SOL    HW2 2254   3.343   2.396   3.811
 2287SOL     OW 2255   2.389   2.118   4.052
 2287SOL    HW1 2256   2.416   2.059   3.977
 2287SOL    HW2 2257   2.389   2.213   4.021
 2297SOL     OW 2258   3.165   2.700   3.766
 2297SOL    HW1 2259   3.199   2.607   3.781
 2297SOL    HW2 2260   3.183   2.727   3.671
 2299SOL     OW 2261   2.677   2.434   4.049
 2299SOL    HW1 2262   2.684   2.345   4.003
 2299SOL    HW2 2263   2.583   2.468   4.041
 2300SOL     OW 2264   2.335   2.362   3.915
 2300SOL    HW1 2265   2.396   2.442   3.919
 2300SOL    HW2 2266   2.240   2.393   3.922
 2314SOL     OW 2267   1.937   2.207   3.757
 2314SOL    HW1 2268   1.845   2.179   3.728
 2314SOL    HW2 2269   1.968   2.284   3.701
 2319SOL     OW 2270   2.721   3.236   3.740
 2319SOL    HW1 2271   2.675   3.251   3.828
 2319SOL    HW2 2272   2.765   3.321   3.710
 2322SOL     OW 2273   2.945   2.846   3.811
 2322SOL    HW1 2274   2.922   2.899   3.729
 2322SOL    HW2 2275   3.026   2.790   3.792
 2344SOL     OW 2276   2.179   3.975   1.801
 2344SOL    HW1 2277   2.250   4.046   1.807
 2344SOL    HW2 2278   2.091   4.014   1.829
 2382SOL     OW 2279   2.875   3.829   1.770
 2382SOL    HW1 2280   2.881   3.914   1.718
 2382SOL    HW2 2281   2.907   3.753   1.713
 2383SOL     OW 2282   2.366   3.774   1.740
 2383SOL    HW1 2283   2.324   3.717   1.670
 2383SOL    HW2 2284   2.300   3.843   1.772
 2440SOL     OW 2285   2.671   3.728   2.364
 2440SOL    HW1 2286   2.711   3.819   2.355
 2440SOL    HW2 2287   2.571   3.736   2.370
 2450SOL     OW 2288   2.412   3.920   2.747
 2450SOL    HW1 2289   2.407   3.915   2.847
 2450SOL    HW2 2290   2.414   4.016   2.718
 2456SOL     OW 2291   2.476   3.846   1.979
 2456SOL    HW1 2292   2.574   3.824   1.986
 2456SOL    HW2 2293   2.445   3.829   1.886
 2460SOL     OW 2294   2.401   3.788   2.374
 2460SOL    HW1 2295   2.320   3.789   2.432
 2460SOL    HW2 2296   2.404   3.871   2.319
 2461SOL     OW 2297   2.159   3.759   2.033
 2461SOL    HW1 2298   2.208   3.843   2.012
 2461SOL    HW2 2299   2.221   3.694   2.078
 2462SOL     OW 2300   2.797   3.960   2.342
 2462SOL    HW1 2301   2.749   4.001   2.264
 2462SOL    HW2 2302   2.896   3.958   2.323
 2466SOL     OW 2303   2.423   3.946   3.009
 2466SOL    HW1 2304   2.461   3.862   3.046
 2466SOL    HW2 2305   2.335   3.965   3.053
 2468SOL     OW 2306   2.879   3.763   2.615
 2468SOL    HW1 2307   2.807   3.768   2.546
 2468SOL    HW2 2308   2.855   3.694   2.684
 2472SOL     OW 2309   2.389   3.980   2.190
 2472SOL    HW1 2310   2.416   3.921   2.115
 2472SOL    HW2 2311   2.389   4.075   2.159
 2487SOL     OW 2312   2.169   3.787   2.480
 2487SOL    HW1 2313   2.158   3.881   2.513
 2487SOL    HW2 2314   2.164   3.724   2.557
 2503SOL     OW 2315   2.125   4.050   2.582
 2503SOL    HW1 2316   2.046   4.101   2.548
 2503SOL    HW2 2317   2.116   4.035   2.680
 2511SOL     OW 2318   1.934   3.890   2.180
 2511SOL    HW1 2319   1.917   3.973   2.126
 2511SOL    HW2 2320   2.024   3.853   2.158
 2522SOL     OW 2321   2.863   3.758   3.016
 2522SOL    HW1 2322   2.800   3.686   2.985
 2522SOL    HW2 2323   2.956   3.722   3.016
 2523SOL     OW 2324   3.214   3.776   2.030
 2523SOL    HW1 2325   3.249   3.735   1.946
 2523SOL    HW2 2326   3.124   3.738   2.050
 2597SOL     OW 2327   3.854   1.821   1.571
 2597SOL    HW1 2328   3.844   1.806   1.670
 2597SOL    HW2 2329   3.768   1.857   1.535
 2646SOL     OW 2330   3.854   1.794   1.851
 2646SOL    HW1 2331   3.813   1.720   1.904
 2646SOL    HW2 2332   3.918   1.845   1.909
 2680SOL     OW 2333   3.955   1.713   2.345
 2680SOL    HW1 2334   3.989   1.790   2.399
 2680SOL    HW2 2335   3.999   1.713   2.255
 2686SOL     OW 2336   3.751   1.596   1.979
 2686SOL    HW1 2337   3.732   1.500   2.000
 2686SOL    HW2 2338   3.718   1.654   2.054
 2731SOL     OW 2339   3.732   1.326   2.062
 2731SOL    HW1 2340   3.639   1.347   2.031
 2731SOL    HW2 2341   3.742   1.227   2.075
 2732SOL     OW 2342   3.812   1.801   2.789
 2732SOL    HW1 2343   3.770   1.715   2.762
 2732SOL    HW2 2344   3.906   1.804   2.755
 2828SOL     OW 2345   3.837   2.599   1.597
 2828SOL    HW1 2346   3.925   2.586   1.642
 2828SOL    HW2 2347   3.824   2.696   1.575
 2849SOL     OW 2348   3.802   2.418   1.386
 2849SOL    HW1 2349   3.894   2.417   1.345
 2849SOL    HW2 2350   3.796   2.492   1.453
 2875SOL     OW 2351   3.913   2.382   1.722
 2875SOL    HW1 2352   3.972   2.342   1.652
 2875SOL    HW2 2353   3.855   2.453   1.681
 2891SOL     OW 2354   3.829   2.875   1.726
 2891SOL    HW1 2355   3.752   2.842   1.780
 2891SOL    HW2 2356   3.914   2.845   1.768
 2908SOL     OW 2357   3.954   2.490   1.975
 2908SOL    HW1 2358   3.861   2.488   2.012
 2908SOL    HW2 2359   3.955   2.451   1.883
 2909SOL     OW 2360   3.949   2.137   2.858
 2909SOL    HW1 2361   3.984   2.120   2.950
 2909SOL    HW2 2362   3.861   2.092   2.846
 2910SOL     OW 2363   3.743   2.230   2.509
 2910SOL    HW1 2364   3.661   2.273   2.548
 2910SOL    HW2 2365   3.715   2.157   2.446
 2922SOL     OW 2366   3.846   2.505   2.425
 2922SOL    HW1 2367   3.801   2.417   2.442
 2922SOL    HW2 2368   3.845   2.559   2.509
 2930SOL     OW 2369   3.800   2.673   2.651
 2930SOL    HW1 2370   3.899   2.661   2.660
 2930SOL    HW2 2371   3.776   2.768   2.672
 2944SOL     OW 2372   4.021   1.897   2.033
 2944SOL    HW1 2373   4.070   1.981   2.012
 2944SOL    HW2 2374   4.083   1.832   2.078
 2946SOL     OW 2375   3.802   2.418   3.248
 2946SOL    HW1 2376   3.894   2.417   3.207
 2946SOL    HW2 2377   3.796   2.492   3.315
 2962SOL     OW 2378   4.031   1.925   2.480
 2962SOL    HW1 2379   4.020   2.019   2.513
 2962SOL    HW2 2380   4.026   1.862   2.557
 2968SOL     OW 2381   3.732   3.188   2.062
 2968SOL    HW1 2382   3.639   3.209   2.031
 2968SOL    HW2 2383   3.742   3.089   2.075
 2971SOL     OW 2384   3.764   2.406   2.976
 2971SOL    HW1 2385   3.849   2.373   2.935
 2971SOL    HW2 2386   3.777   2.421   3.074
 2983SOL     OW 2387   3.987   2.188   2.582
 2983SOL    HW1 2388   3.908   2.239   2.548
 2983SOL    HW2 2389   3.978   2.173   2.680
 2990SOL     OW 2390   3.799   2.207   1.895
 2990SOL    HW1 2391   3.707   2.179   1.866
 2990SOL    HW2 2392   3.830   2.284   1.839
 2991SOL     OW 2393   3.796   2.028   2.180
 2991SOL    HW1 2394   3.779   2.111   2.126
 2991SOL    HW2 2395   3.886   1.991   2.158
 2998SOL     OW 2396   3.803   3.102   2.515
 2998SOL    HW1 2397   3.802   3.055   2.603
 2998SOL    HW2 2398   3.885   3.074   2.464
 3004SOL     OW 2399   3.763   2.939   2.162
 3004SOL    HW1 2400   3.862   2.928   2.153
 3004SOL    HW2 2401   3.723   2.853   2.194
   4.59733   4.59733   4.59733
