; mobley_6359156_GMX.itp created by acpype (v: 2023.10.27) on Thu May 21 00:20:39 2026

[ atomtypes ]
;name   bond_type     mass     charge   ptype   sigma         epsilon       Amb
 ca       ca          0.00000  0.00000   A     3.31521e-01   4.13379e-01 ; 1.86  0.0988
 cp       cp          0.00000  0.00000   A     3.31521e-01   4.13379e-01 ; 1.86  0.0988
 cl       cl          0.00000  0.00000   A     3.46595e-01   1.10374e+00 ; 1.95  0.2638
 ha       ha          0.00000  0.00000   A     2.62548e-01   6.73624e-02 ; 1.47  0.0161

[ moleculetype ]
;name            nrexcl
 mobley_6359156   3

[ atoms ]
;   nr  type  resi  res  atom  cgnr     charge      mass       ; qtot   bond_type
     1   ca     1   MOL    C1    1    -0.122000     12.01000 ; qtot -0.122
     2   ca     1   MOL    C2    2    -0.132000     12.01000 ; qtot -0.254
     3   ca     1   MOL    C3    3    -0.132000     12.01000 ; qtot -0.386
     4   ca     1   MOL    C4    4    -0.106000     12.01000 ; qtot -0.492
     5   ca     1   MOL    C5    5    -0.106000     12.01000 ; qtot -0.598
     6   ca     1   MOL    C6    6    -0.116000     12.01000 ; qtot -0.714
     7   ca     1   MOL    C7    7    -0.121000     12.01000 ; qtot -0.835
     8   ca     1   MOL    C8    8    -0.106000     12.01000 ; qtot -0.941
     9   cp     1   MOL    C9    9    -0.052000     12.01000 ; qtot -0.993
    10   cp     1   MOL   C10   10    -0.023000     12.01000 ; qtot -1.016
    11   ca     1   MOL   C11   11     0.013400     12.01000 ; qtot -1.003
    12   ca     1   MOL   C12   12     0.027400     12.01000 ; qtot -0.975
    13   cl     1   MOL   CL1   13    -0.087400     35.45000 ; qtot -1.063
    14   cl     1   MOL   CL2   14    -0.078400     35.45000 ; qtot -1.141
    15   ha     1   MOL    H1   15     0.133000      1.00800 ; qtot -1.008
    16   ha     1   MOL    H2   16     0.134000      1.00800 ; qtot -0.874
    17   ha     1   MOL    H3   17     0.134000      1.00800 ; qtot -0.740
    18   ha     1   MOL    H4   18     0.138000      1.00800 ; qtot -0.602
    19   ha     1   MOL    H5   19     0.138000      1.00800 ; qtot -0.464
    20   ha     1   MOL    H6   20     0.152000      1.00800 ; qtot -0.312
    21   ha     1   MOL    H7   21     0.153000      1.00800 ; qtot -0.159
    22   ha     1   MOL    H8   22     0.159000      1.00800 ; qtot 0.000

[ bonds ]
;   ai     aj funct   r             k
     1      2   1    1.3986e-01    2.9644e+05 ;     C1 - C2    
     1      3   1    1.3986e-01    2.9644e+05 ;     C1 - C3    
     1     15   1    1.0860e-01    3.0183e+05 ;     C1 - H1    
     2      4   1    1.3986e-01    2.9644e+05 ;     C2 - C4    
     2     16   1    1.0860e-01    3.0183e+05 ;     C2 - H2    
     3      5   1    1.3986e-01    2.9644e+05 ;     C3 - C5    
     3     17   1    1.0860e-01    3.0183e+05 ;     C3 - H3    
     4      9   1    1.4056e-01    2.8959e+05 ;     C4 - C9    
     4     18   1    1.0860e-01    3.0183e+05 ;     C4 - H4    
     5      9   1    1.4056e-01    2.8959e+05 ;     C5 - C9    
     5     19   1    1.0860e-01    3.0183e+05 ;     C5 - H5    
     6      7   1    1.3986e-01    2.9644e+05 ;     C6 - C7    
     6     11   1    1.3986e-01    2.9644e+05 ;     C6 - C11   
     6     20   1    1.0860e-01    3.0183e+05 ;     C6 - H6    
     7     12   1    1.3986e-01    2.9644e+05 ;     C7 - C12   
     7     21   1    1.0860e-01    3.0183e+05 ;     C7 - H7    
     8     10   1    1.4056e-01    2.8959e+05 ;     C8 - C10   
     8     11   1    1.3986e-01    2.9644e+05 ;     C8 - C11   
     8     22   1    1.0860e-01    3.0183e+05 ;     C8 - H8    
     9     10   1    1.4829e-01    2.2541e+05 ;     C9 - C10   
    10     12   1    1.4056e-01    2.8959e+05 ;    C10 - C12   
    11     13   1    1.7572e-01    1.5730e+05 ;    C11 - CL1   
    12     14   1    1.7572e-01    1.5730e+05 ;    C12 - CL2   

[ pairs ]
;   ai     aj    funct
     1      9      1 ;     C1 - C9    
     1     18      1 ;     C1 - H4    
     1     19      1 ;     C1 - H5    
     2      5      1 ;     C2 - C5    
     2     10      1 ;     C2 - C10   
     2     17      1 ;     C2 - H3    
     3      4      1 ;     C3 - C4    
     3     10      1 ;     C3 - C10   
     3     16      1 ;     C3 - H2    
     4      8      1 ;     C4 - C8    
     4     12      1 ;     C4 - C12   
     4     19      1 ;     C4 - H5    
     5      8      1 ;     C5 - C8    
     5     12      1 ;     C5 - C12   
     5     18      1 ;     C5 - H4    
     6     10      1 ;     C6 - C10   
     6     14      1 ;     C6 - CL2   
     6     22      1 ;     C6 - H8    
     7      8      1 ;     C7 - C8    
     7      9      1 ;     C7 - C9    
     7     13      1 ;     C7 - CL1   
     8     14      1 ;     C8 - CL2   
     8     20      1 ;     C8 - H6    
     9     11      1 ;     C9 - C11   
     9     14      1 ;     C9 - CL2   
     9     16      1 ;     C9 - H2    
     9     17      1 ;     C9 - H3    
     9     22      1 ;     C9 - H8    
    10     13      1 ;    C10 - CL1   
    10     18      1 ;    C10 - H4    
    10     19      1 ;    C10 - H5    
    10     21      1 ;    C10 - H7    
    11     12      1 ;    C11 - C12   
    11     21      1 ;    C11 - H7    
    12     20      1 ;    C12 - H6    
    12     22      1 ;    C12 - H8    
    13     20      1 ;    CL1 - H6    
    13     22      1 ;    CL1 - H8    
    14     21      1 ;    CL2 - H7    
    15      4      1 ;     H1 - C4    
    15      5      1 ;     H1 - C5    
    15     16      1 ;     H1 - H2    
    15     17      1 ;     H1 - H3    
    16     18      1 ;     H2 - H4    
    17     19      1 ;     H3 - H5    
    20     21      1 ;     H6 - H7    

[ angles ]
;   ai     aj     ak    funct   theta         cth
     1      2      4      1    1.2002e+02    5.3279e+02 ;     C1 - C2     - C4    
     1      2     16      1    1.1988e+02    3.7572e+02 ;     C1 - C2     - H2    
     1      3      5      1    1.2002e+02    5.3279e+02 ;     C1 - C3     - C5    
     1      3     17      1    1.1988e+02    3.7572e+02 ;     C1 - C3     - H3    
     2      1      3      1    1.2002e+02    5.3279e+02 ;     C2 - C1     - C3    
     2      1     15      1    1.1988e+02    3.7572e+02 ;     C2 - C1     - H1    
     2      4      9      1    1.2073e+02    5.2995e+02 ;     C2 - C4     - C9    
     2      4     18      1    1.1988e+02    3.7572e+02 ;     C2 - C4     - H4    
     3      1     15      1    1.1988e+02    3.7572e+02 ;     C3 - C1     - H1    
     3      5      9      1    1.2073e+02    5.2995e+02 ;     C3 - C5     - C9    
     3      5     19      1    1.1988e+02    3.7572e+02 ;     C3 - C5     - H5    
     4      2     16      1    1.1988e+02    3.7572e+02 ;     C4 - C2     - H2    
     4      9      5      1    1.1841e+02    5.3379e+02 ;     C4 - C9     - C5    
     4      9     10      1    1.2110e+02    5.1296e+02 ;     C4 - C9     - C10   
     5      3     17      1    1.1988e+02    3.7572e+02 ;     C5 - C3     - H3    
     5      9     10      1    1.2110e+02    5.1296e+02 ;     C5 - C9     - C10   
     6      7     12      1    1.2002e+02    5.3279e+02 ;     C6 - C7     - C12   
     6      7     21      1    1.1988e+02    3.7572e+02 ;     C6 - C7     - H7    
     6     11      8      1    1.2002e+02    5.3279e+02 ;     C6 - C11    - C8    
     6     11     13      1    1.1938e+02    5.3605e+02 ;     C6 - C11    - CL1   
     7      6     11      1    1.2002e+02    5.3279e+02 ;     C7 - C6     - C11   
     7      6     20      1    1.1988e+02    3.7572e+02 ;     C7 - C6     - H6    
     7     12     10      1    1.2073e+02    5.2995e+02 ;     C7 - C12    - C10   
     7     12     14      1    1.1938e+02    5.3605e+02 ;     C7 - C12    - CL2   
     8     10      9      1    1.2110e+02    5.1296e+02 ;     C8 - C10    - C9    
     8     10     12      1    1.1841e+02    5.3379e+02 ;     C8 - C10    - C12   
     8     11     13      1    1.1938e+02    5.3605e+02 ;     C8 - C11    - CL1   
     9      4     18      1    1.1982e+02    3.7430e+02 ;     C9 - C4     - H4    
     9      5     19      1    1.1982e+02    3.7430e+02 ;     C9 - C5     - H5    
     9     10     12      1    1.2110e+02    5.1296e+02 ;     C9 - C10    - C12   
    10      8     11      1    1.2073e+02    5.2995e+02 ;    C10 - C8     - C11   
    10      8     22      1    1.1982e+02    3.7430e+02 ;    C10 - C8     - H8    
    10     12     14      1    1.2044e+02    5.3304e+02 ;    C10 - C12    - CL2   
    11      6     20      1    1.1988e+02    3.7572e+02 ;    C11 - C6     - H6    
    11      8     22      1    1.1988e+02    3.7572e+02 ;    C11 - C8     - H8    
    12      7     21      1    1.1988e+02    3.7572e+02 ;    C12 - C7     - H7    

[ dihedrals ] ; propers
; for gromacs 4.5 or higher, using funct 9
;    i      j      k      l   func   phase     kd      pn
     1      2      4      9      9   180.00  15.16700   2 ;     C1-    C2-    C4-    C9
     1      2      4     18      9   180.00  15.16700   2 ;     C1-    C2-    C4-    H4
     1      3      5      9      9   180.00  15.16700   2 ;     C1-    C3-    C5-    C9
     1      3      5     19      9   180.00  15.16700   2 ;     C1-    C3-    C5-    H5
     2      1      3      5      9   180.00  15.16700   2 ;     C2-    C1-    C3-    C5
     2      1      3     17      9   180.00  15.16700   2 ;     C2-    C1-    C3-    H3
     2      4      9      5      9   180.00  15.16700   2 ;     C2-    C4-    C9-    C5
     2      4      9     10      9   180.00  15.16700   2 ;     C2-    C4-    C9-   C10
     3      1      2      4      9   180.00  15.16700   2 ;     C3-    C1-    C2-    C4
     3      1      2     16      9   180.00  15.16700   2 ;     C3-    C1-    C2-    H2
     3      5      9      4      9   180.00  15.16700   2 ;     C3-    C5-    C9-    C4
     3      5      9     10      9   180.00  15.16700   2 ;     C3-    C5-    C9-   C10
     4      9      5     19      9   180.00  15.16700   2 ;     C4-    C9-    C5-    H5
     4      9     10      8      9   180.00   3.20076   2 ;     C4-    C9-   C10-    C8
     4      9     10     12      9   180.00   3.20076   2 ;     C4-    C9-   C10-   C12
     5      9      4     18      9   180.00  15.16700   2 ;     C5-    C9-    C4-    H4
     5      9     10      8      9   180.00   3.20076   2 ;     C5-    C9-   C10-    C8
     5      9     10     12      9   180.00   3.20076   2 ;     C5-    C9-   C10-   C12
     6      7     12     10      9   180.00  15.16700   2 ;     C6-    C7-   C12-   C10
     6      7     12     14      9   180.00  15.16700   2 ;     C6-    C7-   C12-   CL2
     6     11      8     10      9   180.00  15.16700   2 ;     C6-   C11-    C8-   C10
     6     11      8     22      9   180.00  15.16700   2 ;     C6-   C11-    C8-    H8
     7      6     11      8      9   180.00  15.16700   2 ;     C7-    C6-   C11-    C8
     7      6     11     13      9   180.00  15.16700   2 ;     C7-    C6-   C11-   CL1
     7     12     10      8      9   180.00  15.16700   2 ;     C7-   C12-   C10-    C8
     7     12     10      9      9   180.00  15.16700   2 ;     C7-   C12-   C10-    C9
     8     10     12     14      9   180.00  15.16700   2 ;     C8-   C10-   C12-   CL2
     8     11      6     20      9   180.00  15.16700   2 ;     C8-   C11-    C6-    H6
     9      4      2     16      9   180.00  15.16700   2 ;     C9-    C4-    C2-    H2
     9      5      3     17      9   180.00  15.16700   2 ;     C9-    C5-    C3-    H3
     9     10      8     11      9   180.00  15.16700   2 ;     C9-   C10-    C8-   C11
     9     10      8     22      9   180.00  15.16700   2 ;     C9-   C10-    C8-    H8
     9     10     12     14      9   180.00  15.16700   2 ;     C9-   C10-   C12-   CL2
    10      8     11     13      9   180.00  15.16700   2 ;    C10-    C8-   C11-   CL1
    10      9      4     18      9   180.00  15.16700   2 ;    C10-    C9-    C4-    H4
    10      9      5     19      9   180.00  15.16700   2 ;    C10-    C9-    C5-    H5
    10     12      7     21      9   180.00  15.16700   2 ;    C10-   C12-    C7-    H7
    11      6      7     12      9   180.00  15.16700   2 ;    C11-    C6-    C7-   C12
    11      6      7     21      9   180.00  15.16700   2 ;    C11-    C6-    C7-    H7
    11      8     10     12      9   180.00  15.16700   2 ;    C11-    C8-   C10-   C12
    12      7      6     20      9   180.00  15.16700   2 ;    C12-    C7-    C6-    H6
    12     10      8     22      9   180.00  15.16700   2 ;    C12-   C10-    C8-    H8
    13     11      6     20      9   180.00  15.16700   2 ;    CL1-   C11-    C6-    H6
    13     11      8     22      9   180.00  15.16700   2 ;    CL1-   C11-    C8-    H8
    14     12      7     21      9   180.00  15.16700   2 ;    CL2-   C12-    C7-    H7
    15      1      2      4      9   180.00  15.16700   2 ;     H1-    C1-    C2-    C4
    15      1      2     16      9   180.00  15.16700   2 ;     H1-    C1-    C2-    H2
    15      1      3      5      9   180.00  15.16700   2 ;     H1-    C1-    C3-    C5
    15      1      3     17      9   180.00  15.16700   2 ;     H1-    C1-    C3-    H3
    16      2      4     18      9   180.00  15.16700   2 ;     H2-    C2-    C4-    H4
    17      3      5     19      9   180.00  15.16700   2 ;     H3-    C3-    C5-    H5
    20      6      7     21      9   180.00  15.16700   2 ;     H6-    C6-    C7-    H7

[ dihedrals ] ; impropers
; treated as propers in GROMACS to use correct AMBER analytical function
;    i      j      k      l   func   phase     kd      pn
     1      4      2     16      4   180.00   4.60240   2 ;     C1-    C4-    C2-    H2
     1      5      3     17      4   180.00   4.60240   2 ;     C1-    C5-    C3-    H3
     2      9      4     18      4   180.00   4.60240   2 ;     C2-    C9-    C4-    H4
     3      9      5     19      4   180.00   4.60240   2 ;     C3-    C9-    C5-    H5
     4      5      9     10      4   180.00   4.60240   2 ;     C4-    C5-    C9-   C10
     6      8     11     13      4   180.00   4.60240   2 ;     C6-    C8-   C11-   CL1
     6     12      7     21      4   180.00   4.60240   2 ;     C6-   C12-    C7-    H7
     7     11      6     20      4   180.00   4.60240   2 ;     C7-   C11-    C6-    H6
     7     14     12     10      4   180.00   4.60240   2 ;     C7-   CL2-   C12-   C10
     8     12     10      9      4   180.00   4.60240   2 ;     C8-   C12-   C10-    C9
    11     10      8     22      4   180.00   4.60240   2 ;    C11-   C10-    C8-    H8
    15      1      3      2      4   180.00   4.60240   2 ;     H1-    C1-    C3-    C2
