mobley_2402487_GMX.gro created by acpype (v: 2023.10.27) on Thu May 21 00:22:14 2026
 2387
    1MOL     C1    1   2.696   2.632   2.552
    1MOL     C2    2   2.485   2.514   2.467
    1MOL     C3    3   2.929   2.781   2.793
    1MOL     C4    4   2.159   2.348   2.480
    1MOL     C5    5   2.564   2.566   2.584
    1MOL     C6    6   2.880   2.740   2.655
    1MOL     C7    7   2.282   2.404   2.413
    1MOL     O1    8   2.744   2.645   2.441
    1MOL     O2    9   2.520   2.519   2.350
    1MOL     O3   10   2.753   2.675   2.669
    1MOL     O4   11   2.369   2.459   2.513
    1MOL     H1   12   3.026   2.831   2.786
    1MOL     H2   13   2.858   2.849   2.841
    1MOL     H3   14   2.939   2.693   2.858
    1MOL     H4   15   2.091   2.305   2.406
    1MOL     H5   16   2.186   2.270   2.552
    1MOL     H6   17   2.106   2.426   2.536
    1MOL     H7   18   2.584   2.482   2.651
    1MOL     H8   19   2.502   2.641   2.636
    1MOL     H9   20   2.950   2.670   2.608
    1MOL    H10   21   2.868   2.828   2.591
    1MOL    H11   22   2.255   2.483   2.343
    1MOL    H12   23   2.336   2.325   2.360
   97SOL     OW   24   1.592   1.629   1.625
   97SOL    HW1   25   1.619   1.663   1.535
   97SOL    HW2   26   1.671   1.591   1.671
  127SOL     OW   27   1.859   1.518   1.605
  127SOL    HW1   28   1.873   1.545   1.510
  127SOL    HW2   29   1.942   1.540   1.658
  163SOL     OW   30   1.650   1.720   1.394
  163SOL    HW1   31   1.703   1.730   1.310
  163SOL    HW2   32   1.623   1.810   1.428
  219SOL     OW   33   1.555   1.511   2.565
  219SOL    HW1   34   1.498   1.495   2.646
  219SOL    HW2   35   1.496   1.521   2.485
  227SOL     OW   36   1.460   1.505   3.201
  227SOL    HW1   37   1.484   1.599   3.227
  227SOL    HW2   38   1.444   1.451   3.283
  238SOL     OW   39   1.842   1.767   2.221
  238SOL    HW1   40   1.896   1.738   2.301
  238SOL    HW2   41   1.872   1.857   2.192
  241SOL     OW   42   1.641   1.108   2.294
  241SOL    HW1   43   1.727   1.110   2.242
  241SOL    HW2   44   1.655   1.155   2.382
  250SOL     OW   45   1.466   1.417   2.815
  250SOL    HW1   46   1.407   1.423   2.895
  250SOL    HW2   47   1.451   1.329   2.769
  251SOL     OW   48   1.667   1.714   2.434
  251SOL    HW1   49   1.626   1.691   2.346
  251SOL    HW2   50   1.649   1.640   2.499
  254SOL     OW   51   1.576   1.662   2.169
  254SOL    HW1   52   1.665   1.708   2.172
  254SOL    HW2   53   1.555   1.638   2.074
  268SOL     OW   54   1.795   1.066   2.735
  268SOL    HW1   55   1.733   1.051   2.659
  268SOL    HW2   56   1.743   1.077   2.820
  273SOL     OW   57   1.111   1.776   2.099
  273SOL    HW1   58   1.051   1.714   2.149
  273SOL    HW2   59   1.142   1.732   2.014
  275SOL     OW   60   1.632   1.377   1.943
  275SOL    HW1   61   1.600   1.471   1.933
  275SOL    HW2   62   1.556   1.314   1.931
  293SOL     OW   63   1.227   1.570   2.655
  293SOL    HW1   64   1.248   1.644   2.590
  293SOL    HW2   65   1.295   1.570   2.728
  295SOL     OW   66   1.271   1.797   2.453
  295SOL    HW1   67   1.315   1.861   2.389
  295SOL    HW2   68   1.221   1.849   2.523
  305SOL     OW   69   1.664   1.280   2.519
  305SOL    HW1   70   1.763   1.288   2.533
  305SOL    HW2   71   1.619   1.364   2.550
  310SOL     OW   72   1.592   1.629   3.487
  310SOL    HW1   73   1.619   1.663   3.397
  310SOL    HW2   74   1.671   1.591   3.533
  312SOL     OW   75   1.638   1.099   2.941
  312SOL    HW1   76   1.643   1.180   3.000
  312SOL    HW2   77   1.552   1.101   2.890
  322SOL     OW   78   1.272   1.445   3.004
  322SOL    HW1   79   1.319   1.458   3.091
  322SOL    HW2   80   1.206   1.371   3.013
  340SOL     OW   81   1.859   1.518   3.467
  340SOL    HW1   82   1.873   1.545   3.372
  340SOL    HW2   83   1.942   1.540   3.520
  365SOL     OW   84   1.759   1.747   3.016
  365SOL    HW1   85   1.820   1.777   2.943
  365SOL    HW2   86   1.721   1.658   2.994
  366SOL     OW   87   1.252   1.731   2.990
  366SOL    HW1   88   1.336   1.736   2.936
  366SOL    HW2   89   1.229   1.635   3.008
  370SOL     OW   90   1.388   1.573   2.339
  370SOL    HW1   91   1.455   1.585   2.265
  370SOL    HW2   92   1.348   1.662   2.362
  375SOL     OW   93   1.650   1.720   3.256
  375SOL    HW1   94   1.703   1.730   3.172
  375SOL    HW2   95   1.623   1.810   3.290
  381SOL     OW   96   1.504   1.607   1.906
  381SOL    HW1   97   1.412   1.644   1.913
  381SOL    HW2   98   1.542   1.627   1.816
  383SOL     OW   99   1.614   1.292   3.151
  383SOL    HW1  100   1.674   1.295   3.231
  383SOL    HW2  101   1.539   1.356   3.164
  396SOL     OW  102   1.493   1.767   2.821
  396SOL    HW1  103   1.526   1.831   2.752
  396SOL    HW2  104   1.559   1.761   2.896
  409SOL     OW  105   1.861   1.569   2.713
  409SOL    HW1  106   1.790   1.557   2.643
  409SOL    HW2  107   1.862   1.490   2.773
  415SOL     OW  108   1.705   1.487   2.966
  415SOL    HW1  109   1.612   1.462   2.939
  415SOL    HW2  110   1.731   1.437   3.048
  611SOL     OW  111   1.594   1.976   1.480
  611SOL    HW1  112   1.576   2.043   1.408
  611SOL    HW2  113   1.591   2.022   1.569
  619SOL     OW  114   1.293   3.090   1.423
  619SOL    HW1  115   1.330   3.017   1.365
  619SOL    HW2  116   1.345   3.095   1.508
  631SOL     OW  117   1.394   2.331   1.674
  631SOL    HW1  118   1.374   2.374   1.762
  631SOL    HW2  119   1.472   2.269   1.683
  638SOL     OW  120   1.719   2.447   1.831
  638SOL    HW1  121   1.693   2.536   1.795
  638SOL    HW2  122   1.717   2.379   1.758
  655SOL     OW  123   1.547   2.084   1.729
  655SOL    HW1  124   1.542   2.121   1.821
  655SOL    HW2  125   1.475   2.015   1.717
  658SOL     OW  126   1.351   2.452   1.433
  658SOL    HW1  127   1.379   2.409   1.518
  658SOL    HW2  128   1.376   2.548   1.434
  680SOL     OW  129   1.754   3.085   1.588
  680SOL    HW1  130   1.845   3.046   1.575
  680SOL    HW2  131   1.762   3.181   1.612
  682SOL     OW  132   1.592   3.491   1.625
  682SOL    HW1  133   1.619   3.525   1.535
  682SOL    HW2  134   1.671   3.453   1.671
  684SOL     OW  135   1.638   2.961   1.079
  684SOL    HW1  136   1.643   3.042   1.138
  684SOL    HW2  137   1.552   2.963   1.028
  698SOL     OW  138   1.587   2.641   1.670
  698SOL    HW1  139   1.495   2.679   1.665
  698SOL    HW2  140   1.647   2.688   1.605
  707SOL     OW  141   1.728   2.797   1.854
  707SOL    HW1  142   1.682   2.790   1.765
  707SOL    HW2  143   1.666   2.841   1.920
  712SOL     OW  144   1.859   3.380   1.605
  712SOL    HW1  145   1.873   3.407   1.510
  712SOL    HW2  146   1.942   3.402   1.658
  719SOL     OW  147   1.138   2.242   1.678
  719SOL    HW1  148   1.093   2.305   1.742
  719SOL    HW2  149   1.231   2.273   1.661
  727SOL     OW  150   1.369   2.812   1.660
  727SOL    HW1  151   1.408   2.901   1.680
  727SOL    HW2  152   1.379   2.792   1.563
  729SOL     OW  153   1.657   2.466   1.206
  729SOL    HW1  154   1.619   2.397   1.268
  729SOL    HW2  155   1.739   2.430   1.162
  756SOL     OW  156   1.614   3.154   1.289
  756SOL    HW1  157   1.674   3.157   1.369
  756SOL    HW2  158   1.539   3.218   1.302
  760SOL     OW  159   1.709   2.247   1.381
  760SOL    HW1  160   1.782   2.316   1.385
  760SOL    HW2  161   1.737   2.172   1.322
  765SOL     OW  162   1.440   2.718   1.398
  765SOL    HW1  163   1.383   2.770   1.335
  765SOL    HW2  164   1.536   2.730   1.374
  771SOL     OW  165   1.450   3.082   1.633
  771SOL    HW1  166   1.441   3.072   1.732
  771SOL    HW2  167   1.546   3.075   1.607
  773SOL     OW  168   1.674   2.745   1.254
  773SOL    HW1  169   1.647   2.656   1.217
  773SOL    HW2  170   1.675   2.813   1.181
  776SOL     OW  171   1.777   2.204   1.642
  776SOL    HW1  172   1.760   2.235   1.548
  776SOL    HW2  173   1.693   2.167   1.680
  777SOL     OW  174   1.730   2.796   1.517
  777SOL    HW1  175   1.768   2.887   1.532
  777SOL    HW2  176   1.722   2.779   1.418
  786SOL     OW  177   1.824   2.054   1.227
  786SOL    HW1  178   1.820   1.964   1.271
  786SOL    HW2  179   1.827   2.043   1.128
  804SOL     OW  180   1.555   3.373   2.565
  804SOL    HW1  181   1.498   3.357   2.646
  804SOL    HW2  182   1.496   3.383   2.485
  805SOL     OW  183   1.135   2.565   2.579
  805SOL    HW1  184   1.192   2.643   2.554
  805SOL    HW2  185   1.075   2.591   2.655
  806SOL     OW  186   1.755   2.469   2.093
  806SOL    HW1  187   1.743   2.456   1.994
  806SOL    HW2  188   1.725   2.388   2.142
  812SOL     OW  189   1.460   3.367   3.201
  812SOL    HW1  190   1.484   3.461   3.227
  812SOL    HW2  191   1.444   3.313   3.283
  814SOL     OW  192   1.603   2.309   2.599
  814SOL    HW1  193   1.529   2.355   2.549
  814SOL    HW2  194   1.654   2.377   2.652
  821SOL     OW  195   1.594   1.976   3.342
  821SOL    HW1  196   1.576   2.043   3.270
  821SOL    HW2  197   1.591   2.022   3.431
  823SOL     OW  198   1.842   3.629   2.221
  823SOL    HW1  199   1.896   3.600   2.301
  823SOL    HW2  200   1.872   3.719   2.192
  825SOL     OW  201   1.689   2.784   2.474
  825SOL    HW1  202   1.784   2.755   2.482
  825SOL    HW2  203   1.681   2.849   2.399
  826SOL     OW  204   1.641   2.970   2.294
  826SOL    HW1  205   1.727   2.972   2.242
  826SOL    HW2  206   1.655   3.017   2.382
  829SOL     OW  207   1.293   3.090   3.285
  829SOL    HW1  208   1.330   3.017   3.227
  829SOL    HW2  209   1.345   3.095   3.370
  832SOL     OW  210   1.525   2.861   2.052
  832SOL    HW1  211   1.462   2.785   2.065
  832SOL    HW2  212   1.573   2.879   2.138
  835SOL     OW  213   1.466   3.279   2.815
  835SOL    HW1  214   1.407   3.285   2.895
  835SOL    HW2  215   1.451   3.191   2.769
  836SOL     OW  216   1.667   3.576   2.434
  836SOL    HW1  217   1.626   3.553   2.346
  836SOL    HW2  218   1.649   3.502   2.499
  838SOL     OW  219   1.281   2.207   2.806
  838SOL    HW1  220   1.195   2.157   2.793
  838SOL    HW2  221   1.343   2.153   2.862
  839SOL     OW  222   1.576   3.524   2.169
  839SOL    HW1  223   1.665   3.570   2.172
  839SOL    HW2  224   1.555   3.500   2.074
  841SOL     OW  225   1.394   2.331   3.536
  841SOL    HW1  226   1.374   2.374   3.624
  841SOL    HW2  227   1.472   2.269   3.545
  843SOL     OW  228   0.991   2.272   3.104
  843SOL    HW1  229   0.914   2.306   3.158
  843SOL    HW2  230   0.957   2.221   3.025
  844SOL     OW  231   1.041   2.563   2.291
  844SOL    HW1  232   1.067   2.559   2.387
  844SOL    HW2  233   0.956   2.512   2.277
  848SOL     OW  234   1.719   2.447   3.693
  848SOL    HW1  235   1.693   2.536   3.657
  848SOL    HW2  236   1.717   2.379   3.620
  849SOL     OW  237   1.362   3.006   2.407
  849SOL    HW1  238   1.445   2.977   2.359
  849SOL    HW2  239   1.313   3.073   2.351
  851SOL     OW  240   1.008   3.318   2.339
  851SOL    HW1  241   0.962   3.390   2.287
  851SOL    HW2  242   1.004   3.338   2.437
  853SOL     OW  243   1.795   2.928   2.735
  853SOL    HW1  244   1.733   2.913   2.659
  853SOL    HW2  245   1.743   2.939   2.820
  854SOL     OW  246   1.227   3.412   3.368
  854SOL    HW1  247   1.233   3.335   3.432
  854SOL    HW2  248   1.175   3.386   3.288
  856SOL     OW  249   1.458   2.597   2.590
  856SOL    HW1  250   1.453   2.532   2.665
  856SOL    HW2  251   1.538   2.656   2.603
  860SOL     OW  252   1.632   3.239   1.943
  860SOL    HW1  253   1.600   3.333   1.933
  860SOL    HW2  254   1.556   3.176   1.931
  862SOL     OW  255   1.400   1.969   2.288
  862SOL    HW1  256   1.376   1.932   2.198
  862SOL    HW2  257   1.499   1.985   2.292
  866SOL     OW  258   1.547   2.084   3.591
  866SOL    HW1  259   1.542   2.121   3.683
  866SOL    HW2  260   1.475   2.015   3.579
  870SOL     OW  261   1.351   2.452   3.295
  870SOL    HW1  262   1.379   2.409   3.380
  870SOL    HW2  263   1.376   2.548   3.296
  872SOL     OW  264   0.922   2.365   2.761
  872SOL    HW1  265   0.897   2.356   2.665
  872SOL    HW2  266   0.970   2.283   2.792
  874SOL     OW  267   1.434   3.050   1.903
  874SOL    HW1  268   1.466   2.974   1.960
  874SOL    HW2  269   1.342   3.077   1.933
  876SOL     OW  270   0.935   2.098   2.342
  876SOL    HW1  271   0.887   2.139   2.264
  876SOL    HW2  272   1.034   2.096   2.323
  877SOL     OW  273   1.076   2.545   3.326
  877SOL    HW1  274   0.996   2.484   3.329
  877SOL    HW2  275   1.157   2.492   3.302
  878SOL     OW  276   1.227   3.432   2.655
  878SOL    HW1  277   1.248   3.506   2.590
  878SOL    HW2  278   1.295   3.432   2.728
  880SOL     OW  279   1.271   3.659   2.453
  880SOL    HW1  280   1.315   3.723   2.389
  880SOL    HW2  281   1.221   3.711   2.523
  881SOL     OW  282   1.032   2.411   1.878
  881SOL    HW1  283   0.991   2.493   1.839
  881SOL    HW2  284   1.096   2.437   1.951
  884SOL     OW  285   0.866   2.316   2.504
  884SOL    HW1  286   0.834   2.388   2.442
  884SOL    HW2  287   0.890   2.235   2.451
  885SOL     OW  288   1.017   1.901   2.615
  885SOL    HW1  289   0.945   1.906   2.546
  885SOL    HW2  290   0.993   1.832   2.684
  886SOL     OW  291   1.429   3.035   2.729
  886SOL    HW1  292   1.374   2.951   2.722
  886SOL    HW2  293   1.455   3.064   2.637
  887SOL     OW  294   1.466   2.452   2.854
  887SOL    HW1  295   1.436   2.357   2.861
  887SOL    HW2  296   1.539   2.468   2.920
  888SOL     OW  297   1.857   2.695   2.239
  888SOL    HW1  298   1.899   2.631   2.303
  888SOL    HW2  299   1.819   2.644   2.161
  890SOL     OW  300   1.664   3.142   2.519
  890SOL    HW1  301   1.763   3.150   2.533
  890SOL    HW2  302   1.619   3.226   2.550
  891SOL     OW  303   1.390   2.437   1.940
  891SOL    HW1  304   1.336   2.416   2.021
  891SOL    HW2  305   1.481   2.396   1.949
  893SOL     OW  306   1.754   3.085   3.450
  893SOL    HW1  307   1.845   3.046   3.437
  893SOL    HW2  308   1.762   3.181   3.474
  894SOL     OW  309   1.064   3.209   3.202
  894SOL    HW1  310   0.984   3.186   3.257
  894SOL    HW2  311   1.147   3.183   3.251
  895SOL     OW  312   1.592   3.491   3.487
  895SOL    HW1  313   1.619   3.525   3.397
  895SOL    HW2  314   1.671   3.453   3.533
  896SOL     OW  315   1.111   3.057   2.962
  896SOL    HW1  316   1.071   3.101   3.043
  896SOL    HW2  317   1.070   3.094   2.879
  897SOL     OW  318   1.638   2.961   2.941
  897SOL    HW1  319   1.643   3.042   3.000
  897SOL    HW2  320   1.552   2.963   2.890
  902SOL     OW  321   1.274   2.248   3.124
  902SOL    HW1  322   1.295   2.322   3.188
  902SOL    HW2  323   1.185   2.265   3.081
  906SOL     OW  324   1.252   3.210   2.250
  906SOL    HW1  325   1.302   3.287   2.290
  906SOL    HW2  326   1.157   3.212   2.282
  907SOL     OW  327   1.272   3.307   3.004
  907SOL    HW1  328   1.319   3.320   3.091
  907SOL    HW2  329   1.206   3.233   3.013
  908SOL     OW  330   1.582   2.501   2.334
  908SOL    HW1  331   1.551   2.562   2.407
  908SOL    HW2  332   1.632   2.553   2.265
  911SOL     OW  333   1.587   2.641   3.532
  911SOL    HW1  334   1.495   2.679   3.527
  911SOL    HW2  335   1.647   2.688   3.467
  915SOL     OW  336   1.360   2.724   2.907
  915SOL    HW1  337   1.285   2.724   2.841
  915SOL    HW2  338   1.397   2.632   2.916
  916SOL     OW  339   1.209   2.387   2.137
  916SOL    HW1  340   1.222   2.303   2.191
  916SOL    HW2  341   1.180   2.461   2.197
  920SOL     OW  342   1.728   2.797   3.716
  920SOL    HW1  343   1.682   2.790   3.627
  920SOL    HW2  344   1.666   2.841   3.782
  922SOL     OW  345   1.622   2.229   2.236
  922SOL    HW1  346   1.624   2.153   2.300
  922SOL    HW2  347   1.574   2.306   2.276
  923SOL     OW  348   1.023   2.628   2.828
  923SOL    HW1  349   1.038   2.649   2.924
  923SOL    HW2  350   0.993   2.533   2.819
  925SOL     OW  351   1.859   3.380   3.467
  925SOL    HW1  352   1.873   3.407   3.372
  925SOL    HW2  353   1.942   3.402   3.520
  927SOL     OW  354   1.540   2.136   1.987
  927SOL    HW1  355   1.479   2.061   2.010
  927SOL    HW2  356   1.562   2.188   2.070
  928SOL     OW  357   1.303   2.700   1.904
  928SOL    HW1  358   1.337   2.607   1.919
  928SOL    HW2  359   1.321   2.727   1.809
  929SOL     OW  360   1.068   3.195   2.711
  929SOL    HW1  361   1.075   3.111   2.656
  929SOL    HW2  362   1.130   3.264   2.675
  932SOL     OW  363   1.138   2.242   3.540
  932SOL    HW1  364   1.093   2.305   3.604
  932SOL    HW2  365   1.231   2.273   3.523
  933SOL     OW  366   1.160   2.069   3.339
  933SOL    HW1  367   1.160   2.133   3.416
  933SOL    HW2  368   1.188   2.117   3.256
  937SOL     OW  369   1.002   2.658   3.100
  937SOL    HW1  370   1.043   2.626   3.186
  937SOL    HW2  371   0.906   2.631   3.097
  940SOL     OW  372   1.369   2.812   3.522
  940SOL    HW1  373   1.408   2.901   3.542
  940SOL    HW2  374   1.379   2.792   3.425
  941SOL     OW  375   0.815   2.434   2.187
  941SOL    HW1  376   0.822   2.345   2.141
  941SOL    HW2  377   0.721   2.468   2.179
  942SOL     OW  378   1.657   2.466   3.068
  942SOL    HW1  379   1.619   2.397   3.130
  942SOL    HW2  380   1.739   2.430   3.024
  948SOL     OW  381   1.347   2.921   3.096
  948SOL    HW1  382   1.371   2.858   3.022
  948SOL    HW2  383   1.257   2.961   3.078
  949SOL     OW  384   1.302   2.717   2.171
  949SOL    HW1  385   1.216   2.686   2.213
  949SOL    HW2  386   1.298   2.703   2.072
  950SOL     OW  387   1.759   3.609   3.016
  950SOL    HW1  388   1.820   3.639   2.943
  950SOL    HW2  389   1.721   3.520   2.994
  951SOL     OW  390   1.252   3.593   2.990
  951SOL    HW1  391   1.336   3.598   2.936
  951SOL    HW2  392   1.229   3.497   3.008
  954SOL     OW  393   1.726   1.997   2.385
  954SOL    HW1  394   1.799   1.980   2.318
  954SOL    HW2  395   1.695   1.910   2.423
  955SOL     OW  396   1.388   3.435   2.339
  955SOL    HW1  397   1.455   3.447   2.265
  955SOL    HW2  398   1.348   3.524   2.362
  957SOL     OW  399   1.280   2.789   2.534
  957SOL    HW1  400   1.340   2.708   2.536
  957SOL    HW2  401   1.320   2.858   2.474
  960SOL     OW  402   1.650   3.582   3.256
  960SOL    HW1  403   1.703   3.592   3.172
  960SOL    HW2  404   1.623   3.672   3.290
  961SOL     OW  405   1.841   2.037   2.825
  961SOL    HW1  406   1.880   1.952   2.789
  961SOL    HW2  407   1.743   2.039   2.806
  963SOL     OW  408   1.194   3.474   1.893
  963SOL    HW1  409   1.200   3.381   1.930
  963SOL    HW2  410   1.135   3.474   1.813
  965SOL     OW  411   0.916   2.772   2.153
  965SOL    HW1  412   0.979   2.810   2.085
  965SOL    HW2  413   0.956   2.689   2.192
  966SOL     OW  414   1.504   3.469   1.906
  966SOL    HW1  415   1.412   3.506   1.913
  966SOL    HW2  416   1.542   3.489   1.816
  968SOL     OW  417   1.614   3.154   3.151
  968SOL    HW1  418   1.674   3.157   3.231
  968SOL    HW2  419   1.539   3.218   3.164
  969SOL     OW  420   1.039   2.960   2.558
  969SOL    HW1  421   0.969   2.913   2.612
  969SOL    HW2  422   1.098   2.892   2.515
  970SOL     OW  423   1.014   2.098   2.833
  970SOL    HW1  424   1.006   2.062   2.740
  970SOL    HW2  425   1.012   2.022   2.898
  972SOL     OW  426   1.709   2.247   3.243
  972SOL    HW1  427   1.782   2.316   3.247
  972SOL    HW2  428   1.737   2.172   3.184
  977SOL     OW  429   1.440   2.718   3.260
  977SOL    HW1  430   1.383   2.770   3.197
  977SOL    HW2  431   1.536   2.730   3.236
  979SOL     OW  432   1.183   3.197   1.981
  979SOL    HW1  433   1.084   3.186   1.983
  979SOL    HW2  434   1.217   3.212   2.074
  981SOL     OW  435   1.493   3.629   2.821
  981SOL    HW1  436   1.526   3.693   2.752
  981SOL    HW2  437   1.559   3.623   2.896
  983SOL     OW  438   1.450   3.082   3.495
  983SOL    HW1  439   1.441   3.072   3.594
  983SOL    HW2  440   1.546   3.075   3.469
  985SOL     OW  441   1.674   2.745   3.116
  985SOL    HW1  442   1.647   2.656   3.079
  985SOL    HW2  443   1.675   2.813   3.043
  986SOL     OW  444   1.225   2.187   2.311
  986SOL    HW1  445   1.290   2.113   2.300
  986SOL    HW2  446   1.245   2.237   2.395
  988SOL     OW  447   1.777   2.204   3.504
  988SOL    HW1  448   1.760   2.235   3.410
  988SOL    HW2  449   1.693   2.167   3.542
  989SOL     OW  450   1.730   2.796   3.379
  989SOL    HW1  451   1.768   2.887   3.394
  989SOL    HW2  452   1.722   2.779   3.280
  992SOL     OW  453   0.859   2.818   2.723
  992SOL    HW1  454   0.913   2.749   2.771
  992SOL    HW2  455   0.827   2.887   2.789
  993SOL     OW  456   1.083   2.846   1.949
  993SOL    HW1  457   1.060   2.899   1.867
  993SOL    HW2  458   1.164   2.790   1.930
  994SOL     OW  459   1.861   3.431   2.713
  994SOL    HW1  460   1.790   3.419   2.643
  994SOL    HW2  461   1.862   3.352   2.773
  998SOL     OW  462   1.824   2.054   3.089
  998SOL    HW1  463   1.820   1.964   3.133
  998SOL    HW2  464   1.827   2.043   2.990
 1000SOL     OW  465   1.705   3.349   2.966
 1000SOL    HW1  466   1.612   3.324   2.939
 1000SOL    HW2  467   1.731   3.299   3.048
 1003SOL     OW  468   1.424   2.076   2.974
 1003SOL    HW1  469   1.476   2.011   3.029
 1003SOL    HW2  470   1.375   2.139   3.035
 1004SOL     OW  471   1.001   1.896   3.016
 1004SOL    HW1  472   0.938   1.824   2.985
 1004SOL    HW2  473   1.094   1.860   3.016
 1007SOL     OW  474   1.352   1.914   2.030
 1007SOL    HW1  475   1.387   1.873   1.946
 1007SOL    HW2  476   1.262   1.876   2.050
 1008SOL     OW  477   1.300   2.315   2.553
 1008SOL    HW1  478   1.241   2.395   2.557
 1008SOL    HW2  479   1.315   2.280   2.646
 1009SOL     OW  480   1.593   2.083   2.744
 1009SOL    HW1  481   1.509   2.082   2.798
 1009SOL    HW2  482   1.595   2.166   2.688
 1018SOL     OW  483   1.755   2.469   3.955
 1018SOL    HW1  484   1.743   2.456   3.856
 1018SOL    HW2  485   1.725   2.388   4.004
 1036SOL     OW  486   1.525   2.861   3.914
 1036SOL    HW1  487   1.462   2.785   3.927
 1036SOL    HW2  488   1.573   2.879   4.000
 1056SOL     OW  489   1.632   3.239   3.805
 1056SOL    HW1  490   1.600   3.333   3.795
 1056SOL    HW2  491   1.556   3.176   3.793
 1067SOL     OW  492   1.434   3.050   3.765
 1067SOL    HW1  493   1.466   2.974   3.822
 1067SOL    HW2  494   1.342   3.077   3.795
 1079SOL     OW  495   1.857   2.695   4.101
 1079SOL    HW1  496   1.899   2.631   4.165
 1079SOL    HW2  497   1.819   2.644   4.023
 1082SOL     OW  498   1.390   2.437   3.802
 1082SOL    HW1  499   1.336   2.416   3.883
 1082SOL    HW2  500   1.481   2.396   3.811
 1107SOL     OW  501   1.540   2.136   3.849
 1107SOL    HW1  502   1.479   2.061   3.872
 1107SOL    HW2  503   1.562   2.188   3.932
 1108SOL     OW  504   1.303   2.700   3.766
 1108SOL    HW1  505   1.337   2.607   3.781
 1108SOL    HW2  506   1.321   2.727   3.671
 1348SOL     OW  507   1.594   3.838   3.342
 1348SOL    HW1  508   1.576   3.905   3.270
 1348SOL    HW2  509   1.591   3.884   3.431
 1376SOL     OW  510   1.400   3.831   2.288
 1376SOL    HW1  511   1.376   3.794   2.198
 1376SOL    HW2  512   1.499   3.847   2.292
 1449SOL     OW  513   1.726   3.859   2.385
 1449SOL    HW1  514   1.799   3.842   2.318
 1449SOL    HW2  515   1.695   3.772   2.423
 1452SOL     OW  516   1.841   3.899   2.825
 1452SOL    HW1  517   1.880   3.814   2.789
 1452SOL    HW2  518   1.743   3.901   2.806
 1480SOL     OW  519   1.824   3.916   3.089
 1480SOL    HW1  520   1.820   3.826   3.133
 1480SOL    HW2  521   1.827   3.905   2.990
 1487SOL     OW  522   1.352   3.776   2.030
 1487SOL    HW1  523   1.387   3.735   1.946
 1487SOL    HW2  524   1.262   3.738   2.050
 1489SOL     OW  525   1.593   3.945   2.744
 1489SOL    HW1  526   1.509   3.944   2.798
 1489SOL    HW2  527   1.595   4.028   2.688
 1625SOL     OW  528   2.548   1.161   1.803
 1625SOL    HW1  529   2.608   1.240   1.817
 1625SOL    HW2  530   2.462   1.192   1.762
 1627SOL     OW  531   3.322   1.505   1.339
 1627SOL    HW1  532   3.346   1.599   1.365
 1627SOL    HW2  533   3.306   1.451   1.421
 1631SOL     OW  534   2.989   1.341   1.690
 1631SOL    HW1  535   3.036   1.341   1.778
 1631SOL    HW2  536   2.941   1.254   1.679
 1634SOL     OW  537   2.482   1.786   1.439
 1634SOL    HW1  538   2.390   1.769   1.474
 1634SOL    HW2  539   2.510   1.878   1.465
 1647SOL     OW  540   3.049   1.792   1.616
 1647SOL    HW1  541   3.073   1.852   1.540
 1647SOL    HW2  542   3.056   1.697   1.586
 1660SOL     OW  543   1.992   1.821   1.571
 1660SOL    HW1  544   1.982   1.806   1.670
 1660SOL    HW2  545   1.906   1.857   1.535
 1668SOL     OW  546   3.089   1.550   1.506
 1668SOL    HW1  547   3.095   1.473   1.570
 1668SOL    HW2  548   3.037   1.524   1.426
 1671SOL     OW  549   2.323   1.266   1.727
 1671SOL    HW1  550   2.273   1.267   1.641
 1671SOL    HW2  551   2.260   1.248   1.803
 1677SOL     OW  552   2.111   1.785   1.241
 1677SOL    HW1  553   2.168   1.720   1.291
 1677SOL    HW2  554   2.095   1.752   1.148
 1683SOL     OW  555   2.750   1.514   1.195
 1683SOL    HW1  556   2.727   1.489   1.101
 1683SOL    HW2  557   2.811   1.445   1.234
 1708SOL     OW  558   2.926   1.347   1.340
 1708SOL    HW1  559   2.846   1.324   1.395
 1708SOL    HW2  560   3.009   1.321   1.389
 1709SOL     OW  561   3.454   1.629   1.625
 1709SOL    HW1  562   3.481   1.663   1.535
 1709SOL    HW2  563   3.533   1.591   1.671
 1713SOL     OW  564   2.842   1.116   1.719
 1713SOL    HW1  565   2.743   1.122   1.729
 1713SOL    HW2  566   2.865   1.036   1.663
 1717SOL     OW  567   1.926   1.564   1.331
 1717SOL    HW1  568   1.880   1.646   1.297
 1717SOL    HW2  569   2.024   1.583   1.340
 1723SOL     OW  570   2.216   1.510   1.329
 1723SOL    HW1  571   2.195   1.466   1.242
 1723SOL    HW2  572   2.313   1.536   1.332
 1738SOL     OW  573   2.842   1.573   1.700
 1738SOL    HW1  574   2.822   1.617   1.612
 1738SOL    HW2  575   2.881   1.482   1.684
 1756SOL     OW  576   2.114   1.564   1.744
 1756SOL    HW1  577   2.084   1.621   1.820
 1756SOL    HW2  578   2.107   1.467   1.770
 1758SOL     OW  579   2.792   1.678   1.465
 1758SOL    HW1  580   2.768   1.660   1.370
 1758SOL    HW2  581   2.822   1.772   1.475
 1764SOL     OW  582   3.114   1.731   1.128
 1764SOL    HW1  583   3.198   1.736   1.074
 1764SOL    HW2  584   3.091   1.635   1.146
 1766SOL     OW  585   2.550   1.662   1.716
 1766SOL    HW1  586   2.494   1.743   1.725
 1766SOL    HW2  587   2.602   1.666   1.630
 1770SOL     OW  588   1.992   1.794   1.851
 1770SOL    HW1  589   1.951   1.720   1.904
 1770SOL    HW2  590   2.056   1.845   1.909
 1772SOL     OW  591   2.692   1.273   1.422
 1772SOL    HW1  592   2.687   1.306   1.517
 1772SOL    HW2  593   2.606   1.292   1.376
 1774SOL     OW  594   3.512   1.720   1.394
 1774SOL    HW1  595   3.565   1.730   1.310
 1774SOL    HW2  596   3.485   1.810   1.428
 1781SOL     OW  597   2.234   1.288   1.490
 1781SOL    HW1  598   2.221   1.381   1.456
 1781SOL    HW2  599   2.150   1.236   1.477
 1798SOL     OW  600   2.252   1.741   1.560
 1798SOL    HW1  601   2.161   1.782   1.558
 1798SOL    HW2  602   2.245   1.647   1.592
 1805SOL     OW  603   2.523   1.790   0.953
 1805SOL    HW1  604   2.477   1.878   0.940
 1805SOL    HW2  605   2.622   1.802   0.946
 1809SOL     OW  606   2.083   1.314   1.844
 1809SOL    HW1  607   2.018   1.241   1.823
 1809SOL    HW2  608   2.087   1.328   1.942
 1811SOL     OW  609   2.534   1.391   1.624
 1811SOL    HW1  610   2.456   1.341   1.662
 1811SOL    HW2  611   2.531   1.486   1.655
 1820SOL     OW  612   2.480   1.567   1.284
 1820SOL    HW1  613   2.475   1.649   1.341
 1820SOL    HW2  614   2.569   1.564   1.239
 1829SOL     OW  615   2.431   1.275   3.027
 1829SOL    HW1  616   2.338   1.268   2.990
 1829SOL    HW2  617   2.442   1.364   3.071
 1830SOL     OW  618   3.417   1.511   2.565
 1830SOL    HW1  619   3.360   1.495   2.646
 1830SOL    HW2  620   3.358   1.521   2.485
 1833SOL     OW  621   2.630   1.144   2.885
 1833SOL    HW1  622   2.552   1.161   2.945
 1833SOL    HW2  623   2.664   1.231   2.849
 1835SOL     OW  624   2.547   1.012   2.527
 1835SOL    HW1  625   2.616   0.996   2.597
 1835SOL    HW2  626   2.474   1.069   2.565
 1836SOL     OW  627   2.548   1.161   3.665
 1836SOL    HW1  628   2.608   1.240   3.679
 1836SOL    HW2  629   2.462   1.192   3.624
 1837SOL     OW  630   2.197   1.435   2.923
 1837SOL    HW1  631   2.119   1.404   2.870
 1837SOL    HW2  632   2.255   1.493   2.866
 1838SOL     OW  633   3.322   1.505   3.201
 1838SOL    HW1  634   3.346   1.599   3.227
 1838SOL    HW2  635   3.306   1.451   3.283
 1841SOL     OW  636   2.093   1.713   2.345
 1841SOL    HW1  637   2.127   1.790   2.399
 1841SOL    HW2  638   2.137   1.713   2.255
 1842SOL     OW  639   2.989   1.341   3.552
 1842SOL    HW1  640   3.036   1.341   3.640
 1842SOL    HW2  641   2.941   1.254   3.541
 1843SOL     OW  642   2.092   1.434   2.400
 1843SOL    HW1  643   2.066   1.530   2.400
 1843SOL    HW2  644   2.021   1.380   2.445
 1844SOL     OW  645   2.102   1.091   2.748
 1844SOL    HW1  646   2.116   1.007   2.800
 1844SOL    HW2  647   2.047   1.155   2.803
 1845SOL     OW  648   2.482   1.786   3.301
 1845SOL    HW1  649   2.390   1.769   3.336
 1845SOL    HW2  650   2.510   1.878   3.327
 1846SOL     OW  651   2.468   0.964   1.985
 1846SOL    HW1  652   2.475   1.048   1.931
 1846SOL    HW2  653   2.514   0.977   2.073
 1849SOL     OW  654   3.704   1.767   2.221
 1849SOL    HW1  655   3.758   1.738   2.301
 1849SOL    HW2  656   3.734   1.857   2.192
 1850SOL     OW  657   1.889   1.596   1.979
 1850SOL    HW1  658   1.870   1.500   2.000
 1850SOL    HW2  659   1.856   1.654   2.054
 1852SOL     OW  660   3.503   1.108   2.294
 1852SOL    HW1  661   3.589   1.110   2.242
 1852SOL    HW2  662   3.517   1.155   2.382
 1854SOL     OW  663   2.475   1.365   2.588
 1854SOL    HW1  664   2.426   1.278   2.597
 1854SOL    HW2  665   2.452   1.408   2.501
 1855SOL     OW  666   3.155   1.228   3.285
 1855SOL    HW1  667   3.192   1.155   3.227
 1855SOL    HW2  668   3.207   1.233   3.370
 1857SOL     OW  669   2.059   0.976   3.126
 1857SOL    HW1  670   2.148   0.931   3.112
 1857SOL    HW2  671   1.986   0.911   3.107
 1859SOL     OW  672   3.049   1.792   3.478
 1859SOL    HW1  673   3.073   1.852   3.402
 1859SOL    HW2  674   3.056   1.697   3.448
 1861SOL     OW  675   3.328   1.417   2.815
 1861SOL    HW1  676   3.269   1.423   2.895
 1861SOL    HW2  677   3.313   1.329   2.769
 1862SOL     OW  678   3.529   1.714   2.434
 1862SOL    HW1  679   3.488   1.691   2.346
 1862SOL    HW2  680   3.511   1.640   2.499
 1865SOL     OW  681   3.438   1.662   2.169
 1865SOL    HW1  682   3.527   1.708   2.172
 1865SOL    HW2  683   3.417   1.638   2.074
 1872SOL     OW  684   1.992   1.821   3.433
 1872SOL    HW1  685   1.982   1.806   3.532
 1872SOL    HW2  686   1.906   1.857   3.397
 1875SOL     OW  687   3.224   1.144   2.407
 1875SOL    HW1  688   3.307   1.115   2.359
 1875SOL    HW2  689   3.175   1.211   2.351
 1877SOL     OW  690   2.870   1.456   2.339
 1877SOL    HW1  691   2.824   1.528   2.287
 1877SOL    HW2  692   2.866   1.476   2.437
 1878SOL     OW  693   2.213   1.801   2.715
 1878SOL    HW1  694   2.263   1.715   2.721
 1878SOL    HW2  695   2.278   1.878   2.712
 1880SOL     OW  696   3.089   1.550   3.368
 1880SOL    HW1  697   3.095   1.473   3.432
 1880SOL    HW2  698   3.037   1.524   3.288
 1881SOL     OW  699   2.183   0.943   2.104
 1881SOL    HW1  700   2.265   0.982   2.062
 1881SOL    HW2  701   2.156   0.861   2.055
 1883SOL     OW  702   2.323   1.266   3.589
 1883SOL    HW1  703   2.273   1.267   3.503
 1883SOL    HW2  704   2.260   1.248   3.665
 1884SOL     OW  705   2.973   1.776   2.099
 1884SOL    HW1  706   2.913   1.714   2.149
 1884SOL    HW2  707   3.004   1.732   2.014
 1886SOL     OW  708   3.494   1.377   1.943
 1886SOL    HW1  709   3.462   1.471   1.933
 1886SOL    HW2  710   3.418   1.314   1.931
 1887SOL     OW  711   2.326   1.743   2.185
 1887SOL    HW1  712   2.359   1.782   2.271
 1887SOL    HW2  713   2.402   1.736   2.120
 1889SOL     OW  714   2.111   1.785   3.103
 1889SOL    HW1  715   2.168   1.720   3.153
 1889SOL    HW2  716   2.095   1.752   3.010
 1890SOL     OW  717   2.802   1.698   2.766
 1890SOL    HW1  718   2.882   1.641   2.787
 1890SOL    HW2  719   2.753   1.658   2.689
 1895SOL     OW  720   2.750   1.514   3.057
 1895SOL    HW1  721   2.727   1.489   2.963
 1895SOL    HW2  722   2.811   1.445   3.096
 1897SOL     OW  723   2.665   1.402   2.786
 1897SOL    HW1  724   2.755   1.416   2.744
 1897SOL    HW2  725   2.594   1.404   2.715
 1900SOL     OW  726   3.296   1.188   1.903
 1900SOL    HW1  727   3.328   1.112   1.960
 1900SOL    HW2  728   3.204   1.215   1.933
 1904SOL     OW  729   3.089   1.570   2.655
 1904SOL    HW1  730   3.110   1.644   2.590
 1904SOL    HW2  731   3.157   1.570   2.728
 1905SOL     OW  732   2.321   1.152   2.603
 1905SOL    HW1  733   2.250   1.125   2.668
 1905SOL    HW2  734   2.295   1.124   2.510
 1906SOL     OW  735   3.133   1.797   2.453
 1906SOL    HW1  736   3.177   1.861   2.389
 1906SOL    HW2  737   3.083   1.849   2.523
 1912SOL     OW  738   3.291   1.173   2.729
 1912SOL    HW1  739   3.236   1.089   2.722
 1912SOL    HW2  740   3.317   1.202   2.637
 1915SOL     OW  741   2.350   1.385   2.036
 1915SOL    HW1  742   2.263   1.370   2.083
 1915SOL    HW2  743   2.333   1.411   1.941
 1916SOL     OW  744   3.526   1.280   2.519
 1916SOL    HW1  745   3.625   1.288   2.533
 1916SOL    HW2  746   3.481   1.364   2.550
 1920SOL     OW  747   2.926   1.347   3.202
 1920SOL    HW1  748   2.846   1.324   3.257
 1920SOL    HW2  749   3.009   1.321   3.251
 1921SOL     OW  750   3.454   1.629   3.487
 1921SOL    HW1  751   3.481   1.663   3.397
 1921SOL    HW2  752   3.533   1.591   3.533
 1922SOL     OW  753   2.973   1.195   2.962
 1922SOL    HW1  754   2.933   1.239   3.043
 1922SOL    HW2  755   2.932   1.232   2.879
 1923SOL     OW  756   3.500   1.099   2.941
 1923SOL    HW1  757   3.505   1.180   3.000
 1923SOL    HW2  758   3.414   1.101   2.890
 1925SOL     OW  759   2.842   1.116   3.581
 1925SOL    HW1  760   2.743   1.122   3.591
 1925SOL    HW2  761   2.865   1.036   3.525
 1926SOL     OW  762   2.567   1.050   2.230
 1926SOL    HW1  763   2.553   1.057   2.329
 1926SOL    HW2  764   2.651   0.999   2.212
 1929SOL     OW  765   1.926   1.564   3.193
 1929SOL    HW1  766   1.880   1.646   3.159
 1929SOL    HW2  767   2.024   1.583   3.202
 1930SOL     OW  768   2.229   1.100   2.363
 1930SOL    HW1  769   2.222   1.183   2.307
 1930SOL    HW2  770   2.233   1.020   2.303
 1932SOL     OW  771   3.114   1.348   2.250
 1932SOL    HW1  772   3.164   1.425   2.290
 1932SOL    HW2  773   3.019   1.350   2.282
 1933SOL     OW  774   3.134   1.445   3.004
 1933SOL    HW1  775   3.181   1.458   3.091
 1933SOL    HW2  776   3.068   1.371   3.013
 1935SOL     OW  777   2.216   1.510   3.191
 1935SOL    HW1  778   2.195   1.466   3.104
 1935SOL    HW2  779   2.313   1.536   3.194
 1940SOL     OW  780   2.435   0.870   2.891
 1940SOL    HW1  781   2.479   0.959   2.882
 1940SOL    HW2  782   2.372   0.870   2.968
 1944SOL     OW  783   1.899   1.310   3.144
 1944SOL    HW1  784   1.952   1.261   3.212
 1944SOL    HW2  785   1.921   1.408   3.149
 1950SOL     OW  786   2.842   1.573   3.562
 1950SOL    HW1  787   2.822   1.617   3.474
 1950SOL    HW2  788   2.881   1.482   3.546
 1951SOL     OW  789   3.721   1.518   3.467
 1951SOL    HW1  790   3.735   1.545   3.372
 1951SOL    HW2  791   3.804   1.540   3.520
 1955SOL     OW  792   2.930   1.333   2.711
 1955SOL    HW1  793   2.937   1.249   2.656
 1955SOL    HW2  794   2.992   1.402   2.675
 1960SOL     OW  795   1.870   1.326   2.062
 1960SOL    HW1  796   1.777   1.347   2.031
 1960SOL    HW2  797   1.880   1.227   2.075
 1961SOL     OW  798   1.950   1.801   2.789
 1961SOL    HW1  799   1.908   1.715   2.762
 1961SOL    HW2  800   2.044   1.804   2.755
 1962SOL     OW  801   2.366   1.568   2.772
 1962SOL    HW1  802   2.432   1.642   2.781
 1962SOL    HW2  803   2.410   1.489   2.730
 1969SOL     OW  804   2.114   1.564   3.606
 1969SOL    HW1  805   2.084   1.621   3.682
 1969SOL    HW2  806   2.107   1.467   3.632
 1971SOL     OW  807   2.792   1.678   3.327
 1971SOL    HW1  808   2.768   1.660   3.232
 1971SOL    HW2  809   2.822   1.772   3.337
 1973SOL     OW  810   2.021   1.137   3.328
 1973SOL    HW1  811   2.043   1.076   3.404
 1973SOL    HW2  812   2.031   1.088   3.242
 1974SOL     OW  813   3.209   1.059   3.096
 1974SOL    HW1  814   3.233   0.996   3.022
 1974SOL    HW2  815   3.119   1.099   3.078
 1976SOL     OW  816   3.621   1.747   3.016
 1976SOL    HW1  817   3.682   1.777   2.943
 1976SOL    HW2  818   3.583   1.658   2.994
 1977SOL     OW  819   3.114   1.731   2.990
 1977SOL    HW1  820   3.198   1.736   2.936
 1977SOL    HW2  821   3.091   1.635   3.008
 1978SOL     OW  822   1.945   1.258   2.884
 1978SOL    HW1  823   1.940   1.257   2.984
 1978SOL    HW2  824   1.862   1.217   2.846
 1979SOL     OW  825   2.550   1.662   3.578
 1979SOL    HW1  826   2.494   1.743   3.587
 1979SOL    HW2  827   2.602   1.666   3.492
 1981SOL     OW  828   3.250   1.573   2.339
 1981SOL    HW1  829   3.317   1.585   2.265
 1981SOL    HW2  830   3.210   1.662   2.362
 1982SOL     OW  831   1.992   1.794   3.713
 1982SOL    HW1  832   1.951   1.720   3.766
 1982SOL    HW2  833   2.056   1.845   3.771
 1983SOL     OW  834   3.142   0.927   2.534
 1983SOL    HW1  835   3.202   0.846   2.536
 1983SOL    HW2  836   3.182   0.996   2.474
 1984SOL     OW  837   2.692   1.273   3.284
 1984SOL    HW1  838   2.687   1.306   3.379
 1984SOL    HW2  839   2.606   1.292   3.238
 1985SOL     OW  840   2.534   1.616   2.016
 1985SOL    HW1  841   2.543   1.626   1.917
 1985SOL    HW2  842   2.494   1.527   2.037
 1986SOL     OW  843   3.512   1.720   3.256
 1986SOL    HW1  844   3.565   1.730   3.172
 1986SOL    HW2  845   3.485   1.810   3.290
 1989SOL     OW  846   3.056   1.612   1.893
 1989SOL    HW1  847   3.062   1.519   1.930
 1989SOL    HW2  848   2.997   1.612   1.813
 1990SOL     OW  849   2.684   1.002   3.234
 1990SOL    HW1  850   2.724   1.001   3.142
 1990SOL    HW2  851   2.694   1.094   3.274
 1991SOL     OW  852   2.778   0.910   2.153
 1991SOL    HW1  853   2.841   0.948   2.085
 1991SOL    HW2  854   2.818   0.827   2.192
 1992SOL     OW  855   3.366   1.607   1.906
 1992SOL    HW1  856   3.274   1.644   1.913
 1992SOL    HW2  857   3.404   1.627   1.816
 1993SOL     OW  858   2.234   1.288   3.352
 1993SOL    HW1  859   2.221   1.381   3.318
 1993SOL    HW2  860   2.150   1.236   3.339
 1994SOL     OW  861   3.476   1.292   3.151
 1994SOL    HW1  862   3.536   1.295   3.231
 1994SOL    HW2  863   3.401   1.356   3.164
 1995SOL     OW  864   2.901   1.098   2.558
 1995SOL    HW1  865   2.831   1.051   2.612
 1995SOL    HW2  866   2.960   1.030   2.515
 1997SOL     OW  867   2.452   1.487   2.353
 1997SOL    HW1  868   2.494   1.429   2.283
 1997SOL    HW2  869   2.408   1.566   2.309
 1999SOL     OW  870   2.117   1.348   2.152
 1999SOL    HW1  871   2.021   1.349   2.125
 1999SOL    HW2  872   2.129   1.401   2.236
 2005SOL     OW  873   3.045   1.335   1.981
 2005SOL    HW1  874   2.946   1.324   1.983
 2005SOL    HW2  875   3.079   1.350   2.074
 2007SOL     OW  876   3.355   1.767   2.821
 2007SOL    HW1  877   3.388   1.831   2.752
 2007SOL    HW2  878   3.421   1.761   2.896
 2009SOL     OW  879   3.312   1.220   3.495
 2009SOL    HW1  880   3.303   1.210   3.594
 2009SOL    HW2  881   3.408   1.213   3.469
 2010SOL     OW  882   2.252   1.741   3.422
 2010SOL    HW1  883   2.161   1.782   3.420
 2010SOL    HW2  884   2.245   1.647   3.454
 2016SOL     OW  885   2.721   1.374   1.878
 2016SOL    HW1  886   2.675   1.389   1.966
 2016SOL    HW2  887   2.765   1.459   1.848
 2017SOL     OW  888   2.523   1.790   2.815
 2017SOL    HW1  889   2.477   1.878   2.802
 2017SOL    HW2  890   2.622   1.802   2.808
 2018SOL     OW  891   2.721   0.956   2.723
 2018SOL    HW1  892   2.775   0.887   2.771
 2018SOL    HW2  893   2.689   1.025   2.789
 2019SOL     OW  894   2.945   0.984   1.949
 2019SOL    HW1  895   2.922   1.037   1.867
 2019SOL    HW2  896   3.026   0.928   1.930
 2020SOL     OW  897   3.723   1.569   2.713
 2020SOL    HW1  898   3.652   1.557   2.643
 2020SOL    HW2  899   3.724   1.490   2.773
 2021SOL     OW  900   2.083   1.314   3.706
 2021SOL    HW1  901   2.018   1.241   3.685
 2021SOL    HW2  902   2.087   1.328   3.804
 2022SOL     OW  903   1.941   1.240   2.515
 2022SOL    HW1  904   1.940   1.193   2.603
 2022SOL    HW2  905   2.023   1.212   2.464
 2023SOL     OW  906   2.534   1.391   3.486
 2023SOL    HW1  907   2.456   1.341   3.524
 2023SOL    HW2  908   2.531   1.486   3.517
 2026SOL     OW  909   3.567   1.487   2.966
 2026SOL    HW1  910   3.474   1.462   2.939
 2026SOL    HW2  911   3.593   1.437   3.048
 2028SOL     OW  912   2.674   1.586   2.549
 2028SOL    HW1  913   2.706   1.596   2.455
 2028SOL    HW2  914   2.595   1.524   2.551
 2031SOL     OW  915   2.632   1.330   2.163
 2031SOL    HW1  916   2.586   1.243   2.180
 2031SOL    HW2  917   2.723   1.327   2.204
 2032SOL     OW  918   2.480   1.567   3.146
 2032SOL    HW1  919   2.475   1.649   3.203
 2032SOL    HW2  920   2.569   1.564   3.101
 2036SOL     OW  921   1.901   1.077   2.162
 2036SOL    HW1  922   2.000   1.066   2.153
 2036SOL    HW2  923   1.861   0.991   2.194
 2037SOL     OW  924   2.737   1.646   2.199
 2037SOL    HW1  925   2.660   1.611   2.145
 2037SOL    HW2  926   2.705   1.717   2.261
 2056SOL     OW  927   1.889   1.596   3.841
 2056SOL    HW1  928   1.870   1.500   3.862
 2056SOL    HW2  929   1.856   1.654   3.916
 2081SOL     OW  930   2.973   1.776   3.961
 2081SOL    HW1  931   2.913   1.714   4.011
 2081SOL    HW2  932   3.004   1.732   3.876
 2083SOL     OW  933   2.326   1.743   4.047
 2083SOL    HW1  934   2.359   1.782   4.133
 2083SOL    HW2  935   2.402   1.736   3.982
 2106SOL     OW  936   2.350   1.385   3.898
 2106SOL    HW1  937   2.263   1.370   3.945
 2106SOL    HW2  938   2.333   1.411   3.803
 2157SOL     OW  939   2.534   1.616   3.878
 2157SOL    HW1  940   2.543   1.626   3.779
 2157SOL    HW2  941   2.494   1.527   3.899
 2160SOL     OW  942   3.056   1.612   3.755
 2160SOL    HW1  943   3.062   1.519   3.792
 2160SOL    HW2  944   2.997   1.612   3.675
 2163SOL     OW  945   3.366   1.607   3.768
 2163SOL    HW1  946   3.274   1.644   3.775
 2163SOL    HW2  947   3.404   1.627   3.678
 2180SOL     OW  948   2.721   1.374   3.740
 2180SOL    HW1  949   2.675   1.389   3.828
 2180SOL    HW2  950   2.765   1.459   3.710
 2199SOL     OW  951   2.737   1.646   4.061
 2199SOL    HW1  952   2.660   1.611   4.007
 2199SOL    HW2  953   2.705   1.717   4.123
 2201SOL     OW  954   2.087   2.137   0.996
 2201SOL    HW1  955   2.122   2.120   1.088
 2201SOL    HW2  956   1.999   2.092   0.984
 2203SOL     OW  957   2.431   3.137   1.165
 2203SOL    HW1  958   2.338   3.130   1.128
 2203SOL    HW2  959   2.442   3.226   1.209
 2207SOL     OW  960   2.630   3.006   1.023
 2207SOL    HW1  961   2.552   3.023   1.083
 2207SOL    HW2  962   2.664   3.093   0.987
 2208SOL     OW  963   2.712   2.660   1.823
 2208SOL    HW1  964   2.708   2.736   1.888
 2208SOL    HW2  965   2.734   2.696   1.732
 2210SOL     OW  966   2.548   3.023   1.803
 2210SOL    HW1  967   2.608   3.102   1.817
 2210SOL    HW2  968   2.462   3.054   1.762
 2211SOL     OW  969   2.197   3.297   1.061
 2211SOL    HW1  970   2.119   3.266   1.008
 2211SOL    HW2  971   2.255   3.355   1.004
 2212SOL     OW  972   3.322   3.367   1.339
 2212SOL    HW1  973   3.346   3.461   1.365
 2212SOL    HW2  974   3.306   3.313   1.421
 2213SOL     OW  975   2.300   2.254   1.499
 2213SOL    HW1  976   2.382   2.198   1.508
 2213SOL    HW2  977   2.219   2.196   1.503
 2216SOL     OW  978   2.989   3.203   1.690
 2216SOL    HW1  979   3.036   3.203   1.778
 2216SOL    HW2  980   2.941   3.116   1.679
 2218SOL     OW  981   2.102   2.953   0.886
 2218SOL    HW1  982   2.116   2.869   0.938
 2218SOL    HW2  983   2.047   3.017   0.941
 2219SOL     OW  984   2.482   3.648   1.439
 2219SOL    HW1  985   2.390   3.631   1.474
 2219SOL    HW2  986   2.510   3.740   1.465
 2221SOL     OW  987   3.456   1.976   1.480
 2221SOL    HW1  988   3.438   2.043   1.408
 2221SOL    HW2  989   3.453   2.022   1.569
 2226SOL     OW  990   1.975   2.599   1.597
 2226SOL    HW1  991   2.063   2.586   1.642
 2226SOL    HW2  992   1.962   2.696   1.575
 2228SOL     OW  993   3.155   3.090   1.423
 2228SOL    HW1  994   3.192   3.017   1.365
 2228SOL    HW2  995   3.207   3.095   1.508
 2230SOL     OW  996   2.059   2.838   1.264
 2230SOL    HW1  997   2.148   2.793   1.250
 2230SOL    HW2  998   1.986   2.773   1.245
 2232SOL     OW  999   3.049   3.654   1.616
 2232SOL    HW1 1000   3.073   3.714   1.540
 2232SOL    HW2 1001   3.056   3.559   1.586
 2233SOL     OW 1002   2.179   2.113   1.801
 2233SOL    HW1 1003   2.250   2.184   1.807
 2233SOL    HW2 1004   2.091   2.152   1.829
 2237SOL     OW 1005   3.143   2.207   0.944
 2237SOL    HW1 1006   3.057   2.157   0.931
 2237SOL    HW2 1007   3.205   2.153   1.000
 2239SOL     OW 1008   2.669   2.467   1.465
 2239SOL    HW1 1009   2.622   2.464   1.554
 2239SOL    HW2 1010   2.618   2.412   1.399
 2240SOL     OW 1011   3.256   2.331   1.674
 2240SOL    HW1 1012   3.236   2.374   1.762
 2240SOL    HW2 1013   3.334   2.269   1.683
 2241SOL     OW 1014   2.835   2.752   1.572
 2241SOL    HW1 1015   2.881   2.668   1.543
 2241SOL    HW2 1016   2.779   2.786   1.497
 2242SOL     OW 1017   2.853   2.272   1.242
 2242SOL    HW1 1018   2.776   2.306   1.296
 2242SOL    HW2 1019   2.819   2.221   1.163
 2245SOL     OW 1020   1.992   3.683   1.571
 2245SOL    HW1 1021   1.982   3.668   1.670
 2245SOL    HW2 1022   1.906   3.719   1.535
 2247SOL     OW 1023   3.581   2.447   1.831
 2247SOL    HW1 1024   3.555   2.536   1.795
 2247SOL    HW2 1025   3.579   2.379   1.758
 2249SOL     OW 1026   2.412   2.058   0.885
 2249SOL    HW1 1027   2.407   2.053   0.985
 2249SOL    HW2 1028   2.414   2.154   0.856
 2253SOL     OW 1029   3.089   3.412   1.506
 2253SOL    HW1 1030   3.095   3.335   1.570
 2253SOL    HW2 1031   3.037   3.386   1.426
 2256SOL     OW 1032   2.323   3.128   1.727
 2256SOL    HW1 1033   2.273   3.129   1.641
 2256SOL    HW2 1034   2.260   3.110   1.803
 2258SOL     OW 1035   2.064   2.147   1.498
 2258SOL    HW1 1036   1.984   2.207   1.485
 2258SOL    HW2 1037   2.054   2.098   1.584
 2261SOL     OW 1038   2.111   3.647   1.241
 2261SOL    HW1 1039   2.168   3.582   1.291
 2261SOL    HW2 1040   2.095   3.614   1.148
 2264SOL     OW 1041   3.409   2.084   1.729
 2264SOL    HW1 1042   3.404   2.121   1.821
 2264SOL    HW2 1043   3.337   2.015   1.717
 2265SOL     OW 1044   2.643   2.126   1.749
 2265SOL    HW1 1045   2.710   2.065   1.792
 2265SOL    HW2 1046   2.570   2.145   1.814
 2266SOL     OW 1047   2.750   3.376   1.195
 2266SOL    HW1 1048   2.727   3.351   1.101
 2266SOL    HW2 1049   2.811   3.307   1.234
 2267SOL     OW 1050   3.213   2.452   1.433
 2267SOL    HW1 1051   3.241   2.409   1.518
 2267SOL    HW2 1052   3.238   2.548   1.434
 2268SOL     OW 1053   2.665   3.264   0.924
 2268SOL    HW1 1054   2.755   3.278   0.882
 2268SOL    HW2 1055   2.594   3.266   0.853
 2269SOL     OW 1056   2.784   2.365   0.899
 2269SOL    HW1 1057   2.759   2.356   0.803
 2269SOL    HW2 1058   2.832   2.283   0.930
 2273SOL     OW 1059   2.938   2.545   1.464
 2273SOL    HW1 1060   2.858   2.484   1.467
 2273SOL    HW2 1061   3.019   2.492   1.440
 2278SOL     OW 1062   1.940   2.418   1.386
 2278SOL    HW1 1063   2.032   2.417   1.345
 2278SOL    HW2 1064   1.934   2.492   1.453
 2279SOL     OW 1065   2.423   2.084   1.147
 2279SOL    HW1 1066   2.461   2.000   1.184
 2279SOL    HW2 1067   2.335   2.103   1.191
 2283SOL     OW 1068   3.328   2.452   0.992
 2283SOL    HW1 1069   3.298   2.357   0.999
 2283SOL    HW2 1070   3.401   2.468   1.058
 2289SOL     OW 1071   3.616   3.085   1.588
 2289SOL    HW1 1072   3.707   3.046   1.575
 2289SOL    HW2 1073   3.624   3.181   1.612
 2290SOL     OW 1074   2.926   3.209   1.340
 2290SOL    HW1 1075   2.846   3.186   1.395
 2290SOL    HW2 1076   3.009   3.183   1.389
 2291SOL     OW 1077   3.454   3.491   1.625
 2291SOL    HW1 1078   3.481   3.525   1.535
 2291SOL    HW2 1079   3.533   3.453   1.671
 2292SOL     OW 1080   2.973   3.057   1.100
 2292SOL    HW1 1081   2.933   3.101   1.181
 2292SOL    HW2 1082   2.932   3.094   1.017
 2294SOL     OW 1083   2.777   1.951   1.402
 2294SOL    HW1 1084   2.802   1.931   1.307
 2294SOL    HW2 1085   2.849   2.007   1.444
 2295SOL     OW 1086   2.842   2.978   1.719
 2295SOL    HW1 1087   2.743   2.984   1.729
 2295SOL    HW2 1088   2.865   2.898   1.663
 2297SOL     OW 1089   2.272   2.675   1.251
 2297SOL    HW1 1090   2.358   2.687   1.301
 2297SOL    HW2 1091   2.230   2.588   1.278
 2298SOL     OW 1092   3.136   2.248   1.262
 2298SOL    HW1 1093   3.157   2.322   1.326
 2298SOL    HW2 1094   3.047   2.265   1.219
 2299SOL     OW 1095   1.926   3.426   1.331
 2299SOL    HW1 1096   1.880   3.508   1.297
 2299SOL    HW2 1097   2.024   3.445   1.340
 2301SOL     OW 1098   2.428   2.399   0.865
 2301SOL    HW1 1099   2.440   2.465   0.791
 2301SOL    HW2 1100   2.474   2.433   0.948
 2303SOL     OW 1101   3.134   3.307   1.142
 2303SOL    HW1 1102   3.181   3.320   1.229
 2303SOL    HW2 1103   3.068   3.233   1.151
 2305SOL     OW 1104   2.216   3.372   1.329
 2305SOL    HW1 1105   2.195   3.328   1.242
 2305SOL    HW2 1106   2.313   3.398   1.332
 2306SOL     OW 1107   2.264   2.613   1.598
 2306SOL    HW1 1108   2.332   2.668   1.551
 2306SOL    HW2 1109   2.304   2.525   1.625
 2307SOL     OW 1110   3.449   2.641   1.670
 2307SOL    HW1 1111   3.357   2.679   1.665
 2307SOL    HW2 1112   3.509   2.688   1.605
 2308SOL     OW 1113   2.875   1.967   1.770
 2308SOL    HW1 1114   2.881   2.052   1.718
 2308SOL    HW2 1115   2.907   1.891   1.713
 2309SOL     OW 1116   2.366   1.912   1.740
 2309SOL    HW1 1117   2.324   1.855   1.670
 2309SOL    HW2 1118   2.300   1.981   1.772
 2310SOL     OW 1119   2.435   2.732   1.029
 2310SOL    HW1 1120   2.479   2.821   1.020
 2310SOL    HW2 1121   2.372   2.732   1.106
 2311SOL     OW 1122   3.222   2.724   1.045
 2311SOL    HW1 1123   3.147   2.724   0.979
 2311SOL    HW2 1124   3.259   2.632   1.054
 2313SOL     OW 1125   2.169   2.075   1.231
 2313SOL    HW1 1126   2.146   2.112   1.321
 2313SOL    HW2 1127   2.139   1.980   1.225
 2314SOL     OW 1128   1.899   3.172   1.282
 2314SOL    HW1 1129   1.952   3.123   1.350
 2314SOL    HW2 1130   1.921   3.270   1.287
 2315SOL     OW 1131   2.594   2.496   1.064
 2315SOL    HW1 1132   2.653   2.470   0.988
 2315SOL    HW2 1133   2.566   2.592   1.053
 2316SOL     OW 1134   3.590   2.797   1.854
 2316SOL    HW1 1135   3.544   2.790   1.765
 2316SOL    HW2 1136   3.528   2.841   1.920
 2319SOL     OW 1137   2.885   2.628   0.966
 2319SOL    HW1 1138   2.900   2.649   1.062
 2319SOL    HW2 1139   2.855   2.533   0.957
 2320SOL     OW 1140   2.842   3.435   1.700
 2320SOL    HW1 1141   2.822   3.479   1.612
 2320SOL    HW2 1142   2.881   3.344   1.684
 2321SOL     OW 1143   3.721   3.380   1.605
 2321SOL    HW1 1144   3.735   3.407   1.510
 2321SOL    HW2 1145   3.804   3.402   1.658
 2322SOL     OW 1146   2.212   2.760   1.804
 2322SOL    HW1 1147   2.288   2.804   1.852
 2322SOL    HW2 1148   2.247   2.713   1.722
 2326SOL     OW 1149   2.181   2.672   0.949
 2326SOL    HW1 1150   2.274   2.708   0.954
 2326SOL    HW2 1151   2.175   2.587   1.001
 2327SOL     OW 1152   2.201   2.371   1.006
 2327SOL    HW1 1153   2.149   2.288   0.989
 2327SOL    HW2 1154   2.278   2.376   0.942
 2328SOL     OW 1155   3.000   2.242   1.678
 2328SOL    HW1 1156   2.955   2.305   1.742
 2328SOL    HW2 1157   3.093   2.273   1.661
 2329SOL     OW 1158   3.022   2.069   1.477
 2329SOL    HW1 1159   3.022   2.133   1.554
 2329SOL    HW2 1160   3.050   2.117   1.394
 2332SOL     OW 1161   2.864   2.658   1.238
 2332SOL    HW1 1162   2.905   2.626   1.324
 2332SOL    HW2 1163   2.768   2.631   1.235
 2333SOL     OW 1164   1.902   2.406   1.114
 2333SOL    HW1 1165   1.987   2.373   1.073
 2333SOL    HW2 1166   1.915   2.421   1.212
 2334SOL     OW 1167   2.051   2.382   1.722
 2334SOL    HW1 1168   2.110   2.342   1.652
 2334SOL    HW2 1169   1.993   2.453   1.681
 2335SOL     OW 1170   3.231   2.812   1.660
 2335SOL    HW1 1171   3.270   2.901   1.680
 2335SOL    HW2 1172   3.241   2.792   1.563
 2337SOL     OW 1173   3.519   2.466   1.206
 2337SOL    HW1 1174   3.481   2.397   1.268
 2337SOL    HW2 1175   3.601   2.430   1.162
 2338SOL     OW 1176   2.114   3.426   1.744
 2338SOL    HW1 1177   2.084   3.483   1.820
 2338SOL    HW2 1178   2.107   3.329   1.770
 2339SOL     OW 1179   2.533   2.326   1.269
 2339SOL    HW1 1180   2.499   2.237   1.239
 2339SOL    HW2 1181   2.559   2.380   1.189
 2340SOL     OW 1182   2.792   3.540   1.465
 2340SOL    HW1 1183   2.768   3.522   1.370
 2340SOL    HW2 1184   2.822   3.634   1.475
 2342SOL     OW 1185   2.021   2.999   1.466
 2342SOL    HW1 1186   2.043   2.938   1.542
 2342SOL    HW2 1187   2.031   2.950   1.380
 2343SOL     OW 1188   3.209   2.921   1.234
 2343SOL    HW1 1189   3.233   2.858   1.160
 2343SOL    HW2 1190   3.119   2.961   1.216
 2347SOL     OW 1191   1.945   3.120   1.022
 2347SOL    HW1 1192   1.940   3.119   1.122
 2347SOL    HW2 1193   1.862   3.079   0.984
 2348SOL     OW 1194   2.550   3.524   1.716
 2348SOL    HW1 1195   2.494   3.605   1.725
 2348SOL    HW2 1196   2.602   3.528   1.630
 2352SOL     OW 1197   1.992   3.656   1.851
 2352SOL    HW1 1198   1.951   3.582   1.904
 2352SOL    HW2 1199   2.056   3.707   1.909
 2354SOL     OW 1200   2.692   3.135   1.422
 2354SOL    HW1 1201   2.687   3.168   1.517
 2354SOL    HW2 1202   2.606   3.154   1.376
 2360SOL     OW 1203   2.684   2.864   1.372
 2360SOL    HW1 1204   2.724   2.863   1.280
 2360SOL    HW2 1205   2.694   2.956   1.412
 2363SOL     OW 1206   2.234   3.150   1.490
 2363SOL    HW1 1207   2.221   3.243   1.456
 2363SOL    HW2 1208   2.150   3.098   1.477
 2364SOL     OW 1209   3.476   3.154   1.289
 2364SOL    HW1 1210   3.536   3.157   1.369
 2364SOL    HW2 1211   3.401   3.218   1.302
 2366SOL     OW 1212   2.876   2.098   0.971
 2366SOL    HW1 1213   2.868   2.062   0.878
 2366SOL    HW2 1214   2.874   2.022   1.036
 2368SOL     OW 1215   3.571   2.247   1.381
 2368SOL    HW1 1216   3.644   2.316   1.385
 2368SOL    HW2 1217   3.599   2.172   1.322
 2370SOL     OW 1218   1.967   2.875   1.726
 2370SOL    HW1 1219   1.890   2.842   1.780
 2370SOL    HW2 1220   2.052   2.845   1.768
 2371SOL     OW 1221   2.534   2.065   1.489
 2371SOL    HW1 1222   2.624   2.049   1.449
 2371SOL    HW2 1223   2.542   2.070   1.588
 2373SOL     OW 1224   3.302   2.718   1.398
 2373SOL    HW1 1225   3.245   2.770   1.335
 2373SOL    HW2 1226   3.398   2.730   1.374
 2376SOL     OW 1227   2.475   2.704   1.431
 2376SOL    HW1 1228   2.531   2.785   1.414
 2376SOL    HW2 1229   2.534   2.624   1.434
 2378SOL     OW 1230   2.578   2.427   1.708
 2378SOL    HW1 1231   2.597   2.492   1.782
 2378SOL    HW2 1232   2.638   2.347   1.717
 2379SOL     OW 1233   3.312   3.082   1.633
 2379SOL    HW1 1234   3.303   3.072   1.732
 2379SOL    HW2 1235   3.408   3.075   1.607
 2380SOL     OW 1236   2.252   3.603   1.560
 2380SOL    HW1 1237   2.161   3.644   1.558
 2380SOL    HW2 1238   2.245   3.509   1.592
 2381SOL     OW 1239   3.536   2.745   1.254
 2381SOL    HW1 1240   3.509   2.656   1.217
 2381SOL    HW2 1241   3.537   2.813   1.181
 2384SOL     OW 1242   3.639   2.204   1.642
 2384SOL    HW1 1243   3.622   2.235   1.548
 2384SOL    HW2 1244   3.555   2.167   1.680
 2385SOL     OW 1245   3.592   2.796   1.517
 2385SOL    HW1 1246   3.630   2.887   1.532
 2385SOL    HW2 1247   3.584   2.779   1.418
 2388SOL     OW 1248   2.721   2.818   0.861
 2388SOL    HW1 1249   2.775   2.749   0.909
 2388SOL    HW2 1250   2.689   2.887   0.927
 2391SOL     OW 1251   2.083   3.176   1.844
 2391SOL    HW1 1252   2.018   3.103   1.823
 2391SOL    HW2 1253   2.087   3.190   1.942
 2393SOL     OW 1254   2.534   3.253   1.624
 2393SOL    HW1 1255   2.456   3.203   1.662
 2393SOL    HW2 1256   2.531   3.348   1.655
 2397SOL     OW 1257   2.179   2.409   1.280
 2397SOL    HW1 1258   2.217   2.350   1.352
 2397SOL    HW2 1259   2.219   2.383   1.192
 2399SOL     OW 1260   3.286   2.076   1.112
 2399SOL    HW1 1261   3.338   2.011   1.167
 2399SOL    HW2 1262   3.237   2.139   1.173
 2400SOL     OW 1263   2.863   1.896   1.154
 2400SOL    HW1 1264   2.800   1.824   1.123
 2400SOL    HW2 1265   2.956   1.860   1.154
 2402SOL     OW 1266   2.480   3.429   1.284
 2402SOL    HW1 1267   2.475   3.511   1.341
 2402SOL    HW2 1268   2.569   3.426   1.239
 2408SOL     OW 1269   2.092   2.490   1.975
 2408SOL    HW1 1270   1.999   2.488   2.012
 2408SOL    HW2 1271   2.093   2.451   1.883
 2409SOL     OW 1272   2.087   2.137   2.858
 2409SOL    HW1 1273   2.122   2.120   2.950
 2409SOL    HW2 1274   1.999   2.092   2.846
 2410SOL     OW 1275   1.881   2.230   2.509
 2410SOL    HW1 1276   1.799   2.273   2.548
 2410SOL    HW2 1277   1.853   2.157   2.446
 2411SOL     OW 1278   2.431   3.137   3.027
 2411SOL    HW1 1279   2.338   3.130   2.990
 2411SOL    HW2 1280   2.442   3.226   3.071
 2412SOL     OW 1281   3.417   3.373   2.565
 2412SOL    HW1 1282   3.360   3.357   2.646
 2412SOL    HW2 1283   3.358   3.383   2.485
 2413SOL     OW 1284   3.617   2.469   2.093
 2413SOL    HW1 1285   3.605   2.456   1.994
 2413SOL    HW2 1286   3.587   2.388   2.142
 2414SOL     OW 1287   2.630   3.006   2.885
 2414SOL    HW1 1288   2.552   3.023   2.945
 2414SOL    HW2 1289   2.664   3.093   2.849
 2415SOL     OW 1290   2.712   2.660   3.685
 2415SOL    HW1 1291   2.708   2.736   3.750
 2415SOL    HW2 1292   2.734   2.696   3.594
 2416SOL     OW 1293   2.547   2.874   2.527
 2416SOL    HW1 1294   2.616   2.858   2.597
 2416SOL    HW2 1295   2.474   2.931   2.565
 2417SOL     OW 1296   2.548   3.023   3.665
 2417SOL    HW1 1297   2.608   3.102   3.679
 2417SOL    HW2 1298   2.462   3.054   3.624
 2418SOL     OW 1299   2.197   3.297   2.923
 2418SOL    HW1 1300   2.119   3.266   2.870
 2418SOL    HW2 1301   2.255   3.355   2.866
 2419SOL     OW 1302   3.322   3.367   3.201
 2419SOL    HW1 1303   3.346   3.461   3.227
 2419SOL    HW2 1304   3.306   3.313   3.283
 2420SOL     OW 1305   2.300   2.254   3.361
 2420SOL    HW1 1306   2.382   2.198   3.370
 2420SOL    HW2 1307   2.219   2.196   3.365
 2421SOL     OW 1308   3.465   2.309   2.599
 2421SOL    HW1 1309   3.391   2.355   2.549
 2421SOL    HW2 1310   3.516   2.377   2.652
 2422SOL     OW 1311   2.093   3.575   2.345
 2422SOL    HW1 1312   2.127   3.652   2.399
 2422SOL    HW2 1313   2.137   3.575   2.255
 2423SOL     OW 1314   2.989   3.203   3.552
 2423SOL    HW1 1315   3.036   3.203   3.640
 2423SOL    HW2 1316   2.941   3.116   3.541
 2424SOL     OW 1317   2.092   3.296   2.400
 2424SOL    HW1 1318   2.066   3.392   2.400
 2424SOL    HW2 1319   2.021   3.242   2.445
 2425SOL     OW 1320   2.102   2.953   2.748
 2425SOL    HW1 1321   2.116   2.869   2.800
 2425SOL    HW2 1322   2.047   3.017   2.803
 2426SOL     OW 1323   2.482   3.648   3.301
 2426SOL    HW1 1324   2.390   3.631   3.336
 2426SOL    HW2 1325   2.510   3.740   3.327
 2427SOL     OW 1326   2.468   2.826   1.985
 2427SOL    HW1 1327   2.475   2.910   1.931
 2427SOL    HW2 1328   2.514   2.839   2.073
 2428SOL     OW 1329   3.456   1.976   3.342
 2428SOL    HW1 1330   3.438   2.043   3.270
 2428SOL    HW2 1331   3.453   2.022   3.431
 2429SOL     OW 1332   1.984   2.505   2.425
 2429SOL    HW1 1333   1.939   2.417   2.442
 2429SOL    HW2 1334   1.983   2.559   2.509
 2430SOL     OW 1335   3.704   3.629   2.221
 2430SOL    HW1 1336   3.758   3.600   2.301
 2430SOL    HW2 1337   3.734   3.719   2.192
 2431SOL     OW 1338   1.889   3.458   1.979
 2431SOL    HW1 1339   1.870   3.362   2.000
 2431SOL    HW2 1340   1.856   3.516   2.054
 2432SOL     OW 1341   3.551   2.784   2.474
 2432SOL    HW1 1342   3.646   2.755   2.482
 2432SOL    HW2 1343   3.543   2.849   2.399
 2433SOL     OW 1344   3.503   2.970   2.294
 2433SOL    HW1 1345   3.589   2.972   2.242
 2433SOL    HW2 1346   3.517   3.017   2.382
 2434SOL     OW 1347   1.975   2.599   3.459
 2434SOL    HW1 1348   2.063   2.586   3.504
 2434SOL    HW2 1349   1.962   2.696   3.437
 2435SOL     OW 1350   2.475   3.227   2.588
 2435SOL    HW1 1351   2.426   3.140   2.597
 2435SOL    HW2 1352   2.452   3.270   2.501
 2436SOL     OW 1353   3.155   3.090   3.285
 2436SOL    HW1 1354   3.192   3.017   3.227
 2436SOL    HW2 1355   3.207   3.095   3.370
 2437SOL     OW 1356   2.671   1.866   2.364
 2437SOL    HW1 1357   2.711   1.957   2.355
 2437SOL    HW2 1358   2.571   1.874   2.370
 2438SOL     OW 1359   2.059   2.838   3.126
 2438SOL    HW1 1360   2.148   2.793   3.112
 2438SOL    HW2 1361   1.986   2.773   3.107
 2439SOL     OW 1362   3.387   2.861   2.052
 2439SOL    HW1 1363   3.324   2.785   2.065
 2439SOL    HW2 1364   3.435   2.879   2.138
 2440SOL     OW 1365   3.049   3.654   3.478
 2440SOL    HW1 1366   3.073   3.714   3.402
 2440SOL    HW2 1367   3.056   3.559   3.448
 2441SOL     OW 1368   2.179   2.113   3.663
 2441SOL    HW1 1369   2.250   2.184   3.669
 2441SOL    HW2 1370   2.091   2.152   3.691
 2442SOL     OW 1371   3.328   3.279   2.815
 2442SOL    HW1 1372   3.269   3.285   2.895
 2442SOL    HW2 1373   3.313   3.191   2.769
 2443SOL     OW 1374   3.529   3.576   2.434
 2443SOL    HW1 1375   3.488   3.553   2.346
 2443SOL    HW2 1376   3.511   3.502   2.499
 2444SOL     OW 1377   2.460   2.591   2.132
 2444SOL    HW1 1378   2.484   2.660   2.064
 2444SOL    HW2 1379   2.382   2.624   2.186
 2445SOL     OW 1380   3.143   2.207   2.806
 2445SOL    HW1 1381   3.057   2.157   2.793
 2445SOL    HW2 1382   3.205   2.153   2.862
 2446SOL     OW 1383   3.438   3.524   2.169
 2446SOL    HW1 1384   3.527   3.570   2.172
 2446SOL    HW2 1385   3.417   3.500   2.074
 2447SOL     OW 1386   2.669   2.467   3.327
 2447SOL    HW1 1387   2.622   2.464   3.416
 2447SOL    HW2 1388   2.618   2.412   3.261
 2448SOL     OW 1389   3.256   2.331   3.536
 2448SOL    HW1 1390   3.236   2.374   3.624
 2448SOL    HW2 1391   3.334   2.269   3.545
 2449SOL     OW 1392   2.835   2.752   3.434
 2449SOL    HW1 1393   2.881   2.668   3.405
 2449SOL    HW2 1394   2.779   2.786   3.359
 2450SOL     OW 1395   2.853   2.272   3.104
 2450SOL    HW1 1396   2.776   2.306   3.158
 2450SOL    HW2 1397   2.819   2.221   3.025
 2451SOL     OW 1398   2.903   2.563   2.291
 2451SOL    HW1 1399   2.929   2.559   2.387
 2451SOL    HW2 1400   2.818   2.512   2.277
 2452SOL     OW 1401   1.938   2.673   2.651
 2452SOL    HW1 1402   2.037   2.661   2.660
 2452SOL    HW2 1403   1.914   2.768   2.672
 2453SOL     OW 1404   1.992   3.683   3.433
 2453SOL    HW1 1405   1.982   3.668   3.532
 2453SOL    HW2 1406   1.906   3.719   3.397
 2454SOL     OW 1407   2.727   2.210   2.057
 2454SOL    HW1 1408   2.786   2.273   2.008
 2454SOL    HW2 1409   2.746   2.116   2.028
 2455SOL     OW 1410   3.581   2.447   3.693
 2455SOL    HW1 1411   3.555   2.536   3.657
 2455SOL    HW2 1412   3.579   2.379   3.620
 2456SOL     OW 1413   3.224   3.006   2.407
 2456SOL    HW1 1414   3.307   2.977   2.359
 2456SOL    HW2 1415   3.175   3.073   2.351
 2457SOL     OW 1416   2.412   2.058   2.747
 2457SOL    HW1 1417   2.407   2.053   2.847
 2457SOL    HW2 1418   2.414   2.154   2.718
 2458SOL     OW 1419   2.870   3.318   2.339
 2458SOL    HW1 1420   2.824   3.390   2.287
 2458SOL    HW2 1421   2.866   3.338   2.437
 2459SOL     OW 1422   2.213   3.663   2.715
 2459SOL    HW1 1423   2.263   3.577   2.721
 2459SOL    HW2 1424   2.278   3.740   2.712
 2460SOL     OW 1425   3.657   2.928   2.735
 2460SOL    HW1 1426   3.595   2.913   2.659
 2460SOL    HW2 1427   3.605   2.939   2.820
 2461SOL     OW 1428   3.089   3.412   3.368
 2461SOL    HW1 1429   3.095   3.335   3.432
 2461SOL    HW2 1430   3.037   3.386   3.288
 2462SOL     OW 1431   2.183   2.805   2.104
 2462SOL    HW1 1432   2.265   2.844   2.062
 2462SOL    HW2 1433   2.156   2.723   2.055
 2463SOL     OW 1434   3.320   2.597   2.590
 2463SOL    HW1 1435   3.315   2.532   2.665
 2463SOL    HW2 1436   3.400   2.656   2.603
 2464SOL     OW 1437   2.323   3.128   3.589
 2464SOL    HW1 1438   2.273   3.129   3.503
 2464SOL    HW2 1439   2.260   3.110   3.665
 2465SOL     OW 1440   2.973   3.638   2.099
 2465SOL    HW1 1441   2.913   3.576   2.149
 2465SOL    HW2 1442   3.004   3.594   2.014
 2466SOL     OW 1443   2.064   2.147   3.360
 2466SOL    HW1 1444   1.984   2.207   3.347
 2466SOL    HW2 1445   2.054   2.098   3.446
 2467SOL     OW 1446   3.494   3.239   1.943
 2467SOL    HW1 1447   3.462   3.333   1.933
 2467SOL    HW2 1448   3.418   3.176   1.931
 2468SOL     OW 1449   2.326   3.605   2.185
 2468SOL    HW1 1450   2.359   3.644   2.271
 2468SOL    HW2 1451   2.402   3.598   2.120
 2469SOL     OW 1452   3.262   1.969   2.288
 2469SOL    HW1 1453   3.238   1.932   2.198
 2469SOL    HW2 1454   3.361   1.985   2.292
 2470SOL     OW 1455   2.111   3.647   3.103
 2470SOL    HW1 1456   2.168   3.582   3.153
 2470SOL    HW2 1457   2.095   3.614   3.010
 2471SOL     OW 1458   2.802   3.560   2.766
 2471SOL    HW1 1459   2.882   3.503   2.787
 2471SOL    HW2 1460   2.753   3.520   2.689
 2472SOL     OW 1461   3.409   2.084   3.591
 2472SOL    HW1 1462   3.404   2.121   3.683
 2472SOL    HW2 1463   3.337   2.015   3.579
 2473SOL     OW 1464   2.476   1.984   1.979
 2473SOL    HW1 1465   2.574   1.962   1.986
 2473SOL    HW2 1466   2.445   1.967   1.886
 2474SOL     OW 1467   2.643   2.126   3.611
 2474SOL    HW1 1468   2.710   2.065   3.654
 2474SOL    HW2 1469   2.570   2.145   3.676
 2475SOL     OW 1470   2.750   3.376   3.057
 2475SOL    HW1 1471   2.727   3.351   2.963
 2475SOL    HW2 1472   2.811   3.307   3.096
 2476SOL     OW 1473   3.213   2.452   3.295
 2476SOL    HW1 1474   3.241   2.409   3.380
 2476SOL    HW2 1475   3.238   2.548   3.296
 2477SOL     OW 1476   2.665   3.264   2.786
 2477SOL    HW1 1477   2.755   3.278   2.744
 2477SOL    HW2 1478   2.594   3.266   2.715
 2478SOL     OW 1479   2.784   2.365   2.761
 2478SOL    HW1 1480   2.759   2.356   2.665
 2478SOL    HW2 1481   2.832   2.283   2.792
 2479SOL     OW 1482   2.401   1.926   2.374
 2479SOL    HW1 1483   2.320   1.927   2.432
 2479SOL    HW2 1484   2.404   2.009   2.319
 2480SOL     OW 1485   3.296   3.050   1.903
 2480SOL    HW1 1486   3.328   2.974   1.960
 2480SOL    HW2 1487   3.204   3.077   1.933
 2481SOL     OW 1488   2.159   1.897   2.033
 2481SOL    HW1 1489   2.208   1.981   2.012
 2481SOL    HW2 1490   2.221   1.832   2.078
 2482SOL     OW 1491   2.797   2.098   2.342
 2482SOL    HW1 1492   2.749   2.139   2.264
 2482SOL    HW2 1493   2.896   2.096   2.323
 2483SOL     OW 1494   2.938   2.545   3.326
 2483SOL    HW1 1495   2.858   2.484   3.329
 2483SOL    HW2 1496   3.019   2.492   3.302
 2484SOL     OW 1497   3.089   3.432   2.655
 2484SOL    HW1 1498   3.110   3.506   2.590
 2484SOL    HW2 1499   3.157   3.432   2.728
 2485SOL     OW 1500   2.321   3.014   2.603
 2485SOL    HW1 1501   2.250   2.987   2.668
 2485SOL    HW2 1502   2.295   2.986   2.510
 2486SOL     OW 1503   3.133   3.659   2.453
 2486SOL    HW1 1504   3.177   3.723   2.389
 2486SOL    HW2 1505   3.083   3.711   2.523
 2487SOL     OW 1506   2.894   2.411   1.878
 2487SOL    HW1 1507   2.853   2.493   1.839
 2487SOL    HW2 1508   2.958   2.437   1.951
 2488SOL     OW 1509   1.940   2.418   3.248
 2488SOL    HW1 1510   2.032   2.417   3.207
 2488SOL    HW2 1511   1.934   2.492   3.315
 2489SOL     OW 1512   2.423   2.084   3.009
 2489SOL    HW1 1513   2.461   2.000   3.046
 2489SOL    HW2 1514   2.335   2.103   3.053
 2490SOL     OW 1515   2.728   2.316   2.504
 2490SOL    HW1 1516   2.696   2.388   2.442
 2490SOL    HW2 1517   2.752   2.235   2.451
 2491SOL     OW 1518   2.879   1.901   2.615
 2491SOL    HW1 1519   2.807   1.906   2.546
 2491SOL    HW2 1520   2.855   1.832   2.684
 2492SOL     OW 1521   3.291   3.035   2.729
 2492SOL    HW1 1522   3.236   2.951   2.722
 2492SOL    HW2 1523   3.317   3.064   2.637
 2493SOL     OW 1524   3.328   2.452   2.854
 2493SOL    HW1 1525   3.298   2.357   2.861
 2493SOL    HW2 1526   3.401   2.468   2.920
 2494SOL     OW 1527   3.719   2.695   2.239
 2494SOL    HW1 1528   3.761   2.631   2.303
 2494SOL    HW2 1529   3.681   2.644   2.161
 2495SOL     OW 1530   2.350   3.247   2.036
 2495SOL    HW1 1531   2.263   3.232   2.083
 2495SOL    HW2 1532   2.333   3.273   1.941
 2496SOL     OW 1533   3.526   3.142   2.519
 2496SOL    HW1 1534   3.625   3.150   2.533
 2496SOL    HW2 1535   3.481   3.226   2.550
 2497SOL     OW 1536   3.252   2.437   1.940
 2497SOL    HW1 1537   3.198   2.416   2.021
 2497SOL    HW2 1538   3.343   2.396   1.949
 2498SOL     OW 1539   2.389   2.118   2.190
 2498SOL    HW1 1540   2.416   2.059   2.115
 2498SOL    HW2 1541   2.389   2.213   2.159
 2499SOL     OW 1542   3.616   3.085   3.450
 2499SOL    HW1 1543   3.707   3.046   3.437
 2499SOL    HW2 1544   3.624   3.181   3.474
 2500SOL     OW 1545   2.926   3.209   3.202
 2500SOL    HW1 1546   2.846   3.186   3.257
 2500SOL    HW2 1547   3.009   3.183   3.251
 2501SOL     OW 1548   3.454   3.491   3.487
 2501SOL    HW1 1549   3.481   3.525   3.397
 2501SOL    HW2 1550   3.533   3.453   3.533
 2502SOL     OW 1551   2.973   3.057   2.962
 2502SOL    HW1 1552   2.933   3.101   3.043
 2502SOL    HW2 1553   2.932   3.094   2.879
 2503SOL     OW 1554   3.500   2.961   2.941
 2503SOL    HW1 1555   3.505   3.042   3.000
 2503SOL    HW2 1556   3.414   2.963   2.890
 2504SOL     OW 1557   2.777   1.951   3.264
 2504SOL    HW1 1558   2.802   1.931   3.169
 2504SOL    HW2 1559   2.849   2.007   3.306
 2505SOL     OW 1560   2.842   2.978   3.581
 2505SOL    HW1 1561   2.743   2.984   3.591
 2505SOL    HW2 1562   2.865   2.898   3.525
 2506SOL     OW 1563   2.567   2.912   2.230
 2506SOL    HW1 1564   2.553   2.919   2.329
 2506SOL    HW2 1565   2.651   2.861   2.212
 2507SOL     OW 1566   2.272   2.675   3.113
 2507SOL    HW1 1567   2.358   2.687   3.163
 2507SOL    HW2 1568   2.230   2.588   3.140
 2508SOL     OW 1569   3.136   2.248   3.124
 2508SOL    HW1 1570   3.157   2.322   3.188
 2508SOL    HW2 1571   3.047   2.265   3.081
 2509SOL     OW 1572   1.926   3.426   3.193
 2509SOL    HW1 1573   1.880   3.508   3.159
 2509SOL    HW2 1574   2.024   3.445   3.202
 2510SOL     OW 1575   2.229   2.962   2.363
 2510SOL    HW1 1576   2.222   3.045   2.307
 2510SOL    HW2 1577   2.233   2.882   2.303
 2511SOL     OW 1578   2.428   2.399   2.727
 2511SOL    HW1 1579   2.440   2.465   2.653
 2511SOL    HW2 1580   2.474   2.433   2.810
 2512SOL     OW 1581   3.114   3.210   2.250
 2512SOL    HW1 1582   3.164   3.287   2.290
 2512SOL    HW2 1583   3.019   3.212   2.282
 2513SOL     OW 1584   3.134   3.307   3.004
 2513SOL    HW1 1585   3.181   3.320   3.091
 2513SOL    HW2 1586   3.068   3.233   3.013
 2514SOL     OW 1587   3.444   2.501   2.334
 2514SOL    HW1 1588   3.413   2.562   2.407
 2514SOL    HW2 1589   3.494   2.553   2.265
 2515SOL     OW 1590   2.216   3.372   3.191
 2515SOL    HW1 1591   2.195   3.328   3.104
 2515SOL    HW2 1592   2.313   3.398   3.194
 2516SOL     OW 1593   2.264   2.613   3.460
 2516SOL    HW1 1594   2.332   2.668   3.413
 2516SOL    HW2 1595   2.304   2.525   3.487
 2517SOL     OW 1596   3.449   2.641   3.532
 2517SOL    HW1 1597   3.357   2.679   3.527
 2517SOL    HW2 1598   3.509   2.688   3.467
 2518SOL     OW 1599   2.875   1.967   3.632
 2518SOL    HW1 1600   2.881   2.052   3.580
 2518SOL    HW2 1601   2.907   1.891   3.575
 2519SOL     OW 1602   2.366   1.912   3.602
 2519SOL    HW1 1603   2.324   1.855   3.532
 2519SOL    HW2 1604   2.300   1.981   3.634
 2520SOL     OW 1605   2.435   2.732   2.891
 2520SOL    HW1 1606   2.479   2.821   2.882
 2520SOL    HW2 1607   2.372   2.732   2.968
 2521SOL     OW 1608   3.222   2.724   2.907
 2521SOL    HW1 1609   3.147   2.724   2.841
 2521SOL    HW2 1610   3.259   2.632   2.916
 2522SOL     OW 1611   3.071   2.387   2.137
 2522SOL    HW1 1612   3.084   2.303   2.191
 2522SOL    HW2 1613   3.042   2.461   2.197
 2523SOL     OW 1614   2.169   2.075   3.093
 2523SOL    HW1 1615   2.146   2.112   3.183
 2523SOL    HW2 1616   2.139   1.980   3.087
 2524SOL     OW 1617   1.899   3.172   3.144
 2524SOL    HW1 1618   1.952   3.123   3.212
 2524SOL    HW2 1619   1.921   3.270   3.149
 2525SOL     OW 1620   2.594   2.496   2.926
 2525SOL    HW1 1621   2.653   2.470   2.850
 2525SOL    HW2 1622   2.566   2.592   2.915
 2526SOL     OW 1623   3.590   2.797   3.716
 2526SOL    HW1 1624   3.544   2.790   3.627
 2526SOL    HW2 1625   3.528   2.841   3.782
 2527SOL     OW 1626   2.169   1.925   2.480
 2527SOL    HW1 1627   2.158   2.019   2.513
 2527SOL    HW2 1628   2.164   1.862   2.557
 2528SOL     OW 1629   3.484   2.229   2.236
 2528SOL    HW1 1630   3.486   2.153   2.300
 2528SOL    HW2 1631   3.436   2.306   2.276
 2529SOL     OW 1632   2.842   3.435   3.562
 2529SOL    HW1 1633   2.822   3.479   3.474
 2529SOL    HW2 1634   2.881   3.344   3.546
 2530SOL     OW 1635   3.721   3.380   3.467
 2530SOL    HW1 1636   3.735   3.407   3.372
 2530SOL    HW2 1637   3.804   3.402   3.520
 2531SOL     OW 1638   2.212   2.760   3.666
 2531SOL    HW1 1639   2.288   2.804   3.714
 2531SOL    HW2 1640   2.247   2.713   3.584
 2532SOL     OW 1641   3.402   2.136   1.987
 2532SOL    HW1 1642   3.341   2.061   2.010
 2532SOL    HW2 1643   3.424   2.188   2.070
 2533SOL     OW 1644   3.165   2.700   1.904
 2533SOL    HW1 1645   3.199   2.607   1.919
 2533SOL    HW2 1646   3.183   2.727   1.809
 2534SOL     OW 1647   2.930   3.195   2.711
 2534SOL    HW1 1648   2.937   3.111   2.656
 2534SOL    HW2 1649   2.992   3.264   2.675
 2535SOL     OW 1650   2.181   2.672   2.811
 2535SOL    HW1 1651   2.274   2.708   2.816
 2535SOL    HW2 1652   2.175   2.587   2.863
 2536SOL     OW 1653   2.201   2.371   2.868
 2536SOL    HW1 1654   2.149   2.288   2.851
 2536SOL    HW2 1655   2.278   2.376   2.804
 2537SOL     OW 1656   3.000   2.242   3.540
 2537SOL    HW1 1657   2.955   2.305   3.604
 2537SOL    HW2 1658   3.093   2.273   3.523
 2538SOL     OW 1659   3.022   2.069   3.339
 2538SOL    HW1 1660   3.022   2.133   3.416
 2538SOL    HW2 1661   3.050   2.117   3.256
 2539SOL     OW 1662   1.870   3.188   2.062
 2539SOL    HW1 1663   1.777   3.209   2.031
 2539SOL    HW2 1664   1.880   3.089   2.075
 2540SOL     OW 1665   1.950   3.663   2.789
 2540SOL    HW1 1666   1.908   3.577   2.762
 2540SOL    HW2 1667   2.044   3.666   2.755
 2541SOL     OW 1668   2.366   3.430   2.772
 2541SOL    HW1 1669   2.432   3.504   2.781
 2541SOL    HW2 1670   2.410   3.351   2.730
 2542SOL     OW 1671   2.864   2.658   3.100
 2542SOL    HW1 1672   2.905   2.626   3.186
 2542SOL    HW2 1673   2.768   2.631   3.097
 2543SOL     OW 1674   1.902   2.406   2.976
 2543SOL    HW1 1675   1.987   2.373   2.935
 2543SOL    HW2 1676   1.915   2.421   3.074
 2544SOL     OW 1677   2.051   2.382   3.584
 2544SOL    HW1 1678   2.110   2.342   3.514
 2544SOL    HW2 1679   1.993   2.453   3.543
 2545SOL     OW 1680   3.231   2.812   3.522
 2545SOL    HW1 1681   3.270   2.901   3.542
 2545SOL    HW2 1682   3.241   2.792   3.425
 2546SOL     OW 1683   2.677   2.434   2.187
 2546SOL    HW1 1684   2.684   2.345   2.141
 2546SOL    HW2 1685   2.583   2.468   2.179
 2547SOL     OW 1686   3.519   2.466   3.068
 2547SOL    HW1 1687   3.481   2.397   3.130
 2547SOL    HW2 1688   3.601   2.430   3.024
 2548SOL     OW 1689   2.114   3.426   3.606
 2548SOL    HW1 1690   2.084   3.483   3.682
 2548SOL    HW2 1691   2.107   3.329   3.632
 2549SOL     OW 1692   2.533   2.326   3.131
 2549SOL    HW1 1693   2.499   2.237   3.101
 2549SOL    HW2 1694   2.559   2.380   3.051
 2550SOL     OW 1695   2.792   3.540   3.327
 2550SOL    HW1 1696   2.768   3.522   3.232
 2550SOL    HW2 1697   2.822   3.634   3.337
 2551SOL     OW 1698   2.335   2.362   2.053
 2551SOL    HW1 1699   2.396   2.442   2.057
 2551SOL    HW2 1700   2.240   2.393   2.060
 2552SOL     OW 1701   2.021   2.999   3.328
 2552SOL    HW1 1702   2.043   2.938   3.404
 2552SOL    HW2 1703   2.031   2.950   3.242
 2553SOL     OW 1704   3.209   2.921   3.096
 2553SOL    HW1 1705   3.233   2.858   3.022
 2553SOL    HW2 1706   3.119   2.961   3.078
 2554SOL     OW 1707   3.164   2.717   2.171
 2554SOL    HW1 1708   3.078   2.686   2.213
 2554SOL    HW2 1709   3.160   2.703   2.072
 2555SOL     OW 1710   3.621   3.609   3.016
 2555SOL    HW1 1711   3.682   3.639   2.943
 2555SOL    HW2 1712   3.583   3.520   2.994
 2556SOL     OW 1713   3.114   3.593   2.990
 2556SOL    HW1 1714   3.198   3.598   2.936
 2556SOL    HW2 1715   3.091   3.497   3.008
 2557SOL     OW 1716   1.945   3.120   2.884
 2557SOL    HW1 1717   1.940   3.119   2.984
 2557SOL    HW2 1718   1.862   3.079   2.846
 2558SOL     OW 1719   2.550   3.524   3.578
 2558SOL    HW1 1720   2.494   3.605   3.587
 2558SOL    HW2 1721   2.602   3.528   3.492
 2559SOL     OW 1722   3.588   1.997   2.385
 2559SOL    HW1 1723   3.661   1.980   2.318
 2559SOL    HW2 1724   3.557   1.910   2.423
 2560SOL     OW 1725   3.250   3.435   2.339
 2560SOL    HW1 1726   3.317   3.447   2.265
 2560SOL    HW2 1727   3.210   3.524   2.362
 2561SOL     OW 1728   1.992   3.656   3.713
 2561SOL    HW1 1729   1.951   3.582   3.766
 2561SOL    HW2 1730   2.056   3.707   3.771
 2562SOL     OW 1731   3.142   2.789   2.534
 2562SOL    HW1 1732   3.202   2.708   2.536
 2562SOL    HW2 1733   3.182   2.858   2.474
 2563SOL     OW 1734   2.692   3.135   3.284
 2563SOL    HW1 1735   2.687   3.168   3.379
 2563SOL    HW2 1736   2.606   3.154   3.238
 2564SOL     OW 1737   2.534   3.478   2.016
 2564SOL    HW1 1738   2.543   3.488   1.917
 2564SOL    HW2 1739   2.494   3.389   2.037
 2565SOL     OW 1740   3.512   3.582   3.256
 2565SOL    HW1 1741   3.565   3.592   3.172
 2565SOL    HW2 1742   3.485   3.672   3.290
 2566SOL     OW 1743   3.703   2.037   2.825
 2566SOL    HW1 1744   3.742   1.952   2.789
 2566SOL    HW2 1745   3.605   2.039   2.806
 2567SOL     OW 1746   3.056   3.474   1.893
 2567SOL    HW1 1747   3.062   3.381   1.930
 2567SOL    HW2 1748   2.997   3.474   1.813
 2568SOL     OW 1749   2.684   2.864   3.234
 2568SOL    HW1 1750   2.724   2.863   3.142
 2568SOL    HW2 1751   2.694   2.956   3.274
 2569SOL     OW 1752   2.778   2.772   2.153
 2569SOL    HW1 1753   2.841   2.810   2.085
 2569SOL    HW2 1754   2.818   2.689   2.192
 2570SOL     OW 1755   3.366   3.469   1.906
 2570SOL    HW1 1756   3.274   3.506   1.913
 2570SOL    HW2 1757   3.404   3.489   1.816
 2571SOL     OW 1758   2.234   3.150   3.352
 2571SOL    HW1 1759   2.221   3.243   3.318
 2571SOL    HW2 1760   2.150   3.098   3.339
 2572SOL     OW 1761   3.476   3.154   3.151
 2572SOL    HW1 1762   3.536   3.157   3.231
 2572SOL    HW2 1763   3.401   3.218   3.164
 2573SOL     OW 1764   2.876   2.098   2.833
 2573SOL    HW1 1765   2.868   2.062   2.740
 2573SOL    HW2 1766   2.874   2.022   2.898
 2574SOL     OW 1767   2.452   3.349   2.353
 2574SOL    HW1 1768   2.494   3.291   2.283
 2574SOL    HW2 1769   2.408   3.428   2.309
 2575SOL     OW 1770   3.571   2.247   3.243
 2575SOL    HW1 1771   3.644   2.316   3.247
 2575SOL    HW2 1772   3.599   2.172   3.184
 2576SOL     OW 1773   2.117   3.210   2.152
 2576SOL    HW1 1774   2.021   3.211   2.125
 2576SOL    HW2 1775   2.129   3.263   2.236
 2577SOL     OW 1776   1.967   2.875   3.588
 2577SOL    HW1 1777   1.890   2.842   3.642
 2577SOL    HW2 1778   2.052   2.845   3.630
 2578SOL     OW 1779   2.534   2.065   3.351
 2578SOL    HW1 1780   2.624   2.049   3.311
 2578SOL    HW2 1781   2.542   2.070   3.450
 2579SOL     OW 1782   1.937   2.207   1.895
 2579SOL    HW1 1783   1.845   2.179   1.866
 2579SOL    HW2 1784   1.968   2.284   1.839
 2580SOL     OW 1785   3.302   2.718   3.260
 2580SOL    HW1 1786   3.245   2.770   3.197
 2580SOL    HW2 1787   3.398   2.730   3.236
 2581SOL     OW 1788   1.934   2.028   2.180
 2581SOL    HW1 1789   1.917   2.111   2.126
 2581SOL    HW2 1790   2.024   1.991   2.158
 2582SOL     OW 1791   3.045   3.197   1.981
 2582SOL    HW1 1792   2.946   3.186   1.983
 2582SOL    HW2 1793   3.079   3.212   2.074
 2583SOL     OW 1794   2.475   2.704   3.293
 2583SOL    HW1 1795   2.531   2.785   3.276
 2583SOL    HW2 1796   2.534   2.624   3.296
 2584SOL     OW 1797   3.355   3.629   2.821
 2584SOL    HW1 1798   3.388   3.693   2.752
 2584SOL    HW2 1799   3.421   3.623   2.896
 2585SOL     OW 1800   2.578   2.427   3.570
 2585SOL    HW1 1801   2.597   2.492   3.644
 2585SOL    HW2 1802   2.638   2.347   3.579
 2586SOL     OW 1803   3.312   3.082   3.495
 2586SOL    HW1 1804   3.303   3.072   3.594
 2586SOL    HW2 1805   3.408   3.075   3.469
 2587SOL     OW 1806   2.252   3.603   3.422
 2587SOL    HW1 1807   2.161   3.644   3.420
 2587SOL    HW2 1808   2.245   3.509   3.454
 2588SOL     OW 1809   3.536   2.745   3.116
 2588SOL    HW1 1810   3.509   2.656   3.079
 2588SOL    HW2 1811   3.537   2.813   3.043
 2589SOL     OW 1812   3.087   2.187   2.311
 2589SOL    HW1 1813   3.152   2.113   2.300
 2589SOL    HW2 1814   3.107   2.237   2.395
 2590SOL     OW 1815   3.639   2.204   3.504
 2590SOL    HW1 1816   3.622   2.235   3.410
 2590SOL    HW2 1817   3.555   2.167   3.542
 2591SOL     OW 1818   3.592   2.796   3.379
 2591SOL    HW1 1819   3.630   2.887   3.394
 2591SOL    HW2 1820   3.584   2.779   3.280
 2592SOL     OW 1821   2.721   3.236   1.878
 2592SOL    HW1 1822   2.675   3.251   1.966
 2592SOL    HW2 1823   2.765   3.321   1.848
 2593SOL     OW 1824   2.523   3.652   2.815
 2593SOL    HW1 1825   2.477   3.740   2.802
 2593SOL    HW2 1826   2.622   3.664   2.808
 2594SOL     OW 1827   2.945   2.846   1.949
 2594SOL    HW1 1828   2.922   2.899   1.867
 2594SOL    HW2 1829   3.026   2.790   1.930
 2595SOL     OW 1830   3.723   3.431   2.713
 2595SOL    HW1 1831   3.652   3.419   2.643
 2595SOL    HW2 1832   3.724   3.352   2.773
 2596SOL     OW 1833   2.083   3.176   3.706
 2596SOL    HW1 1834   2.018   3.103   3.685
 2596SOL    HW2 1835   2.087   3.190   3.804
 2597SOL     OW 1836   1.941   3.102   2.515
 2597SOL    HW1 1837   1.940   3.055   2.603
 2597SOL    HW2 1838   2.023   3.074   2.464
 2598SOL     OW 1839   2.534   3.253   3.486
 2598SOL    HW1 1840   2.456   3.203   3.524
 2598SOL    HW2 1841   2.531   3.348   3.517
 2599SOL     OW 1842   3.686   2.054   3.089
 2599SOL    HW1 1843   3.682   1.964   3.133
 2599SOL    HW2 1844   3.689   2.043   2.990
 2600SOL     OW 1845   3.567   3.349   2.966
 2600SOL    HW1 1846   3.474   3.324   2.939
 2600SOL    HW2 1847   3.593   3.299   3.048
 2601SOL     OW 1848   2.179   2.409   3.142
 2601SOL    HW1 1849   2.217   2.350   3.214
 2601SOL    HW2 1850   2.219   2.383   3.054
 2602SOL     OW 1851   2.674   3.448   2.549
 2602SOL    HW1 1852   2.706   3.458   2.455
 2602SOL    HW2 1853   2.595   3.386   2.551
 2603SOL     OW 1854   3.286   2.076   2.974
 2603SOL    HW1 1855   3.338   2.011   3.029
 2603SOL    HW2 1856   3.237   2.139   3.035
 2604SOL     OW 1857   2.863   1.896   3.016
 2604SOL    HW1 1858   2.800   1.824   2.985
 2604SOL    HW2 1859   2.956   1.860   3.016
 2605SOL     OW 1860   2.632   3.192   2.163
 2605SOL    HW1 1861   2.586   3.105   2.180
 2605SOL    HW2 1862   2.723   3.189   2.204
 2606SOL     OW 1863   2.480   3.429   3.146
 2606SOL    HW1 1864   2.475   3.511   3.203
 2606SOL    HW2 1865   2.569   3.426   3.101
 2607SOL     OW 1866   3.214   1.914   2.030
 2607SOL    HW1 1867   3.249   1.873   1.946
 2607SOL    HW2 1868   3.124   1.876   2.050
 2608SOL     OW 1869   3.162   2.315   2.553
 2608SOL    HW1 1870   3.103   2.395   2.557
 2608SOL    HW2 1871   3.177   2.280   2.646
 2609SOL     OW 1872   3.455   2.083   2.744
 2609SOL    HW1 1873   3.371   2.082   2.798
 2609SOL    HW2 1874   3.457   2.166   2.688
 2610SOL     OW 1875   1.901   2.939   2.162
 2610SOL    HW1 1876   2.000   2.928   2.153
 2610SOL    HW2 1877   1.861   2.853   2.194
 2611SOL     OW 1878   2.737   3.508   2.199
 2611SOL    HW1 1879   2.660   3.473   2.145
 2611SOL    HW2 1880   2.705   3.579   2.261
 2612SOL     OW 1881   2.092   2.490   3.837
 2612SOL    HW1 1882   1.999   2.488   3.874
 2612SOL    HW2 1883   2.093   2.451   3.745
 2618SOL     OW 1884   3.617   2.469   3.955
 2618SOL    HW1 1885   3.605   2.456   3.856
 2618SOL    HW2 1886   3.587   2.388   4.004
 2627SOL     OW 1887   2.468   2.826   3.847
 2627SOL    HW1 1888   2.475   2.910   3.793
 2627SOL    HW2 1889   2.514   2.839   3.935
 2630SOL     OW 1890   1.889   3.458   3.841
 2630SOL    HW1 1891   1.870   3.362   3.862
 2630SOL    HW2 1892   1.856   3.516   3.916
 2636SOL     OW 1893   3.387   2.861   3.914
 2636SOL    HW1 1894   3.324   2.785   3.927
 2636SOL    HW2 1895   3.435   2.879   4.000
 2639SOL     OW 1896   2.460   2.591   3.994
 2639SOL    HW1 1897   2.484   2.660   3.926
 2639SOL    HW2 1898   2.382   2.624   4.048
 2644SOL     OW 1899   2.903   2.563   4.153
 2644SOL    HW1 1900   2.929   2.559   4.249
 2644SOL    HW2 1901   2.818   2.512   4.139
 2647SOL     OW 1902   2.727   2.210   3.919
 2647SOL    HW1 1903   2.786   2.273   3.870
 2647SOL    HW2 1904   2.746   2.116   3.890
 2653SOL     OW 1905   2.183   2.805   3.966
 2653SOL    HW1 1906   2.265   2.844   3.924
 2653SOL    HW2 1907   2.156   2.723   3.917
 2656SOL     OW 1908   3.494   3.239   3.805
 2656SOL    HW1 1909   3.462   3.333   3.795
 2656SOL    HW2 1910   3.418   3.176   3.793
 2661SOL     OW 1911   2.244   2.562   4.204
 2661SOL    HW1 1912   2.289   2.472   4.201
 2661SOL    HW2 1913   2.150   2.551   4.237
 2662SOL     OW 1914   2.476   1.984   3.841
 2662SOL    HW1 1915   2.574   1.962   3.848
 2662SOL    HW2 1916   2.445   1.967   3.748
 2666SOL     OW 1917   2.401   1.926   4.236
 2666SOL    HW1 1918   2.320   1.927   4.294
 2666SOL    HW2 1919   2.404   2.009   4.181
 2667SOL     OW 1920   3.296   3.050   3.765
 2667SOL    HW1 1921   3.328   2.974   3.822
 2667SOL    HW2 1922   3.204   3.077   3.795
 2668SOL     OW 1923   2.159   1.897   3.895
 2668SOL    HW1 1924   2.208   1.981   3.874
 2668SOL    HW2 1925   2.221   1.832   3.940
 2669SOL     OW 1926   2.797   2.098   4.204
 2669SOL    HW1 1927   2.749   2.139   4.126
 2669SOL    HW2 1928   2.896   2.096   4.185
 2673SOL     OW 1929   2.894   2.411   3.740
 2673SOL    HW1 1930   2.853   2.493   3.701
 2673SOL    HW2 1931   2.958   2.437   3.813
 2680SOL     OW 1932   2.350   3.247   3.898
 2680SOL    HW1 1933   2.263   3.232   3.945
 2680SOL    HW2 1934   2.333   3.273   3.803
 2682SOL     OW 1935   3.252   2.437   3.802
 2682SOL    HW1 1936   3.198   2.416   3.883
 2682SOL    HW2 1937   3.343   2.396   3.811
 2683SOL     OW 1938   2.389   2.118   4.052
 2683SOL    HW1 1939   2.416   2.059   3.977
 2683SOL    HW2 1940   2.389   2.213   4.021
 2687SOL     OW 1941   2.567   2.912   4.092
 2687SOL    HW1 1942   2.553   2.919   4.191
 2687SOL    HW2 1943   2.651   2.861   4.074
 2691SOL     OW 1944   2.229   2.962   4.225
 2691SOL    HW1 1945   2.222   3.045   4.169
 2691SOL    HW2 1946   2.233   2.882   4.165
 2693SOL     OW 1947   3.114   3.210   4.112
 2693SOL    HW1 1948   3.164   3.287   4.152
 2693SOL    HW2 1949   3.019   3.212   4.144
 2699SOL     OW 1950   3.071   2.387   3.999
 2699SOL    HW1 1951   3.084   2.303   4.053
 2699SOL    HW2 1952   3.042   2.461   4.059
 2706SOL     OW 1953   3.402   2.136   3.849
 2706SOL    HW1 1954   3.341   2.061   3.872
 2706SOL    HW2 1955   3.424   2.188   3.932
 2707SOL     OW 1956   3.165   2.700   3.766
 2707SOL    HW1 1957   3.199   2.607   3.781
 2707SOL    HW2 1958   3.183   2.727   3.671
 2712SOL     OW 1959   1.870   3.188   3.924
 2712SOL    HW1 1960   1.777   3.209   3.893
 2712SOL    HW2 1961   1.880   3.089   3.937
 2717SOL     OW 1962   2.677   2.434   4.049
 2717SOL    HW1 1963   2.684   2.345   4.003
 2717SOL    HW2 1964   2.583   2.468   4.041
 2721SOL     OW 1965   2.335   2.362   3.915
 2721SOL    HW1 1966   2.396   2.442   3.919
 2721SOL    HW2 1967   2.240   2.393   3.922
 2724SOL     OW 1968   3.164   2.717   4.033
 2724SOL    HW1 1969   3.078   2.686   4.075
 2724SOL    HW2 1970   3.160   2.703   3.934
 2731SOL     OW 1971   2.534   3.478   3.878
 2731SOL    HW1 1972   2.543   3.488   3.779
 2731SOL    HW2 1973   2.494   3.389   3.899
 2734SOL     OW 1974   3.056   3.474   3.755
 2734SOL    HW1 1975   3.062   3.381   3.792
 2734SOL    HW2 1976   2.997   3.474   3.675
 2736SOL     OW 1977   2.778   2.772   4.015
 2736SOL    HW1 1978   2.841   2.810   3.947
 2736SOL    HW2 1979   2.818   2.689   4.054
 2737SOL     OW 1980   3.366   3.469   3.768
 2737SOL    HW1 1981   3.274   3.506   3.775
 2737SOL    HW2 1982   3.404   3.489   3.678
 2743SOL     OW 1983   2.117   3.210   4.014
 2743SOL    HW1 1984   2.021   3.211   3.987
 2743SOL    HW2 1985   2.129   3.263   4.098
 2745SOL     OW 1986   1.937   2.207   3.757
 2745SOL    HW1 1987   1.845   2.179   3.728
 2745SOL    HW2 1988   1.968   2.284   3.701
 2746SOL     OW 1989   1.934   2.028   4.042
 2746SOL    HW1 1990   1.917   2.111   3.988
 2746SOL    HW2 1991   2.024   1.991   4.020
 2747SOL     OW 1992   3.045   3.197   3.843
 2747SOL    HW1 1993   2.946   3.186   3.845
 2747SOL    HW2 1994   3.079   3.212   3.936
 2752SOL     OW 1995   3.087   2.187   4.173
 2752SOL    HW1 1996   3.152   2.113   4.162
 2752SOL    HW2 1997   3.107   2.237   4.257
 2755SOL     OW 1998   2.721   3.236   3.740
 2755SOL    HW1 1999   2.675   3.251   3.828
 2755SOL    HW2 2000   2.765   3.321   3.710
 2758SOL     OW 2001   2.945   2.846   3.811
 2758SOL    HW1 2002   2.922   2.899   3.729
 2758SOL    HW2 2003   3.026   2.790   3.792
 2762SOL     OW 2004   2.290   2.286   4.244
 2762SOL    HW1 2005   2.320   2.214   4.182
 2762SOL    HW2 2006   2.251   2.246   4.327
 2768SOL     OW 2007   2.632   3.192   4.025
 2768SOL    HW1 2008   2.586   3.105   4.042
 2768SOL    HW2 2009   2.723   3.189   4.066
 2770SOL     OW 2010   3.214   1.914   3.892
 2770SOL    HW1 2011   3.249   1.873   3.808
 2770SOL    HW2 2012   3.124   1.876   3.912
 2773SOL     OW 2013   1.901   2.939   4.024
 2773SOL    HW1 2014   2.000   2.928   4.015
 2773SOL    HW2 2015   1.861   2.853   4.056
 2774SOL     OW 2016   2.737   3.508   4.061
 2774SOL    HW1 2017   2.660   3.473   4.007
 2774SOL    HW2 2018   2.705   3.579   4.123
 2800SOL     OW 2019   2.179   3.975   1.801
 2800SOL    HW1 2020   2.250   4.046   1.807
 2800SOL    HW2 2021   2.091   4.014   1.829
 2821SOL     OW 2022   2.643   3.988   1.749
 2821SOL    HW1 2023   2.710   3.927   1.792
 2821SOL    HW2 2024   2.570   4.007   1.814
 2845SOL     OW 2025   2.777   3.813   1.402
 2845SOL    HW1 2026   2.802   3.793   1.307
 2845SOL    HW2 2027   2.849   3.869   1.444
 2855SOL     OW 2028   2.875   3.829   1.770
 2855SOL    HW1 2029   2.881   3.914   1.718
 2855SOL    HW2 2030   2.907   3.753   1.713
 2856SOL     OW 2031   2.366   3.774   1.740
 2856SOL    HW1 2032   2.324   3.717   1.670
 2856SOL    HW2 2033   2.300   3.843   1.772
 2901SOL     OW 2034   2.534   3.927   1.489
 2901SOL    HW1 2035   2.624   3.911   1.449
 2901SOL    HW2 2036   2.542   3.932   1.588
 2930SOL     OW 2037   2.087   3.999   2.858
 2930SOL    HW1 2038   2.122   3.982   2.950
 2930SOL    HW2 2039   1.999   3.954   2.846
 2931SOL     OW 2040   1.881   4.092   2.509
 2931SOL    HW1 2041   1.799   4.135   2.548
 2931SOL    HW2 2042   1.853   4.019   2.446
 2941SOL     OW 2043   2.300   4.116   3.361
 2941SOL    HW1 2044   2.382   4.060   3.370
 2941SOL    HW2 2045   2.219   4.058   3.365
 2945SOL     OW 2046   3.456   3.838   3.342
 2945SOL    HW1 2047   3.438   3.905   3.270
 2945SOL    HW2 2048   3.453   3.884   3.431
 2951SOL     OW 2049   2.671   3.728   2.364
 2951SOL    HW1 2050   2.711   3.819   2.355
 2951SOL    HW2 2051   2.571   3.736   2.370
 2957SOL     OW 2052   3.143   4.069   2.806
 2957SOL    HW1 2053   3.057   4.019   2.793
 2957SOL    HW2 2054   3.205   4.015   2.862
 2961SOL     OW 2055   2.853   4.134   3.104
 2961SOL    HW1 2056   2.776   4.168   3.158
 2961SOL    HW2 2057   2.819   4.083   3.025
 2964SOL     OW 2058   2.727   4.072   2.057
 2964SOL    HW1 2059   2.786   4.135   2.008
 2964SOL    HW2 2060   2.746   3.978   2.028
 2967SOL     OW 2061   2.412   3.920   2.747
 2967SOL    HW1 2062   2.407   3.915   2.847
 2967SOL    HW2 2063   2.414   4.016   2.718
 2971SOL     OW 2064   2.064   4.009   3.360
 2971SOL    HW1 2065   1.984   4.069   3.347
 2971SOL    HW2 2066   2.054   3.960   3.446
 2973SOL     OW 2067   3.262   3.831   2.288
 2973SOL    HW1 2068   3.238   3.794   2.198
 2973SOL    HW2 2069   3.361   3.847   2.292
 2976SOL     OW 2070   2.476   3.846   1.979
 2976SOL    HW1 2071   2.574   3.824   1.986
 2976SOL    HW2 2072   2.445   3.829   1.886
 2977SOL     OW 2073   2.643   3.988   3.611
 2977SOL    HW1 2074   2.710   3.927   3.654
 2977SOL    HW2 2075   2.570   4.007   3.676
 2979SOL     OW 2076   2.784   4.227   2.761
 2979SOL    HW1 2077   2.759   4.218   2.665
 2979SOL    HW2 2078   2.832   4.145   2.792
 2980SOL     OW 2079   2.401   3.788   2.374
 2980SOL    HW1 2080   2.320   3.789   2.432
 2980SOL    HW2 2081   2.404   3.871   2.319
 2982SOL     OW 2082   2.159   3.759   2.033
 2982SOL    HW1 2083   2.208   3.843   2.012
 2982SOL    HW2 2084   2.221   3.694   2.078
 2983SOL     OW 2085   2.797   3.960   2.342
 2983SOL    HW1 2086   2.749   4.001   2.264
 2983SOL    HW2 2087   2.896   3.958   2.323
 2989SOL     OW 2088   2.423   3.946   3.009
 2989SOL    HW1 2089   2.461   3.862   3.046
 2989SOL    HW2 2090   2.335   3.965   3.053
 2990SOL     OW 2091   2.728   4.178   2.504
 2990SOL    HW1 2092   2.696   4.250   2.442
 2990SOL    HW2 2093   2.752   4.097   2.451
 2991SOL     OW 2094   2.879   3.763   2.615
 2991SOL    HW1 2095   2.807   3.768   2.546
 2991SOL    HW2 2096   2.855   3.694   2.684
 2997SOL     OW 2097   2.389   3.980   2.190
 2997SOL    HW1 2098   2.416   3.921   2.115
 2997SOL    HW2 2099   2.389   4.075   2.159
 3002SOL     OW 2100   2.777   3.813   3.264
 3002SOL    HW1 2101   2.802   3.793   3.169
 3002SOL    HW2 2102   2.849   3.869   3.306
 3006SOL     OW 2103   3.136   4.110   3.124
 3006SOL    HW1 2104   3.157   4.184   3.188
 3006SOL    HW2 2105   3.047   4.127   3.081
 3008SOL     OW 2106   2.428   4.261   2.727
 3008SOL    HW1 2107   2.440   4.327   2.653
 3008SOL    HW2 2108   2.474   4.295   2.810
 3012SOL     OW 2109   2.875   3.829   3.632
 3012SOL    HW1 2110   2.881   3.914   3.580
 3012SOL    HW2 2111   2.907   3.753   3.575
 3013SOL     OW 2112   2.366   3.774   3.602
 3013SOL    HW1 2113   2.324   3.717   3.532
 3013SOL    HW2 2114   2.300   3.843   3.634
 3017SOL     OW 2115   2.169   3.937   3.093
 3017SOL    HW1 2116   2.146   3.974   3.183
 3017SOL    HW2 2117   2.139   3.842   3.087
 3021SOL     OW 2118   2.169   3.787   2.480
 3021SOL    HW1 2119   2.158   3.881   2.513
 3021SOL    HW2 2120   2.164   3.724   2.557
 3026SOL     OW 2121   3.402   3.998   1.987
 3026SOL    HW1 2122   3.341   3.923   2.010
 3026SOL    HW2 2123   3.424   4.050   2.070
 3029SOL     OW 2124   2.201   4.233   2.868
 3029SOL    HW1 2125   2.149   4.150   2.851
 3029SOL    HW2 2126   2.278   4.238   2.804
 3031SOL     OW 2127   3.022   3.931   3.339
 3031SOL    HW1 2128   3.022   3.995   3.416
 3031SOL    HW2 2129   3.050   3.979   3.256
 3037SOL     OW 2130   2.677   4.296   2.187
 3037SOL    HW1 2131   2.684   4.207   2.141
 3037SOL    HW2 2132   2.583   4.330   2.179
 3039SOL     OW 2133   2.533   4.188   3.131
 3039SOL    HW1 2134   2.499   4.099   3.101
 3039SOL    HW2 2135   2.559   4.242   3.051
 3040SOL     OW 2136   2.335   4.224   2.053
 3040SOL    HW1 2137   2.396   4.304   2.057
 3040SOL    HW2 2138   2.240   4.255   2.060
 3045SOL     OW 2139   3.588   3.859   2.385
 3045SOL    HW1 2140   3.661   3.842   2.318
 3045SOL    HW2 2141   3.557   3.772   2.423
 3048SOL     OW 2142   3.703   3.899   2.825
 3048SOL    HW1 2143   3.742   3.814   2.789
 3048SOL    HW2 2144   3.605   3.901   2.806
 3049SOL     OW 2145   2.125   4.050   2.582
 3049SOL    HW1 2146   2.046   4.101   2.548
 3049SOL    HW2 2147   2.116   4.035   2.680
 3056SOL     OW 2148   2.876   3.960   2.833
 3056SOL    HW1 2149   2.868   3.924   2.740
 3056SOL    HW2 2150   2.874   3.884   2.898
 3059SOL     OW 2151   2.534   3.927   3.351
 3059SOL    HW1 2152   2.624   3.911   3.311
 3059SOL    HW2 2153   2.542   3.932   3.450
 3060SOL     OW 2154   1.937   4.069   1.895
 3060SOL    HW1 2155   1.845   4.041   1.866
 3060SOL    HW2 2156   1.968   4.146   1.839
 3062SOL     OW 2157   1.934   3.890   2.180
 3062SOL    HW1 2158   1.917   3.973   2.126
 3062SOL    HW2 2159   2.024   3.853   2.158
 3067SOL     OW 2160   3.087   4.049   2.311
 3067SOL    HW1 2161   3.152   3.975   2.300
 3067SOL    HW2 2162   3.107   4.099   2.395
 3077SOL     OW 2163   2.290   4.148   2.382
 3077SOL    HW1 2164   2.320   4.076   2.320
 3077SOL    HW2 2165   2.251   4.108   2.465
 3080SOL     OW 2166   3.286   3.938   2.974
 3080SOL    HW1 2167   3.338   3.873   3.029
 3080SOL    HW2 2168   3.237   4.001   3.035
 3081SOL     OW 2169   2.863   3.758   3.016
 3081SOL    HW1 2170   2.800   3.686   2.985
 3081SOL    HW2 2171   2.956   3.722   3.016
 3083SOL     OW 2172   3.214   3.776   2.030
 3083SOL    HW1 2173   3.249   3.735   1.946
 3083SOL    HW2 2174   3.124   3.738   2.050
 3084SOL     OW 2175   3.162   4.177   2.553
 3084SOL    HW1 2176   3.103   4.257   2.557
 3084SOL    HW2 2177   3.177   4.142   2.646
 3085SOL     OW 2178   3.455   3.945   2.744
 3085SOL    HW1 2179   3.371   3.944   2.798
 3085SOL    HW2 2180   3.457   4.028   2.688
 3245SOL     OW 2181   3.854   1.821   1.571
 3245SOL    HW1 2182   3.844   1.806   1.670
 3245SOL    HW2 2183   3.768   1.857   1.535
 3331SOL     OW 2184   3.854   1.794   1.851
 3331SOL    HW1 2185   3.813   1.720   1.904
 3331SOL    HW2 2186   3.918   1.845   1.909
 3382SOL     OW 2187   3.955   1.713   2.345
 3382SOL    HW1 2188   3.989   1.790   2.399
 3382SOL    HW2 2189   3.999   1.713   2.255
 3384SOL     OW 2190   3.954   1.434   2.400
 3384SOL    HW1 2191   3.928   1.530   2.400
 3384SOL    HW2 2192   3.883   1.380   2.445
 3389SOL     OW 2193   3.751   1.596   1.979
 3389SOL    HW1 2194   3.732   1.500   2.000
 3389SOL    HW2 2195   3.718   1.654   2.054
 3405SOL     OW 2196   3.854   1.821   3.433
 3405SOL    HW1 2197   3.844   1.806   3.532
 3405SOL    HW2 2198   3.768   1.857   3.397
 3410SOL     OW 2199   4.075   1.801   2.715
 3410SOL    HW1 2200   4.125   1.715   2.721
 3410SOL    HW2 2201   4.140   1.878   2.712
 3417SOL     OW 2202   3.973   1.785   3.103
 3417SOL    HW1 2203   4.030   1.720   3.153
 3417SOL    HW2 2204   3.957   1.752   3.010
 3447SOL     OW 2205   3.788   1.564   3.193
 3447SOL    HW1 2206   3.742   1.646   3.159
 3447SOL    HW2 2207   3.886   1.583   3.202
 3473SOL     OW 2208   3.732   1.326   2.062
 3473SOL    HW1 2209   3.639   1.347   2.031
 3473SOL    HW2 2210   3.742   1.227   2.075
 3474SOL     OW 2211   3.812   1.801   2.789
 3474SOL    HW1 2212   3.770   1.715   2.762
 3474SOL    HW2 2213   3.906   1.804   2.755
 3674SOL     OW 2214   3.837   2.599   1.597
 3674SOL    HW1 2215   3.925   2.586   1.642
 3674SOL    HW2 2216   3.824   2.696   1.575
 3680SOL     OW 2217   4.041   2.113   1.801
 3680SOL    HW1 2218   4.112   2.184   1.807
 3680SOL    HW2 2219   3.953   2.152   1.829
 3699SOL     OW 2220   3.926   2.147   1.498
 3699SOL    HW1 2221   3.846   2.207   1.485
 3699SOL    HW2 2222   3.916   2.098   1.584
 3716SOL     OW 2223   3.802   2.418   1.386
 3716SOL    HW1 2224   3.894   2.417   1.345
 3716SOL    HW2 2225   3.796   2.492   1.453
 3748SOL     OW 2226   4.074   2.760   1.804
 3748SOL    HW1 2227   4.150   2.804   1.852
 3748SOL    HW2 2228   4.109   2.713   1.722
 3759SOL     OW 2229   3.913   2.382   1.722
 3759SOL    HW1 2230   3.972   2.342   1.652
 3759SOL    HW2 2231   3.855   2.453   1.681
 3765SOL     OW 2232   3.883   2.999   1.466
 3765SOL    HW1 2233   3.905   2.938   1.542
 3765SOL    HW2 2234   3.893   2.950   1.380
 3786SOL     OW 2235   3.829   2.875   1.726
 3786SOL    HW1 2236   3.752   2.842   1.780
 3786SOL    HW2 2237   3.914   2.845   1.768
 3800SOL     OW 2238   3.945   3.176   1.844
 3800SOL    HW1 2239   3.880   3.103   1.823
 3800SOL    HW2 2240   3.949   3.190   1.942
 3812SOL     OW 2241   3.954   2.490   1.975
 3812SOL    HW1 2242   3.861   2.488   2.012
 3812SOL    HW2 2243   3.955   2.451   1.883
 3813SOL     OW 2244   3.949   2.137   2.858
 3813SOL    HW1 2245   3.984   2.120   2.950
 3813SOL    HW2 2246   3.861   2.092   2.846
 3814SOL     OW 2247   3.743   2.230   2.509
 3814SOL    HW1 2248   3.661   2.273   2.548
 3814SOL    HW2 2249   3.715   2.157   2.446
 3822SOL     OW 2250   4.059   3.297   2.923
 3822SOL    HW1 2251   3.981   3.266   2.870
 3822SOL    HW2 2252   4.117   3.355   2.866
 3824SOL     OW 2253   3.955   3.575   2.345
 3824SOL    HW1 2254   3.989   3.652   2.399
 3824SOL    HW2 2255   3.999   3.575   2.255
 3826SOL     OW 2256   3.954   3.296   2.400
 3826SOL    HW1 2257   3.928   3.392   2.400
 3826SOL    HW2 2258   3.883   3.242   2.445
 3827SOL     OW 2259   3.964   2.953   2.748
 3827SOL    HW1 2260   3.978   2.869   2.800
 3827SOL    HW2 2261   3.909   3.017   2.803
 3830SOL     OW 2262   3.846   2.505   2.425
 3830SOL    HW1 2263   3.801   2.417   2.442
 3830SOL    HW2 2264   3.845   2.559   2.509
 3831SOL     OW 2265   3.751   3.458   1.979
 3831SOL    HW1 2266   3.732   3.362   2.000
 3831SOL    HW2 2267   3.718   3.516   2.054
 3832SOL     OW 2268   3.837   2.599   3.459
 3832SOL    HW1 2269   3.925   2.586   3.504
 3832SOL    HW2 2270   3.824   2.696   3.437
 3836SOL     OW 2271   3.921   2.838   3.126
 3836SOL    HW1 2272   4.010   2.793   3.112
 3836SOL    HW2 2273   3.848   2.773   3.107
 3846SOL     OW 2274   3.800   2.673   2.651
 3846SOL    HW1 2275   3.899   2.661   2.660
 3846SOL    HW2 2276   3.776   2.768   2.672
 3850SOL     OW 2277   4.274   2.058   2.747
 3850SOL    HW1 2278   4.269   2.053   2.847
 3850SOL    HW2 2279   4.276   2.154   2.718
 3854SOL     OW 2280   4.045   2.805   2.104
 3854SOL    HW1 2281   4.127   2.844   2.062
 3854SOL    HW2 2282   4.018   2.723   2.055
 3857SOL     OW 2283   3.926   2.147   3.360
 3857SOL    HW1 2284   3.846   2.207   3.347
 3857SOL    HW2 2285   3.916   2.098   3.446
 3861SOL     OW 2286   4.106   2.562   2.342
 3861SOL    HW1 2287   4.151   2.472   2.339
 3861SOL    HW2 2288   4.012   2.551   2.375
 3869SOL     OW 2289   4.021   1.897   2.033
 3869SOL    HW1 2290   4.070   1.981   2.012
 3869SOL    HW2 2291   4.083   1.832   2.078
 3873SOL     OW 2292   4.183   3.014   2.603
 3873SOL    HW1 2293   4.112   2.987   2.668
 3873SOL    HW2 2294   4.157   2.986   2.510
 3876SOL     OW 2295   3.802   2.418   3.248
 3876SOL    HW1 2296   3.894   2.417   3.207
 3876SOL    HW2 2297   3.796   2.492   3.315
 3881SOL     OW 2298   4.251   2.118   2.190
 3881SOL    HW1 2299   4.278   2.059   2.115
 3881SOL    HW2 2300   4.251   2.213   2.159
 3887SOL     OW 2301   4.134   2.675   3.113
 3887SOL    HW1 2302   4.220   2.687   3.163
 3887SOL    HW2 2303   4.092   2.588   3.140
 3889SOL     OW 2304   3.788   3.426   3.193
 3889SOL    HW1 2305   3.742   3.508   3.159
 3889SOL    HW2 2306   3.886   3.445   3.202
 3890SOL     OW 2307   4.091   2.962   2.363
 3890SOL    HW1 2308   4.084   3.045   2.307
 3890SOL    HW2 2309   4.095   2.882   2.303
 3891SOL     OW 2310   4.290   2.399   2.727
 3891SOL    HW1 2311   4.302   2.465   2.653
 3891SOL    HW2 2312   4.336   2.433   2.810
 3895SOL     OW 2313   4.126   2.613   3.460
 3895SOL    HW1 2314   4.194   2.668   3.413
 3895SOL    HW2 2315   4.166   2.525   3.487
 3898SOL     OW 2316   4.297   2.732   2.891
 3898SOL    HW1 2317   4.341   2.821   2.882
 3898SOL    HW2 2318   4.234   2.732   2.968
 3901SOL     OW 2319   4.031   2.075   3.093
 3901SOL    HW1 2320   4.008   2.112   3.183
 3901SOL    HW2 2321   4.001   1.980   3.087
 3902SOL     OW 2322   3.761   3.172   3.144
 3902SOL    HW1 2323   3.814   3.123   3.212
 3902SOL    HW2 2324   3.783   3.270   3.149
 3904SOL     OW 2325   4.031   1.925   2.480
 3904SOL    HW1 2326   4.020   2.019   2.513
 3904SOL    HW2 2327   4.026   1.862   2.557
 3911SOL     OW 2328   4.043   2.672   2.811
 3911SOL    HW1 2329   4.136   2.708   2.816
 3911SOL    HW2 2330   4.037   2.587   2.863
 3912SOL     OW 2331   4.063   2.371   2.868
 3912SOL    HW1 2332   4.011   2.288   2.851
 3912SOL    HW2 2333   4.140   2.376   2.804
 3915SOL     OW 2334   3.732   3.188   2.062
 3915SOL    HW1 2335   3.639   3.209   2.031
 3915SOL    HW2 2336   3.742   3.089   2.075
 3916SOL     OW 2337   3.812   3.663   2.789
 3916SOL    HW1 2338   3.770   3.577   2.762
 3916SOL    HW2 2339   3.906   3.666   2.755
 3919SOL     OW 2340   3.764   2.406   2.976
 3919SOL    HW1 2341   3.849   2.373   2.935
 3919SOL    HW2 2342   3.777   2.421   3.074
 3920SOL     OW 2343   3.913   2.382   3.584
 3920SOL    HW1 2344   3.972   2.342   3.514
 3920SOL    HW2 2345   3.855   2.453   3.543
 3925SOL     OW 2346   4.197   2.362   2.053
 3925SOL    HW1 2347   4.258   2.442   2.057
 3925SOL    HW2 2348   4.102   2.393   2.060
 3926SOL     OW 2349   3.883   2.999   3.328
 3926SOL    HW1 2350   3.905   2.938   3.404
 3926SOL    HW2 2351   3.893   2.950   3.242
 3930SOL     OW 2352   3.807   3.120   2.884
 3930SOL    HW1 2353   3.802   3.119   2.984
 3930SOL    HW2 2354   3.724   3.079   2.846
 3937SOL     OW 2355   3.987   2.188   2.582
 3937SOL    HW1 2356   3.908   2.239   2.548
 3937SOL    HW2 2357   3.978   2.173   2.680
 3945SOL     OW 2358   3.979   3.210   2.152
 3945SOL    HW1 2359   3.883   3.211   2.125
 3945SOL    HW2 2360   3.991   3.263   2.236
 3946SOL     OW 2361   3.829   2.875   3.588
 3946SOL    HW1 2362   3.752   2.842   3.642
 3946SOL    HW2 2363   3.914   2.845   3.630
 3948SOL     OW 2364   3.799   2.207   1.895
 3948SOL    HW1 2365   3.707   2.179   1.866
 3948SOL    HW2 2366   3.830   2.284   1.839
 3949SOL     OW 2367   3.796   2.028   2.180
 3949SOL    HW1 2368   3.779   2.111   2.126
 3949SOL    HW2 2369   3.886   1.991   2.158
 3955SOL     OW 2370   4.318   2.607   2.514
 3955SOL    HW1 2371   4.368   2.692   2.495
 3955SOL    HW2 2372   4.230   2.609   2.466
 3961SOL     OW 2373   3.803   3.102   2.515
 3961SOL    HW1 2374   3.802   3.055   2.603
 3961SOL    HW2 2375   3.885   3.074   2.464
 3963SOL     OW 2376   4.152   2.286   2.382
 3963SOL    HW1 2377   4.182   2.214   2.320
 3963SOL    HW2 2378   4.113   2.246   2.465
 3964SOL     OW 2379   4.041   2.409   3.142
 3964SOL    HW1 2380   4.079   2.350   3.214
 3964SOL    HW2 2381   4.081   2.383   3.054
 3971SOL     OW 2382   3.763   2.939   2.162
 3971SOL    HW1 2383   3.862   2.928   2.153
 3971SOL    HW2 2384   3.723   2.853   2.194
 4080SOL     OW 2385   3.799   2.207   3.757
 4080SOL    HW1 2386   3.707   2.179   3.728
 4080SOL    HW2 2387   3.830   2.284   3.701
   5.13811   5.13811   5.13811
