; mobley_2328633_GMX.itp created by acpype (v: 2023.10.27) on Thu May 21 00:15:36 2026

[ atomtypes ]
;name   bond_type     mass     charge   ptype   sigma         epsilon       Amb
 c5       c5          0.00000  0.00000   A     3.39771e-01   4.51035e-01 ; 1.91  0.1078
 c3       c3          0.00000  0.00000   A     3.39771e-01   4.51035e-01 ; 1.91  0.1078
 hc       hc          0.00000  0.00000   A     2.60018e-01   8.70272e-02 ; 1.46  0.0208

[ moleculetype ]
;name            nrexcl
 mobley_2328633   3

[ atoms ]
;   nr  type  resi  res  atom  cgnr     charge      mass       ; qtot   bond_type
     1   c5     1   MOL    C1    1    -0.078400     12.01000 ; qtot -0.078
     2   c5     1   MOL    C2    2    -0.078400     12.01000 ; qtot -0.157
     3   c5     1   MOL    C3    3    -0.076900     12.01000 ; qtot -0.234
     4   c5     1   MOL    C4    4    -0.076900     12.01000 ; qtot -0.311
     5   c5     1   MOL    C5    5    -0.066700     12.01000 ; qtot -0.377
     6   c3     1   MOL    C6    6    -0.095100     12.01000 ; qtot -0.472
     7   c3     1   MOL    C7    7    -0.072400     12.01000 ; qtot -0.545
     8   c3     1   MOL    C8    8    -0.080400     12.01000 ; qtot -0.625
     9   c3     1   MOL    C9    9    -0.079400     12.01000 ; qtot -0.705
    10   c3     1   MOL   C10   10    -0.079400     12.01000 ; qtot -0.784
    11   hc     1   MOL    H1   11     0.039200      1.00800 ; qtot -0.745
    12   hc     1   MOL    H2   12     0.039200      1.00800 ; qtot -0.706
    13   hc     1   MOL    H3   13     0.039200      1.00800 ; qtot -0.666
    14   hc     1   MOL    H4   14     0.039200      1.00800 ; qtot -0.627
    15   hc     1   MOL    H5   15     0.040950      1.00800 ; qtot -0.586
    16   hc     1   MOL    H6   16     0.040950      1.00800 ; qtot -0.545
    17   hc     1   MOL    H7   17     0.040950      1.00800 ; qtot -0.504
    18   hc     1   MOL    H8   18     0.040950      1.00800 ; qtot -0.463
    19   hc     1   MOL    H9   19     0.047700      1.00800 ; qtot -0.416
    20   hc     1   MOL   H10   20     0.032700      1.00800 ; qtot -0.383
    21   hc     1   MOL   H11   21     0.032700      1.00800 ; qtot -0.350
    22   hc     1   MOL   H12   22     0.032700      1.00800 ; qtot -0.318
    23   hc     1   MOL   H13   23     0.040700      1.00800 ; qtot -0.277
    24   hc     1   MOL   H14   24     0.040700      1.00800 ; qtot -0.236
    25   hc     1   MOL   H15   25     0.038700      1.00800 ; qtot -0.198
    26   hc     1   MOL   H16   26     0.038700      1.00800 ; qtot -0.159
    27   hc     1   MOL   H17   27     0.040200      1.00800 ; qtot -0.119
    28   hc     1   MOL   H18   28     0.040200      1.00800 ; qtot -0.078
    29   hc     1   MOL   H19   29     0.039200      1.00800 ; qtot -0.039
    30   hc     1   MOL   H20   30     0.039200      1.00800 ; qtot -0.000

[ bonds ]
;   ai     aj funct   r             k
     1      2   1    1.5483e-01    1.8418e+05 ;     C1 - C2    
     1      3   1    1.5483e-01    1.8418e+05 ;     C1 - C3    
     1     11   1    1.0954e-01    2.8989e+05 ;     C1 - H1    
     1     12   1    1.0954e-01    2.8989e+05 ;     C1 - H2    
     2      4   1    1.5483e-01    1.8418e+05 ;     C2 - C4    
     2     13   1    1.0954e-01    2.8989e+05 ;     C2 - H3    
     2     14   1    1.0954e-01    2.8989e+05 ;     C2 - H4    
     3      5   1    1.5483e-01    1.8418e+05 ;     C3 - C5    
     3     15   1    1.0954e-01    2.8989e+05 ;     C3 - H5    
     3     16   1    1.0954e-01    2.8989e+05 ;     C3 - H6    
     4      5   1    1.5483e-01    1.8418e+05 ;     C4 - C5    
     4     17   1    1.0954e-01    2.8989e+05 ;     C4 - H7    
     4     18   1    1.0954e-01    2.8989e+05 ;     C4 - H8    
     5      7   1    1.5372e-01    1.9049e+05 ;     C5 - C7    
     5     19   1    1.0954e-01    2.8989e+05 ;     C5 - H9    
     6      8   1    1.5354e-01    1.9154e+05 ;     C6 - C8    
     6     20   1    1.0962e-01    2.8891e+05 ;     C6 - H10   
     6     21   1    1.0962e-01    2.8891e+05 ;     C6 - H11   
     6     22   1    1.0962e-01    2.8891e+05 ;     C6 - H12   
     7      9   1    1.5354e-01    1.9154e+05 ;     C7 - C9    
     7     23   1    1.0962e-01    2.8891e+05 ;     C7 - H13   
     7     24   1    1.0962e-01    2.8891e+05 ;     C7 - H14   
     8     10   1    1.5354e-01    1.9154e+05 ;     C8 - C10   
     8     25   1    1.0962e-01    2.8891e+05 ;     C8 - H15   
     8     26   1    1.0962e-01    2.8891e+05 ;     C8 - H16   
     9     10   1    1.5354e-01    1.9154e+05 ;     C9 - C10   
     9     27   1    1.0962e-01    2.8891e+05 ;     C9 - H17   
     9     28   1    1.0962e-01    2.8891e+05 ;     C9 - H18   
    10     29   1    1.0962e-01    2.8891e+05 ;    C10 - H19   
    10     30   1    1.0962e-01    2.8891e+05 ;    C10 - H20   

[ pairs ]
;   ai     aj    funct
     1      7      1 ;     C1 - C7    
     1     17      1 ;     C1 - H7    
     1     18      1 ;     C1 - H8    
     1     19      1 ;     C1 - H9    
     2      7      1 ;     C2 - C7    
     2     15      1 ;     C2 - H5    
     2     16      1 ;     C2 - H6    
     2     19      1 ;     C2 - H9    
     3      9      1 ;     C3 - C9    
     3     13      1 ;     C3 - H3    
     3     14      1 ;     C3 - H4    
     3     17      1 ;     C3 - H7    
     3     18      1 ;     C3 - H8    
     3     23      1 ;     C3 - H13   
     3     24      1 ;     C3 - H14   
     4      9      1 ;     C4 - C9    
     4     15      1 ;     C4 - H5    
     4     16      1 ;     C4 - H6    
     4     23      1 ;     C4 - H13   
     4     24      1 ;     C4 - H14   
     5     10      1 ;     C5 - C10   
     5     13      1 ;     C5 - H3    
     5     14      1 ;     C5 - H4    
     5     27      1 ;     C5 - H17   
     5     28      1 ;     C5 - H18   
     6      9      1 ;     C6 - C9    
     6     29      1 ;     C6 - H19   
     6     30      1 ;     C6 - H20   
     7      8      1 ;     C7 - C8    
     7     15      1 ;     C7 - H5    
     7     16      1 ;     C7 - H6    
     7     17      1 ;     C7 - H7    
     7     18      1 ;     C7 - H8    
     7     29      1 ;     C7 - H19   
     7     30      1 ;     C7 - H20   
     8     27      1 ;     C8 - H17   
     8     28      1 ;     C8 - H18   
     9     19      1 ;     C9 - H9    
     9     25      1 ;     C9 - H15   
     9     26      1 ;     C9 - H16   
    10     20      1 ;    C10 - H10   
    10     21      1 ;    C10 - H11   
    10     22      1 ;    C10 - H12   
    10     23      1 ;    C10 - H13   
    10     24      1 ;    C10 - H14   
    11      4      1 ;     H1 - C4    
    11      5      1 ;     H1 - C5    
    11     13      1 ;     H1 - H3    
    11     14      1 ;     H1 - H4    
    11     15      1 ;     H1 - H5    
    11     16      1 ;     H1 - H6    
    12      4      1 ;     H2 - C4    
    12      5      1 ;     H2 - C5    
    12     13      1 ;     H2 - H3    
    12     14      1 ;     H2 - H4    
    12     15      1 ;     H2 - H5    
    12     16      1 ;     H2 - H6    
    13     17      1 ;     H3 - H7    
    13     18      1 ;     H3 - H8    
    14     17      1 ;     H4 - H7    
    14     18      1 ;     H4 - H8    
    15     19      1 ;     H5 - H9    
    16     19      1 ;     H6 - H9    
    17     19      1 ;     H7 - H9    
    18     19      1 ;     H8 - H9    
    19     23      1 ;     H9 - H13   
    19     24      1 ;     H9 - H14   
    20     25      1 ;    H10 - H15   
    20     26      1 ;    H10 - H16   
    21     25      1 ;    H11 - H15   
    21     26      1 ;    H11 - H16   
    22     25      1 ;    H12 - H15   
    22     26      1 ;    H12 - H16   
    23     27      1 ;    H13 - H17   
    23     28      1 ;    H13 - H18   
    24     27      1 ;    H14 - H17   
    24     28      1 ;    H14 - H18   
    25     29      1 ;    H15 - H19   
    25     30      1 ;    H15 - H20   
    26     29      1 ;    H16 - H19   
    26     30      1 ;    H16 - H20   
    27     29      1 ;    H17 - H19   
    27     30      1 ;    H17 - H20   
    28     29      1 ;    H18 - H19   
    28     30      1 ;    H18 - H20   

[ angles ]
;   ai     aj     ak    funct   theta         cth
     1      2      4      1    1.0383e+02    5.1748e+02 ;     C1 - C2     - C4    
     1      2     13      1    1.1117e+02    3.5690e+02 ;     C1 - C2     - H3    
     1      2     14      1    1.1117e+02    3.5690e+02 ;     C1 - C2     - H4    
     1      3      5      1    1.0383e+02    5.1748e+02 ;     C1 - C3     - C5    
     1      3     15      1    1.1117e+02    3.5690e+02 ;     C1 - C3     - H5    
     1      3     16      1    1.1117e+02    3.5690e+02 ;     C1 - C3     - H6    
     2      1      3      1    1.0383e+02    5.1748e+02 ;     C2 - C1     - C3    
     2      1     11      1    1.1117e+02    3.5690e+02 ;     C2 - C1     - H1    
     2      1     12      1    1.1117e+02    3.5690e+02 ;     C2 - C1     - H2    
     2      4      5      1    1.0383e+02    5.1748e+02 ;     C2 - C4     - C5    
     2      4     17      1    1.1117e+02    3.5690e+02 ;     C2 - C4     - H7    
     2      4     18      1    1.1117e+02    3.5690e+02 ;     C2 - C4     - H8    
     3      1     11      1    1.1117e+02    3.5690e+02 ;     C3 - C1     - H1    
     3      1     12      1    1.1117e+02    3.5690e+02 ;     C3 - C1     - H2    
     3      5      4      1    1.0383e+02    5.1748e+02 ;     C3 - C5     - C4    
     3      5      7      1    1.1360e+02    4.9647e+02 ;     C3 - C5     - C7    
     3      5     19      1    1.1117e+02    3.5690e+02 ;     C3 - C5     - H9    
     4      2     13      1    1.1117e+02    3.5690e+02 ;     C4 - C2     - H3    
     4      2     14      1    1.1117e+02    3.5690e+02 ;     C4 - C2     - H4    
     4      5      7      1    1.1360e+02    4.9647e+02 ;     C4 - C5     - C7    
     4      5     19      1    1.1117e+02    3.5690e+02 ;     C4 - C5     - H9    
     5      3     15      1    1.1117e+02    3.5690e+02 ;     C5 - C3     - H5    
     5      3     16      1    1.1117e+02    3.5690e+02 ;     C5 - C3     - H6    
     5      4     17      1    1.1117e+02    3.5690e+02 ;     C5 - C4     - H7    
     5      4     18      1    1.1117e+02    3.5690e+02 ;     C5 - C4     - H8    
     5      7      9      1    1.1370e+02    4.9840e+02 ;     C5 - C7     - C9    
     5      7     23      1    1.1053e+02    3.6033e+02 ;     C5 - C7     - H13   
     5      7     24      1    1.1053e+02    3.6033e+02 ;     C5 - C7     - H14   
     6      8     10      1    1.1263e+02    5.0099e+02 ;     C6 - C8     - C10   
     6      8     25      1    1.0968e+02    3.6208e+02 ;     C6 - C8     - H15   
     6      8     26      1    1.0968e+02    3.6208e+02 ;     C6 - C8     - H16   
     7      5     19      1    1.0779e+02    3.6484e+02 ;     C7 - C5     - H9    
     7      9     10      1    1.1263e+02    5.0099e+02 ;     C7 - C9     - C10   
     7      9     27      1    1.0968e+02    3.6208e+02 ;     C7 - C9     - H17   
     7      9     28      1    1.0968e+02    3.6208e+02 ;     C7 - C9     - H18   
     8      6     20      1    1.0968e+02    3.6208e+02 ;     C8 - C6     - H10   
     8      6     21      1    1.0968e+02    3.6208e+02 ;     C8 - C6     - H11   
     8      6     22      1    1.0968e+02    3.6208e+02 ;     C8 - C6     - H12   
     8     10      9      1    1.1263e+02    5.0099e+02 ;     C8 - C10    - C9    
     8     10     29      1    1.0968e+02    3.6208e+02 ;     C8 - C10    - H19   
     8     10     30      1    1.0968e+02    3.6208e+02 ;     C8 - C10    - H20   
     9      7     23      1    1.0968e+02    3.6208e+02 ;     C9 - C7     - H13   
     9      7     24      1    1.0968e+02    3.6208e+02 ;     C9 - C7     - H14   
     9     10     29      1    1.0968e+02    3.6208e+02 ;     C9 - C10    - H19   
     9     10     30      1    1.0968e+02    3.6208e+02 ;     C9 - C10    - H20   
    10      8     25      1    1.0968e+02    3.6208e+02 ;    C10 - C8     - H15   
    10      8     26      1    1.0968e+02    3.6208e+02 ;    C10 - C8     - H16   
    10      9     27      1    1.0968e+02    3.6208e+02 ;    C10 - C9     - H17   
    10      9     28      1    1.0968e+02    3.6208e+02 ;    C10 - C9     - H18   
    11      1     12      1    1.0722e+02    3.0049e+02 ;     H1 - C1     - H2    
    13      2     14      1    1.0722e+02    3.0049e+02 ;     H3 - C2     - H4    
    15      3     16      1    1.0722e+02    3.0049e+02 ;     H5 - C3     - H6    
    17      4     18      1    1.0722e+02    3.0049e+02 ;     H7 - C4     - H8    
    20      6     21      1    1.0773e+02    2.9957e+02 ;    H10 - C6     - H11   
    20      6     22      1    1.0773e+02    2.9957e+02 ;    H10 - C6     - H12   
    21      6     22      1    1.0773e+02    2.9957e+02 ;    H11 - C6     - H12   
    23      7     24      1    1.0773e+02    2.9957e+02 ;    H13 - C7     - H14   
    25      8     26      1    1.0773e+02    2.9957e+02 ;    H15 - C8     - H16   
    27      9     28      1    1.0773e+02    2.9957e+02 ;    H17 - C9     - H18   
    29     10     30      1    1.0773e+02    2.9957e+02 ;    H19 - C10    - H20   

[ dihedrals ] ; propers
; for gromacs 4.5 or higher, using funct 9
;    i      j      k      l   func   phase     kd      pn
     1      2      4      5      9     0.00   2.17568   3 ;     C1-    C2-    C4-    C5
     1      2      4     17      9     0.00   0.54392   3 ;     C1-    C2-    C4-    H7
     1      2      4     18      9     0.00   0.54392   3 ;     C1-    C2-    C4-    H8
     1      3      5      4      9     0.00   2.17568   3 ;     C1-    C3-    C5-    C4
     1      3      5      7      9     0.00   2.17568   3 ;     C1-    C3-    C5-    C7
     1      3      5     19      9     0.00   0.54392   3 ;     C1-    C3-    C5-    H9
     2      1      3      5      9     0.00   2.17568   3 ;     C2-    C1-    C3-    C5
     2      1      3     15      9     0.00   0.54392   3 ;     C2-    C1-    C3-    H5
     2      1      3     16      9     0.00   0.54392   3 ;     C2-    C1-    C3-    H6
     2      4      5      3      9     0.00   2.17568   3 ;     C2-    C4-    C5-    C3
     2      4      5      7      9     0.00   2.17568   3 ;     C2-    C4-    C5-    C7
     2      4      5     19      9     0.00   0.54392   3 ;     C2-    C4-    C5-    H9
     3      1      2      4      9     0.00   2.17568   3 ;     C3-    C1-    C2-    C4
     3      1      2     13      9     0.00   0.54392   3 ;     C3-    C1-    C2-    H3
     3      1      2     14      9     0.00   0.54392   3 ;     C3-    C1-    C2-    H4
     3      5      4     17      9     0.00   0.54392   3 ;     C3-    C5-    C4-    H7
     3      5      4     18      9     0.00   0.54392   3 ;     C3-    C5-    C4-    H8
     3      5      7      9      9     0.00   2.17568   3 ;     C3-    C5-    C7-    C9
     3      5      7     23      9     0.00   0.54392   3 ;     C3-    C5-    C7-   H13
     3      5      7     24      9     0.00   0.54392   3 ;     C3-    C5-    C7-   H14
     4      5      3     15      9     0.00   0.54392   3 ;     C4-    C5-    C3-    H5
     4      5      3     16      9     0.00   0.54392   3 ;     C4-    C5-    C3-    H6
     4      5      7      9      9     0.00   2.17568   3 ;     C4-    C5-    C7-    C9
     4      5      7     23      9     0.00   0.54392   3 ;     C4-    C5-    C7-   H13
     4      5      7     24      9     0.00   0.54392   3 ;     C4-    C5-    C7-   H14
     5      4      2     13      9     0.00   0.54392   3 ;     C5-    C4-    C2-    H3
     5      4      2     14      9     0.00   0.54392   3 ;     C5-    C4-    C2-    H4
     5      7      9     10      9     0.00   2.17568   3 ;     C5-    C7-    C9-   C10
     5      7      9     27      9     0.00   0.54392   3 ;     C5-    C7-    C9-   H17
     5      7      9     28      9     0.00   0.54392   3 ;     C5-    C7-    C9-   H18
     6      8     10      9      9     0.00   2.17568   3 ;     C6-    C8-   C10-    C9
     6      8     10     29      9     0.00   0.54392   3 ;     C6-    C8-   C10-   H19
     6      8     10     30      9     0.00   0.54392   3 ;     C6-    C8-   C10-   H20
     7      5      3     15      9     0.00   0.54392   3 ;     C7-    C5-    C3-    H5
     7      5      3     16      9     0.00   0.54392   3 ;     C7-    C5-    C3-    H6
     7      5      4     17      9     0.00   0.54392   3 ;     C7-    C5-    C4-    H7
     7      5      4     18      9     0.00   0.54392   3 ;     C7-    C5-    C4-    H8
     7      9     10      8      9     0.00   2.17568   3 ;     C7-    C9-   C10-    C8
     7      9     10     29      9     0.00   0.54392   3 ;     C7-    C9-   C10-   H19
     7      9     10     30      9     0.00   0.54392   3 ;     C7-    C9-   C10-   H20
     8     10      9     27      9     0.00   0.54392   3 ;     C8-   C10-    C9-   H17
     8     10      9     28      9     0.00   0.54392   3 ;     C8-   C10-    C9-   H18
     9      7      5     19      9     0.00   0.54392   3 ;     C9-    C7-    C5-    H9
     9     10      8     25      9     0.00   0.54392   3 ;     C9-   C10-    C8-   H15
     9     10      8     26      9     0.00   0.54392   3 ;     C9-   C10-    C8-   H16
    10      8      6     20      9     0.00   0.54392   3 ;    C10-    C8-    C6-   H10
    10      8      6     21      9     0.00   0.54392   3 ;    C10-    C8-    C6-   H11
    10      8      6     22      9     0.00   0.54392   3 ;    C10-    C8-    C6-   H12
    10      9      7     23      9     0.00   0.54392   3 ;    C10-    C9-    C7-   H13
    10      9      7     24      9     0.00   0.54392   3 ;    C10-    C9-    C7-   H14
    11      1      2      4      9     0.00   0.54392   3 ;     H1-    C1-    C2-    C4
    11      1      2     13      9     0.00   0.50208   3 ;     H1-    C1-    C2-    H3
    11      1      2     14      9     0.00   0.50208   3 ;     H1-    C1-    C2-    H4
    11      1      3      5      9     0.00   0.54392   3 ;     H1-    C1-    C3-    C5
    11      1      3     15      9     0.00   0.50208   3 ;     H1-    C1-    C3-    H5
    11      1      3     16      9     0.00   0.50208   3 ;     H1-    C1-    C3-    H6
    12      1      2      4      9     0.00   0.54392   3 ;     H2-    C1-    C2-    C4
    12      1      2     13      9     0.00   0.50208   3 ;     H2-    C1-    C2-    H3
    12      1      2     14      9     0.00   0.50208   3 ;     H2-    C1-    C2-    H4
    12      1      3      5      9     0.00   0.54392   3 ;     H2-    C1-    C3-    C5
    12      1      3     15      9     0.00   0.50208   3 ;     H2-    C1-    C3-    H5
    12      1      3     16      9     0.00   0.50208   3 ;     H2-    C1-    C3-    H6
    13      2      4     17      9     0.00   0.50208   3 ;     H3-    C2-    C4-    H7
    13      2      4     18      9     0.00   0.50208   3 ;     H3-    C2-    C4-    H8
    14      2      4     17      9     0.00   0.50208   3 ;     H4-    C2-    C4-    H7
    14      2      4     18      9     0.00   0.50208   3 ;     H4-    C2-    C4-    H8
    15      3      5     19      9     0.00   0.50208   3 ;     H5-    C3-    C5-    H9
    16      3      5     19      9     0.00   0.50208   3 ;     H6-    C3-    C5-    H9
    17      4      5     19      9     0.00   0.50208   3 ;     H7-    C4-    C5-    H9
    18      4      5     19      9     0.00   0.50208   3 ;     H8-    C4-    C5-    H9
    19      5      7     23      9     0.00   0.50208   3 ;     H9-    C5-    C7-   H13
    19      5      7     24      9     0.00   0.50208   3 ;     H9-    C5-    C7-   H14
    20      6      8     25      9     0.00   0.50208   3 ;    H10-    C6-    C8-   H15
    20      6      8     26      9     0.00   0.50208   3 ;    H10-    C6-    C8-   H16
    21      6      8     25      9     0.00   0.50208   3 ;    H11-    C6-    C8-   H15
    21      6      8     26      9     0.00   0.50208   3 ;    H11-    C6-    C8-   H16
    22      6      8     25      9     0.00   0.50208   3 ;    H12-    C6-    C8-   H15
    22      6      8     26      9     0.00   0.50208   3 ;    H12-    C6-    C8-   H16
    23      7      9     27      9     0.00   0.50208   3 ;    H13-    C7-    C9-   H17
    23      7      9     28      9     0.00   0.50208   3 ;    H13-    C7-    C9-   H18
    24      7      9     27      9     0.00   0.50208   3 ;    H14-    C7-    C9-   H17
    24      7      9     28      9     0.00   0.50208   3 ;    H14-    C7-    C9-   H18
    25      8     10     29      9     0.00   0.50208   3 ;    H15-    C8-   C10-   H19
    25      8     10     30      9     0.00   0.50208   3 ;    H15-    C8-   C10-   H20
    26      8     10     29      9     0.00   0.50208   3 ;    H16-    C8-   C10-   H19
    26      8     10     30      9     0.00   0.50208   3 ;    H16-    C8-   C10-   H20
    27      9     10     29      9     0.00   0.50208   3 ;    H17-    C9-   C10-   H19
    27      9     10     30      9     0.00   0.50208   3 ;    H17-    C9-   C10-   H20
    28      9     10     29      9     0.00   0.50208   3 ;    H18-    C9-   C10-   H19
    28      9     10     30      9     0.00   0.50208   3 ;    H18-    C9-   C10-   H20
