; mobley_5076071_GMX.itp created by acpype (v: 2023.10.27) on Thu May 21 00:18:15 2026

[ atomtypes ]
;name   bond_type     mass     charge   ptype   sigma         epsilon       Amb
 ca       ca          0.00000  0.00000   A     3.31521e-01   4.13379e-01 ; 1.86  0.0988
 c3       c3          0.00000  0.00000   A     3.39771e-01   4.51035e-01 ; 1.91  0.1078
 nv       nv          0.00000  0.00000   A     3.36813e-01   4.68608e-01 ; 1.89  0.1120
 nh       nh          0.00000  0.00000   A     3.18995e-01   8.99560e-01 ; 1.79  0.2150
 no       no          0.00000  0.00000   A     3.36510e-01   3.58987e-01 ; 1.89  0.0858
 o        o           0.00000  0.00000   A     3.04812e-01   6.12119e-01 ; 1.71  0.1463
 f        f           0.00000  0.00000   A     3.03422e-01   3.48109e-01 ; 1.70  0.0832
 ha       ha          0.00000  0.00000   A     2.62548e-01   6.73624e-02 ; 1.47  0.0161
 hc       hc          0.00000  0.00000   A     2.60018e-01   8.70272e-02 ; 1.46  0.0208
 h1       h1          0.00000  0.00000   A     2.42200e-01   8.70272e-02 ; 1.36  0.0208
 hn       hn          0.00000  0.00000   A     1.10650e-01   4.18400e-02 ; 0.62  0.0100

[ moleculetype ]
;name            nrexcl
 mobley_5076071   3

[ atoms ]
;   nr  type  resi  res  atom  cgnr     charge      mass       ; qtot   bond_type
     1   ca     1   MOL    C1    1     0.048000     12.01000 ; qtot 0.048
     2   ca     1   MOL    C2    2    -0.289300     12.01000 ; qtot -0.241
     3   ca     1   MOL    C3    3    -0.239200     12.01000 ; qtot -0.481
     4   ca     1   MOL    C4    4     0.337600     12.01000 ; qtot -0.143
     5   ca     1   MOL    C5    5     0.331600     12.01000 ; qtot 0.189
     6   ca     1   MOL    C6    6    -0.312200     12.01000 ; qtot -0.123
     7   c3     1   MOL    C7    7    -0.103600     12.01000 ; qtot -0.227
     8   c3     1   MOL    C8    8    -0.103600     12.01000 ; qtot -0.331
     9   c3     1   MOL    C9    9     0.205300     12.01000 ; qtot -0.125
    10   c3     1   MOL   C10   10     0.205300     12.01000 ; qtot 0.080
    11   c3     1   MOL   C11   11     0.698200     12.01000 ; qtot 0.778
    12   nv     1   MOL    N1   12    -0.838202     14.01000 ; qtot -0.060
    13   nh     1   MOL    N2   13    -0.711000     14.01000 ; qtot -0.771
    14   no     1   MOL    N3   14     0.335200     14.01000 ; qtot -0.436
    15   no     1   MOL    N4   15     0.323200     14.01000 ; qtot -0.113
    16    o     1   MOL    O1   16    -0.189000     16.00000 ; qtot -0.302
    17    o     1   MOL    O2   17    -0.189000     16.00000 ; qtot -0.491
    18    o     1   MOL    O3   18    -0.204000     16.00000 ; qtot -0.695
    19    o     1   MOL    O4   19    -0.204000     16.00000 ; qtot -0.899
    20    f     1   MOL    F1   20    -0.231300     19.00000 ; qtot -1.130
    21    f     1   MOL    F2   21    -0.231300     19.00000 ; qtot -1.361
    22    f     1   MOL    F3   22    -0.231300     19.00000 ; qtot -1.593
    23   ha     1   MOL    H1   23     0.185000      1.00800 ; qtot -1.408
    24   hc     1   MOL    H2   24     0.047867      1.00800 ; qtot -1.360
    25   hc     1   MOL    H3   25     0.047867      1.00800 ; qtot -1.312
    26   hc     1   MOL    H4   26     0.047867      1.00800 ; qtot -1.264
    27   hc     1   MOL    H5   27     0.047867      1.00800 ; qtot -1.216
    28   hc     1   MOL    H6   28     0.047867      1.00800 ; qtot -1.168
    29   hc     1   MOL    H7   29     0.047867      1.00800 ; qtot -1.120
    30   h1     1   MOL    H8   30     0.048200      1.00800 ; qtot -1.072
    31   h1     1   MOL    H9   31     0.048200      1.00800 ; qtot -1.024
    32   h1     1   MOL   H10   32     0.048200      1.00800 ; qtot -0.976
    33   h1     1   MOL   H11   33     0.048200      1.00800 ; qtot -0.928
    34   hn     1   MOL   H12   34     0.463800      1.00800 ; qtot -0.464
    35   hn     1   MOL   H13   35     0.463800      1.00800 ; qtot 0.000

[ bonds ]
;   ai     aj funct   r             k
     1      2   1    1.3986e-01    2.9644e+05 ;     C1 - C2    
     1      3   1    1.3986e-01    2.9644e+05 ;     C1 - C3    
     1     23   1    1.0860e-01    3.0183e+05 ;     C1 - H1    
     2      4   1    1.3986e-01    2.9644e+05 ;     C2 - C4    
     2     11   1    1.5147e-01    2.0410e+05 ;     C2 - C11   
     3      5   1    1.3986e-01    2.9644e+05 ;     C3 - C5    
     3     14   1    1.4696e-01    2.0937e+05 ;     C3 - N3    
     4      6   1    1.3986e-01    2.9644e+05 ;     C4 - C6    
     4     12   1    1.3744e-01    2.8644e+05 ;     C4 - N1    
     5      6   1    1.3986e-01    2.9644e+05 ;     C5 - C6    
     5     13   1    1.4030e-01    2.6011e+05 ;     C5 - N2    
     6     15   1    1.4696e-01    2.0937e+05 ;     C6 - N4    
     7      9   1    1.5354e-01    1.9154e+05 ;     C7 - C9    
     7     24   1    1.0962e-01    2.8891e+05 ;     C7 - H2    
     7     25   1    1.0962e-01    2.8891e+05 ;     C7 - H3    
     7     26   1    1.0962e-01    2.8891e+05 ;     C7 - H4    
     8     10   1    1.5354e-01    1.9154e+05 ;     C8 - C10   
     8     27   1    1.0962e-01    2.8891e+05 ;     C8 - H5    
     8     28   1    1.0962e-01    2.8891e+05 ;     C8 - H6    
     8     29   1    1.0962e-01    2.8891e+05 ;     C8 - H7    
     9     13   1    1.4613e-01    2.1499e+05 ;     C9 - N2    
     9     30   1    1.0969e-01    2.8804e+05 ;     C9 - H8    
     9     31   1    1.0969e-01    2.8804e+05 ;     C9 - H9    
    10     13   1    1.4613e-01    2.1499e+05 ;    C10 - N2    
    10     32   1    1.0969e-01    2.8804e+05 ;    C10 - H10   
    10     33   1    1.0969e-01    2.8804e+05 ;    C10 - H11   
    11     20   1    1.3512e-01    2.7973e+05 ;    C11 - F1    
    11     21   1    1.3512e-01    2.7973e+05 ;    C11 - F2    
    11     22   1    1.3512e-01    2.7973e+05 ;    C11 - F3    
    12     34   1    1.0114e-01    3.9961e+05 ;     N1 - H12   
    12     35   1    1.0114e-01    3.9961e+05 ;     N1 - H13   
    14     16   1    1.2311e-01    3.0270e+05 ;     N3 - O1    
    14     17   1    1.2311e-01    3.0270e+05 ;     N3 - O2    
    15     18   1    1.2311e-01    3.0270e+05 ;     N4 - O3    
    15     19   1    1.2311e-01    3.0270e+05 ;     N4 - O4    

[ pairs ]
;   ai     aj    funct
     1      6      1 ;     C1 - C6    
     1     12      1 ;     C1 - N1    
     1     13      1 ;     C1 - N2    
     1     16      1 ;     C1 - O1    
     1     17      1 ;     C1 - O2    
     1     20      1 ;     C1 - F1    
     1     21      1 ;     C1 - F2    
     1     22      1 ;     C1 - F3    
     2      5      1 ;     C2 - C5    
     2     14      1 ;     C2 - N3    
     2     15      1 ;     C2 - N4    
     2     34      1 ;     C2 - H12   
     2     35      1 ;     C2 - H13   
     3      4      1 ;     C3 - C4    
     3      9      1 ;     C3 - C9    
     3     10      1 ;     C3 - C10   
     3     11      1 ;     C3 - C11   
     3     15      1 ;     C3 - N4    
     4     13      1 ;     C4 - N2    
     4     18      1 ;     C4 - O3    
     4     19      1 ;     C4 - O4    
     4     20      1 ;     C4 - F1    
     4     21      1 ;     C4 - F2    
     4     22      1 ;     C4 - F3    
     5      7      1 ;     C5 - C7    
     5      8      1 ;     C5 - C8    
     5     12      1 ;     C5 - N1    
     5     16      1 ;     C5 - O1    
     5     17      1 ;     C5 - O2    
     5     18      1 ;     C5 - O3    
     5     19      1 ;     C5 - O4    
     5     30      1 ;     C5 - H8    
     5     31      1 ;     C5 - H9    
     5     32      1 ;     C5 - H10   
     5     33      1 ;     C5 - H11   
     6      9      1 ;     C6 - C9    
     6     10      1 ;     C6 - C10   
     6     11      1 ;     C6 - C11   
     6     14      1 ;     C6 - N3    
     6     34      1 ;     C6 - H12   
     6     35      1 ;     C6 - H13   
     7     10      1 ;     C7 - C10   
     8      9      1 ;     C8 - C9    
     9     32      1 ;     C9 - H10   
     9     33      1 ;     C9 - H11   
    10     30      1 ;    C10 - H8    
    10     31      1 ;    C10 - H9    
    11     12      1 ;    C11 - N1    
    12     15      1 ;     N1 - N4    
    13     14      1 ;     N2 - N3    
    13     15      1 ;     N2 - N4    
    13     24      1 ;     N2 - H2    
    13     25      1 ;     N2 - H3    
    13     26      1 ;     N2 - H4    
    13     27      1 ;     N2 - H5    
    13     28      1 ;     N2 - H6    
    13     29      1 ;     N2 - H7    
    23      4      1 ;     H1 - C4    
    23      5      1 ;     H1 - C5    
    23     11      1 ;     H1 - C11   
    23     14      1 ;     H1 - N3    
    24     30      1 ;     H2 - H8    
    24     31      1 ;     H2 - H9    
    25     30      1 ;     H3 - H8    
    25     31      1 ;     H3 - H9    
    26     30      1 ;     H4 - H8    
    26     31      1 ;     H4 - H9    
    27     32      1 ;     H5 - H10   
    27     33      1 ;     H5 - H11   
    28     32      1 ;     H6 - H10   
    28     33      1 ;     H6 - H11   
    29     32      1 ;     H7 - H10   
    29     33      1 ;     H7 - H11   

[ angles ]
;   ai     aj     ak    funct   theta         cth
     1      2      4      1    1.2002e+02    5.3279e+02 ;     C1 - C2     - C4    
     1      2     11      1    1.2083e+02    5.0827e+02 ;     C1 - C2     - C11   
     1      3      5      1    1.2002e+02    5.3279e+02 ;     C1 - C3     - C5    
     1      3     14      1    1.1900e+02    5.5329e+02 ;     C1 - C3     - N3    
     2      1      3      1    1.2002e+02    5.3279e+02 ;     C2 - C1     - C3    
     2      1     23      1    1.1988e+02    3.7572e+02 ;     C2 - C1     - H1    
     2      4      6      1    1.2002e+02    5.3279e+02 ;     C2 - C4     - C6    
     2      4     12      1    1.2094e+02    5.6827e+02 ;     C2 - C4     - N1    
     2     11     20      1    1.1178e+02    6.6308e+02 ;     C2 - C11    - F1    
     2     11     21      1    1.1178e+02    6.6308e+02 ;     C2 - C11    - F2    
     2     11     22      1    1.1178e+02    6.6308e+02 ;     C2 - C11    - F3    
     3      1     23      1    1.1988e+02    3.7572e+02 ;     C3 - C1     - H1    
     3      5      6      1    1.2002e+02    5.3279e+02 ;     C3 - C5     - C6    
     3      5     13      1    1.2113e+02    5.6216e+02 ;     C3 - C5     - N2    
     3     14     16      1    1.1776e+02    8.2910e+02 ;     C3 - N3     - O1    
     3     14     17      1    1.1776e+02    8.2910e+02 ;     C3 - N3     - O2    
     4      2     11      1    1.2083e+02    5.0827e+02 ;     C4 - C2     - C11   
     4      6      5      1    1.2002e+02    5.3279e+02 ;     C4 - C6     - C5    
     4      6     15      1    1.1900e+02    5.5329e+02 ;     C4 - C6     - N4    
     4     12     34      1    1.1673e+02    4.8292e+02 ;     C4 - N1     - H12   
     4     12     35      1    1.1673e+02    4.8292e+02 ;     C4 - N1     - H13   
     5      3     14      1    1.1900e+02    5.5329e+02 ;     C5 - C3     - N3    
     5      6     15      1    1.1900e+02    5.5329e+02 ;     C5 - C6     - N4    
     5     13      9      1    1.1953e+02    6.4383e+02 ;     C5 - N2     - C9    
     5     13     10      1    1.1953e+02    6.4383e+02 ;     C5 - N2     - C10   
     6      4     12      1    1.2094e+02    5.6827e+02 ;     C6 - C4     - N1    
     6      5     13      1    1.2113e+02    5.6216e+02 ;     C6 - C5     - N2    
     6     15     18      1    1.1776e+02    8.2910e+02 ;     C6 - N4     - O3    
     6     15     19      1    1.1776e+02    8.2910e+02 ;     C6 - N4     - O4    
     7      9     13      1    1.1348e+02    5.4233e+02 ;     C7 - C9     - N2    
     7      9     30      1    1.0959e+02    3.6217e+02 ;     C7 - C9     - H8    
     7      9     31      1    1.0959e+02    3.6217e+02 ;     C7 - C9     - H9    
     8     10     13      1    1.1348e+02    5.4233e+02 ;     C8 - C10    - N2    
     8     10     32      1    1.0959e+02    3.6217e+02 ;     C8 - C10    - H10   
     8     10     33      1    1.0959e+02    3.6217e+02 ;     C8 - C10    - H11   
     9      7     24      1    1.0968e+02    3.6208e+02 ;     C9 - C7     - H2    
     9      7     25      1    1.0968e+02    3.6208e+02 ;     C9 - C7     - H3    
     9      7     26      1    1.0968e+02    3.6208e+02 ;     C9 - C7     - H4    
     9     13     10      1    1.1656e+02    6.3957e+02 ;     C9 - N2     - C10   
    10      8     27      1    1.0968e+02    3.6208e+02 ;    C10 - C8     - H5    
    10      8     28      1    1.0968e+02    3.6208e+02 ;    C10 - C8     - H6    
    10      8     29      1    1.0968e+02    3.6208e+02 ;    C10 - C8     - H7    
    13      9     30      1    1.0968e+02    4.0141e+02 ;     N2 - C9     - H8    
    13      9     31      1    1.0968e+02    4.0141e+02 ;     N2 - C9     - H9    
    13     10     32      1    1.0968e+02    4.0141e+02 ;     N2 - C10    - H10   
    13     10     33      1    1.0968e+02    4.0141e+02 ;     N2 - C10    - H11   
    16     14     17      1    1.2505e+02    1.0964e+03 ;     O1 - N3     - O2    
    18     15     19      1    1.2505e+02    1.0964e+03 ;     O3 - N4     - O4    
    20     11     21      1    1.0737e+02    8.9437e+02 ;     F1 - C11    - F2    
    20     11     22      1    1.0737e+02    8.9437e+02 ;     F1 - C11    - F3    
    21     11     22      1    1.0737e+02    8.9437e+02 ;     F2 - C11    - F3    
    24      7     25      1    1.0773e+02    2.9957e+02 ;     H2 - C7     - H3    
    24      7     26      1    1.0773e+02    2.9957e+02 ;     H2 - C7     - H4    
    25      7     26      1    1.0773e+02    2.9957e+02 ;     H3 - C7     - H4    
    27      8     28      1    1.0773e+02    2.9957e+02 ;     H5 - C8     - H6    
    27      8     29      1    1.0773e+02    2.9957e+02 ;     H5 - C8     - H7    
    28      8     29      1    1.0773e+02    2.9957e+02 ;     H6 - C8     - H7    
    30      9     31      1    1.0855e+02    2.9824e+02 ;     H8 - C9     - H9    
    32     10     33      1    1.0855e+02    2.9824e+02 ;    H10 - C10    - H11   
    34     12     35      1    1.1528e+02    3.8794e+02 ;    H12 - N1     - H13   

[ dihedrals ] ; propers
; for gromacs 4.5 or higher, using funct 9
;    i      j      k      l   func   phase     kd      pn
     1      2      4      6      9   180.00  15.16700   2 ;     C1-    C2-    C4-    C6
     1      2      4     12      9   180.00  15.16700   2 ;     C1-    C2-    C4-    N1
     1      2     11     20      9     0.00   0.00000   0 ;     C1-    C2-   C11-    F1
     1      2     11     21      9     0.00   0.00000   0 ;     C1-    C2-   C11-    F2
     1      2     11     22      9     0.00   0.00000   0 ;     C1-    C2-   C11-    F3
     1      3      5      6      9   180.00  15.16700   2 ;     C1-    C3-    C5-    C6
     1      3      5     13      9   180.00  15.16700   2 ;     C1-    C3-    C5-    N2
     1      3     14     16      9   180.00   3.01248   2 ;     C1-    C3-    N3-    O1
     1      3     14     17      9   180.00   3.01248   2 ;     C1-    C3-    N3-    O2
     2      1      3      5      9   180.00  15.16700   2 ;     C2-    C1-    C3-    C5
     2      1      3     14      9   180.00  15.16700   2 ;     C2-    C1-    C3-    N3
     2      4      6      5      9   180.00  15.16700   2 ;     C2-    C4-    C6-    C5
     2      4      6     15      9   180.00  15.16700   2 ;     C2-    C4-    C6-    N4
     2      4     12     34      9   180.00   4.39320   2 ;     C2-    C4-    N1-   H12
     2      4     12     35      9   180.00   4.39320   2 ;     C2-    C4-    N1-   H13
     3      1      2      4      9   180.00  15.16700   2 ;     C3-    C1-    C2-    C4
     3      1      2     11      9   180.00  15.16700   2 ;     C3-    C1-    C2-   C11
     3      5      6      4      9   180.00  15.16700   2 ;     C3-    C5-    C6-    C4
     3      5      6     15      9   180.00  15.16700   2 ;     C3-    C5-    C6-    N4
     3      5     13      9      9   180.00   3.15055   2 ;     C3-    C5-    N2-    C9
     3      5     13     10      9   180.00   3.15055   2 ;     C3-    C5-    N2-   C10
     4      2     11     20      9     0.00   0.00000   0 ;     C4-    C2-   C11-    F1
     4      2     11     21      9     0.00   0.00000   0 ;     C4-    C2-   C11-    F2
     4      2     11     22      9     0.00   0.00000   0 ;     C4-    C2-   C11-    F3
     4      6      5     13      9   180.00  15.16700   2 ;     C4-    C6-    C5-    N2
     4      6     15     18      9   180.00   3.01248   2 ;     C4-    C6-    N4-    O3
     4      6     15     19      9   180.00   3.01248   2 ;     C4-    C6-    N4-    O4
     5      3     14     16      9   180.00   3.01248   2 ;     C5-    C3-    N3-    O1
     5      3     14     17      9   180.00   3.01248   2 ;     C5-    C3-    N3-    O2
     5      6      4     12      9   180.00  15.16700   2 ;     C5-    C6-    C4-    N1
     5      6     15     18      9   180.00   3.01248   2 ;     C5-    C6-    N4-    O3
     5      6     15     19      9   180.00   3.01248   2 ;     C5-    C6-    N4-    O4
     5     13      9      7      9     0.00   0.00000   0 ;     C5-    N2-    C9-    C7
     5     13      9     30      9     0.00   1.38909   2 ;     C5-    N2-    C9-    H8
     5     13      9     31      9     0.00   1.38909   2 ;     C5-    N2-    C9-    H9
     5     13     10      8      9     0.00   0.00000   0 ;     C5-    N2-   C10-    C8
     5     13     10     32      9     0.00   1.38909   2 ;     C5-    N2-   C10-   H10
     5     13     10     33      9     0.00   1.38909   2 ;     C5-    N2-   C10-   H11
     6      4      2     11      9   180.00  15.16700   2 ;     C6-    C4-    C2-   C11
     6      4     12     34      9   180.00   4.39320   2 ;     C6-    C4-    N1-   H12
     6      4     12     35      9   180.00   4.39320   2 ;     C6-    C4-    N1-   H13
     6      5      3     14      9   180.00  15.16700   2 ;     C6-    C5-    C3-    N3
     6      5     13      9      9   180.00   3.15055   2 ;     C6-    C5-    N2-    C9
     6      5     13     10      9   180.00   3.15055   2 ;     C6-    C5-    N2-   C10
     7      9     13     10      9     0.00   0.00000   0 ;     C7-    C9-    N2-   C10
     8     10     13      9      9     0.00   0.00000   0 ;     C8-   C10-    N2-    C9
     9     13     10     32      9     0.00   0.00000   0 ;     C9-    N2-   C10-   H10
     9     13     10     33      9     0.00   0.00000   0 ;     C9-    N2-   C10-   H11
    10     13      9     30      9     0.00   0.00000   0 ;    C10-    N2-    C9-    H8
    10     13      9     31      9     0.00   0.00000   0 ;    C10-    N2-    C9-    H9
    11      2      4     12      9   180.00  15.16700   2 ;    C11-    C2-    C4-    N1
    12      4      6     15      9   180.00  15.16700   2 ;     N1-    C4-    C6-    N4
    13      5      3     14      9   180.00  15.16700   2 ;     N2-    C5-    C3-    N3
    13      5      6     15      9   180.00  15.16700   2 ;     N2-    C5-    C6-    N4
    13      9      7     24      9     0.00   0.65084   3 ;     N2-    C9-    C7-    H2
    13      9      7     25      9     0.00   0.65084   3 ;     N2-    C9-    C7-    H3
    13      9      7     26      9     0.00   0.65084   3 ;     N2-    C9-    C7-    H4
    13     10      8     27      9     0.00   0.65084   3 ;     N2-   C10-    C8-    H5
    13     10      8     28      9     0.00   0.65084   3 ;     N2-   C10-    C8-    H6
    13     10      8     29      9     0.00   0.65084   3 ;     N2-   C10-    C8-    H7
    23      1      2      4      9   180.00  15.16700   2 ;     H1-    C1-    C2-    C4
    23      1      2     11      9   180.00  15.16700   2 ;     H1-    C1-    C2-   C11
    23      1      3      5      9   180.00  15.16700   2 ;     H1-    C1-    C3-    C5
    23      1      3     14      9   180.00  15.16700   2 ;     H1-    C1-    C3-    N3
    24      7      9     30      9     0.00   0.65084   3 ;     H2-    C7-    C9-    H8
    24      7      9     31      9     0.00   0.65084   3 ;     H2-    C7-    C9-    H9
    25      7      9     30      9     0.00   0.65084   3 ;     H3-    C7-    C9-    H8
    25      7      9     31      9     0.00   0.65084   3 ;     H3-    C7-    C9-    H9
    26      7      9     30      9     0.00   0.65084   3 ;     H4-    C7-    C9-    H8
    26      7      9     31      9     0.00   0.65084   3 ;     H4-    C7-    C9-    H9
    27      8     10     32      9     0.00   0.65084   3 ;     H5-    C8-   C10-   H10
    27      8     10     33      9     0.00   0.65084   3 ;     H5-    C8-   C10-   H11
    28      8     10     32      9     0.00   0.65084   3 ;     H6-    C8-   C10-   H10
    28      8     10     33      9     0.00   0.65084   3 ;     H6-    C8-   C10-   H11
    29      8     10     32      9     0.00   0.65084   3 ;     H7-    C8-   C10-   H10
    29      8     10     33      9     0.00   0.65084   3 ;     H7-    C8-   C10-   H11

[ dihedrals ] ; impropers
; treated as propers in GROMACS to use correct AMBER analytical function
;    i      j      k      l   func   phase     kd      pn
     1      4      2     11      4   180.00   4.60240   2 ;     C1-    C4-    C2-   C11
     1      5      3     14      4   180.00   4.60240   2 ;     C1-    C5-    C3-    N3
     2      6      4     12      4   180.00   4.60240   2 ;     C2-    C6-    C4-    N1
     3      6      5     13      4   180.00   4.60240   2 ;     C3-    C6-    C5-    N2
     3     16     14     17      4   180.00   4.60240   2 ;     C3-    O1-    N3-    O2
     4      5      6     15      4   180.00   4.60240   2 ;     C4-    C5-    C6-    N4
     4     34     12     35      4   180.00   4.60240   2 ;     C4-   H12-    N1-   H13
     6     18     15     19      4   180.00   4.60240   2 ;     C6-    O3-    N4-    O4
     9     10     13      5      4   180.00   4.60240   2 ;     C9-   C10-    N2-    C5
    23      1      3      2      4   180.00   4.60240   2 ;     H1-    C1-    C3-    C2
