; mobley_9185328_GMX.top created by acpype (v: 2023.10.27) on Wed May 20 23:46:17 2026

[ defaults ]
; nbfunc        comb-rule       gen-pairs       fudgeLJ fudgeQQ
1               2               yes             0.5     0.8333333333

; Include mobley_9185328_GMX.itp topology
#include "mobley_9185328_GMX.itp"

; Ligand position restraints
#ifdef POSRES_LIG
#include "posre_mobley_9185328.itp"
#endif


#include "/home/carla/github/Solvation-openMM/DADES/common/SOL.TIP3P.itp"

[ system ]
mobley_9185328 in water

[ molecules ]
; Compound        nmols
 mobley_9185328   1     
SOL 801
