mobley_4845722_GMX.gro created by acpype (v: 2023.10.27) on Tue May 19 12:47:39 2026
 2397
    1MOL     C1    1   2.318   2.316   2.174
    1MOL     C2    2   2.210   2.374   2.241
    1MOL     C3    3   2.421   2.257   2.246
    1MOL     C4    4   2.205   2.372   2.381
    1MOL     C5    5   2.417   2.255   2.385
    1MOL     C6    6   2.309   2.312   2.453
    1MOL    CL1    7   2.323   2.319   2.000
    1MOL    CL2    8   2.080   2.448   2.151
    1MOL    CL3    9   2.556   2.185   2.162
    1MOL    CL4   10   2.071   2.443   2.465
    1MOL    CL5   11   2.546   2.180   2.475
    1MOL    CL6   12   2.304   2.309   2.627
   14SOL     OW   13   1.460   1.505   1.339
   14SOL    HW1   14   1.484   1.599   1.365
   14SOL    HW2   15   1.444   1.451   1.421
   18SOL     OW   16   1.127   1.341   1.690
   18SOL    HW1   17   1.174   1.341   1.778
   18SOL    HW2   18   1.079   1.254   1.679
   31SOL     OW   19   1.293   1.228   1.423
   31SOL    HW1   20   1.330   1.155   1.365
   31SOL    HW2   21   1.345   1.233   1.508
   35SOL     OW   22   1.187   1.792   1.616
   35SOL    HW1   23   1.211   1.852   1.540
   35SOL    HW2   24   1.194   1.697   1.586
   56SOL     OW   25   1.227   1.550   1.506
   56SOL    HW1   26   1.233   1.473   1.570
   56SOL    HW2   27   1.175   1.524   1.426
   95SOL     OW   28   1.754   1.223   1.588
   95SOL    HW1   29   1.845   1.184   1.575
   95SOL    HW2   30   1.762   1.319   1.612
   97SOL     OW   31   1.592   1.629   1.625
   97SOL    HW1   32   1.619   1.663   1.535
   97SOL    HW2   33   1.671   1.591   1.671
  109SOL     OW   34   1.272   1.445   1.142
  109SOL    HW1   35   1.319   1.458   1.229
  109SOL    HW2   36   1.206   1.371   1.151
  122SOL     OW   37   1.728   0.935   1.854
  122SOL    HW1   38   1.682   0.928   1.765
  122SOL    HW2   39   1.666   0.979   1.920
  126SOL     OW   40   0.980   1.573   1.700
  126SOL    HW1   41   0.960   1.617   1.612
  126SOL    HW2   42   1.019   1.482   1.684
  127SOL     OW   43   1.859   1.518   1.605
  127SOL    HW1   44   1.873   1.545   1.510
  127SOL    HW2   45   1.942   1.540   1.658
  142SOL     OW   46   1.369   0.950   1.660
  142SOL    HW1   47   1.408   1.039   1.680
  142SOL    HW2   48   1.379   0.930   1.563
  147SOL     OW   49   0.930   1.678   1.465
  147SOL    HW1   50   0.906   1.660   1.370
  147SOL    HW2   51   0.960   1.772   1.475
  152SOL     OW   52   1.759   1.747   1.154
  152SOL    HW1   53   1.820   1.777   1.081
  152SOL    HW2   54   1.721   1.658   1.132
  153SOL     OW   55   1.252   1.731   1.128
  153SOL    HW1   56   1.336   1.736   1.074
  153SOL    HW2   57   1.229   1.635   1.146
  163SOL     OW   58   1.650   1.720   1.394
  163SOL    HW1   59   1.703   1.730   1.310
  163SOL    HW2   60   1.623   1.810   1.428
  171SOL     OW   61   1.614   1.292   1.289
  171SOL    HW1   62   1.674   1.295   1.369
  171SOL    HW2   63   1.539   1.356   1.302
  184SOL     OW   64   1.493   1.767   0.959
  184SOL    HW1   65   1.526   1.831   0.890
  184SOL    HW2   66   1.559   1.761   1.034
  186SOL     OW   67   1.450   1.220   1.633
  186SOL    HW1   68   1.441   1.210   1.732
  186SOL    HW2   69   1.546   1.213   1.607
  192SOL     OW   70   1.730   0.934   1.517
  192SOL    HW1   71   1.768   1.025   1.532
  192SOL    HW2   72   1.722   0.917   1.418
  197SOL     OW   73   1.861   1.569   0.851
  197SOL    HW1   74   1.790   1.557   0.781
  197SOL    HW2   75   1.862   1.490   0.911
  203SOL     OW   76   1.705   1.487   1.104
  203SOL    HW1   77   1.612   1.462   1.077
  203SOL    HW2   78   1.731   1.437   1.186
  219SOL     OW   79   1.555   1.511   2.565
  219SOL    HW1   80   1.498   1.495   2.646
  219SOL    HW2   81   1.496   1.521   2.485
  227SOL     OW   82   1.460   1.505   3.201
  227SOL    HW1   83   1.484   1.599   3.227
  227SOL    HW2   84   1.444   1.451   3.283
  238SOL     OW   85   1.842   1.767   2.221
  238SOL    HW1   86   1.896   1.738   2.301
  238SOL    HW2   87   1.872   1.857   2.192
  240SOL     OW   88   1.689   0.922   2.474
  240SOL    HW1   89   1.784   0.893   2.482
  240SOL    HW2   90   1.681   0.987   2.399
  241SOL     OW   91   1.641   1.108   2.294
  241SOL    HW1   92   1.727   1.110   2.242
  241SOL    HW2   93   1.655   1.155   2.382
  244SOL     OW   94   1.293   1.228   3.285
  244SOL    HW1   95   1.330   1.155   3.227
  244SOL    HW2   96   1.345   1.233   3.370
  247SOL     OW   97   1.525   0.999   2.052
  247SOL    HW1   98   1.462   0.923   2.065
  247SOL    HW2   99   1.573   1.017   2.138
  248SOL     OW  100   1.187   1.792   3.478
  248SOL    HW1  101   1.211   1.852   3.402
  248SOL    HW2  102   1.194   1.697   3.448
  250SOL     OW  103   1.466   1.417   2.815
  250SOL    HW1  104   1.407   1.423   2.895
  250SOL    HW2  105   1.451   1.329   2.769
  251SOL     OW  106   1.667   1.714   2.434
  251SOL    HW1  107   1.626   1.691   2.346
  251SOL    HW2  108   1.649   1.640   2.499
  254SOL     OW  109   1.576   1.662   2.169
  254SOL    HW1  110   1.665   1.708   2.172
  254SOL    HW2  111   1.555   1.638   2.074
  264SOL     OW  112   1.362   1.144   2.407
  264SOL    HW1  113   1.445   1.115   2.359
  264SOL    HW2  114   1.313   1.211   2.351
  266SOL     OW  115   1.008   1.456   2.339
  266SOL    HW1  116   0.962   1.528   2.287
  266SOL    HW2  117   1.004   1.476   2.437
  268SOL     OW  118   1.795   1.066   2.735
  268SOL    HW1  119   1.733   1.051   2.659
  268SOL    HW2  120   1.743   1.077   2.820
  269SOL     OW  121   1.227   1.550   3.368
  269SOL    HW1  122   1.233   1.473   3.432
  269SOL    HW2  123   1.175   1.524   3.288
  273SOL     OW  124   1.111   1.776   2.099
  273SOL    HW1  125   1.051   1.714   2.149
  273SOL    HW2  126   1.142   1.732   2.014
  275SOL     OW  127   1.632   1.377   1.943
  275SOL    HW1  128   1.600   1.471   1.933
  275SOL    HW2  129   1.556   1.314   1.931
  279SOL     OW  130   0.940   1.698   2.766
  279SOL    HW1  131   1.020   1.641   2.787
  279SOL    HW2  132   0.891   1.658   2.689
  284SOL     OW  133   0.888   1.514   3.057
  284SOL    HW1  134   0.865   1.489   2.963
  284SOL    HW2  135   0.949   1.445   3.096
  289SOL     OW  136   1.434   1.188   1.903
  289SOL    HW1  137   1.466   1.112   1.960
  289SOL    HW2  138   1.342   1.215   1.933
  293SOL     OW  139   1.227   1.570   2.655
  293SOL    HW1  140   1.248   1.644   2.590
  293SOL    HW2  141   1.295   1.570   2.728
  295SOL     OW  142   1.271   1.797   2.453
  295SOL    HW1  143   1.315   1.861   2.389
  295SOL    HW2  144   1.221   1.849   2.523
  301SOL     OW  145   1.429   1.173   2.729
  301SOL    HW1  146   1.374   1.089   2.722
  301SOL    HW2  147   1.455   1.202   2.637
  303SOL     OW  148   1.857   0.833   2.239
  303SOL    HW1  149   1.899   0.769   2.303
  303SOL    HW2  150   1.819   0.782   2.161
  305SOL     OW  151   1.664   1.280   2.519
  305SOL    HW1  152   1.763   1.288   2.533
  305SOL    HW2  153   1.619   1.364   2.550
  308SOL     OW  154   1.754   1.223   3.450
  308SOL    HW1  155   1.845   1.184   3.437
  308SOL    HW2  156   1.762   1.319   3.474
  310SOL     OW  157   1.592   1.629   3.487
  310SOL    HW1  158   1.619   1.663   3.397
  310SOL    HW2  159   1.671   1.591   3.533
  311SOL     OW  160   1.111   1.195   2.962
  311SOL    HW1  161   1.071   1.239   3.043
  311SOL    HW2  162   1.070   1.232   2.879
  312SOL     OW  163   1.638   1.099   2.941
  312SOL    HW1  164   1.643   1.180   3.000
  312SOL    HW2  165   1.552   1.101   2.890
  321SOL     OW  166   1.252   1.348   2.250
  321SOL    HW1  167   1.302   1.425   2.290
  321SOL    HW2  168   1.157   1.350   2.282
  322SOL     OW  169   1.272   1.445   3.004
  322SOL    HW1  170   1.319   1.458   3.091
  322SOL    HW2  171   1.206   1.371   3.013
  340SOL     OW  172   1.859   1.518   3.467
  340SOL    HW1  173   1.873   1.545   3.372
  340SOL    HW2  174   1.942   1.540   3.520
  344SOL     OW  175   1.068   1.333   2.711
  344SOL    HW1  176   1.075   1.249   2.656
  344SOL    HW2  177   1.130   1.402   2.675
  363SOL     OW  178   1.347   1.059   3.096
  363SOL    HW1  179   1.371   0.996   3.022
  363SOL    HW2  180   1.257   1.099   3.078
  364SOL     OW  181   1.302   0.855   2.171
  364SOL    HW1  182   1.216   0.824   2.213
  364SOL    HW2  183   1.298   0.841   2.072
  365SOL     OW  184   1.759   1.747   3.016
  365SOL    HW1  185   1.820   1.777   2.943
  365SOL    HW2  186   1.721   1.658   2.994
  366SOL     OW  187   1.252   1.731   2.990
  366SOL    HW1  188   1.336   1.736   2.936
  366SOL    HW2  189   1.229   1.635   3.008
  370SOL     OW  190   1.388   1.573   2.339
  370SOL    HW1  191   1.455   1.585   2.265
  370SOL    HW2  192   1.348   1.662   2.362
  372SOL     OW  193   1.280   0.927   2.534
  372SOL    HW1  194   1.340   0.846   2.536
  372SOL    HW2  195   1.320   0.996   2.474
  375SOL     OW  196   1.650   1.720   3.256
  375SOL    HW1  197   1.703   1.730   3.172
  375SOL    HW2  198   1.623   1.810   3.290
  378SOL     OW  199   1.194   1.612   1.893
  378SOL    HW1  200   1.200   1.519   1.930
  378SOL    HW2  201   1.135   1.612   1.813
  381SOL     OW  202   1.504   1.607   1.906
  381SOL    HW1  203   1.412   1.644   1.913
  381SOL    HW2  204   1.542   1.627   1.816
  383SOL     OW  205   1.614   1.292   3.151
  383SOL    HW1  206   1.674   1.295   3.231
  383SOL    HW2  207   1.539   1.356   3.164
  384SOL     OW  208   1.039   1.098   2.558
  384SOL    HW1  209   0.969   1.051   2.612
  384SOL    HW2  210   1.098   1.030   2.515
  394SOL     OW  211   1.183   1.335   1.981
  394SOL    HW1  212   1.084   1.324   1.983
  394SOL    HW2  213   1.217   1.350   2.074
  396SOL     OW  214   1.493   1.767   2.821
  396SOL    HW1  215   1.526   1.831   2.752
  396SOL    HW2  216   1.559   1.761   2.896
  400SOL     OW  217   1.674   0.883   3.116
  400SOL    HW1  218   1.647   0.794   3.079
  400SOL    HW2  219   1.675   0.951   3.043
  405SOL     OW  220   0.859   1.374   1.878
  405SOL    HW1  221   0.813   1.389   1.966
  405SOL    HW2  222   0.903   1.459   1.848
  409SOL     OW  223   1.861   1.569   2.713
  409SOL    HW1  224   1.790   1.557   2.643
  409SOL    HW2  225   1.862   1.490   2.773
  415SOL     OW  226   1.705   1.487   2.966
  415SOL    HW1  227   1.612   1.462   2.939
  415SOL    HW2  228   1.731   1.437   3.048
  417SOL     OW  229   0.812   1.586   2.549
  417SOL    HW1  230   0.844   1.596   2.455
  417SOL    HW2  231   0.733   1.524   2.551
  426SOL     OW  232   0.875   1.646   2.199
  426SOL    HW1  233   0.798   1.611   2.145
  426SOL    HW2  234   0.843   1.717   2.261
  535SOL     OW  235   0.850   2.660   1.823
  535SOL    HW1  236   0.846   2.736   1.888
  535SOL    HW2  237   0.872   2.696   1.732
  539SOL     OW  238   1.460   3.367   1.339
  539SOL    HW1  239   1.484   3.461   1.365
  539SOL    HW2  240   1.444   3.313   1.421
  541SOL     OW  241   1.603   2.309   0.737
  541SOL    HW1  242   1.529   2.355   0.687
  541SOL    HW2  243   1.654   2.377   0.790
  543SOL     OW  244   1.127   3.203   1.690
  543SOL    HW1  245   1.174   3.203   1.778
  543SOL    HW2  246   1.079   3.116   1.679
  548SOL     OW  247   1.594   1.976   1.480
  548SOL    HW1  248   1.576   2.043   1.408
  548SOL    HW2  249   1.591   2.022   1.569
  556SOL     OW  250   1.293   3.090   1.423
  556SOL    HW1  251   1.330   3.017   1.365
  556SOL    HW2  252   1.345   3.095   1.508
  565SOL     OW  253   1.281   2.207   0.944
  565SOL    HW1  254   1.195   2.157   0.931
  565SOL    HW2  255   1.343   2.153   1.000
  567SOL     OW  256   0.807   2.467   1.465
  567SOL    HW1  257   0.760   2.464   1.554
  567SOL    HW2  258   0.756   2.412   1.399
  568SOL     OW  259   1.394   2.331   1.674
  568SOL    HW1  260   1.374   2.374   1.762
  568SOL    HW2  261   1.472   2.269   1.683
  569SOL     OW  262   0.973   2.752   1.572
  569SOL    HW1  263   1.019   2.668   1.543
  569SOL    HW2  264   0.917   2.786   1.497
  570SOL     OW  265   0.991   2.272   1.242
  570SOL    HW1  266   0.914   2.306   1.296
  570SOL    HW2  267   0.957   2.221   1.163
  575SOL     OW  268   1.719   2.447   1.831
  575SOL    HW1  269   1.693   2.536   1.795
  575SOL    HW2  270   1.717   2.379   1.758
  580SOL     OW  271   1.795   2.928   0.873
  580SOL    HW1  272   1.733   2.913   0.797
  580SOL    HW2  273   1.743   2.939   0.958
  581SOL     OW  274   1.227   3.412   1.506
  581SOL    HW1  275   1.233   3.335   1.570
  581SOL    HW2  276   1.175   3.386   1.426
  593SOL     OW  277   1.547   2.084   1.729
  593SOL    HW1  278   1.542   2.121   1.821
  593SOL    HW2  279   1.475   2.015   1.717
  594SOL     OW  280   0.781   2.126   1.749
  594SOL    HW1  281   0.848   2.065   1.792
  594SOL    HW2  282   0.708   2.145   1.814
  596SOL     OW  283   1.351   2.452   1.433
  596SOL    HW1  284   1.379   2.409   1.518
  596SOL    HW2  285   1.376   2.548   1.434
  603SOL     OW  286   1.076   2.545   1.464
  603SOL    HW1  287   0.996   2.484   1.467
  603SOL    HW2  288   1.157   2.492   1.440
  613SOL     OW  289   1.466   2.452   0.992
  613SOL    HW1  290   1.436   2.357   0.999
  613SOL    HW2  291   1.539   2.468   1.058
  619SOL     OW  292   1.754   3.085   1.588
  619SOL    HW1  293   1.845   3.046   1.575
  619SOL    HW2  294   1.762   3.181   1.612
  621SOL     OW  295   1.592   3.491   1.625
  621SOL    HW1  296   1.619   3.525   1.535
  621SOL    HW2  297   1.671   3.453   1.671
  623SOL     OW  298   1.638   2.961   1.079
  623SOL    HW1  299   1.643   3.042   1.138
  623SOL    HW2  300   1.552   2.963   1.028
  624SOL     OW  301   0.915   1.951   1.402
  624SOL    HW1  302   0.940   1.931   1.307
  624SOL    HW2  303   0.987   2.007   1.444
  625SOL     OW  304   0.980   2.978   1.719
  625SOL    HW1  305   0.881   2.984   1.729
  625SOL    HW2  306   1.003   2.898   1.663
  628SOL     OW  307   1.274   2.248   1.262
  628SOL    HW1  308   1.295   2.322   1.326
  628SOL    HW2  309   1.185   2.265   1.219
  637SOL     OW  310   1.587   2.641   1.670
  637SOL    HW1  311   1.495   2.679   1.665
  637SOL    HW2  312   1.647   2.688   1.605
  638SOL     OW  313   1.013   1.967   1.770
  638SOL    HW1  314   1.019   2.052   1.718
  638SOL    HW2  315   1.045   1.891   1.713
  641SOL     OW  316   1.360   2.724   1.045
  641SOL    HW1  317   1.285   2.724   0.979
  641SOL    HW2  318   1.397   2.632   1.054
  646SOL     OW  319   1.728   2.797   1.854
  646SOL    HW1  320   1.682   2.790   1.765
  646SOL    HW2  321   1.666   2.841   1.920
  651SOL     OW  322   1.859   3.380   1.605
  651SOL    HW1  323   1.873   3.407   1.510
  651SOL    HW2  324   1.942   3.402   1.658
  658SOL     OW  325   1.138   2.242   1.678
  658SOL    HW1  326   1.093   2.305   1.742
  658SOL    HW2  327   1.231   2.273   1.661
  659SOL     OW  328   1.160   2.069   1.477
  659SOL    HW1  329   1.160   2.133   1.554
  659SOL    HW2  330   1.188   2.117   1.394
  663SOL     OW  331   1.002   2.658   1.238
  663SOL    HW1  332   1.043   2.626   1.324
  663SOL    HW2  333   0.906   2.631   1.235
  666SOL     OW  334   1.369   2.812   1.660
  666SOL    HW1  335   1.408   2.901   1.680
  666SOL    HW2  336   1.379   2.792   1.563
  668SOL     OW  337   1.657   2.466   1.206
  668SOL    HW1  338   1.619   2.397   1.268
  668SOL    HW2  339   1.739   2.430   1.162
  674SOL     OW  340   1.347   2.921   1.234
  674SOL    HW1  341   1.371   2.858   1.160
  674SOL    HW2  342   1.257   2.961   1.216
  687SOL     OW  343   1.650   3.582   1.394
  687SOL    HW1  344   1.703   3.592   1.310
  687SOL    HW2  345   1.623   3.672   1.428
  688SOL     OW  346   1.841   2.037   0.963
  688SOL    HW1  347   1.880   1.952   0.927
  688SOL    HW2  348   1.743   2.039   0.944
  695SOL     OW  349   1.614   3.154   1.289
  695SOL    HW1  350   1.674   3.157   1.369
  695SOL    HW2  351   1.539   3.218   1.302
  699SOL     OW  352   1.709   2.247   1.381
  699SOL    HW1  353   1.782   2.316   1.385
  699SOL    HW2  354   1.737   2.172   1.322
  704SOL     OW  355   1.440   2.718   1.398
  704SOL    HW1  356   1.383   2.770   1.335
  704SOL    HW2  357   1.536   2.730   1.374
  709SOL     OW  358   0.716   2.427   1.708
  709SOL    HW1  359   0.735   2.492   1.782
  709SOL    HW2  360   0.776   2.347   1.717
  710SOL     OW  361   1.450   3.082   1.633
  710SOL    HW1  362   1.441   3.072   1.732
  710SOL    HW2  363   1.546   3.075   1.607
  712SOL     OW  364   1.674   2.745   1.254
  712SOL    HW1  365   1.647   2.656   1.217
  712SOL    HW2  366   1.675   2.813   1.181
  715SOL     OW  367   1.777   2.204   1.642
  715SOL    HW1  368   1.760   2.235   1.548
  715SOL    HW2  369   1.693   2.167   1.680
  716SOL     OW  370   1.730   2.796   1.517
  716SOL    HW1  371   1.768   2.887   1.532
  716SOL    HW2  372   1.722   2.779   1.418
  725SOL     OW  373   1.824   2.054   1.227
  725SOL    HW1  374   1.820   1.964   1.271
  725SOL    HW2  375   1.827   2.043   1.128
  727SOL     OW  376   1.705   3.349   1.104
  727SOL    HW1  377   1.612   3.324   1.077
  727SOL    HW2  378   1.731   3.299   1.186
  730SOL     OW  379   1.424   2.076   1.112
  730SOL    HW1  380   1.476   2.011   1.167
  730SOL    HW2  381   1.375   2.139   1.173
  736SOL     OW  382   1.593   2.083   0.882
  736SOL    HW1  383   1.509   2.082   0.936
  736SOL    HW2  384   1.595   2.166   0.826
  743SOL     OW  385   1.555   3.373   2.565
  743SOL    HW1  386   1.498   3.357   2.646
  743SOL    HW2  387   1.496   3.383   2.485
  744SOL     OW  388   1.135   2.565   2.579
  744SOL    HW1  389   1.192   2.643   2.554
  744SOL    HW2  390   1.075   2.591   2.655
  745SOL     OW  391   1.755   2.469   2.093
  745SOL    HW1  392   1.743   2.456   1.994
  745SOL    HW2  393   1.725   2.388   2.142
  746SOL     OW  394   0.768   3.006   2.885
  746SOL    HW1  395   0.690   3.023   2.945
  746SOL    HW2  396   0.802   3.093   2.849
  748SOL     OW  397   0.685   2.874   2.527
  748SOL    HW1  398   0.754   2.858   2.597
  748SOL    HW2  399   0.612   2.931   2.565
  751SOL     OW  400   1.460   3.367   3.201
  751SOL    HW1  401   1.484   3.461   3.227
  751SOL    HW2  402   1.444   3.313   3.283
  753SOL     OW  403   1.603   2.309   2.599
  753SOL    HW1  404   1.529   2.355   2.549
  753SOL    HW2  405   1.654   2.377   2.652
  760SOL     OW  406   1.594   1.976   3.342
  760SOL    HW1  407   1.576   2.043   3.270
  760SOL    HW2  408   1.591   2.022   3.431
  762SOL     OW  409   1.842   3.629   2.221
  762SOL    HW1  410   1.896   3.600   2.301
  762SOL    HW2  411   1.872   3.719   2.192
  764SOL     OW  412   1.689   2.784   2.474
  764SOL    HW1  413   1.784   2.755   2.482
  764SOL    HW2  414   1.681   2.849   2.399
  765SOL     OW  415   1.641   2.970   2.294
  765SOL    HW1  416   1.727   2.972   2.242
  765SOL    HW2  417   1.655   3.017   2.382
  768SOL     OW  418   1.293   3.090   3.285
  768SOL    HW1  419   1.330   3.017   3.227
  768SOL    HW2  420   1.345   3.095   3.370
  769SOL     OW  421   0.809   1.866   2.364
  769SOL    HW1  422   0.849   1.957   2.355
  769SOL    HW2  423   0.709   1.874   2.370
  771SOL     OW  424   1.525   2.861   2.052
  771SOL    HW1  425   1.462   2.785   2.065
  771SOL    HW2  426   1.573   2.879   2.138
  774SOL     OW  427   1.466   3.279   2.815
  774SOL    HW1  428   1.407   3.285   2.895
  774SOL    HW2  429   1.451   3.191   2.769
  775SOL     OW  430   1.667   3.576   2.434
  775SOL    HW1  431   1.626   3.553   2.346
  775SOL    HW2  432   1.649   3.502   2.499
  776SOL     OW  433   0.598   2.591   2.132
  776SOL    HW1  434   0.622   2.660   2.064
  776SOL    HW2  435   0.520   2.624   2.186
  777SOL     OW  436   1.281   2.207   2.806
  777SOL    HW1  437   1.195   2.157   2.793
  777SOL    HW2  438   1.343   2.153   2.862
  778SOL     OW  439   1.576   3.524   2.169
  778SOL    HW1  440   1.665   3.570   2.172
  778SOL    HW2  441   1.555   3.500   2.074
  780SOL     OW  442   1.394   2.331   3.536
  780SOL    HW1  443   1.374   2.374   3.624
  780SOL    HW2  444   1.472   2.269   3.545
  782SOL     OW  445   0.991   2.272   3.104
  782SOL    HW1  446   0.914   2.306   3.158
  782SOL    HW2  447   0.957   2.221   3.025
  783SOL     OW  448   1.041   2.563   2.291
  783SOL    HW1  449   1.067   2.559   2.387
  783SOL    HW2  450   0.956   2.512   2.277
  786SOL     OW  451   0.865   2.210   2.057
  786SOL    HW1  452   0.924   2.273   2.008
  786SOL    HW2  453   0.884   2.116   2.028
  787SOL     OW  454   1.719   2.447   3.693
  787SOL    HW1  455   1.693   2.536   3.657
  787SOL    HW2  456   1.717   2.379   3.620
  788SOL     OW  457   1.362   3.006   2.407
  788SOL    HW1  458   1.445   2.977   2.359
  788SOL    HW2  459   1.313   3.073   2.351
  790SOL     OW  460   1.008   3.318   2.339
  790SOL    HW1  461   0.962   3.390   2.287
  790SOL    HW2  462   1.004   3.338   2.437
  792SOL     OW  463   1.795   2.928   2.735
  792SOL    HW1  464   1.733   2.913   2.659
  792SOL    HW2  465   1.743   2.939   2.820
  795SOL     OW  466   1.458   2.597   2.590
  795SOL    HW1  467   1.453   2.532   2.665
  795SOL    HW2  468   1.538   2.656   2.603
  799SOL     OW  469   1.632   3.239   1.943
  799SOL    HW1  470   1.600   3.333   1.933
  799SOL    HW2  471   1.556   3.176   1.931
  801SOL     OW  472   1.400   1.969   2.288
  801SOL    HW1  473   1.376   1.932   2.198
  801SOL    HW2  474   1.499   1.985   2.292
  805SOL     OW  475   1.547   2.084   3.591
  805SOL    HW1  476   1.542   2.121   3.683
  805SOL    HW2  477   1.475   2.015   3.579
  806SOL     OW  478   0.614   1.984   1.979
  806SOL    HW1  479   0.712   1.962   1.986
  806SOL    HW2  480   0.583   1.967   1.886
  809SOL     OW  481   1.351   2.452   3.295
  809SOL    HW1  482   1.379   2.409   3.380
  809SOL    HW2  483   1.376   2.548   3.296
  811SOL     OW  484   0.922   2.365   2.761
  811SOL    HW1  485   0.897   2.356   2.665
  811SOL    HW2  486   0.970   2.283   2.792
  813SOL     OW  487   1.434   3.050   1.903
  813SOL    HW1  488   1.466   2.974   1.960
  813SOL    HW2  489   1.342   3.077   1.933
  815SOL     OW  490   0.935   2.098   2.342
  815SOL    HW1  491   0.887   2.139   2.264
  815SOL    HW2  492   1.034   2.096   2.323
  816SOL     OW  493   1.076   2.545   3.326
  816SOL    HW1  494   0.996   2.484   3.329
  816SOL    HW2  495   1.157   2.492   3.302
  817SOL     OW  496   1.227   3.432   2.655
  817SOL    HW1  497   1.248   3.506   2.590
  817SOL    HW2  498   1.295   3.432   2.728
  819SOL     OW  499   1.271   3.659   2.453
  819SOL    HW1  500   1.315   3.723   2.389
  819SOL    HW2  501   1.221   3.711   2.523
  820SOL     OW  502   1.032   2.411   1.878
  820SOL    HW1  503   0.991   2.493   1.839
  820SOL    HW2  504   1.096   2.437   1.951
  823SOL     OW  505   0.866   2.316   2.504
  823SOL    HW1  506   0.834   2.388   2.442
  823SOL    HW2  507   0.890   2.235   2.451
  824SOL     OW  508   1.017   1.901   2.615
  824SOL    HW1  509   0.945   1.906   2.546
  824SOL    HW2  510   0.993   1.832   2.684
  825SOL     OW  511   1.429   3.035   2.729
  825SOL    HW1  512   1.374   2.951   2.722
  825SOL    HW2  513   1.455   3.064   2.637
  826SOL     OW  514   1.466   2.452   2.854
  826SOL    HW1  515   1.436   2.357   2.861
  826SOL    HW2  516   1.539   2.468   2.920
  827SOL     OW  517   1.857   2.695   2.239
  827SOL    HW1  518   1.899   2.631   2.303
  827SOL    HW2  519   1.819   2.644   2.161
  829SOL     OW  520   1.664   3.142   2.519
  829SOL    HW1  521   1.763   3.150   2.533
  829SOL    HW2  522   1.619   3.226   2.550
  830SOL     OW  523   1.390   2.437   1.940
  830SOL    HW1  524   1.336   2.416   2.021
  830SOL    HW2  525   1.481   2.396   1.949
  832SOL     OW  526   1.754   3.085   3.450
  832SOL    HW1  527   1.845   3.046   3.437
  832SOL    HW2  528   1.762   3.181   3.474
  833SOL     OW  529   1.064   3.209   3.202
  833SOL    HW1  530   0.984   3.186   3.257
  833SOL    HW2  531   1.147   3.183   3.251
  835SOL     OW  532   1.111   3.057   2.962
  835SOL    HW1  533   1.071   3.101   3.043
  835SOL    HW2  534   1.070   3.094   2.879
  836SOL     OW  535   1.638   2.961   2.941
  836SOL    HW1  536   1.643   3.042   3.000
  836SOL    HW2  537   1.552   2.963   2.890
  837SOL     OW  538   0.915   1.951   3.264
  837SOL    HW1  539   0.940   1.931   3.169
  837SOL    HW2  540   0.987   2.007   3.306
  839SOL     OW  541   0.705   2.912   2.230
  839SOL    HW1  542   0.691   2.919   2.329
  839SOL    HW2  543   0.789   2.861   2.212
  841SOL     OW  544   1.274   2.248   3.124
  841SOL    HW1  545   1.295   2.322   3.188
  841SOL    HW2  546   1.185   2.265   3.081
  844SOL     OW  547   0.566   2.399   2.727
  844SOL    HW1  548   0.578   2.465   2.653
  844SOL    HW2  549   0.612   2.433   2.810
  845SOL     OW  550   1.252   3.210   2.250
  845SOL    HW1  551   1.302   3.287   2.290
  845SOL    HW2  552   1.157   3.212   2.282
  846SOL     OW  553   1.272   3.307   3.004
  846SOL    HW1  554   1.319   3.320   3.091
  846SOL    HW2  555   1.206   3.233   3.013
  847SOL     OW  556   1.582   2.501   2.334
  847SOL    HW1  557   1.551   2.562   2.407
  847SOL    HW2  558   1.632   2.553   2.265
  850SOL     OW  559   1.587   2.641   3.532
  850SOL    HW1  560   1.495   2.679   3.527
  850SOL    HW2  561   1.647   2.688   3.467
  854SOL     OW  562   1.360   2.724   2.907
  854SOL    HW1  563   1.285   2.724   2.841
  854SOL    HW2  564   1.397   2.632   2.916
  855SOL     OW  565   1.209   2.387   2.137
  855SOL    HW1  566   1.222   2.303   2.191
  855SOL    HW2  567   1.180   2.461   2.197
  858SOL     OW  568   0.732   2.496   2.926
  858SOL    HW1  569   0.791   2.470   2.850
  858SOL    HW2  570   0.704   2.592   2.915
  859SOL     OW  571   1.728   2.797   3.716
  859SOL    HW1  572   1.682   2.790   3.627
  859SOL    HW2  573   1.666   2.841   3.782
  861SOL     OW  574   1.622   2.229   2.236
  861SOL    HW1  575   1.624   2.153   2.300
  861SOL    HW2  576   1.574   2.306   2.276
  862SOL     OW  577   1.023   2.628   2.828
  862SOL    HW1  578   1.038   2.649   2.924
  862SOL    HW2  579   0.993   2.533   2.819
  864SOL     OW  580   1.859   3.380   3.467
  864SOL    HW1  581   1.873   3.407   3.372
  864SOL    HW2  582   1.942   3.402   3.520
  866SOL     OW  583   1.540   2.136   1.987
  866SOL    HW1  584   1.479   2.061   2.010
  866SOL    HW2  585   1.562   2.188   2.070
  867SOL     OW  586   1.303   2.700   1.904
  867SOL    HW1  587   1.337   2.607   1.919
  867SOL    HW2  588   1.321   2.727   1.809
  868SOL     OW  589   1.068   3.195   2.711
  868SOL    HW1  590   1.075   3.111   2.656
  868SOL    HW2  591   1.130   3.264   2.675
  871SOL     OW  592   1.138   2.242   3.540
  871SOL    HW1  593   1.093   2.305   3.604
  871SOL    HW2  594   1.231   2.273   3.523
  872SOL     OW  595   1.160   2.069   3.339
  872SOL    HW1  596   1.160   2.133   3.416
  872SOL    HW2  597   1.188   2.117   3.256
  876SOL     OW  598   1.002   2.658   3.100
  876SOL    HW1  599   1.043   2.626   3.186
  876SOL    HW2  600   0.906   2.631   3.097
  879SOL     OW  601   1.369   2.812   3.522
  879SOL    HW1  602   1.408   2.901   3.542
  879SOL    HW2  603   1.379   2.792   3.425
  880SOL     OW  604   0.815   2.434   2.187
  880SOL    HW1  605   0.822   2.345   2.141
  880SOL    HW2  606   0.721   2.468   2.179
  881SOL     OW  607   1.657   2.466   3.068
  881SOL    HW1  608   1.619   2.397   3.130
  881SOL    HW2  609   1.739   2.430   3.024
  887SOL     OW  610   1.347   2.921   3.096
  887SOL    HW1  611   1.371   2.858   3.022
  887SOL    HW2  612   1.257   2.961   3.078
  888SOL     OW  613   1.302   2.717   2.171
  888SOL    HW1  614   1.216   2.686   2.213
  888SOL    HW2  615   1.298   2.703   2.072
  889SOL     OW  616   1.759   3.609   3.016
  889SOL    HW1  617   1.820   3.639   2.943
  889SOL    HW2  618   1.721   3.520   2.994
  890SOL     OW  619   1.252   3.593   2.990
  890SOL    HW1  620   1.336   3.598   2.936
  890SOL    HW2  621   1.229   3.497   3.008
  893SOL     OW  622   1.726   1.997   2.385
  893SOL    HW1  623   1.799   1.980   2.318
  893SOL    HW2  624   1.695   1.910   2.423
  894SOL     OW  625   1.388   3.435   2.339
  894SOL    HW1  626   1.455   3.447   2.265
  894SOL    HW2  627   1.348   3.524   2.362
  896SOL     OW  628   1.280   2.789   2.534
  896SOL    HW1  629   1.340   2.708   2.536
  896SOL    HW2  630   1.320   2.858   2.474
  899SOL     OW  631   1.650   3.582   3.256
  899SOL    HW1  632   1.703   3.592   3.172
  899SOL    HW2  633   1.623   3.672   3.290
  900SOL     OW  634   1.841   2.037   2.825
  900SOL    HW1  635   1.880   1.952   2.789
  900SOL    HW2  636   1.743   2.039   2.806
  902SOL     OW  637   1.194   3.474   1.893
  902SOL    HW1  638   1.200   3.381   1.930
  902SOL    HW2  639   1.135   3.474   1.813
  904SOL     OW  640   0.916   2.772   2.153
  904SOL    HW1  641   0.979   2.810   2.085
  904SOL    HW2  642   0.956   2.689   2.192
  905SOL     OW  643   1.504   3.469   1.906
  905SOL    HW1  644   1.412   3.506   1.913
  905SOL    HW2  645   1.542   3.489   1.816
  907SOL     OW  646   1.614   3.154   3.151
  907SOL    HW1  647   1.674   3.157   3.231
  907SOL    HW2  648   1.539   3.218   3.164
  908SOL     OW  649   1.039   2.960   2.558
  908SOL    HW1  650   0.969   2.913   2.612
  908SOL    HW2  651   1.098   2.892   2.515
  909SOL     OW  652   1.014   2.098   2.833
  909SOL    HW1  653   1.006   2.062   2.740
  909SOL    HW2  654   1.012   2.022   2.898
  911SOL     OW  655   1.709   2.247   3.243
  911SOL    HW1  656   1.782   2.316   3.247
  911SOL    HW2  657   1.737   2.172   3.184
  916SOL     OW  658   1.440   2.718   3.260
  916SOL    HW1  659   1.383   2.770   3.197
  916SOL    HW2  660   1.536   2.730   3.236
  918SOL     OW  661   1.183   3.197   1.981
  918SOL    HW1  662   1.084   3.186   1.983
  918SOL    HW2  663   1.217   3.212   2.074
  920SOL     OW  664   1.493   3.629   2.821
  920SOL    HW1  665   1.526   3.693   2.752
  920SOL    HW2  666   1.559   3.623   2.896
  922SOL     OW  667   1.450   3.082   3.495
  922SOL    HW1  668   1.441   3.072   3.594
  922SOL    HW2  669   1.546   3.075   3.469
  924SOL     OW  670   1.674   2.745   3.116
  924SOL    HW1  671   1.647   2.656   3.079
  924SOL    HW2  672   1.675   2.813   3.043
  925SOL     OW  673   1.225   2.187   2.311
  925SOL    HW1  674   1.290   2.113   2.300
  925SOL    HW2  675   1.245   2.237   2.395
  926SOL     OW  676   0.594   2.607   2.514
  926SOL    HW1  677   0.644   2.692   2.495
  926SOL    HW2  678   0.506   2.609   2.466
  927SOL     OW  679   1.777   2.204   3.504
  927SOL    HW1  680   1.760   2.235   3.410
  927SOL    HW2  681   1.693   2.167   3.542
  928SOL     OW  682   1.730   2.796   3.379
  928SOL    HW1  683   1.768   2.887   3.394
  928SOL    HW2  684   1.722   2.779   3.280
  929SOL     OW  685   0.859   3.236   1.878
  929SOL    HW1  686   0.813   3.251   1.966
  929SOL    HW2  687   0.903   3.321   1.848
  931SOL     OW  688   0.859   2.818   2.723
  931SOL    HW1  689   0.913   2.749   2.771
  931SOL    HW2  690   0.827   2.887   2.789
  932SOL     OW  691   1.083   2.846   1.949
  932SOL    HW1  692   1.060   2.899   1.867
  932SOL    HW2  693   1.164   2.790   1.930
  933SOL     OW  694   1.861   3.431   2.713
  933SOL    HW1  695   1.790   3.419   2.643
  933SOL    HW2  696   1.862   3.352   2.773
  937SOL     OW  697   1.824   2.054   3.089
  937SOL    HW1  698   1.820   1.964   3.133
  937SOL    HW2  699   1.827   2.043   2.990
  939SOL     OW  700   1.705   3.349   2.966
  939SOL    HW1  701   1.612   3.324   2.939
  939SOL    HW2  702   1.731   3.299   3.048
  942SOL     OW  703   1.424   2.076   2.974
  942SOL    HW1  704   1.476   2.011   3.029
  942SOL    HW2  705   1.375   2.139   3.035
  943SOL     OW  706   1.001   1.896   3.016
  943SOL    HW1  707   0.938   1.824   2.985
  943SOL    HW2  708   1.094   1.860   3.016
  944SOL     OW  709   0.770   3.192   2.163
  944SOL    HW1  710   0.724   3.105   2.180
  944SOL    HW2  711   0.861   3.189   2.204
  946SOL     OW  712   1.352   1.914   2.030
  946SOL    HW1  713   1.387   1.873   1.946
  946SOL    HW2  714   1.262   1.876   2.050
  947SOL     OW  715   1.300   2.315   2.553
  947SOL    HW1  716   1.241   2.395   2.557
  947SOL    HW2  717   1.315   2.280   2.646
  948SOL     OW  718   1.593   2.083   2.744
  948SOL    HW1  719   1.509   2.082   2.798
  948SOL    HW2  720   1.595   2.166   2.688
  955SOL     OW  721   1.755   2.469   3.955
  955SOL    HW1  722   1.743   2.456   3.856
  955SOL    HW2  723   1.725   2.388   4.004
 1004SOL     OW  724   1.390   2.437   3.802
 1004SOL    HW1  725   1.336   2.416   3.883
 1004SOL    HW2  726   1.481   2.396   3.811
 1014SOL     OW  727   1.540   2.136   3.849
 1014SOL    HW1  728   1.479   2.061   3.872
 1014SOL    HW2  729   1.562   2.188   3.932
 1179SOL     OW  730   1.400   3.831   2.288
 1179SOL    HW1  731   1.376   3.794   2.198
 1179SOL    HW2  732   1.499   3.847   2.292
 1229SOL     OW  733   1.726   3.859   2.385
 1229SOL    HW1  734   1.799   3.842   2.318
 1229SOL    HW2  735   1.695   3.772   2.423
 1231SOL     OW  736   1.841   3.899   2.825
 1231SOL    HW1  737   1.880   3.814   2.789
 1231SOL    HW2  738   1.743   3.901   2.806
 1252SOL     OW  739   1.352   3.776   2.030
 1252SOL    HW1  740   1.387   3.735   1.946
 1252SOL    HW2  741   1.262   3.738   2.050
 1308SOL     OW  742   2.431   1.275   1.165
 1308SOL    HW1  743   2.338   1.268   1.128
 1308SOL    HW2  744   2.442   1.364   1.209
 1312SOL     OW  745   2.630   1.144   1.023
 1312SOL    HW1  746   2.552   1.161   1.083
 1312SOL    HW2  747   2.664   1.231   0.987
 1313SOL     OW  748   2.712   0.798   1.823
 1313SOL    HW1  749   2.708   0.874   1.888
 1313SOL    HW2  750   2.734   0.834   1.732
 1315SOL     OW  751   2.548   1.161   1.803
 1315SOL    HW1  752   2.608   1.240   1.817
 1315SOL    HW2  753   2.462   1.192   1.762
 1316SOL     OW  754   2.197   1.435   1.061
 1316SOL    HW1  755   2.119   1.404   1.008
 1316SOL    HW2  756   2.255   1.493   1.004
 1317SOL     OW  757   3.322   1.505   1.339
 1317SOL    HW1  758   3.346   1.599   1.365
 1317SOL    HW2  759   3.306   1.451   1.421
 1321SOL     OW  760   2.989   1.341   1.690
 1321SOL    HW1  761   3.036   1.341   1.778
 1321SOL    HW2  762   2.941   1.254   1.679
 1324SOL     OW  763   2.482   1.786   1.439
 1324SOL    HW1  764   2.390   1.769   1.474
 1324SOL    HW2  765   2.510   1.878   1.465
 1331SOL     OW  766   1.975   0.737   1.597
 1331SOL    HW1  767   2.063   0.724   1.642
 1331SOL    HW2  768   1.962   0.834   1.575
 1333SOL     OW  769   3.155   1.228   1.423
 1333SOL    HW1  770   3.192   1.155   1.365
 1333SOL    HW2  771   3.207   1.233   1.508
 1335SOL     OW  772   2.059   0.976   1.264
 1335SOL    HW1  773   2.148   0.931   1.250
 1335SOL    HW2  774   1.986   0.911   1.245
 1337SOL     OW  775   3.049   1.792   1.616
 1337SOL    HW1  776   3.073   1.852   1.540
 1337SOL    HW2  777   3.056   1.697   1.586
 1346SOL     OW  778   2.835   0.890   1.572
 1346SOL    HW1  779   2.881   0.806   1.543
 1346SOL    HW2  780   2.779   0.924   1.497
 1350SOL     OW  781   1.992   1.821   1.571
 1350SOL    HW1  782   1.982   1.806   1.670
 1350SOL    HW2  783   1.906   1.857   1.535
 1356SOL     OW  784   2.213   1.801   0.853
 1356SOL    HW1  785   2.263   1.715   0.859
 1356SOL    HW2  786   2.278   1.878   0.850
 1358SOL     OW  787   3.089   1.550   1.506
 1358SOL    HW1  788   3.095   1.473   1.570
 1358SOL    HW2  789   3.037   1.524   1.426
 1361SOL     OW  790   2.323   1.266   1.727
 1361SOL    HW1  791   2.273   1.267   1.641
 1361SOL    HW2  792   2.260   1.248   1.803
 1367SOL     OW  793   2.111   1.785   1.241
 1367SOL    HW1  794   2.168   1.720   1.291
 1367SOL    HW2  795   2.095   1.752   1.148
 1368SOL     OW  796   2.802   1.698   0.904
 1368SOL    HW1  797   2.882   1.641   0.925
 1368SOL    HW2  798   2.753   1.658   0.827
 1373SOL     OW  799   2.750   1.514   1.195
 1373SOL    HW1  800   2.727   1.489   1.101
 1373SOL    HW2  801   2.811   1.445   1.234
 1375SOL     OW  802   2.665   1.402   0.924
 1375SOL    HW1  803   2.755   1.416   0.882
 1375SOL    HW2  804   2.594   1.404   0.853
 1398SOL     OW  805   2.926   1.347   1.340
 1398SOL    HW1  806   2.846   1.324   1.395
 1398SOL    HW2  807   3.009   1.321   1.389
 1399SOL     OW  808   3.454   1.629   1.625
 1399SOL    HW1  809   3.481   1.663   1.535
 1399SOL    HW2  810   3.533   1.591   1.671
 1400SOL     OW  811   2.973   1.195   1.100
 1400SOL    HW1  812   2.933   1.239   1.181
 1400SOL    HW2  813   2.932   1.232   1.017
 1403SOL     OW  814   2.842   1.116   1.719
 1403SOL    HW1  815   2.743   1.122   1.729
 1403SOL    HW2  816   2.865   1.036   1.663
 1407SOL     OW  817   1.926   1.564   1.331
 1407SOL    HW1  818   1.880   1.646   1.297
 1407SOL    HW2  819   2.024   1.583   1.340
 1411SOL     OW  820   3.134   1.445   1.142
 1411SOL    HW1  821   3.181   1.458   1.229
 1411SOL    HW2  822   3.068   1.371   1.151
 1413SOL     OW  823   2.216   1.510   1.329
 1413SOL    HW1  824   2.195   1.466   1.242
 1413SOL    HW2  825   2.313   1.536   1.332
 1414SOL     OW  826   2.264   0.751   1.598
 1414SOL    HW1  827   2.332   0.806   1.551
 1414SOL    HW2  828   2.304   0.663   1.625
 1422SOL     OW  829   1.899   1.310   1.282
 1422SOL    HW1  830   1.952   1.261   1.350
 1422SOL    HW2  831   1.921   1.408   1.287
 1428SOL     OW  832   2.842   1.573   1.700
 1428SOL    HW1  833   2.822   1.617   1.612
 1428SOL    HW2  834   2.881   1.482   1.684
 1429SOL     OW  835   3.721   1.518   1.605
 1429SOL    HW1  836   3.735   1.545   1.510
 1429SOL    HW2  837   3.804   1.540   1.658
 1430SOL     OW  838   2.212   0.898   1.804
 1430SOL    HW1  839   2.288   0.942   1.852
 1430SOL    HW2  840   2.247   0.851   1.722
 1439SOL     OW  841   1.950   1.801   0.927
 1439SOL    HW1  842   1.908   1.715   0.900
 1439SOL    HW2  843   2.044   1.804   0.893
 1440SOL     OW  844   2.366   1.568   0.910
 1440SOL    HW1  845   2.432   1.642   0.919
 1440SOL    HW2  846   2.410   1.489   0.868
 1444SOL     OW  847   3.231   0.950   1.660
 1444SOL    HW1  848   3.270   1.039   1.680
 1444SOL    HW2  849   3.241   0.930   1.563
 1447SOL     OW  850   2.114   1.564   1.744
 1447SOL    HW1  851   2.084   1.621   1.820
 1447SOL    HW2  852   2.107   1.467   1.770
 1449SOL     OW  853   2.792   1.678   1.465
 1449SOL    HW1  854   2.768   1.660   1.370
 1449SOL    HW2  855   2.822   1.772   1.475
 1451SOL     OW  856   2.021   1.137   1.466
 1451SOL    HW1  857   2.043   1.076   1.542
 1451SOL    HW2  858   2.031   1.088   1.380
 1455SOL     OW  859   3.114   1.731   1.128
 1455SOL    HW1  860   3.198   1.736   1.074
 1455SOL    HW2  861   3.091   1.635   1.146
 1456SOL     OW  862   1.945   1.258   1.022
 1456SOL    HW1  863   1.940   1.257   1.122
 1456SOL    HW2  864   1.862   1.217   0.984
 1457SOL     OW  865   2.550   1.662   1.716
 1457SOL    HW1  866   2.494   1.743   1.725
 1457SOL    HW2  867   2.602   1.666   1.630
 1461SOL     OW  868   1.992   1.794   1.851
 1461SOL    HW1  869   1.951   1.720   1.904
 1461SOL    HW2  870   2.056   1.845   1.909
 1463SOL     OW  871   2.692   1.273   1.422
 1463SOL    HW1  872   2.687   1.306   1.517
 1463SOL    HW2  873   2.606   1.292   1.376
 1465SOL     OW  874   3.512   1.720   1.394
 1465SOL    HW1  875   3.565   1.730   1.310
 1465SOL    HW2  876   3.485   1.810   1.428
 1469SOL     OW  877   2.684   1.002   1.372
 1469SOL    HW1  878   2.724   1.001   1.280
 1469SOL    HW2  879   2.694   1.094   1.412
 1472SOL     OW  880   2.234   1.288   1.490
 1472SOL    HW1  881   2.221   1.381   1.456
 1472SOL    HW2  882   2.150   1.236   1.477
 1479SOL     OW  883   1.967   1.013   1.726
 1479SOL    HW1  884   1.890   0.980   1.780
 1479SOL    HW2  885   2.052   0.983   1.768
 1484SOL     OW  886   2.475   0.842   1.431
 1484SOL    HW1  887   2.531   0.923   1.414
 1484SOL    HW2  888   2.534   0.762   1.434
 1485SOL     OW  889   3.355   1.767   0.959
 1485SOL    HW1  890   3.388   1.831   0.890
 1485SOL    HW2  891   3.421   1.761   1.034
 1487SOL     OW  892   3.312   1.220   1.633
 1487SOL    HW1  893   3.303   1.210   1.732
 1487SOL    HW2  894   3.408   1.213   1.607
 1488SOL     OW  895   2.252   1.741   1.560
 1488SOL    HW1  896   2.161   1.782   1.558
 1488SOL    HW2  897   2.245   1.647   1.592
 1495SOL     OW  898   2.523   1.790   0.953
 1495SOL    HW1  899   2.477   1.878   0.940
 1495SOL    HW2  900   2.622   1.802   0.946
 1499SOL     OW  901   2.083   1.314   1.844
 1499SOL    HW1  902   2.018   1.241   1.823
 1499SOL    HW2  903   2.087   1.328   1.942
 1501SOL     OW  904   2.534   1.391   1.624
 1501SOL    HW1  905   2.456   1.341   1.662
 1501SOL    HW2  906   2.531   1.486   1.655
 1510SOL     OW  907   2.480   1.567   1.284
 1510SOL    HW1  908   2.475   1.649   1.341
 1510SOL    HW2  909   2.569   1.564   1.239
 1516SOL     OW  910   2.092   0.628   1.975
 1516SOL    HW1  911   1.999   0.626   2.012
 1516SOL    HW2  912   2.093   0.589   1.883
 1519SOL     OW  913   2.431   1.275   3.027
 1519SOL    HW1  914   2.338   1.268   2.990
 1519SOL    HW2  915   2.442   1.364   3.071
 1520SOL     OW  916   3.417   1.511   2.565
 1520SOL    HW1  917   3.360   1.495   2.646
 1520SOL    HW2  918   3.358   1.521   2.485
 1521SOL     OW  919   2.997   0.703   2.579
 1521SOL    HW1  920   3.054   0.781   2.554
 1521SOL    HW2  921   2.937   0.729   2.655
 1523SOL     OW  922   2.630   1.144   2.885
 1523SOL    HW1  923   2.552   1.161   2.945
 1523SOL    HW2  924   2.664   1.231   2.849
 1525SOL     OW  925   2.547   1.012   2.527
 1525SOL    HW1  926   2.616   0.996   2.597
 1525SOL    HW2  927   2.474   1.069   2.565
 1526SOL     OW  928   2.548   1.161   3.665
 1526SOL    HW1  929   2.608   1.240   3.679
 1526SOL    HW2  930   2.462   1.192   3.624
 1527SOL     OW  931   2.197   1.435   2.923
 1527SOL    HW1  932   2.119   1.404   2.870
 1527SOL    HW2  933   2.255   1.493   2.866
 1528SOL     OW  934   3.322   1.505   3.201
 1528SOL    HW1  935   3.346   1.599   3.227
 1528SOL    HW2  936   3.306   1.451   3.283
 1531SOL     OW  937   2.093   1.713   2.345
 1531SOL    HW1  938   2.127   1.790   2.399
 1531SOL    HW2  939   2.137   1.713   2.255
 1532SOL     OW  940   2.989   1.341   3.552
 1532SOL    HW1  941   3.036   1.341   3.640
 1532SOL    HW2  942   2.941   1.254   3.541
 1533SOL     OW  943   2.092   1.434   2.400
 1533SOL    HW1  944   2.066   1.530   2.400
 1533SOL    HW2  945   2.021   1.380   2.445
 1534SOL     OW  946   2.102   1.091   2.748
 1534SOL    HW1  947   2.116   1.007   2.800
 1534SOL    HW2  948   2.047   1.155   2.803
 1535SOL     OW  949   2.482   1.786   3.301
 1535SOL    HW1  950   2.390   1.769   3.336
 1535SOL    HW2  951   2.510   1.878   3.327
 1536SOL     OW  952   2.468   0.964   1.985
 1536SOL    HW1  953   2.475   1.048   1.931
 1536SOL    HW2  954   2.514   0.977   2.073
 1538SOL     OW  955   1.984   0.643   2.425
 1538SOL    HW1  956   1.939   0.555   2.442
 1538SOL    HW2  957   1.983   0.697   2.509
 1539SOL     OW  958   3.704   1.767   2.221
 1539SOL    HW1  959   3.758   1.738   2.301
 1539SOL    HW2  960   3.734   1.857   2.192
 1540SOL     OW  961   1.889   1.596   1.979
 1540SOL    HW1  962   1.870   1.500   2.000
 1540SOL    HW2  963   1.856   1.654   2.054
 1542SOL     OW  964   3.503   1.108   2.294
 1542SOL    HW1  965   3.589   1.110   2.242
 1542SOL    HW2  966   3.517   1.155   2.382
 1544SOL     OW  967   2.475   1.365   2.588
 1544SOL    HW1  968   2.426   1.278   2.597
 1544SOL    HW2  969   2.452   1.408   2.501
 1545SOL     OW  970   3.155   1.228   3.285
 1545SOL    HW1  971   3.192   1.155   3.227
 1545SOL    HW2  972   3.207   1.233   3.370
 1547SOL     OW  973   2.059   0.976   3.126
 1547SOL    HW1  974   2.148   0.931   3.112
 1547SOL    HW2  975   1.986   0.911   3.107
 1548SOL     OW  976   3.387   0.999   2.052
 1548SOL    HW1  977   3.324   0.923   2.065
 1548SOL    HW2  978   3.435   1.017   2.138
 1549SOL     OW  979   3.049   1.792   3.478
 1549SOL    HW1  980   3.073   1.852   3.402
 1549SOL    HW2  981   3.056   1.697   3.448
 1551SOL     OW  982   3.328   1.417   2.815
 1551SOL    HW1  983   3.269   1.423   2.895
 1551SOL    HW2  984   3.313   1.329   2.769
 1552SOL     OW  985   3.529   1.714   2.434
 1552SOL    HW1  986   3.488   1.691   2.346
 1552SOL    HW2  987   3.511   1.640   2.499
 1553SOL     OW  988   2.460   0.729   2.132
 1553SOL    HW1  989   2.484   0.798   2.064
 1553SOL    HW2  990   2.382   0.762   2.186
 1555SOL     OW  991   3.438   1.662   2.169
 1555SOL    HW1  992   3.527   1.708   2.172
 1555SOL    HW2  993   3.417   1.638   2.074
 1560SOL     OW  994   2.903   0.701   2.291
 1560SOL    HW1  995   2.929   0.697   2.387
 1560SOL    HW2  996   2.818   0.650   2.277
 1561SOL     OW  997   1.938   0.811   2.651
 1561SOL    HW1  998   2.037   0.799   2.660
 1561SOL    HW2  999   1.914   0.906   2.672
 1562SOL     OW 1000   1.992   1.821   3.433
 1562SOL    HW1 1001   1.982   1.806   3.532
 1562SOL    HW2 1002   1.906   1.857   3.397
 1565SOL     OW 1003   3.224   1.144   2.407
 1565SOL    HW1 1004   3.307   1.115   2.359
 1565SOL    HW2 1005   3.175   1.211   2.351
 1567SOL     OW 1006   2.870   1.456   2.339
 1567SOL    HW1 1007   2.824   1.528   2.287
 1567SOL    HW2 1008   2.866   1.476   2.437
 1568SOL     OW 1009   2.213   1.801   2.715
 1568SOL    HW1 1010   2.263   1.715   2.721
 1568SOL    HW2 1011   2.278   1.878   2.712
 1570SOL     OW 1012   3.089   1.550   3.368
 1570SOL    HW1 1013   3.095   1.473   3.432
 1570SOL    HW2 1014   3.037   1.524   3.288
 1571SOL     OW 1015   2.183   0.943   2.104
 1571SOL    HW1 1016   2.265   0.982   2.062
 1571SOL    HW2 1017   2.156   0.861   2.055
 1573SOL     OW 1018   2.323   1.266   3.589
 1573SOL    HW1 1019   2.273   1.267   3.503
 1573SOL    HW2 1020   2.260   1.248   3.665
 1574SOL     OW 1021   2.973   1.776   2.099
 1574SOL    HW1 1022   2.913   1.714   2.149
 1574SOL    HW2 1023   3.004   1.732   2.014
 1576SOL     OW 1024   3.494   1.377   1.943
 1576SOL    HW1 1025   3.462   1.471   1.933
 1576SOL    HW2 1026   3.418   1.314   1.931
 1577SOL     OW 1027   2.326   1.743   2.185
 1577SOL    HW1 1028   2.359   1.782   2.271
 1577SOL    HW2 1029   2.402   1.736   2.120
 1579SOL     OW 1030   2.111   1.785   3.103
 1579SOL    HW1 1031   2.168   1.720   3.153
 1579SOL    HW2 1032   2.095   1.752   3.010
 1580SOL     OW 1033   2.802   1.698   2.766
 1580SOL    HW1 1034   2.882   1.641   2.787
 1580SOL    HW2 1035   2.753   1.658   2.689
 1581SOL     OW 1036   2.244   0.700   2.342
 1581SOL    HW1 1037   2.289   0.610   2.339
 1581SOL    HW2 1038   2.150   0.689   2.375
 1585SOL     OW 1039   2.750   1.514   3.057
 1585SOL    HW1 1040   2.727   1.489   2.963
 1585SOL    HW2 1041   2.811   1.445   3.096
 1587SOL     OW 1042   2.665   1.402   2.786
 1587SOL    HW1 1043   2.755   1.416   2.744
 1587SOL    HW2 1044   2.594   1.404   2.715
 1590SOL     OW 1045   3.296   1.188   1.903
 1590SOL    HW1 1046   3.328   1.112   1.960
 1590SOL    HW2 1047   3.204   1.215   1.933
 1594SOL     OW 1048   3.089   1.570   2.655
 1594SOL    HW1 1049   3.110   1.644   2.590
 1594SOL    HW2 1050   3.157   1.570   2.728
 1595SOL     OW 1051   2.321   1.152   2.603
 1595SOL    HW1 1052   2.250   1.125   2.668
 1595SOL    HW2 1053   2.295   1.124   2.510
 1596SOL     OW 1054   3.133   1.797   2.453
 1596SOL    HW1 1055   3.177   1.861   2.389
 1596SOL    HW2 1056   3.083   1.849   2.523
 1602SOL     OW 1057   3.291   1.173   2.729
 1602SOL    HW1 1058   3.236   1.089   2.722
 1602SOL    HW2 1059   3.317   1.202   2.637
 1605SOL     OW 1060   2.350   1.385   2.036
 1605SOL    HW1 1061   2.263   1.370   2.083
 1605SOL    HW2 1062   2.333   1.411   1.941
 1606SOL     OW 1063   3.526   1.280   2.519
 1606SOL    HW1 1064   3.625   1.288   2.533
 1606SOL    HW2 1065   3.481   1.364   2.550
 1610SOL     OW 1066   2.926   1.347   3.202
 1610SOL    HW1 1067   2.846   1.324   3.257
 1610SOL    HW2 1068   3.009   1.321   3.251
 1611SOL     OW 1069   3.454   1.629   3.487
 1611SOL    HW1 1070   3.481   1.663   3.397
 1611SOL    HW2 1071   3.533   1.591   3.533
 1612SOL     OW 1072   2.973   1.195   2.962
 1612SOL    HW1 1073   2.933   1.239   3.043
 1612SOL    HW2 1074   2.932   1.232   2.879
 1616SOL     OW 1075   2.567   1.050   2.230
 1616SOL    HW1 1076   2.553   1.057   2.329
 1616SOL    HW2 1077   2.651   0.999   2.212
 1617SOL     OW 1078   2.272   0.813   3.113
 1617SOL    HW1 1079   2.358   0.825   3.163
 1617SOL    HW2 1080   2.230   0.726   3.140
 1619SOL     OW 1081   1.926   1.564   3.193
 1619SOL    HW1 1082   1.880   1.646   3.159
 1619SOL    HW2 1083   2.024   1.583   3.202
 1620SOL     OW 1084   2.229   1.100   2.363
 1620SOL    HW1 1085   2.222   1.183   2.307
 1620SOL    HW2 1086   2.233   1.020   2.303
 1622SOL     OW 1087   3.114   1.348   2.250
 1622SOL    HW1 1088   3.164   1.425   2.290
 1622SOL    HW2 1089   3.019   1.350   2.282
 1623SOL     OW 1090   3.134   1.445   3.004
 1623SOL    HW1 1091   3.181   1.458   3.091
 1623SOL    HW2 1092   3.068   1.371   3.013
 1625SOL     OW 1093   2.216   1.510   3.191
 1625SOL    HW1 1094   2.195   1.466   3.104
 1625SOL    HW2 1095   2.313   1.536   3.194
 1630SOL     OW 1096   2.435   0.870   2.891
 1630SOL    HW1 1097   2.479   0.959   2.882
 1630SOL    HW2 1098   2.372   0.870   2.968
 1634SOL     OW 1099   1.899   1.310   3.144
 1634SOL    HW1 1100   1.952   1.261   3.212
 1634SOL    HW2 1101   1.921   1.408   3.149
 1639SOL     OW 1102   2.885   0.766   2.828
 1639SOL    HW1 1103   2.900   0.787   2.924
 1639SOL    HW2 1104   2.855   0.671   2.819
 1640SOL     OW 1105   2.842   1.573   3.562
 1640SOL    HW1 1106   2.822   1.617   3.474
 1640SOL    HW2 1107   2.881   1.482   3.546
 1644SOL     OW 1108   3.165   0.838   1.904
 1644SOL    HW1 1109   3.199   0.745   1.919
 1644SOL    HW2 1110   3.183   0.865   1.809
 1645SOL     OW 1111   2.930   1.333   2.711
 1645SOL    HW1 1112   2.937   1.249   2.656
 1645SOL    HW2 1113   2.992   1.402   2.675
 1646SOL     OW 1114   2.181   0.810   2.811
 1646SOL    HW1 1115   2.274   0.846   2.816
 1646SOL    HW2 1116   2.175   0.725   2.863
 1650SOL     OW 1117   1.870   1.326   2.062
 1650SOL    HW1 1118   1.777   1.347   2.031
 1650SOL    HW2 1119   1.880   1.227   2.075
 1651SOL     OW 1120   1.950   1.801   2.789
 1651SOL    HW1 1121   1.908   1.715   2.762
 1651SOL    HW2 1122   2.044   1.804   2.755
 1652SOL     OW 1123   2.366   1.568   2.772
 1652SOL    HW1 1124   2.432   1.642   2.781
 1652SOL    HW2 1125   2.410   1.489   2.730
 1653SOL     OW 1126   2.864   0.796   3.100
 1653SOL    HW1 1127   2.905   0.764   3.186
 1653SOL    HW2 1128   2.768   0.769   3.097
 1657SOL     OW 1129   2.677   0.572   2.187
 1657SOL    HW1 1130   2.684   0.483   2.141
 1657SOL    HW2 1131   2.583   0.606   2.179
 1659SOL     OW 1132   2.114   1.564   3.606
 1659SOL    HW1 1133   2.084   1.621   3.682
 1659SOL    HW2 1134   2.107   1.467   3.632
 1661SOL     OW 1135   2.792   1.678   3.327
 1661SOL    HW1 1136   2.768   1.660   3.232
 1661SOL    HW2 1137   2.822   1.772   3.337
 1663SOL     OW 1138   2.021   1.137   3.328
 1663SOL    HW1 1139   2.043   1.076   3.404
 1663SOL    HW2 1140   2.031   1.088   3.242
 1664SOL     OW 1141   3.209   1.059   3.096
 1664SOL    HW1 1142   3.233   0.996   3.022
 1664SOL    HW2 1143   3.119   1.099   3.078
 1665SOL     OW 1144   3.164   0.855   2.171
 1665SOL    HW1 1145   3.078   0.824   2.213
 1665SOL    HW2 1146   3.160   0.841   2.072
 1666SOL     OW 1147   3.621   1.747   3.016
 1666SOL    HW1 1148   3.682   1.777   2.943
 1666SOL    HW2 1149   3.583   1.658   2.994
 1667SOL     OW 1150   3.114   1.731   2.990
 1667SOL    HW1 1151   3.198   1.736   2.936
 1667SOL    HW2 1152   3.091   1.635   3.008
 1668SOL     OW 1153   1.945   1.258   2.884
 1668SOL    HW1 1154   1.940   1.257   2.984
 1668SOL    HW2 1155   1.862   1.217   2.846
 1669SOL     OW 1156   2.550   1.662   3.578
 1669SOL    HW1 1157   2.494   1.743   3.587
 1669SOL    HW2 1158   2.602   1.666   3.492
 1671SOL     OW 1159   3.250   1.573   2.339
 1671SOL    HW1 1160   3.317   1.585   2.265
 1671SOL    HW2 1161   3.210   1.662   2.362
 1672SOL     OW 1162   1.992   1.794   3.713
 1672SOL    HW1 1163   1.951   1.720   3.766
 1672SOL    HW2 1164   2.056   1.845   3.771
 1673SOL     OW 1165   3.142   0.927   2.534
 1673SOL    HW1 1166   3.202   0.846   2.536
 1673SOL    HW2 1167   3.182   0.996   2.474
 1674SOL     OW 1168   2.692   1.273   3.284
 1674SOL    HW1 1169   2.687   1.306   3.379
 1674SOL    HW2 1170   2.606   1.292   3.238
 1675SOL     OW 1171   2.534   1.616   2.016
 1675SOL    HW1 1172   2.543   1.626   1.917
 1675SOL    HW2 1173   2.494   1.527   2.037
 1676SOL     OW 1174   3.512   1.720   3.256
 1676SOL    HW1 1175   3.565   1.730   3.172
 1676SOL    HW2 1176   3.485   1.810   3.290
 1679SOL     OW 1177   3.056   1.612   1.893
 1679SOL    HW1 1178   3.062   1.519   1.930
 1679SOL    HW2 1179   2.997   1.612   1.813
 1680SOL     OW 1180   2.684   1.002   3.234
 1680SOL    HW1 1181   2.724   1.001   3.142
 1680SOL    HW2 1182   2.694   1.094   3.274
 1681SOL     OW 1183   2.778   0.910   2.153
 1681SOL    HW1 1184   2.841   0.948   2.085
 1681SOL    HW2 1185   2.818   0.827   2.192
 1682SOL     OW 1186   3.366   1.607   1.906
 1682SOL    HW1 1187   3.274   1.644   1.913
 1682SOL    HW2 1188   3.404   1.627   1.816
 1683SOL     OW 1189   2.234   1.288   3.352
 1683SOL    HW1 1190   2.221   1.381   3.318
 1683SOL    HW2 1191   2.150   1.236   3.339
 1684SOL     OW 1192   3.476   1.292   3.151
 1684SOL    HW1 1193   3.536   1.295   3.231
 1684SOL    HW2 1194   3.401   1.356   3.164
 1685SOL     OW 1195   2.901   1.098   2.558
 1685SOL    HW1 1196   2.831   1.051   2.612
 1685SOL    HW2 1197   2.960   1.030   2.515
 1687SOL     OW 1198   2.452   1.487   2.353
 1687SOL    HW1 1199   2.494   1.429   2.283
 1687SOL    HW2 1200   2.408   1.566   2.309
 1689SOL     OW 1201   2.117   1.348   2.152
 1689SOL    HW1 1202   2.021   1.349   2.125
 1689SOL    HW2 1203   2.129   1.401   2.236
 1695SOL     OW 1204   3.045   1.335   1.981
 1695SOL    HW1 1205   2.946   1.324   1.983
 1695SOL    HW2 1206   3.079   1.350   2.074
 1696SOL     OW 1207   2.475   0.842   3.293
 1696SOL    HW1 1208   2.531   0.923   3.276
 1696SOL    HW2 1209   2.534   0.762   3.296
 1697SOL     OW 1210   3.355   1.767   2.821
 1697SOL    HW1 1211   3.388   1.831   2.752
 1697SOL    HW2 1212   3.421   1.761   2.896
 1700SOL     OW 1213   2.252   1.741   3.422
 1700SOL    HW1 1214   2.161   1.782   3.420
 1700SOL    HW2 1215   2.245   1.647   3.454
 1703SOL     OW 1216   2.456   0.745   2.514
 1703SOL    HW1 1217   2.506   0.830   2.495
 1703SOL    HW2 1218   2.368   0.747   2.466
 1706SOL     OW 1219   2.721   1.374   1.878
 1706SOL    HW1 1220   2.675   1.389   1.966
 1706SOL    HW2 1221   2.765   1.459   1.848
 1707SOL     OW 1222   2.523   1.790   2.815
 1707SOL    HW1 1223   2.477   1.878   2.802
 1707SOL    HW2 1224   2.622   1.802   2.808
 1708SOL     OW 1225   2.721   0.956   2.723
 1708SOL    HW1 1226   2.775   0.887   2.771
 1708SOL    HW2 1227   2.689   1.025   2.789
 1709SOL     OW 1228   2.945   0.984   1.949
 1709SOL    HW1 1229   2.922   1.037   1.867
 1709SOL    HW2 1230   3.026   0.928   1.930
 1710SOL     OW 1231   3.723   1.569   2.713
 1710SOL    HW1 1232   3.652   1.557   2.643
 1710SOL    HW2 1233   3.724   1.490   2.773
 1711SOL     OW 1234   2.083   1.314   3.706
 1711SOL    HW1 1235   2.018   1.241   3.685
 1711SOL    HW2 1236   2.087   1.328   3.804
 1712SOL     OW 1237   1.941   1.240   2.515
 1712SOL    HW1 1238   1.940   1.193   2.603
 1712SOL    HW2 1239   2.023   1.212   2.464
 1713SOL     OW 1240   2.534   1.391   3.486
 1713SOL    HW1 1241   2.456   1.341   3.524
 1713SOL    HW2 1242   2.531   1.486   3.517
 1716SOL     OW 1243   3.567   1.487   2.966
 1716SOL    HW1 1244   3.474   1.462   2.939
 1716SOL    HW2 1245   3.593   1.437   3.048
 1718SOL     OW 1246   2.674   1.586   2.549
 1718SOL    HW1 1247   2.706   1.596   2.455
 1718SOL    HW2 1248   2.595   1.524   2.551
 1721SOL     OW 1249   2.632   1.330   2.163
 1721SOL    HW1 1250   2.586   1.243   2.180
 1721SOL    HW2 1251   2.723   1.327   2.204
 1722SOL     OW 1252   2.480   1.567   3.146
 1722SOL    HW1 1253   2.475   1.649   3.203
 1722SOL    HW2 1254   2.569   1.564   3.101
 1726SOL     OW 1255   1.901   1.077   2.162
 1726SOL    HW1 1256   2.000   1.066   2.153
 1726SOL    HW2 1257   1.861   0.991   2.194
 1727SOL     OW 1258   2.737   1.646   2.199
 1727SOL    HW1 1259   2.660   1.611   2.145
 1727SOL    HW2 1260   2.705   1.717   2.261
 1743SOL     OW 1261   1.889   1.596   3.841
 1743SOL    HW1 1262   1.870   1.500   3.862
 1743SOL    HW2 1263   1.856   1.654   3.916
 1802SOL     OW 1264   2.534   1.616   3.878
 1802SOL    HW1 1265   2.543   1.626   3.779
 1802SOL    HW2 1266   2.494   1.527   3.899
 1805SOL     OW 1267   3.056   1.612   3.755
 1805SOL    HW1 1268   3.062   1.519   3.792
 1805SOL    HW2 1269   2.997   1.612   3.675
 1816SOL     OW 1270   2.721   1.374   3.740
 1816SOL    HW1 1271   2.675   1.389   3.828
 1816SOL    HW2 1272   2.765   1.459   3.710
 1830SOL     OW 1273   2.087   2.137   0.996
 1830SOL    HW1 1274   2.122   2.120   1.088
 1830SOL    HW2 1275   1.999   2.092   0.984
 1831SOL     OW 1276   1.881   2.230   0.647
 1831SOL    HW1 1277   1.799   2.273   0.686
 1831SOL    HW2 1278   1.853   2.157   0.584
 1832SOL     OW 1279   2.431   3.137   1.165
 1832SOL    HW1 1280   2.338   3.130   1.128
 1832SOL    HW2 1281   2.442   3.226   1.209
 1834SOL     OW 1282   2.997   2.565   0.717
 1834SOL    HW1 1283   3.054   2.643   0.692
 1834SOL    HW2 1284   2.937   2.591   0.793
 1836SOL     OW 1285   2.630   3.006   1.023
 1836SOL    HW1 1286   2.552   3.023   1.083
 1836SOL    HW2 1287   2.664   3.093   0.987
 1837SOL     OW 1288   2.712   2.660   1.823
 1837SOL    HW1 1289   2.708   2.736   1.888
 1837SOL    HW2 1290   2.734   2.696   1.732
 1838SOL     OW 1291   2.547   2.874   0.665
 1838SOL    HW1 1292   2.616   2.858   0.735
 1838SOL    HW2 1293   2.474   2.931   0.703
 1839SOL     OW 1294   2.548   3.023   1.803
 1839SOL    HW1 1295   2.608   3.102   1.817
 1839SOL    HW2 1296   2.462   3.054   1.762
 1840SOL     OW 1297   2.197   3.297   1.061
 1840SOL    HW1 1298   2.119   3.266   1.008
 1840SOL    HW2 1299   2.255   3.355   1.004
 1841SOL     OW 1300   3.322   3.367   1.339
 1841SOL    HW1 1301   3.346   3.461   1.365
 1841SOL    HW2 1302   3.306   3.313   1.421
 1842SOL     OW 1303   2.300   2.254   1.499
 1842SOL    HW1 1304   2.382   2.198   1.508
 1842SOL    HW2 1305   2.219   2.196   1.503
 1845SOL     OW 1306   2.989   3.203   1.690
 1845SOL    HW1 1307   3.036   3.203   1.778
 1845SOL    HW2 1308   2.941   3.116   1.679
 1847SOL     OW 1309   2.102   2.953   0.886
 1847SOL    HW1 1310   2.116   2.869   0.938
 1847SOL    HW2 1311   2.047   3.017   0.941
 1848SOL     OW 1312   2.482   3.648   1.439
 1848SOL    HW1 1313   2.390   3.631   1.474
 1848SOL    HW2 1314   2.510   3.740   1.465
 1850SOL     OW 1315   3.456   1.976   1.480
 1850SOL    HW1 1316   3.438   2.043   1.408
 1850SOL    HW2 1317   3.453   2.022   1.569
 1851SOL     OW 1318   1.984   2.505   0.563
 1851SOL    HW1 1319   1.939   2.417   0.580
 1851SOL    HW2 1320   1.983   2.559   0.647
 1855SOL     OW 1321   1.975   2.599   1.597
 1855SOL    HW1 1322   2.063   2.586   1.642
 1855SOL    HW2 1323   1.962   2.696   1.575
 1857SOL     OW 1324   3.155   3.090   1.423
 1857SOL    HW1 1325   3.192   3.017   1.365
 1857SOL    HW2 1326   3.207   3.095   1.508
 1859SOL     OW 1327   2.059   2.838   1.264
 1859SOL    HW1 1328   2.148   2.793   1.250
 1859SOL    HW2 1329   1.986   2.773   1.245
 1861SOL     OW 1330   3.049   3.654   1.616
 1861SOL    HW1 1331   3.073   3.714   1.540
 1861SOL    HW2 1332   3.056   3.559   1.586
 1862SOL     OW 1333   2.179   2.113   1.801
 1862SOL    HW1 1334   2.250   2.184   1.807
 1862SOL    HW2 1335   2.091   2.152   1.829
 1866SOL     OW 1336   3.143   2.207   0.944
 1866SOL    HW1 1337   3.057   2.157   0.931
 1866SOL    HW2 1338   3.205   2.153   1.000
 1868SOL     OW 1339   2.669   2.467   1.465
 1868SOL    HW1 1340   2.622   2.464   1.554
 1868SOL    HW2 1341   2.618   2.412   1.399
 1869SOL     OW 1342   3.256   2.331   1.674
 1869SOL    HW1 1343   3.236   2.374   1.762
 1869SOL    HW2 1344   3.334   2.269   1.683
 1870SOL     OW 1345   2.835   2.752   1.572
 1870SOL    HW1 1346   2.881   2.668   1.543
 1870SOL    HW2 1347   2.779   2.786   1.497
 1871SOL     OW 1348   2.853   2.272   1.242
 1871SOL    HW1 1349   2.776   2.306   1.296
 1871SOL    HW2 1350   2.819   2.221   1.163
 1873SOL     OW 1351   1.938   2.673   0.789
 1873SOL    HW1 1352   2.037   2.661   0.798
 1873SOL    HW2 1353   1.914   2.768   0.810
 1874SOL     OW 1354   1.992   3.683   1.571
 1874SOL    HW1 1355   1.982   3.668   1.670
 1874SOL    HW2 1356   1.906   3.719   1.535
 1876SOL     OW 1357   3.581   2.447   1.831
 1876SOL    HW1 1358   3.555   2.536   1.795
 1876SOL    HW2 1359   3.579   2.379   1.758
 1878SOL     OW 1360   2.412   2.058   0.885
 1878SOL    HW1 1361   2.407   2.053   0.985
 1878SOL    HW2 1362   2.414   2.154   0.856
 1882SOL     OW 1363   3.089   3.412   1.506
 1882SOL    HW1 1364   3.095   3.335   1.570
 1882SOL    HW2 1365   3.037   3.386   1.426
 1885SOL     OW 1366   2.323   3.128   1.727
 1885SOL    HW1 1367   2.273   3.129   1.641
 1885SOL    HW2 1368   2.260   3.110   1.803
 1887SOL     OW 1369   2.064   2.147   1.498
 1887SOL    HW1 1370   1.984   2.207   1.485
 1887SOL    HW2 1371   2.054   2.098   1.584
 1891SOL     OW 1372   2.111   3.647   1.241
 1891SOL    HW1 1373   2.168   3.582   1.291
 1891SOL    HW2 1374   2.095   3.614   1.148
 1894SOL     OW 1375   3.409   2.084   1.729
 1894SOL    HW1 1376   3.404   2.121   1.821
 1894SOL    HW2 1377   3.337   2.015   1.717
 1895SOL     OW 1378   2.643   2.126   1.749
 1895SOL    HW1 1379   2.710   2.065   1.792
 1895SOL    HW2 1380   2.570   2.145   1.814
 1896SOL     OW 1381   2.750   3.376   1.195
 1896SOL    HW1 1382   2.727   3.351   1.101
 1896SOL    HW2 1383   2.811   3.307   1.234
 1897SOL     OW 1384   3.213   2.452   1.433
 1897SOL    HW1 1385   3.241   2.409   1.518
 1897SOL    HW2 1386   3.238   2.548   1.434
 1898SOL     OW 1387   2.665   3.264   0.924
 1898SOL    HW1 1388   2.755   3.278   0.882
 1898SOL    HW2 1389   2.594   3.266   0.853
 1899SOL     OW 1390   2.784   2.365   0.899
 1899SOL    HW1 1391   2.759   2.356   0.803
 1899SOL    HW2 1392   2.832   2.283   0.930
 1904SOL     OW 1393   2.938   2.545   1.464
 1904SOL    HW1 1394   2.858   2.484   1.467
 1904SOL    HW2 1395   3.019   2.492   1.440
 1906SOL     OW 1396   2.321   3.014   0.741
 1906SOL    HW1 1397   2.250   2.987   0.806
 1906SOL    HW2 1398   2.295   2.986   0.648
 1909SOL     OW 1399   1.940   2.418   1.386
 1909SOL    HW1 1400   2.032   2.417   1.345
 1909SOL    HW2 1401   1.934   2.492   1.453
 1910SOL     OW 1402   2.423   2.084   1.147
 1910SOL    HW1 1403   2.461   2.000   1.184
 1910SOL    HW2 1404   2.335   2.103   1.191
 1911SOL     OW 1405   2.728   2.316   0.642
 1911SOL    HW1 1406   2.696   2.388   0.580
 1911SOL    HW2 1407   2.752   2.235   0.589
 1912SOL     OW 1408   2.879   1.901   0.753
 1912SOL    HW1 1409   2.807   1.906   0.684
 1912SOL    HW2 1410   2.855   1.832   0.822
 1914SOL     OW 1411   3.328   2.452   0.992
 1914SOL    HW1 1412   3.298   2.357   0.999
 1914SOL    HW2 1413   3.401   2.468   1.058
 1920SOL     OW 1414   3.616   3.085   1.588
 1920SOL    HW1 1415   3.707   3.046   1.575
 1920SOL    HW2 1416   3.624   3.181   1.612
 1921SOL     OW 1417   2.926   3.209   1.340
 1921SOL    HW1 1418   2.846   3.186   1.395
 1921SOL    HW2 1419   3.009   3.183   1.389
 1922SOL     OW 1420   3.454   3.491   1.625
 1922SOL    HW1 1421   3.481   3.525   1.535
 1922SOL    HW2 1422   3.533   3.453   1.671
 1923SOL     OW 1423   2.973   3.057   1.100
 1923SOL    HW1 1424   2.933   3.101   1.181
 1923SOL    HW2 1425   2.932   3.094   1.017
 1925SOL     OW 1426   2.777   1.951   1.402
 1925SOL    HW1 1427   2.802   1.931   1.307
 1925SOL    HW2 1428   2.849   2.007   1.444
 1926SOL     OW 1429   2.842   2.978   1.719
 1926SOL    HW1 1430   2.743   2.984   1.729
 1926SOL    HW2 1431   2.865   2.898   1.663
 1928SOL     OW 1432   2.272   2.675   1.251
 1928SOL    HW1 1433   2.358   2.687   1.301
 1928SOL    HW2 1434   2.230   2.588   1.278
 1929SOL     OW 1435   3.136   2.248   1.262
 1929SOL    HW1 1436   3.157   2.322   1.326
 1929SOL    HW2 1437   3.047   2.265   1.219
 1930SOL     OW 1438   1.926   3.426   1.331
 1930SOL    HW1 1439   1.880   3.508   1.297
 1930SOL    HW2 1440   2.024   3.445   1.340
 1932SOL     OW 1441   2.428   2.399   0.865
 1932SOL    HW1 1442   2.440   2.465   0.791
 1932SOL    HW2 1443   2.474   2.433   0.948
 1934SOL     OW 1444   3.134   3.307   1.142
 1934SOL    HW1 1445   3.181   3.320   1.229
 1934SOL    HW2 1446   3.068   3.233   1.151
 1936SOL     OW 1447   2.216   3.372   1.329
 1936SOL    HW1 1448   2.195   3.328   1.242
 1936SOL    HW2 1449   2.313   3.398   1.332
 1937SOL     OW 1450   2.264   2.613   1.598
 1937SOL    HW1 1451   2.332   2.668   1.551
 1937SOL    HW2 1452   2.304   2.525   1.625
 1938SOL     OW 1453   3.449   2.641   1.670
 1938SOL    HW1 1454   3.357   2.679   1.665
 1938SOL    HW2 1455   3.509   2.688   1.605
 1939SOL     OW 1456   2.875   1.967   1.770
 1939SOL    HW1 1457   2.881   2.052   1.718
 1939SOL    HW2 1458   2.907   1.891   1.713
 1940SOL     OW 1459   2.366   1.912   1.740
 1940SOL    HW1 1460   2.324   1.855   1.670
 1940SOL    HW2 1461   2.300   1.981   1.772
 1941SOL     OW 1462   2.435   2.732   1.029
 1941SOL    HW1 1463   2.479   2.821   1.020
 1941SOL    HW2 1464   2.372   2.732   1.106
 1942SOL     OW 1465   3.222   2.724   1.045
 1942SOL    HW1 1466   3.147   2.724   0.979
 1942SOL    HW2 1467   3.259   2.632   1.054
 1944SOL     OW 1468   2.169   2.075   1.231
 1944SOL    HW1 1469   2.146   2.112   1.321
 1944SOL    HW2 1470   2.139   1.980   1.225
 1945SOL     OW 1471   1.899   3.172   1.282
 1945SOL    HW1 1472   1.952   3.123   1.350
 1945SOL    HW2 1473   1.921   3.270   1.287
 1946SOL     OW 1474   2.594   2.496   1.064
 1946SOL    HW1 1475   2.653   2.470   0.988
 1946SOL    HW2 1476   2.566   2.592   1.053
 1947SOL     OW 1477   3.590   2.797   1.854
 1947SOL    HW1 1478   3.544   2.790   1.765
 1947SOL    HW2 1479   3.528   2.841   1.920
 1948SOL     OW 1480   2.169   1.925   0.618
 1948SOL    HW1 1481   2.158   2.019   0.651
 1948SOL    HW2 1482   2.164   1.862   0.695
 1950SOL     OW 1483   2.885   2.628   0.966
 1950SOL    HW1 1484   2.900   2.649   1.062
 1950SOL    HW2 1485   2.855   2.533   0.957
 1951SOL     OW 1486   2.842   3.435   1.700
 1951SOL    HW1 1487   2.822   3.479   1.612
 1951SOL    HW2 1488   2.881   3.344   1.684
 1953SOL     OW 1489   2.212   2.760   1.804
 1953SOL    HW1 1490   2.288   2.804   1.852
 1953SOL    HW2 1491   2.247   2.713   1.722
 1957SOL     OW 1492   2.181   2.672   0.949
 1957SOL    HW1 1493   2.274   2.708   0.954
 1957SOL    HW2 1494   2.175   2.587   1.001
 1958SOL     OW 1495   2.201   2.371   1.006
 1958SOL    HW1 1496   2.149   2.288   0.989
 1958SOL    HW2 1497   2.278   2.376   0.942
 1959SOL     OW 1498   3.000   2.242   1.678
 1959SOL    HW1 1499   2.955   2.305   1.742
 1959SOL    HW2 1500   3.093   2.273   1.661
 1960SOL     OW 1501   3.022   2.069   1.477
 1960SOL    HW1 1502   3.022   2.133   1.554
 1960SOL    HW2 1503   3.050   2.117   1.394
 1963SOL     OW 1504   2.366   3.430   0.910
 1963SOL    HW1 1505   2.432   3.504   0.919
 1963SOL    HW2 1506   2.410   3.351   0.868
 1964SOL     OW 1507   2.864   2.658   1.238
 1964SOL    HW1 1508   2.905   2.626   1.324
 1964SOL    HW2 1509   2.768   2.631   1.235
 1965SOL     OW 1510   1.902   2.406   1.114
 1965SOL    HW1 1511   1.987   2.373   1.073
 1965SOL    HW2 1512   1.915   2.421   1.212
 1966SOL     OW 1513   2.051   2.382   1.722
 1966SOL    HW1 1514   2.110   2.342   1.652
 1966SOL    HW2 1515   1.993   2.453   1.681
 1967SOL     OW 1516   3.231   2.812   1.660
 1967SOL    HW1 1517   3.270   2.901   1.680
 1967SOL    HW2 1518   3.241   2.792   1.563
 1969SOL     OW 1519   3.519   2.466   1.206
 1969SOL    HW1 1520   3.481   2.397   1.268
 1969SOL    HW2 1521   3.601   2.430   1.162
 1970SOL     OW 1522   2.114   3.426   1.744
 1970SOL    HW1 1523   2.084   3.483   1.820
 1970SOL    HW2 1524   2.107   3.329   1.770
 1971SOL     OW 1525   2.533   2.326   1.269
 1971SOL    HW1 1526   2.499   2.237   1.239
 1971SOL    HW2 1527   2.559   2.380   1.189
 1972SOL     OW 1528   2.792   3.540   1.465
 1972SOL    HW1 1529   2.768   3.522   1.370
 1972SOL    HW2 1530   2.822   3.634   1.475
 1974SOL     OW 1531   2.021   2.999   1.466
 1974SOL    HW1 1532   2.043   2.938   1.542
 1974SOL    HW2 1533   2.031   2.950   1.380
 1975SOL     OW 1534   3.209   2.921   1.234
 1975SOL    HW1 1535   3.233   2.858   1.160
 1975SOL    HW2 1536   3.119   2.961   1.216
 1979SOL     OW 1537   1.945   3.120   1.022
 1979SOL    HW1 1538   1.940   3.119   1.122
 1979SOL    HW2 1539   1.862   3.079   0.984
 1980SOL     OW 1540   2.550   3.524   1.716
 1980SOL    HW1 1541   2.494   3.605   1.725
 1980SOL    HW2 1542   2.602   3.528   1.630
 1984SOL     OW 1543   1.992   3.656   1.851
 1984SOL    HW1 1544   1.951   3.582   1.904
 1984SOL    HW2 1545   2.056   3.707   1.909
 1986SOL     OW 1546   2.692   3.135   1.422
 1986SOL    HW1 1547   2.687   3.168   1.517
 1986SOL    HW2 1548   2.606   3.154   1.376
 1990SOL     OW 1549   2.125   2.188   0.720
 1990SOL    HW1 1550   2.046   2.239   0.686
 1990SOL    HW2 1551   2.116   2.173   0.818
 1992SOL     OW 1552   2.684   2.864   1.372
 1992SOL    HW1 1553   2.724   2.863   1.280
 1992SOL    HW2 1554   2.694   2.956   1.412
 1995SOL     OW 1555   2.234   3.150   1.490
 1995SOL    HW1 1556   2.221   3.243   1.456
 1995SOL    HW2 1557   2.150   3.098   1.477
 1996SOL     OW 1558   3.476   3.154   1.289
 1996SOL    HW1 1559   3.536   3.157   1.369
 1996SOL    HW2 1560   3.401   3.218   1.302
 1998SOL     OW 1561   2.876   2.098   0.971
 1998SOL    HW1 1562   2.868   2.062   0.878
 1998SOL    HW2 1563   2.874   2.022   1.036
 2000SOL     OW 1564   3.571   2.247   1.381
 2000SOL    HW1 1565   3.644   2.316   1.385
 2000SOL    HW2 1566   3.599   2.172   1.322
 2002SOL     OW 1567   1.967   2.875   1.726
 2002SOL    HW1 1568   1.890   2.842   1.780
 2002SOL    HW2 1569   2.052   2.845   1.768
 2003SOL     OW 1570   2.534   2.065   1.489
 2003SOL    HW1 1571   2.624   2.049   1.449
 2003SOL    HW2 1572   2.542   2.070   1.588
 2004SOL     OW 1573   3.302   2.718   1.398
 2004SOL    HW1 1574   3.245   2.770   1.335
 2004SOL    HW2 1575   3.398   2.730   1.374
 2007SOL     OW 1576   2.475   2.704   1.431
 2007SOL    HW1 1577   2.531   2.785   1.414
 2007SOL    HW2 1578   2.534   2.624   1.434
 2009SOL     OW 1579   2.578   2.427   1.708
 2009SOL    HW1 1580   2.597   2.492   1.782
 2009SOL    HW2 1581   2.638   2.347   1.717
 2010SOL     OW 1582   3.312   3.082   1.633
 2010SOL    HW1 1583   3.303   3.072   1.732
 2010SOL    HW2 1584   3.408   3.075   1.607
 2011SOL     OW 1585   2.252   3.603   1.560
 2011SOL    HW1 1586   2.161   3.644   1.558
 2011SOL    HW2 1587   2.245   3.509   1.592
 2012SOL     OW 1588   3.536   2.745   1.254
 2012SOL    HW1 1589   3.509   2.656   1.217
 2012SOL    HW2 1590   3.537   2.813   1.181
 2014SOL     OW 1591   2.456   2.607   0.652
 2014SOL    HW1 1592   2.506   2.692   0.633
 2014SOL    HW2 1593   2.368   2.609   0.604
 2015SOL     OW 1594   3.639   2.204   1.642
 2015SOL    HW1 1595   3.622   2.235   1.548
 2015SOL    HW2 1596   3.555   2.167   1.680
 2016SOL     OW 1597   3.592   2.796   1.517
 2016SOL    HW1 1598   3.630   2.887   1.532
 2016SOL    HW2 1599   3.584   2.779   1.418
 2019SOL     OW 1600   2.721   2.818   0.861
 2019SOL    HW1 1601   2.775   2.749   0.909
 2019SOL    HW2 1602   2.689   2.887   0.927
 2022SOL     OW 1603   2.083   3.176   1.844
 2022SOL    HW1 1604   2.018   3.103   1.823
 2022SOL    HW2 1605   2.087   3.190   1.942
 2024SOL     OW 1606   2.534   3.253   1.624
 2024SOL    HW1 1607   2.456   3.203   1.662
 2024SOL    HW2 1608   2.531   3.348   1.655
 2025SOL     OW 1609   3.686   2.054   1.227
 2025SOL    HW1 1610   3.682   1.964   1.271
 2025SOL    HW2 1611   3.689   2.043   1.128
 2026SOL     OW 1612   2.290   2.286   0.520
 2026SOL    HW1 1613   2.320   2.214   0.458
 2026SOL    HW2 1614   2.251   2.246   0.603
 2028SOL     OW 1615   2.179   2.409   1.280
 2028SOL    HW1 1616   2.217   2.350   1.352
 2028SOL    HW2 1617   2.219   2.383   1.192
 2030SOL     OW 1618   3.286   2.076   1.112
 2030SOL    HW1 1619   3.338   2.011   1.167
 2030SOL    HW2 1620   3.237   2.139   1.173
 2031SOL     OW 1621   2.863   1.896   1.154
 2031SOL    HW1 1622   2.800   1.824   1.123
 2031SOL    HW2 1623   2.956   1.860   1.154
 2033SOL     OW 1624   2.480   3.429   1.284
 2033SOL    HW1 1625   2.475   3.511   1.341
 2033SOL    HW2 1626   2.569   3.426   1.239
 2039SOL     OW 1627   2.087   2.137   2.858
 2039SOL    HW1 1628   2.122   2.120   2.950
 2039SOL    HW2 1629   1.999   2.092   2.846
 2040SOL     OW 1630   1.881   2.230   2.509
 2040SOL    HW1 1631   1.799   2.273   2.548
 2040SOL    HW2 1632   1.853   2.157   2.446
 2041SOL     OW 1633   2.431   3.137   3.027
 2041SOL    HW1 1634   2.338   3.130   2.990
 2041SOL    HW2 1635   2.442   3.226   3.071
 2042SOL     OW 1636   3.417   3.373   2.565
 2042SOL    HW1 1637   3.360   3.357   2.646
 2042SOL    HW2 1638   3.358   3.383   2.485
 2043SOL     OW 1639   2.997   2.565   2.579
 2043SOL    HW1 1640   3.054   2.643   2.554
 2043SOL    HW2 1641   2.937   2.591   2.655
 2044SOL     OW 1642   3.617   2.469   2.093
 2044SOL    HW1 1643   3.605   2.456   1.994
 2044SOL    HW2 1644   3.587   2.388   2.142
 2045SOL     OW 1645   2.630   3.006   2.885
 2045SOL    HW1 1646   2.552   3.023   2.945
 2045SOL    HW2 1647   2.664   3.093   2.849
 2046SOL     OW 1648   2.712   2.660   3.685
 2046SOL    HW1 1649   2.708   2.736   3.750
 2046SOL    HW2 1650   2.734   2.696   3.594
 2047SOL     OW 1651   2.547   2.874   2.527
 2047SOL    HW1 1652   2.616   2.858   2.597
 2047SOL    HW2 1653   2.474   2.931   2.565
 2048SOL     OW 1654   2.548   3.023   3.665
 2048SOL    HW1 1655   2.608   3.102   3.679
 2048SOL    HW2 1656   2.462   3.054   3.624
 2049SOL     OW 1657   2.197   3.297   2.923
 2049SOL    HW1 1658   2.119   3.266   2.870
 2049SOL    HW2 1659   2.255   3.355   2.866
 2050SOL     OW 1660   3.322   3.367   3.201
 2050SOL    HW1 1661   3.346   3.461   3.227
 2050SOL    HW2 1662   3.306   3.313   3.283
 2051SOL     OW 1663   2.300   2.254   3.361
 2051SOL    HW1 1664   2.382   2.198   3.370
 2051SOL    HW2 1665   2.219   2.196   3.365
 2052SOL     OW 1666   3.465   2.309   2.599
 2052SOL    HW1 1667   3.391   2.355   2.549
 2052SOL    HW2 1668   3.516   2.377   2.652
 2053SOL     OW 1669   2.093   3.575   2.345
 2053SOL    HW1 1670   2.127   3.652   2.399
 2053SOL    HW2 1671   2.137   3.575   2.255
 2054SOL     OW 1672   2.989   3.203   3.552
 2054SOL    HW1 1673   3.036   3.203   3.640
 2054SOL    HW2 1674   2.941   3.116   3.541
 2055SOL     OW 1675   2.092   3.296   2.400
 2055SOL    HW1 1676   2.066   3.392   2.400
 2055SOL    HW2 1677   2.021   3.242   2.445
 2056SOL     OW 1678   2.102   2.953   2.748
 2056SOL    HW1 1679   2.116   2.869   2.800
 2056SOL    HW2 1680   2.047   3.017   2.803
 2057SOL     OW 1681   2.482   3.648   3.301
 2057SOL    HW1 1682   2.390   3.631   3.336
 2057SOL    HW2 1683   2.510   3.740   3.327
 2058SOL     OW 1684   2.468   2.826   1.985
 2058SOL    HW1 1685   2.475   2.910   1.931
 2058SOL    HW2 1686   2.514   2.839   2.073
 2059SOL     OW 1687   3.456   1.976   3.342
 2059SOL    HW1 1688   3.438   2.043   3.270
 2059SOL    HW2 1689   3.453   2.022   3.431
 2061SOL     OW 1690   1.889   3.458   1.979
 2061SOL    HW1 1691   1.870   3.362   2.000
 2061SOL    HW2 1692   1.856   3.516   2.054
 2062SOL     OW 1693   3.551   2.784   2.474
 2062SOL    HW1 1694   3.646   2.755   2.482
 2062SOL    HW2 1695   3.543   2.849   2.399
 2063SOL     OW 1696   3.503   2.970   2.294
 2063SOL    HW1 1697   3.589   2.972   2.242
 2063SOL    HW2 1698   3.517   3.017   2.382
 2064SOL     OW 1699   1.975   2.599   3.459
 2064SOL    HW1 1700   2.063   2.586   3.504
 2064SOL    HW2 1701   1.962   2.696   3.437
 2065SOL     OW 1702   2.475   3.227   2.588
 2065SOL    HW1 1703   2.426   3.140   2.597
 2065SOL    HW2 1704   2.452   3.270   2.501
 2066SOL     OW 1705   3.155   3.090   3.285
 2066SOL    HW1 1706   3.192   3.017   3.227
 2066SOL    HW2 1707   3.207   3.095   3.370
 2067SOL     OW 1708   2.671   1.866   2.364
 2067SOL    HW1 1709   2.711   1.957   2.355
 2067SOL    HW2 1710   2.571   1.874   2.370
 2068SOL     OW 1711   2.059   2.838   3.126
 2068SOL    HW1 1712   2.148   2.793   3.112
 2068SOL    HW2 1713   1.986   2.773   3.107
 2069SOL     OW 1714   3.387   2.861   2.052
 2069SOL    HW1 1715   3.324   2.785   2.065
 2069SOL    HW2 1716   3.435   2.879   2.138
 2071SOL     OW 1717   2.179   2.113   3.663
 2071SOL    HW1 1718   2.250   2.184   3.669
 2071SOL    HW2 1719   2.091   2.152   3.691
 2072SOL     OW 1720   3.328   3.279   2.815
 2072SOL    HW1 1721   3.269   3.285   2.895
 2072SOL    HW2 1722   3.313   3.191   2.769
 2073SOL     OW 1723   3.529   3.576   2.434
 2073SOL    HW1 1724   3.488   3.553   2.346
 2073SOL    HW2 1725   3.511   3.502   2.499
 2074SOL     OW 1726   2.460   2.591   2.132
 2074SOL    HW1 1727   2.484   2.660   2.064
 2074SOL    HW2 1728   2.382   2.624   2.186
 2075SOL     OW 1729   3.143   2.207   2.806
 2075SOL    HW1 1730   3.057   2.157   2.793
 2075SOL    HW2 1731   3.205   2.153   2.862
 2076SOL     OW 1732   3.438   3.524   2.169
 2076SOL    HW1 1733   3.527   3.570   2.172
 2076SOL    HW2 1734   3.417   3.500   2.074
 2077SOL     OW 1735   2.669   2.467   3.327
 2077SOL    HW1 1736   2.622   2.464   3.416
 2077SOL    HW2 1737   2.618   2.412   3.261
 2078SOL     OW 1738   3.256   2.331   3.536
 2078SOL    HW1 1739   3.236   2.374   3.624
 2078SOL    HW2 1740   3.334   2.269   3.545
 2079SOL     OW 1741   2.835   2.752   3.434
 2079SOL    HW1 1742   2.881   2.668   3.405
 2079SOL    HW2 1743   2.779   2.786   3.359
 2080SOL     OW 1744   2.853   2.272   3.104
 2080SOL    HW1 1745   2.776   2.306   3.158
 2080SOL    HW2 1746   2.819   2.221   3.025
 2081SOL     OW 1747   2.903   2.563   2.291
 2081SOL    HW1 1748   2.929   2.559   2.387
 2081SOL    HW2 1749   2.818   2.512   2.277
 2082SOL     OW 1750   1.938   2.673   2.651
 2082SOL    HW1 1751   2.037   2.661   2.660
 2082SOL    HW2 1752   1.914   2.768   2.672
 2083SOL     OW 1753   1.992   3.683   3.433
 2083SOL    HW1 1754   1.982   3.668   3.532
 2083SOL    HW2 1755   1.906   3.719   3.397
 2084SOL     OW 1756   2.727   2.210   2.057
 2084SOL    HW1 1757   2.786   2.273   2.008
 2084SOL    HW2 1758   2.746   2.116   2.028
 2086SOL     OW 1759   3.224   3.006   2.407
 2086SOL    HW1 1760   3.307   2.977   2.359
 2086SOL    HW2 1761   3.175   3.073   2.351
 2087SOL     OW 1762   2.412   2.058   2.747
 2087SOL    HW1 1763   2.407   2.053   2.847
 2087SOL    HW2 1764   2.414   2.154   2.718
 2088SOL     OW 1765   2.870   3.318   2.339
 2088SOL    HW1 1766   2.824   3.390   2.287
 2088SOL    HW2 1767   2.866   3.338   2.437
 2089SOL     OW 1768   2.213   3.663   2.715
 2089SOL    HW1 1769   2.263   3.577   2.721
 2089SOL    HW2 1770   2.278   3.740   2.712
 2090SOL     OW 1771   3.657   2.928   2.735
 2090SOL    HW1 1772   3.595   2.913   2.659
 2090SOL    HW2 1773   3.605   2.939   2.820
 2091SOL     OW 1774   3.089   3.412   3.368
 2091SOL    HW1 1775   3.095   3.335   3.432
 2091SOL    HW2 1776   3.037   3.386   3.288
 2092SOL     OW 1777   2.183   2.805   2.104
 2092SOL    HW1 1778   2.265   2.844   2.062
 2092SOL    HW2 1779   2.156   2.723   2.055
 2093SOL     OW 1780   3.320   2.597   2.590
 2093SOL    HW1 1781   3.315   2.532   2.665
 2093SOL    HW2 1782   3.400   2.656   2.603
 2094SOL     OW 1783   2.323   3.128   3.589
 2094SOL    HW1 1784   2.273   3.129   3.503
 2094SOL    HW2 1785   2.260   3.110   3.665
 2095SOL     OW 1786   2.973   3.638   2.099
 2095SOL    HW1 1787   2.913   3.576   2.149
 2095SOL    HW2 1788   3.004   3.594   2.014
 2096SOL     OW 1789   2.064   2.147   3.360
 2096SOL    HW1 1790   1.984   2.207   3.347
 2096SOL    HW2 1791   2.054   2.098   3.446
 2097SOL     OW 1792   3.494   3.239   1.943
 2097SOL    HW1 1793   3.462   3.333   1.933
 2097SOL    HW2 1794   3.418   3.176   1.931
 2098SOL     OW 1795   2.326   3.605   2.185
 2098SOL    HW1 1796   2.359   3.644   2.271
 2098SOL    HW2 1797   2.402   3.598   2.120
 2099SOL     OW 1798   3.262   1.969   2.288
 2099SOL    HW1 1799   3.238   1.932   2.198
 2099SOL    HW2 1800   3.361   1.985   2.292
 2100SOL     OW 1801   2.111   3.647   3.103
 2100SOL    HW1 1802   2.168   3.582   3.153
 2100SOL    HW2 1803   2.095   3.614   3.010
 2101SOL     OW 1804   2.802   3.560   2.766
 2101SOL    HW1 1805   2.882   3.503   2.787
 2101SOL    HW2 1806   2.753   3.520   2.689
 2102SOL     OW 1807   3.409   2.084   3.591
 2102SOL    HW1 1808   3.404   2.121   3.683
 2102SOL    HW2 1809   3.337   2.015   3.579
 2103SOL     OW 1810   2.476   1.984   1.979
 2103SOL    HW1 1811   2.574   1.962   1.986
 2103SOL    HW2 1812   2.445   1.967   1.886
 2104SOL     OW 1813   2.643   2.126   3.611
 2104SOL    HW1 1814   2.710   2.065   3.654
 2104SOL    HW2 1815   2.570   2.145   3.676
 2105SOL     OW 1816   2.750   3.376   3.057
 2105SOL    HW1 1817   2.727   3.351   2.963
 2105SOL    HW2 1818   2.811   3.307   3.096
 2106SOL     OW 1819   3.213   2.452   3.295
 2106SOL    HW1 1820   3.241   2.409   3.380
 2106SOL    HW2 1821   3.238   2.548   3.296
 2107SOL     OW 1822   2.665   3.264   2.786
 2107SOL    HW1 1823   2.755   3.278   2.744
 2107SOL    HW2 1824   2.594   3.266   2.715
 2108SOL     OW 1825   2.784   2.365   2.761
 2108SOL    HW1 1826   2.759   2.356   2.665
 2108SOL    HW2 1827   2.832   2.283   2.792
 2109SOL     OW 1828   2.401   1.926   2.374
 2109SOL    HW1 1829   2.320   1.927   2.432
 2109SOL    HW2 1830   2.404   2.009   2.319
 2110SOL     OW 1831   3.296   3.050   1.903
 2110SOL    HW1 1832   3.328   2.974   1.960
 2110SOL    HW2 1833   3.204   3.077   1.933
 2111SOL     OW 1834   2.159   1.897   2.033
 2111SOL    HW1 1835   2.208   1.981   2.012
 2111SOL    HW2 1836   2.221   1.832   2.078
 2112SOL     OW 1837   2.797   2.098   2.342
 2112SOL    HW1 1838   2.749   2.139   2.264
 2112SOL    HW2 1839   2.896   2.096   2.323
 2113SOL     OW 1840   2.938   2.545   3.326
 2113SOL    HW1 1841   2.858   2.484   3.329
 2113SOL    HW2 1842   3.019   2.492   3.302
 2114SOL     OW 1843   3.089   3.432   2.655
 2114SOL    HW1 1844   3.110   3.506   2.590
 2114SOL    HW2 1845   3.157   3.432   2.728
 2115SOL     OW 1846   2.321   3.014   2.603
 2115SOL    HW1 1847   2.250   2.987   2.668
 2115SOL    HW2 1848   2.295   2.986   2.510
 2116SOL     OW 1849   3.133   3.659   2.453
 2116SOL    HW1 1850   3.177   3.723   2.389
 2116SOL    HW2 1851   3.083   3.711   2.523
 2117SOL     OW 1852   2.894   2.411   1.878
 2117SOL    HW1 1853   2.853   2.493   1.839
 2117SOL    HW2 1854   2.958   2.437   1.951
 2118SOL     OW 1855   1.940   2.418   3.248
 2118SOL    HW1 1856   2.032   2.417   3.207
 2118SOL    HW2 1857   1.934   2.492   3.315
 2119SOL     OW 1858   2.423   2.084   3.009
 2119SOL    HW1 1859   2.461   2.000   3.046
 2119SOL    HW2 1860   2.335   2.103   3.053
 2120SOL     OW 1861   2.728   2.316   2.504
 2120SOL    HW1 1862   2.696   2.388   2.442
 2120SOL    HW2 1863   2.752   2.235   2.451
 2121SOL     OW 1864   2.879   1.901   2.615
 2121SOL    HW1 1865   2.807   1.906   2.546
 2121SOL    HW2 1866   2.855   1.832   2.684
 2122SOL     OW 1867   3.291   3.035   2.729
 2122SOL    HW1 1868   3.236   2.951   2.722
 2122SOL    HW2 1869   3.317   3.064   2.637
 2123SOL     OW 1870   3.328   2.452   2.854
 2123SOL    HW1 1871   3.298   2.357   2.861
 2123SOL    HW2 1872   3.401   2.468   2.920
 2124SOL     OW 1873   3.719   2.695   2.239
 2124SOL    HW1 1874   3.761   2.631   2.303
 2124SOL    HW2 1875   3.681   2.644   2.161
 2125SOL     OW 1876   2.350   3.247   2.036
 2125SOL    HW1 1877   2.263   3.232   2.083
 2125SOL    HW2 1878   2.333   3.273   1.941
 2126SOL     OW 1879   3.526   3.142   2.519
 2126SOL    HW1 1880   3.625   3.150   2.533
 2126SOL    HW2 1881   3.481   3.226   2.550
 2127SOL     OW 1882   3.252   2.437   1.940
 2127SOL    HW1 1883   3.198   2.416   2.021
 2127SOL    HW2 1884   3.343   2.396   1.949
 2129SOL     OW 1885   2.926   3.209   3.202
 2129SOL    HW1 1886   2.846   3.186   3.257
 2129SOL    HW2 1887   3.009   3.183   3.251
 2131SOL     OW 1888   2.973   3.057   2.962
 2131SOL    HW1 1889   2.933   3.101   3.043
 2131SOL    HW2 1890   2.932   3.094   2.879
 2132SOL     OW 1891   3.500   2.961   2.941
 2132SOL    HW1 1892   3.505   3.042   3.000
 2132SOL    HW2 1893   3.414   2.963   2.890
 2133SOL     OW 1894   2.777   1.951   3.264
 2133SOL    HW1 1895   2.802   1.931   3.169
 2133SOL    HW2 1896   2.849   2.007   3.306
 2134SOL     OW 1897   2.842   2.978   3.581
 2134SOL    HW1 1898   2.743   2.984   3.591
 2134SOL    HW2 1899   2.865   2.898   3.525
 2135SOL     OW 1900   2.567   2.912   2.230
 2135SOL    HW1 1901   2.553   2.919   2.329
 2135SOL    HW2 1902   2.651   2.861   2.212
 2136SOL     OW 1903   2.272   2.675   3.113
 2136SOL    HW1 1904   2.358   2.687   3.163
 2136SOL    HW2 1905   2.230   2.588   3.140
 2137SOL     OW 1906   3.136   2.248   3.124
 2137SOL    HW1 1907   3.157   2.322   3.188
 2137SOL    HW2 1908   3.047   2.265   3.081
 2138SOL     OW 1909   1.926   3.426   3.193
 2138SOL    HW1 1910   1.880   3.508   3.159
 2138SOL    HW2 1911   2.024   3.445   3.202
 2139SOL     OW 1912   2.229   2.962   2.363
 2139SOL    HW1 1913   2.222   3.045   2.307
 2139SOL    HW2 1914   2.233   2.882   2.303
 2140SOL     OW 1915   3.114   3.210   2.250
 2140SOL    HW1 1916   3.164   3.287   2.290
 2140SOL    HW2 1917   3.019   3.212   2.282
 2141SOL     OW 1918   3.134   3.307   3.004
 2141SOL    HW1 1919   3.181   3.320   3.091
 2141SOL    HW2 1920   3.068   3.233   3.013
 2142SOL     OW 1921   3.444   2.501   2.334
 2142SOL    HW1 1922   3.413   2.562   2.407
 2142SOL    HW2 1923   3.494   2.553   2.265
 2143SOL     OW 1924   2.216   3.372   3.191
 2143SOL    HW1 1925   2.195   3.328   3.104
 2143SOL    HW2 1926   2.313   3.398   3.194
 2144SOL     OW 1927   2.264   2.613   3.460
 2144SOL    HW1 1928   2.332   2.668   3.413
 2144SOL    HW2 1929   2.304   2.525   3.487
 2145SOL     OW 1930   3.449   2.641   3.532
 2145SOL    HW1 1931   3.357   2.679   3.527
 2145SOL    HW2 1932   3.509   2.688   3.467
 2146SOL     OW 1933   2.875   1.967   3.632
 2146SOL    HW1 1934   2.881   2.052   3.580
 2146SOL    HW2 1935   2.907   1.891   3.575
 2147SOL     OW 1936   2.366   1.912   3.602
 2147SOL    HW1 1937   2.324   1.855   3.532
 2147SOL    HW2 1938   2.300   1.981   3.634
 2148SOL     OW 1939   2.435   2.732   2.891
 2148SOL    HW1 1940   2.479   2.821   2.882
 2148SOL    HW2 1941   2.372   2.732   2.968
 2149SOL     OW 1942   3.222   2.724   2.907
 2149SOL    HW1 1943   3.147   2.724   2.841
 2149SOL    HW2 1944   3.259   2.632   2.916
 2150SOL     OW 1945   3.071   2.387   2.137
 2150SOL    HW1 1946   3.084   2.303   2.191
 2150SOL    HW2 1947   3.042   2.461   2.197
 2151SOL     OW 1948   2.169   2.075   3.093
 2151SOL    HW1 1949   2.146   2.112   3.183
 2151SOL    HW2 1950   2.139   1.980   3.087
 2152SOL     OW 1951   1.899   3.172   3.144
 2152SOL    HW1 1952   1.952   3.123   3.212
 2152SOL    HW2 1953   1.921   3.270   3.149
 2153SOL     OW 1954   2.594   2.496   2.926
 2153SOL    HW1 1955   2.653   2.470   2.850
 2153SOL    HW2 1956   2.566   2.592   2.915
 2155SOL     OW 1957   2.169   1.925   2.480
 2155SOL    HW1 1958   2.158   2.019   2.513
 2155SOL    HW2 1959   2.164   1.862   2.557
 2156SOL     OW 1960   3.484   2.229   2.236
 2156SOL    HW1 1961   3.486   2.153   2.300
 2156SOL    HW2 1962   3.436   2.306   2.276
 2157SOL     OW 1963   2.885   2.628   2.828
 2157SOL    HW1 1964   2.900   2.649   2.924
 2157SOL    HW2 1965   2.855   2.533   2.819
 2158SOL     OW 1966   2.842   3.435   3.562
 2158SOL    HW1 1967   2.822   3.479   3.474
 2158SOL    HW2 1968   2.881   3.344   3.546
 2160SOL     OW 1969   2.212   2.760   3.666
 2160SOL    HW1 1970   2.288   2.804   3.714
 2160SOL    HW2 1971   2.247   2.713   3.584
 2161SOL     OW 1972   3.402   2.136   1.987
 2161SOL    HW1 1973   3.341   2.061   2.010
 2161SOL    HW2 1974   3.424   2.188   2.070
 2162SOL     OW 1975   3.165   2.700   1.904
 2162SOL    HW1 1976   3.199   2.607   1.919
 2162SOL    HW2 1977   3.183   2.727   1.809
 2163SOL     OW 1978   2.930   3.195   2.711
 2163SOL    HW1 1979   2.937   3.111   2.656
 2163SOL    HW2 1980   2.992   3.264   2.675
 2164SOL     OW 1981   2.181   2.672   2.811
 2164SOL    HW1 1982   2.274   2.708   2.816
 2164SOL    HW2 1983   2.175   2.587   2.863
 2165SOL     OW 1984   2.201   2.371   2.868
 2165SOL    HW1 1985   2.149   2.288   2.851
 2165SOL    HW2 1986   2.278   2.376   2.804
 2166SOL     OW 1987   3.000   2.242   3.540
 2166SOL    HW1 1988   2.955   2.305   3.604
 2166SOL    HW2 1989   3.093   2.273   3.523
 2167SOL     OW 1990   3.022   2.069   3.339
 2167SOL    HW1 1991   3.022   2.133   3.416
 2167SOL    HW2 1992   3.050   2.117   3.256
 2168SOL     OW 1993   1.870   3.188   2.062
 2168SOL    HW1 1994   1.777   3.209   2.031
 2168SOL    HW2 1995   1.880   3.089   2.075
 2169SOL     OW 1996   1.950   3.663   2.789
 2169SOL    HW1 1997   1.908   3.577   2.762
 2169SOL    HW2 1998   2.044   3.666   2.755
 2170SOL     OW 1999   2.366   3.430   2.772
 2170SOL    HW1 2000   2.432   3.504   2.781
 2170SOL    HW2 2001   2.410   3.351   2.730
 2171SOL     OW 2002   2.864   2.658   3.100
 2171SOL    HW1 2003   2.905   2.626   3.186
 2171SOL    HW2 2004   2.768   2.631   3.097
 2172SOL     OW 2005   1.902   2.406   2.976
 2172SOL    HW1 2006   1.987   2.373   2.935
 2172SOL    HW2 2007   1.915   2.421   3.074
 2173SOL     OW 2008   2.051   2.382   3.584
 2173SOL    HW1 2009   2.110   2.342   3.514
 2173SOL    HW2 2010   1.993   2.453   3.543
 2174SOL     OW 2011   3.231   2.812   3.522
 2174SOL    HW1 2012   3.270   2.901   3.542
 2174SOL    HW2 2013   3.241   2.792   3.425
 2175SOL     OW 2014   2.677   2.434   2.187
 2175SOL    HW1 2015   2.684   2.345   2.141
 2175SOL    HW2 2016   2.583   2.468   2.179
 2176SOL     OW 2017   3.519   2.466   3.068
 2176SOL    HW1 2018   3.481   2.397   3.130
 2176SOL    HW2 2019   3.601   2.430   3.024
 2177SOL     OW 2020   2.114   3.426   3.606
 2177SOL    HW1 2021   2.084   3.483   3.682
 2177SOL    HW2 2022   2.107   3.329   3.632
 2178SOL     OW 2023   2.533   2.326   3.131
 2178SOL    HW1 2024   2.499   2.237   3.101
 2178SOL    HW2 2025   2.559   2.380   3.051
 2179SOL     OW 2026   2.792   3.540   3.327
 2179SOL    HW1 2027   2.768   3.522   3.232
 2179SOL    HW2 2028   2.822   3.634   3.337
 2180SOL     OW 2029   2.021   2.999   3.328
 2180SOL    HW1 2030   2.043   2.938   3.404
 2180SOL    HW2 2031   2.031   2.950   3.242
 2181SOL     OW 2032   3.209   2.921   3.096
 2181SOL    HW1 2033   3.233   2.858   3.022
 2181SOL    HW2 2034   3.119   2.961   3.078
 2182SOL     OW 2035   3.164   2.717   2.171
 2182SOL    HW1 2036   3.078   2.686   2.213
 2182SOL    HW2 2037   3.160   2.703   2.072
 2184SOL     OW 2038   3.114   3.593   2.990
 2184SOL    HW1 2039   3.198   3.598   2.936
 2184SOL    HW2 2040   3.091   3.497   3.008
 2185SOL     OW 2041   1.945   3.120   2.884
 2185SOL    HW1 2042   1.940   3.119   2.984
 2185SOL    HW2 2043   1.862   3.079   2.846
 2186SOL     OW 2044   2.550   3.524   3.578
 2186SOL    HW1 2045   2.494   3.605   3.587
 2186SOL    HW2 2046   2.602   3.528   3.492
 2187SOL     OW 2047   3.588   1.997   2.385
 2187SOL    HW1 2048   3.661   1.980   2.318
 2187SOL    HW2 2049   3.557   1.910   2.423
 2188SOL     OW 2050   3.250   3.435   2.339
 2188SOL    HW1 2051   3.317   3.447   2.265
 2188SOL    HW2 2052   3.210   3.524   2.362
 2190SOL     OW 2053   3.142   2.789   2.534
 2190SOL    HW1 2054   3.202   2.708   2.536
 2190SOL    HW2 2055   3.182   2.858   2.474
 2191SOL     OW 2056   2.692   3.135   3.284
 2191SOL    HW1 2057   2.687   3.168   3.379
 2191SOL    HW2 2058   2.606   3.154   3.238
 2192SOL     OW 2059   2.534   3.478   2.016
 2192SOL    HW1 2060   2.543   3.488   1.917
 2192SOL    HW2 2061   2.494   3.389   2.037
 2194SOL     OW 2062   3.703   2.037   2.825
 2194SOL    HW1 2063   3.742   1.952   2.789
 2194SOL    HW2 2064   3.605   2.039   2.806
 2195SOL     OW 2065   2.125   2.188   2.582
 2195SOL    HW1 2066   2.046   2.239   2.548
 2195SOL    HW2 2067   2.116   2.173   2.680
 2196SOL     OW 2068   3.056   3.474   1.893
 2196SOL    HW1 2069   3.062   3.381   1.930
 2196SOL    HW2 2070   2.997   3.474   1.813
 2197SOL     OW 2071   2.684   2.864   3.234
 2197SOL    HW1 2072   2.724   2.863   3.142
 2197SOL    HW2 2073   2.694   2.956   3.274
 2198SOL     OW 2074   2.778   2.772   2.153
 2198SOL    HW1 2075   2.841   2.810   2.085
 2198SOL    HW2 2076   2.818   2.689   2.192
 2199SOL     OW 2077   3.366   3.469   1.906
 2199SOL    HW1 2078   3.274   3.506   1.913
 2199SOL    HW2 2079   3.404   3.489   1.816
 2200SOL     OW 2080   2.234   3.150   3.352
 2200SOL    HW1 2081   2.221   3.243   3.318
 2200SOL    HW2 2082   2.150   3.098   3.339
 2201SOL     OW 2083   3.476   3.154   3.151
 2201SOL    HW1 2084   3.536   3.157   3.231
 2201SOL    HW2 2085   3.401   3.218   3.164
 2202SOL     OW 2086   2.901   2.960   2.558
 2202SOL    HW1 2087   2.831   2.913   2.612
 2202SOL    HW2 2088   2.960   2.892   2.515
 2203SOL     OW 2089   2.876   2.098   2.833
 2203SOL    HW1 2090   2.868   2.062   2.740
 2203SOL    HW2 2091   2.874   2.022   2.898
 2204SOL     OW 2092   2.452   3.349   2.353
 2204SOL    HW1 2093   2.494   3.291   2.283
 2204SOL    HW2 2094   2.408   3.428   2.309
 2205SOL     OW 2095   3.571   2.247   3.243
 2205SOL    HW1 2096   3.644   2.316   3.247
 2205SOL    HW2 2097   3.599   2.172   3.184
 2206SOL     OW 2098   2.117   3.210   2.152
 2206SOL    HW1 2099   2.021   3.211   2.125
 2206SOL    HW2 2100   2.129   3.263   2.236
 2207SOL     OW 2101   1.967   2.875   3.588
 2207SOL    HW1 2102   1.890   2.842   3.642
 2207SOL    HW2 2103   2.052   2.845   3.630
 2208SOL     OW 2104   2.534   2.065   3.351
 2208SOL    HW1 2105   2.624   2.049   3.311
 2208SOL    HW2 2106   2.542   2.070   3.450
 2209SOL     OW 2107   1.937   2.207   1.895
 2209SOL    HW1 2108   1.845   2.179   1.866
 2209SOL    HW2 2109   1.968   2.284   1.839
 2210SOL     OW 2110   3.302   2.718   3.260
 2210SOL    HW1 2111   3.245   2.770   3.197
 2210SOL    HW2 2112   3.398   2.730   3.236
 2211SOL     OW 2113   1.934   2.028   2.180
 2211SOL    HW1 2114   1.917   2.111   2.126
 2211SOL    HW2 2115   2.024   1.991   2.158
 2212SOL     OW 2116   3.045   3.197   1.981
 2212SOL    HW1 2117   2.946   3.186   1.983
 2212SOL    HW2 2118   3.079   3.212   2.074
 2213SOL     OW 2119   2.475   2.704   3.293
 2213SOL    HW1 2120   2.531   2.785   3.276
 2213SOL    HW2 2121   2.534   2.624   3.296
 2214SOL     OW 2122   3.355   3.629   2.821
 2214SOL    HW1 2123   3.388   3.693   2.752
 2214SOL    HW2 2124   3.421   3.623   2.896
 2215SOL     OW 2125   2.578   2.427   3.570
 2215SOL    HW1 2126   2.597   2.492   3.644
 2215SOL    HW2 2127   2.638   2.347   3.579
 2216SOL     OW 2128   3.312   3.082   3.495
 2216SOL    HW1 2129   3.303   3.072   3.594
 2216SOL    HW2 2130   3.408   3.075   3.469
 2217SOL     OW 2131   2.252   3.603   3.422
 2217SOL    HW1 2132   2.161   3.644   3.420
 2217SOL    HW2 2133   2.245   3.509   3.454
 2218SOL     OW 2134   3.536   2.745   3.116
 2218SOL    HW1 2135   3.509   2.656   3.079
 2218SOL    HW2 2136   3.537   2.813   3.043
 2219SOL     OW 2137   3.087   2.187   2.311
 2219SOL    HW1 2138   3.152   2.113   2.300
 2219SOL    HW2 2139   3.107   2.237   2.395
 2220SOL     OW 2140   2.456   2.607   2.514
 2220SOL    HW1 2141   2.506   2.692   2.495
 2220SOL    HW2 2142   2.368   2.609   2.466
 2221SOL     OW 2143   3.639   2.204   3.504
 2221SOL    HW1 2144   3.622   2.235   3.410
 2221SOL    HW2 2145   3.555   2.167   3.542
 2222SOL     OW 2146   3.592   2.796   3.379
 2222SOL    HW1 2147   3.630   2.887   3.394
 2222SOL    HW2 2148   3.584   2.779   3.280
 2223SOL     OW 2149   2.721   3.236   1.878
 2223SOL    HW1 2150   2.675   3.251   1.966
 2223SOL    HW2 2151   2.765   3.321   1.848
 2224SOL     OW 2152   2.523   3.652   2.815
 2224SOL    HW1 2153   2.477   3.740   2.802
 2224SOL    HW2 2154   2.622   3.664   2.808
 2225SOL     OW 2155   2.721   2.818   2.723
 2225SOL    HW1 2156   2.775   2.749   2.771
 2225SOL    HW2 2157   2.689   2.887   2.789
 2226SOL     OW 2158   2.945   2.846   1.949
 2226SOL    HW1 2159   2.922   2.899   1.867
 2226SOL    HW2 2160   3.026   2.790   1.930
 2228SOL     OW 2161   2.083   3.176   3.706
 2228SOL    HW1 2162   2.018   3.103   3.685
 2228SOL    HW2 2163   2.087   3.190   3.804
 2229SOL     OW 2164   1.941   3.102   2.515
 2229SOL    HW1 2165   1.940   3.055   2.603
 2229SOL    HW2 2166   2.023   3.074   2.464
 2230SOL     OW 2167   2.534   3.253   3.486
 2230SOL    HW1 2168   2.456   3.203   3.524
 2230SOL    HW2 2169   2.531   3.348   3.517
 2231SOL     OW 2170   3.686   2.054   3.089
 2231SOL    HW1 2171   3.682   1.964   3.133
 2231SOL    HW2 2172   3.689   2.043   2.990
 2232SOL     OW 2173   3.567   3.349   2.966
 2232SOL    HW1 2174   3.474   3.324   2.939
 2232SOL    HW2 2175   3.593   3.299   3.048
 2233SOL     OW 2176   2.179   2.409   3.142
 2233SOL    HW1 2177   2.217   2.350   3.214
 2233SOL    HW2 2178   2.219   2.383   3.054
 2234SOL     OW 2179   2.674   3.448   2.549
 2234SOL    HW1 2180   2.706   3.458   2.455
 2234SOL    HW2 2181   2.595   3.386   2.551
 2235SOL     OW 2182   3.286   2.076   2.974
 2235SOL    HW1 2183   3.338   2.011   3.029
 2235SOL    HW2 2184   3.237   2.139   3.035
 2236SOL     OW 2185   2.863   1.896   3.016
 2236SOL    HW1 2186   2.800   1.824   2.985
 2236SOL    HW2 2187   2.956   1.860   3.016
 2237SOL     OW 2188   2.632   3.192   2.163
 2237SOL    HW1 2189   2.586   3.105   2.180
 2237SOL    HW2 2190   2.723   3.189   2.204
 2238SOL     OW 2191   2.480   3.429   3.146
 2238SOL    HW1 2192   2.475   3.511   3.203
 2238SOL    HW2 2193   2.569   3.426   3.101
 2239SOL     OW 2194   3.214   1.914   2.030
 2239SOL    HW1 2195   3.249   1.873   1.946
 2239SOL    HW2 2196   3.124   1.876   2.050
 2240SOL     OW 2197   3.162   2.315   2.553
 2240SOL    HW1 2198   3.103   2.395   2.557
 2240SOL    HW2 2199   3.177   2.280   2.646
 2241SOL     OW 2200   3.455   2.083   2.744
 2241SOL    HW1 2201   3.371   2.082   2.798
 2241SOL    HW2 2202   3.457   2.166   2.688
 2242SOL     OW 2203   1.901   2.939   2.162
 2242SOL    HW1 2204   2.000   2.928   2.153
 2242SOL    HW2 2205   1.861   2.853   2.194
 2243SOL     OW 2206   2.737   3.508   2.199
 2243SOL    HW1 2207   2.660   3.473   2.145
 2243SOL    HW2 2208   2.705   3.579   2.261
 2244SOL     OW 2209   2.092   2.490   3.837
 2244SOL    HW1 2210   1.999   2.488   3.874
 2244SOL    HW2 2211   2.093   2.451   3.745
 2256SOL     OW 2212   2.468   2.826   3.847
 2256SOL    HW1 2213   2.475   2.910   3.793
 2256SOL    HW2 2214   2.514   2.839   3.935
 2266SOL     OW 2215   2.460   2.591   3.994
 2266SOL    HW1 2216   2.484   2.660   3.926
 2266SOL    HW2 2217   2.382   2.624   4.048
 2271SOL     OW 2218   2.727   2.210   3.919
 2271SOL    HW1 2219   2.786   2.273   3.870
 2271SOL    HW2 2220   2.746   2.116   3.890
 2277SOL     OW 2221   2.183   2.805   3.966
 2277SOL    HW1 2222   2.265   2.844   3.924
 2277SOL    HW2 2223   2.156   2.723   3.917
 2285SOL     OW 2224   2.476   1.984   3.841
 2285SOL    HW1 2225   2.574   1.962   3.848
 2285SOL    HW2 2226   2.445   1.967   3.748
 2288SOL     OW 2227   2.159   1.897   3.895
 2288SOL    HW1 2228   2.208   1.981   3.874
 2288SOL    HW2 2229   2.221   1.832   3.940
 2292SOL     OW 2230   2.894   2.411   3.740
 2292SOL    HW1 2231   2.853   2.493   3.701
 2292SOL    HW2 2232   2.958   2.437   3.813
 2298SOL     OW 2233   3.252   2.437   3.802
 2298SOL    HW1 2234   3.198   2.416   3.883
 2298SOL    HW2 2235   3.343   2.396   3.811
 2299SOL     OW 2236   2.389   2.118   4.052
 2299SOL    HW1 2237   2.416   2.059   3.977
 2299SOL    HW2 2238   2.389   2.213   4.021
 2309SOL     OW 2239   3.165   2.700   3.766
 2309SOL    HW1 2240   3.199   2.607   3.781
 2309SOL    HW2 2241   3.183   2.727   3.671
 2313SOL     OW 2242   2.677   2.434   4.049
 2313SOL    HW1 2243   2.684   2.345   4.003
 2313SOL    HW2 2244   2.583   2.468   4.041
 2314SOL     OW 2245   2.335   2.362   3.915
 2314SOL    HW1 2246   2.396   2.442   3.919
 2314SOL    HW2 2247   2.240   2.393   3.922
 2328SOL     OW 2248   1.937   2.207   3.757
 2328SOL    HW1 2249   1.845   2.179   3.728
 2328SOL    HW2 2250   1.968   2.284   3.701
 2329SOL     OW 2251   1.934   2.028   4.042
 2329SOL    HW1 2252   1.917   2.111   3.988
 2329SOL    HW2 2253   2.024   1.991   4.020
 2333SOL     OW 2254   2.721   3.236   3.740
 2333SOL    HW1 2255   2.675   3.251   3.828
 2333SOL    HW2 2256   2.765   3.321   3.710
 2336SOL     OW 2257   2.945   2.846   3.811
 2336SOL    HW1 2258   2.922   2.899   3.729
 2336SOL    HW2 2259   3.026   2.790   3.792
 2359SOL     OW 2260   2.179   3.975   1.801
 2359SOL    HW1 2261   2.250   4.046   1.807
 2359SOL    HW2 2262   2.091   4.014   1.829
 2375SOL     OW 2263   2.643   3.988   1.749
 2375SOL    HW1 2264   2.710   3.927   1.792
 2375SOL    HW2 2265   2.570   4.007   1.814
 2399SOL     OW 2266   2.875   3.829   1.770
 2399SOL    HW1 2267   2.881   3.914   1.718
 2399SOL    HW2 2268   2.907   3.753   1.713
 2400SOL     OW 2269   2.366   3.774   1.740
 2400SOL    HW1 2270   2.324   3.717   1.670
 2400SOL    HW2 2271   2.300   3.843   1.772
 2447SOL     OW 2272   2.087   3.999   2.858
 2447SOL    HW1 2273   2.122   3.982   2.950
 2447SOL    HW2 2274   1.999   3.954   2.846
 2458SOL     OW 2275   2.671   3.728   2.364
 2458SOL    HW1 2276   2.711   3.819   2.355
 2458SOL    HW2 2277   2.571   3.736   2.370
 2469SOL     OW 2278   2.412   3.920   2.747
 2469SOL    HW1 2279   2.407   3.915   2.847
 2469SOL    HW2 2280   2.414   4.016   2.718
 2472SOL     OW 2281   3.262   3.831   2.288
 2472SOL    HW1 2282   3.238   3.794   2.198
 2472SOL    HW2 2283   3.361   3.847   2.292
 2475SOL     OW 2284   2.476   3.846   1.979
 2475SOL    HW1 2285   2.574   3.824   1.986
 2475SOL    HW2 2286   2.445   3.829   1.886
 2479SOL     OW 2287   2.401   3.788   2.374
 2479SOL    HW1 2288   2.320   3.789   2.432
 2479SOL    HW2 2289   2.404   3.871   2.319
 2480SOL     OW 2290   2.159   3.759   2.033
 2480SOL    HW1 2291   2.208   3.843   2.012
 2480SOL    HW2 2292   2.221   3.694   2.078
 2481SOL     OW 2293   2.797   3.960   2.342
 2481SOL    HW1 2294   2.749   4.001   2.264
 2481SOL    HW2 2295   2.896   3.958   2.323
 2485SOL     OW 2296   2.423   3.946   3.009
 2485SOL    HW1 2297   2.461   3.862   3.046
 2485SOL    HW2 2298   2.335   3.965   3.053
 2487SOL     OW 2299   2.879   3.763   2.615
 2487SOL    HW1 2300   2.807   3.768   2.546
 2487SOL    HW2 2301   2.855   3.694   2.684
 2491SOL     OW 2302   2.389   3.980   2.190
 2491SOL    HW1 2303   2.416   3.921   2.115
 2491SOL    HW2 2304   2.389   4.075   2.159
 2508SOL     OW 2305   2.169   3.787   2.480
 2508SOL    HW1 2306   2.158   3.881   2.513
 2508SOL    HW2 2307   2.164   3.724   2.557
 2525SOL     OW 2308   2.125   4.050   2.582
 2525SOL    HW1 2309   2.046   4.101   2.548
 2525SOL    HW2 2310   2.116   4.035   2.680
 2533SOL     OW 2311   1.934   3.890   2.180
 2533SOL    HW1 2312   1.917   3.973   2.126
 2533SOL    HW2 2313   2.024   3.853   2.158
 2544SOL     OW 2314   2.863   3.758   3.016
 2544SOL    HW1 2315   2.800   3.686   2.985
 2544SOL    HW2 2316   2.956   3.722   3.016
 2545SOL     OW 2317   3.214   3.776   2.030
 2545SOL    HW1 2318   3.249   3.735   1.946
 2545SOL    HW2 2319   3.124   3.738   2.050
 2623SOL     OW 2320   3.854   1.821   1.571
 2623SOL    HW1 2321   3.844   1.806   1.670
 2623SOL    HW2 2322   3.768   1.857   1.535
 2674SOL     OW 2323   3.854   1.794   1.851
 2674SOL    HW1 2324   3.813   1.720   1.904
 2674SOL    HW2 2325   3.918   1.845   1.909
 2709SOL     OW 2326   3.955   1.713   2.345
 2709SOL    HW1 2327   3.989   1.790   2.399
 2709SOL    HW2 2328   3.999   1.713   2.255
 2715SOL     OW 2329   3.751   1.596   1.979
 2715SOL    HW1 2330   3.732   1.500   2.000
 2715SOL    HW2 2331   3.718   1.654   2.054
 2763SOL     OW 2332   3.732   1.326   2.062
 2763SOL    HW1 2333   3.639   1.347   2.031
 2763SOL    HW2 2334   3.742   1.227   2.075
 2764SOL     OW 2335   3.812   1.801   2.789
 2764SOL    HW1 2336   3.770   1.715   2.762
 2764SOL    HW2 2337   3.906   1.804   2.755
 2861SOL     OW 2338   3.837   2.599   1.597
 2861SOL    HW1 2339   3.925   2.586   1.642
 2861SOL    HW2 2340   3.824   2.696   1.575
 2885SOL     OW 2341   3.802   2.418   1.386
 2885SOL    HW1 2342   3.894   2.417   1.345
 2885SOL    HW2 2343   3.796   2.492   1.453
 2911SOL     OW 2344   3.913   2.382   1.722
 2911SOL    HW1 2345   3.972   2.342   1.652
 2911SOL    HW2 2346   3.855   2.453   1.681
 2928SOL     OW 2347   3.829   2.875   1.726
 2928SOL    HW1 2348   3.752   2.842   1.780
 2928SOL    HW2 2349   3.914   2.845   1.768
 2944SOL     OW 2350   3.954   2.490   1.975
 2944SOL    HW1 2351   3.861   2.488   2.012
 2944SOL    HW2 2352   3.955   2.451   1.883
 2945SOL     OW 2353   3.949   2.137   2.858
 2945SOL    HW1 2354   3.984   2.120   2.950
 2945SOL    HW2 2355   3.861   2.092   2.846
 2946SOL     OW 2356   3.743   2.230   2.509
 2946SOL    HW1 2357   3.661   2.273   2.548
 2946SOL    HW2 2358   3.715   2.157   2.446
 2958SOL     OW 2359   3.846   2.505   2.425
 2958SOL    HW1 2360   3.801   2.417   2.442
 2958SOL    HW2 2361   3.845   2.559   2.509
 2968SOL     OW 2362   3.800   2.673   2.651
 2968SOL    HW1 2363   3.899   2.661   2.660
 2968SOL    HW2 2364   3.776   2.768   2.672
 2983SOL     OW 2365   4.021   1.897   2.033
 2983SOL    HW1 2366   4.070   1.981   2.012
 2983SOL    HW2 2367   4.083   1.832   2.078
 2985SOL     OW 2368   3.802   2.418   3.248
 2985SOL    HW1 2369   3.894   2.417   3.207
 2985SOL    HW2 2370   3.796   2.492   3.315
 3001SOL     OW 2371   4.031   1.925   2.480
 3001SOL    HW1 2372   4.020   2.019   2.513
 3001SOL    HW2 2373   4.026   1.862   2.557
 3007SOL     OW 2374   3.732   3.188   2.062
 3007SOL    HW1 2375   3.639   3.209   2.031
 3007SOL    HW2 2376   3.742   3.089   2.075
 3010SOL     OW 2377   3.764   2.406   2.976
 3010SOL    HW1 2378   3.849   2.373   2.935
 3010SOL    HW2 2379   3.777   2.421   3.074
 3017SOL     OW 2380   3.807   3.120   2.884
 3017SOL    HW1 2381   3.802   3.119   2.984
 3017SOL    HW2 2382   3.724   3.079   2.846
 3023SOL     OW 2383   3.987   2.188   2.582
 3023SOL    HW1 2384   3.908   2.239   2.548
 3023SOL    HW2 2385   3.978   2.173   2.680
 3030SOL     OW 2386   3.799   2.207   1.895
 3030SOL    HW1 2387   3.707   2.179   1.866
 3030SOL    HW2 2388   3.830   2.284   1.839
 3031SOL     OW 2389   3.796   2.028   2.180
 3031SOL    HW1 2390   3.779   2.111   2.126
 3031SOL    HW2 2391   3.886   1.991   2.158
 3038SOL     OW 2392   3.803   3.102   2.515
 3038SOL    HW1 2393   3.802   3.055   2.603
 3038SOL    HW2 2394   3.885   3.074   2.464
 3044SOL     OW 2395   3.763   2.939   2.162
 3044SOL    HW1 2396   3.862   2.928   2.153
 3044SOL    HW2 2397   3.723   2.853   2.194
   4.62766   4.62766   4.62766
