; mobley_49274_GMX.itp created by acpype (v: 2023.10.27) on Thu May 21 00:13:01 2026

[ atomtypes ]
;name   bond_type     mass     charge   ptype   sigma         epsilon       Amb
 c1       c1          0.00000  0.00000   A     3.47896e-01   6.67766e-01 ; 1.95  0.1596
 c3       c3          0.00000  0.00000   A     3.39771e-01   4.51035e-01 ; 1.91  0.1078
 ha       ha          0.00000  0.00000   A     2.62548e-01   6.73624e-02 ; 1.47  0.0161
 hc       hc          0.00000  0.00000   A     2.60018e-01   8.70272e-02 ; 1.46  0.0208

[ moleculetype ]
;name            nrexcl
 mobley_49274     3

[ atoms ]
;   nr  type  resi  res  atom  cgnr     charge      mass       ; qtot   bond_type
     1   c1     1   MOL    C1    1    -0.162500     12.01000 ; qtot -0.163
     2   c1     1   MOL    C2    2    -0.138100     12.01000 ; qtot -0.301
     3   c3     1   MOL    C3    3    -0.093100     12.01000 ; qtot -0.394
     4   c3     1   MOL    C4    4    -0.003300     12.01000 ; qtot -0.397
     5   c3     1   MOL    C5    5    -0.080400     12.01000 ; qtot -0.477
     6   c3     1   MOL    C6    6    -0.076400     12.01000 ; qtot -0.554
     7   c3     1   MOL    C7    7    -0.080400     12.01000 ; qtot -0.634
     8   ha     1   MOL    H1    8     0.163501      1.00800 ; qtot -0.471
     9   hc     1   MOL    H2    9     0.033033      1.00800 ; qtot -0.438
    10   hc     1   MOL    H3   10     0.033033      1.00800 ; qtot -0.405
    11   hc     1   MOL    H4   11     0.033033      1.00800 ; qtot -0.372
    12   hc     1   MOL    H5   12     0.058700      1.00800 ; qtot -0.313
    13   hc     1   MOL    H6   13     0.058700      1.00800 ; qtot -0.254
    14   hc     1   MOL    H7   14     0.039700      1.00800 ; qtot -0.214
    15   hc     1   MOL    H8   15     0.039700      1.00800 ; qtot -0.175
    16   hc     1   MOL    H9   16     0.047700      1.00800 ; qtot -0.127
    17   hc     1   MOL   H10   17     0.047700      1.00800 ; qtot -0.079
    18   hc     1   MOL   H11   18     0.039700      1.00800 ; qtot -0.040
    19   hc     1   MOL   H12   19     0.039700      1.00800 ; qtot 0.000

[ bonds ]
;   ai     aj funct   r             k
     1      2   1    1.2095e-01    5.8503e+05 ;     C1 - C2    
     1      8   1    1.0666e-01    3.2839e+05 ;     C1 - H1    
     2      4   1    1.4656e-01    2.3814e+05 ;     C2 - C4    
     3      5   1    1.5354e-01    1.9154e+05 ;     C3 - C5    
     3      9   1    1.0962e-01    2.8891e+05 ;     C3 - H2    
     3     10   1    1.0962e-01    2.8891e+05 ;     C3 - H3    
     3     11   1    1.0962e-01    2.8891e+05 ;     C3 - H4    
     4      6   1    1.5354e-01    1.9154e+05 ;     C4 - C6    
     4     12   1    1.0962e-01    2.8891e+05 ;     C4 - H5    
     4     13   1    1.0962e-01    2.8891e+05 ;     C4 - H6    
     5      7   1    1.5354e-01    1.9154e+05 ;     C5 - C7    
     5     14   1    1.0962e-01    2.8891e+05 ;     C5 - H7    
     5     15   1    1.0962e-01    2.8891e+05 ;     C5 - H8    
     6      7   1    1.5354e-01    1.9154e+05 ;     C6 - C7    
     6     16   1    1.0962e-01    2.8891e+05 ;     C6 - H9    
     6     17   1    1.0962e-01    2.8891e+05 ;     C6 - H10   
     7     18   1    1.0962e-01    2.8891e+05 ;     C7 - H11   
     7     19   1    1.0962e-01    2.8891e+05 ;     C7 - H12   

[ pairs ]
;   ai     aj    funct
     1      6      1 ;     C1 - C6    
     1     12      1 ;     C1 - H5    
     1     13      1 ;     C1 - H6    
     2      7      1 ;     C2 - C7    
     2     16      1 ;     C2 - H9    
     2     17      1 ;     C2 - H10   
     3      6      1 ;     C3 - C6    
     3     18      1 ;     C3 - H11   
     3     19      1 ;     C3 - H12   
     4      5      1 ;     C4 - C5    
     4     18      1 ;     C4 - H11   
     4     19      1 ;     C4 - H12   
     5     16      1 ;     C5 - H9    
     5     17      1 ;     C5 - H10   
     6     14      1 ;     C6 - H7    
     6     15      1 ;     C6 - H8    
     7      9      1 ;     C7 - H2    
     7     10      1 ;     C7 - H3    
     7     11      1 ;     C7 - H4    
     7     12      1 ;     C7 - H5    
     7     13      1 ;     C7 - H6    
     8      4      1 ;     H1 - C4    
     9     14      1 ;     H2 - H7    
     9     15      1 ;     H2 - H8    
    10     14      1 ;     H3 - H7    
    10     15      1 ;     H3 - H8    
    11     14      1 ;     H4 - H7    
    11     15      1 ;     H4 - H8    
    12     16      1 ;     H5 - H9    
    12     17      1 ;     H5 - H10   
    13     16      1 ;     H6 - H9    
    13     17      1 ;     H6 - H10   
    14     18      1 ;     H7 - H11   
    14     19      1 ;     H7 - H12   
    15     18      1 ;     H8 - H11   
    15     19      1 ;     H8 - H12   
    16     18      1 ;     H9 - H11   
    16     19      1 ;     H9 - H12   
    17     18      1 ;    H10 - H11   
    17     19      1 ;    H10 - H12   

[ angles ]
;   ai     aj     ak    funct   theta         cth
     1      2      4      1    1.7867e+02    4.4836e+02 ;     C1 - C2     - C4    
     2      1      8      1    1.7928e+02    3.4351e+02 ;     C2 - C1     - H1    
     2      4      6      1    1.1202e+02    5.1354e+02 ;     C2 - C4     - C6    
     2      4     12      1    1.0945e+02    3.7765e+02 ;     C2 - C4     - H5    
     2      4     13      1    1.0945e+02    3.7765e+02 ;     C2 - C4     - H6    
     3      5      7      1    1.1263e+02    5.0099e+02 ;     C3 - C5     - C7    
     3      5     14      1    1.0968e+02    3.6208e+02 ;     C3 - C5     - H7    
     3      5     15      1    1.0968e+02    3.6208e+02 ;     C3 - C5     - H8    
     4      6      7      1    1.1263e+02    5.0099e+02 ;     C4 - C6     - C7    
     4      6     16      1    1.0968e+02    3.6208e+02 ;     C4 - C6     - H9    
     4      6     17      1    1.0968e+02    3.6208e+02 ;     C4 - C6     - H10   
     5      3      9      1    1.0968e+02    3.6208e+02 ;     C5 - C3     - H2    
     5      3     10      1    1.0968e+02    3.6208e+02 ;     C5 - C3     - H3    
     5      3     11      1    1.0968e+02    3.6208e+02 ;     C5 - C3     - H4    
     5      7      6      1    1.1263e+02    5.0099e+02 ;     C5 - C7     - C6    
     5      7     18      1    1.0968e+02    3.6208e+02 ;     C5 - C7     - H11   
     5      7     19      1    1.0968e+02    3.6208e+02 ;     C5 - C7     - H12   
     6      4     12      1    1.0968e+02    3.6208e+02 ;     C6 - C4     - H5    
     6      4     13      1    1.0968e+02    3.6208e+02 ;     C6 - C4     - H6    
     6      7     18      1    1.0968e+02    3.6208e+02 ;     C6 - C7     - H11   
     6      7     19      1    1.0968e+02    3.6208e+02 ;     C6 - C7     - H12   
     7      5     14      1    1.0968e+02    3.6208e+02 ;     C7 - C5     - H7    
     7      5     15      1    1.0968e+02    3.6208e+02 ;     C7 - C5     - H8    
     7      6     16      1    1.0968e+02    3.6208e+02 ;     C7 - C6     - H9    
     7      6     17      1    1.0968e+02    3.6208e+02 ;     C7 - C6     - H10   
     9      3     10      1    1.0773e+02    2.9957e+02 ;     H2 - C3     - H3    
     9      3     11      1    1.0773e+02    2.9957e+02 ;     H2 - C3     - H4    
    10      3     11      1    1.0773e+02    2.9957e+02 ;     H3 - C3     - H4    
    12      4     13      1    1.0773e+02    2.9957e+02 ;     H5 - C4     - H6    
    14      5     15      1    1.0773e+02    2.9957e+02 ;     H7 - C5     - H8    
    16      6     17      1    1.0773e+02    2.9957e+02 ;     H9 - C6     - H10   
    18      7     19      1    1.0773e+02    2.9957e+02 ;    H11 - C7     - H12   

[ dihedrals ] ; propers
; for gromacs 4.5 or higher, using funct 9
;    i      j      k      l   func   phase     kd      pn
     1      2      4      6      9   180.00   0.00000   2 ;     C1-    C2-    C4-    C6
     1      2      4     12      9   180.00   0.00000   2 ;     C1-    C2-    C4-    H5
     1      2      4     13      9   180.00   0.00000   2 ;     C1-    C2-    C4-    H6
     2      4      6      7      9     0.00   0.65084   3 ;     C2-    C4-    C6-    C7
     2      4      6     16      9     0.00   0.65084   3 ;     C2-    C4-    C6-    H9
     2      4      6     17      9     0.00   0.65084   3 ;     C2-    C4-    C6-   H10
     3      5      7      6      9     0.00   2.17568   3 ;     C3-    C5-    C7-    C6
     3      5      7     18      9     0.00   0.54392   3 ;     C3-    C5-    C7-   H11
     3      5      7     19      9     0.00   0.54392   3 ;     C3-    C5-    C7-   H12
     4      6      7      5      9     0.00   2.17568   3 ;     C4-    C6-    C7-    C5
     4      6      7     18      9     0.00   0.54392   3 ;     C4-    C6-    C7-   H11
     4      6      7     19      9     0.00   0.54392   3 ;     C4-    C6-    C7-   H12
     5      7      6     16      9     0.00   0.54392   3 ;     C5-    C7-    C6-    H9
     5      7      6     17      9     0.00   0.54392   3 ;     C5-    C7-    C6-   H10
     6      7      5     14      9     0.00   0.54392   3 ;     C6-    C7-    C5-    H7
     6      7      5     15      9     0.00   0.54392   3 ;     C6-    C7-    C5-    H8
     7      5      3      9      9     0.00   0.54392   3 ;     C7-    C5-    C3-    H2
     7      5      3     10      9     0.00   0.54392   3 ;     C7-    C5-    C3-    H3
     7      5      3     11      9     0.00   0.54392   3 ;     C7-    C5-    C3-    H4
     7      6      4     12      9     0.00   0.54392   3 ;     C7-    C6-    C4-    H5
     7      6      4     13      9     0.00   0.54392   3 ;     C7-    C6-    C4-    H6
     8      1      2      4      9   180.00   0.00000   2 ;     H1-    C1-    C2-    C4
     9      3      5     14      9     0.00   0.50208   3 ;     H2-    C3-    C5-    H7
     9      3      5     15      9     0.00   0.50208   3 ;     H2-    C3-    C5-    H8
    10      3      5     14      9     0.00   0.50208   3 ;     H3-    C3-    C5-    H7
    10      3      5     15      9     0.00   0.50208   3 ;     H3-    C3-    C5-    H8
    11      3      5     14      9     0.00   0.50208   3 ;     H4-    C3-    C5-    H7
    11      3      5     15      9     0.00   0.50208   3 ;     H4-    C3-    C5-    H8
    12      4      6     16      9     0.00   0.50208   3 ;     H5-    C4-    C6-    H9
    12      4      6     17      9     0.00   0.50208   3 ;     H5-    C4-    C6-   H10
    13      4      6     16      9     0.00   0.50208   3 ;     H6-    C4-    C6-    H9
    13      4      6     17      9     0.00   0.50208   3 ;     H6-    C4-    C6-   H10
    14      5      7     18      9     0.00   0.50208   3 ;     H7-    C5-    C7-   H11
    14      5      7     19      9     0.00   0.50208   3 ;     H7-    C5-    C7-   H12
    15      5      7     18      9     0.00   0.50208   3 ;     H8-    C5-    C7-   H11
    15      5      7     19      9     0.00   0.50208   3 ;     H8-    C5-    C7-   H12
    16      6      7     18      9     0.00   0.50208   3 ;     H9-    C6-    C7-   H11
    16      6      7     19      9     0.00   0.50208   3 ;     H9-    C6-    C7-   H12
    17      6      7     18      9     0.00   0.50208   3 ;    H10-    C6-    C7-   H11
    17      6      7     19      9     0.00   0.50208   3 ;    H10-    C6-    C7-   H12
