; mobley_7099614_GMX.itp created by acpype (v: 2023.10.27) on Thu May 21 00:17:07 2026

[ atomtypes ]
;name   bond_type     mass     charge   ptype   sigma         epsilon       Amb
 c2       c2          0.00000  0.00000   A     3.31521e-01   4.13379e-01 ; 1.86  0.0988
 c3       c3          0.00000  0.00000   A     3.39771e-01   4.51035e-01 ; 1.91  0.1078
 cl       cl          0.00000  0.00000   A     3.46595e-01   1.10374e+00 ; 1.95  0.2638
 ha       ha          0.00000  0.00000   A     2.62548e-01   6.73624e-02 ; 1.47  0.0161
 h1       h1          0.00000  0.00000   A     2.42200e-01   8.70272e-02 ; 1.36  0.0208

[ moleculetype ]
;name            nrexcl
 mobley_7099614   3

[ atoms ]
;   nr  type  resi  res  atom  cgnr     charge      mass       ; qtot   bond_type
     1   c2     1   MOL    C1    1    -0.197000     12.01000 ; qtot -0.197
     2   c2     1   MOL    C2    2    -0.184200     12.01000 ; qtot -0.381
     3   c3     1   MOL    C3    3     0.069200     12.01000 ; qtot -0.312
     4   cl     1   MOL   CL1    4    -0.193400     35.45000 ; qtot -0.505
     5   ha     1   MOL    H1    5     0.116500      1.00800 ; qtot -0.389
     6   ha     1   MOL    H2    6     0.116500      1.00800 ; qtot -0.272
     7   ha     1   MOL    H3    7     0.135000      1.00800 ; qtot -0.137
     8   h1     1   MOL    H4    8     0.068700      1.00800 ; qtot -0.069
     9   h1     1   MOL    H5    9     0.068700      1.00800 ; qtot -0.000

[ bonds ]
;   ai     aj funct   r             k
     1      2   1    1.3379e-01    3.6484e+05 ;     C1 - C2    
     1      5   1    1.0882e-01    2.9898e+05 ;     C1 - H1    
     1      6   1    1.0882e-01    2.9898e+05 ;     C1 - H2    
     2      3   1    1.5088e-01    2.0786e+05 ;     C2 - C3    
     2      7   1    1.0882e-01    2.9898e+05 ;     C2 - H3    
     3      4   1    1.8092e-01    1.3724e+05 ;     C3 - CL1   
     3      8   1    1.0969e-01    2.8804e+05 ;     C3 - H4    
     3      9   1    1.0969e-01    2.8804e+05 ;     C3 - H5    

[ pairs ]
;   ai     aj    funct
     1      4      1 ;     C1 - CL1   
     1      8      1 ;     C1 - H4    
     1      9      1 ;     C1 - H5    
     4      7      1 ;    CL1 - H3    
     5      3      1 ;     H1 - C3    
     5      7      1 ;     H1 - H3    
     6      3      1 ;     H2 - C3    
     6      7      1 ;     H2 - H3    
     7      8      1 ;     H3 - H4    
     7      9      1 ;     H3 - H5    

[ angles ]
;   ai     aj     ak    funct   theta         cth
     1      2      3      1    1.2495e+02    5.0944e+02 ;     C1 - C2     - C3    
     1      2      7      1    1.2039e+02    3.8802e+02 ;     C1 - C2     - H3    
     2      1      5      1    1.2039e+02    3.8802e+02 ;     C2 - C1     - H1    
     2      1      6      1    1.2039e+02    3.8802e+02 ;     C2 - C1     - H2    
     2      3      4      1    1.1039e+02    5.3522e+02 ;     C2 - C3     - CL1   
     2      3      8      1    1.0996e+02    3.6727e+02 ;     C2 - C3     - H4    
     2      3      9      1    1.0996e+02    3.6727e+02 ;     C2 - C3     - H5    
     3      2      7      1    1.1505e+02    3.5941e+02 ;     C3 - C2     - H3    
     4      3      8      1    1.0682e+02    3.6183e+02 ;    CL1 - C3     - H4    
     4      3      9      1    1.0682e+02    3.6183e+02 ;    CL1 - C3     - H5    
     5      1      6      1    1.1666e+02    2.9003e+02 ;     H1 - C1     - H2    
     8      3      9      1    1.0855e+02    2.9824e+02 ;     H4 - C3     - H5    

[ dihedrals ] ; propers
; for gromacs 4.5 or higher, using funct 9
;    i      j      k      l   func   phase     kd      pn
     1      2      3      4      9     0.00   0.00000   0 ;     C1-    C2-    C3-   CL1
     1      2      3      8      9     0.00   0.00000   0 ;     C1-    C2-    C3-    H4
     1      2      3      9      9     0.00   0.00000   0 ;     C1-    C2-    C3-    H5
     4      3      2      7      9     0.00   0.00000   0 ;    CL1-    C3-    C2-    H3
     5      1      2      3      9   180.00  27.82360   2 ;     H1-    C1-    C2-    C3
     5      1      2      7      9   180.00  27.82360   2 ;     H1-    C1-    C2-    H3
     6      1      2      3      9   180.00  27.82360   2 ;     H2-    C1-    C2-    C3
     6      1      2      7      9   180.00  27.82360   2 ;     H2-    C1-    C2-    H3
     7      2      3      8      9     0.00   0.00000   0 ;     H3-    C2-    C3-    H4
     7      2      3      9      9     0.00   0.00000   0 ;     H3-    C2-    C3-    H5

[ dihedrals ] ; impropers
; treated as propers in GROMACS to use correct AMBER analytical function
;    i      j      k      l   func   phase     kd      pn
     1      3      2      7      4   180.00   4.60240   2 ;     C1-    C3-    C2-    H3
     6      1      5      2      4   180.00   4.60240   2 ;     H2-    C1-    H1-    C2
