; mobley_7578802_GMX.itp created by acpype (v: 2023.10.27) on Thu May 21 00:10:42 2026

[ atomtypes ]
;name   bond_type     mass     charge   ptype   sigma         epsilon       Amb
 c3       c3          0.00000  0.00000   A     3.39771e-01   4.51035e-01 ; 1.91  0.1078
 br       br          0.00000  0.00000   A     3.61259e-01   1.64515e+00 ; 2.03  0.3932
 h3       h3          0.00000  0.00000   A     2.06564e-01   8.70272e-02 ; 1.16  0.0208

[ moleculetype ]
;name            nrexcl
 mobley_7578802   3

[ atoms ]
;   nr  type  resi  res  atom  cgnr     charge      mass       ; qtot   bond_type
     1   c3     1   MOL    C1    1     0.055500     12.01000 ; qtot 0.055
     2   br     1   MOL   BR1    2    -0.062400     79.90000 ; qtot -0.007
     3   br     1   MOL   BR2    3    -0.062400     79.90000 ; qtot -0.069
     4   br     1   MOL   BR3    4    -0.062400     79.90000 ; qtot -0.132
     5   h3     1   MOL    H1    5     0.131700      1.00800 ; qtot 0.000

[ bonds ]
;   ai     aj funct   r             k
     1      2   1    1.9805e-01    1.0319e+05 ;     C1 - BR1   
     1      3   1    1.9805e-01    1.0319e+05 ;     C1 - BR2   
     1      4   1    1.9805e-01    1.0319e+05 ;     C1 - BR3   
     1      5   1    1.0938e-01    2.9188e+05 ;     C1 - H1    

[ angles ]
;   ai     aj     ak    funct   theta         cth
     2      1      3      1    1.0991e+02    5.5898e+02 ;    BR1 - C1     - BR2   
     2      1      4      1    1.0991e+02    5.5898e+02 ;    BR1 - C1     - BR3   
     2      1      5      1    1.0749e+02    3.3413e+02 ;    BR1 - C1     - H1    
     3      1      4      1    1.0991e+02    5.5898e+02 ;    BR2 - C1     - BR3   
     3      1      5      1    1.0749e+02    3.3413e+02 ;    BR2 - C1     - H1    
     4      1      5      1    1.0749e+02    3.3413e+02 ;    BR3 - C1     - H1    
