mobley_2481002_GMX.gro created by acpype (v: 2023.10.27) on Wed May 20 23:46:02 2026
 2401
    1MOL     C1    1   2.251   2.190   2.214
    1MOL     N1    2   2.106   2.204   2.164
    1MOL     O1    3   2.060   2.114   2.092
    1MOL     O2    4   2.040   2.304   2.198
    1MOL    CL1    5   2.256   2.041   2.310
    1MOL    CL2    6   2.353   2.181   2.069
    1MOL    CL3    7   2.296   2.330   2.313
    6SOL     OW    8   1.555   1.511   0.703
    6SOL    HW1    9   1.498   1.495   0.784
    6SOL    HW2   10   1.496   1.521   0.623
   14SOL     OW   11   1.460   1.505   1.339
   14SOL    HW1   12   1.484   1.599   1.365
   14SOL    HW2   13   1.444   1.451   1.421
   18SOL     OW   14   1.127   1.341   1.690
   18SOL    HW1   15   1.174   1.341   1.778
   18SOL    HW2   16   1.079   1.254   1.679
   21SOL     OW   17   0.620   1.786   1.439
   21SOL    HW1   18   0.528   1.769   1.474
   21SOL    HW2   19   0.648   1.878   1.465
   31SOL     OW   20   1.293   1.228   1.423
   31SOL    HW1   21   1.330   1.155   1.365
   31SOL    HW2   22   1.345   1.233   1.508
   35SOL     OW   23   1.187   1.792   1.616
   35SOL    HW1   24   1.211   1.852   1.540
   35SOL    HW2   25   1.194   1.697   1.586
   37SOL     OW   26   1.466   1.417   0.953
   37SOL    HW1   27   1.407   1.423   1.033
   37SOL    HW2   28   1.451   1.329   0.907
   38SOL     OW   29   1.667   1.714   0.572
   38SOL    HW1   30   1.626   1.691   0.484
   38SOL    HW2   31   1.649   1.640   0.637
   50SOL     OW   32   1.719   0.585   1.831
   50SOL    HW1   33   1.693   0.674   1.795
   50SOL    HW2   34   1.717   0.517   1.758
   55SOL     OW   35   1.795   1.066   0.873
   55SOL    HW1   36   1.733   1.051   0.797
   55SOL    HW2   37   1.743   1.077   0.958
   56SOL     OW   38   1.227   1.550   1.506
   56SOL    HW1   39   1.233   1.473   1.570
   56SOL    HW2   40   1.175   1.524   1.426
   71SOL     OW   41   0.888   1.514   1.195
   71SOL    HW1   42   0.865   1.489   1.101
   71SOL    HW2   43   0.949   1.445   1.234
   95SOL     OW   44   1.754   1.223   1.588
   95SOL    HW1   45   1.845   1.184   1.575
   95SOL    HW2   46   1.762   1.319   1.612
   96SOL     OW   47   1.064   1.347   1.340
   96SOL    HW1   48   0.984   1.324   1.395
   96SOL    HW2   49   1.147   1.321   1.389
   97SOL     OW   50   1.592   1.629   1.625
   97SOL    HW1   51   1.619   1.663   1.535
   97SOL    HW2   52   1.671   1.591   1.671
   99SOL     OW   53   1.638   1.099   1.079
   99SOL    HW1   54   1.643   1.180   1.138
   99SOL    HW2   55   1.552   1.101   1.028
  101SOL     OW   56   0.980   1.116   1.719
  101SOL    HW1   57   0.881   1.122   1.729
  101SOL    HW2   58   1.003   1.036   1.663
  109SOL     OW   59   1.272   1.445   1.142
  109SOL    HW1   60   1.319   1.458   1.229
  109SOL    HW2   61   1.206   1.371   1.151
  113SOL     OW   62   1.587   0.779   1.670
  113SOL    HW1   63   1.495   0.817   1.665
  113SOL    HW2   64   1.647   0.826   1.605
  122SOL     OW   65   1.728   0.935   1.854
  122SOL    HW1   66   1.682   0.928   1.765
  122SOL    HW2   67   1.666   0.979   1.920
  126SOL     OW   68   0.980   1.573   1.700
  126SOL    HW1   69   0.960   1.617   1.612
  126SOL    HW2   70   1.019   1.482   1.684
  127SOL     OW   71   1.859   1.518   1.605
  127SOL    HW1   72   1.873   1.545   1.510
  127SOL    HW2   73   1.942   1.540   1.658
  142SOL     OW   74   1.369   0.950   1.660
  142SOL    HW1   75   1.408   1.039   1.680
  142SOL    HW2   76   1.379   0.930   1.563
  147SOL     OW   77   0.930   1.678   1.465
  147SOL    HW1   78   0.906   1.660   1.370
  147SOL    HW2   79   0.960   1.772   1.475
  150SOL     OW   80   1.347   1.059   1.234
  150SOL    HW1   81   1.371   0.996   1.160
  150SOL    HW2   82   1.257   1.099   1.216
  152SOL     OW   83   1.759   1.747   1.154
  152SOL    HW1   84   1.820   1.777   1.081
  152SOL    HW2   85   1.721   1.658   1.132
  153SOL     OW   86   1.252   1.731   1.128
  153SOL    HW1   87   1.336   1.736   1.074
  153SOL    HW2   88   1.229   1.635   1.146
  155SOL     OW   89   0.688   1.662   1.716
  155SOL    HW1   90   0.632   1.743   1.725
  155SOL    HW2   91   0.740   1.666   1.630
  163SOL     OW   92   1.650   1.720   1.394
  163SOL    HW1   93   1.703   1.730   1.310
  163SOL    HW2   94   1.623   1.810   1.428
  171SOL     OW   95   1.614   1.292   1.289
  171SOL    HW1   96   1.674   1.295   1.369
  171SOL    HW2   97   1.539   1.356   1.302
  180SOL     OW   98   1.440   0.856   1.398
  180SOL    HW1   99   1.383   0.908   1.335
  180SOL    HW2  100   1.536   0.868   1.374
  184SOL     OW  101   1.493   1.767   0.959
  184SOL    HW1  102   1.526   1.831   0.890
  184SOL    HW2  103   1.559   1.761   1.034
  186SOL     OW  104   1.450   1.220   1.633
  186SOL    HW1  105   1.441   1.210   1.732
  186SOL    HW2  106   1.546   1.213   1.607
  188SOL     OW  107   1.674   0.883   1.254
  188SOL    HW1  108   1.647   0.794   1.217
  188SOL    HW2  109   1.675   0.951   1.181
  192SOL     OW  110   1.730   0.934   1.517
  192SOL    HW1  111   1.768   1.025   1.532
  192SOL    HW2  112   1.722   0.917   1.418
  197SOL     OW  113   1.861   1.569   0.851
  197SOL    HW1  114   1.790   1.557   0.781
  197SOL    HW2  115   1.862   1.490   0.911
  203SOL     OW  116   1.705   1.487   1.104
  203SOL    HW1  117   1.612   1.462   1.077
  203SOL    HW2  118   1.731   1.437   1.186
  219SOL     OW  119   1.555   1.511   2.565
  219SOL    HW1  120   1.498   1.495   2.646
  219SOL    HW2  121   1.496   1.521   2.485
  221SOL     OW  122   1.755   0.607   2.093
  221SOL    HW1  123   1.743   0.594   1.994
  221SOL    HW2  124   1.725   0.526   2.142
  227SOL     OW  125   1.460   1.505   3.201
  227SOL    HW1  126   1.484   1.599   3.227
  227SOL    HW2  127   1.444   1.451   3.283
  238SOL     OW  128   1.842   1.767   2.221
  238SOL    HW1  129   1.896   1.738   2.301
  238SOL    HW2  130   1.872   1.857   2.192
  240SOL     OW  131   1.689   0.922   2.474
  240SOL    HW1  132   1.784   0.893   2.482
  240SOL    HW2  133   1.681   0.987   2.399
  241SOL     OW  134   1.641   1.108   2.294
  241SOL    HW1  135   1.727   1.110   2.242
  241SOL    HW2  136   1.655   1.155   2.382
  244SOL     OW  137   1.293   1.228   3.285
  244SOL    HW1  138   1.330   1.155   3.227
  244SOL    HW2  139   1.345   1.233   3.370
  247SOL     OW  140   1.525   0.999   2.052
  247SOL    HW1  141   1.462   0.923   2.065
  247SOL    HW2  142   1.573   1.017   2.138
  248SOL     OW  143   1.187   1.792   3.478
  248SOL    HW1  144   1.211   1.852   3.402
  248SOL    HW2  145   1.194   1.697   3.448
  250SOL     OW  146   1.466   1.417   2.815
  250SOL    HW1  147   1.407   1.423   2.895
  250SOL    HW2  148   1.451   1.329   2.769
  251SOL     OW  149   1.667   1.714   2.434
  251SOL    HW1  150   1.626   1.691   2.346
  251SOL    HW2  151   1.649   1.640   2.499
  254SOL     OW  152   1.576   1.662   2.169
  254SOL    HW1  153   1.665   1.708   2.172
  254SOL    HW2  154   1.555   1.638   2.074
  264SOL     OW  155   1.362   1.144   2.407
  264SOL    HW1  156   1.445   1.115   2.359
  264SOL    HW2  157   1.313   1.211   2.351
  266SOL     OW  158   1.008   1.456   2.339
  266SOL    HW1  159   0.962   1.528   2.287
  266SOL    HW2  160   1.004   1.476   2.437
  268SOL     OW  161   1.795   1.066   2.735
  268SOL    HW1  162   1.733   1.051   2.659
  268SOL    HW2  163   1.743   1.077   2.820
  269SOL     OW  164   1.227   1.550   3.368
  269SOL    HW1  165   1.233   1.473   3.432
  269SOL    HW2  166   1.175   1.524   3.288
  271SOL     OW  167   1.458   0.735   2.590
  271SOL    HW1  168   1.453   0.670   2.665
  271SOL    HW2  169   1.538   0.794   2.603
  273SOL     OW  170   1.111   1.776   2.099
  273SOL    HW1  171   1.051   1.714   2.149
  273SOL    HW2  172   1.142   1.732   2.014
  275SOL     OW  173   1.632   1.377   1.943
  275SOL    HW1  174   1.600   1.471   1.933
  275SOL    HW2  175   1.556   1.314   1.931
  276SOL     OW  176   0.464   1.743   2.185
  276SOL    HW1  177   0.497   1.782   2.271
  276SOL    HW2  178   0.540   1.736   2.120
  279SOL     OW  179   0.940   1.698   2.766
  279SOL    HW1  180   1.020   1.641   2.787
  279SOL    HW2  181   0.891   1.658   2.689
  284SOL     OW  182   0.888   1.514   3.057
  284SOL    HW1  183   0.865   1.489   2.963
  284SOL    HW2  184   0.949   1.445   3.096
  286SOL     OW  185   0.803   1.402   2.786
  286SOL    HW1  186   0.893   1.416   2.744
  286SOL    HW2  187   0.732   1.404   2.715
  289SOL     OW  188   1.434   1.188   1.903
  289SOL    HW1  189   1.466   1.112   1.960
  289SOL    HW2  190   1.342   1.215   1.933
  293SOL     OW  191   1.227   1.570   2.655
  293SOL    HW1  192   1.248   1.644   2.590
  293SOL    HW2  193   1.295   1.570   2.728
  295SOL     OW  194   1.271   1.797   2.453
  295SOL    HW1  195   1.315   1.861   2.389
  295SOL    HW2  196   1.221   1.849   2.523
  301SOL     OW  197   1.429   1.173   2.729
  301SOL    HW1  198   1.374   1.089   2.722
  301SOL    HW2  199   1.455   1.202   2.637
  303SOL     OW  200   1.857   0.833   2.239
  303SOL    HW1  201   1.899   0.769   2.303
  303SOL    HW2  202   1.819   0.782   2.161
  305SOL     OW  203   1.664   1.280   2.519
  305SOL    HW1  204   1.763   1.288   2.533
  305SOL    HW2  205   1.619   1.364   2.550
  308SOL     OW  206   1.754   1.223   3.450
  308SOL    HW1  207   1.845   1.184   3.437
  308SOL    HW2  208   1.762   1.319   3.474
  309SOL     OW  209   1.064   1.347   3.202
  309SOL    HW1  210   0.984   1.324   3.257
  309SOL    HW2  211   1.147   1.321   3.251
  310SOL     OW  212   1.592   1.629   3.487
  310SOL    HW1  213   1.619   1.663   3.397
  310SOL    HW2  214   1.671   1.591   3.533
  311SOL     OW  215   1.111   1.195   2.962
  311SOL    HW1  216   1.071   1.239   3.043
  311SOL    HW2  217   1.070   1.232   2.879
  312SOL     OW  218   1.638   1.099   2.941
  312SOL    HW1  219   1.643   1.180   3.000
  312SOL    HW2  220   1.552   1.101   2.890
  321SOL     OW  221   1.252   1.348   2.250
  321SOL    HW1  222   1.302   1.425   2.290
  321SOL    HW2  223   1.157   1.350   2.282
  322SOL     OW  224   1.272   1.445   3.004
  322SOL    HW1  225   1.319   1.458   3.091
  322SOL    HW2  226   1.206   1.371   3.013
  323SOL     OW  227   1.582   0.639   2.334
  323SOL    HW1  228   1.551   0.700   2.407
  323SOL    HW2  229   1.632   0.691   2.265
  330SOL     OW  230   1.360   0.862   2.907
  330SOL    HW1  231   1.285   0.862   2.841
  330SOL    HW2  232   1.397   0.770   2.916
  340SOL     OW  233   1.859   1.518   3.467
  340SOL    HW1  234   1.873   1.545   3.372
  340SOL    HW2  235   1.942   1.540   3.520
  343SOL     OW  236   1.303   0.838   1.904
  343SOL    HW1  237   1.337   0.745   1.919
  343SOL    HW2  238   1.321   0.865   1.809
  344SOL     OW  239   1.068   1.333   2.711
  344SOL    HW1  240   1.075   1.249   2.656
  344SOL    HW2  241   1.130   1.402   2.675
  360SOL     OW  242   0.930   1.678   3.327
  360SOL    HW1  243   0.906   1.660   3.232
  360SOL    HW2  244   0.960   1.772   3.337
  363SOL     OW  245   1.347   1.059   3.096
  363SOL    HW1  246   1.371   0.996   3.022
  363SOL    HW2  247   1.257   1.099   3.078
  364SOL     OW  248   1.302   0.855   2.171
  364SOL    HW1  249   1.216   0.824   2.213
  364SOL    HW2  250   1.298   0.841   2.072
  365SOL     OW  251   1.759   1.747   3.016
  365SOL    HW1  252   1.820   1.777   2.943
  365SOL    HW2  253   1.721   1.658   2.994
  366SOL     OW  254   1.252   1.731   2.990
  366SOL    HW1  255   1.336   1.736   2.936
  366SOL    HW2  256   1.229   1.635   3.008
  370SOL     OW  257   1.388   1.573   2.339
  370SOL    HW1  258   1.455   1.585   2.265
  370SOL    HW2  259   1.348   1.662   2.362
  372SOL     OW  260   1.280   0.927   2.534
  372SOL    HW1  261   1.340   0.846   2.536
  372SOL    HW2  262   1.320   0.996   2.474
  374SOL     OW  263   0.672   1.616   2.016
  374SOL    HW1  264   0.681   1.626   1.917
  374SOL    HW2  265   0.632   1.527   2.037
  375SOL     OW  266   1.650   1.720   3.256
  375SOL    HW1  267   1.703   1.730   3.172
  375SOL    HW2  268   1.623   1.810   3.290
  378SOL     OW  269   1.194   1.612   1.893
  378SOL    HW1  270   1.200   1.519   1.930
  378SOL    HW2  271   1.135   1.612   1.813
  381SOL     OW  272   1.504   1.607   1.906
  381SOL    HW1  273   1.412   1.644   1.913
  381SOL    HW2  274   1.542   1.627   1.816
  383SOL     OW  275   1.614   1.292   3.151
  383SOL    HW1  276   1.674   1.295   3.231
  383SOL    HW2  277   1.539   1.356   3.164
  384SOL     OW  278   1.039   1.098   2.558
  384SOL    HW1  279   0.969   1.051   2.612
  384SOL    HW2  280   1.098   1.030   2.515
  386SOL     OW  281   0.590   1.487   2.353
  386SOL    HW1  282   0.632   1.429   2.283
  386SOL    HW2  283   0.546   1.566   2.309
  394SOL     OW  284   1.183   1.335   1.981
  394SOL    HW1  285   1.084   1.324   1.983
  394SOL    HW2  286   1.217   1.350   2.074
  396SOL     OW  287   1.493   1.767   2.821
  396SOL    HW1  288   1.526   1.831   2.752
  396SOL    HW2  289   1.559   1.761   2.896
  398SOL     OW  290   1.450   1.220   3.495
  398SOL    HW1  291   1.441   1.210   3.594
  398SOL    HW2  292   1.546   1.213   3.469
  400SOL     OW  293   1.674   0.883   3.116
  400SOL    HW1  294   1.647   0.794   3.079
  400SOL    HW2  295   1.675   0.951   3.043
  404SOL     OW  296   1.730   0.934   3.379
  404SOL    HW1  297   1.768   1.025   3.394
  404SOL    HW2  298   1.722   0.917   3.280
  405SOL     OW  299   0.859   1.374   1.878
  405SOL    HW1  300   0.813   1.389   1.966
  405SOL    HW2  301   0.903   1.459   1.848
  406SOL     OW  302   0.661   1.790   2.815
  406SOL    HW1  303   0.615   1.878   2.802
  406SOL    HW2  304   0.760   1.802   2.808
  408SOL     OW  305   1.083   0.984   1.949
  408SOL    HW1  306   1.060   1.037   1.867
  408SOL    HW2  307   1.164   0.928   1.930
  409SOL     OW  308   1.861   1.569   2.713
  409SOL    HW1  309   1.790   1.557   2.643
  409SOL    HW2  310   1.862   1.490   2.773
  415SOL     OW  311   1.705   1.487   2.966
  415SOL    HW1  312   1.612   1.462   2.939
  415SOL    HW2  313   1.731   1.437   3.048
  417SOL     OW  314   0.812   1.586   2.549
  417SOL    HW1  315   0.844   1.596   2.455
  417SOL    HW2  316   0.733   1.524   2.551
  420SOL     OW  317   0.770   1.330   2.163
  420SOL    HW1  318   0.724   1.243   2.180
  420SOL    HW2  319   0.861   1.327   2.204
  426SOL     OW  320   0.875   1.646   2.199
  426SOL    HW1  321   0.798   1.611   2.145
  426SOL    HW2  322   0.843   1.717   2.261
  505SOL     OW  323   0.850   2.660   1.823
  505SOL    HW1  324   0.846   2.736   1.888
  505SOL    HW2  325   0.872   2.696   1.732
  507SOL     OW  326   0.686   3.023   1.803
  507SOL    HW1  327   0.746   3.102   1.817
  507SOL    HW2  328   0.600   3.054   1.762
  509SOL     OW  329   1.460   3.367   1.339
  509SOL    HW1  330   1.484   3.461   1.365
  509SOL    HW2  331   1.444   3.313   1.421
  511SOL     OW  332   1.603   2.309   0.737
  511SOL    HW1  333   1.529   2.355   0.687
  511SOL    HW2  334   1.654   2.377   0.790
  513SOL     OW  335   1.127   3.203   1.690
  513SOL    HW1  336   1.174   3.203   1.778
  513SOL    HW2  337   1.079   3.116   1.679
  518SOL     OW  338   1.594   1.976   1.480
  518SOL    HW1  339   1.576   2.043   1.408
  518SOL    HW2  340   1.591   2.022   1.569
  522SOL     OW  341   1.689   2.784   0.612
  522SOL    HW1  342   1.784   2.755   0.620
  522SOL    HW2  343   1.681   2.849   0.537
  526SOL     OW  344   1.293   3.090   1.423
  526SOL    HW1  345   1.330   3.017   1.365
  526SOL    HW2  346   1.345   3.095   1.508
  535SOL     OW  347   1.281   2.207   0.944
  535SOL    HW1  348   1.195   2.157   0.931
  535SOL    HW2  349   1.343   2.153   1.000
  537SOL     OW  350   0.807   2.467   1.465
  537SOL    HW1  351   0.760   2.464   1.554
  537SOL    HW2  352   0.756   2.412   1.399
  538SOL     OW  353   1.394   2.331   1.674
  538SOL    HW1  354   1.374   2.374   1.762
  538SOL    HW2  355   1.472   2.269   1.683
  539SOL     OW  356   0.973   2.752   1.572
  539SOL    HW1  357   1.019   2.668   1.543
  539SOL    HW2  358   0.917   2.786   1.497
  540SOL     OW  359   0.991   2.272   1.242
  540SOL    HW1  360   0.914   2.306   1.296
  540SOL    HW2  361   0.957   2.221   1.163
  545SOL     OW  362   1.719   2.447   1.831
  545SOL    HW1  363   1.693   2.536   1.795
  545SOL    HW2  364   1.717   2.379   1.758
  550SOL     OW  365   1.795   2.928   0.873
  550SOL    HW1  366   1.733   2.913   0.797
  550SOL    HW2  367   1.743   2.939   0.958
  551SOL     OW  368   1.227   3.412   1.506
  551SOL    HW1  369   1.233   3.335   1.570
  551SOL    HW2  370   1.175   3.386   1.426
  553SOL     OW  371   1.458   2.597   0.728
  553SOL    HW1  372   1.453   2.532   0.803
  553SOL    HW2  373   1.538   2.656   0.741
  563SOL     OW  374   1.547   2.084   1.729
  563SOL    HW1  375   1.542   2.121   1.821
  563SOL    HW2  376   1.475   2.015   1.717
  565SOL     OW  377   0.781   2.126   1.749
  565SOL    HW1  378   0.848   2.065   1.792
  565SOL    HW2  379   0.708   2.145   1.814
  567SOL     OW  380   1.351   2.452   1.433
  567SOL    HW1  381   1.379   2.409   1.518
  567SOL    HW2  382   1.376   2.548   1.434
  574SOL     OW  383   1.076   2.545   1.464
  574SOL    HW1  384   0.996   2.484   1.467
  574SOL    HW2  385   1.157   2.492   1.440
  583SOL     OW  386   1.429   3.035   0.867
  583SOL    HW1  387   1.374   2.951   0.860
  583SOL    HW2  388   1.455   3.064   0.775
  584SOL     OW  389   1.466   2.452   0.992
  584SOL    HW1  390   1.436   2.357   0.999
  584SOL    HW2  391   1.539   2.468   1.058
  590SOL     OW  392   1.754   3.085   1.588
  590SOL    HW1  393   1.845   3.046   1.575
  590SOL    HW2  394   1.762   3.181   1.612
  591SOL     OW  395   1.064   3.209   1.340
  591SOL    HW1  396   0.984   3.186   1.395
  591SOL    HW2  397   1.147   3.183   1.389
  592SOL     OW  398   1.592   3.491   1.625
  592SOL    HW1  399   1.619   3.525   1.535
  592SOL    HW2  400   1.671   3.453   1.671
  593SOL     OW  401   1.111   3.057   1.100
  593SOL    HW1  402   1.071   3.101   1.181
  593SOL    HW2  403   1.070   3.094   1.017
  594SOL     OW  404   1.638   2.961   1.079
  594SOL    HW1  405   1.643   3.042   1.138
  594SOL    HW2  406   1.552   2.963   1.028
  595SOL     OW  407   0.915   1.951   1.402
  595SOL    HW1  408   0.940   1.931   1.307
  595SOL    HW2  409   0.987   2.007   1.444
  596SOL     OW  410   0.980   2.978   1.719
  596SOL    HW1  411   0.881   2.984   1.729
  596SOL    HW2  412   1.003   2.898   1.663
  599SOL     OW  413   1.274   2.248   1.262
  599SOL    HW1  414   1.295   2.322   1.326
  599SOL    HW2  415   1.185   2.265   1.219
  604SOL     OW  416   1.272   3.307   1.142
  604SOL    HW1  417   1.319   3.320   1.229
  604SOL    HW2  418   1.206   3.233   1.151
  608SOL     OW  419   1.587   2.641   1.670
  608SOL    HW1  420   1.495   2.679   1.665
  608SOL    HW2  421   1.647   2.688   1.605
  609SOL     OW  422   1.013   1.967   1.770
  609SOL    HW1  423   1.019   2.052   1.718
  609SOL    HW2  424   1.045   1.891   1.713
  610SOL     OW  425   0.504   1.912   1.740
  610SOL    HW1  426   0.462   1.855   1.670
  610SOL    HW2  427   0.438   1.981   1.772
  612SOL     OW  428   1.360   2.724   1.045
  612SOL    HW1  429   1.285   2.724   0.979
  612SOL    HW2  430   1.397   2.632   1.054
  617SOL     OW  431   1.728   2.797   1.854
  617SOL    HW1  432   1.682   2.790   1.765
  617SOL    HW2  433   1.666   2.841   1.920
  620SOL     OW  434   1.023   2.628   0.966
  620SOL    HW1  435   1.038   2.649   1.062
  620SOL    HW2  436   0.993   2.533   0.957
  622SOL     OW  437   1.859   3.380   1.605
  622SOL    HW1  438   1.873   3.407   1.510
  622SOL    HW2  439   1.942   3.402   1.658
  629SOL     OW  440   1.138   2.242   1.678
  629SOL    HW1  441   1.093   2.305   1.742
  629SOL    HW2  442   1.231   2.273   1.661
  630SOL     OW  443   1.160   2.069   1.477
  630SOL    HW1  444   1.160   2.133   1.554
  630SOL    HW2  445   1.188   2.117   1.394
  634SOL     OW  446   1.002   2.658   1.238
  634SOL    HW1  447   1.043   2.626   1.324
  634SOL    HW2  448   0.906   2.631   1.235
  637SOL     OW  449   1.369   2.812   1.660
  637SOL    HW1  450   1.408   2.901   1.680
  637SOL    HW2  451   1.379   2.792   1.563
  639SOL     OW  452   1.657   2.466   1.206
  639SOL    HW1  453   1.619   2.397   1.268
  639SOL    HW2  454   1.739   2.430   1.162
  641SOL     OW  455   0.671   2.326   1.269
  641SOL    HW1  456   0.637   2.237   1.239
  641SOL    HW2  457   0.697   2.380   1.189
  645SOL     OW  458   1.347   2.921   1.234
  645SOL    HW1  459   1.371   2.858   1.160
  645SOL    HW2  460   1.257   2.961   1.216
  652SOL     OW  461   1.726   1.997   0.523
  652SOL    HW1  462   1.799   1.980   0.456
  652SOL    HW2  463   1.695   1.910   0.561
  658SOL     OW  464   1.650   3.582   1.394
  658SOL    HW1  465   1.703   3.592   1.310
  658SOL    HW2  466   1.623   3.672   1.428
  659SOL     OW  467   1.841   2.037   0.963
  659SOL    HW1  468   1.880   1.952   0.927
  659SOL    HW2  469   1.743   2.039   0.944
  662SOL     OW  470   0.822   2.864   1.372
  662SOL    HW1  471   0.862   2.863   1.280
  662SOL    HW2  472   0.832   2.956   1.412
  666SOL     OW  473   1.614   3.154   1.289
  666SOL    HW1  474   1.674   3.157   1.369
  666SOL    HW2  475   1.539   3.218   1.302
  668SOL     OW  476   1.014   2.098   0.971
  668SOL    HW1  477   1.006   2.062   0.878
  668SOL    HW2  478   1.012   2.022   1.036
  670SOL     OW  479   1.709   2.247   1.381
  670SOL    HW1  480   1.782   2.316   1.385
  670SOL    HW2  481   1.737   2.172   1.322
  673SOL     OW  482   0.672   2.065   1.489
  673SOL    HW1  483   0.762   2.049   1.449
  673SOL    HW2  484   0.680   2.070   1.588
  675SOL     OW  485   1.440   2.718   1.398
  675SOL    HW1  486   1.383   2.770   1.335
  675SOL    HW2  487   1.536   2.730   1.374
  680SOL     OW  488   0.716   2.427   1.708
  680SOL    HW1  489   0.735   2.492   1.782
  680SOL    HW2  490   0.776   2.347   1.717
  681SOL     OW  491   1.450   3.082   1.633
  681SOL    HW1  492   1.441   3.072   1.732
  681SOL    HW2  493   1.546   3.075   1.607
  683SOL     OW  494   1.674   2.745   1.254
  683SOL    HW1  495   1.647   2.656   1.217
  683SOL    HW2  496   1.675   2.813   1.181
  686SOL     OW  497   1.777   2.204   1.642
  686SOL    HW1  498   1.760   2.235   1.548
  686SOL    HW2  499   1.693   2.167   1.680
  687SOL     OW  500   1.730   2.796   1.517
  687SOL    HW1  501   1.768   2.887   1.532
  687SOL    HW2  502   1.722   2.779   1.418
  696SOL     OW  503   1.824   2.054   1.227
  696SOL    HW1  504   1.820   1.964   1.271
  696SOL    HW2  505   1.827   2.043   1.128
  698SOL     OW  506   1.705   3.349   1.104
  698SOL    HW1  507   1.612   3.324   1.077
  698SOL    HW2  508   1.731   3.299   1.186
  701SOL     OW  509   1.424   2.076   1.112
  701SOL    HW1  510   1.476   2.011   1.167
  701SOL    HW2  511   1.375   2.139   1.173
  702SOL     OW  512   1.001   1.896   1.154
  702SOL    HW1  513   0.938   1.824   1.123
  702SOL    HW2  514   1.094   1.860   1.154
  706SOL     OW  515   1.300   2.315   0.691
  706SOL    HW1  516   1.241   2.395   0.695
  706SOL    HW2  517   1.315   2.280   0.784
  707SOL     OW  518   1.593   2.083   0.882
  707SOL    HW1  519   1.509   2.082   0.936
  707SOL    HW2  520   1.595   2.166   0.826
  714SOL     OW  521   1.555   3.373   2.565
  714SOL    HW1  522   1.498   3.357   2.646
  714SOL    HW2  523   1.496   3.383   2.485
  715SOL     OW  524   1.135   2.565   2.579
  715SOL    HW1  525   1.192   2.643   2.554
  715SOL    HW2  526   1.075   2.591   2.655
  716SOL     OW  527   1.755   2.469   2.093
  716SOL    HW1  528   1.743   2.456   1.994
  716SOL    HW2  529   1.725   2.388   2.142
  717SOL     OW  530   0.768   3.006   2.885
  717SOL    HW1  531   0.690   3.023   2.945
  717SOL    HW2  532   0.802   3.093   2.849
  719SOL     OW  533   0.685   2.874   2.527
  719SOL    HW1  534   0.754   2.858   2.597
  719SOL    HW2  535   0.612   2.931   2.565
  722SOL     OW  536   1.460   3.367   3.201
  722SOL    HW1  537   1.484   3.461   3.227
  722SOL    HW2  538   1.444   3.313   3.283
  724SOL     OW  539   1.603   2.309   2.599
  724SOL    HW1  540   1.529   2.355   2.549
  724SOL    HW2  541   1.654   2.377   2.652
  730SOL     OW  542   0.606   2.826   1.985
  730SOL    HW1  543   0.613   2.910   1.931
  730SOL    HW2  544   0.652   2.839   2.073
  731SOL     OW  545   1.594   1.976   3.342
  731SOL    HW1  546   1.576   2.043   3.270
  731SOL    HW2  547   1.591   2.022   3.431
  733SOL     OW  548   1.842   3.629   2.221
  733SOL    HW1  549   1.896   3.600   2.301
  733SOL    HW2  550   1.872   3.719   2.192
  735SOL     OW  551   1.689   2.784   2.474
  735SOL    HW1  552   1.784   2.755   2.482
  735SOL    HW2  553   1.681   2.849   2.399
  736SOL     OW  554   1.641   2.970   2.294
  736SOL    HW1  555   1.727   2.972   2.242
  736SOL    HW2  556   1.655   3.017   2.382
  739SOL     OW  557   1.293   3.090   3.285
  739SOL    HW1  558   1.330   3.017   3.227
  739SOL    HW2  559   1.345   3.095   3.370
  740SOL     OW  560   0.809   1.866   2.364
  740SOL    HW1  561   0.849   1.957   2.355
  740SOL    HW2  562   0.709   1.874   2.370
  742SOL     OW  563   1.525   2.861   2.052
  742SOL    HW1  564   1.462   2.785   2.065
  742SOL    HW2  565   1.573   2.879   2.138
  745SOL     OW  566   1.466   3.279   2.815
  745SOL    HW1  567   1.407   3.285   2.895
  745SOL    HW2  568   1.451   3.191   2.769
  746SOL     OW  569   1.667   3.576   2.434
  746SOL    HW1  570   1.626   3.553   2.346
  746SOL    HW2  571   1.649   3.502   2.499
  747SOL     OW  572   0.598   2.591   2.132
  747SOL    HW1  573   0.622   2.660   2.064
  747SOL    HW2  574   0.520   2.624   2.186
  748SOL     OW  575   1.281   2.207   2.806
  748SOL    HW1  576   1.195   2.157   2.793
  748SOL    HW2  577   1.343   2.153   2.862
  749SOL     OW  578   1.576   3.524   2.169
  749SOL    HW1  579   1.665   3.570   2.172
  749SOL    HW2  580   1.555   3.500   2.074
  751SOL     OW  581   1.394   2.331   3.536
  751SOL    HW1  582   1.374   2.374   3.624
  751SOL    HW2  583   1.472   2.269   3.545
  753SOL     OW  584   0.991   2.272   3.104
  753SOL    HW1  585   0.914   2.306   3.158
  753SOL    HW2  586   0.957   2.221   3.025
  754SOL     OW  587   1.041   2.563   2.291
  754SOL    HW1  588   1.067   2.559   2.387
  754SOL    HW2  589   0.956   2.512   2.277
  757SOL     OW  590   0.865   2.210   2.057
  757SOL    HW1  591   0.924   2.273   2.008
  757SOL    HW2  592   0.884   2.116   2.028
  758SOL     OW  593   1.719   2.447   3.693
  758SOL    HW1  594   1.693   2.536   3.657
  758SOL    HW2  595   1.717   2.379   3.620
  759SOL     OW  596   1.362   3.006   2.407
  759SOL    HW1  597   1.445   2.977   2.359
  759SOL    HW2  598   1.313   3.073   2.351
  760SOL     OW  599   0.550   2.058   2.747
  760SOL    HW1  600   0.545   2.053   2.847
  760SOL    HW2  601   0.552   2.154   2.718
  761SOL     OW  602   1.008   3.318   2.339
  761SOL    HW1  603   0.962   3.390   2.287
  761SOL    HW2  604   1.004   3.338   2.437
  763SOL     OW  605   1.795   2.928   2.735
  763SOL    HW1  606   1.733   2.913   2.659
  763SOL    HW2  607   1.743   2.939   2.820
  766SOL     OW  608   1.458   2.597   2.590
  766SOL    HW1  609   1.453   2.532   2.665
  766SOL    HW2  610   1.538   2.656   2.603
  770SOL     OW  611   1.632   3.239   1.943
  770SOL    HW1  612   1.600   3.333   1.933
  770SOL    HW2  613   1.556   3.176   1.931
  772SOL     OW  614   1.400   1.969   2.288
  772SOL    HW1  615   1.376   1.932   2.198
  772SOL    HW2  616   1.499   1.985   2.292
  776SOL     OW  617   1.547   2.084   3.591
  776SOL    HW1  618   1.542   2.121   3.683
  776SOL    HW2  619   1.475   2.015   3.579
  777SOL     OW  620   0.614   1.984   1.979
  777SOL    HW1  621   0.712   1.962   1.986
  777SOL    HW2  622   0.583   1.967   1.886
  780SOL     OW  623   1.351   2.452   3.295
  780SOL    HW1  624   1.379   2.409   3.380
  780SOL    HW2  625   1.376   2.548   3.296
  782SOL     OW  626   0.922   2.365   2.761
  782SOL    HW1  627   0.897   2.356   2.665
  782SOL    HW2  628   0.970   2.283   2.792
  783SOL     OW  629   0.539   1.926   2.374
  783SOL    HW1  630   0.458   1.927   2.432
  783SOL    HW2  631   0.542   2.009   2.319
  784SOL     OW  632   1.434   3.050   1.903
  784SOL    HW1  633   1.466   2.974   1.960
  784SOL    HW2  634   1.342   3.077   1.933
  786SOL     OW  635   0.935   2.098   2.342
  786SOL    HW1  636   0.887   2.139   2.264
  786SOL    HW2  637   1.034   2.096   2.323
  787SOL     OW  638   1.076   2.545   3.326
  787SOL    HW1  639   0.996   2.484   3.329
  787SOL    HW2  640   1.157   2.492   3.302
  788SOL     OW  641   1.227   3.432   2.655
  788SOL    HW1  642   1.248   3.506   2.590
  788SOL    HW2  643   1.295   3.432   2.728
  790SOL     OW  644   1.271   3.659   2.453
  790SOL    HW1  645   1.315   3.723   2.389
  790SOL    HW2  646   1.221   3.711   2.523
  791SOL     OW  647   1.032   2.411   1.878
  791SOL    HW1  648   0.991   2.493   1.839
  791SOL    HW2  649   1.096   2.437   1.951
  794SOL     OW  650   0.866   2.316   2.504
  794SOL    HW1  651   0.834   2.388   2.442
  794SOL    HW2  652   0.890   2.235   2.451
  795SOL     OW  653   1.017   1.901   2.615
  795SOL    HW1  654   0.945   1.906   2.546
  795SOL    HW2  655   0.993   1.832   2.684
  796SOL     OW  656   1.429   3.035   2.729
  796SOL    HW1  657   1.374   2.951   2.722
  796SOL    HW2  658   1.455   3.064   2.637
  797SOL     OW  659   1.466   2.452   2.854
  797SOL    HW1  660   1.436   2.357   2.861
  797SOL    HW2  661   1.539   2.468   2.920
  798SOL     OW  662   1.857   2.695   2.239
  798SOL    HW1  663   1.899   2.631   2.303
  798SOL    HW2  664   1.819   2.644   2.161
  800SOL     OW  665   1.664   3.142   2.519
  800SOL    HW1  666   1.763   3.150   2.533
  800SOL    HW2  667   1.619   3.226   2.550
  801SOL     OW  668   1.390   2.437   1.940
  801SOL    HW1  669   1.336   2.416   2.021
  801SOL    HW2  670   1.481   2.396   1.949
  802SOL     OW  671   0.527   2.118   2.190
  802SOL    HW1  672   0.554   2.059   2.115
  802SOL    HW2  673   0.527   2.213   2.159
  803SOL     OW  674   1.754   3.085   3.450
  803SOL    HW1  675   1.845   3.046   3.437
  803SOL    HW2  676   1.762   3.181   3.474
  806SOL     OW  677   1.111   3.057   2.962
  806SOL    HW1  678   1.071   3.101   3.043
  806SOL    HW2  679   1.070   3.094   2.879
  807SOL     OW  680   1.638   2.961   2.941
  807SOL    HW1  681   1.643   3.042   3.000
  807SOL    HW2  682   1.552   2.963   2.890
  808SOL     OW  683   0.915   1.951   3.264
  808SOL    HW1  684   0.940   1.931   3.169
  808SOL    HW2  685   0.987   2.007   3.306
  810SOL     OW  686   0.705   2.912   2.230
  810SOL    HW1  687   0.691   2.919   2.329
  810SOL    HW2  688   0.789   2.861   2.212
  812SOL     OW  689   1.274   2.248   3.124
  812SOL    HW1  690   1.295   2.322   3.188
  812SOL    HW2  691   1.185   2.265   3.081
  815SOL     OW  692   0.566   2.399   2.727
  815SOL    HW1  693   0.578   2.465   2.653
  815SOL    HW2  694   0.612   2.433   2.810
  816SOL     OW  695   1.252   3.210   2.250
  816SOL    HW1  696   1.302   3.287   2.290
  816SOL    HW2  697   1.157   3.212   2.282
  817SOL     OW  698   1.272   3.307   3.004
  817SOL    HW1  699   1.319   3.320   3.091
  817SOL    HW2  700   1.206   3.233   3.013
  818SOL     OW  701   1.582   2.501   2.334
  818SOL    HW1  702   1.551   2.562   2.407
  818SOL    HW2  703   1.632   2.553   2.265
  821SOL     OW  704   1.587   2.641   3.532
  821SOL    HW1  705   1.495   2.679   3.527
  821SOL    HW2  706   1.647   2.688   3.467
  825SOL     OW  707   1.360   2.724   2.907
  825SOL    HW1  708   1.285   2.724   2.841
  825SOL    HW2  709   1.397   2.632   2.916
  826SOL     OW  710   1.209   2.387   2.137
  826SOL    HW1  711   1.222   2.303   2.191
  826SOL    HW2  712   1.180   2.461   2.197
  829SOL     OW  713   0.732   2.496   2.926
  829SOL    HW1  714   0.791   2.470   2.850
  829SOL    HW2  715   0.704   2.592   2.915
  830SOL     OW  716   1.728   2.797   3.716
  830SOL    HW1  717   1.682   2.790   3.627
  830SOL    HW2  718   1.666   2.841   3.782
  832SOL     OW  719   1.622   2.229   2.236
  832SOL    HW1  720   1.624   2.153   2.300
  832SOL    HW2  721   1.574   2.306   2.276
  833SOL     OW  722   1.023   2.628   2.828
  833SOL    HW1  723   1.038   2.649   2.924
  833SOL    HW2  724   0.993   2.533   2.819
  835SOL     OW  725   1.859   3.380   3.467
  835SOL    HW1  726   1.873   3.407   3.372
  835SOL    HW2  727   1.942   3.402   3.520
  837SOL     OW  728   1.540   2.136   1.987
  837SOL    HW1  729   1.479   2.061   2.010
  837SOL    HW2  730   1.562   2.188   2.070
  838SOL     OW  731   1.303   2.700   1.904
  838SOL    HW1  732   1.337   2.607   1.919
  838SOL    HW2  733   1.321   2.727   1.809
  839SOL     OW  734   1.068   3.195   2.711
  839SOL    HW1  735   1.075   3.111   2.656
  839SOL    HW2  736   1.130   3.264   2.675
  842SOL     OW  737   1.138   2.242   3.540
  842SOL    HW1  738   1.093   2.305   3.604
  842SOL    HW2  739   1.231   2.273   3.523
  843SOL     OW  740   1.160   2.069   3.339
  843SOL    HW1  741   1.160   2.133   3.416
  843SOL    HW2  742   1.188   2.117   3.256
  847SOL     OW  743   1.002   2.658   3.100
  847SOL    HW1  744   1.043   2.626   3.186
  847SOL    HW2  745   0.906   2.631   3.097
  850SOL     OW  746   1.369   2.812   3.522
  850SOL    HW1  747   1.408   2.901   3.542
  850SOL    HW2  748   1.379   2.792   3.425
  851SOL     OW  749   0.815   2.434   2.187
  851SOL    HW1  750   0.822   2.345   2.141
  851SOL    HW2  751   0.721   2.468   2.179
  852SOL     OW  752   1.657   2.466   3.068
  852SOL    HW1  753   1.619   2.397   3.130
  852SOL    HW2  754   1.739   2.430   3.024
  854SOL     OW  755   0.671   2.326   3.131
  854SOL    HW1  756   0.637   2.237   3.101
  854SOL    HW2  757   0.697   2.380   3.051
  856SOL     OW  758   0.473   2.362   2.053
  856SOL    HW1  759   0.534   2.442   2.057
  856SOL    HW2  760   0.378   2.393   2.060
  858SOL     OW  761   1.347   2.921   3.096
  858SOL    HW1  762   1.371   2.858   3.022
  858SOL    HW2  763   1.257   2.961   3.078
  859SOL     OW  764   1.302   2.717   2.171
  859SOL    HW1  765   1.216   2.686   2.213
  859SOL    HW2  766   1.298   2.703   2.072
  860SOL     OW  767   1.759   3.609   3.016
  860SOL    HW1  768   1.820   3.639   2.943
  860SOL    HW2  769   1.721   3.520   2.994
  864SOL     OW  770   1.726   1.997   2.385
  864SOL    HW1  771   1.799   1.980   2.318
  864SOL    HW2  772   1.695   1.910   2.423
  865SOL     OW  773   1.388   3.435   2.339
  865SOL    HW1  774   1.455   3.447   2.265
  865SOL    HW2  775   1.348   3.524   2.362
  867SOL     OW  776   1.280   2.789   2.534
  867SOL    HW1  777   1.340   2.708   2.536
  867SOL    HW2  778   1.320   2.858   2.474
  871SOL     OW  779   1.841   2.037   2.825
  871SOL    HW1  780   1.880   1.952   2.789
  871SOL    HW2  781   1.743   2.039   2.806
  873SOL     OW  782   1.194   3.474   1.893
  873SOL    HW1  783   1.200   3.381   1.930
  873SOL    HW2  784   1.135   3.474   1.813
  875SOL     OW  785   0.916   2.772   2.153
  875SOL    HW1  786   0.979   2.810   2.085
  875SOL    HW2  787   0.956   2.689   2.192
  876SOL     OW  788   1.504   3.469   1.906
  876SOL    HW1  789   1.412   3.506   1.913
  876SOL    HW2  790   1.542   3.489   1.816
  878SOL     OW  791   1.614   3.154   3.151
  878SOL    HW1  792   1.674   3.157   3.231
  878SOL    HW2  793   1.539   3.218   3.164
  879SOL     OW  794   1.039   2.960   2.558
  879SOL    HW1  795   0.969   2.913   2.612
  879SOL    HW2  796   1.098   2.892   2.515
  880SOL     OW  797   1.014   2.098   2.833
  880SOL    HW1  798   1.006   2.062   2.740
  880SOL    HW2  799   1.012   2.022   2.898
  882SOL     OW  800   1.709   2.247   3.243
  882SOL    HW1  801   1.782   2.316   3.247
  882SOL    HW2  802   1.737   2.172   3.184
  887SOL     OW  803   1.440   2.718   3.260
  887SOL    HW1  804   1.383   2.770   3.197
  887SOL    HW2  805   1.536   2.730   3.236
  889SOL     OW  806   1.183   3.197   1.981
  889SOL    HW1  807   1.084   3.186   1.983
  889SOL    HW2  808   1.217   3.212   2.074
  891SOL     OW  809   1.493   3.629   2.821
  891SOL    HW1  810   1.526   3.693   2.752
  891SOL    HW2  811   1.559   3.623   2.896
  893SOL     OW  812   1.450   3.082   3.495
  893SOL    HW1  813   1.441   3.072   3.594
  893SOL    HW2  814   1.546   3.075   3.469
  895SOL     OW  815   1.674   2.745   3.116
  895SOL    HW1  816   1.647   2.656   3.079
  895SOL    HW2  817   1.675   2.813   3.043
  896SOL     OW  818   1.225   2.187   2.311
  896SOL    HW1  819   1.290   2.113   2.300
  896SOL    HW2  820   1.245   2.237   2.395
  897SOL     OW  821   0.594   2.607   2.514
  897SOL    HW1  822   0.644   2.692   2.495
  897SOL    HW2  823   0.506   2.609   2.466
  898SOL     OW  824   1.777   2.204   3.504
  898SOL    HW1  825   1.760   2.235   3.410
  898SOL    HW2  826   1.693   2.167   3.542
  899SOL     OW  827   1.730   2.796   3.379
  899SOL    HW1  828   1.768   2.887   3.394
  899SOL    HW2  829   1.722   2.779   3.280
  900SOL     OW  830   0.859   3.236   1.878
  900SOL    HW1  831   0.813   3.251   1.966
  900SOL    HW2  832   0.903   3.321   1.848
  902SOL     OW  833   0.859   2.818   2.723
  902SOL    HW1  834   0.913   2.749   2.771
  902SOL    HW2  835   0.827   2.887   2.789
  903SOL     OW  836   1.083   2.846   1.949
  903SOL    HW1  837   1.060   2.899   1.867
  903SOL    HW2  838   1.164   2.790   1.930
  904SOL     OW  839   1.861   3.431   2.713
  904SOL    HW1  840   1.790   3.419   2.643
  904SOL    HW2  841   1.862   3.352   2.773
  908SOL     OW  842   1.824   2.054   3.089
  908SOL    HW1  843   1.820   1.964   3.133
  908SOL    HW2  844   1.827   2.043   2.990
  909SOL     OW  845   0.428   2.286   2.382
  909SOL    HW1  846   0.458   2.214   2.320
  909SOL    HW2  847   0.389   2.246   2.465
  910SOL     OW  848   1.705   3.349   2.966
  910SOL    HW1  849   1.612   3.324   2.939
  910SOL    HW2  850   1.731   3.299   3.048
  913SOL     OW  851   1.424   2.076   2.974
  913SOL    HW1  852   1.476   2.011   3.029
  913SOL    HW2  853   1.375   2.139   3.035
  914SOL     OW  854   1.001   1.896   3.016
  914SOL    HW1  855   0.938   1.824   2.985
  914SOL    HW2  856   1.094   1.860   3.016
  915SOL     OW  857   0.770   3.192   2.163
  915SOL    HW1  858   0.724   3.105   2.180
  915SOL    HW2  859   0.861   3.189   2.204
  917SOL     OW  860   1.352   1.914   2.030
  917SOL    HW1  861   1.387   1.873   1.946
  917SOL    HW2  862   1.262   1.876   2.050
  918SOL     OW  863   1.300   2.315   2.553
  918SOL    HW1  864   1.241   2.395   2.557
  918SOL    HW2  865   1.315   2.280   2.646
  919SOL     OW  866   1.593   2.083   2.744
  919SOL    HW1  867   1.509   2.082   2.798
  919SOL    HW2  868   1.595   2.166   2.688
  965SOL     OW  869   1.540   2.136   3.849
  965SOL    HW1  870   1.479   2.061   3.872
  965SOL    HW2  871   1.562   2.188   3.932
 1126SOL     OW  872   1.726   3.859   2.385
 1126SOL    HW1  873   1.799   3.842   2.318
 1126SOL    HW2  874   1.695   3.772   2.423
 1142SOL     OW  875   1.352   3.776   2.030
 1142SOL    HW1  876   1.387   3.735   1.946
 1142SOL    HW2  877   1.262   3.738   2.050
 1173SOL     OW  878   2.431   1.275   1.165
 1173SOL    HW1  879   2.338   1.268   1.128
 1173SOL    HW2  880   2.442   1.364   1.209
 1177SOL     OW  881   2.630   1.144   1.023
 1177SOL    HW1  882   2.552   1.161   1.083
 1177SOL    HW2  883   2.664   1.231   0.987
 1178SOL     OW  884   2.712   0.798   1.823
 1178SOL    HW1  885   2.708   0.874   1.888
 1178SOL    HW2  886   2.734   0.834   1.732
 1180SOL     OW  887   2.548   1.161   1.803
 1180SOL    HW1  888   2.608   1.240   1.817
 1180SOL    HW2  889   2.462   1.192   1.762
 1181SOL     OW  890   2.197   1.435   1.061
 1181SOL    HW1  891   2.119   1.404   1.008
 1181SOL    HW2  892   2.255   1.493   1.004
 1182SOL     OW  893   3.322   1.505   1.339
 1182SOL    HW1  894   3.346   1.599   1.365
 1182SOL    HW2  895   3.306   1.451   1.421
 1185SOL     OW  896   2.093   1.713   0.483
 1185SOL    HW1  897   2.127   1.790   0.537
 1185SOL    HW2  898   2.137   1.713   0.393
 1186SOL     OW  899   2.989   1.341   1.690
 1186SOL    HW1  900   3.036   1.341   1.778
 1186SOL    HW2  901   2.941   1.254   1.679
 1188SOL     OW  902   2.102   1.091   0.886
 1188SOL    HW1  903   2.116   1.007   0.938
 1188SOL    HW2  904   2.047   1.155   0.941
 1189SOL     OW  905   2.482   1.786   1.439
 1189SOL    HW1  906   2.390   1.769   1.474
 1189SOL    HW2  907   2.510   1.878   1.465
 1197SOL     OW  908   1.975   0.737   1.597
 1197SOL    HW1  909   2.063   0.724   1.642
 1197SOL    HW2  910   1.962   0.834   1.575
 1198SOL     OW  911   2.475   1.365   0.726
 1198SOL    HW1  912   2.426   1.278   0.735
 1198SOL    HW2  913   2.452   1.408   0.639
 1199SOL     OW  914   3.155   1.228   1.423
 1199SOL    HW1  915   3.192   1.155   1.365
 1199SOL    HW2  916   3.207   1.233   1.508
 1201SOL     OW  917   2.059   0.976   1.264
 1201SOL    HW1  918   2.148   0.931   1.250
 1201SOL    HW2  919   1.986   0.911   1.245
 1203SOL     OW  920   3.049   1.792   1.616
 1203SOL    HW1  921   3.073   1.852   1.540
 1203SOL    HW2  922   3.056   1.697   1.586
 1212SOL     OW  923   2.835   0.890   1.572
 1212SOL    HW1  924   2.881   0.806   1.543
 1212SOL    HW2  925   2.779   0.924   1.497
 1216SOL     OW  926   1.992   1.821   1.571
 1216SOL    HW1  927   1.982   1.806   1.670
 1216SOL    HW2  928   1.906   1.857   1.535
 1222SOL     OW  929   2.213   1.801   0.853
 1222SOL    HW1  930   2.263   1.715   0.859
 1222SOL    HW2  931   2.278   1.878   0.850
 1224SOL     OW  932   3.089   1.550   1.506
 1224SOL    HW1  933   3.095   1.473   1.570
 1224SOL    HW2  934   3.037   1.524   1.426
 1227SOL     OW  935   2.323   1.266   1.727
 1227SOL    HW1  936   2.273   1.267   1.641
 1227SOL    HW2  937   2.260   1.248   1.803
 1233SOL     OW  938   2.111   1.785   1.241
 1233SOL    HW1  939   2.168   1.720   1.291
 1233SOL    HW2  940   2.095   1.752   1.148
 1234SOL     OW  941   2.802   1.698   0.904
 1234SOL    HW1  942   2.882   1.641   0.925
 1234SOL    HW2  943   2.753   1.658   0.827
 1239SOL     OW  944   2.750   1.514   1.195
 1239SOL    HW1  945   2.727   1.489   1.101
 1239SOL    HW2  946   2.811   1.445   1.234
 1241SOL     OW  947   2.665   1.402   0.924
 1241SOL    HW1  948   2.755   1.416   0.882
 1241SOL    HW2  949   2.594   1.404   0.853
 1248SOL     OW  950   3.089   1.570   0.793
 1248SOL    HW1  951   3.110   1.644   0.728
 1248SOL    HW2  952   3.157   1.570   0.866
 1249SOL     OW  953   2.321   1.152   0.741
 1249SOL    HW1  954   2.250   1.125   0.806
 1249SOL    HW2  955   2.295   1.124   0.648
 1264SOL     OW  956   2.926   1.347   1.340
 1264SOL    HW1  957   2.846   1.324   1.395
 1264SOL    HW2  958   3.009   1.321   1.389
 1265SOL     OW  959   3.454   1.629   1.625
 1265SOL    HW1  960   3.481   1.663   1.535
 1265SOL    HW2  961   3.533   1.591   1.671
 1266SOL     OW  962   2.973   1.195   1.100
 1266SOL    HW1  963   2.933   1.239   1.181
 1266SOL    HW2  964   2.932   1.232   1.017
 1269SOL     OW  965   2.842   1.116   1.719
 1269SOL    HW1  966   2.743   1.122   1.729
 1269SOL    HW2  967   2.865   1.036   1.663
 1271SOL     OW  968   2.272   0.813   1.251
 1271SOL    HW1  969   2.358   0.825   1.301
 1271SOL    HW2  970   2.230   0.726   1.278
 1273SOL     OW  971   1.926   1.564   1.331
 1273SOL    HW1  972   1.880   1.646   1.297
 1273SOL    HW2  973   2.024   1.583   1.340
 1277SOL     OW  974   3.134   1.445   1.142
 1277SOL    HW1  975   3.181   1.458   1.229
 1277SOL    HW2  976   3.068   1.371   1.151
 1279SOL     OW  977   2.216   1.510   1.329
 1279SOL    HW1  978   2.195   1.466   1.242
 1279SOL    HW2  979   2.313   1.536   1.332
 1280SOL     OW  980   2.264   0.751   1.598
 1280SOL    HW1  981   2.332   0.806   1.551
 1280SOL    HW2  982   2.304   0.663   1.625
 1284SOL     OW  983   2.435   0.870   1.029
 1284SOL    HW1  984   2.479   0.959   1.020
 1284SOL    HW2  985   2.372   0.870   1.106
 1288SOL     OW  986   1.899   1.310   1.282
 1288SOL    HW1  987   1.952   1.261   1.350
 1288SOL    HW2  988   1.921   1.408   1.287
 1294SOL     OW  989   2.842   1.573   1.700
 1294SOL    HW1  990   2.822   1.617   1.612
 1294SOL    HW2  991   2.881   1.482   1.684
 1295SOL     OW  992   3.721   1.518   1.605
 1295SOL    HW1  993   3.735   1.545   1.510
 1295SOL    HW2  994   3.804   1.540   1.658
 1296SOL     OW  995   2.212   0.898   1.804
 1296SOL    HW1  996   2.288   0.942   1.852
 1296SOL    HW2  997   2.247   0.851   1.722
 1299SOL     OW  998   2.930   1.333   0.849
 1299SOL    HW1  999   2.937   1.249   0.794
 1299SOL    HW2 1000   2.992   1.402   0.813
 1305SOL     OW 1001   1.950   1.801   0.927
 1305SOL    HW1 1002   1.908   1.715   0.900
 1305SOL    HW2 1003   2.044   1.804   0.893
 1306SOL     OW 1004   2.366   1.568   0.910
 1306SOL    HW1 1005   2.432   1.642   0.919
 1306SOL    HW2 1006   2.410   1.489   0.868
 1309SOL     OW 1007   2.051   0.520   1.722
 1309SOL    HW1 1008   2.110   0.480   1.652
 1309SOL    HW2 1009   1.993   0.591   1.681
 1310SOL     OW 1010   3.231   0.950   1.660
 1310SOL    HW1 1011   3.270   1.039   1.680
 1310SOL    HW2 1012   3.241   0.930   1.563
 1313SOL     OW 1013   2.114   1.564   1.744
 1313SOL    HW1 1014   2.084   1.621   1.820
 1313SOL    HW2 1015   2.107   1.467   1.770
 1315SOL     OW 1016   2.792   1.678   1.465
 1315SOL    HW1 1017   2.768   1.660   1.370
 1315SOL    HW2 1018   2.822   1.772   1.475
 1317SOL     OW 1019   2.021   1.137   1.466
 1317SOL    HW1 1020   2.043   1.076   1.542
 1317SOL    HW2 1021   2.031   1.088   1.380
 1321SOL     OW 1022   3.114   1.731   1.128
 1321SOL    HW1 1023   3.198   1.736   1.074
 1321SOL    HW2 1024   3.091   1.635   1.146
 1322SOL     OW 1025   1.945   1.258   1.022
 1322SOL    HW1 1026   1.940   1.257   1.122
 1322SOL    HW2 1027   1.862   1.217   0.984
 1323SOL     OW 1028   2.550   1.662   1.716
 1323SOL    HW1 1029   2.494   1.743   1.725
 1323SOL    HW2 1030   2.602   1.666   1.630
 1327SOL     OW 1031   1.992   1.794   1.851
 1327SOL    HW1 1032   1.951   1.720   1.904
 1327SOL    HW2 1033   2.056   1.845   1.909
 1329SOL     OW 1034   2.692   1.273   1.422
 1329SOL    HW1 1035   2.687   1.306   1.517
 1329SOL    HW2 1036   2.606   1.292   1.376
 1331SOL     OW 1037   3.512   1.720   1.394
 1331SOL    HW1 1038   3.565   1.730   1.310
 1331SOL    HW2 1039   3.485   1.810   1.428
 1335SOL     OW 1040   2.684   1.002   1.372
 1335SOL    HW1 1041   2.724   1.001   1.280
 1335SOL    HW2 1042   2.694   1.094   1.412
 1338SOL     OW 1043   2.234   1.288   1.490
 1338SOL    HW1 1044   2.221   1.381   1.456
 1338SOL    HW2 1045   2.150   1.236   1.477
 1345SOL     OW 1046   1.967   1.013   1.726
 1345SOL    HW1 1047   1.890   0.980   1.780
 1345SOL    HW2 1048   2.052   0.983   1.768
 1351SOL     OW 1049   2.475   0.842   1.431
 1351SOL    HW1 1050   2.531   0.923   1.414
 1351SOL    HW2 1051   2.534   0.762   1.434
 1352SOL     OW 1052   3.355   1.767   0.959
 1352SOL    HW1 1053   3.388   1.831   0.890
 1352SOL    HW2 1054   3.421   1.761   1.034
 1353SOL     OW 1055   2.578   0.565   1.708
 1353SOL    HW1 1056   2.597   0.630   1.782
 1353SOL    HW2 1057   2.638   0.485   1.717
 1354SOL     OW 1058   3.312   1.220   1.633
 1354SOL    HW1 1059   3.303   1.210   1.732
 1354SOL    HW2 1060   3.408   1.213   1.607
 1355SOL     OW 1061   2.252   1.741   1.560
 1355SOL    HW1 1062   2.161   1.782   1.558
 1355SOL    HW2 1063   2.245   1.647   1.592
 1362SOL     OW 1064   2.523   1.790   0.953
 1362SOL    HW1 1065   2.477   1.878   0.940
 1362SOL    HW2 1066   2.622   1.802   0.946
 1366SOL     OW 1067   2.083   1.314   1.844
 1366SOL    HW1 1068   2.018   1.241   1.823
 1366SOL    HW2 1069   2.087   1.328   1.942
 1368SOL     OW 1070   2.534   1.391   1.624
 1368SOL    HW1 1071   2.456   1.341   1.662
 1368SOL    HW2 1072   2.531   1.486   1.655
 1373SOL     OW 1073   2.674   1.586   0.687
 1373SOL    HW1 1074   2.706   1.596   0.593
 1373SOL    HW2 1075   2.595   1.524   0.689
 1377SOL     OW 1076   2.480   1.567   1.284
 1377SOL    HW1 1077   2.475   1.649   1.341
 1377SOL    HW2 1078   2.569   1.564   1.239
 1383SOL     OW 1079   2.092   0.628   1.975
 1383SOL    HW1 1080   1.999   0.626   2.012
 1383SOL    HW2 1081   2.093   0.589   1.883
 1386SOL     OW 1082   2.431   1.275   3.027
 1386SOL    HW1 1083   2.338   1.268   2.990
 1386SOL    HW2 1084   2.442   1.364   3.071
 1387SOL     OW 1085   3.417   1.511   2.565
 1387SOL    HW1 1086   3.360   1.495   2.646
 1387SOL    HW2 1087   3.358   1.521   2.485
 1388SOL     OW 1088   2.997   0.703   2.579
 1388SOL    HW1 1089   3.054   0.781   2.554
 1388SOL    HW2 1090   2.937   0.729   2.655
 1390SOL     OW 1091   2.630   1.144   2.885
 1390SOL    HW1 1092   2.552   1.161   2.945
 1390SOL    HW2 1093   2.664   1.231   2.849
 1392SOL     OW 1094   2.547   1.012   2.527
 1392SOL    HW1 1095   2.616   0.996   2.597
 1392SOL    HW2 1096   2.474   1.069   2.565
 1394SOL     OW 1097   2.197   1.435   2.923
 1394SOL    HW1 1098   2.119   1.404   2.870
 1394SOL    HW2 1099   2.255   1.493   2.866
 1395SOL     OW 1100   3.322   1.505   3.201
 1395SOL    HW1 1101   3.346   1.599   3.227
 1395SOL    HW2 1102   3.306   1.451   3.283
 1398SOL     OW 1103   2.093   1.713   2.345
 1398SOL    HW1 1104   2.127   1.790   2.399
 1398SOL    HW2 1105   2.137   1.713   2.255
 1399SOL     OW 1106   2.989   1.341   3.552
 1399SOL    HW1 1107   3.036   1.341   3.640
 1399SOL    HW2 1108   2.941   1.254   3.541
 1400SOL     OW 1109   2.092   1.434   2.400
 1400SOL    HW1 1110   2.066   1.530   2.400
 1400SOL    HW2 1111   2.021   1.380   2.445
 1401SOL     OW 1112   2.102   1.091   2.748
 1401SOL    HW1 1113   2.116   1.007   2.800
 1401SOL    HW2 1114   2.047   1.155   2.803
 1402SOL     OW 1115   2.482   1.786   3.301
 1402SOL    HW1 1116   2.390   1.769   3.336
 1402SOL    HW2 1117   2.510   1.878   3.327
 1403SOL     OW 1118   2.468   0.964   1.985
 1403SOL    HW1 1119   2.475   1.048   1.931
 1403SOL    HW2 1120   2.514   0.977   2.073
 1405SOL     OW 1121   1.984   0.643   2.425
 1405SOL    HW1 1122   1.939   0.555   2.442
 1405SOL    HW2 1123   1.983   0.697   2.509
 1406SOL     OW 1124   3.704   1.767   2.221
 1406SOL    HW1 1125   3.758   1.738   2.301
 1406SOL    HW2 1126   3.734   1.857   2.192
 1407SOL     OW 1127   1.889   1.596   1.979
 1407SOL    HW1 1128   1.870   1.500   2.000
 1407SOL    HW2 1129   1.856   1.654   2.054
 1409SOL     OW 1130   3.503   1.108   2.294
 1409SOL    HW1 1131   3.589   1.110   2.242
 1409SOL    HW2 1132   3.517   1.155   2.382
 1411SOL     OW 1133   2.475   1.365   2.588
 1411SOL    HW1 1134   2.426   1.278   2.597
 1411SOL    HW2 1135   2.452   1.408   2.501
 1412SOL     OW 1136   3.155   1.228   3.285
 1412SOL    HW1 1137   3.192   1.155   3.227
 1412SOL    HW2 1138   3.207   1.233   3.370
 1414SOL     OW 1139   2.059   0.976   3.126
 1414SOL    HW1 1140   2.148   0.931   3.112
 1414SOL    HW2 1141   1.986   0.911   3.107
 1415SOL     OW 1142   3.387   0.999   2.052
 1415SOL    HW1 1143   3.324   0.923   2.065
 1415SOL    HW2 1144   3.435   1.017   2.138
 1416SOL     OW 1145   3.049   1.792   3.478
 1416SOL    HW1 1146   3.073   1.852   3.402
 1416SOL    HW2 1147   3.056   1.697   3.448
 1418SOL     OW 1148   3.328   1.417   2.815
 1418SOL    HW1 1149   3.269   1.423   2.895
 1418SOL    HW2 1150   3.313   1.329   2.769
 1419SOL     OW 1151   3.529   1.714   2.434
 1419SOL    HW1 1152   3.488   1.691   2.346
 1419SOL    HW2 1153   3.511   1.640   2.499
 1420SOL     OW 1154   2.460   0.729   2.132
 1420SOL    HW1 1155   2.484   0.798   2.064
 1420SOL    HW2 1156   2.382   0.762   2.186
 1422SOL     OW 1157   3.438   1.662   2.169
 1422SOL    HW1 1158   3.527   1.708   2.172
 1422SOL    HW2 1159   3.417   1.638   2.074
 1427SOL     OW 1160   2.903   0.701   2.291
 1427SOL    HW1 1161   2.929   0.697   2.387
 1427SOL    HW2 1162   2.818   0.650   2.277
 1428SOL     OW 1163   1.938   0.811   2.651
 1428SOL    HW1 1164   2.037   0.799   2.660
 1428SOL    HW2 1165   1.914   0.906   2.672
 1429SOL     OW 1166   1.992   1.821   3.433
 1429SOL    HW1 1167   1.982   1.806   3.532
 1429SOL    HW2 1168   1.906   1.857   3.397
 1432SOL     OW 1169   3.224   1.144   2.407
 1432SOL    HW1 1170   3.307   1.115   2.359
 1432SOL    HW2 1171   3.175   1.211   2.351
 1434SOL     OW 1172   2.870   1.456   2.339
 1434SOL    HW1 1173   2.824   1.528   2.287
 1434SOL    HW2 1174   2.866   1.476   2.437
 1435SOL     OW 1175   2.213   1.801   2.715
 1435SOL    HW1 1176   2.263   1.715   2.721
 1435SOL    HW2 1177   2.278   1.878   2.712
 1437SOL     OW 1178   3.089   1.550   3.368
 1437SOL    HW1 1179   3.095   1.473   3.432
 1437SOL    HW2 1180   3.037   1.524   3.288
 1438SOL     OW 1181   2.183   0.943   2.104
 1438SOL    HW1 1182   2.265   0.982   2.062
 1438SOL    HW2 1183   2.156   0.861   2.055
 1440SOL     OW 1184   2.323   1.266   3.589
 1440SOL    HW1 1185   2.273   1.267   3.503
 1440SOL    HW2 1186   2.260   1.248   3.665
 1441SOL     OW 1187   2.973   1.776   2.099
 1441SOL    HW1 1188   2.913   1.714   2.149
 1441SOL    HW2 1189   3.004   1.732   2.014
 1443SOL     OW 1190   3.494   1.377   1.943
 1443SOL    HW1 1191   3.462   1.471   1.933
 1443SOL    HW2 1192   3.418   1.314   1.931
 1444SOL     OW 1193   2.326   1.743   2.185
 1444SOL    HW1 1194   2.359   1.782   2.271
 1444SOL    HW2 1195   2.402   1.736   2.120
 1446SOL     OW 1196   2.111   1.785   3.103
 1446SOL    HW1 1197   2.168   1.720   3.153
 1446SOL    HW2 1198   2.095   1.752   3.010
 1447SOL     OW 1199   2.802   1.698   2.766
 1447SOL    HW1 1200   2.882   1.641   2.787
 1447SOL    HW2 1201   2.753   1.658   2.689
 1448SOL     OW 1202   2.244   0.700   2.342
 1448SOL    HW1 1203   2.289   0.610   2.339
 1448SOL    HW2 1204   2.150   0.689   2.375
 1452SOL     OW 1205   2.750   1.514   3.057
 1452SOL    HW1 1206   2.727   1.489   2.963
 1452SOL    HW2 1207   2.811   1.445   3.096
 1454SOL     OW 1208   2.665   1.402   2.786
 1454SOL    HW1 1209   2.755   1.416   2.744
 1454SOL    HW2 1210   2.594   1.404   2.715
 1457SOL     OW 1211   3.296   1.188   1.903
 1457SOL    HW1 1212   3.328   1.112   1.960
 1457SOL    HW2 1213   3.204   1.215   1.933
 1461SOL     OW 1214   3.089   1.570   2.655
 1461SOL    HW1 1215   3.110   1.644   2.590
 1461SOL    HW2 1216   3.157   1.570   2.728
 1462SOL     OW 1217   2.321   1.152   2.603
 1462SOL    HW1 1218   2.250   1.125   2.668
 1462SOL    HW2 1219   2.295   1.124   2.510
 1463SOL     OW 1220   3.133   1.797   2.453
 1463SOL    HW1 1221   3.177   1.861   2.389
 1463SOL    HW2 1222   3.083   1.849   2.523
 1469SOL     OW 1223   3.291   1.173   2.729
 1469SOL    HW1 1224   3.236   1.089   2.722
 1469SOL    HW2 1225   3.317   1.202   2.637
 1472SOL     OW 1226   2.350   1.385   2.036
 1472SOL    HW1 1227   2.263   1.370   2.083
 1472SOL    HW2 1228   2.333   1.411   1.941
 1473SOL     OW 1229   3.526   1.280   2.519
 1473SOL    HW1 1230   3.625   1.288   2.533
 1473SOL    HW2 1231   3.481   1.364   2.550
 1477SOL     OW 1232   2.926   1.347   3.202
 1477SOL    HW1 1233   2.846   1.324   3.257
 1477SOL    HW2 1234   3.009   1.321   3.251
 1479SOL     OW 1235   2.973   1.195   2.962
 1479SOL    HW1 1236   2.933   1.239   3.043
 1479SOL    HW2 1237   2.932   1.232   2.879
 1483SOL     OW 1238   2.567   1.050   2.230
 1483SOL    HW1 1239   2.553   1.057   2.329
 1483SOL    HW2 1240   2.651   0.999   2.212
 1484SOL     OW 1241   2.272   0.813   3.113
 1484SOL    HW1 1242   2.358   0.825   3.163
 1484SOL    HW2 1243   2.230   0.726   3.140
 1486SOL     OW 1244   1.926   1.564   3.193
 1486SOL    HW1 1245   1.880   1.646   3.159
 1486SOL    HW2 1246   2.024   1.583   3.202
 1487SOL     OW 1247   2.229   1.100   2.363
 1487SOL    HW1 1248   2.222   1.183   2.307
 1487SOL    HW2 1249   2.233   1.020   2.303
 1488SOL     OW 1250   2.428   0.537   2.727
 1488SOL    HW1 1251   2.440   0.603   2.653
 1488SOL    HW2 1252   2.474   0.571   2.810
 1489SOL     OW 1253   3.114   1.348   2.250
 1489SOL    HW1 1254   3.164   1.425   2.290
 1489SOL    HW2 1255   3.019   1.350   2.282
 1490SOL     OW 1256   3.134   1.445   3.004
 1490SOL    HW1 1257   3.181   1.458   3.091
 1490SOL    HW2 1258   3.068   1.371   3.013
 1492SOL     OW 1259   2.216   1.510   3.191
 1492SOL    HW1 1260   2.195   1.466   3.104
 1492SOL    HW2 1261   2.313   1.536   3.194
 1497SOL     OW 1262   2.435   0.870   2.891
 1497SOL    HW1 1263   2.479   0.959   2.882
 1497SOL    HW2 1264   2.372   0.870   2.968
 1501SOL     OW 1265   1.899   1.310   3.144
 1501SOL    HW1 1266   1.952   1.261   3.212
 1501SOL    HW2 1267   1.921   1.408   3.149
 1502SOL     OW 1268   2.594   0.634   2.926
 1502SOL    HW1 1269   2.653   0.608   2.850
 1502SOL    HW2 1270   2.566   0.730   2.915
 1506SOL     OW 1271   2.885   0.766   2.828
 1506SOL    HW1 1272   2.900   0.787   2.924
 1506SOL    HW2 1273   2.855   0.671   2.819
 1507SOL     OW 1274   2.842   1.573   3.562
 1507SOL    HW1 1275   2.822   1.617   3.474
 1507SOL    HW2 1276   2.881   1.482   3.546
 1511SOL     OW 1277   3.165   0.838   1.904
 1511SOL    HW1 1278   3.199   0.745   1.919
 1511SOL    HW2 1279   3.183   0.865   1.809
 1512SOL     OW 1280   2.930   1.333   2.711
 1512SOL    HW1 1281   2.937   1.249   2.656
 1512SOL    HW2 1282   2.992   1.402   2.675
 1513SOL     OW 1283   2.181   0.810   2.811
 1513SOL    HW1 1284   2.274   0.846   2.816
 1513SOL    HW2 1285   2.175   0.725   2.863
 1517SOL     OW 1286   1.870   1.326   2.062
 1517SOL    HW1 1287   1.777   1.347   2.031
 1517SOL    HW2 1288   1.880   1.227   2.075
 1518SOL     OW 1289   1.950   1.801   2.789
 1518SOL    HW1 1290   1.908   1.715   2.762
 1518SOL    HW2 1291   2.044   1.804   2.755
 1519SOL     OW 1292   2.366   1.568   2.772
 1519SOL    HW1 1293   2.432   1.642   2.781
 1519SOL    HW2 1294   2.410   1.489   2.730
 1520SOL     OW 1295   2.864   0.796   3.100
 1520SOL    HW1 1296   2.905   0.764   3.186
 1520SOL    HW2 1297   2.768   0.769   3.097
 1524SOL     OW 1298   2.677   0.572   2.187
 1524SOL    HW1 1299   2.684   0.483   2.141
 1524SOL    HW2 1300   2.583   0.606   2.179
 1526SOL     OW 1301   2.114   1.564   3.606
 1526SOL    HW1 1302   2.084   1.621   3.682
 1526SOL    HW2 1303   2.107   1.467   3.632
 1528SOL     OW 1304   2.792   1.678   3.327
 1528SOL    HW1 1305   2.768   1.660   3.232
 1528SOL    HW2 1306   2.822   1.772   3.337
 1529SOL     OW 1307   2.335   0.500   2.053
 1529SOL    HW1 1308   2.396   0.580   2.057
 1529SOL    HW2 1309   2.240   0.531   2.060
 1530SOL     OW 1310   2.021   1.137   3.328
 1530SOL    HW1 1311   2.043   1.076   3.404
 1530SOL    HW2 1312   2.031   1.088   3.242
 1531SOL     OW 1313   3.209   1.059   3.096
 1531SOL    HW1 1314   3.233   0.996   3.022
 1531SOL    HW2 1315   3.119   1.099   3.078
 1532SOL     OW 1316   3.164   0.855   2.171
 1532SOL    HW1 1317   3.078   0.824   2.213
 1532SOL    HW2 1318   3.160   0.841   2.072
 1533SOL     OW 1319   3.621   1.747   3.016
 1533SOL    HW1 1320   3.682   1.777   2.943
 1533SOL    HW2 1321   3.583   1.658   2.994
 1534SOL     OW 1322   3.114   1.731   2.990
 1534SOL    HW1 1323   3.198   1.736   2.936
 1534SOL    HW2 1324   3.091   1.635   3.008
 1535SOL     OW 1325   1.945   1.258   2.884
 1535SOL    HW1 1326   1.940   1.257   2.984
 1535SOL    HW2 1327   1.862   1.217   2.846
 1536SOL     OW 1328   2.550   1.662   3.578
 1536SOL    HW1 1329   2.494   1.743   3.587
 1536SOL    HW2 1330   2.602   1.666   3.492
 1538SOL     OW 1331   3.250   1.573   2.339
 1538SOL    HW1 1332   3.317   1.585   2.265
 1538SOL    HW2 1333   3.210   1.662   2.362
 1539SOL     OW 1334   1.992   1.794   3.713
 1539SOL    HW1 1335   1.951   1.720   3.766
 1539SOL    HW2 1336   2.056   1.845   3.771
 1540SOL     OW 1337   3.142   0.927   2.534
 1540SOL    HW1 1338   3.202   0.846   2.536
 1540SOL    HW2 1339   3.182   0.996   2.474
 1541SOL     OW 1340   2.692   1.273   3.284
 1541SOL    HW1 1341   2.687   1.306   3.379
 1541SOL    HW2 1342   2.606   1.292   3.238
 1542SOL     OW 1343   2.534   1.616   2.016
 1542SOL    HW1 1344   2.543   1.626   1.917
 1542SOL    HW2 1345   2.494   1.527   2.037
 1543SOL     OW 1346   3.512   1.720   3.256
 1543SOL    HW1 1347   3.565   1.730   3.172
 1543SOL    HW2 1348   3.485   1.810   3.290
 1546SOL     OW 1349   3.056   1.612   1.893
 1546SOL    HW1 1350   3.062   1.519   1.930
 1546SOL    HW2 1351   2.997   1.612   1.813
 1547SOL     OW 1352   2.684   1.002   3.234
 1547SOL    HW1 1353   2.724   1.001   3.142
 1547SOL    HW2 1354   2.694   1.094   3.274
 1548SOL     OW 1355   2.778   0.910   2.153
 1548SOL    HW1 1356   2.841   0.948   2.085
 1548SOL    HW2 1357   2.818   0.827   2.192
 1549SOL     OW 1358   3.366   1.607   1.906
 1549SOL    HW1 1359   3.274   1.644   1.913
 1549SOL    HW2 1360   3.404   1.627   1.816
 1550SOL     OW 1361   2.234   1.288   3.352
 1550SOL    HW1 1362   2.221   1.381   3.318
 1550SOL    HW2 1363   2.150   1.236   3.339
 1552SOL     OW 1364   2.901   1.098   2.558
 1552SOL    HW1 1365   2.831   1.051   2.612
 1552SOL    HW2 1366   2.960   1.030   2.515
 1554SOL     OW 1367   2.452   1.487   2.353
 1554SOL    HW1 1368   2.494   1.429   2.283
 1554SOL    HW2 1369   2.408   1.566   2.309
 1556SOL     OW 1370   2.117   1.348   2.152
 1556SOL    HW1 1371   2.021   1.349   2.125
 1556SOL    HW2 1372   2.129   1.401   2.236
 1562SOL     OW 1373   3.045   1.335   1.981
 1562SOL    HW1 1374   2.946   1.324   1.983
 1562SOL    HW2 1375   3.079   1.350   2.074
 1563SOL     OW 1376   2.475   0.842   3.293
 1563SOL    HW1 1377   2.531   0.923   3.276
 1563SOL    HW2 1378   2.534   0.762   3.296
 1564SOL     OW 1379   3.355   1.767   2.821
 1564SOL    HW1 1380   3.388   1.831   2.752
 1564SOL    HW2 1381   3.421   1.761   2.896
 1567SOL     OW 1382   2.252   1.741   3.422
 1567SOL    HW1 1383   2.161   1.782   3.420
 1567SOL    HW2 1384   2.245   1.647   3.454
 1570SOL     OW 1385   2.456   0.745   2.514
 1570SOL    HW1 1386   2.506   0.830   2.495
 1570SOL    HW2 1387   2.368   0.747   2.466
 1573SOL     OW 1388   2.721   1.374   1.878
 1573SOL    HW1 1389   2.675   1.389   1.966
 1573SOL    HW2 1390   2.765   1.459   1.848
 1574SOL     OW 1391   2.523   1.790   2.815
 1574SOL    HW1 1392   2.477   1.878   2.802
 1574SOL    HW2 1393   2.622   1.802   2.808
 1575SOL     OW 1394   2.721   0.956   2.723
 1575SOL    HW1 1395   2.775   0.887   2.771
 1575SOL    HW2 1396   2.689   1.025   2.789
 1576SOL     OW 1397   2.945   0.984   1.949
 1576SOL    HW1 1398   2.922   1.037   1.867
 1576SOL    HW2 1399   3.026   0.928   1.930
 1577SOL     OW 1400   3.723   1.569   2.713
 1577SOL    HW1 1401   3.652   1.557   2.643
 1577SOL    HW2 1402   3.724   1.490   2.773
 1578SOL     OW 1403   2.083   1.314   3.706
 1578SOL    HW1 1404   2.018   1.241   3.685
 1578SOL    HW2 1405   2.087   1.328   3.804
 1579SOL     OW 1406   1.941   1.240   2.515
 1579SOL    HW1 1407   1.940   1.193   2.603
 1579SOL    HW2 1408   2.023   1.212   2.464
 1580SOL     OW 1409   2.534   1.391   3.486
 1580SOL    HW1 1410   2.456   1.341   3.524
 1580SOL    HW2 1411   2.531   1.486   3.517
 1582SOL     OW 1412   2.290   0.424   2.382
 1582SOL    HW1 1413   2.320   0.352   2.320
 1582SOL    HW2 1414   2.251   0.384   2.465
 1583SOL     OW 1415   3.567   1.487   2.966
 1583SOL    HW1 1416   3.474   1.462   2.939
 1583SOL    HW2 1417   3.593   1.437   3.048
 1585SOL     OW 1418   2.674   1.586   2.549
 1585SOL    HW1 1419   2.706   1.596   2.455
 1585SOL    HW2 1420   2.595   1.524   2.551
 1588SOL     OW 1421   2.632   1.330   2.163
 1588SOL    HW1 1422   2.586   1.243   2.180
 1588SOL    HW2 1423   2.723   1.327   2.204
 1589SOL     OW 1424   2.480   1.567   3.146
 1589SOL    HW1 1425   2.475   1.649   3.203
 1589SOL    HW2 1426   2.569   1.564   3.101
 1593SOL     OW 1427   1.901   1.077   2.162
 1593SOL    HW1 1428   2.000   1.066   2.153
 1593SOL    HW2 1429   1.861   0.991   2.194
 1594SOL     OW 1430   2.737   1.646   2.199
 1594SOL    HW1 1431   2.660   1.611   2.145
 1594SOL    HW2 1432   2.705   1.717   2.261
 1602SOL     OW 1433   1.889   1.596   3.841
 1602SOL    HW1 1434   1.870   1.500   3.862
 1602SOL    HW2 1435   1.856   1.654   3.916
 1666SOL     OW 1436   2.087   2.137   0.996
 1666SOL    HW1 1437   2.122   2.120   1.088
 1666SOL    HW2 1438   1.999   2.092   0.984
 1667SOL     OW 1439   1.881   2.230   0.647
 1667SOL    HW1 1440   1.799   2.273   0.686
 1667SOL    HW2 1441   1.853   2.157   0.584
 1668SOL     OW 1442   2.431   3.137   1.165
 1668SOL    HW1 1443   2.338   3.130   1.128
 1668SOL    HW2 1444   2.442   3.226   1.209
 1670SOL     OW 1445   2.997   2.565   0.717
 1670SOL    HW1 1446   3.054   2.643   0.692
 1670SOL    HW2 1447   2.937   2.591   0.793
 1672SOL     OW 1448   2.630   3.006   1.023
 1672SOL    HW1 1449   2.552   3.023   1.083
 1672SOL    HW2 1450   2.664   3.093   0.987
 1673SOL     OW 1451   2.712   2.660   1.823
 1673SOL    HW1 1452   2.708   2.736   1.888
 1673SOL    HW2 1453   2.734   2.696   1.732
 1674SOL     OW 1454   2.547   2.874   0.665
 1674SOL    HW1 1455   2.616   2.858   0.735
 1674SOL    HW2 1456   2.474   2.931   0.703
 1675SOL     OW 1457   2.548   3.023   1.803
 1675SOL    HW1 1458   2.608   3.102   1.817
 1675SOL    HW2 1459   2.462   3.054   1.762
 1676SOL     OW 1460   2.197   3.297   1.061
 1676SOL    HW1 1461   2.119   3.266   1.008
 1676SOL    HW2 1462   2.255   3.355   1.004
 1678SOL     OW 1463   2.300   2.254   1.499
 1678SOL    HW1 1464   2.382   2.198   1.508
 1678SOL    HW2 1465   2.219   2.196   1.503
 1681SOL     OW 1466   2.989   3.203   1.690
 1681SOL    HW1 1467   3.036   3.203   1.778
 1681SOL    HW2 1468   2.941   3.116   1.679
 1683SOL     OW 1469   2.102   2.953   0.886
 1683SOL    HW1 1470   2.116   2.869   0.938
 1683SOL    HW2 1471   2.047   3.017   0.941
 1684SOL     OW 1472   2.482   3.648   1.439
 1684SOL    HW1 1473   2.390   3.631   1.474
 1684SOL    HW2 1474   2.510   3.740   1.465
 1686SOL     OW 1475   3.456   1.976   1.480
 1686SOL    HW1 1476   3.438   2.043   1.408
 1686SOL    HW2 1477   3.453   2.022   1.569
 1687SOL     OW 1478   1.984   2.505   0.563
 1687SOL    HW1 1479   1.939   2.417   0.580
 1687SOL    HW2 1480   1.983   2.559   0.647
 1692SOL     OW 1481   1.975   2.599   1.597
 1692SOL    HW1 1482   2.063   2.586   1.642
 1692SOL    HW2 1483   1.962   2.696   1.575
 1694SOL     OW 1484   3.155   3.090   1.423
 1694SOL    HW1 1485   3.192   3.017   1.365
 1694SOL    HW2 1486   3.207   3.095   1.508
 1695SOL     OW 1487   2.671   1.866   0.502
 1695SOL    HW1 1488   2.711   1.957   0.493
 1695SOL    HW2 1489   2.571   1.874   0.508
 1696SOL     OW 1490   2.059   2.838   1.264
 1696SOL    HW1 1491   2.148   2.793   1.250
 1696SOL    HW2 1492   1.986   2.773   1.245
 1698SOL     OW 1493   3.049   3.654   1.616
 1698SOL    HW1 1494   3.073   3.714   1.540
 1698SOL    HW2 1495   3.056   3.559   1.586
 1699SOL     OW 1496   2.179   2.113   1.801
 1699SOL    HW1 1497   2.250   2.184   1.807
 1699SOL    HW2 1498   2.091   2.152   1.829
 1703SOL     OW 1499   3.143   2.207   0.944
 1703SOL    HW1 1500   3.057   2.157   0.931
 1703SOL    HW2 1501   3.205   2.153   1.000
 1705SOL     OW 1502   2.669   2.467   1.465
 1705SOL    HW1 1503   2.622   2.464   1.554
 1705SOL    HW2 1504   2.618   2.412   1.399
 1706SOL     OW 1505   3.256   2.331   1.674
 1706SOL    HW1 1506   3.236   2.374   1.762
 1706SOL    HW2 1507   3.334   2.269   1.683
 1707SOL     OW 1508   2.835   2.752   1.572
 1707SOL    HW1 1509   2.881   2.668   1.543
 1707SOL    HW2 1510   2.779   2.786   1.497
 1708SOL     OW 1511   2.853   2.272   1.242
 1708SOL    HW1 1512   2.776   2.306   1.296
 1708SOL    HW2 1513   2.819   2.221   1.163
 1710SOL     OW 1514   1.938   2.673   0.789
 1710SOL    HW1 1515   2.037   2.661   0.798
 1710SOL    HW2 1516   1.914   2.768   0.810
 1711SOL     OW 1517   1.992   3.683   1.571
 1711SOL    HW1 1518   1.982   3.668   1.670
 1711SOL    HW2 1519   1.906   3.719   1.535
 1713SOL     OW 1520   3.581   2.447   1.831
 1713SOL    HW1 1521   3.555   2.536   1.795
 1713SOL    HW2 1522   3.579   2.379   1.758
 1715SOL     OW 1523   2.412   2.058   0.885
 1715SOL    HW1 1524   2.407   2.053   0.985
 1715SOL    HW2 1525   2.414   2.154   0.856
 1719SOL     OW 1526   3.089   3.412   1.506
 1719SOL    HW1 1527   3.095   3.335   1.570
 1719SOL    HW2 1528   3.037   3.386   1.426
 1722SOL     OW 1529   2.323   3.128   1.727
 1722SOL    HW1 1530   2.273   3.129   1.641
 1722SOL    HW2 1531   2.260   3.110   1.803
 1724SOL     OW 1532   2.064   2.147   1.498
 1724SOL    HW1 1533   1.984   2.207   1.485
 1724SOL    HW2 1534   2.054   2.098   1.584
 1728SOL     OW 1535   2.111   3.647   1.241
 1728SOL    HW1 1536   2.168   3.582   1.291
 1728SOL    HW2 1537   2.095   3.614   1.148
 1730SOL     OW 1538   2.244   2.562   0.480
 1730SOL    HW1 1539   2.289   2.472   0.477
 1730SOL    HW2 1540   2.150   2.551   0.513
 1731SOL     OW 1541   3.409   2.084   1.729
 1731SOL    HW1 1542   3.404   2.121   1.821
 1731SOL    HW2 1543   3.337   2.015   1.717
 1733SOL     OW 1544   2.643   2.126   1.749
 1733SOL    HW1 1545   2.710   2.065   1.792
 1733SOL    HW2 1546   2.570   2.145   1.814
 1734SOL     OW 1547   2.750   3.376   1.195
 1734SOL    HW1 1548   2.727   3.351   1.101
 1734SOL    HW2 1549   2.811   3.307   1.234
 1735SOL     OW 1550   3.213   2.452   1.433
 1735SOL    HW1 1551   3.241   2.409   1.518
 1735SOL    HW2 1552   3.238   2.548   1.434
 1736SOL     OW 1553   2.665   3.264   0.924
 1736SOL    HW1 1554   2.755   3.278   0.882
 1736SOL    HW2 1555   2.594   3.266   0.853
 1737SOL     OW 1556   2.784   2.365   0.899
 1737SOL    HW1 1557   2.759   2.356   0.803
 1737SOL    HW2 1558   2.832   2.283   0.930
 1738SOL     OW 1559   2.401   1.926   0.512
 1738SOL    HW1 1560   2.320   1.927   0.570
 1738SOL    HW2 1561   2.404   2.009   0.457
 1742SOL     OW 1562   2.938   2.545   1.464
 1742SOL    HW1 1563   2.858   2.484   1.467
 1742SOL    HW2 1564   3.019   2.492   1.440
 1744SOL     OW 1565   2.321   3.014   0.741
 1744SOL    HW1 1566   2.250   2.987   0.806
 1744SOL    HW2 1567   2.295   2.986   0.648
 1747SOL     OW 1568   1.940   2.418   1.386
 1747SOL    HW1 1569   2.032   2.417   1.345
 1747SOL    HW2 1570   1.934   2.492   1.453
 1748SOL     OW 1571   2.423   2.084   1.147
 1748SOL    HW1 1572   2.461   2.000   1.184
 1748SOL    HW2 1573   2.335   2.103   1.191
 1749SOL     OW 1574   2.728   2.316   0.642
 1749SOL    HW1 1575   2.696   2.388   0.580
 1749SOL    HW2 1576   2.752   2.235   0.589
 1750SOL     OW 1577   2.879   1.901   0.753
 1750SOL    HW1 1578   2.807   1.906   0.684
 1750SOL    HW2 1579   2.855   1.832   0.822
 1752SOL     OW 1580   3.328   2.452   0.992
 1752SOL    HW1 1581   3.298   2.357   0.999
 1752SOL    HW2 1582   3.401   2.468   1.058
 1758SOL     OW 1583   3.616   3.085   1.588
 1758SOL    HW1 1584   3.707   3.046   1.575
 1758SOL    HW2 1585   3.624   3.181   1.612
 1759SOL     OW 1586   2.926   3.209   1.340
 1759SOL    HW1 1587   2.846   3.186   1.395
 1759SOL    HW2 1588   3.009   3.183   1.389
 1761SOL     OW 1589   2.973   3.057   1.100
 1761SOL    HW1 1590   2.933   3.101   1.181
 1761SOL    HW2 1591   2.932   3.094   1.017
 1763SOL     OW 1592   2.777   1.951   1.402
 1763SOL    HW1 1593   2.802   1.931   1.307
 1763SOL    HW2 1594   2.849   2.007   1.444
 1764SOL     OW 1595   2.842   2.978   1.719
 1764SOL    HW1 1596   2.743   2.984   1.729
 1764SOL    HW2 1597   2.865   2.898   1.663
 1766SOL     OW 1598   2.272   2.675   1.251
 1766SOL    HW1 1599   2.358   2.687   1.301
 1766SOL    HW2 1600   2.230   2.588   1.278
 1767SOL     OW 1601   3.136   2.248   1.262
 1767SOL    HW1 1602   3.157   2.322   1.326
 1767SOL    HW2 1603   3.047   2.265   1.219
 1768SOL     OW 1604   1.926   3.426   1.331
 1768SOL    HW1 1605   1.880   3.508   1.297
 1768SOL    HW2 1606   2.024   3.445   1.340
 1770SOL     OW 1607   2.428   2.399   0.865
 1770SOL    HW1 1608   2.440   2.465   0.791
 1770SOL    HW2 1609   2.474   2.433   0.948
 1772SOL     OW 1610   3.134   3.307   1.142
 1772SOL    HW1 1611   3.181   3.320   1.229
 1772SOL    HW2 1612   3.068   3.233   1.151
 1774SOL     OW 1613   2.216   3.372   1.329
 1774SOL    HW1 1614   2.195   3.328   1.242
 1774SOL    HW2 1615   2.313   3.398   1.332
 1775SOL     OW 1616   2.264   2.613   1.598
 1775SOL    HW1 1617   2.332   2.668   1.551
 1775SOL    HW2 1618   2.304   2.525   1.625
 1776SOL     OW 1619   3.449   2.641   1.670
 1776SOL    HW1 1620   3.357   2.679   1.665
 1776SOL    HW2 1621   3.509   2.688   1.605
 1777SOL     OW 1622   2.875   1.967   1.770
 1777SOL    HW1 1623   2.881   2.052   1.718
 1777SOL    HW2 1624   2.907   1.891   1.713
 1778SOL     OW 1625   2.366   1.912   1.740
 1778SOL    HW1 1626   2.324   1.855   1.670
 1778SOL    HW2 1627   2.300   1.981   1.772
 1779SOL     OW 1628   2.435   2.732   1.029
 1779SOL    HW1 1629   2.479   2.821   1.020
 1779SOL    HW2 1630   2.372   2.732   1.106
 1780SOL     OW 1631   3.222   2.724   1.045
 1780SOL    HW1 1632   3.147   2.724   0.979
 1780SOL    HW2 1633   3.259   2.632   1.054
 1782SOL     OW 1634   2.169   2.075   1.231
 1782SOL    HW1 1635   2.146   2.112   1.321
 1782SOL    HW2 1636   2.139   1.980   1.225
 1783SOL     OW 1637   1.899   3.172   1.282
 1783SOL    HW1 1638   1.952   3.123   1.350
 1783SOL    HW2 1639   1.921   3.270   1.287
 1784SOL     OW 1640   2.594   2.496   1.064
 1784SOL    HW1 1641   2.653   2.470   0.988
 1784SOL    HW2 1642   2.566   2.592   1.053
 1785SOL     OW 1643   3.590   2.797   1.854
 1785SOL    HW1 1644   3.544   2.790   1.765
 1785SOL    HW2 1645   3.528   2.841   1.920
 1786SOL     OW 1646   2.169   1.925   0.618
 1786SOL    HW1 1647   2.158   2.019   0.651
 1786SOL    HW2 1648   2.164   1.862   0.695
 1788SOL     OW 1649   2.885   2.628   0.966
 1788SOL    HW1 1650   2.900   2.649   1.062
 1788SOL    HW2 1651   2.855   2.533   0.957
 1789SOL     OW 1652   2.842   3.435   1.700
 1789SOL    HW1 1653   2.822   3.479   1.612
 1789SOL    HW2 1654   2.881   3.344   1.684
 1791SOL     OW 1655   2.212   2.760   1.804
 1791SOL    HW1 1656   2.288   2.804   1.852
 1791SOL    HW2 1657   2.247   2.713   1.722
 1795SOL     OW 1658   2.181   2.672   0.949
 1795SOL    HW1 1659   2.274   2.708   0.954
 1795SOL    HW2 1660   2.175   2.587   1.001
 1796SOL     OW 1661   2.201   2.371   1.006
 1796SOL    HW1 1662   2.149   2.288   0.989
 1796SOL    HW2 1663   2.278   2.376   0.942
 1797SOL     OW 1664   3.000   2.242   1.678
 1797SOL    HW1 1665   2.955   2.305   1.742
 1797SOL    HW2 1666   3.093   2.273   1.661
 1798SOL     OW 1667   3.022   2.069   1.477
 1798SOL    HW1 1668   3.022   2.133   1.554
 1798SOL    HW2 1669   3.050   2.117   1.394
 1801SOL     OW 1670   2.366   3.430   0.910
 1801SOL    HW1 1671   2.432   3.504   0.919
 1801SOL    HW2 1672   2.410   3.351   0.868
 1802SOL     OW 1673   2.864   2.658   1.238
 1802SOL    HW1 1674   2.905   2.626   1.324
 1802SOL    HW2 1675   2.768   2.631   1.235
 1803SOL     OW 1676   1.902   2.406   1.114
 1803SOL    HW1 1677   1.987   2.373   1.073
 1803SOL    HW2 1678   1.915   2.421   1.212
 1804SOL     OW 1679   2.051   2.382   1.722
 1804SOL    HW1 1680   2.110   2.342   1.652
 1804SOL    HW2 1681   1.993   2.453   1.681
 1805SOL     OW 1682   3.231   2.812   1.660
 1805SOL    HW1 1683   3.270   2.901   1.680
 1805SOL    HW2 1684   3.241   2.792   1.563
 1807SOL     OW 1685   3.519   2.466   1.206
 1807SOL    HW1 1686   3.481   2.397   1.268
 1807SOL    HW2 1687   3.601   2.430   1.162
 1808SOL     OW 1688   2.114   3.426   1.744
 1808SOL    HW1 1689   2.084   3.483   1.820
 1808SOL    HW2 1690   2.107   3.329   1.770
 1809SOL     OW 1691   2.533   2.326   1.269
 1809SOL    HW1 1692   2.499   2.237   1.239
 1809SOL    HW2 1693   2.559   2.380   1.189
 1810SOL     OW 1694   2.792   3.540   1.465
 1810SOL    HW1 1695   2.768   3.522   1.370
 1810SOL    HW2 1696   2.822   3.634   1.475
 1812SOL     OW 1697   2.021   2.999   1.466
 1812SOL    HW1 1698   2.043   2.938   1.542
 1812SOL    HW2 1699   2.031   2.950   1.380
 1813SOL     OW 1700   3.209   2.921   1.234
 1813SOL    HW1 1701   3.233   2.858   1.160
 1813SOL    HW2 1702   3.119   2.961   1.216
 1817SOL     OW 1703   1.945   3.120   1.022
 1817SOL    HW1 1704   1.940   3.119   1.122
 1817SOL    HW2 1705   1.862   3.079   0.984
 1818SOL     OW 1706   2.550   3.524   1.716
 1818SOL    HW1 1707   2.494   3.605   1.725
 1818SOL    HW2 1708   2.602   3.528   1.630
 1822SOL     OW 1709   1.992   3.656   1.851
 1822SOL    HW1 1710   1.951   3.582   1.904
 1822SOL    HW2 1711   2.056   3.707   1.909
 1824SOL     OW 1712   2.692   3.135   1.422
 1824SOL    HW1 1713   2.687   3.168   1.517
 1824SOL    HW2 1714   2.606   3.154   1.376
 1828SOL     OW 1715   2.125   2.188   0.720
 1828SOL    HW1 1716   2.046   2.239   0.686
 1828SOL    HW2 1717   2.116   2.173   0.818
 1830SOL     OW 1718   2.684   2.864   1.372
 1830SOL    HW1 1719   2.724   2.863   1.280
 1830SOL    HW2 1720   2.694   2.956   1.412
 1833SOL     OW 1721   2.234   3.150   1.490
 1833SOL    HW1 1722   2.221   3.243   1.456
 1833SOL    HW2 1723   2.150   3.098   1.477
 1836SOL     OW 1724   2.876   2.098   0.971
 1836SOL    HW1 1725   2.868   2.062   0.878
 1836SOL    HW2 1726   2.874   2.022   1.036
 1838SOL     OW 1727   3.571   2.247   1.381
 1838SOL    HW1 1728   3.644   2.316   1.385
 1838SOL    HW2 1729   3.599   2.172   1.322
 1840SOL     OW 1730   1.967   2.875   1.726
 1840SOL    HW1 1731   1.890   2.842   1.780
 1840SOL    HW2 1732   2.052   2.845   1.768
 1841SOL     OW 1733   2.534   2.065   1.489
 1841SOL    HW1 1734   2.624   2.049   1.449
 1841SOL    HW2 1735   2.542   2.070   1.588
 1843SOL     OW 1736   3.302   2.718   1.398
 1843SOL    HW1 1737   3.245   2.770   1.335
 1843SOL    HW2 1738   3.398   2.730   1.374
 1846SOL     OW 1739   2.475   2.704   1.431
 1846SOL    HW1 1740   2.531   2.785   1.414
 1846SOL    HW2 1741   2.534   2.624   1.434
 1848SOL     OW 1742   2.578   2.427   1.708
 1848SOL    HW1 1743   2.597   2.492   1.782
 1848SOL    HW2 1744   2.638   2.347   1.717
 1849SOL     OW 1745   3.312   3.082   1.633
 1849SOL    HW1 1746   3.303   3.072   1.732
 1849SOL    HW2 1747   3.408   3.075   1.607
 1850SOL     OW 1748   2.252   3.603   1.560
 1850SOL    HW1 1749   2.161   3.644   1.558
 1850SOL    HW2 1750   2.245   3.509   1.592
 1851SOL     OW 1751   3.536   2.745   1.254
 1851SOL    HW1 1752   3.509   2.656   1.217
 1851SOL    HW2 1753   3.537   2.813   1.181
 1853SOL     OW 1754   2.456   2.607   0.652
 1853SOL    HW1 1755   2.506   2.692   0.633
 1853SOL    HW2 1756   2.368   2.609   0.604
 1854SOL     OW 1757   3.639   2.204   1.642
 1854SOL    HW1 1758   3.622   2.235   1.548
 1854SOL    HW2 1759   3.555   2.167   1.680
 1855SOL     OW 1760   3.592   2.796   1.517
 1855SOL    HW1 1761   3.630   2.887   1.532
 1855SOL    HW2 1762   3.584   2.779   1.418
 1858SOL     OW 1763   2.721   2.818   0.861
 1858SOL    HW1 1764   2.775   2.749   0.909
 1858SOL    HW2 1765   2.689   2.887   0.927
 1861SOL     OW 1766   2.083   3.176   1.844
 1861SOL    HW1 1767   2.018   3.103   1.823
 1861SOL    HW2 1768   2.087   3.190   1.942
 1863SOL     OW 1769   2.534   3.253   1.624
 1863SOL    HW1 1770   2.456   3.203   1.662
 1863SOL    HW2 1771   2.531   3.348   1.655
 1864SOL     OW 1772   3.686   2.054   1.227
 1864SOL    HW1 1773   3.682   1.964   1.271
 1864SOL    HW2 1774   3.689   2.043   1.128
 1865SOL     OW 1775   2.290   2.286   0.520
 1865SOL    HW1 1776   2.320   2.214   0.458
 1865SOL    HW2 1777   2.251   2.246   0.603
 1867SOL     OW 1778   2.179   2.409   1.280
 1867SOL    HW1 1779   2.217   2.350   1.352
 1867SOL    HW2 1780   2.219   2.383   1.192
 1869SOL     OW 1781   3.286   2.076   1.112
 1869SOL    HW1 1782   3.338   2.011   1.167
 1869SOL    HW2 1783   3.237   2.139   1.173
 1870SOL     OW 1784   2.863   1.896   1.154
 1870SOL    HW1 1785   2.800   1.824   1.123
 1870SOL    HW2 1786   2.956   1.860   1.154
 1872SOL     OW 1787   2.480   3.429   1.284
 1872SOL    HW1 1788   2.475   3.511   1.341
 1872SOL    HW2 1789   2.569   3.426   1.239
 1874SOL     OW 1790   3.162   2.315   0.691
 1874SOL    HW1 1791   3.103   2.395   0.695
 1874SOL    HW2 1792   3.177   2.280   0.784
 1878SOL     OW 1793   2.092   2.490   1.975
 1878SOL    HW1 1794   1.999   2.488   2.012
 1878SOL    HW2 1795   2.093   2.451   1.883
 1879SOL     OW 1796   2.087   2.137   2.858
 1879SOL    HW1 1797   2.122   2.120   2.950
 1879SOL    HW2 1798   1.999   2.092   2.846
 1880SOL     OW 1799   1.881   2.230   2.509
 1880SOL    HW1 1800   1.799   2.273   2.548
 1880SOL    HW2 1801   1.853   2.157   2.446
 1881SOL     OW 1802   2.431   3.137   3.027
 1881SOL    HW1 1803   2.338   3.130   2.990
 1881SOL    HW2 1804   2.442   3.226   3.071
 1882SOL     OW 1805   3.417   3.373   2.565
 1882SOL    HW1 1806   3.360   3.357   2.646
 1882SOL    HW2 1807   3.358   3.383   2.485
 1883SOL     OW 1808   2.997   2.565   2.579
 1883SOL    HW1 1809   3.054   2.643   2.554
 1883SOL    HW2 1810   2.937   2.591   2.655
 1884SOL     OW 1811   3.617   2.469   2.093
 1884SOL    HW1 1812   3.605   2.456   1.994
 1884SOL    HW2 1813   3.587   2.388   2.142
 1885SOL     OW 1814   2.630   3.006   2.885
 1885SOL    HW1 1815   2.552   3.023   2.945
 1885SOL    HW2 1816   2.664   3.093   2.849
 1886SOL     OW 1817   2.712   2.660   3.685
 1886SOL    HW1 1818   2.708   2.736   3.750
 1886SOL    HW2 1819   2.734   2.696   3.594
 1887SOL     OW 1820   2.547   2.874   2.527
 1887SOL    HW1 1821   2.616   2.858   2.597
 1887SOL    HW2 1822   2.474   2.931   2.565
 1888SOL     OW 1823   2.548   3.023   3.665
 1888SOL    HW1 1824   2.608   3.102   3.679
 1888SOL    HW2 1825   2.462   3.054   3.624
 1889SOL     OW 1826   2.197   3.297   2.923
 1889SOL    HW1 1827   2.119   3.266   2.870
 1889SOL    HW2 1828   2.255   3.355   2.866
 1891SOL     OW 1829   2.300   2.254   3.361
 1891SOL    HW1 1830   2.382   2.198   3.370
 1891SOL    HW2 1831   2.219   2.196   3.365
 1892SOL     OW 1832   3.465   2.309   2.599
 1892SOL    HW1 1833   3.391   2.355   2.549
 1892SOL    HW2 1834   3.516   2.377   2.652
 1893SOL     OW 1835   2.093   3.575   2.345
 1893SOL    HW1 1836   2.127   3.652   2.399
 1893SOL    HW2 1837   2.137   3.575   2.255
 1895SOL     OW 1838   2.092   3.296   2.400
 1895SOL    HW1 1839   2.066   3.392   2.400
 1895SOL    HW2 1840   2.021   3.242   2.445
 1896SOL     OW 1841   2.102   2.953   2.748
 1896SOL    HW1 1842   2.116   2.869   2.800
 1896SOL    HW2 1843   2.047   3.017   2.803
 1898SOL     OW 1844   2.468   2.826   1.985
 1898SOL    HW1 1845   2.475   2.910   1.931
 1898SOL    HW2 1846   2.514   2.839   2.073
 1899SOL     OW 1847   3.456   1.976   3.342
 1899SOL    HW1 1848   3.438   2.043   3.270
 1899SOL    HW2 1849   3.453   2.022   3.431
 1900SOL     OW 1850   1.984   2.505   2.425
 1900SOL    HW1 1851   1.939   2.417   2.442
 1900SOL    HW2 1852   1.983   2.559   2.509
 1902SOL     OW 1853   1.889   3.458   1.979
 1902SOL    HW1 1854   1.870   3.362   2.000
 1902SOL    HW2 1855   1.856   3.516   2.054
 1903SOL     OW 1856   3.551   2.784   2.474
 1903SOL    HW1 1857   3.646   2.755   2.482
 1903SOL    HW2 1858   3.543   2.849   2.399
 1904SOL     OW 1859   3.503   2.970   2.294
 1904SOL    HW1 1860   3.589   2.972   2.242
 1904SOL    HW2 1861   3.517   3.017   2.382
 1905SOL     OW 1862   1.975   2.599   3.459
 1905SOL    HW1 1863   2.063   2.586   3.504
 1905SOL    HW2 1864   1.962   2.696   3.437
 1906SOL     OW 1865   2.475   3.227   2.588
 1906SOL    HW1 1866   2.426   3.140   2.597
 1906SOL    HW2 1867   2.452   3.270   2.501
 1907SOL     OW 1868   3.155   3.090   3.285
 1907SOL    HW1 1869   3.192   3.017   3.227
 1907SOL    HW2 1870   3.207   3.095   3.370
 1908SOL     OW 1871   2.671   1.866   2.364
 1908SOL    HW1 1872   2.711   1.957   2.355
 1908SOL    HW2 1873   2.571   1.874   2.370
 1909SOL     OW 1874   2.059   2.838   3.126
 1909SOL    HW1 1875   2.148   2.793   3.112
 1909SOL    HW2 1876   1.986   2.773   3.107
 1910SOL     OW 1877   3.387   2.861   2.052
 1910SOL    HW1 1878   3.324   2.785   2.065
 1910SOL    HW2 1879   3.435   2.879   2.138
 1912SOL     OW 1880   2.179   2.113   3.663
 1912SOL    HW1 1881   2.250   2.184   3.669
 1912SOL    HW2 1882   2.091   2.152   3.691
 1913SOL     OW 1883   3.328   3.279   2.815
 1913SOL    HW1 1884   3.269   3.285   2.895
 1913SOL    HW2 1885   3.313   3.191   2.769
 1915SOL     OW 1886   2.460   2.591   2.132
 1915SOL    HW1 1887   2.484   2.660   2.064
 1915SOL    HW2 1888   2.382   2.624   2.186
 1916SOL     OW 1889   3.143   2.207   2.806
 1916SOL    HW1 1890   3.057   2.157   2.793
 1916SOL    HW2 1891   3.205   2.153   2.862
 1918SOL     OW 1892   2.669   2.467   3.327
 1918SOL    HW1 1893   2.622   2.464   3.416
 1918SOL    HW2 1894   2.618   2.412   3.261
 1919SOL     OW 1895   3.256   2.331   3.536
 1919SOL    HW1 1896   3.236   2.374   3.624
 1919SOL    HW2 1897   3.334   2.269   3.545
 1920SOL     OW 1898   2.835   2.752   3.434
 1920SOL    HW1 1899   2.881   2.668   3.405
 1920SOL    HW2 1900   2.779   2.786   3.359
 1921SOL     OW 1901   2.853   2.272   3.104
 1921SOL    HW1 1902   2.776   2.306   3.158
 1921SOL    HW2 1903   2.819   2.221   3.025
 1922SOL     OW 1904   2.903   2.563   2.291
 1922SOL    HW1 1905   2.929   2.559   2.387
 1922SOL    HW2 1906   2.818   2.512   2.277
 1923SOL     OW 1907   1.938   2.673   2.651
 1923SOL    HW1 1908   2.037   2.661   2.660
 1923SOL    HW2 1909   1.914   2.768   2.672
 1925SOL     OW 1910   2.727   2.210   2.057
 1925SOL    HW1 1911   2.786   2.273   2.008
 1925SOL    HW2 1912   2.746   2.116   2.028
 1927SOL     OW 1913   3.224   3.006   2.407
 1927SOL    HW1 1914   3.307   2.977   2.359
 1927SOL    HW2 1915   3.175   3.073   2.351
 1928SOL     OW 1916   2.412   2.058   2.747
 1928SOL    HW1 1917   2.407   2.053   2.847
 1928SOL    HW2 1918   2.414   2.154   2.718
 1929SOL     OW 1919   2.870   3.318   2.339
 1929SOL    HW1 1920   2.824   3.390   2.287
 1929SOL    HW2 1921   2.866   3.338   2.437
 1930SOL     OW 1922   2.213   3.663   2.715
 1930SOL    HW1 1923   2.263   3.577   2.721
 1930SOL    HW2 1924   2.278   3.740   2.712
 1931SOL     OW 1925   3.657   2.928   2.735
 1931SOL    HW1 1926   3.595   2.913   2.659
 1931SOL    HW2 1927   3.605   2.939   2.820
 1933SOL     OW 1928   2.183   2.805   2.104
 1933SOL    HW1 1929   2.265   2.844   2.062
 1933SOL    HW2 1930   2.156   2.723   2.055
 1934SOL     OW 1931   3.320   2.597   2.590
 1934SOL    HW1 1932   3.315   2.532   2.665
 1934SOL    HW2 1933   3.400   2.656   2.603
 1935SOL     OW 1934   2.323   3.128   3.589
 1935SOL    HW1 1935   2.273   3.129   3.503
 1935SOL    HW2 1936   2.260   3.110   3.665
 1936SOL     OW 1937   2.973   3.638   2.099
 1936SOL    HW1 1938   2.913   3.576   2.149
 1936SOL    HW2 1939   3.004   3.594   2.014
 1937SOL     OW 1940   2.064   2.147   3.360
 1937SOL    HW1 1941   1.984   2.207   3.347
 1937SOL    HW2 1942   2.054   2.098   3.446
 1938SOL     OW 1943   3.494   3.239   1.943
 1938SOL    HW1 1944   3.462   3.333   1.933
 1938SOL    HW2 1945   3.418   3.176   1.931
 1939SOL     OW 1946   2.326   3.605   2.185
 1939SOL    HW1 1947   2.359   3.644   2.271
 1939SOL    HW2 1948   2.402   3.598   2.120
 1940SOL     OW 1949   3.262   1.969   2.288
 1940SOL    HW1 1950   3.238   1.932   2.198
 1940SOL    HW2 1951   3.361   1.985   2.292
 1941SOL     OW 1952   2.111   3.647   3.103
 1941SOL    HW1 1953   2.168   3.582   3.153
 1941SOL    HW2 1954   2.095   3.614   3.010
 1942SOL     OW 1955   2.802   3.560   2.766
 1942SOL    HW1 1956   2.882   3.503   2.787
 1942SOL    HW2 1957   2.753   3.520   2.689
 1944SOL     OW 1958   2.476   1.984   1.979
 1944SOL    HW1 1959   2.574   1.962   1.986
 1944SOL    HW2 1960   2.445   1.967   1.886
 1945SOL     OW 1961   2.643   2.126   3.611
 1945SOL    HW1 1962   2.710   2.065   3.654
 1945SOL    HW2 1963   2.570   2.145   3.676
 1946SOL     OW 1964   2.750   3.376   3.057
 1946SOL    HW1 1965   2.727   3.351   2.963
 1946SOL    HW2 1966   2.811   3.307   3.096
 1947SOL     OW 1967   3.213   2.452   3.295
 1947SOL    HW1 1968   3.241   2.409   3.380
 1947SOL    HW2 1969   3.238   2.548   3.296
 1948SOL     OW 1970   2.665   3.264   2.786
 1948SOL    HW1 1971   2.755   3.278   2.744
 1948SOL    HW2 1972   2.594   3.266   2.715
 1949SOL     OW 1973   2.784   2.365   2.761
 1949SOL    HW1 1974   2.759   2.356   2.665
 1949SOL    HW2 1975   2.832   2.283   2.792
 1950SOL     OW 1976   3.296   3.050   1.903
 1950SOL    HW1 1977   3.328   2.974   1.960
 1950SOL    HW2 1978   3.204   3.077   1.933
 1951SOL     OW 1979   2.159   1.897   2.033
 1951SOL    HW1 1980   2.208   1.981   2.012
 1951SOL    HW2 1981   2.221   1.832   2.078
 1952SOL     OW 1982   2.797   2.098   2.342
 1952SOL    HW1 1983   2.749   2.139   2.264
 1952SOL    HW2 1984   2.896   2.096   2.323
 1953SOL     OW 1985   2.938   2.545   3.326
 1953SOL    HW1 1986   2.858   2.484   3.329
 1953SOL    HW2 1987   3.019   2.492   3.302
 1954SOL     OW 1988   3.089   3.432   2.655
 1954SOL    HW1 1989   3.110   3.506   2.590
 1954SOL    HW2 1990   3.157   3.432   2.728
 1955SOL     OW 1991   2.321   3.014   2.603
 1955SOL    HW1 1992   2.250   2.987   2.668
 1955SOL    HW2 1993   2.295   2.986   2.510
 1956SOL     OW 1994   3.133   3.659   2.453
 1956SOL    HW1 1995   3.177   3.723   2.389
 1956SOL    HW2 1996   3.083   3.711   2.523
 1957SOL     OW 1997   2.894   2.411   1.878
 1957SOL    HW1 1998   2.853   2.493   1.839
 1957SOL    HW2 1999   2.958   2.437   1.951
 1958SOL     OW 2000   1.940   2.418   3.248
 1958SOL    HW1 2001   2.032   2.417   3.207
 1958SOL    HW2 2002   1.934   2.492   3.315
 1959SOL     OW 2003   2.423   2.084   3.009
 1959SOL    HW1 2004   2.461   2.000   3.046
 1959SOL    HW2 2005   2.335   2.103   3.053
 1960SOL     OW 2006   2.728   2.316   2.504
 1960SOL    HW1 2007   2.696   2.388   2.442
 1960SOL    HW2 2008   2.752   2.235   2.451
 1961SOL     OW 2009   2.879   1.901   2.615
 1961SOL    HW1 2010   2.807   1.906   2.546
 1961SOL    HW2 2011   2.855   1.832   2.684
 1962SOL     OW 2012   3.291   3.035   2.729
 1962SOL    HW1 2013   3.236   2.951   2.722
 1962SOL    HW2 2014   3.317   3.064   2.637
 1963SOL     OW 2015   3.328   2.452   2.854
 1963SOL    HW1 2016   3.298   2.357   2.861
 1963SOL    HW2 2017   3.401   2.468   2.920
 1964SOL     OW 2018   3.719   2.695   2.239
 1964SOL    HW1 2019   3.761   2.631   2.303
 1964SOL    HW2 2020   3.681   2.644   2.161
 1965SOL     OW 2021   2.350   3.247   2.036
 1965SOL    HW1 2022   2.263   3.232   2.083
 1965SOL    HW2 2023   2.333   3.273   1.941
 1966SOL     OW 2024   3.526   3.142   2.519
 1966SOL    HW1 2025   3.625   3.150   2.533
 1966SOL    HW2 2026   3.481   3.226   2.550
 1967SOL     OW 2027   3.252   2.437   1.940
 1967SOL    HW1 2028   3.198   2.416   2.021
 1967SOL    HW2 2029   3.343   2.396   1.949
 1969SOL     OW 2030   2.926   3.209   3.202
 1969SOL    HW1 2031   2.846   3.186   3.257
 1969SOL    HW2 2032   3.009   3.183   3.251
 1971SOL     OW 2033   2.973   3.057   2.962
 1971SOL    HW1 2034   2.933   3.101   3.043
 1971SOL    HW2 2035   2.932   3.094   2.879
 1972SOL     OW 2036   3.500   2.961   2.941
 1972SOL    HW1 2037   3.505   3.042   3.000
 1972SOL    HW2 2038   3.414   2.963   2.890
 1973SOL     OW 2039   2.777   1.951   3.264
 1973SOL    HW1 2040   2.802   1.931   3.169
 1973SOL    HW2 2041   2.849   2.007   3.306
 1974SOL     OW 2042   2.842   2.978   3.581
 1974SOL    HW1 2043   2.743   2.984   3.591
 1974SOL    HW2 2044   2.865   2.898   3.525
 1975SOL     OW 2045   2.567   2.912   2.230
 1975SOL    HW1 2046   2.553   2.919   2.329
 1975SOL    HW2 2047   2.651   2.861   2.212
 1976SOL     OW 2048   2.272   2.675   3.113
 1976SOL    HW1 2049   2.358   2.687   3.163
 1976SOL    HW2 2050   2.230   2.588   3.140
 1977SOL     OW 2051   3.136   2.248   3.124
 1977SOL    HW1 2052   3.157   2.322   3.188
 1977SOL    HW2 2053   3.047   2.265   3.081
 1978SOL     OW 2054   1.926   3.426   3.193
 1978SOL    HW1 2055   1.880   3.508   3.159
 1978SOL    HW2 2056   2.024   3.445   3.202
 1979SOL     OW 2057   2.229   2.962   2.363
 1979SOL    HW1 2058   2.222   3.045   2.307
 1979SOL    HW2 2059   2.233   2.882   2.303
 1980SOL     OW 2060   2.428   2.399   2.727
 1980SOL    HW1 2061   2.440   2.465   2.653
 1980SOL    HW2 2062   2.474   2.433   2.810
 1981SOL     OW 2063   3.114   3.210   2.250
 1981SOL    HW1 2064   3.164   3.287   2.290
 1981SOL    HW2 2065   3.019   3.212   2.282
 1982SOL     OW 2066   3.134   3.307   3.004
 1982SOL    HW1 2067   3.181   3.320   3.091
 1982SOL    HW2 2068   3.068   3.233   3.013
 1983SOL     OW 2069   3.444   2.501   2.334
 1983SOL    HW1 2070   3.413   2.562   2.407
 1983SOL    HW2 2071   3.494   2.553   2.265
 1984SOL     OW 2072   2.216   3.372   3.191
 1984SOL    HW1 2073   2.195   3.328   3.104
 1984SOL    HW2 2074   2.313   3.398   3.194
 1985SOL     OW 2075   2.264   2.613   3.460
 1985SOL    HW1 2076   2.332   2.668   3.413
 1985SOL    HW2 2077   2.304   2.525   3.487
 1987SOL     OW 2078   2.875   1.967   3.632
 1987SOL    HW1 2079   2.881   2.052   3.580
 1987SOL    HW2 2080   2.907   1.891   3.575
 1988SOL     OW 2081   2.366   1.912   3.602
 1988SOL    HW1 2082   2.324   1.855   3.532
 1988SOL    HW2 2083   2.300   1.981   3.634
 1989SOL     OW 2084   2.435   2.732   2.891
 1989SOL    HW1 2085   2.479   2.821   2.882
 1989SOL    HW2 2086   2.372   2.732   2.968
 1990SOL     OW 2087   3.222   2.724   2.907
 1990SOL    HW1 2088   3.147   2.724   2.841
 1990SOL    HW2 2089   3.259   2.632   2.916
 1991SOL     OW 2090   3.071   2.387   2.137
 1991SOL    HW1 2091   3.084   2.303   2.191
 1991SOL    HW2 2092   3.042   2.461   2.197
 1992SOL     OW 2093   2.169   2.075   3.093
 1992SOL    HW1 2094   2.146   2.112   3.183
 1992SOL    HW2 2095   2.139   1.980   3.087
 1993SOL     OW 2096   1.899   3.172   3.144
 1993SOL    HW1 2097   1.952   3.123   3.212
 1993SOL    HW2 2098   1.921   3.270   3.149
 1994SOL     OW 2099   2.594   2.496   2.926
 1994SOL    HW1 2100   2.653   2.470   2.850
 1994SOL    HW2 2101   2.566   2.592   2.915
 1996SOL     OW 2102   2.169   1.925   2.480
 1996SOL    HW1 2103   2.158   2.019   2.513
 1996SOL    HW2 2104   2.164   1.862   2.557
 1997SOL     OW 2105   3.484   2.229   2.236
 1997SOL    HW1 2106   3.486   2.153   2.300
 1997SOL    HW2 2107   3.436   2.306   2.276
 1998SOL     OW 2108   2.885   2.628   2.828
 1998SOL    HW1 2109   2.900   2.649   2.924
 1998SOL    HW2 2110   2.855   2.533   2.819
 2001SOL     OW 2111   2.212   2.760   3.666
 2001SOL    HW1 2112   2.288   2.804   3.714
 2001SOL    HW2 2113   2.247   2.713   3.584
 2002SOL     OW 2114   3.402   2.136   1.987
 2002SOL    HW1 2115   3.341   2.061   2.010
 2002SOL    HW2 2116   3.424   2.188   2.070
 2003SOL     OW 2117   3.165   2.700   1.904
 2003SOL    HW1 2118   3.199   2.607   1.919
 2003SOL    HW2 2119   3.183   2.727   1.809
 2004SOL     OW 2120   2.930   3.195   2.711
 2004SOL    HW1 2121   2.937   3.111   2.656
 2004SOL    HW2 2122   2.992   3.264   2.675
 2005SOL     OW 2123   2.181   2.672   2.811
 2005SOL    HW1 2124   2.274   2.708   2.816
 2005SOL    HW2 2125   2.175   2.587   2.863
 2006SOL     OW 2126   2.201   2.371   2.868
 2006SOL    HW1 2127   2.149   2.288   2.851
 2006SOL    HW2 2128   2.278   2.376   2.804
 2007SOL     OW 2129   3.000   2.242   3.540
 2007SOL    HW1 2130   2.955   2.305   3.604
 2007SOL    HW2 2131   3.093   2.273   3.523
 2008SOL     OW 2132   3.022   2.069   3.339
 2008SOL    HW1 2133   3.022   2.133   3.416
 2008SOL    HW2 2134   3.050   2.117   3.256
 2009SOL     OW 2135   1.870   3.188   2.062
 2009SOL    HW1 2136   1.777   3.209   2.031
 2009SOL    HW2 2137   1.880   3.089   2.075
 2010SOL     OW 2138   1.950   3.663   2.789
 2010SOL    HW1 2139   1.908   3.577   2.762
 2010SOL    HW2 2140   2.044   3.666   2.755
 2011SOL     OW 2141   2.366   3.430   2.772
 2011SOL    HW1 2142   2.432   3.504   2.781
 2011SOL    HW2 2143   2.410   3.351   2.730
 2012SOL     OW 2144   2.864   2.658   3.100
 2012SOL    HW1 2145   2.905   2.626   3.186
 2012SOL    HW2 2146   2.768   2.631   3.097
 2013SOL     OW 2147   1.902   2.406   2.976
 2013SOL    HW1 2148   1.987   2.373   2.935
 2013SOL    HW2 2149   1.915   2.421   3.074
 2014SOL     OW 2150   2.051   2.382   3.584
 2014SOL    HW1 2151   2.110   2.342   3.514
 2014SOL    HW2 2152   1.993   2.453   3.543
 2015SOL     OW 2153   3.231   2.812   3.522
 2015SOL    HW1 2154   3.270   2.901   3.542
 2015SOL    HW2 2155   3.241   2.792   3.425
 2016SOL     OW 2156   2.677   2.434   2.187
 2016SOL    HW1 2157   2.684   2.345   2.141
 2016SOL    HW2 2158   2.583   2.468   2.179
 2017SOL     OW 2159   3.519   2.466   3.068
 2017SOL    HW1 2160   3.481   2.397   3.130
 2017SOL    HW2 2161   3.601   2.430   3.024
 2019SOL     OW 2162   2.533   2.326   3.131
 2019SOL    HW1 2163   2.499   2.237   3.101
 2019SOL    HW2 2164   2.559   2.380   3.051
 2021SOL     OW 2165   2.021   2.999   3.328
 2021SOL    HW1 2166   2.043   2.938   3.404
 2021SOL    HW2 2167   2.031   2.950   3.242
 2022SOL     OW 2168   3.209   2.921   3.096
 2022SOL    HW1 2169   3.233   2.858   3.022
 2022SOL    HW2 2170   3.119   2.961   3.078
 2023SOL     OW 2171   3.164   2.717   2.171
 2023SOL    HW1 2172   3.078   2.686   2.213
 2023SOL    HW2 2173   3.160   2.703   2.072
 2026SOL     OW 2174   1.945   3.120   2.884
 2026SOL    HW1 2175   1.940   3.119   2.984
 2026SOL    HW2 2176   1.862   3.079   2.846
 2028SOL     OW 2177   3.588   1.997   2.385
 2028SOL    HW1 2178   3.661   1.980   2.318
 2028SOL    HW2 2179   3.557   1.910   2.423
 2029SOL     OW 2180   3.250   3.435   2.339
 2029SOL    HW1 2181   3.317   3.447   2.265
 2029SOL    HW2 2182   3.210   3.524   2.362
 2031SOL     OW 2183   3.142   2.789   2.534
 2031SOL    HW1 2184   3.202   2.708   2.536
 2031SOL    HW2 2185   3.182   2.858   2.474
 2032SOL     OW 2186   2.692   3.135   3.284
 2032SOL    HW1 2187   2.687   3.168   3.379
 2032SOL    HW2 2188   2.606   3.154   3.238
 2033SOL     OW 2189   2.534   3.478   2.016
 2033SOL    HW1 2190   2.543   3.488   1.917
 2033SOL    HW2 2191   2.494   3.389   2.037
 2035SOL     OW 2192   3.703   2.037   2.825
 2035SOL    HW1 2193   3.742   1.952   2.789
 2035SOL    HW2 2194   3.605   2.039   2.806
 2036SOL     OW 2195   2.125   2.188   2.582
 2036SOL    HW1 2196   2.046   2.239   2.548
 2036SOL    HW2 2197   2.116   2.173   2.680
 2037SOL     OW 2198   3.056   3.474   1.893
 2037SOL    HW1 2199   3.062   3.381   1.930
 2037SOL    HW2 2200   2.997   3.474   1.813
 2038SOL     OW 2201   2.684   2.864   3.234
 2038SOL    HW1 2202   2.724   2.863   3.142
 2038SOL    HW2 2203   2.694   2.956   3.274
 2039SOL     OW 2204   2.778   2.772   2.153
 2039SOL    HW1 2205   2.841   2.810   2.085
 2039SOL    HW2 2206   2.818   2.689   2.192
 2040SOL     OW 2207   3.366   3.469   1.906
 2040SOL    HW1 2208   3.274   3.506   1.913
 2040SOL    HW2 2209   3.404   3.489   1.816
 2041SOL     OW 2210   2.234   3.150   3.352
 2041SOL    HW1 2211   2.221   3.243   3.318
 2041SOL    HW2 2212   2.150   3.098   3.339
 2043SOL     OW 2213   2.901   2.960   2.558
 2043SOL    HW1 2214   2.831   2.913   2.612
 2043SOL    HW2 2215   2.960   2.892   2.515
 2044SOL     OW 2216   2.876   2.098   2.833
 2044SOL    HW1 2217   2.868   2.062   2.740
 2044SOL    HW2 2218   2.874   2.022   2.898
 2045SOL     OW 2219   2.452   3.349   2.353
 2045SOL    HW1 2220   2.494   3.291   2.283
 2045SOL    HW2 2221   2.408   3.428   2.309
 2046SOL     OW 2222   3.571   2.247   3.243
 2046SOL    HW1 2223   3.644   2.316   3.247
 2046SOL    HW2 2224   3.599   2.172   3.184
 2047SOL     OW 2225   2.117   3.210   2.152
 2047SOL    HW1 2226   2.021   3.211   2.125
 2047SOL    HW2 2227   2.129   3.263   2.236
 2048SOL     OW 2228   1.967   2.875   3.588
 2048SOL    HW1 2229   1.890   2.842   3.642
 2048SOL    HW2 2230   2.052   2.845   3.630
 2049SOL     OW 2231   2.534   2.065   3.351
 2049SOL    HW1 2232   2.624   2.049   3.311
 2049SOL    HW2 2233   2.542   2.070   3.450
 2050SOL     OW 2234   1.937   2.207   1.895
 2050SOL    HW1 2235   1.845   2.179   1.866
 2050SOL    HW2 2236   1.968   2.284   1.839
 2051SOL     OW 2237   3.302   2.718   3.260
 2051SOL    HW1 2238   3.245   2.770   3.197
 2051SOL    HW2 2239   3.398   2.730   3.236
 2052SOL     OW 2240   3.045   3.197   1.981
 2052SOL    HW1 2241   2.946   3.186   1.983
 2052SOL    HW2 2242   3.079   3.212   2.074
 2053SOL     OW 2243   2.475   2.704   3.293
 2053SOL    HW1 2244   2.531   2.785   3.276
 2053SOL    HW2 2245   2.534   2.624   3.296
 2055SOL     OW 2246   2.578   2.427   3.570
 2055SOL    HW1 2247   2.597   2.492   3.644
 2055SOL    HW2 2248   2.638   2.347   3.579
 2058SOL     OW 2249   3.536   2.745   3.116
 2058SOL    HW1 2250   3.509   2.656   3.079
 2058SOL    HW2 2251   3.537   2.813   3.043
 2059SOL     OW 2252   3.087   2.187   2.311
 2059SOL    HW1 2253   3.152   2.113   2.300
 2059SOL    HW2 2254   3.107   2.237   2.395
 2060SOL     OW 2255   2.456   2.607   2.514
 2060SOL    HW1 2256   2.506   2.692   2.495
 2060SOL    HW2 2257   2.368   2.609   2.466
 2063SOL     OW 2258   2.721   3.236   1.878
 2063SOL    HW1 2259   2.675   3.251   1.966
 2063SOL    HW2 2260   2.765   3.321   1.848
 2064SOL     OW 2261   2.523   3.652   2.815
 2064SOL    HW1 2262   2.477   3.740   2.802
 2064SOL    HW2 2263   2.622   3.664   2.808
 2065SOL     OW 2264   2.721   2.818   2.723
 2065SOL    HW1 2265   2.775   2.749   2.771
 2065SOL    HW2 2266   2.689   2.887   2.789
 2066SOL     OW 2267   2.945   2.846   1.949
 2066SOL    HW1 2268   2.922   2.899   1.867
 2066SOL    HW2 2269   3.026   2.790   1.930
 2069SOL     OW 2270   1.941   3.102   2.515
 2069SOL    HW1 2271   1.940   3.055   2.603
 2069SOL    HW2 2272   2.023   3.074   2.464
 2070SOL     OW 2273   2.534   3.253   3.486
 2070SOL    HW1 2274   2.456   3.203   3.524
 2070SOL    HW2 2275   2.531   3.348   3.517
 2071SOL     OW 2276   3.686   2.054   3.089
 2071SOL    HW1 2277   3.682   1.964   3.133
 2071SOL    HW2 2278   3.689   2.043   2.990
 2073SOL     OW 2279   2.179   2.409   3.142
 2073SOL    HW1 2280   2.217   2.350   3.214
 2073SOL    HW2 2281   2.219   2.383   3.054
 2074SOL     OW 2282   2.674   3.448   2.549
 2074SOL    HW1 2283   2.706   3.458   2.455
 2074SOL    HW2 2284   2.595   3.386   2.551
 2075SOL     OW 2285   3.286   2.076   2.974
 2075SOL    HW1 2286   3.338   2.011   3.029
 2075SOL    HW2 2287   3.237   2.139   3.035
 2076SOL     OW 2288   2.863   1.896   3.016
 2076SOL    HW1 2289   2.800   1.824   2.985
 2076SOL    HW2 2290   2.956   1.860   3.016
 2077SOL     OW 2291   2.632   3.192   2.163
 2077SOL    HW1 2292   2.586   3.105   2.180
 2077SOL    HW2 2293   2.723   3.189   2.204
 2078SOL     OW 2294   2.480   3.429   3.146
 2078SOL    HW1 2295   2.475   3.511   3.203
 2078SOL    HW2 2296   2.569   3.426   3.101
 2079SOL     OW 2297   3.214   1.914   2.030
 2079SOL    HW1 2298   3.249   1.873   1.946
 2079SOL    HW2 2299   3.124   1.876   2.050
 2080SOL     OW 2300   3.162   2.315   2.553
 2080SOL    HW1 2301   3.103   2.395   2.557
 2080SOL    HW2 2302   3.177   2.280   2.646
 2081SOL     OW 2303   3.455   2.083   2.744
 2081SOL    HW1 2304   3.371   2.082   2.798
 2081SOL    HW2 2305   3.457   2.166   2.688
 2082SOL     OW 2306   1.901   2.939   2.162
 2082SOL    HW1 2307   2.000   2.928   2.153
 2082SOL    HW2 2308   1.861   2.853   2.194
 2083SOL     OW 2309   2.737   3.508   2.199
 2083SOL    HW1 2310   2.660   3.473   2.145
 2083SOL    HW2 2311   2.705   3.579   2.261
 2084SOL     OW 2312   2.092   2.490   3.837
 2084SOL    HW1 2313   1.999   2.488   3.874
 2084SOL    HW2 2314   2.093   2.451   3.745
 2088SOL     OW 2315   2.468   2.826   3.847
 2088SOL    HW1 2316   2.475   2.910   3.793
 2088SOL    HW2 2317   2.514   2.839   3.935
 2108SOL     OW 2318   2.476   1.984   3.841
 2108SOL    HW1 2319   2.574   1.962   3.848
 2108SOL    HW2 2320   2.445   1.967   3.748
 2111SOL     OW 2321   2.159   1.897   3.895
 2111SOL    HW1 2322   2.208   1.981   3.874
 2111SOL    HW2 2323   2.221   1.832   3.940
 2115SOL     OW 2324   2.894   2.411   3.740
 2115SOL    HW1 2325   2.853   2.493   3.701
 2115SOL    HW2 2326   2.958   2.437   3.813
 2131SOL     OW 2327   2.335   2.362   3.915
 2131SOL    HW1 2328   2.396   2.442   3.919
 2131SOL    HW2 2329   2.240   2.393   3.922
 2141SOL     OW 2330   1.937   2.207   3.757
 2141SOL    HW1 2331   1.845   2.179   3.728
 2141SOL    HW2 2332   1.968   2.284   3.701
 2196SOL     OW 2333   2.366   3.774   1.740
 2196SOL    HW1 2334   2.324   3.717   1.670
 2196SOL    HW2 2335   2.300   3.843   1.772
 2238SOL     OW 2336   2.671   3.728   2.364
 2238SOL    HW1 2337   2.711   3.819   2.355
 2238SOL    HW2 2338   2.571   3.736   2.370
 2253SOL     OW 2339   2.476   3.846   1.979
 2253SOL    HW1 2340   2.574   3.824   1.986
 2253SOL    HW2 2341   2.445   3.829   1.886
 2257SOL     OW 2342   2.401   3.788   2.374
 2257SOL    HW1 2343   2.320   3.789   2.432
 2257SOL    HW2 2344   2.404   3.871   2.319
 2258SOL     OW 2345   2.159   3.759   2.033
 2258SOL    HW1 2346   2.208   3.843   2.012
 2258SOL    HW2 2347   2.221   3.694   2.078
 2265SOL     OW 2348   2.879   3.763   2.615
 2265SOL    HW1 2349   2.807   3.768   2.546
 2265SOL    HW2 2350   2.855   3.694   2.684
 2267SOL     OW 2351   2.389   3.980   2.190
 2267SOL    HW1 2352   2.416   3.921   2.115
 2267SOL    HW2 2353   2.389   4.075   2.159
 2277SOL     OW 2354   2.169   3.787   2.480
 2277SOL    HW1 2355   2.158   3.881   2.513
 2277SOL    HW2 2356   2.164   3.724   2.557
 2295SOL     OW 2357   1.934   3.890   2.180
 2295SOL    HW1 2358   1.917   3.973   2.126
 2295SOL    HW2 2359   2.024   3.853   2.158
 2392SOL     OW 2360   3.854   1.794   1.851
 2392SOL    HW1 2361   3.813   1.720   1.904
 2392SOL    HW2 2362   3.918   1.845   1.909
 2419SOL     OW 2363   3.751   1.596   1.979
 2419SOL    HW1 2364   3.732   1.500   2.000
 2419SOL    HW2 2365   3.718   1.654   2.054
 2459SOL     OW 2366   3.732   1.326   2.062
 2459SOL    HW1 2367   3.639   1.347   2.031
 2459SOL    HW2 2368   3.742   1.227   2.075
 2460SOL     OW 2369   3.812   1.801   2.789
 2460SOL    HW1 2370   3.770   1.715   2.762
 2460SOL    HW2 2371   3.906   1.804   2.755
 2527SOL     OW 2372   3.837   2.599   1.597
 2527SOL    HW1 2373   3.925   2.586   1.642
 2527SOL    HW2 2374   3.824   2.696   1.575
 2569SOL     OW 2375   3.913   2.382   1.722
 2569SOL    HW1 2376   3.972   2.342   1.652
 2569SOL    HW2 2377   3.855   2.453   1.681
 2593SOL     OW 2378   3.954   2.490   1.975
 2593SOL    HW1 2379   3.861   2.488   2.012
 2593SOL    HW2 2380   3.955   2.451   1.883
 2595SOL     OW 2381   3.743   2.230   2.509
 2595SOL    HW1 2382   3.661   2.273   2.548
 2595SOL    HW2 2383   3.715   2.157   2.446
 2602SOL     OW 2384   3.846   2.505   2.425
 2602SOL    HW1 2385   3.801   2.417   2.442
 2602SOL    HW2 2386   3.845   2.559   2.509
 2609SOL     OW 2387   3.800   2.673   2.651
 2609SOL    HW1 2388   3.899   2.661   2.660
 2609SOL    HW2 2389   3.776   2.768   2.672
 2646SOL     OW 2390   3.764   2.406   2.976
 2646SOL    HW1 2391   3.849   2.373   2.935
 2646SOL    HW2 2392   3.777   2.421   3.074
 2660SOL     OW 2393   3.799   2.207   1.895
 2660SOL    HW1 2394   3.707   2.179   1.866
 2660SOL    HW2 2395   3.830   2.284   1.839
 2661SOL     OW 2396   3.796   2.028   2.180
 2661SOL    HW1 2397   3.779   2.111   2.126
 2661SOL    HW2 2398   3.886   1.991   2.158
 2670SOL     OW 2399   3.763   2.939   2.162
 2670SOL    HW1 2400   3.862   2.928   2.153
 2670SOL    HW2 2401   3.723   2.853   2.194
   4.38884   4.38884   4.38884
