mobley_9979854_GMX.gro created by acpype (v: 2023.10.27) on Tue May 19 14:15:14 2026
 2391
    1MOL    H21    1   2.097   2.156   2.250
    1MOL     C2    2   2.197   2.194   2.248
    1MOL     C1    3   2.197   2.346   2.248
    1MOL     F1    4   2.324   2.398   2.249
    1MOL     F2    5   2.134   2.396   2.138
    1MOL     F3    6   2.133   2.393   2.358
    1MOL     C3    7   2.271   2.138   2.127
    1MOL    H31    8   2.225   2.173   2.034
    1MOL    H32    9   2.273   2.030   2.128
    1MOL    H33   10   2.377   2.171   2.124
    1MOL     O1   11   2.264   2.144   2.365
    1MOL    H11   12   2.218   2.177   2.443
   14SOL     OW   13   1.460   1.505   1.339
   14SOL    HW1   14   1.484   1.599   1.365
   14SOL    HW2   15   1.444   1.451   1.421
   18SOL     OW   16   1.127   1.341   1.690
   18SOL    HW1   17   1.174   1.341   1.778
   18SOL    HW2   18   1.079   1.254   1.679
   31SOL     OW   19   1.293   1.228   1.423
   31SOL    HW1   20   1.330   1.155   1.365
   31SOL    HW2   21   1.345   1.233   1.508
   35SOL     OW   22   1.187   1.792   1.616
   35SOL    HW1   23   1.211   1.852   1.540
   35SOL    HW2   24   1.194   1.697   1.586
   37SOL     OW   25   1.466   1.417   0.953
   37SOL    HW1   26   1.407   1.423   1.033
   37SOL    HW2   27   1.451   1.329   0.907
   50SOL     OW   28   1.719   0.585   1.831
   50SOL    HW1   29   1.693   0.674   1.795
   50SOL    HW2   30   1.717   0.517   1.758
   56SOL     OW   31   1.227   1.550   1.506
   56SOL    HW1   32   1.233   1.473   1.570
   56SOL    HW2   33   1.175   1.524   1.426
   95SOL     OW   34   1.754   1.223   1.588
   95SOL    HW1   35   1.845   1.184   1.575
   95SOL    HW2   36   1.762   1.319   1.612
   96SOL     OW   37   1.064   1.347   1.340
   96SOL    HW1   38   0.984   1.324   1.395
   96SOL    HW2   39   1.147   1.321   1.389
   97SOL     OW   40   1.592   1.629   1.625
   97SOL    HW1   41   1.619   1.663   1.535
   97SOL    HW2   42   1.671   1.591   1.671
   99SOL     OW   43   1.638   1.099   1.079
   99SOL    HW1   44   1.643   1.180   1.138
   99SOL    HW2   45   1.552   1.101   1.028
  101SOL     OW   46   0.980   1.116   1.719
  101SOL    HW1   47   0.881   1.122   1.729
  101SOL    HW2   48   1.003   1.036   1.663
  109SOL     OW   49   1.272   1.445   1.142
  109SOL    HW1   50   1.319   1.458   1.229
  109SOL    HW2   51   1.206   1.371   1.151
  113SOL     OW   52   1.587   0.779   1.670
  113SOL    HW1   53   1.495   0.817   1.665
  113SOL    HW2   54   1.647   0.826   1.605
  122SOL     OW   55   1.728   0.935   1.854
  122SOL    HW1   56   1.682   0.928   1.765
  122SOL    HW2   57   1.666   0.979   1.920
  126SOL     OW   58   0.980   1.573   1.700
  126SOL    HW1   59   0.960   1.617   1.612
  126SOL    HW2   60   1.019   1.482   1.684
  127SOL     OW   61   1.859   1.518   1.605
  127SOL    HW1   62   1.873   1.545   1.510
  127SOL    HW2   63   1.942   1.540   1.658
  142SOL     OW   64   1.369   0.950   1.660
  142SOL    HW1   65   1.408   1.039   1.680
  142SOL    HW2   66   1.379   0.930   1.563
  147SOL     OW   67   0.930   1.678   1.465
  147SOL    HW1   68   0.906   1.660   1.370
  147SOL    HW2   69   0.960   1.772   1.475
  150SOL     OW   70   1.347   1.059   1.234
  150SOL    HW1   71   1.371   0.996   1.160
  150SOL    HW2   72   1.257   1.099   1.216
  152SOL     OW   73   1.759   1.747   1.154
  152SOL    HW1   74   1.820   1.777   1.081
  152SOL    HW2   75   1.721   1.658   1.132
  153SOL     OW   76   1.252   1.731   1.128
  153SOL    HW1   77   1.336   1.736   1.074
  153SOL    HW2   78   1.229   1.635   1.146
  155SOL     OW   79   0.688   1.662   1.716
  155SOL    HW1   80   0.632   1.743   1.725
  155SOL    HW2   81   0.740   1.666   1.630
  163SOL     OW   82   1.650   1.720   1.394
  163SOL    HW1   83   1.703   1.730   1.310
  163SOL    HW2   84   1.623   1.810   1.428
  171SOL     OW   85   1.614   1.292   1.289
  171SOL    HW1   86   1.674   1.295   1.369
  171SOL    HW2   87   1.539   1.356   1.302
  180SOL     OW   88   1.440   0.856   1.398
  180SOL    HW1   89   1.383   0.908   1.335
  180SOL    HW2   90   1.536   0.868   1.374
  184SOL     OW   91   1.493   1.767   0.959
  184SOL    HW1   92   1.526   1.831   0.890
  184SOL    HW2   93   1.559   1.761   1.034
  186SOL     OW   94   1.450   1.220   1.633
  186SOL    HW1   95   1.441   1.210   1.732
  186SOL    HW2   96   1.546   1.213   1.607
  188SOL     OW   97   1.674   0.883   1.254
  188SOL    HW1   98   1.647   0.794   1.217
  188SOL    HW2   99   1.675   0.951   1.181
  192SOL     OW  100   1.730   0.934   1.517
  192SOL    HW1  101   1.768   1.025   1.532
  192SOL    HW2  102   1.722   0.917   1.418
  197SOL     OW  103   1.861   1.569   0.851
  197SOL    HW1  104   1.790   1.557   0.781
  197SOL    HW2  105   1.862   1.490   0.911
  203SOL     OW  106   1.705   1.487   1.104
  203SOL    HW1  107   1.612   1.462   1.077
  203SOL    HW2  108   1.731   1.437   1.186
  219SOL     OW  109   1.555   1.511   2.565
  219SOL    HW1  110   1.498   1.495   2.646
  219SOL    HW2  111   1.496   1.521   2.485
  221SOL     OW  112   1.755   0.607   2.093
  221SOL    HW1  113   1.743   0.594   1.994
  221SOL    HW2  114   1.725   0.526   2.142
  227SOL     OW  115   1.460   1.505   3.201
  227SOL    HW1  116   1.484   1.599   3.227
  227SOL    HW2  117   1.444   1.451   3.283
  238SOL     OW  118   1.842   1.767   2.221
  238SOL    HW1  119   1.896   1.738   2.301
  238SOL    HW2  120   1.872   1.857   2.192
  240SOL     OW  121   1.689   0.922   2.474
  240SOL    HW1  122   1.784   0.893   2.482
  240SOL    HW2  123   1.681   0.987   2.399
  241SOL     OW  124   1.641   1.108   2.294
  241SOL    HW1  125   1.727   1.110   2.242
  241SOL    HW2  126   1.655   1.155   2.382
  244SOL     OW  127   1.293   1.228   3.285
  244SOL    HW1  128   1.330   1.155   3.227
  244SOL    HW2  129   1.345   1.233   3.370
  247SOL     OW  130   1.525   0.999   2.052
  247SOL    HW1  131   1.462   0.923   2.065
  247SOL    HW2  132   1.573   1.017   2.138
  248SOL     OW  133   1.187   1.792   3.478
  248SOL    HW1  134   1.211   1.852   3.402
  248SOL    HW2  135   1.194   1.697   3.448
  250SOL     OW  136   1.466   1.417   2.815
  250SOL    HW1  137   1.407   1.423   2.895
  250SOL    HW2  138   1.451   1.329   2.769
  251SOL     OW  139   1.667   1.714   2.434
  251SOL    HW1  140   1.626   1.691   2.346
  251SOL    HW2  141   1.649   1.640   2.499
  254SOL     OW  142   1.576   1.662   2.169
  254SOL    HW1  143   1.665   1.708   2.172
  254SOL    HW2  144   1.555   1.638   2.074
  264SOL     OW  145   1.362   1.144   2.407
  264SOL    HW1  146   1.445   1.115   2.359
  264SOL    HW2  147   1.313   1.211   2.351
  266SOL     OW  148   1.008   1.456   2.339
  266SOL    HW1  149   0.962   1.528   2.287
  266SOL    HW2  150   1.004   1.476   2.437
  268SOL     OW  151   1.795   1.066   2.735
  268SOL    HW1  152   1.733   1.051   2.659
  268SOL    HW2  153   1.743   1.077   2.820
  269SOL     OW  154   1.227   1.550   3.368
  269SOL    HW1  155   1.233   1.473   3.432
  269SOL    HW2  156   1.175   1.524   3.288
  271SOL     OW  157   1.458   0.735   2.590
  271SOL    HW1  158   1.453   0.670   2.665
  271SOL    HW2  159   1.538   0.794   2.603
  273SOL     OW  160   1.111   1.776   2.099
  273SOL    HW1  161   1.051   1.714   2.149
  273SOL    HW2  162   1.142   1.732   2.014
  275SOL     OW  163   1.632   1.377   1.943
  275SOL    HW1  164   1.600   1.471   1.933
  275SOL    HW2  165   1.556   1.314   1.931
  279SOL     OW  166   0.940   1.698   2.766
  279SOL    HW1  167   1.020   1.641   2.787
  279SOL    HW2  168   0.891   1.658   2.689
  284SOL     OW  169   0.888   1.514   3.057
  284SOL    HW1  170   0.865   1.489   2.963
  284SOL    HW2  171   0.949   1.445   3.096
  286SOL     OW  172   0.803   1.402   2.786
  286SOL    HW1  173   0.893   1.416   2.744
  286SOL    HW2  174   0.732   1.404   2.715
  289SOL     OW  175   1.434   1.188   1.903
  289SOL    HW1  176   1.466   1.112   1.960
  289SOL    HW2  177   1.342   1.215   1.933
  293SOL     OW  178   1.227   1.570   2.655
  293SOL    HW1  179   1.248   1.644   2.590
  293SOL    HW2  180   1.295   1.570   2.728
  295SOL     OW  181   1.271   1.797   2.453
  295SOL    HW1  182   1.315   1.861   2.389
  295SOL    HW2  183   1.221   1.849   2.523
  301SOL     OW  184   1.429   1.173   2.729
  301SOL    HW1  185   1.374   1.089   2.722
  301SOL    HW2  186   1.455   1.202   2.637
  303SOL     OW  187   1.857   0.833   2.239
  303SOL    HW1  188   1.899   0.769   2.303
  303SOL    HW2  189   1.819   0.782   2.161
  305SOL     OW  190   1.664   1.280   2.519
  305SOL    HW1  191   1.763   1.288   2.533
  305SOL    HW2  192   1.619   1.364   2.550
  308SOL     OW  193   1.754   1.223   3.450
  308SOL    HW1  194   1.845   1.184   3.437
  308SOL    HW2  195   1.762   1.319   3.474
  309SOL     OW  196   1.064   1.347   3.202
  309SOL    HW1  197   0.984   1.324   3.257
  309SOL    HW2  198   1.147   1.321   3.251
  310SOL     OW  199   1.592   1.629   3.487
  310SOL    HW1  200   1.619   1.663   3.397
  310SOL    HW2  201   1.671   1.591   3.533
  311SOL     OW  202   1.111   1.195   2.962
  311SOL    HW1  203   1.071   1.239   3.043
  311SOL    HW2  204   1.070   1.232   2.879
  312SOL     OW  205   1.638   1.099   2.941
  312SOL    HW1  206   1.643   1.180   3.000
  312SOL    HW2  207   1.552   1.101   2.890
  321SOL     OW  208   1.252   1.348   2.250
  321SOL    HW1  209   1.302   1.425   2.290
  321SOL    HW2  210   1.157   1.350   2.282
  322SOL     OW  211   1.272   1.445   3.004
  322SOL    HW1  212   1.319   1.458   3.091
  322SOL    HW2  213   1.206   1.371   3.013
  323SOL     OW  214   1.582   0.639   2.334
  323SOL    HW1  215   1.551   0.700   2.407
  323SOL    HW2  216   1.632   0.691   2.265
  330SOL     OW  217   1.360   0.862   2.907
  330SOL    HW1  218   1.285   0.862   2.841
  330SOL    HW2  219   1.397   0.770   2.916
  340SOL     OW  220   1.859   1.518   3.467
  340SOL    HW1  221   1.873   1.545   3.372
  340SOL    HW2  222   1.942   1.540   3.520
  343SOL     OW  223   1.303   0.838   1.904
  343SOL    HW1  224   1.337   0.745   1.919
  343SOL    HW2  225   1.321   0.865   1.809
  344SOL     OW  226   1.068   1.333   2.711
  344SOL    HW1  227   1.075   1.249   2.656
  344SOL    HW2  228   1.130   1.402   2.675
  360SOL     OW  229   0.930   1.678   3.327
  360SOL    HW1  230   0.906   1.660   3.232
  360SOL    HW2  231   0.960   1.772   3.337
  363SOL     OW  232   1.347   1.059   3.096
  363SOL    HW1  233   1.371   0.996   3.022
  363SOL    HW2  234   1.257   1.099   3.078
  364SOL     OW  235   1.302   0.855   2.171
  364SOL    HW1  236   1.216   0.824   2.213
  364SOL    HW2  237   1.298   0.841   2.072
  365SOL     OW  238   1.759   1.747   3.016
  365SOL    HW1  239   1.820   1.777   2.943
  365SOL    HW2  240   1.721   1.658   2.994
  366SOL     OW  241   1.252   1.731   2.990
  366SOL    HW1  242   1.336   1.736   2.936
  366SOL    HW2  243   1.229   1.635   3.008
  370SOL     OW  244   1.388   1.573   2.339
  370SOL    HW1  245   1.455   1.585   2.265
  370SOL    HW2  246   1.348   1.662   2.362
  372SOL     OW  247   1.280   0.927   2.534
  372SOL    HW1  248   1.340   0.846   2.536
  372SOL    HW2  249   1.320   0.996   2.474
  374SOL     OW  250   0.672   1.616   2.016
  374SOL    HW1  251   0.681   1.626   1.917
  374SOL    HW2  252   0.632   1.527   2.037
  375SOL     OW  253   1.650   1.720   3.256
  375SOL    HW1  254   1.703   1.730   3.172
  375SOL    HW2  255   1.623   1.810   3.290
  378SOL     OW  256   1.194   1.612   1.893
  378SOL    HW1  257   1.200   1.519   1.930
  378SOL    HW2  258   1.135   1.612   1.813
  381SOL     OW  259   1.504   1.607   1.906
  381SOL    HW1  260   1.412   1.644   1.913
  381SOL    HW2  261   1.542   1.627   1.816
  383SOL     OW  262   1.614   1.292   3.151
  383SOL    HW1  263   1.674   1.295   3.231
  383SOL    HW2  264   1.539   1.356   3.164
  384SOL     OW  265   1.039   1.098   2.558
  384SOL    HW1  266   0.969   1.051   2.612
  384SOL    HW2  267   1.098   1.030   2.515
  386SOL     OW  268   0.590   1.487   2.353
  386SOL    HW1  269   0.632   1.429   2.283
  386SOL    HW2  270   0.546   1.566   2.309
  394SOL     OW  271   1.183   1.335   1.981
  394SOL    HW1  272   1.084   1.324   1.983
  394SOL    HW2  273   1.217   1.350   2.074
  396SOL     OW  274   1.493   1.767   2.821
  396SOL    HW1  275   1.526   1.831   2.752
  396SOL    HW2  276   1.559   1.761   2.896
  398SOL     OW  277   1.450   1.220   3.495
  398SOL    HW1  278   1.441   1.210   3.594
  398SOL    HW2  279   1.546   1.213   3.469
  400SOL     OW  280   1.674   0.883   3.116
  400SOL    HW1  281   1.647   0.794   3.079
  400SOL    HW2  282   1.675   0.951   3.043
  405SOL     OW  283   0.859   1.374   1.878
  405SOL    HW1  284   0.813   1.389   1.966
  405SOL    HW2  285   0.903   1.459   1.848
  406SOL     OW  286   0.661   1.790   2.815
  406SOL    HW1  287   0.615   1.878   2.802
  406SOL    HW2  288   0.760   1.802   2.808
  408SOL     OW  289   1.083   0.984   1.949
  408SOL    HW1  290   1.060   1.037   1.867
  408SOL    HW2  291   1.164   0.928   1.930
  409SOL     OW  292   1.861   1.569   2.713
  409SOL    HW1  293   1.790   1.557   2.643
  409SOL    HW2  294   1.862   1.490   2.773
  415SOL     OW  295   1.705   1.487   2.966
  415SOL    HW1  296   1.612   1.462   2.939
  415SOL    HW2  297   1.731   1.437   3.048
  417SOL     OW  298   0.812   1.586   2.549
  417SOL    HW1  299   0.844   1.596   2.455
  417SOL    HW2  300   0.733   1.524   2.551
  420SOL     OW  301   0.770   1.330   2.163
  420SOL    HW1  302   0.724   1.243   2.180
  420SOL    HW2  303   0.861   1.327   2.204
  426SOL     OW  304   0.875   1.646   2.199
  426SOL    HW1  305   0.798   1.611   2.145
  426SOL    HW2  306   0.843   1.717   2.261
  516SOL     OW  307   0.850   2.660   1.823
  516SOL    HW1  308   0.846   2.736   1.888
  516SOL    HW2  309   0.872   2.696   1.732
  518SOL     OW  310   0.686   3.023   1.803
  518SOL    HW1  311   0.746   3.102   1.817
  518SOL    HW2  312   0.600   3.054   1.762
  520SOL     OW  313   1.460   3.367   1.339
  520SOL    HW1  314   1.484   3.461   1.365
  520SOL    HW2  315   1.444   3.313   1.421
  522SOL     OW  316   1.603   2.309   0.737
  522SOL    HW1  317   1.529   2.355   0.687
  522SOL    HW2  318   1.654   2.377   0.790
  524SOL     OW  319   1.127   3.203   1.690
  524SOL    HW1  320   1.174   3.203   1.778
  524SOL    HW2  321   1.079   3.116   1.679
  529SOL     OW  322   1.594   1.976   1.480
  529SOL    HW1  323   1.576   2.043   1.408
  529SOL    HW2  324   1.591   2.022   1.569
  533SOL     OW  325   1.689   2.784   0.612
  533SOL    HW1  326   1.784   2.755   0.620
  533SOL    HW2  327   1.681   2.849   0.537
  537SOL     OW  328   1.293   3.090   1.423
  537SOL    HW1  329   1.330   3.017   1.365
  537SOL    HW2  330   1.345   3.095   1.508
  546SOL     OW  331   1.281   2.207   0.944
  546SOL    HW1  332   1.195   2.157   0.931
  546SOL    HW2  333   1.343   2.153   1.000
  548SOL     OW  334   0.807   2.467   1.465
  548SOL    HW1  335   0.760   2.464   1.554
  548SOL    HW2  336   0.756   2.412   1.399
  549SOL     OW  337   1.394   2.331   1.674
  549SOL    HW1  338   1.374   2.374   1.762
  549SOL    HW2  339   1.472   2.269   1.683
  550SOL     OW  340   0.973   2.752   1.572
  550SOL    HW1  341   1.019   2.668   1.543
  550SOL    HW2  342   0.917   2.786   1.497
  551SOL     OW  343   0.991   2.272   1.242
  551SOL    HW1  344   0.914   2.306   1.296
  551SOL    HW2  345   0.957   2.221   1.163
  556SOL     OW  346   1.719   2.447   1.831
  556SOL    HW1  347   1.693   2.536   1.795
  556SOL    HW2  348   1.717   2.379   1.758
  561SOL     OW  349   1.795   2.928   0.873
  561SOL    HW1  350   1.733   2.913   0.797
  561SOL    HW2  351   1.743   2.939   0.958
  562SOL     OW  352   1.227   3.412   1.506
  562SOL    HW1  353   1.233   3.335   1.570
  562SOL    HW2  354   1.175   3.386   1.426
  564SOL     OW  355   1.458   2.597   0.728
  564SOL    HW1  356   1.453   2.532   0.803
  564SOL    HW2  357   1.538   2.656   0.741
  574SOL     OW  358   1.547   2.084   1.729
  574SOL    HW1  359   1.542   2.121   1.821
  574SOL    HW2  360   1.475   2.015   1.717
  576SOL     OW  361   0.781   2.126   1.749
  576SOL    HW1  362   0.848   2.065   1.792
  576SOL    HW2  363   0.708   2.145   1.814
  578SOL     OW  364   1.351   2.452   1.433
  578SOL    HW1  365   1.379   2.409   1.518
  578SOL    HW2  366   1.376   2.548   1.434
  584SOL     OW  367   1.076   2.545   1.464
  584SOL    HW1  368   0.996   2.484   1.467
  584SOL    HW2  369   1.157   2.492   1.440
  593SOL     OW  370   1.429   3.035   0.867
  593SOL    HW1  371   1.374   2.951   0.860
  593SOL    HW2  372   1.455   3.064   0.775
  594SOL     OW  373   1.466   2.452   0.992
  594SOL    HW1  374   1.436   2.357   0.999
  594SOL    HW2  375   1.539   2.468   1.058
  600SOL     OW  376   1.754   3.085   1.588
  600SOL    HW1  377   1.845   3.046   1.575
  600SOL    HW2  378   1.762   3.181   1.612
  601SOL     OW  379   1.064   3.209   1.340
  601SOL    HW1  380   0.984   3.186   1.395
  601SOL    HW2  381   1.147   3.183   1.389
  602SOL     OW  382   1.592   3.491   1.625
  602SOL    HW1  383   1.619   3.525   1.535
  602SOL    HW2  384   1.671   3.453   1.671
  603SOL     OW  385   1.111   3.057   1.100
  603SOL    HW1  386   1.071   3.101   1.181
  603SOL    HW2  387   1.070   3.094   1.017
  604SOL     OW  388   1.638   2.961   1.079
  604SOL    HW1  389   1.643   3.042   1.138
  604SOL    HW2  390   1.552   2.963   1.028
  605SOL     OW  391   0.915   1.951   1.402
  605SOL    HW1  392   0.940   1.931   1.307
  605SOL    HW2  393   0.987   2.007   1.444
  606SOL     OW  394   0.980   2.978   1.719
  606SOL    HW1  395   0.881   2.984   1.729
  606SOL    HW2  396   1.003   2.898   1.663
  609SOL     OW  397   1.274   2.248   1.262
  609SOL    HW1  398   1.295   2.322   1.326
  609SOL    HW2  399   1.185   2.265   1.219
  618SOL     OW  400   1.587   2.641   1.670
  618SOL    HW1  401   1.495   2.679   1.665
  618SOL    HW2  402   1.647   2.688   1.605
  619SOL     OW  403   1.013   1.967   1.770
  619SOL    HW1  404   1.019   2.052   1.718
  619SOL    HW2  405   1.045   1.891   1.713
  622SOL     OW  406   1.360   2.724   1.045
  622SOL    HW1  407   1.285   2.724   0.979
  622SOL    HW2  408   1.397   2.632   1.054
  627SOL     OW  409   1.728   2.797   1.854
  627SOL    HW1  410   1.682   2.790   1.765
  627SOL    HW2  411   1.666   2.841   1.920
  630SOL     OW  412   1.023   2.628   0.966
  630SOL    HW1  413   1.038   2.649   1.062
  630SOL    HW2  414   0.993   2.533   0.957
  632SOL     OW  415   1.859   3.380   1.605
  632SOL    HW1  416   1.873   3.407   1.510
  632SOL    HW2  417   1.942   3.402   1.658
  639SOL     OW  418   1.138   2.242   1.678
  639SOL    HW1  419   1.093   2.305   1.742
  639SOL    HW2  420   1.231   2.273   1.661
  640SOL     OW  421   1.160   2.069   1.477
  640SOL    HW1  422   1.160   2.133   1.554
  640SOL    HW2  423   1.188   2.117   1.394
  644SOL     OW  424   1.002   2.658   1.238
  644SOL    HW1  425   1.043   2.626   1.324
  644SOL    HW2  426   0.906   2.631   1.235
  647SOL     OW  427   1.369   2.812   1.660
  647SOL    HW1  428   1.408   2.901   1.680
  647SOL    HW2  429   1.379   2.792   1.563
  649SOL     OW  430   1.657   2.466   1.206
  649SOL    HW1  431   1.619   2.397   1.268
  649SOL    HW2  432   1.739   2.430   1.162
  655SOL     OW  433   1.347   2.921   1.234
  655SOL    HW1  434   1.371   2.858   1.160
  655SOL    HW2  435   1.257   2.961   1.216
  662SOL     OW  436   1.726   1.997   0.523
  662SOL    HW1  437   1.799   1.980   0.456
  662SOL    HW2  438   1.695   1.910   0.561
  668SOL     OW  439   1.650   3.582   1.394
  668SOL    HW1  440   1.703   3.592   1.310
  668SOL    HW2  441   1.623   3.672   1.428
  669SOL     OW  442   1.841   2.037   0.963
  669SOL    HW1  443   1.880   1.952   0.927
  669SOL    HW2  444   1.743   2.039   0.944
  672SOL     OW  445   0.822   2.864   1.372
  672SOL    HW1  446   0.862   2.863   1.280
  672SOL    HW2  447   0.832   2.956   1.412
  676SOL     OW  448   1.614   3.154   1.289
  676SOL    HW1  449   1.674   3.157   1.369
  676SOL    HW2  450   1.539   3.218   1.302
  678SOL     OW  451   1.014   2.098   0.971
  678SOL    HW1  452   1.006   2.062   0.878
  678SOL    HW2  453   1.012   2.022   1.036
  680SOL     OW  454   1.709   2.247   1.381
  680SOL    HW1  455   1.782   2.316   1.385
  680SOL    HW2  456   1.737   2.172   1.322
  683SOL     OW  457   0.672   2.065   1.489
  683SOL    HW1  458   0.762   2.049   1.449
  683SOL    HW2  459   0.680   2.070   1.588
  685SOL     OW  460   1.440   2.718   1.398
  685SOL    HW1  461   1.383   2.770   1.335
  685SOL    HW2  462   1.536   2.730   1.374
  690SOL     OW  463   0.716   2.427   1.708
  690SOL    HW1  464   0.735   2.492   1.782
  690SOL    HW2  465   0.776   2.347   1.717
  691SOL     OW  466   1.450   3.082   1.633
  691SOL    HW1  467   1.441   3.072   1.732
  691SOL    HW2  468   1.546   3.075   1.607
  693SOL     OW  469   1.674   2.745   1.254
  693SOL    HW1  470   1.647   2.656   1.217
  693SOL    HW2  471   1.675   2.813   1.181
  696SOL     OW  472   1.777   2.204   1.642
  696SOL    HW1  473   1.760   2.235   1.548
  696SOL    HW2  474   1.693   2.167   1.680
  697SOL     OW  475   1.730   2.796   1.517
  697SOL    HW1  476   1.768   2.887   1.532
  697SOL    HW2  477   1.722   2.779   1.418
  706SOL     OW  478   1.824   2.054   1.227
  706SOL    HW1  479   1.820   1.964   1.271
  706SOL    HW2  480   1.827   2.043   1.128
  708SOL     OW  481   1.705   3.349   1.104
  708SOL    HW1  482   1.612   3.324   1.077
  708SOL    HW2  483   1.731   3.299   1.186
  711SOL     OW  484   1.424   2.076   1.112
  711SOL    HW1  485   1.476   2.011   1.167
  711SOL    HW2  486   1.375   2.139   1.173
  712SOL     OW  487   1.001   1.896   1.154
  712SOL    HW1  488   0.938   1.824   1.123
  712SOL    HW2  489   1.094   1.860   1.154
  716SOL     OW  490   1.300   2.315   0.691
  716SOL    HW1  491   1.241   2.395   0.695
  716SOL    HW2  492   1.315   2.280   0.784
  717SOL     OW  493   1.593   2.083   0.882
  717SOL    HW1  494   1.509   2.082   0.936
  717SOL    HW2  495   1.595   2.166   0.826
  724SOL     OW  496   1.555   3.373   2.565
  724SOL    HW1  497   1.498   3.357   2.646
  724SOL    HW2  498   1.496   3.383   2.485
  725SOL     OW  499   1.135   2.565   2.579
  725SOL    HW1  500   1.192   2.643   2.554
  725SOL    HW2  501   1.075   2.591   2.655
  726SOL     OW  502   1.755   2.469   2.093
  726SOL    HW1  503   1.743   2.456   1.994
  726SOL    HW2  504   1.725   2.388   2.142
  727SOL     OW  505   0.768   3.006   2.885
  727SOL    HW1  506   0.690   3.023   2.945
  727SOL    HW2  507   0.802   3.093   2.849
  729SOL     OW  508   0.685   2.874   2.527
  729SOL    HW1  509   0.754   2.858   2.597
  729SOL    HW2  510   0.612   2.931   2.565
  732SOL     OW  511   1.460   3.367   3.201
  732SOL    HW1  512   1.484   3.461   3.227
  732SOL    HW2  513   1.444   3.313   3.283
  734SOL     OW  514   1.603   2.309   2.599
  734SOL    HW1  515   1.529   2.355   2.549
  734SOL    HW2  516   1.654   2.377   2.652
  740SOL     OW  517   0.606   2.826   1.985
  740SOL    HW1  518   0.613   2.910   1.931
  740SOL    HW2  519   0.652   2.839   2.073
  741SOL     OW  520   1.594   1.976   3.342
  741SOL    HW1  521   1.576   2.043   3.270
  741SOL    HW2  522   1.591   2.022   3.431
  743SOL     OW  523   1.842   3.629   2.221
  743SOL    HW1  524   1.896   3.600   2.301
  743SOL    HW2  525   1.872   3.719   2.192
  745SOL     OW  526   1.689   2.784   2.474
  745SOL    HW1  527   1.784   2.755   2.482
  745SOL    HW2  528   1.681   2.849   2.399
  746SOL     OW  529   1.641   2.970   2.294
  746SOL    HW1  530   1.727   2.972   2.242
  746SOL    HW2  531   1.655   3.017   2.382
  749SOL     OW  532   1.293   3.090   3.285
  749SOL    HW1  533   1.330   3.017   3.227
  749SOL    HW2  534   1.345   3.095   3.370
  750SOL     OW  535   0.809   1.866   2.364
  750SOL    HW1  536   0.849   1.957   2.355
  750SOL    HW2  537   0.709   1.874   2.370
  752SOL     OW  538   1.525   2.861   2.052
  752SOL    HW1  539   1.462   2.785   2.065
  752SOL    HW2  540   1.573   2.879   2.138
  755SOL     OW  541   1.466   3.279   2.815
  755SOL    HW1  542   1.407   3.285   2.895
  755SOL    HW2  543   1.451   3.191   2.769
  756SOL     OW  544   1.667   3.576   2.434
  756SOL    HW1  545   1.626   3.553   2.346
  756SOL    HW2  546   1.649   3.502   2.499
  757SOL     OW  547   0.598   2.591   2.132
  757SOL    HW1  548   0.622   2.660   2.064
  757SOL    HW2  549   0.520   2.624   2.186
  758SOL     OW  550   1.281   2.207   2.806
  758SOL    HW1  551   1.195   2.157   2.793
  758SOL    HW2  552   1.343   2.153   2.862
  759SOL     OW  553   1.576   3.524   2.169
  759SOL    HW1  554   1.665   3.570   2.172
  759SOL    HW2  555   1.555   3.500   2.074
  761SOL     OW  556   1.394   2.331   3.536
  761SOL    HW1  557   1.374   2.374   3.624
  761SOL    HW2  558   1.472   2.269   3.545
  763SOL     OW  559   0.991   2.272   3.104
  763SOL    HW1  560   0.914   2.306   3.158
  763SOL    HW2  561   0.957   2.221   3.025
  764SOL     OW  562   1.041   2.563   2.291
  764SOL    HW1  563   1.067   2.559   2.387
  764SOL    HW2  564   0.956   2.512   2.277
  767SOL     OW  565   0.865   2.210   2.057
  767SOL    HW1  566   0.924   2.273   2.008
  767SOL    HW2  567   0.884   2.116   2.028
  768SOL     OW  568   1.719   2.447   3.693
  768SOL    HW1  569   1.693   2.536   3.657
  768SOL    HW2  570   1.717   2.379   3.620
  769SOL     OW  571   1.362   3.006   2.407
  769SOL    HW1  572   1.445   2.977   2.359
  769SOL    HW2  573   1.313   3.073   2.351
  770SOL     OW  574   0.550   2.058   2.747
  770SOL    HW1  575   0.545   2.053   2.847
  770SOL    HW2  576   0.552   2.154   2.718
  771SOL     OW  577   1.008   3.318   2.339
  771SOL    HW1  578   0.962   3.390   2.287
  771SOL    HW2  579   1.004   3.338   2.437
  773SOL     OW  580   1.795   2.928   2.735
  773SOL    HW1  581   1.733   2.913   2.659
  773SOL    HW2  582   1.743   2.939   2.820
  776SOL     OW  583   1.458   2.597   2.590
  776SOL    HW1  584   1.453   2.532   2.665
  776SOL    HW2  585   1.538   2.656   2.603
  780SOL     OW  586   1.632   3.239   1.943
  780SOL    HW1  587   1.600   3.333   1.933
  780SOL    HW2  588   1.556   3.176   1.931
  782SOL     OW  589   1.400   1.969   2.288
  782SOL    HW1  590   1.376   1.932   2.198
  782SOL    HW2  591   1.499   1.985   2.292
  786SOL     OW  592   1.547   2.084   3.591
  786SOL    HW1  593   1.542   2.121   3.683
  786SOL    HW2  594   1.475   2.015   3.579
  787SOL     OW  595   0.614   1.984   1.979
  787SOL    HW1  596   0.712   1.962   1.986
  787SOL    HW2  597   0.583   1.967   1.886
  790SOL     OW  598   1.351   2.452   3.295
  790SOL    HW1  599   1.379   2.409   3.380
  790SOL    HW2  600   1.376   2.548   3.296
  792SOL     OW  601   0.922   2.365   2.761
  792SOL    HW1  602   0.897   2.356   2.665
  792SOL    HW2  603   0.970   2.283   2.792
  793SOL     OW  604   0.539   1.926   2.374
  793SOL    HW1  605   0.458   1.927   2.432
  793SOL    HW2  606   0.542   2.009   2.319
  794SOL     OW  607   1.434   3.050   1.903
  794SOL    HW1  608   1.466   2.974   1.960
  794SOL    HW2  609   1.342   3.077   1.933
  796SOL     OW  610   0.935   2.098   2.342
  796SOL    HW1  611   0.887   2.139   2.264
  796SOL    HW2  612   1.034   2.096   2.323
  797SOL     OW  613   1.076   2.545   3.326
  797SOL    HW1  614   0.996   2.484   3.329
  797SOL    HW2  615   1.157   2.492   3.302
  798SOL     OW  616   1.227   3.432   2.655
  798SOL    HW1  617   1.248   3.506   2.590
  798SOL    HW2  618   1.295   3.432   2.728
  800SOL     OW  619   1.271   3.659   2.453
  800SOL    HW1  620   1.315   3.723   2.389
  800SOL    HW2  621   1.221   3.711   2.523
  801SOL     OW  622   1.032   2.411   1.878
  801SOL    HW1  623   0.991   2.493   1.839
  801SOL    HW2  624   1.096   2.437   1.951
  804SOL     OW  625   0.866   2.316   2.504
  804SOL    HW1  626   0.834   2.388   2.442
  804SOL    HW2  627   0.890   2.235   2.451
  805SOL     OW  628   1.017   1.901   2.615
  805SOL    HW1  629   0.945   1.906   2.546
  805SOL    HW2  630   0.993   1.832   2.684
  806SOL     OW  631   1.429   3.035   2.729
  806SOL    HW1  632   1.374   2.951   2.722
  806SOL    HW2  633   1.455   3.064   2.637
  807SOL     OW  634   1.466   2.452   2.854
  807SOL    HW1  635   1.436   2.357   2.861
  807SOL    HW2  636   1.539   2.468   2.920
  808SOL     OW  637   1.857   2.695   2.239
  808SOL    HW1  638   1.899   2.631   2.303
  808SOL    HW2  639   1.819   2.644   2.161
  810SOL     OW  640   1.664   3.142   2.519
  810SOL    HW1  641   1.763   3.150   2.533
  810SOL    HW2  642   1.619   3.226   2.550
  811SOL     OW  643   1.390   2.437   1.940
  811SOL    HW1  644   1.336   2.416   2.021
  811SOL    HW2  645   1.481   2.396   1.949
  812SOL     OW  646   0.527   2.118   2.190
  812SOL    HW1  647   0.554   2.059   2.115
  812SOL    HW2  648   0.527   2.213   2.159
  813SOL     OW  649   1.754   3.085   3.450
  813SOL    HW1  650   1.845   3.046   3.437
  813SOL    HW2  651   1.762   3.181   3.474
  816SOL     OW  652   1.111   3.057   2.962
  816SOL    HW1  653   1.071   3.101   3.043
  816SOL    HW2  654   1.070   3.094   2.879
  817SOL     OW  655   1.638   2.961   2.941
  817SOL    HW1  656   1.643   3.042   3.000
  817SOL    HW2  657   1.552   2.963   2.890
  818SOL     OW  658   0.915   1.951   3.264
  818SOL    HW1  659   0.940   1.931   3.169
  818SOL    HW2  660   0.987   2.007   3.306
  820SOL     OW  661   0.705   2.912   2.230
  820SOL    HW1  662   0.691   2.919   2.329
  820SOL    HW2  663   0.789   2.861   2.212
  822SOL     OW  664   1.274   2.248   3.124
  822SOL    HW1  665   1.295   2.322   3.188
  822SOL    HW2  666   1.185   2.265   3.081
  825SOL     OW  667   0.566   2.399   2.727
  825SOL    HW1  668   0.578   2.465   2.653
  825SOL    HW2  669   0.612   2.433   2.810
  826SOL     OW  670   1.252   3.210   2.250
  826SOL    HW1  671   1.302   3.287   2.290
  826SOL    HW2  672   1.157   3.212   2.282
  827SOL     OW  673   1.272   3.307   3.004
  827SOL    HW1  674   1.319   3.320   3.091
  827SOL    HW2  675   1.206   3.233   3.013
  828SOL     OW  676   1.582   2.501   2.334
  828SOL    HW1  677   1.551   2.562   2.407
  828SOL    HW2  678   1.632   2.553   2.265
  831SOL     OW  679   1.587   2.641   3.532
  831SOL    HW1  680   1.495   2.679   3.527
  831SOL    HW2  681   1.647   2.688   3.467
  835SOL     OW  682   1.360   2.724   2.907
  835SOL    HW1  683   1.285   2.724   2.841
  835SOL    HW2  684   1.397   2.632   2.916
  836SOL     OW  685   1.209   2.387   2.137
  836SOL    HW1  686   1.222   2.303   2.191
  836SOL    HW2  687   1.180   2.461   2.197
  839SOL     OW  688   0.732   2.496   2.926
  839SOL    HW1  689   0.791   2.470   2.850
  839SOL    HW2  690   0.704   2.592   2.915
  840SOL     OW  691   1.728   2.797   3.716
  840SOL    HW1  692   1.682   2.790   3.627
  840SOL    HW2  693   1.666   2.841   3.782
  842SOL     OW  694   1.622   2.229   2.236
  842SOL    HW1  695   1.624   2.153   2.300
  842SOL    HW2  696   1.574   2.306   2.276
  843SOL     OW  697   1.023   2.628   2.828
  843SOL    HW1  698   1.038   2.649   2.924
  843SOL    HW2  699   0.993   2.533   2.819
  845SOL     OW  700   1.859   3.380   3.467
  845SOL    HW1  701   1.873   3.407   3.372
  845SOL    HW2  702   1.942   3.402   3.520
  847SOL     OW  703   1.540   2.136   1.987
  847SOL    HW1  704   1.479   2.061   2.010
  847SOL    HW2  705   1.562   2.188   2.070
  848SOL     OW  706   1.303   2.700   1.904
  848SOL    HW1  707   1.337   2.607   1.919
  848SOL    HW2  708   1.321   2.727   1.809
  849SOL     OW  709   1.068   3.195   2.711
  849SOL    HW1  710   1.075   3.111   2.656
  849SOL    HW2  711   1.130   3.264   2.675
  852SOL     OW  712   1.138   2.242   3.540
  852SOL    HW1  713   1.093   2.305   3.604
  852SOL    HW2  714   1.231   2.273   3.523
  853SOL     OW  715   1.160   2.069   3.339
  853SOL    HW1  716   1.160   2.133   3.416
  853SOL    HW2  717   1.188   2.117   3.256
  857SOL     OW  718   1.002   2.658   3.100
  857SOL    HW1  719   1.043   2.626   3.186
  857SOL    HW2  720   0.906   2.631   3.097
  860SOL     OW  721   1.369   2.812   3.522
  860SOL    HW1  722   1.408   2.901   3.542
  860SOL    HW2  723   1.379   2.792   3.425
  861SOL     OW  724   0.815   2.434   2.187
  861SOL    HW1  725   0.822   2.345   2.141
  861SOL    HW2  726   0.721   2.468   2.179
  862SOL     OW  727   1.657   2.466   3.068
  862SOL    HW1  728   1.619   2.397   3.130
  862SOL    HW2  729   1.739   2.430   3.024
  866SOL     OW  730   0.473   2.362   2.053
  866SOL    HW1  731   0.534   2.442   2.057
  866SOL    HW2  732   0.378   2.393   2.060
  868SOL     OW  733   1.347   2.921   3.096
  868SOL    HW1  734   1.371   2.858   3.022
  868SOL    HW2  735   1.257   2.961   3.078
  869SOL     OW  736   1.302   2.717   2.171
  869SOL    HW1  737   1.216   2.686   2.213
  869SOL    HW2  738   1.298   2.703   2.072
  870SOL     OW  739   1.759   3.609   3.016
  870SOL    HW1  740   1.820   3.639   2.943
  870SOL    HW2  741   1.721   3.520   2.994
  874SOL     OW  742   1.726   1.997   2.385
  874SOL    HW1  743   1.799   1.980   2.318
  874SOL    HW2  744   1.695   1.910   2.423
  875SOL     OW  745   1.388   3.435   2.339
  875SOL    HW1  746   1.455   3.447   2.265
  875SOL    HW2  747   1.348   3.524   2.362
  877SOL     OW  748   1.280   2.789   2.534
  877SOL    HW1  749   1.340   2.708   2.536
  877SOL    HW2  750   1.320   2.858   2.474
  880SOL     OW  751   1.650   3.582   3.256
  880SOL    HW1  752   1.703   3.592   3.172
  880SOL    HW2  753   1.623   3.672   3.290
  881SOL     OW  754   1.841   2.037   2.825
  881SOL    HW1  755   1.880   1.952   2.789
  881SOL    HW2  756   1.743   2.039   2.806
  883SOL     OW  757   1.194   3.474   1.893
  883SOL    HW1  758   1.200   3.381   1.930
  883SOL    HW2  759   1.135   3.474   1.813
  885SOL     OW  760   0.916   2.772   2.153
  885SOL    HW1  761   0.979   2.810   2.085
  885SOL    HW2  762   0.956   2.689   2.192
  886SOL     OW  763   1.504   3.469   1.906
  886SOL    HW1  764   1.412   3.506   1.913
  886SOL    HW2  765   1.542   3.489   1.816
  888SOL     OW  766   1.614   3.154   3.151
  888SOL    HW1  767   1.674   3.157   3.231
  888SOL    HW2  768   1.539   3.218   3.164
  889SOL     OW  769   1.039   2.960   2.558
  889SOL    HW1  770   0.969   2.913   2.612
  889SOL    HW2  771   1.098   2.892   2.515
  890SOL     OW  772   1.014   2.098   2.833
  890SOL    HW1  773   1.006   2.062   2.740
  890SOL    HW2  774   1.012   2.022   2.898
  892SOL     OW  775   1.709   2.247   3.243
  892SOL    HW1  776   1.782   2.316   3.247
  892SOL    HW2  777   1.737   2.172   3.184
  897SOL     OW  778   1.440   2.718   3.260
  897SOL    HW1  779   1.383   2.770   3.197
  897SOL    HW2  780   1.536   2.730   3.236
  899SOL     OW  781   1.183   3.197   1.981
  899SOL    HW1  782   1.084   3.186   1.983
  899SOL    HW2  783   1.217   3.212   2.074
  901SOL     OW  784   1.493   3.629   2.821
  901SOL    HW1  785   1.526   3.693   2.752
  901SOL    HW2  786   1.559   3.623   2.896
  903SOL     OW  787   1.450   3.082   3.495
  903SOL    HW1  788   1.441   3.072   3.594
  903SOL    HW2  789   1.546   3.075   3.469
  905SOL     OW  790   1.674   2.745   3.116
  905SOL    HW1  791   1.647   2.656   3.079
  905SOL    HW2  792   1.675   2.813   3.043
  906SOL     OW  793   1.225   2.187   2.311
  906SOL    HW1  794   1.290   2.113   2.300
  906SOL    HW2  795   1.245   2.237   2.395
  907SOL     OW  796   0.594   2.607   2.514
  907SOL    HW1  797   0.644   2.692   2.495
  907SOL    HW2  798   0.506   2.609   2.466
  908SOL     OW  799   1.777   2.204   3.504
  908SOL    HW1  800   1.760   2.235   3.410
  908SOL    HW2  801   1.693   2.167   3.542
  909SOL     OW  802   1.730   2.796   3.379
  909SOL    HW1  803   1.768   2.887   3.394
  909SOL    HW2  804   1.722   2.779   3.280
  910SOL     OW  805   0.859   3.236   1.878
  910SOL    HW1  806   0.813   3.251   1.966
  910SOL    HW2  807   0.903   3.321   1.848
  912SOL     OW  808   0.859   2.818   2.723
  912SOL    HW1  809   0.913   2.749   2.771
  912SOL    HW2  810   0.827   2.887   2.789
  913SOL     OW  811   1.083   2.846   1.949
  913SOL    HW1  812   1.060   2.899   1.867
  913SOL    HW2  813   1.164   2.790   1.930
  914SOL     OW  814   1.861   3.431   2.713
  914SOL    HW1  815   1.790   3.419   2.643
  914SOL    HW2  816   1.862   3.352   2.773
  918SOL     OW  817   1.824   2.054   3.089
  918SOL    HW1  818   1.820   1.964   3.133
  918SOL    HW2  819   1.827   2.043   2.990
  920SOL     OW  820   1.705   3.349   2.966
  920SOL    HW1  821   1.612   3.324   2.939
  920SOL    HW2  822   1.731   3.299   3.048
  923SOL     OW  823   1.424   2.076   2.974
  923SOL    HW1  824   1.476   2.011   3.029
  923SOL    HW2  825   1.375   2.139   3.035
  924SOL     OW  826   1.001   1.896   3.016
  924SOL    HW1  827   0.938   1.824   2.985
  924SOL    HW2  828   1.094   1.860   3.016
  925SOL     OW  829   0.770   3.192   2.163
  925SOL    HW1  830   0.724   3.105   2.180
  925SOL    HW2  831   0.861   3.189   2.204
  927SOL     OW  832   1.352   1.914   2.030
  927SOL    HW1  833   1.387   1.873   1.946
  927SOL    HW2  834   1.262   1.876   2.050
  928SOL     OW  835   1.300   2.315   2.553
  928SOL    HW1  836   1.241   2.395   2.557
  928SOL    HW2  837   1.315   2.280   2.646
  929SOL     OW  838   1.593   2.083   2.744
  929SOL    HW1  839   1.509   2.082   2.798
  929SOL    HW2  840   1.595   2.166   2.688
  974SOL     OW  841   1.390   2.437   3.802
  974SOL    HW1  842   1.336   2.416   3.883
  974SOL    HW2  843   1.481   2.396   3.811
  983SOL     OW  844   1.540   2.136   3.849
  983SOL    HW1  845   1.479   2.061   3.872
  983SOL    HW2  846   1.562   2.188   3.932
 1156SOL     OW  847   1.726   3.859   2.385
 1156SOL    HW1  848   1.799   3.842   2.318
 1156SOL    HW2  849   1.695   3.772   2.423
 1174SOL     OW  850   1.352   3.776   2.030
 1174SOL    HW1  851   1.387   3.735   1.946
 1174SOL    HW2  852   1.262   3.738   2.050
 1215SOL     OW  853   2.431   1.275   1.165
 1215SOL    HW1  854   2.338   1.268   1.128
 1215SOL    HW2  855   2.442   1.364   1.209
 1219SOL     OW  856   2.630   1.144   1.023
 1219SOL    HW1  857   2.552   1.161   1.083
 1219SOL    HW2  858   2.664   1.231   0.987
 1220SOL     OW  859   2.712   0.798   1.823
 1220SOL    HW1  860   2.708   0.874   1.888
 1220SOL    HW2  861   2.734   0.834   1.732
 1222SOL     OW  862   2.548   1.161   1.803
 1222SOL    HW1  863   2.608   1.240   1.817
 1222SOL    HW2  864   2.462   1.192   1.762
 1223SOL     OW  865   2.197   1.435   1.061
 1223SOL    HW1  866   2.119   1.404   1.008
 1223SOL    HW2  867   2.255   1.493   1.004
 1224SOL     OW  868   3.322   1.505   1.339
 1224SOL    HW1  869   3.346   1.599   1.365
 1224SOL    HW2  870   3.306   1.451   1.421
 1228SOL     OW  871   2.989   1.341   1.690
 1228SOL    HW1  872   3.036   1.341   1.778
 1228SOL    HW2  873   2.941   1.254   1.679
 1230SOL     OW  874   2.102   1.091   0.886
 1230SOL    HW1  875   2.116   1.007   0.938
 1230SOL    HW2  876   2.047   1.155   0.941
 1231SOL     OW  877   2.482   1.786   1.439
 1231SOL    HW1  878   2.390   1.769   1.474
 1231SOL    HW2  879   2.510   1.878   1.465
 1239SOL     OW  880   1.975   0.737   1.597
 1239SOL    HW1  881   2.063   0.724   1.642
 1239SOL    HW2  882   1.962   0.834   1.575
 1240SOL     OW  883   2.475   1.365   0.726
 1240SOL    HW1  884   2.426   1.278   0.735
 1240SOL    HW2  885   2.452   1.408   0.639
 1241SOL     OW  886   3.155   1.228   1.423
 1241SOL    HW1  887   3.192   1.155   1.365
 1241SOL    HW2  888   3.207   1.233   1.508
 1243SOL     OW  889   2.059   0.976   1.264
 1243SOL    HW1  890   2.148   0.931   1.250
 1243SOL    HW2  891   1.986   0.911   1.245
 1245SOL     OW  892   3.049   1.792   1.616
 1245SOL    HW1  893   3.073   1.852   1.540
 1245SOL    HW2  894   3.056   1.697   1.586
 1254SOL     OW  895   2.835   0.890   1.572
 1254SOL    HW1  896   2.881   0.806   1.543
 1254SOL    HW2  897   2.779   0.924   1.497
 1258SOL     OW  898   1.992   1.821   1.571
 1258SOL    HW1  899   1.982   1.806   1.670
 1258SOL    HW2  900   1.906   1.857   1.535
 1264SOL     OW  901   2.213   1.801   0.853
 1264SOL    HW1  902   2.263   1.715   0.859
 1264SOL    HW2  903   2.278   1.878   0.850
 1266SOL     OW  904   3.089   1.550   1.506
 1266SOL    HW1  905   3.095   1.473   1.570
 1266SOL    HW2  906   3.037   1.524   1.426
 1269SOL     OW  907   2.323   1.266   1.727
 1269SOL    HW1  908   2.273   1.267   1.641
 1269SOL    HW2  909   2.260   1.248   1.803
 1275SOL     OW  910   2.111   1.785   1.241
 1275SOL    HW1  911   2.168   1.720   1.291
 1275SOL    HW2  912   2.095   1.752   1.148
 1276SOL     OW  913   2.802   1.698   0.904
 1276SOL    HW1  914   2.882   1.641   0.925
 1276SOL    HW2  915   2.753   1.658   0.827
 1281SOL     OW  916   2.750   1.514   1.195
 1281SOL    HW1  917   2.727   1.489   1.101
 1281SOL    HW2  918   2.811   1.445   1.234
 1283SOL     OW  919   2.665   1.402   0.924
 1283SOL    HW1  920   2.755   1.416   0.882
 1283SOL    HW2  921   2.594   1.404   0.853
 1290SOL     OW  922   3.089   1.570   0.793
 1290SOL    HW1  923   3.110   1.644   0.728
 1290SOL    HW2  924   3.157   1.570   0.866
 1306SOL     OW  925   2.926   1.347   1.340
 1306SOL    HW1  926   2.846   1.324   1.395
 1306SOL    HW2  927   3.009   1.321   1.389
 1307SOL     OW  928   3.454   1.629   1.625
 1307SOL    HW1  929   3.481   1.663   1.535
 1307SOL    HW2  930   3.533   1.591   1.671
 1308SOL     OW  931   2.973   1.195   1.100
 1308SOL    HW1  932   2.933   1.239   1.181
 1308SOL    HW2  933   2.932   1.232   1.017
 1311SOL     OW  934   2.842   1.116   1.719
 1311SOL    HW1  935   2.743   1.122   1.729
 1311SOL    HW2  936   2.865   1.036   1.663
 1313SOL     OW  937   2.272   0.813   1.251
 1313SOL    HW1  938   2.358   0.825   1.301
 1313SOL    HW2  939   2.230   0.726   1.278
 1315SOL     OW  940   1.926   1.564   1.331
 1315SOL    HW1  941   1.880   1.646   1.297
 1315SOL    HW2  942   2.024   1.583   1.340
 1319SOL     OW  943   3.134   1.445   1.142
 1319SOL    HW1  944   3.181   1.458   1.229
 1319SOL    HW2  945   3.068   1.371   1.151
 1321SOL     OW  946   2.216   1.510   1.329
 1321SOL    HW1  947   2.195   1.466   1.242
 1321SOL    HW2  948   2.313   1.536   1.332
 1322SOL     OW  949   2.264   0.751   1.598
 1322SOL    HW1  950   2.332   0.806   1.551
 1322SOL    HW2  951   2.304   0.663   1.625
 1330SOL     OW  952   1.899   1.310   1.282
 1330SOL    HW1  953   1.952   1.261   1.350
 1330SOL    HW2  954   1.921   1.408   1.287
 1336SOL     OW  955   2.842   1.573   1.700
 1336SOL    HW1  956   2.822   1.617   1.612
 1336SOL    HW2  957   2.881   1.482   1.684
 1337SOL     OW  958   3.721   1.518   1.605
 1337SOL    HW1  959   3.735   1.545   1.510
 1337SOL    HW2  960   3.804   1.540   1.658
 1338SOL     OW  961   2.212   0.898   1.804
 1338SOL    HW1  962   2.288   0.942   1.852
 1338SOL    HW2  963   2.247   0.851   1.722
 1341SOL     OW  964   2.930   1.333   0.849
 1341SOL    HW1  965   2.937   1.249   0.794
 1341SOL    HW2  966   2.992   1.402   0.813
 1347SOL     OW  967   1.950   1.801   0.927
 1347SOL    HW1  968   1.908   1.715   0.900
 1347SOL    HW2  969   2.044   1.804   0.893
 1348SOL     OW  970   2.366   1.568   0.910
 1348SOL    HW1  971   2.432   1.642   0.919
 1348SOL    HW2  972   2.410   1.489   0.868
 1351SOL     OW  973   2.051   0.520   1.722
 1351SOL    HW1  974   2.110   0.480   1.652
 1351SOL    HW2  975   1.993   0.591   1.681
 1352SOL     OW  976   3.231   0.950   1.660
 1352SOL    HW1  977   3.270   1.039   1.680
 1352SOL    HW2  978   3.241   0.930   1.563
 1355SOL     OW  979   2.114   1.564   1.744
 1355SOL    HW1  980   2.084   1.621   1.820
 1355SOL    HW2  981   2.107   1.467   1.770
 1357SOL     OW  982   2.792   1.678   1.465
 1357SOL    HW1  983   2.768   1.660   1.370
 1357SOL    HW2  984   2.822   1.772   1.475
 1359SOL     OW  985   2.021   1.137   1.466
 1359SOL    HW1  986   2.043   1.076   1.542
 1359SOL    HW2  987   2.031   1.088   1.380
 1363SOL     OW  988   3.114   1.731   1.128
 1363SOL    HW1  989   3.198   1.736   1.074
 1363SOL    HW2  990   3.091   1.635   1.146
 1364SOL     OW  991   1.945   1.258   1.022
 1364SOL    HW1  992   1.940   1.257   1.122
 1364SOL    HW2  993   1.862   1.217   0.984
 1365SOL     OW  994   2.550   1.662   1.716
 1365SOL    HW1  995   2.494   1.743   1.725
 1365SOL    HW2  996   2.602   1.666   1.630
 1369SOL     OW  997   1.992   1.794   1.851
 1369SOL    HW1  998   1.951   1.720   1.904
 1369SOL    HW2  999   2.056   1.845   1.909
 1371SOL     OW 1000   2.692   1.273   1.422
 1371SOL    HW1 1001   2.687   1.306   1.517
 1371SOL    HW2 1002   2.606   1.292   1.376
 1373SOL     OW 1003   3.512   1.720   1.394
 1373SOL    HW1 1004   3.565   1.730   1.310
 1373SOL    HW2 1005   3.485   1.810   1.428
 1377SOL     OW 1006   2.684   1.002   1.372
 1377SOL    HW1 1007   2.724   1.001   1.280
 1377SOL    HW2 1008   2.694   1.094   1.412
 1380SOL     OW 1009   2.234   1.288   1.490
 1380SOL    HW1 1010   2.221   1.381   1.456
 1380SOL    HW2 1011   2.150   1.236   1.477
 1387SOL     OW 1012   1.967   1.013   1.726
 1387SOL    HW1 1013   1.890   0.980   1.780
 1387SOL    HW2 1014   2.052   0.983   1.768
 1392SOL     OW 1015   2.475   0.842   1.431
 1392SOL    HW1 1016   2.531   0.923   1.414
 1392SOL    HW2 1017   2.534   0.762   1.434
 1393SOL     OW 1018   3.355   1.767   0.959
 1393SOL    HW1 1019   3.388   1.831   0.890
 1393SOL    HW2 1020   3.421   1.761   1.034
 1394SOL     OW 1021   2.578   0.565   1.708
 1394SOL    HW1 1022   2.597   0.630   1.782
 1394SOL    HW2 1023   2.638   0.485   1.717
 1395SOL     OW 1024   3.312   1.220   1.633
 1395SOL    HW1 1025   3.303   1.210   1.732
 1395SOL    HW2 1026   3.408   1.213   1.607
 1396SOL     OW 1027   2.252   1.741   1.560
 1396SOL    HW1 1028   2.161   1.782   1.558
 1396SOL    HW2 1029   2.245   1.647   1.592
 1403SOL     OW 1030   2.523   1.790   0.953
 1403SOL    HW1 1031   2.477   1.878   0.940
 1403SOL    HW2 1032   2.622   1.802   0.946
 1407SOL     OW 1033   2.083   1.314   1.844
 1407SOL    HW1 1034   2.018   1.241   1.823
 1407SOL    HW2 1035   2.087   1.328   1.942
 1409SOL     OW 1036   2.534   1.391   1.624
 1409SOL    HW1 1037   2.456   1.341   1.662
 1409SOL    HW2 1038   2.531   1.486   1.655
 1414SOL     OW 1039   2.674   1.586   0.687
 1414SOL    HW1 1040   2.706   1.596   0.593
 1414SOL    HW2 1041   2.595   1.524   0.689
 1418SOL     OW 1042   2.480   1.567   1.284
 1418SOL    HW1 1043   2.475   1.649   1.341
 1418SOL    HW2 1044   2.569   1.564   1.239
 1424SOL     OW 1045   2.092   0.628   1.975
 1424SOL    HW1 1046   1.999   0.626   2.012
 1424SOL    HW2 1047   2.093   0.589   1.883
 1427SOL     OW 1048   2.431   1.275   3.027
 1427SOL    HW1 1049   2.338   1.268   2.990
 1427SOL    HW2 1050   2.442   1.364   3.071
 1428SOL     OW 1051   3.417   1.511   2.565
 1428SOL    HW1 1052   3.360   1.495   2.646
 1428SOL    HW2 1053   3.358   1.521   2.485
 1429SOL     OW 1054   2.997   0.703   2.579
 1429SOL    HW1 1055   3.054   0.781   2.554
 1429SOL    HW2 1056   2.937   0.729   2.655
 1431SOL     OW 1057   2.630   1.144   2.885
 1431SOL    HW1 1058   2.552   1.161   2.945
 1431SOL    HW2 1059   2.664   1.231   2.849
 1433SOL     OW 1060   2.547   1.012   2.527
 1433SOL    HW1 1061   2.616   0.996   2.597
 1433SOL    HW2 1062   2.474   1.069   2.565
 1435SOL     OW 1063   2.197   1.435   2.923
 1435SOL    HW1 1064   2.119   1.404   2.870
 1435SOL    HW2 1065   2.255   1.493   2.866
 1436SOL     OW 1066   3.322   1.505   3.201
 1436SOL    HW1 1067   3.346   1.599   3.227
 1436SOL    HW2 1068   3.306   1.451   3.283
 1439SOL     OW 1069   2.093   1.713   2.345
 1439SOL    HW1 1070   2.127   1.790   2.399
 1439SOL    HW2 1071   2.137   1.713   2.255
 1440SOL     OW 1072   2.989   1.341   3.552
 1440SOL    HW1 1073   3.036   1.341   3.640
 1440SOL    HW2 1074   2.941   1.254   3.541
 1441SOL     OW 1075   2.092   1.434   2.400
 1441SOL    HW1 1076   2.066   1.530   2.400
 1441SOL    HW2 1077   2.021   1.380   2.445
 1442SOL     OW 1078   2.102   1.091   2.748
 1442SOL    HW1 1079   2.116   1.007   2.800
 1442SOL    HW2 1080   2.047   1.155   2.803
 1443SOL     OW 1081   2.482   1.786   3.301
 1443SOL    HW1 1082   2.390   1.769   3.336
 1443SOL    HW2 1083   2.510   1.878   3.327
 1444SOL     OW 1084   2.468   0.964   1.985
 1444SOL    HW1 1085   2.475   1.048   1.931
 1444SOL    HW2 1086   2.514   0.977   2.073
 1446SOL     OW 1087   1.984   0.643   2.425
 1446SOL    HW1 1088   1.939   0.555   2.442
 1446SOL    HW2 1089   1.983   0.697   2.509
 1447SOL     OW 1090   3.704   1.767   2.221
 1447SOL    HW1 1091   3.758   1.738   2.301
 1447SOL    HW2 1092   3.734   1.857   2.192
 1448SOL     OW 1093   1.889   1.596   1.979
 1448SOL    HW1 1094   1.870   1.500   2.000
 1448SOL    HW2 1095   1.856   1.654   2.054
 1450SOL     OW 1096   3.503   1.108   2.294
 1450SOL    HW1 1097   3.589   1.110   2.242
 1450SOL    HW2 1098   3.517   1.155   2.382
 1452SOL     OW 1099   2.475   1.365   2.588
 1452SOL    HW1 1100   2.426   1.278   2.597
 1452SOL    HW2 1101   2.452   1.408   2.501
 1453SOL     OW 1102   3.155   1.228   3.285
 1453SOL    HW1 1103   3.192   1.155   3.227
 1453SOL    HW2 1104   3.207   1.233   3.370
 1455SOL     OW 1105   2.059   0.976   3.126
 1455SOL    HW1 1106   2.148   0.931   3.112
 1455SOL    HW2 1107   1.986   0.911   3.107
 1456SOL     OW 1108   3.387   0.999   2.052
 1456SOL    HW1 1109   3.324   0.923   2.065
 1456SOL    HW2 1110   3.435   1.017   2.138
 1457SOL     OW 1111   3.049   1.792   3.478
 1457SOL    HW1 1112   3.073   1.852   3.402
 1457SOL    HW2 1113   3.056   1.697   3.448
 1459SOL     OW 1114   3.328   1.417   2.815
 1459SOL    HW1 1115   3.269   1.423   2.895
 1459SOL    HW2 1116   3.313   1.329   2.769
 1460SOL     OW 1117   3.529   1.714   2.434
 1460SOL    HW1 1118   3.488   1.691   2.346
 1460SOL    HW2 1119   3.511   1.640   2.499
 1461SOL     OW 1120   2.460   0.729   2.132
 1461SOL    HW1 1121   2.484   0.798   2.064
 1461SOL    HW2 1122   2.382   0.762   2.186
 1463SOL     OW 1123   3.438   1.662   2.169
 1463SOL    HW1 1124   3.527   1.708   2.172
 1463SOL    HW2 1125   3.417   1.638   2.074
 1468SOL     OW 1126   2.903   0.701   2.291
 1468SOL    HW1 1127   2.929   0.697   2.387
 1468SOL    HW2 1128   2.818   0.650   2.277
 1469SOL     OW 1129   1.938   0.811   2.651
 1469SOL    HW1 1130   2.037   0.799   2.660
 1469SOL    HW2 1131   1.914   0.906   2.672
 1470SOL     OW 1132   1.992   1.821   3.433
 1470SOL    HW1 1133   1.982   1.806   3.532
 1470SOL    HW2 1134   1.906   1.857   3.397
 1473SOL     OW 1135   3.224   1.144   2.407
 1473SOL    HW1 1136   3.307   1.115   2.359
 1473SOL    HW2 1137   3.175   1.211   2.351
 1475SOL     OW 1138   2.870   1.456   2.339
 1475SOL    HW1 1139   2.824   1.528   2.287
 1475SOL    HW2 1140   2.866   1.476   2.437
 1476SOL     OW 1141   2.213   1.801   2.715
 1476SOL    HW1 1142   2.263   1.715   2.721
 1476SOL    HW2 1143   2.278   1.878   2.712
 1478SOL     OW 1144   3.089   1.550   3.368
 1478SOL    HW1 1145   3.095   1.473   3.432
 1478SOL    HW2 1146   3.037   1.524   3.288
 1479SOL     OW 1147   2.183   0.943   2.104
 1479SOL    HW1 1148   2.265   0.982   2.062
 1479SOL    HW2 1149   2.156   0.861   2.055
 1481SOL     OW 1150   2.323   1.266   3.589
 1481SOL    HW1 1151   2.273   1.267   3.503
 1481SOL    HW2 1152   2.260   1.248   3.665
 1482SOL     OW 1153   2.973   1.776   2.099
 1482SOL    HW1 1154   2.913   1.714   2.149
 1482SOL    HW2 1155   3.004   1.732   2.014
 1484SOL     OW 1156   3.494   1.377   1.943
 1484SOL    HW1 1157   3.462   1.471   1.933
 1484SOL    HW2 1158   3.418   1.314   1.931
 1485SOL     OW 1159   2.326   1.743   2.185
 1485SOL    HW1 1160   2.359   1.782   2.271
 1485SOL    HW2 1161   2.402   1.736   2.120
 1487SOL     OW 1162   2.111   1.785   3.103
 1487SOL    HW1 1163   2.168   1.720   3.153
 1487SOL    HW2 1164   2.095   1.752   3.010
 1488SOL     OW 1165   2.802   1.698   2.766
 1488SOL    HW1 1166   2.882   1.641   2.787
 1488SOL    HW2 1167   2.753   1.658   2.689
 1489SOL     OW 1168   2.244   0.700   2.342
 1489SOL    HW1 1169   2.289   0.610   2.339
 1489SOL    HW2 1170   2.150   0.689   2.375
 1493SOL     OW 1171   2.750   1.514   3.057
 1493SOL    HW1 1172   2.727   1.489   2.963
 1493SOL    HW2 1173   2.811   1.445   3.096
 1495SOL     OW 1174   2.665   1.402   2.786
 1495SOL    HW1 1175   2.755   1.416   2.744
 1495SOL    HW2 1176   2.594   1.404   2.715
 1498SOL     OW 1177   3.296   1.188   1.903
 1498SOL    HW1 1178   3.328   1.112   1.960
 1498SOL    HW2 1179   3.204   1.215   1.933
 1502SOL     OW 1180   3.089   1.570   2.655
 1502SOL    HW1 1181   3.110   1.644   2.590
 1502SOL    HW2 1182   3.157   1.570   2.728
 1503SOL     OW 1183   2.321   1.152   2.603
 1503SOL    HW1 1184   2.250   1.125   2.668
 1503SOL    HW2 1185   2.295   1.124   2.510
 1504SOL     OW 1186   3.133   1.797   2.453
 1504SOL    HW1 1187   3.177   1.861   2.389
 1504SOL    HW2 1188   3.083   1.849   2.523
 1510SOL     OW 1189   3.291   1.173   2.729
 1510SOL    HW1 1190   3.236   1.089   2.722
 1510SOL    HW2 1191   3.317   1.202   2.637
 1513SOL     OW 1192   2.350   1.385   2.036
 1513SOL    HW1 1193   2.263   1.370   2.083
 1513SOL    HW2 1194   2.333   1.411   1.941
 1514SOL     OW 1195   3.526   1.280   2.519
 1514SOL    HW1 1196   3.625   1.288   2.533
 1514SOL    HW2 1197   3.481   1.364   2.550
 1518SOL     OW 1198   2.926   1.347   3.202
 1518SOL    HW1 1199   2.846   1.324   3.257
 1518SOL    HW2 1200   3.009   1.321   3.251
 1520SOL     OW 1201   2.973   1.195   2.962
 1520SOL    HW1 1202   2.933   1.239   3.043
 1520SOL    HW2 1203   2.932   1.232   2.879
 1524SOL     OW 1204   2.567   1.050   2.230
 1524SOL    HW1 1205   2.553   1.057   2.329
 1524SOL    HW2 1206   2.651   0.999   2.212
 1525SOL     OW 1207   2.272   0.813   3.113
 1525SOL    HW1 1208   2.358   0.825   3.163
 1525SOL    HW2 1209   2.230   0.726   3.140
 1527SOL     OW 1210   1.926   1.564   3.193
 1527SOL    HW1 1211   1.880   1.646   3.159
 1527SOL    HW2 1212   2.024   1.583   3.202
 1528SOL     OW 1213   2.229   1.100   2.363
 1528SOL    HW1 1214   2.222   1.183   2.307
 1528SOL    HW2 1215   2.233   1.020   2.303
 1529SOL     OW 1216   2.428   0.537   2.727
 1529SOL    HW1 1217   2.440   0.603   2.653
 1529SOL    HW2 1218   2.474   0.571   2.810
 1530SOL     OW 1219   3.114   1.348   2.250
 1530SOL    HW1 1220   3.164   1.425   2.290
 1530SOL    HW2 1221   3.019   1.350   2.282
 1531SOL     OW 1222   3.134   1.445   3.004
 1531SOL    HW1 1223   3.181   1.458   3.091
 1531SOL    HW2 1224   3.068   1.371   3.013
 1533SOL     OW 1225   2.216   1.510   3.191
 1533SOL    HW1 1226   2.195   1.466   3.104
 1533SOL    HW2 1227   2.313   1.536   3.194
 1538SOL     OW 1228   2.435   0.870   2.891
 1538SOL    HW1 1229   2.479   0.959   2.882
 1538SOL    HW2 1230   2.372   0.870   2.968
 1542SOL     OW 1231   1.899   1.310   3.144
 1542SOL    HW1 1232   1.952   1.261   3.212
 1542SOL    HW2 1233   1.921   1.408   3.149
 1543SOL     OW 1234   2.594   0.634   2.926
 1543SOL    HW1 1235   2.653   0.608   2.850
 1543SOL    HW2 1236   2.566   0.730   2.915
 1547SOL     OW 1237   2.885   0.766   2.828
 1547SOL    HW1 1238   2.900   0.787   2.924
 1547SOL    HW2 1239   2.855   0.671   2.819
 1548SOL     OW 1240   2.842   1.573   3.562
 1548SOL    HW1 1241   2.822   1.617   3.474
 1548SOL    HW2 1242   2.881   1.482   3.546
 1552SOL     OW 1243   3.165   0.838   1.904
 1552SOL    HW1 1244   3.199   0.745   1.919
 1552SOL    HW2 1245   3.183   0.865   1.809
 1553SOL     OW 1246   2.930   1.333   2.711
 1553SOL    HW1 1247   2.937   1.249   2.656
 1553SOL    HW2 1248   2.992   1.402   2.675
 1554SOL     OW 1249   2.181   0.810   2.811
 1554SOL    HW1 1250   2.274   0.846   2.816
 1554SOL    HW2 1251   2.175   0.725   2.863
 1558SOL     OW 1252   1.870   1.326   2.062
 1558SOL    HW1 1253   1.777   1.347   2.031
 1558SOL    HW2 1254   1.880   1.227   2.075
 1559SOL     OW 1255   1.950   1.801   2.789
 1559SOL    HW1 1256   1.908   1.715   2.762
 1559SOL    HW2 1257   2.044   1.804   2.755
 1560SOL     OW 1258   2.366   1.568   2.772
 1560SOL    HW1 1259   2.432   1.642   2.781
 1560SOL    HW2 1260   2.410   1.489   2.730
 1561SOL     OW 1261   2.864   0.796   3.100
 1561SOL    HW1 1262   2.905   0.764   3.186
 1561SOL    HW2 1263   2.768   0.769   3.097
 1565SOL     OW 1264   2.677   0.572   2.187
 1565SOL    HW1 1265   2.684   0.483   2.141
 1565SOL    HW2 1266   2.583   0.606   2.179
 1567SOL     OW 1267   2.114   1.564   3.606
 1567SOL    HW1 1268   2.084   1.621   3.682
 1567SOL    HW2 1269   2.107   1.467   3.632
 1569SOL     OW 1270   2.792   1.678   3.327
 1569SOL    HW1 1271   2.768   1.660   3.232
 1569SOL    HW2 1272   2.822   1.772   3.337
 1570SOL     OW 1273   2.335   0.500   2.053
 1570SOL    HW1 1274   2.396   0.580   2.057
 1570SOL    HW2 1275   2.240   0.531   2.060
 1571SOL     OW 1276   2.021   1.137   3.328
 1571SOL    HW1 1277   2.043   1.076   3.404
 1571SOL    HW2 1278   2.031   1.088   3.242
 1572SOL     OW 1279   3.209   1.059   3.096
 1572SOL    HW1 1280   3.233   0.996   3.022
 1572SOL    HW2 1281   3.119   1.099   3.078
 1573SOL     OW 1282   3.164   0.855   2.171
 1573SOL    HW1 1283   3.078   0.824   2.213
 1573SOL    HW2 1284   3.160   0.841   2.072
 1574SOL     OW 1285   3.621   1.747   3.016
 1574SOL    HW1 1286   3.682   1.777   2.943
 1574SOL    HW2 1287   3.583   1.658   2.994
 1575SOL     OW 1288   3.114   1.731   2.990
 1575SOL    HW1 1289   3.198   1.736   2.936
 1575SOL    HW2 1290   3.091   1.635   3.008
 1576SOL     OW 1291   1.945   1.258   2.884
 1576SOL    HW1 1292   1.940   1.257   2.984
 1576SOL    HW2 1293   1.862   1.217   2.846
 1577SOL     OW 1294   2.550   1.662   3.578
 1577SOL    HW1 1295   2.494   1.743   3.587
 1577SOL    HW2 1296   2.602   1.666   3.492
 1579SOL     OW 1297   3.250   1.573   2.339
 1579SOL    HW1 1298   3.317   1.585   2.265
 1579SOL    HW2 1299   3.210   1.662   2.362
 1580SOL     OW 1300   1.992   1.794   3.713
 1580SOL    HW1 1301   1.951   1.720   3.766
 1580SOL    HW2 1302   2.056   1.845   3.771
 1581SOL     OW 1303   3.142   0.927   2.534
 1581SOL    HW1 1304   3.202   0.846   2.536
 1581SOL    HW2 1305   3.182   0.996   2.474
 1582SOL     OW 1306   2.692   1.273   3.284
 1582SOL    HW1 1307   2.687   1.306   3.379
 1582SOL    HW2 1308   2.606   1.292   3.238
 1583SOL     OW 1309   2.534   1.616   2.016
 1583SOL    HW1 1310   2.543   1.626   1.917
 1583SOL    HW2 1311   2.494   1.527   2.037
 1584SOL     OW 1312   3.512   1.720   3.256
 1584SOL    HW1 1313   3.565   1.730   3.172
 1584SOL    HW2 1314   3.485   1.810   3.290
 1587SOL     OW 1315   3.056   1.612   1.893
 1587SOL    HW1 1316   3.062   1.519   1.930
 1587SOL    HW2 1317   2.997   1.612   1.813
 1588SOL     OW 1318   2.684   1.002   3.234
 1588SOL    HW1 1319   2.724   1.001   3.142
 1588SOL    HW2 1320   2.694   1.094   3.274
 1589SOL     OW 1321   2.778   0.910   2.153
 1589SOL    HW1 1322   2.841   0.948   2.085
 1589SOL    HW2 1323   2.818   0.827   2.192
 1590SOL     OW 1324   3.366   1.607   1.906
 1590SOL    HW1 1325   3.274   1.644   1.913
 1590SOL    HW2 1326   3.404   1.627   1.816
 1591SOL     OW 1327   2.234   1.288   3.352
 1591SOL    HW1 1328   2.221   1.381   3.318
 1591SOL    HW2 1329   2.150   1.236   3.339
 1593SOL     OW 1330   2.901   1.098   2.558
 1593SOL    HW1 1331   2.831   1.051   2.612
 1593SOL    HW2 1332   2.960   1.030   2.515
 1595SOL     OW 1333   2.452   1.487   2.353
 1595SOL    HW1 1334   2.494   1.429   2.283
 1595SOL    HW2 1335   2.408   1.566   2.309
 1597SOL     OW 1336   2.117   1.348   2.152
 1597SOL    HW1 1337   2.021   1.349   2.125
 1597SOL    HW2 1338   2.129   1.401   2.236
 1603SOL     OW 1339   3.045   1.335   1.981
 1603SOL    HW1 1340   2.946   1.324   1.983
 1603SOL    HW2 1341   3.079   1.350   2.074
 1604SOL     OW 1342   2.475   0.842   3.293
 1604SOL    HW1 1343   2.531   0.923   3.276
 1604SOL    HW2 1344   2.534   0.762   3.296
 1605SOL     OW 1345   3.355   1.767   2.821
 1605SOL    HW1 1346   3.388   1.831   2.752
 1605SOL    HW2 1347   3.421   1.761   2.896
 1608SOL     OW 1348   2.252   1.741   3.422
 1608SOL    HW1 1349   2.161   1.782   3.420
 1608SOL    HW2 1350   2.245   1.647   3.454
 1611SOL     OW 1351   2.456   0.745   2.514
 1611SOL    HW1 1352   2.506   0.830   2.495
 1611SOL    HW2 1353   2.368   0.747   2.466
 1614SOL     OW 1354   2.721   1.374   1.878
 1614SOL    HW1 1355   2.675   1.389   1.966
 1614SOL    HW2 1356   2.765   1.459   1.848
 1615SOL     OW 1357   2.523   1.790   2.815
 1615SOL    HW1 1358   2.477   1.878   2.802
 1615SOL    HW2 1359   2.622   1.802   2.808
 1616SOL     OW 1360   2.721   0.956   2.723
 1616SOL    HW1 1361   2.775   0.887   2.771
 1616SOL    HW2 1362   2.689   1.025   2.789
 1617SOL     OW 1363   2.945   0.984   1.949
 1617SOL    HW1 1364   2.922   1.037   1.867
 1617SOL    HW2 1365   3.026   0.928   1.930
 1618SOL     OW 1366   3.723   1.569   2.713
 1618SOL    HW1 1367   3.652   1.557   2.643
 1618SOL    HW2 1368   3.724   1.490   2.773
 1619SOL     OW 1369   2.083   1.314   3.706
 1619SOL    HW1 1370   2.018   1.241   3.685
 1619SOL    HW2 1371   2.087   1.328   3.804
 1620SOL     OW 1372   1.941   1.240   2.515
 1620SOL    HW1 1373   1.940   1.193   2.603
 1620SOL    HW2 1374   2.023   1.212   2.464
 1621SOL     OW 1375   2.534   1.391   3.486
 1621SOL    HW1 1376   2.456   1.341   3.524
 1621SOL    HW2 1377   2.531   1.486   3.517
 1624SOL     OW 1378   3.567   1.487   2.966
 1624SOL    HW1 1379   3.474   1.462   2.939
 1624SOL    HW2 1380   3.593   1.437   3.048
 1626SOL     OW 1381   2.674   1.586   2.549
 1626SOL    HW1 1382   2.706   1.596   2.455
 1626SOL    HW2 1383   2.595   1.524   2.551
 1629SOL     OW 1384   2.632   1.330   2.163
 1629SOL    HW1 1385   2.586   1.243   2.180
 1629SOL    HW2 1386   2.723   1.327   2.204
 1630SOL     OW 1387   2.480   1.567   3.146
 1630SOL    HW1 1388   2.475   1.649   3.203
 1630SOL    HW2 1389   2.569   1.564   3.101
 1634SOL     OW 1390   1.901   1.077   2.162
 1634SOL    HW1 1391   2.000   1.066   2.153
 1634SOL    HW2 1392   1.861   0.991   2.194
 1635SOL     OW 1393   2.737   1.646   2.199
 1635SOL    HW1 1394   2.660   1.611   2.145
 1635SOL    HW2 1395   2.705   1.717   2.261
 1645SOL     OW 1396   1.889   1.596   3.841
 1645SOL    HW1 1397   1.870   1.500   3.862
 1645SOL    HW2 1398   1.856   1.654   3.916
 1696SOL     OW 1399   2.534   1.616   3.878
 1696SOL    HW1 1400   2.543   1.626   3.779
 1696SOL    HW2 1401   2.494   1.527   3.899
 1719SOL     OW 1402   2.087   2.137   0.996
 1719SOL    HW1 1403   2.122   2.120   1.088
 1719SOL    HW2 1404   1.999   2.092   0.984
 1720SOL     OW 1405   1.881   2.230   0.647
 1720SOL    HW1 1406   1.799   2.273   0.686
 1720SOL    HW2 1407   1.853   2.157   0.584
 1721SOL     OW 1408   2.431   3.137   1.165
 1721SOL    HW1 1409   2.338   3.130   1.128
 1721SOL    HW2 1410   2.442   3.226   1.209
 1723SOL     OW 1411   2.997   2.565   0.717
 1723SOL    HW1 1412   3.054   2.643   0.692
 1723SOL    HW2 1413   2.937   2.591   0.793
 1725SOL     OW 1414   2.630   3.006   1.023
 1725SOL    HW1 1415   2.552   3.023   1.083
 1725SOL    HW2 1416   2.664   3.093   0.987
 1726SOL     OW 1417   2.712   2.660   1.823
 1726SOL    HW1 1418   2.708   2.736   1.888
 1726SOL    HW2 1419   2.734   2.696   1.732
 1727SOL     OW 1420   2.547   2.874   0.665
 1727SOL    HW1 1421   2.616   2.858   0.735
 1727SOL    HW2 1422   2.474   2.931   0.703
 1728SOL     OW 1423   2.548   3.023   1.803
 1728SOL    HW1 1424   2.608   3.102   1.817
 1728SOL    HW2 1425   2.462   3.054   1.762
 1729SOL     OW 1426   2.197   3.297   1.061
 1729SOL    HW1 1427   2.119   3.266   1.008
 1729SOL    HW2 1428   2.255   3.355   1.004
 1731SOL     OW 1429   2.300   2.254   1.499
 1731SOL    HW1 1430   2.382   2.198   1.508
 1731SOL    HW2 1431   2.219   2.196   1.503
 1734SOL     OW 1432   2.989   3.203   1.690
 1734SOL    HW1 1433   3.036   3.203   1.778
 1734SOL    HW2 1434   2.941   3.116   1.679
 1736SOL     OW 1435   2.102   2.953   0.886
 1736SOL    HW1 1436   2.116   2.869   0.938
 1736SOL    HW2 1437   2.047   3.017   0.941
 1737SOL     OW 1438   2.482   3.648   1.439
 1737SOL    HW1 1439   2.390   3.631   1.474
 1737SOL    HW2 1440   2.510   3.740   1.465
 1739SOL     OW 1441   3.456   1.976   1.480
 1739SOL    HW1 1442   3.438   2.043   1.408
 1739SOL    HW2 1443   3.453   2.022   1.569
 1740SOL     OW 1444   1.984   2.505   0.563
 1740SOL    HW1 1445   1.939   2.417   0.580
 1740SOL    HW2 1446   1.983   2.559   0.647
 1745SOL     OW 1447   1.975   2.599   1.597
 1745SOL    HW1 1448   2.063   2.586   1.642
 1745SOL    HW2 1449   1.962   2.696   1.575
 1747SOL     OW 1450   3.155   3.090   1.423
 1747SOL    HW1 1451   3.192   3.017   1.365
 1747SOL    HW2 1452   3.207   3.095   1.508
 1749SOL     OW 1453   2.059   2.838   1.264
 1749SOL    HW1 1454   2.148   2.793   1.250
 1749SOL    HW2 1455   1.986   2.773   1.245
 1751SOL     OW 1456   3.049   3.654   1.616
 1751SOL    HW1 1457   3.073   3.714   1.540
 1751SOL    HW2 1458   3.056   3.559   1.586
 1752SOL     OW 1459   2.179   2.113   1.801
 1752SOL    HW1 1460   2.250   2.184   1.807
 1752SOL    HW2 1461   2.091   2.152   1.829
 1756SOL     OW 1462   3.143   2.207   0.944
 1756SOL    HW1 1463   3.057   2.157   0.931
 1756SOL    HW2 1464   3.205   2.153   1.000
 1758SOL     OW 1465   2.669   2.467   1.465
 1758SOL    HW1 1466   2.622   2.464   1.554
 1758SOL    HW2 1467   2.618   2.412   1.399
 1759SOL     OW 1468   3.256   2.331   1.674
 1759SOL    HW1 1469   3.236   2.374   1.762
 1759SOL    HW2 1470   3.334   2.269   1.683
 1760SOL     OW 1471   2.835   2.752   1.572
 1760SOL    HW1 1472   2.881   2.668   1.543
 1760SOL    HW2 1473   2.779   2.786   1.497
 1761SOL     OW 1474   2.853   2.272   1.242
 1761SOL    HW1 1475   2.776   2.306   1.296
 1761SOL    HW2 1476   2.819   2.221   1.163
 1763SOL     OW 1477   1.938   2.673   0.789
 1763SOL    HW1 1478   2.037   2.661   0.798
 1763SOL    HW2 1479   1.914   2.768   0.810
 1764SOL     OW 1480   1.992   3.683   1.571
 1764SOL    HW1 1481   1.982   3.668   1.670
 1764SOL    HW2 1482   1.906   3.719   1.535
 1766SOL     OW 1483   3.581   2.447   1.831
 1766SOL    HW1 1484   3.555   2.536   1.795
 1766SOL    HW2 1485   3.579   2.379   1.758
 1768SOL     OW 1486   2.412   2.058   0.885
 1768SOL    HW1 1487   2.407   2.053   0.985
 1768SOL    HW2 1488   2.414   2.154   0.856
 1772SOL     OW 1489   3.089   3.412   1.506
 1772SOL    HW1 1490   3.095   3.335   1.570
 1772SOL    HW2 1491   3.037   3.386   1.426
 1775SOL     OW 1492   2.323   3.128   1.727
 1775SOL    HW1 1493   2.273   3.129   1.641
 1775SOL    HW2 1494   2.260   3.110   1.803
 1777SOL     OW 1495   2.064   2.147   1.498
 1777SOL    HW1 1496   1.984   2.207   1.485
 1777SOL    HW2 1497   2.054   2.098   1.584
 1781SOL     OW 1498   2.111   3.647   1.241
 1781SOL    HW1 1499   2.168   3.582   1.291
 1781SOL    HW2 1500   2.095   3.614   1.148
 1783SOL     OW 1501   2.244   2.562   0.480
 1783SOL    HW1 1502   2.289   2.472   0.477
 1783SOL    HW2 1503   2.150   2.551   0.513
 1784SOL     OW 1504   3.409   2.084   1.729
 1784SOL    HW1 1505   3.404   2.121   1.821
 1784SOL    HW2 1506   3.337   2.015   1.717
 1786SOL     OW 1507   2.643   2.126   1.749
 1786SOL    HW1 1508   2.710   2.065   1.792
 1786SOL    HW2 1509   2.570   2.145   1.814
 1787SOL     OW 1510   2.750   3.376   1.195
 1787SOL    HW1 1511   2.727   3.351   1.101
 1787SOL    HW2 1512   2.811   3.307   1.234
 1788SOL     OW 1513   3.213   2.452   1.433
 1788SOL    HW1 1514   3.241   2.409   1.518
 1788SOL    HW2 1515   3.238   2.548   1.434
 1789SOL     OW 1516   2.665   3.264   0.924
 1789SOL    HW1 1517   2.755   3.278   0.882
 1789SOL    HW2 1518   2.594   3.266   0.853
 1790SOL     OW 1519   2.784   2.365   0.899
 1790SOL    HW1 1520   2.759   2.356   0.803
 1790SOL    HW2 1521   2.832   2.283   0.930
 1791SOL     OW 1522   2.401   1.926   0.512
 1791SOL    HW1 1523   2.320   1.927   0.570
 1791SOL    HW2 1524   2.404   2.009   0.457
 1794SOL     OW 1525   2.938   2.545   1.464
 1794SOL    HW1 1526   2.858   2.484   1.467
 1794SOL    HW2 1527   3.019   2.492   1.440
 1796SOL     OW 1528   2.321   3.014   0.741
 1796SOL    HW1 1529   2.250   2.987   0.806
 1796SOL    HW2 1530   2.295   2.986   0.648
 1799SOL     OW 1531   1.940   2.418   1.386
 1799SOL    HW1 1532   2.032   2.417   1.345
 1799SOL    HW2 1533   1.934   2.492   1.453
 1800SOL     OW 1534   2.423   2.084   1.147
 1800SOL    HW1 1535   2.461   2.000   1.184
 1800SOL    HW2 1536   2.335   2.103   1.191
 1801SOL     OW 1537   2.728   2.316   0.642
 1801SOL    HW1 1538   2.696   2.388   0.580
 1801SOL    HW2 1539   2.752   2.235   0.589
 1802SOL     OW 1540   2.879   1.901   0.753
 1802SOL    HW1 1541   2.807   1.906   0.684
 1802SOL    HW2 1542   2.855   1.832   0.822
 1804SOL     OW 1543   3.328   2.452   0.992
 1804SOL    HW1 1544   3.298   2.357   0.999
 1804SOL    HW2 1545   3.401   2.468   1.058
 1810SOL     OW 1546   3.616   3.085   1.588
 1810SOL    HW1 1547   3.707   3.046   1.575
 1810SOL    HW2 1548   3.624   3.181   1.612
 1811SOL     OW 1549   2.926   3.209   1.340
 1811SOL    HW1 1550   2.846   3.186   1.395
 1811SOL    HW2 1551   3.009   3.183   1.389
 1813SOL     OW 1552   2.973   3.057   1.100
 1813SOL    HW1 1553   2.933   3.101   1.181
 1813SOL    HW2 1554   2.932   3.094   1.017
 1815SOL     OW 1555   2.777   1.951   1.402
 1815SOL    HW1 1556   2.802   1.931   1.307
 1815SOL    HW2 1557   2.849   2.007   1.444
 1816SOL     OW 1558   2.842   2.978   1.719
 1816SOL    HW1 1559   2.743   2.984   1.729
 1816SOL    HW2 1560   2.865   2.898   1.663
 1818SOL     OW 1561   2.272   2.675   1.251
 1818SOL    HW1 1562   2.358   2.687   1.301
 1818SOL    HW2 1563   2.230   2.588   1.278
 1819SOL     OW 1564   3.136   2.248   1.262
 1819SOL    HW1 1565   3.157   2.322   1.326
 1819SOL    HW2 1566   3.047   2.265   1.219
 1820SOL     OW 1567   1.926   3.426   1.331
 1820SOL    HW1 1568   1.880   3.508   1.297
 1820SOL    HW2 1569   2.024   3.445   1.340
 1822SOL     OW 1570   2.428   2.399   0.865
 1822SOL    HW1 1571   2.440   2.465   0.791
 1822SOL    HW2 1572   2.474   2.433   0.948
 1824SOL     OW 1573   3.134   3.307   1.142
 1824SOL    HW1 1574   3.181   3.320   1.229
 1824SOL    HW2 1575   3.068   3.233   1.151
 1826SOL     OW 1576   2.216   3.372   1.329
 1826SOL    HW1 1577   2.195   3.328   1.242
 1826SOL    HW2 1578   2.313   3.398   1.332
 1827SOL     OW 1579   2.264   2.613   1.598
 1827SOL    HW1 1580   2.332   2.668   1.551
 1827SOL    HW2 1581   2.304   2.525   1.625
 1828SOL     OW 1582   3.449   2.641   1.670
 1828SOL    HW1 1583   3.357   2.679   1.665
 1828SOL    HW2 1584   3.509   2.688   1.605
 1829SOL     OW 1585   2.875   1.967   1.770
 1829SOL    HW1 1586   2.881   2.052   1.718
 1829SOL    HW2 1587   2.907   1.891   1.713
 1830SOL     OW 1588   2.366   1.912   1.740
 1830SOL    HW1 1589   2.324   1.855   1.670
 1830SOL    HW2 1590   2.300   1.981   1.772
 1831SOL     OW 1591   2.435   2.732   1.029
 1831SOL    HW1 1592   2.479   2.821   1.020
 1831SOL    HW2 1593   2.372   2.732   1.106
 1832SOL     OW 1594   3.222   2.724   1.045
 1832SOL    HW1 1595   3.147   2.724   0.979
 1832SOL    HW2 1596   3.259   2.632   1.054
 1834SOL     OW 1597   2.169   2.075   1.231
 1834SOL    HW1 1598   2.146   2.112   1.321
 1834SOL    HW2 1599   2.139   1.980   1.225
 1835SOL     OW 1600   1.899   3.172   1.282
 1835SOL    HW1 1601   1.952   3.123   1.350
 1835SOL    HW2 1602   1.921   3.270   1.287
 1836SOL     OW 1603   2.594   2.496   1.064
 1836SOL    HW1 1604   2.653   2.470   0.988
 1836SOL    HW2 1605   2.566   2.592   1.053
 1837SOL     OW 1606   3.590   2.797   1.854
 1837SOL    HW1 1607   3.544   2.790   1.765
 1837SOL    HW2 1608   3.528   2.841   1.920
 1838SOL     OW 1609   2.169   1.925   0.618
 1838SOL    HW1 1610   2.158   2.019   0.651
 1838SOL    HW2 1611   2.164   1.862   0.695
 1840SOL     OW 1612   2.885   2.628   0.966
 1840SOL    HW1 1613   2.900   2.649   1.062
 1840SOL    HW2 1614   2.855   2.533   0.957
 1841SOL     OW 1615   2.842   3.435   1.700
 1841SOL    HW1 1616   2.822   3.479   1.612
 1841SOL    HW2 1617   2.881   3.344   1.684
 1843SOL     OW 1618   2.212   2.760   1.804
 1843SOL    HW1 1619   2.288   2.804   1.852
 1843SOL    HW2 1620   2.247   2.713   1.722
 1847SOL     OW 1621   2.181   2.672   0.949
 1847SOL    HW1 1622   2.274   2.708   0.954
 1847SOL    HW2 1623   2.175   2.587   1.001
 1848SOL     OW 1624   2.201   2.371   1.006
 1848SOL    HW1 1625   2.149   2.288   0.989
 1848SOL    HW2 1626   2.278   2.376   0.942
 1849SOL     OW 1627   3.000   2.242   1.678
 1849SOL    HW1 1628   2.955   2.305   1.742
 1849SOL    HW2 1629   3.093   2.273   1.661
 1850SOL     OW 1630   3.022   2.069   1.477
 1850SOL    HW1 1631   3.022   2.133   1.554
 1850SOL    HW2 1632   3.050   2.117   1.394
 1853SOL     OW 1633   2.366   3.430   0.910
 1853SOL    HW1 1634   2.432   3.504   0.919
 1853SOL    HW2 1635   2.410   3.351   0.868
 1854SOL     OW 1636   2.864   2.658   1.238
 1854SOL    HW1 1637   2.905   2.626   1.324
 1854SOL    HW2 1638   2.768   2.631   1.235
 1855SOL     OW 1639   1.902   2.406   1.114
 1855SOL    HW1 1640   1.987   2.373   1.073
 1855SOL    HW2 1641   1.915   2.421   1.212
 1856SOL     OW 1642   2.051   2.382   1.722
 1856SOL    HW1 1643   2.110   2.342   1.652
 1856SOL    HW2 1644   1.993   2.453   1.681
 1857SOL     OW 1645   3.231   2.812   1.660
 1857SOL    HW1 1646   3.270   2.901   1.680
 1857SOL    HW2 1647   3.241   2.792   1.563
 1859SOL     OW 1648   3.519   2.466   1.206
 1859SOL    HW1 1649   3.481   2.397   1.268
 1859SOL    HW2 1650   3.601   2.430   1.162
 1860SOL     OW 1651   2.114   3.426   1.744
 1860SOL    HW1 1652   2.084   3.483   1.820
 1860SOL    HW2 1653   2.107   3.329   1.770
 1861SOL     OW 1654   2.533   2.326   1.269
 1861SOL    HW1 1655   2.499   2.237   1.239
 1861SOL    HW2 1656   2.559   2.380   1.189
 1862SOL     OW 1657   2.792   3.540   1.465
 1862SOL    HW1 1658   2.768   3.522   1.370
 1862SOL    HW2 1659   2.822   3.634   1.475
 1864SOL     OW 1660   2.021   2.999   1.466
 1864SOL    HW1 1661   2.043   2.938   1.542
 1864SOL    HW2 1662   2.031   2.950   1.380
 1865SOL     OW 1663   3.209   2.921   1.234
 1865SOL    HW1 1664   3.233   2.858   1.160
 1865SOL    HW2 1665   3.119   2.961   1.216
 1869SOL     OW 1666   1.945   3.120   1.022
 1869SOL    HW1 1667   1.940   3.119   1.122
 1869SOL    HW2 1668   1.862   3.079   0.984
 1870SOL     OW 1669   2.550   3.524   1.716
 1870SOL    HW1 1670   2.494   3.605   1.725
 1870SOL    HW2 1671   2.602   3.528   1.630
 1874SOL     OW 1672   1.992   3.656   1.851
 1874SOL    HW1 1673   1.951   3.582   1.904
 1874SOL    HW2 1674   2.056   3.707   1.909
 1876SOL     OW 1675   2.692   3.135   1.422
 1876SOL    HW1 1676   2.687   3.168   1.517
 1876SOL    HW2 1677   2.606   3.154   1.376
 1880SOL     OW 1678   2.125   2.188   0.720
 1880SOL    HW1 1679   2.046   2.239   0.686
 1880SOL    HW2 1680   2.116   2.173   0.818
 1882SOL     OW 1681   2.684   2.864   1.372
 1882SOL    HW1 1682   2.724   2.863   1.280
 1882SOL    HW2 1683   2.694   2.956   1.412
 1885SOL     OW 1684   2.234   3.150   1.490
 1885SOL    HW1 1685   2.221   3.243   1.456
 1885SOL    HW2 1686   2.150   3.098   1.477
 1888SOL     OW 1687   2.876   2.098   0.971
 1888SOL    HW1 1688   2.868   2.062   0.878
 1888SOL    HW2 1689   2.874   2.022   1.036
 1890SOL     OW 1690   3.571   2.247   1.381
 1890SOL    HW1 1691   3.644   2.316   1.385
 1890SOL    HW2 1692   3.599   2.172   1.322
 1892SOL     OW 1693   1.967   2.875   1.726
 1892SOL    HW1 1694   1.890   2.842   1.780
 1892SOL    HW2 1695   2.052   2.845   1.768
 1893SOL     OW 1696   2.534   2.065   1.489
 1893SOL    HW1 1697   2.624   2.049   1.449
 1893SOL    HW2 1698   2.542   2.070   1.588
 1895SOL     OW 1699   3.302   2.718   1.398
 1895SOL    HW1 1700   3.245   2.770   1.335
 1895SOL    HW2 1701   3.398   2.730   1.374
 1897SOL     OW 1702   2.475   2.704   1.431
 1897SOL    HW1 1703   2.531   2.785   1.414
 1897SOL    HW2 1704   2.534   2.624   1.434
 1899SOL     OW 1705   2.578   2.427   1.708
 1899SOL    HW1 1706   2.597   2.492   1.782
 1899SOL    HW2 1707   2.638   2.347   1.717
 1900SOL     OW 1708   3.312   3.082   1.633
 1900SOL    HW1 1709   3.303   3.072   1.732
 1900SOL    HW2 1710   3.408   3.075   1.607
 1901SOL     OW 1711   2.252   3.603   1.560
 1901SOL    HW1 1712   2.161   3.644   1.558
 1901SOL    HW2 1713   2.245   3.509   1.592
 1902SOL     OW 1714   3.536   2.745   1.254
 1902SOL    HW1 1715   3.509   2.656   1.217
 1902SOL    HW2 1716   3.537   2.813   1.181
 1904SOL     OW 1717   2.456   2.607   0.652
 1904SOL    HW1 1718   2.506   2.692   0.633
 1904SOL    HW2 1719   2.368   2.609   0.604
 1905SOL     OW 1720   3.639   2.204   1.642
 1905SOL    HW1 1721   3.622   2.235   1.548
 1905SOL    HW2 1722   3.555   2.167   1.680
 1906SOL     OW 1723   3.592   2.796   1.517
 1906SOL    HW1 1724   3.630   2.887   1.532
 1906SOL    HW2 1725   3.584   2.779   1.418
 1909SOL     OW 1726   2.721   2.818   0.861
 1909SOL    HW1 1727   2.775   2.749   0.909
 1909SOL    HW2 1728   2.689   2.887   0.927
 1912SOL     OW 1729   2.083   3.176   1.844
 1912SOL    HW1 1730   2.018   3.103   1.823
 1912SOL    HW2 1731   2.087   3.190   1.942
 1914SOL     OW 1732   2.534   3.253   1.624
 1914SOL    HW1 1733   2.456   3.203   1.662
 1914SOL    HW2 1734   2.531   3.348   1.655
 1915SOL     OW 1735   3.686   2.054   1.227
 1915SOL    HW1 1736   3.682   1.964   1.271
 1915SOL    HW2 1737   3.689   2.043   1.128
 1916SOL     OW 1738   2.290   2.286   0.520
 1916SOL    HW1 1739   2.320   2.214   0.458
 1916SOL    HW2 1740   2.251   2.246   0.603
 1918SOL     OW 1741   2.179   2.409   1.280
 1918SOL    HW1 1742   2.217   2.350   1.352
 1918SOL    HW2 1743   2.219   2.383   1.192
 1920SOL     OW 1744   3.286   2.076   1.112
 1920SOL    HW1 1745   3.338   2.011   1.167
 1920SOL    HW2 1746   3.237   2.139   1.173
 1921SOL     OW 1747   2.863   1.896   1.154
 1921SOL    HW1 1748   2.800   1.824   1.123
 1921SOL    HW2 1749   2.956   1.860   1.154
 1923SOL     OW 1750   2.480   3.429   1.284
 1923SOL    HW1 1751   2.475   3.511   1.341
 1923SOL    HW2 1752   2.569   3.426   1.239
 1929SOL     OW 1753   2.092   2.490   1.975
 1929SOL    HW1 1754   1.999   2.488   2.012
 1929SOL    HW2 1755   2.093   2.451   1.883
 1930SOL     OW 1756   2.087   2.137   2.858
 1930SOL    HW1 1757   2.122   2.120   2.950
 1930SOL    HW2 1758   1.999   2.092   2.846
 1931SOL     OW 1759   1.881   2.230   2.509
 1931SOL    HW1 1760   1.799   2.273   2.548
 1931SOL    HW2 1761   1.853   2.157   2.446
 1932SOL     OW 1762   2.431   3.137   3.027
 1932SOL    HW1 1763   2.338   3.130   2.990
 1932SOL    HW2 1764   2.442   3.226   3.071
 1933SOL     OW 1765   3.417   3.373   2.565
 1933SOL    HW1 1766   3.360   3.357   2.646
 1933SOL    HW2 1767   3.358   3.383   2.485
 1934SOL     OW 1768   2.997   2.565   2.579
 1934SOL    HW1 1769   3.054   2.643   2.554
 1934SOL    HW2 1770   2.937   2.591   2.655
 1935SOL     OW 1771   3.617   2.469   2.093
 1935SOL    HW1 1772   3.605   2.456   1.994
 1935SOL    HW2 1773   3.587   2.388   2.142
 1936SOL     OW 1774   2.630   3.006   2.885
 1936SOL    HW1 1775   2.552   3.023   2.945
 1936SOL    HW2 1776   2.664   3.093   2.849
 1937SOL     OW 1777   2.712   2.660   3.685
 1937SOL    HW1 1778   2.708   2.736   3.750
 1937SOL    HW2 1779   2.734   2.696   3.594
 1938SOL     OW 1780   2.547   2.874   2.527
 1938SOL    HW1 1781   2.616   2.858   2.597
 1938SOL    HW2 1782   2.474   2.931   2.565
 1939SOL     OW 1783   2.548   3.023   3.665
 1939SOL    HW1 1784   2.608   3.102   3.679
 1939SOL    HW2 1785   2.462   3.054   3.624
 1940SOL     OW 1786   2.197   3.297   2.923
 1940SOL    HW1 1787   2.119   3.266   2.870
 1940SOL    HW2 1788   2.255   3.355   2.866
 1942SOL     OW 1789   2.300   2.254   3.361
 1942SOL    HW1 1790   2.382   2.198   3.370
 1942SOL    HW2 1791   2.219   2.196   3.365
 1943SOL     OW 1792   3.465   2.309   2.599
 1943SOL    HW1 1793   3.391   2.355   2.549
 1943SOL    HW2 1794   3.516   2.377   2.652
 1944SOL     OW 1795   2.093   3.575   2.345
 1944SOL    HW1 1796   2.127   3.652   2.399
 1944SOL    HW2 1797   2.137   3.575   2.255
 1946SOL     OW 1798   2.092   3.296   2.400
 1946SOL    HW1 1799   2.066   3.392   2.400
 1946SOL    HW2 1800   2.021   3.242   2.445
 1947SOL     OW 1801   2.102   2.953   2.748
 1947SOL    HW1 1802   2.116   2.869   2.800
 1947SOL    HW2 1803   2.047   3.017   2.803
 1949SOL     OW 1804   2.468   2.826   1.985
 1949SOL    HW1 1805   2.475   2.910   1.931
 1949SOL    HW2 1806   2.514   2.839   2.073
 1950SOL     OW 1807   3.456   1.976   3.342
 1950SOL    HW1 1808   3.438   2.043   3.270
 1950SOL    HW2 1809   3.453   2.022   3.431
 1951SOL     OW 1810   1.984   2.505   2.425
 1951SOL    HW1 1811   1.939   2.417   2.442
 1951SOL    HW2 1812   1.983   2.559   2.509
 1953SOL     OW 1813   1.889   3.458   1.979
 1953SOL    HW1 1814   1.870   3.362   2.000
 1953SOL    HW2 1815   1.856   3.516   2.054
 1954SOL     OW 1816   3.551   2.784   2.474
 1954SOL    HW1 1817   3.646   2.755   2.482
 1954SOL    HW2 1818   3.543   2.849   2.399
 1955SOL     OW 1819   3.503   2.970   2.294
 1955SOL    HW1 1820   3.589   2.972   2.242
 1955SOL    HW2 1821   3.517   3.017   2.382
 1956SOL     OW 1822   1.975   2.599   3.459
 1956SOL    HW1 1823   2.063   2.586   3.504
 1956SOL    HW2 1824   1.962   2.696   3.437
 1957SOL     OW 1825   2.475   3.227   2.588
 1957SOL    HW1 1826   2.426   3.140   2.597
 1957SOL    HW2 1827   2.452   3.270   2.501
 1958SOL     OW 1828   3.155   3.090   3.285
 1958SOL    HW1 1829   3.192   3.017   3.227
 1958SOL    HW2 1830   3.207   3.095   3.370
 1959SOL     OW 1831   2.671   1.866   2.364
 1959SOL    HW1 1832   2.711   1.957   2.355
 1959SOL    HW2 1833   2.571   1.874   2.370
 1960SOL     OW 1834   2.059   2.838   3.126
 1960SOL    HW1 1835   2.148   2.793   3.112
 1960SOL    HW2 1836   1.986   2.773   3.107
 1961SOL     OW 1837   3.387   2.861   2.052
 1961SOL    HW1 1838   3.324   2.785   2.065
 1961SOL    HW2 1839   3.435   2.879   2.138
 1963SOL     OW 1840   2.179   2.113   3.663
 1963SOL    HW1 1841   2.250   2.184   3.669
 1963SOL    HW2 1842   2.091   2.152   3.691
 1964SOL     OW 1843   3.328   3.279   2.815
 1964SOL    HW1 1844   3.269   3.285   2.895
 1964SOL    HW2 1845   3.313   3.191   2.769
 1966SOL     OW 1846   2.460   2.591   2.132
 1966SOL    HW1 1847   2.484   2.660   2.064
 1966SOL    HW2 1848   2.382   2.624   2.186
 1967SOL     OW 1849   3.143   2.207   2.806
 1967SOL    HW1 1850   3.057   2.157   2.793
 1967SOL    HW2 1851   3.205   2.153   2.862
 1968SOL     OW 1852   3.438   3.524   2.169
 1968SOL    HW1 1853   3.527   3.570   2.172
 1968SOL    HW2 1854   3.417   3.500   2.074
 1969SOL     OW 1855   2.669   2.467   3.327
 1969SOL    HW1 1856   2.622   2.464   3.416
 1969SOL    HW2 1857   2.618   2.412   3.261
 1970SOL     OW 1858   3.256   2.331   3.536
 1970SOL    HW1 1859   3.236   2.374   3.624
 1970SOL    HW2 1860   3.334   2.269   3.545
 1971SOL     OW 1861   2.835   2.752   3.434
 1971SOL    HW1 1862   2.881   2.668   3.405
 1971SOL    HW2 1863   2.779   2.786   3.359
 1972SOL     OW 1864   2.853   2.272   3.104
 1972SOL    HW1 1865   2.776   2.306   3.158
 1972SOL    HW2 1866   2.819   2.221   3.025
 1973SOL     OW 1867   2.903   2.563   2.291
 1973SOL    HW1 1868   2.929   2.559   2.387
 1973SOL    HW2 1869   2.818   2.512   2.277
 1974SOL     OW 1870   1.938   2.673   2.651
 1974SOL    HW1 1871   2.037   2.661   2.660
 1974SOL    HW2 1872   1.914   2.768   2.672
 1976SOL     OW 1873   2.727   2.210   2.057
 1976SOL    HW1 1874   2.786   2.273   2.008
 1976SOL    HW2 1875   2.746   2.116   2.028
 1978SOL     OW 1876   3.224   3.006   2.407
 1978SOL    HW1 1877   3.307   2.977   2.359
 1978SOL    HW2 1878   3.175   3.073   2.351
 1979SOL     OW 1879   2.412   2.058   2.747
 1979SOL    HW1 1880   2.407   2.053   2.847
 1979SOL    HW2 1881   2.414   2.154   2.718
 1980SOL     OW 1882   2.870   3.318   2.339
 1980SOL    HW1 1883   2.824   3.390   2.287
 1980SOL    HW2 1884   2.866   3.338   2.437
 1981SOL     OW 1885   2.213   3.663   2.715
 1981SOL    HW1 1886   2.263   3.577   2.721
 1981SOL    HW2 1887   2.278   3.740   2.712
 1982SOL     OW 1888   3.657   2.928   2.735
 1982SOL    HW1 1889   3.595   2.913   2.659
 1982SOL    HW2 1890   3.605   2.939   2.820
 1984SOL     OW 1891   2.183   2.805   2.104
 1984SOL    HW1 1892   2.265   2.844   2.062
 1984SOL    HW2 1893   2.156   2.723   2.055
 1985SOL     OW 1894   3.320   2.597   2.590
 1985SOL    HW1 1895   3.315   2.532   2.665
 1985SOL    HW2 1896   3.400   2.656   2.603
 1986SOL     OW 1897   2.323   3.128   3.589
 1986SOL    HW1 1898   2.273   3.129   3.503
 1986SOL    HW2 1899   2.260   3.110   3.665
 1987SOL     OW 1900   2.973   3.638   2.099
 1987SOL    HW1 1901   2.913   3.576   2.149
 1987SOL    HW2 1902   3.004   3.594   2.014
 1988SOL     OW 1903   2.064   2.147   3.360
 1988SOL    HW1 1904   1.984   2.207   3.347
 1988SOL    HW2 1905   2.054   2.098   3.446
 1989SOL     OW 1906   3.494   3.239   1.943
 1989SOL    HW1 1907   3.462   3.333   1.933
 1989SOL    HW2 1908   3.418   3.176   1.931
 1990SOL     OW 1909   2.326   3.605   2.185
 1990SOL    HW1 1910   2.359   3.644   2.271
 1990SOL    HW2 1911   2.402   3.598   2.120
 1991SOL     OW 1912   3.262   1.969   2.288
 1991SOL    HW1 1913   3.238   1.932   2.198
 1991SOL    HW2 1914   3.361   1.985   2.292
 1992SOL     OW 1915   2.111   3.647   3.103
 1992SOL    HW1 1916   2.168   3.582   3.153
 1992SOL    HW2 1917   2.095   3.614   3.010
 1993SOL     OW 1918   2.802   3.560   2.766
 1993SOL    HW1 1919   2.882   3.503   2.787
 1993SOL    HW2 1920   2.753   3.520   2.689
 1995SOL     OW 1921   2.476   1.984   1.979
 1995SOL    HW1 1922   2.574   1.962   1.986
 1995SOL    HW2 1923   2.445   1.967   1.886
 1996SOL     OW 1924   2.643   2.126   3.611
 1996SOL    HW1 1925   2.710   2.065   3.654
 1996SOL    HW2 1926   2.570   2.145   3.676
 1997SOL     OW 1927   2.750   3.376   3.057
 1997SOL    HW1 1928   2.727   3.351   2.963
 1997SOL    HW2 1929   2.811   3.307   3.096
 1998SOL     OW 1930   3.213   2.452   3.295
 1998SOL    HW1 1931   3.241   2.409   3.380
 1998SOL    HW2 1932   3.238   2.548   3.296
 1999SOL     OW 1933   2.665   3.264   2.786
 1999SOL    HW1 1934   2.755   3.278   2.744
 1999SOL    HW2 1935   2.594   3.266   2.715
 2000SOL     OW 1936   2.784   2.365   2.761
 2000SOL    HW1 1937   2.759   2.356   2.665
 2000SOL    HW2 1938   2.832   2.283   2.792
 2001SOL     OW 1939   2.401   1.926   2.374
 2001SOL    HW1 1940   2.320   1.927   2.432
 2001SOL    HW2 1941   2.404   2.009   2.319
 2002SOL     OW 1942   3.296   3.050   1.903
 2002SOL    HW1 1943   3.328   2.974   1.960
 2002SOL    HW2 1944   3.204   3.077   1.933
 2003SOL     OW 1945   2.159   1.897   2.033
 2003SOL    HW1 1946   2.208   1.981   2.012
 2003SOL    HW2 1947   2.221   1.832   2.078
 2004SOL     OW 1948   2.797   2.098   2.342
 2004SOL    HW1 1949   2.749   2.139   2.264
 2004SOL    HW2 1950   2.896   2.096   2.323
 2005SOL     OW 1951   2.938   2.545   3.326
 2005SOL    HW1 1952   2.858   2.484   3.329
 2005SOL    HW2 1953   3.019   2.492   3.302
 2006SOL     OW 1954   3.089   3.432   2.655
 2006SOL    HW1 1955   3.110   3.506   2.590
 2006SOL    HW2 1956   3.157   3.432   2.728
 2007SOL     OW 1957   2.321   3.014   2.603
 2007SOL    HW1 1958   2.250   2.987   2.668
 2007SOL    HW2 1959   2.295   2.986   2.510
 2008SOL     OW 1960   3.133   3.659   2.453
 2008SOL    HW1 1961   3.177   3.723   2.389
 2008SOL    HW2 1962   3.083   3.711   2.523
 2009SOL     OW 1963   2.894   2.411   1.878
 2009SOL    HW1 1964   2.853   2.493   1.839
 2009SOL    HW2 1965   2.958   2.437   1.951
 2010SOL     OW 1966   1.940   2.418   3.248
 2010SOL    HW1 1967   2.032   2.417   3.207
 2010SOL    HW2 1968   1.934   2.492   3.315
 2011SOL     OW 1969   2.423   2.084   3.009
 2011SOL    HW1 1970   2.461   2.000   3.046
 2011SOL    HW2 1971   2.335   2.103   3.053
 2012SOL     OW 1972   2.728   2.316   2.504
 2012SOL    HW1 1973   2.696   2.388   2.442
 2012SOL    HW2 1974   2.752   2.235   2.451
 2013SOL     OW 1975   2.879   1.901   2.615
 2013SOL    HW1 1976   2.807   1.906   2.546
 2013SOL    HW2 1977   2.855   1.832   2.684
 2014SOL     OW 1978   3.291   3.035   2.729
 2014SOL    HW1 1979   3.236   2.951   2.722
 2014SOL    HW2 1980   3.317   3.064   2.637
 2015SOL     OW 1981   3.328   2.452   2.854
 2015SOL    HW1 1982   3.298   2.357   2.861
 2015SOL    HW2 1983   3.401   2.468   2.920
 2016SOL     OW 1984   3.719   2.695   2.239
 2016SOL    HW1 1985   3.761   2.631   2.303
 2016SOL    HW2 1986   3.681   2.644   2.161
 2017SOL     OW 1987   2.350   3.247   2.036
 2017SOL    HW1 1988   2.263   3.232   2.083
 2017SOL    HW2 1989   2.333   3.273   1.941
 2018SOL     OW 1990   3.526   3.142   2.519
 2018SOL    HW1 1991   3.625   3.150   2.533
 2018SOL    HW2 1992   3.481   3.226   2.550
 2019SOL     OW 1993   3.252   2.437   1.940
 2019SOL    HW1 1994   3.198   2.416   2.021
 2019SOL    HW2 1995   3.343   2.396   1.949
 2021SOL     OW 1996   2.926   3.209   3.202
 2021SOL    HW1 1997   2.846   3.186   3.257
 2021SOL    HW2 1998   3.009   3.183   3.251
 2023SOL     OW 1999   2.973   3.057   2.962
 2023SOL    HW1 2000   2.933   3.101   3.043
 2023SOL    HW2 2001   2.932   3.094   2.879
 2024SOL     OW 2002   3.500   2.961   2.941
 2024SOL    HW1 2003   3.505   3.042   3.000
 2024SOL    HW2 2004   3.414   2.963   2.890
 2025SOL     OW 2005   2.777   1.951   3.264
 2025SOL    HW1 2006   2.802   1.931   3.169
 2025SOL    HW2 2007   2.849   2.007   3.306
 2026SOL     OW 2008   2.842   2.978   3.581
 2026SOL    HW1 2009   2.743   2.984   3.591
 2026SOL    HW2 2010   2.865   2.898   3.525
 2027SOL     OW 2011   2.567   2.912   2.230
 2027SOL    HW1 2012   2.553   2.919   2.329
 2027SOL    HW2 2013   2.651   2.861   2.212
 2028SOL     OW 2014   2.272   2.675   3.113
 2028SOL    HW1 2015   2.358   2.687   3.163
 2028SOL    HW2 2016   2.230   2.588   3.140
 2029SOL     OW 2017   3.136   2.248   3.124
 2029SOL    HW1 2018   3.157   2.322   3.188
 2029SOL    HW2 2019   3.047   2.265   3.081
 2030SOL     OW 2020   1.926   3.426   3.193
 2030SOL    HW1 2021   1.880   3.508   3.159
 2030SOL    HW2 2022   2.024   3.445   3.202
 2031SOL     OW 2023   2.229   2.962   2.363
 2031SOL    HW1 2024   2.222   3.045   2.307
 2031SOL    HW2 2025   2.233   2.882   2.303
 2032SOL     OW 2026   2.428   2.399   2.727
 2032SOL    HW1 2027   2.440   2.465   2.653
 2032SOL    HW2 2028   2.474   2.433   2.810
 2033SOL     OW 2029   3.114   3.210   2.250
 2033SOL    HW1 2030   3.164   3.287   2.290
 2033SOL    HW2 2031   3.019   3.212   2.282
 2034SOL     OW 2032   3.134   3.307   3.004
 2034SOL    HW1 2033   3.181   3.320   3.091
 2034SOL    HW2 2034   3.068   3.233   3.013
 2035SOL     OW 2035   3.444   2.501   2.334
 2035SOL    HW1 2036   3.413   2.562   2.407
 2035SOL    HW2 2037   3.494   2.553   2.265
 2036SOL     OW 2038   2.216   3.372   3.191
 2036SOL    HW1 2039   2.195   3.328   3.104
 2036SOL    HW2 2040   2.313   3.398   3.194
 2037SOL     OW 2041   2.264   2.613   3.460
 2037SOL    HW1 2042   2.332   2.668   3.413
 2037SOL    HW2 2043   2.304   2.525   3.487
 2039SOL     OW 2044   2.875   1.967   3.632
 2039SOL    HW1 2045   2.881   2.052   3.580
 2039SOL    HW2 2046   2.907   1.891   3.575
 2040SOL     OW 2047   2.366   1.912   3.602
 2040SOL    HW1 2048   2.324   1.855   3.532
 2040SOL    HW2 2049   2.300   1.981   3.634
 2041SOL     OW 2050   2.435   2.732   2.891
 2041SOL    HW1 2051   2.479   2.821   2.882
 2041SOL    HW2 2052   2.372   2.732   2.968
 2042SOL     OW 2053   3.222   2.724   2.907
 2042SOL    HW1 2054   3.147   2.724   2.841
 2042SOL    HW2 2055   3.259   2.632   2.916
 2043SOL     OW 2056   3.071   2.387   2.137
 2043SOL    HW1 2057   3.084   2.303   2.191
 2043SOL    HW2 2058   3.042   2.461   2.197
 2044SOL     OW 2059   2.169   2.075   3.093
 2044SOL    HW1 2060   2.146   2.112   3.183
 2044SOL    HW2 2061   2.139   1.980   3.087
 2045SOL     OW 2062   1.899   3.172   3.144
 2045SOL    HW1 2063   1.952   3.123   3.212
 2045SOL    HW2 2064   1.921   3.270   3.149
 2046SOL     OW 2065   2.594   2.496   2.926
 2046SOL    HW1 2066   2.653   2.470   2.850
 2046SOL    HW2 2067   2.566   2.592   2.915
 2048SOL     OW 2068   2.169   1.925   2.480
 2048SOL    HW1 2069   2.158   2.019   2.513
 2048SOL    HW2 2070   2.164   1.862   2.557
 2049SOL     OW 2071   3.484   2.229   2.236
 2049SOL    HW1 2072   3.486   2.153   2.300
 2049SOL    HW2 2073   3.436   2.306   2.276
 2050SOL     OW 2074   2.885   2.628   2.828
 2050SOL    HW1 2075   2.900   2.649   2.924
 2050SOL    HW2 2076   2.855   2.533   2.819
 2053SOL     OW 2077   2.212   2.760   3.666
 2053SOL    HW1 2078   2.288   2.804   3.714
 2053SOL    HW2 2079   2.247   2.713   3.584
 2054SOL     OW 2080   3.402   2.136   1.987
 2054SOL    HW1 2081   3.341   2.061   2.010
 2054SOL    HW2 2082   3.424   2.188   2.070
 2055SOL     OW 2083   3.165   2.700   1.904
 2055SOL    HW1 2084   3.199   2.607   1.919
 2055SOL    HW2 2085   3.183   2.727   1.809
 2056SOL     OW 2086   2.930   3.195   2.711
 2056SOL    HW1 2087   2.937   3.111   2.656
 2056SOL    HW2 2088   2.992   3.264   2.675
 2057SOL     OW 2089   2.181   2.672   2.811
 2057SOL    HW1 2090   2.274   2.708   2.816
 2057SOL    HW2 2091   2.175   2.587   2.863
 2058SOL     OW 2092   2.201   2.371   2.868
 2058SOL    HW1 2093   2.149   2.288   2.851
 2058SOL    HW2 2094   2.278   2.376   2.804
 2059SOL     OW 2095   3.000   2.242   3.540
 2059SOL    HW1 2096   2.955   2.305   3.604
 2059SOL    HW2 2097   3.093   2.273   3.523
 2060SOL     OW 2098   3.022   2.069   3.339
 2060SOL    HW1 2099   3.022   2.133   3.416
 2060SOL    HW2 2100   3.050   2.117   3.256
 2061SOL     OW 2101   1.870   3.188   2.062
 2061SOL    HW1 2102   1.777   3.209   2.031
 2061SOL    HW2 2103   1.880   3.089   2.075
 2062SOL     OW 2104   1.950   3.663   2.789
 2062SOL    HW1 2105   1.908   3.577   2.762
 2062SOL    HW2 2106   2.044   3.666   2.755
 2063SOL     OW 2107   2.366   3.430   2.772
 2063SOL    HW1 2108   2.432   3.504   2.781
 2063SOL    HW2 2109   2.410   3.351   2.730
 2064SOL     OW 2110   2.864   2.658   3.100
 2064SOL    HW1 2111   2.905   2.626   3.186
 2064SOL    HW2 2112   2.768   2.631   3.097
 2065SOL     OW 2113   1.902   2.406   2.976
 2065SOL    HW1 2114   1.987   2.373   2.935
 2065SOL    HW2 2115   1.915   2.421   3.074
 2066SOL     OW 2116   2.051   2.382   3.584
 2066SOL    HW1 2117   2.110   2.342   3.514
 2066SOL    HW2 2118   1.993   2.453   3.543
 2067SOL     OW 2119   3.231   2.812   3.522
 2067SOL    HW1 2120   3.270   2.901   3.542
 2067SOL    HW2 2121   3.241   2.792   3.425
 2068SOL     OW 2122   2.677   2.434   2.187
 2068SOL    HW1 2123   2.684   2.345   2.141
 2068SOL    HW2 2124   2.583   2.468   2.179
 2069SOL     OW 2125   3.519   2.466   3.068
 2069SOL    HW1 2126   3.481   2.397   3.130
 2069SOL    HW2 2127   3.601   2.430   3.024
 2071SOL     OW 2128   2.533   2.326   3.131
 2071SOL    HW1 2129   2.499   2.237   3.101
 2071SOL    HW2 2130   2.559   2.380   3.051
 2073SOL     OW 2131   2.021   2.999   3.328
 2073SOL    HW1 2132   2.043   2.938   3.404
 2073SOL    HW2 2133   2.031   2.950   3.242
 2074SOL     OW 2134   3.209   2.921   3.096
 2074SOL    HW1 2135   3.233   2.858   3.022
 2074SOL    HW2 2136   3.119   2.961   3.078
 2075SOL     OW 2137   3.164   2.717   2.171
 2075SOL    HW1 2138   3.078   2.686   2.213
 2075SOL    HW2 2139   3.160   2.703   2.072
 2078SOL     OW 2140   1.945   3.120   2.884
 2078SOL    HW1 2141   1.940   3.119   2.984
 2078SOL    HW2 2142   1.862   3.079   2.846
 2080SOL     OW 2143   3.588   1.997   2.385
 2080SOL    HW1 2144   3.661   1.980   2.318
 2080SOL    HW2 2145   3.557   1.910   2.423
 2081SOL     OW 2146   3.250   3.435   2.339
 2081SOL    HW1 2147   3.317   3.447   2.265
 2081SOL    HW2 2148   3.210   3.524   2.362
 2083SOL     OW 2149   3.142   2.789   2.534
 2083SOL    HW1 2150   3.202   2.708   2.536
 2083SOL    HW2 2151   3.182   2.858   2.474
 2084SOL     OW 2152   2.692   3.135   3.284
 2084SOL    HW1 2153   2.687   3.168   3.379
 2084SOL    HW2 2154   2.606   3.154   3.238
 2085SOL     OW 2155   2.534   3.478   2.016
 2085SOL    HW1 2156   2.543   3.488   1.917
 2085SOL    HW2 2157   2.494   3.389   2.037
 2087SOL     OW 2158   3.703   2.037   2.825
 2087SOL    HW1 2159   3.742   1.952   2.789
 2087SOL    HW2 2160   3.605   2.039   2.806
 2088SOL     OW 2161   2.125   2.188   2.582
 2088SOL    HW1 2162   2.046   2.239   2.548
 2088SOL    HW2 2163   2.116   2.173   2.680
 2089SOL     OW 2164   3.056   3.474   1.893
 2089SOL    HW1 2165   3.062   3.381   1.930
 2089SOL    HW2 2166   2.997   3.474   1.813
 2090SOL     OW 2167   2.684   2.864   3.234
 2090SOL    HW1 2168   2.724   2.863   3.142
 2090SOL    HW2 2169   2.694   2.956   3.274
 2091SOL     OW 2170   2.778   2.772   2.153
 2091SOL    HW1 2171   2.841   2.810   2.085
 2091SOL    HW2 2172   2.818   2.689   2.192
 2092SOL     OW 2173   3.366   3.469   1.906
 2092SOL    HW1 2174   3.274   3.506   1.913
 2092SOL    HW2 2175   3.404   3.489   1.816
 2093SOL     OW 2176   2.234   3.150   3.352
 2093SOL    HW1 2177   2.221   3.243   3.318
 2093SOL    HW2 2178   2.150   3.098   3.339
 2095SOL     OW 2179   2.901   2.960   2.558
 2095SOL    HW1 2180   2.831   2.913   2.612
 2095SOL    HW2 2181   2.960   2.892   2.515
 2096SOL     OW 2182   2.876   2.098   2.833
 2096SOL    HW1 2183   2.868   2.062   2.740
 2096SOL    HW2 2184   2.874   2.022   2.898
 2097SOL     OW 2185   2.452   3.349   2.353
 2097SOL    HW1 2186   2.494   3.291   2.283
 2097SOL    HW2 2187   2.408   3.428   2.309
 2098SOL     OW 2188   3.571   2.247   3.243
 2098SOL    HW1 2189   3.644   2.316   3.247
 2098SOL    HW2 2190   3.599   2.172   3.184
 2099SOL     OW 2191   2.117   3.210   2.152
 2099SOL    HW1 2192   2.021   3.211   2.125
 2099SOL    HW2 2193   2.129   3.263   2.236
 2100SOL     OW 2194   1.967   2.875   3.588
 2100SOL    HW1 2195   1.890   2.842   3.642
 2100SOL    HW2 2196   2.052   2.845   3.630
 2101SOL     OW 2197   2.534   2.065   3.351
 2101SOL    HW1 2198   2.624   2.049   3.311
 2101SOL    HW2 2199   2.542   2.070   3.450
 2102SOL     OW 2200   1.937   2.207   1.895
 2102SOL    HW1 2201   1.845   2.179   1.866
 2102SOL    HW2 2202   1.968   2.284   1.839
 2103SOL     OW 2203   3.302   2.718   3.260
 2103SOL    HW1 2204   3.245   2.770   3.197
 2103SOL    HW2 2205   3.398   2.730   3.236
 2104SOL     OW 2206   1.934   2.028   2.180
 2104SOL    HW1 2207   1.917   2.111   2.126
 2104SOL    HW2 2208   2.024   1.991   2.158
 2105SOL     OW 2209   3.045   3.197   1.981
 2105SOL    HW1 2210   2.946   3.186   1.983
 2105SOL    HW2 2211   3.079   3.212   2.074
 2106SOL     OW 2212   2.475   2.704   3.293
 2106SOL    HW1 2213   2.531   2.785   3.276
 2106SOL    HW2 2214   2.534   2.624   3.296
 2108SOL     OW 2215   2.578   2.427   3.570
 2108SOL    HW1 2216   2.597   2.492   3.644
 2108SOL    HW2 2217   2.638   2.347   3.579
 2111SOL     OW 2218   3.536   2.745   3.116
 2111SOL    HW1 2219   3.509   2.656   3.079
 2111SOL    HW2 2220   3.537   2.813   3.043
 2112SOL     OW 2221   3.087   2.187   2.311
 2112SOL    HW1 2222   3.152   2.113   2.300
 2112SOL    HW2 2223   3.107   2.237   2.395
 2113SOL     OW 2224   2.456   2.607   2.514
 2113SOL    HW1 2225   2.506   2.692   2.495
 2113SOL    HW2 2226   2.368   2.609   2.466
 2116SOL     OW 2227   2.721   3.236   1.878
 2116SOL    HW1 2228   2.675   3.251   1.966
 2116SOL    HW2 2229   2.765   3.321   1.848
 2117SOL     OW 2230   2.523   3.652   2.815
 2117SOL    HW1 2231   2.477   3.740   2.802
 2117SOL    HW2 2232   2.622   3.664   2.808
 2118SOL     OW 2233   2.721   2.818   2.723
 2118SOL    HW1 2234   2.775   2.749   2.771
 2118SOL    HW2 2235   2.689   2.887   2.789
 2119SOL     OW 2236   2.945   2.846   1.949
 2119SOL    HW1 2237   2.922   2.899   1.867
 2119SOL    HW2 2238   3.026   2.790   1.930
 2121SOL     OW 2239   2.083   3.176   3.706
 2121SOL    HW1 2240   2.018   3.103   3.685
 2121SOL    HW2 2241   2.087   3.190   3.804
 2122SOL     OW 2242   1.941   3.102   2.515
 2122SOL    HW1 2243   1.940   3.055   2.603
 2122SOL    HW2 2244   2.023   3.074   2.464
 2123SOL     OW 2245   2.534   3.253   3.486
 2123SOL    HW1 2246   2.456   3.203   3.524
 2123SOL    HW2 2247   2.531   3.348   3.517
 2124SOL     OW 2248   3.686   2.054   3.089
 2124SOL    HW1 2249   3.682   1.964   3.133
 2124SOL    HW2 2250   3.689   2.043   2.990
 2126SOL     OW 2251   2.179   2.409   3.142
 2126SOL    HW1 2252   2.217   2.350   3.214
 2126SOL    HW2 2253   2.219   2.383   3.054
 2127SOL     OW 2254   2.674   3.448   2.549
 2127SOL    HW1 2255   2.706   3.458   2.455
 2127SOL    HW2 2256   2.595   3.386   2.551
 2128SOL     OW 2257   3.286   2.076   2.974
 2128SOL    HW1 2258   3.338   2.011   3.029
 2128SOL    HW2 2259   3.237   2.139   3.035
 2129SOL     OW 2260   2.863   1.896   3.016
 2129SOL    HW1 2261   2.800   1.824   2.985
 2129SOL    HW2 2262   2.956   1.860   3.016
 2130SOL     OW 2263   2.632   3.192   2.163
 2130SOL    HW1 2264   2.586   3.105   2.180
 2130SOL    HW2 2265   2.723   3.189   2.204
 2131SOL     OW 2266   2.480   3.429   3.146
 2131SOL    HW1 2267   2.475   3.511   3.203
 2131SOL    HW2 2268   2.569   3.426   3.101
 2132SOL     OW 2269   3.214   1.914   2.030
 2132SOL    HW1 2270   3.249   1.873   1.946
 2132SOL    HW2 2271   3.124   1.876   2.050
 2133SOL     OW 2272   3.162   2.315   2.553
 2133SOL    HW1 2273   3.103   2.395   2.557
 2133SOL    HW2 2274   3.177   2.280   2.646
 2134SOL     OW 2275   3.455   2.083   2.744
 2134SOL    HW1 2276   3.371   2.082   2.798
 2134SOL    HW2 2277   3.457   2.166   2.688
 2135SOL     OW 2278   1.901   2.939   2.162
 2135SOL    HW1 2279   2.000   2.928   2.153
 2135SOL    HW2 2280   1.861   2.853   2.194
 2136SOL     OW 2281   2.737   3.508   2.199
 2136SOL    HW1 2282   2.660   3.473   2.145
 2136SOL    HW2 2283   2.705   3.579   2.261
 2137SOL     OW 2284   2.092   2.490   3.837
 2137SOL    HW1 2285   1.999   2.488   3.874
 2137SOL    HW2 2286   2.093   2.451   3.745
 2143SOL     OW 2287   2.468   2.826   3.847
 2143SOL    HW1 2288   2.475   2.910   3.793
 2143SOL    HW2 2289   2.514   2.839   3.935
 2158SOL     OW 2290   2.727   2.210   3.919
 2158SOL    HW1 2291   2.786   2.273   3.870
 2158SOL    HW2 2292   2.746   2.116   3.890
 2169SOL     OW 2293   2.476   1.984   3.841
 2169SOL    HW1 2294   2.574   1.962   3.848
 2169SOL    HW2 2295   2.445   1.967   3.748
 2172SOL     OW 2296   2.159   1.897   3.895
 2172SOL    HW1 2297   2.208   1.981   3.874
 2172SOL    HW2 2298   2.221   1.832   3.940
 2176SOL     OW 2299   2.894   2.411   3.740
 2176SOL    HW1 2300   2.853   2.493   3.701
 2176SOL    HW2 2301   2.958   2.437   3.813
 2193SOL     OW 2302   2.335   2.362   3.915
 2193SOL    HW1 2303   2.396   2.442   3.919
 2193SOL    HW2 2304   2.240   2.393   3.922
 2204SOL     OW 2305   1.937   2.207   3.757
 2204SOL    HW1 2306   1.845   2.179   3.728
 2204SOL    HW2 2307   1.968   2.284   3.701
 2260SOL     OW 2308   2.875   3.829   1.770
 2260SOL    HW1 2309   2.881   3.914   1.718
 2260SOL    HW2 2310   2.907   3.753   1.713
 2261SOL     OW 2311   2.366   3.774   1.740
 2261SOL    HW1 2312   2.324   3.717   1.670
 2261SOL    HW2 2313   2.300   3.843   1.772
 2307SOL     OW 2314   2.671   3.728   2.364
 2307SOL    HW1 2315   2.711   3.819   2.355
 2307SOL    HW2 2316   2.571   3.736   2.370
 2316SOL     OW 2317   2.412   3.920   2.747
 2316SOL    HW1 2318   2.407   3.915   2.847
 2316SOL    HW2 2319   2.414   4.016   2.718
 2321SOL     OW 2320   2.476   3.846   1.979
 2321SOL    HW1 2321   2.574   3.824   1.986
 2321SOL    HW2 2322   2.445   3.829   1.886
 2325SOL     OW 2323   2.401   3.788   2.374
 2325SOL    HW1 2324   2.320   3.789   2.432
 2325SOL    HW2 2325   2.404   3.871   2.319
 2326SOL     OW 2326   2.159   3.759   2.033
 2326SOL    HW1 2327   2.208   3.843   2.012
 2326SOL    HW2 2328   2.221   3.694   2.078
 2333SOL     OW 2329   2.879   3.763   2.615
 2333SOL    HW1 2330   2.807   3.768   2.546
 2333SOL    HW2 2331   2.855   3.694   2.684
 2336SOL     OW 2332   2.389   3.980   2.190
 2336SOL    HW1 2333   2.416   3.921   2.115
 2336SOL    HW2 2334   2.389   4.075   2.159
 2346SOL     OW 2335   2.169   3.787   2.480
 2346SOL    HW1 2336   2.158   3.881   2.513
 2346SOL    HW2 2337   2.164   3.724   2.557
 2367SOL     OW 2338   1.934   3.890   2.180
 2367SOL    HW1 2339   1.917   3.973   2.126
 2367SOL    HW2 2340   2.024   3.853   2.158
 2479SOL     OW 2341   3.854   1.794   1.851
 2479SOL    HW1 2342   3.813   1.720   1.904
 2479SOL    HW2 2343   3.918   1.845   1.909
 2510SOL     OW 2344   3.751   1.596   1.979
 2510SOL    HW1 2345   3.732   1.500   2.000
 2510SOL    HW2 2346   3.718   1.654   2.054
 2550SOL     OW 2347   3.732   1.326   2.062
 2550SOL    HW1 2348   3.639   1.347   2.031
 2550SOL    HW2 2349   3.742   1.227   2.075
 2551SOL     OW 2350   3.812   1.801   2.789
 2551SOL    HW1 2351   3.770   1.715   2.762
 2551SOL    HW2 2352   3.906   1.804   2.755
 2628SOL     OW 2353   3.837   2.599   1.597
 2628SOL    HW1 2354   3.925   2.586   1.642
 2628SOL    HW2 2355   3.824   2.696   1.575
 2649SOL     OW 2356   3.802   2.418   1.386
 2649SOL    HW1 2357   3.894   2.417   1.345
 2649SOL    HW2 2358   3.796   2.492   1.453
 2671SOL     OW 2359   3.913   2.382   1.722
 2671SOL    HW1 2360   3.972   2.342   1.652
 2671SOL    HW2 2361   3.855   2.453   1.681
 2696SOL     OW 2362   3.954   2.490   1.975
 2696SOL    HW1 2363   3.861   2.488   2.012
 2696SOL    HW2 2364   3.955   2.451   1.883
 2698SOL     OW 2365   3.743   2.230   2.509
 2698SOL    HW1 2366   3.661   2.273   2.548
 2698SOL    HW2 2367   3.715   2.157   2.446
 2709SOL     OW 2368   3.846   2.505   2.425
 2709SOL    HW1 2369   3.801   2.417   2.442
 2709SOL    HW2 2370   3.845   2.559   2.509
 2717SOL     OW 2371   3.800   2.673   2.651
 2717SOL    HW1 2372   3.899   2.661   2.660
 2717SOL    HW2 2373   3.776   2.768   2.672
 2751SOL     OW 2374   3.732   3.188   2.062
 2751SOL    HW1 2375   3.639   3.209   2.031
 2751SOL    HW2 2376   3.742   3.089   2.075
 2754SOL     OW 2377   3.764   2.406   2.976
 2754SOL    HW1 2378   3.849   2.373   2.935
 2754SOL    HW2 2379   3.777   2.421   3.074
 2763SOL     OW 2380   3.987   2.188   2.582
 2763SOL    HW1 2381   3.908   2.239   2.548
 2763SOL    HW2 2382   3.978   2.173   2.680
 2769SOL     OW 2383   3.799   2.207   1.895
 2769SOL    HW1 2384   3.707   2.179   1.866
 2769SOL    HW2 2385   3.830   2.284   1.839
 2770SOL     OW 2386   3.796   2.028   2.180
 2770SOL    HW1 2387   3.779   2.111   2.126
 2770SOL    HW2 2388   3.886   1.991   2.158
 2779SOL     OW 2389   3.763   2.939   2.162
 2779SOL    HW1 2390   3.862   2.928   2.153
 2779SOL    HW2 2391   3.723   2.853   2.194
   4.45196   4.45196   4.45196
