mobley_3969312_GMX.gro created by acpype (v: 2023.10.27) on Tue May 19 12:45:13 2026
 2411
    1MOL     C1    1   2.307   2.301   2.114
    1MOL     C2    2   2.200   2.361   2.181
    1MOL     C3    3   2.412   2.245   2.186
    1MOL     C4    4   2.198   2.364   2.321
    1MOL     C5    5   2.410   2.248   2.326
    1MOL     C6    6   2.303   2.307   2.393
    1MOL     C7    7   2.301   2.310   2.538
    1MOL     O1    8   2.391   2.262   2.608
    1MOL     H1    9   2.308   2.299   2.005
    1MOL     H2   10   2.118   2.405   2.125
    1MOL     H3   11   2.495   2.198   2.134
    1MOL     H4   12   2.114   2.411   2.372
    1MOL     H5   13   2.492   2.203   2.381
    1MOL     H6   14   2.214   2.359   2.587
   14SOL     OW   15   1.460   1.505   1.339
   14SOL    HW1   16   1.484   1.599   1.365
   14SOL    HW2   17   1.444   1.451   1.421
   18SOL     OW   18   1.127   1.341   1.690
   18SOL    HW1   19   1.174   1.341   1.778
   18SOL    HW2   20   1.079   1.254   1.679
   31SOL     OW   21   1.293   1.228   1.423
   31SOL    HW1   22   1.330   1.155   1.365
   31SOL    HW2   23   1.345   1.233   1.508
   35SOL     OW   24   1.187   1.792   1.616
   35SOL    HW1   25   1.211   1.852   1.540
   35SOL    HW2   26   1.194   1.697   1.586
   56SOL     OW   27   1.227   1.550   1.506
   56SOL    HW1   28   1.233   1.473   1.570
   56SOL    HW2   29   1.175   1.524   1.426
   95SOL     OW   30   1.754   1.223   1.588
   95SOL    HW1   31   1.845   1.184   1.575
   95SOL    HW2   32   1.762   1.319   1.612
   97SOL     OW   33   1.592   1.629   1.625
   97SOL    HW1   34   1.619   1.663   1.535
   97SOL    HW2   35   1.671   1.591   1.671
  109SOL     OW   36   1.272   1.445   1.142
  109SOL    HW1   37   1.319   1.458   1.229
  109SOL    HW2   38   1.206   1.371   1.151
  122SOL     OW   39   1.728   0.935   1.854
  122SOL    HW1   40   1.682   0.928   1.765
  122SOL    HW2   41   1.666   0.979   1.920
  126SOL     OW   42   0.980   1.573   1.700
  126SOL    HW1   43   0.960   1.617   1.612
  126SOL    HW2   44   1.019   1.482   1.684
  127SOL     OW   45   1.859   1.518   1.605
  127SOL    HW1   46   1.873   1.545   1.510
  127SOL    HW2   47   1.942   1.540   1.658
  142SOL     OW   48   1.369   0.950   1.660
  142SOL    HW1   49   1.408   1.039   1.680
  142SOL    HW2   50   1.379   0.930   1.563
  147SOL     OW   51   0.930   1.678   1.465
  147SOL    HW1   52   0.906   1.660   1.370
  147SOL    HW2   53   0.960   1.772   1.475
  152SOL     OW   54   1.759   1.747   1.154
  152SOL    HW1   55   1.820   1.777   1.081
  152SOL    HW2   56   1.721   1.658   1.132
  153SOL     OW   57   1.252   1.731   1.128
  153SOL    HW1   58   1.336   1.736   1.074
  153SOL    HW2   59   1.229   1.635   1.146
  163SOL     OW   60   1.650   1.720   1.394
  163SOL    HW1   61   1.703   1.730   1.310
  163SOL    HW2   62   1.623   1.810   1.428
  171SOL     OW   63   1.614   1.292   1.289
  171SOL    HW1   64   1.674   1.295   1.369
  171SOL    HW2   65   1.539   1.356   1.302
  184SOL     OW   66   1.493   1.767   0.959
  184SOL    HW1   67   1.526   1.831   0.890
  184SOL    HW2   68   1.559   1.761   1.034
  186SOL     OW   69   1.450   1.220   1.633
  186SOL    HW1   70   1.441   1.210   1.732
  186SOL    HW2   71   1.546   1.213   1.607
  192SOL     OW   72   1.730   0.934   1.517
  192SOL    HW1   73   1.768   1.025   1.532
  192SOL    HW2   74   1.722   0.917   1.418
  197SOL     OW   75   1.861   1.569   0.851
  197SOL    HW1   76   1.790   1.557   0.781
  197SOL    HW2   77   1.862   1.490   0.911
  203SOL     OW   78   1.705   1.487   1.104
  203SOL    HW1   79   1.612   1.462   1.077
  203SOL    HW2   80   1.731   1.437   1.186
  219SOL     OW   81   1.555   1.511   2.565
  219SOL    HW1   82   1.498   1.495   2.646
  219SOL    HW2   83   1.496   1.521   2.485
  221SOL     OW   84   1.755   0.607   2.093
  221SOL    HW1   85   1.743   0.594   1.994
  221SOL    HW2   86   1.725   0.526   2.142
  227SOL     OW   87   1.460   1.505   3.201
  227SOL    HW1   88   1.484   1.599   3.227
  227SOL    HW2   89   1.444   1.451   3.283
  238SOL     OW   90   1.842   1.767   2.221
  238SOL    HW1   91   1.896   1.738   2.301
  238SOL    HW2   92   1.872   1.857   2.192
  240SOL     OW   93   1.689   0.922   2.474
  240SOL    HW1   94   1.784   0.893   2.482
  240SOL    HW2   95   1.681   0.987   2.399
  241SOL     OW   96   1.641   1.108   2.294
  241SOL    HW1   97   1.727   1.110   2.242
  241SOL    HW2   98   1.655   1.155   2.382
  244SOL     OW   99   1.293   1.228   3.285
  244SOL    HW1  100   1.330   1.155   3.227
  244SOL    HW2  101   1.345   1.233   3.370
  247SOL     OW  102   1.525   0.999   2.052
  247SOL    HW1  103   1.462   0.923   2.065
  247SOL    HW2  104   1.573   1.017   2.138
  248SOL     OW  105   1.187   1.792   3.478
  248SOL    HW1  106   1.211   1.852   3.402
  248SOL    HW2  107   1.194   1.697   3.448
  250SOL     OW  108   1.466   1.417   2.815
  250SOL    HW1  109   1.407   1.423   2.895
  250SOL    HW2  110   1.451   1.329   2.769
  251SOL     OW  111   1.667   1.714   2.434
  251SOL    HW1  112   1.626   1.691   2.346
  251SOL    HW2  113   1.649   1.640   2.499
  254SOL     OW  114   1.576   1.662   2.169
  254SOL    HW1  115   1.665   1.708   2.172
  254SOL    HW2  116   1.555   1.638   2.074
  264SOL     OW  117   1.362   1.144   2.407
  264SOL    HW1  118   1.445   1.115   2.359
  264SOL    HW2  119   1.313   1.211   2.351
  266SOL     OW  120   1.008   1.456   2.339
  266SOL    HW1  121   0.962   1.528   2.287
  266SOL    HW2  122   1.004   1.476   2.437
  268SOL     OW  123   1.795   1.066   2.735
  268SOL    HW1  124   1.733   1.051   2.659
  268SOL    HW2  125   1.743   1.077   2.820
  269SOL     OW  126   1.227   1.550   3.368
  269SOL    HW1  127   1.233   1.473   3.432
  269SOL    HW2  128   1.175   1.524   3.288
  273SOL     OW  129   1.111   1.776   2.099
  273SOL    HW1  130   1.051   1.714   2.149
  273SOL    HW2  131   1.142   1.732   2.014
  275SOL     OW  132   1.632   1.377   1.943
  275SOL    HW1  133   1.600   1.471   1.933
  275SOL    HW2  134   1.556   1.314   1.931
  279SOL     OW  135   0.940   1.698   2.766
  279SOL    HW1  136   1.020   1.641   2.787
  279SOL    HW2  137   0.891   1.658   2.689
  284SOL     OW  138   0.888   1.514   3.057
  284SOL    HW1  139   0.865   1.489   2.963
  284SOL    HW2  140   0.949   1.445   3.096
  289SOL     OW  141   1.434   1.188   1.903
  289SOL    HW1  142   1.466   1.112   1.960
  289SOL    HW2  143   1.342   1.215   1.933
  293SOL     OW  144   1.227   1.570   2.655
  293SOL    HW1  145   1.248   1.644   2.590
  293SOL    HW2  146   1.295   1.570   2.728
  295SOL     OW  147   1.271   1.797   2.453
  295SOL    HW1  148   1.315   1.861   2.389
  295SOL    HW2  149   1.221   1.849   2.523
  301SOL     OW  150   1.429   1.173   2.729
  301SOL    HW1  151   1.374   1.089   2.722
  301SOL    HW2  152   1.455   1.202   2.637
  303SOL     OW  153   1.857   0.833   2.239
  303SOL    HW1  154   1.899   0.769   2.303
  303SOL    HW2  155   1.819   0.782   2.161
  305SOL     OW  156   1.664   1.280   2.519
  305SOL    HW1  157   1.763   1.288   2.533
  305SOL    HW2  158   1.619   1.364   2.550
  308SOL     OW  159   1.754   1.223   3.450
  308SOL    HW1  160   1.845   1.184   3.437
  308SOL    HW2  161   1.762   1.319   3.474
  310SOL     OW  162   1.592   1.629   3.487
  310SOL    HW1  163   1.619   1.663   3.397
  310SOL    HW2  164   1.671   1.591   3.533
  311SOL     OW  165   1.111   1.195   2.962
  311SOL    HW1  166   1.071   1.239   3.043
  311SOL    HW2  167   1.070   1.232   2.879
  312SOL     OW  168   1.638   1.099   2.941
  312SOL    HW1  169   1.643   1.180   3.000
  312SOL    HW2  170   1.552   1.101   2.890
  321SOL     OW  171   1.252   1.348   2.250
  321SOL    HW1  172   1.302   1.425   2.290
  321SOL    HW2  173   1.157   1.350   2.282
  322SOL     OW  174   1.272   1.445   3.004
  322SOL    HW1  175   1.319   1.458   3.091
  322SOL    HW2  176   1.206   1.371   3.013
  340SOL     OW  177   1.859   1.518   3.467
  340SOL    HW1  178   1.873   1.545   3.372
  340SOL    HW2  179   1.942   1.540   3.520
  344SOL     OW  180   1.068   1.333   2.711
  344SOL    HW1  181   1.075   1.249   2.656
  344SOL    HW2  182   1.130   1.402   2.675
  363SOL     OW  183   1.347   1.059   3.096
  363SOL    HW1  184   1.371   0.996   3.022
  363SOL    HW2  185   1.257   1.099   3.078
  364SOL     OW  186   1.302   0.855   2.171
  364SOL    HW1  187   1.216   0.824   2.213
  364SOL    HW2  188   1.298   0.841   2.072
  365SOL     OW  189   1.759   1.747   3.016
  365SOL    HW1  190   1.820   1.777   2.943
  365SOL    HW2  191   1.721   1.658   2.994
  366SOL     OW  192   1.252   1.731   2.990
  366SOL    HW1  193   1.336   1.736   2.936
  366SOL    HW2  194   1.229   1.635   3.008
  370SOL     OW  195   1.388   1.573   2.339
  370SOL    HW1  196   1.455   1.585   2.265
  370SOL    HW2  197   1.348   1.662   2.362
  372SOL     OW  198   1.280   0.927   2.534
  372SOL    HW1  199   1.340   0.846   2.536
  372SOL    HW2  200   1.320   0.996   2.474
  374SOL     OW  201   0.672   1.616   2.016
  374SOL    HW1  202   0.681   1.626   1.917
  374SOL    HW2  203   0.632   1.527   2.037
  375SOL     OW  204   1.650   1.720   3.256
  375SOL    HW1  205   1.703   1.730   3.172
  375SOL    HW2  206   1.623   1.810   3.290
  378SOL     OW  207   1.194   1.612   1.893
  378SOL    HW1  208   1.200   1.519   1.930
  378SOL    HW2  209   1.135   1.612   1.813
  381SOL     OW  210   1.504   1.607   1.906
  381SOL    HW1  211   1.412   1.644   1.913
  381SOL    HW2  212   1.542   1.627   1.816
  383SOL     OW  213   1.614   1.292   3.151
  383SOL    HW1  214   1.674   1.295   3.231
  383SOL    HW2  215   1.539   1.356   3.164
  384SOL     OW  216   1.039   1.098   2.558
  384SOL    HW1  217   0.969   1.051   2.612
  384SOL    HW2  218   1.098   1.030   2.515
  394SOL     OW  219   1.183   1.335   1.981
  394SOL    HW1  220   1.084   1.324   1.983
  394SOL    HW2  221   1.217   1.350   2.074
  396SOL     OW  222   1.493   1.767   2.821
  396SOL    HW1  223   1.526   1.831   2.752
  396SOL    HW2  224   1.559   1.761   2.896
  400SOL     OW  225   1.674   0.883   3.116
  400SOL    HW1  226   1.647   0.794   3.079
  400SOL    HW2  227   1.675   0.951   3.043
  405SOL     OW  228   0.859   1.374   1.878
  405SOL    HW1  229   0.813   1.389   1.966
  405SOL    HW2  230   0.903   1.459   1.848
  406SOL     OW  231   0.661   1.790   2.815
  406SOL    HW1  232   0.615   1.878   2.802
  406SOL    HW2  233   0.760   1.802   2.808
  409SOL     OW  234   1.861   1.569   2.713
  409SOL    HW1  235   1.790   1.557   2.643
  409SOL    HW2  236   1.862   1.490   2.773
  415SOL     OW  237   1.705   1.487   2.966
  415SOL    HW1  238   1.612   1.462   2.939
  415SOL    HW2  239   1.731   1.437   3.048
  417SOL     OW  240   0.812   1.586   2.549
  417SOL    HW1  241   0.844   1.596   2.455
  417SOL    HW2  242   0.733   1.524   2.551
  426SOL     OW  243   0.875   1.646   2.199
  426SOL    HW1  244   0.798   1.611   2.145
  426SOL    HW2  245   0.843   1.717   2.261
  534SOL     OW  246   0.850   2.660   1.823
  534SOL    HW1  247   0.846   2.736   1.888
  534SOL    HW2  248   0.872   2.696   1.732
  538SOL     OW  249   1.460   3.367   1.339
  538SOL    HW1  250   1.484   3.461   1.365
  538SOL    HW2  251   1.444   3.313   1.421
  540SOL     OW  252   1.603   2.309   0.737
  540SOL    HW1  253   1.529   2.355   0.687
  540SOL    HW2  254   1.654   2.377   0.790
  542SOL     OW  255   1.127   3.203   1.690
  542SOL    HW1  256   1.174   3.203   1.778
  542SOL    HW2  257   1.079   3.116   1.679
  547SOL     OW  258   1.594   1.976   1.480
  547SOL    HW1  259   1.576   2.043   1.408
  547SOL    HW2  260   1.591   2.022   1.569
  555SOL     OW  261   1.293   3.090   1.423
  555SOL    HW1  262   1.330   3.017   1.365
  555SOL    HW2  263   1.345   3.095   1.508
  564SOL     OW  264   1.281   2.207   0.944
  564SOL    HW1  265   1.195   2.157   0.931
  564SOL    HW2  266   1.343   2.153   1.000
  566SOL     OW  267   0.807   2.467   1.465
  566SOL    HW1  268   0.760   2.464   1.554
  566SOL    HW2  269   0.756   2.412   1.399
  567SOL     OW  270   1.394   2.331   1.674
  567SOL    HW1  271   1.374   2.374   1.762
  567SOL    HW2  272   1.472   2.269   1.683
  568SOL     OW  273   0.973   2.752   1.572
  568SOL    HW1  274   1.019   2.668   1.543
  568SOL    HW2  275   0.917   2.786   1.497
  569SOL     OW  276   0.991   2.272   1.242
  569SOL    HW1  277   0.914   2.306   1.296
  569SOL    HW2  278   0.957   2.221   1.163
  574SOL     OW  279   1.719   2.447   1.831
  574SOL    HW1  280   1.693   2.536   1.795
  574SOL    HW2  281   1.717   2.379   1.758
  579SOL     OW  282   1.795   2.928   0.873
  579SOL    HW1  283   1.733   2.913   0.797
  579SOL    HW2  284   1.743   2.939   0.958
  580SOL     OW  285   1.227   3.412   1.506
  580SOL    HW1  286   1.233   3.335   1.570
  580SOL    HW2  287   1.175   3.386   1.426
  592SOL     OW  288   1.547   2.084   1.729
  592SOL    HW1  289   1.542   2.121   1.821
  592SOL    HW2  290   1.475   2.015   1.717
  593SOL     OW  291   0.781   2.126   1.749
  593SOL    HW1  292   0.848   2.065   1.792
  593SOL    HW2  293   0.708   2.145   1.814
  595SOL     OW  294   1.351   2.452   1.433
  595SOL    HW1  295   1.379   2.409   1.518
  595SOL    HW2  296   1.376   2.548   1.434
  602SOL     OW  297   1.076   2.545   1.464
  602SOL    HW1  298   0.996   2.484   1.467
  602SOL    HW2  299   1.157   2.492   1.440
  612SOL     OW  300   1.466   2.452   0.992
  612SOL    HW1  301   1.436   2.357   0.999
  612SOL    HW2  302   1.539   2.468   1.058
  618SOL     OW  303   1.754   3.085   1.588
  618SOL    HW1  304   1.845   3.046   1.575
  618SOL    HW2  305   1.762   3.181   1.612
  620SOL     OW  306   1.592   3.491   1.625
  620SOL    HW1  307   1.619   3.525   1.535
  620SOL    HW2  308   1.671   3.453   1.671
  622SOL     OW  309   1.638   2.961   1.079
  622SOL    HW1  310   1.643   3.042   1.138
  622SOL    HW2  311   1.552   2.963   1.028
  623SOL     OW  312   0.915   1.951   1.402
  623SOL    HW1  313   0.940   1.931   1.307
  623SOL    HW2  314   0.987   2.007   1.444
  624SOL     OW  315   0.980   2.978   1.719
  624SOL    HW1  316   0.881   2.984   1.729
  624SOL    HW2  317   1.003   2.898   1.663
  627SOL     OW  318   1.274   2.248   1.262
  627SOL    HW1  319   1.295   2.322   1.326
  627SOL    HW2  320   1.185   2.265   1.219
  636SOL     OW  321   1.587   2.641   1.670
  636SOL    HW1  322   1.495   2.679   1.665
  636SOL    HW2  323   1.647   2.688   1.605
  637SOL     OW  324   1.013   1.967   1.770
  637SOL    HW1  325   1.019   2.052   1.718
  637SOL    HW2  326   1.045   1.891   1.713
  640SOL     OW  327   1.360   2.724   1.045
  640SOL    HW1  328   1.285   2.724   0.979
  640SOL    HW2  329   1.397   2.632   1.054
  645SOL     OW  330   1.728   2.797   1.854
  645SOL    HW1  331   1.682   2.790   1.765
  645SOL    HW2  332   1.666   2.841   1.920
  650SOL     OW  333   1.859   3.380   1.605
  650SOL    HW1  334   1.873   3.407   1.510
  650SOL    HW2  335   1.942   3.402   1.658
  657SOL     OW  336   1.138   2.242   1.678
  657SOL    HW1  337   1.093   2.305   1.742
  657SOL    HW2  338   1.231   2.273   1.661
  658SOL     OW  339   1.160   2.069   1.477
  658SOL    HW1  340   1.160   2.133   1.554
  658SOL    HW2  341   1.188   2.117   1.394
  662SOL     OW  342   1.002   2.658   1.238
  662SOL    HW1  343   1.043   2.626   1.324
  662SOL    HW2  344   0.906   2.631   1.235
  665SOL     OW  345   1.369   2.812   1.660
  665SOL    HW1  346   1.408   2.901   1.680
  665SOL    HW2  347   1.379   2.792   1.563
  667SOL     OW  348   1.657   2.466   1.206
  667SOL    HW1  349   1.619   2.397   1.268
  667SOL    HW2  350   1.739   2.430   1.162
  673SOL     OW  351   1.347   2.921   1.234
  673SOL    HW1  352   1.371   2.858   1.160
  673SOL    HW2  353   1.257   2.961   1.216
  686SOL     OW  354   1.650   3.582   1.394
  686SOL    HW1  355   1.703   3.592   1.310
  686SOL    HW2  356   1.623   3.672   1.428
  687SOL     OW  357   1.841   2.037   0.963
  687SOL    HW1  358   1.880   1.952   0.927
  687SOL    HW2  359   1.743   2.039   0.944
  694SOL     OW  360   1.614   3.154   1.289
  694SOL    HW1  361   1.674   3.157   1.369
  694SOL    HW2  362   1.539   3.218   1.302
  698SOL     OW  363   1.709   2.247   1.381
  698SOL    HW1  364   1.782   2.316   1.385
  698SOL    HW2  365   1.737   2.172   1.322
  703SOL     OW  366   1.440   2.718   1.398
  703SOL    HW1  367   1.383   2.770   1.335
  703SOL    HW2  368   1.536   2.730   1.374
  708SOL     OW  369   0.716   2.427   1.708
  708SOL    HW1  370   0.735   2.492   1.782
  708SOL    HW2  371   0.776   2.347   1.717
  709SOL     OW  372   1.450   3.082   1.633
  709SOL    HW1  373   1.441   3.072   1.732
  709SOL    HW2  374   1.546   3.075   1.607
  711SOL     OW  375   1.674   2.745   1.254
  711SOL    HW1  376   1.647   2.656   1.217
  711SOL    HW2  377   1.675   2.813   1.181
  714SOL     OW  378   1.777   2.204   1.642
  714SOL    HW1  379   1.760   2.235   1.548
  714SOL    HW2  380   1.693   2.167   1.680
  715SOL     OW  381   1.730   2.796   1.517
  715SOL    HW1  382   1.768   2.887   1.532
  715SOL    HW2  383   1.722   2.779   1.418
  724SOL     OW  384   1.824   2.054   1.227
  724SOL    HW1  385   1.820   1.964   1.271
  724SOL    HW2  386   1.827   2.043   1.128
  726SOL     OW  387   1.705   3.349   1.104
  726SOL    HW1  388   1.612   3.324   1.077
  726SOL    HW2  389   1.731   3.299   1.186
  729SOL     OW  390   1.424   2.076   1.112
  729SOL    HW1  391   1.476   2.011   1.167
  729SOL    HW2  392   1.375   2.139   1.173
  730SOL     OW  393   1.001   1.896   1.154
  730SOL    HW1  394   0.938   1.824   1.123
  730SOL    HW2  395   1.094   1.860   1.154
  735SOL     OW  396   1.593   2.083   0.882
  735SOL    HW1  397   1.509   2.082   0.936
  735SOL    HW2  398   1.595   2.166   0.826
  742SOL     OW  399   1.555   3.373   2.565
  742SOL    HW1  400   1.498   3.357   2.646
  742SOL    HW2  401   1.496   3.383   2.485
  743SOL     OW  402   1.135   2.565   2.579
  743SOL    HW1  403   1.192   2.643   2.554
  743SOL    HW2  404   1.075   2.591   2.655
  744SOL     OW  405   1.755   2.469   2.093
  744SOL    HW1  406   1.743   2.456   1.994
  744SOL    HW2  407   1.725   2.388   2.142
  745SOL     OW  408   0.768   3.006   2.885
  745SOL    HW1  409   0.690   3.023   2.945
  745SOL    HW2  410   0.802   3.093   2.849
  747SOL     OW  411   0.685   2.874   2.527
  747SOL    HW1  412   0.754   2.858   2.597
  747SOL    HW2  413   0.612   2.931   2.565
  750SOL     OW  414   1.460   3.367   3.201
  750SOL    HW1  415   1.484   3.461   3.227
  750SOL    HW2  416   1.444   3.313   3.283
  752SOL     OW  417   1.603   2.309   2.599
  752SOL    HW1  418   1.529   2.355   2.549
  752SOL    HW2  419   1.654   2.377   2.652
  759SOL     OW  420   1.594   1.976   3.342
  759SOL    HW1  421   1.576   2.043   3.270
  759SOL    HW2  422   1.591   2.022   3.431
  761SOL     OW  423   1.842   3.629   2.221
  761SOL    HW1  424   1.896   3.600   2.301
  761SOL    HW2  425   1.872   3.719   2.192
  763SOL     OW  426   1.689   2.784   2.474
  763SOL    HW1  427   1.784   2.755   2.482
  763SOL    HW2  428   1.681   2.849   2.399
  764SOL     OW  429   1.641   2.970   2.294
  764SOL    HW1  430   1.727   2.972   2.242
  764SOL    HW2  431   1.655   3.017   2.382
  767SOL     OW  432   1.293   3.090   3.285
  767SOL    HW1  433   1.330   3.017   3.227
  767SOL    HW2  434   1.345   3.095   3.370
  768SOL     OW  435   0.809   1.866   2.364
  768SOL    HW1  436   0.849   1.957   2.355
  768SOL    HW2  437   0.709   1.874   2.370
  770SOL     OW  438   1.525   2.861   2.052
  770SOL    HW1  439   1.462   2.785   2.065
  770SOL    HW2  440   1.573   2.879   2.138
  773SOL     OW  441   1.466   3.279   2.815
  773SOL    HW1  442   1.407   3.285   2.895
  773SOL    HW2  443   1.451   3.191   2.769
  774SOL     OW  444   1.667   3.576   2.434
  774SOL    HW1  445   1.626   3.553   2.346
  774SOL    HW2  446   1.649   3.502   2.499
  775SOL     OW  447   0.598   2.591   2.132
  775SOL    HW1  448   0.622   2.660   2.064
  775SOL    HW2  449   0.520   2.624   2.186
  776SOL     OW  450   1.281   2.207   2.806
  776SOL    HW1  451   1.195   2.157   2.793
  776SOL    HW2  452   1.343   2.153   2.862
  777SOL     OW  453   1.576   3.524   2.169
  777SOL    HW1  454   1.665   3.570   2.172
  777SOL    HW2  455   1.555   3.500   2.074
  779SOL     OW  456   1.394   2.331   3.536
  779SOL    HW1  457   1.374   2.374   3.624
  779SOL    HW2  458   1.472   2.269   3.545
  781SOL     OW  459   0.991   2.272   3.104
  781SOL    HW1  460   0.914   2.306   3.158
  781SOL    HW2  461   0.957   2.221   3.025
  782SOL     OW  462   1.041   2.563   2.291
  782SOL    HW1  463   1.067   2.559   2.387
  782SOL    HW2  464   0.956   2.512   2.277
  785SOL     OW  465   0.865   2.210   2.057
  785SOL    HW1  466   0.924   2.273   2.008
  785SOL    HW2  467   0.884   2.116   2.028
  786SOL     OW  468   1.719   2.447   3.693
  786SOL    HW1  469   1.693   2.536   3.657
  786SOL    HW2  470   1.717   2.379   3.620
  787SOL     OW  471   1.362   3.006   2.407
  787SOL    HW1  472   1.445   2.977   2.359
  787SOL    HW2  473   1.313   3.073   2.351
  789SOL     OW  474   1.008   3.318   2.339
  789SOL    HW1  475   0.962   3.390   2.287
  789SOL    HW2  476   1.004   3.338   2.437
  791SOL     OW  477   1.795   2.928   2.735
  791SOL    HW1  478   1.733   2.913   2.659
  791SOL    HW2  479   1.743   2.939   2.820
  794SOL     OW  480   1.458   2.597   2.590
  794SOL    HW1  481   1.453   2.532   2.665
  794SOL    HW2  482   1.538   2.656   2.603
  798SOL     OW  483   1.632   3.239   1.943
  798SOL    HW1  484   1.600   3.333   1.933
  798SOL    HW2  485   1.556   3.176   1.931
  800SOL     OW  486   1.400   1.969   2.288
  800SOL    HW1  487   1.376   1.932   2.198
  800SOL    HW2  488   1.499   1.985   2.292
  804SOL     OW  489   1.547   2.084   3.591
  804SOL    HW1  490   1.542   2.121   3.683
  804SOL    HW2  491   1.475   2.015   3.579
  805SOL     OW  492   0.614   1.984   1.979
  805SOL    HW1  493   0.712   1.962   1.986
  805SOL    HW2  494   0.583   1.967   1.886
  808SOL     OW  495   1.351   2.452   3.295
  808SOL    HW1  496   1.379   2.409   3.380
  808SOL    HW2  497   1.376   2.548   3.296
  810SOL     OW  498   0.922   2.365   2.761
  810SOL    HW1  499   0.897   2.356   2.665
  810SOL    HW2  500   0.970   2.283   2.792
  812SOL     OW  501   1.434   3.050   1.903
  812SOL    HW1  502   1.466   2.974   1.960
  812SOL    HW2  503   1.342   3.077   1.933
  814SOL     OW  504   0.935   2.098   2.342
  814SOL    HW1  505   0.887   2.139   2.264
  814SOL    HW2  506   1.034   2.096   2.323
  815SOL     OW  507   1.076   2.545   3.326
  815SOL    HW1  508   0.996   2.484   3.329
  815SOL    HW2  509   1.157   2.492   3.302
  816SOL     OW  510   1.227   3.432   2.655
  816SOL    HW1  511   1.248   3.506   2.590
  816SOL    HW2  512   1.295   3.432   2.728
  818SOL     OW  513   1.271   3.659   2.453
  818SOL    HW1  514   1.315   3.723   2.389
  818SOL    HW2  515   1.221   3.711   2.523
  819SOL     OW  516   1.032   2.411   1.878
  819SOL    HW1  517   0.991   2.493   1.839
  819SOL    HW2  518   1.096   2.437   1.951
  822SOL     OW  519   0.866   2.316   2.504
  822SOL    HW1  520   0.834   2.388   2.442
  822SOL    HW2  521   0.890   2.235   2.451
  823SOL     OW  522   1.017   1.901   2.615
  823SOL    HW1  523   0.945   1.906   2.546
  823SOL    HW2  524   0.993   1.832   2.684
  824SOL     OW  525   1.429   3.035   2.729
  824SOL    HW1  526   1.374   2.951   2.722
  824SOL    HW2  527   1.455   3.064   2.637
  825SOL     OW  528   1.466   2.452   2.854
  825SOL    HW1  529   1.436   2.357   2.861
  825SOL    HW2  530   1.539   2.468   2.920
  826SOL     OW  531   1.857   2.695   2.239
  826SOL    HW1  532   1.899   2.631   2.303
  826SOL    HW2  533   1.819   2.644   2.161
  828SOL     OW  534   1.664   3.142   2.519
  828SOL    HW1  535   1.763   3.150   2.533
  828SOL    HW2  536   1.619   3.226   2.550
  829SOL     OW  537   1.390   2.437   1.940
  829SOL    HW1  538   1.336   2.416   2.021
  829SOL    HW2  539   1.481   2.396   1.949
  830SOL     OW  540   0.527   2.118   2.190
  830SOL    HW1  541   0.554   2.059   2.115
  830SOL    HW2  542   0.527   2.213   2.159
  831SOL     OW  543   1.754   3.085   3.450
  831SOL    HW1  544   1.845   3.046   3.437
  831SOL    HW2  545   1.762   3.181   3.474
  832SOL     OW  546   1.064   3.209   3.202
  832SOL    HW1  547   0.984   3.186   3.257
  832SOL    HW2  548   1.147   3.183   3.251
  834SOL     OW  549   1.111   3.057   2.962
  834SOL    HW1  550   1.071   3.101   3.043
  834SOL    HW2  551   1.070   3.094   2.879
  835SOL     OW  552   1.638   2.961   2.941
  835SOL    HW1  553   1.643   3.042   3.000
  835SOL    HW2  554   1.552   2.963   2.890
  836SOL     OW  555   0.915   1.951   3.264
  836SOL    HW1  556   0.940   1.931   3.169
  836SOL    HW2  557   0.987   2.007   3.306
  838SOL     OW  558   0.705   2.912   2.230
  838SOL    HW1  559   0.691   2.919   2.329
  838SOL    HW2  560   0.789   2.861   2.212
  840SOL     OW  561   1.274   2.248   3.124
  840SOL    HW1  562   1.295   2.322   3.188
  840SOL    HW2  563   1.185   2.265   3.081
  843SOL     OW  564   0.566   2.399   2.727
  843SOL    HW1  565   0.578   2.465   2.653
  843SOL    HW2  566   0.612   2.433   2.810
  844SOL     OW  567   1.252   3.210   2.250
  844SOL    HW1  568   1.302   3.287   2.290
  844SOL    HW2  569   1.157   3.212   2.282
  845SOL     OW  570   1.272   3.307   3.004
  845SOL    HW1  571   1.319   3.320   3.091
  845SOL    HW2  572   1.206   3.233   3.013
  846SOL     OW  573   1.582   2.501   2.334
  846SOL    HW1  574   1.551   2.562   2.407
  846SOL    HW2  575   1.632   2.553   2.265
  849SOL     OW  576   1.587   2.641   3.532
  849SOL    HW1  577   1.495   2.679   3.527
  849SOL    HW2  578   1.647   2.688   3.467
  853SOL     OW  579   1.360   2.724   2.907
  853SOL    HW1  580   1.285   2.724   2.841
  853SOL    HW2  581   1.397   2.632   2.916
  854SOL     OW  582   1.209   2.387   2.137
  854SOL    HW1  583   1.222   2.303   2.191
  854SOL    HW2  584   1.180   2.461   2.197
  857SOL     OW  585   0.732   2.496   2.926
  857SOL    HW1  586   0.791   2.470   2.850
  857SOL    HW2  587   0.704   2.592   2.915
  858SOL     OW  588   1.728   2.797   3.716
  858SOL    HW1  589   1.682   2.790   3.627
  858SOL    HW2  590   1.666   2.841   3.782
  860SOL     OW  591   1.622   2.229   2.236
  860SOL    HW1  592   1.624   2.153   2.300
  860SOL    HW2  593   1.574   2.306   2.276
  861SOL     OW  594   1.023   2.628   2.828
  861SOL    HW1  595   1.038   2.649   2.924
  861SOL    HW2  596   0.993   2.533   2.819
  863SOL     OW  597   1.859   3.380   3.467
  863SOL    HW1  598   1.873   3.407   3.372
  863SOL    HW2  599   1.942   3.402   3.520
  865SOL     OW  600   1.540   2.136   1.987
  865SOL    HW1  601   1.479   2.061   2.010
  865SOL    HW2  602   1.562   2.188   2.070
  866SOL     OW  603   1.303   2.700   1.904
  866SOL    HW1  604   1.337   2.607   1.919
  866SOL    HW2  605   1.321   2.727   1.809
  867SOL     OW  606   1.068   3.195   2.711
  867SOL    HW1  607   1.075   3.111   2.656
  867SOL    HW2  608   1.130   3.264   2.675
  870SOL     OW  609   1.138   2.242   3.540
  870SOL    HW1  610   1.093   2.305   3.604
  870SOL    HW2  611   1.231   2.273   3.523
  871SOL     OW  612   1.160   2.069   3.339
  871SOL    HW1  613   1.160   2.133   3.416
  871SOL    HW2  614   1.188   2.117   3.256
  875SOL     OW  615   1.002   2.658   3.100
  875SOL    HW1  616   1.043   2.626   3.186
  875SOL    HW2  617   0.906   2.631   3.097
  878SOL     OW  618   1.369   2.812   3.522
  878SOL    HW1  619   1.408   2.901   3.542
  878SOL    HW2  620   1.379   2.792   3.425
  879SOL     OW  621   0.815   2.434   2.187
  879SOL    HW1  622   0.822   2.345   2.141
  879SOL    HW2  623   0.721   2.468   2.179
  880SOL     OW  624   1.657   2.466   3.068
  880SOL    HW1  625   1.619   2.397   3.130
  880SOL    HW2  626   1.739   2.430   3.024
  886SOL     OW  627   1.347   2.921   3.096
  886SOL    HW1  628   1.371   2.858   3.022
  886SOL    HW2  629   1.257   2.961   3.078
  887SOL     OW  630   1.302   2.717   2.171
  887SOL    HW1  631   1.216   2.686   2.213
  887SOL    HW2  632   1.298   2.703   2.072
  888SOL     OW  633   1.759   3.609   3.016
  888SOL    HW1  634   1.820   3.639   2.943
  888SOL    HW2  635   1.721   3.520   2.994
  889SOL     OW  636   1.252   3.593   2.990
  889SOL    HW1  637   1.336   3.598   2.936
  889SOL    HW2  638   1.229   3.497   3.008
  892SOL     OW  639   1.726   1.997   2.385
  892SOL    HW1  640   1.799   1.980   2.318
  892SOL    HW2  641   1.695   1.910   2.423
  893SOL     OW  642   1.388   3.435   2.339
  893SOL    HW1  643   1.455   3.447   2.265
  893SOL    HW2  644   1.348   3.524   2.362
  895SOL     OW  645   1.280   2.789   2.534
  895SOL    HW1  646   1.340   2.708   2.536
  895SOL    HW2  647   1.320   2.858   2.474
  898SOL     OW  648   1.650   3.582   3.256
  898SOL    HW1  649   1.703   3.592   3.172
  898SOL    HW2  650   1.623   3.672   3.290
  899SOL     OW  651   1.841   2.037   2.825
  899SOL    HW1  652   1.880   1.952   2.789
  899SOL    HW2  653   1.743   2.039   2.806
  901SOL     OW  654   1.194   3.474   1.893
  901SOL    HW1  655   1.200   3.381   1.930
  901SOL    HW2  656   1.135   3.474   1.813
  903SOL     OW  657   0.916   2.772   2.153
  903SOL    HW1  658   0.979   2.810   2.085
  903SOL    HW2  659   0.956   2.689   2.192
  904SOL     OW  660   1.504   3.469   1.906
  904SOL    HW1  661   1.412   3.506   1.913
  904SOL    HW2  662   1.542   3.489   1.816
  906SOL     OW  663   1.614   3.154   3.151
  906SOL    HW1  664   1.674   3.157   3.231
  906SOL    HW2  665   1.539   3.218   3.164
  907SOL     OW  666   1.039   2.960   2.558
  907SOL    HW1  667   0.969   2.913   2.612
  907SOL    HW2  668   1.098   2.892   2.515
  908SOL     OW  669   1.014   2.098   2.833
  908SOL    HW1  670   1.006   2.062   2.740
  908SOL    HW2  671   1.012   2.022   2.898
  910SOL     OW  672   1.709   2.247   3.243
  910SOL    HW1  673   1.782   2.316   3.247
  910SOL    HW2  674   1.737   2.172   3.184
  915SOL     OW  675   1.440   2.718   3.260
  915SOL    HW1  676   1.383   2.770   3.197
  915SOL    HW2  677   1.536   2.730   3.236
  917SOL     OW  678   1.183   3.197   1.981
  917SOL    HW1  679   1.084   3.186   1.983
  917SOL    HW2  680   1.217   3.212   2.074
  919SOL     OW  681   1.493   3.629   2.821
  919SOL    HW1  682   1.526   3.693   2.752
  919SOL    HW2  683   1.559   3.623   2.896
  921SOL     OW  684   1.450   3.082   3.495
  921SOL    HW1  685   1.441   3.072   3.594
  921SOL    HW2  686   1.546   3.075   3.469
  923SOL     OW  687   1.674   2.745   3.116
  923SOL    HW1  688   1.647   2.656   3.079
  923SOL    HW2  689   1.675   2.813   3.043
  924SOL     OW  690   1.225   2.187   2.311
  924SOL    HW1  691   1.290   2.113   2.300
  924SOL    HW2  692   1.245   2.237   2.395
  925SOL     OW  693   0.594   2.607   2.514
  925SOL    HW1  694   0.644   2.692   2.495
  925SOL    HW2  695   0.506   2.609   2.466
  926SOL     OW  696   1.777   2.204   3.504
  926SOL    HW1  697   1.760   2.235   3.410
  926SOL    HW2  698   1.693   2.167   3.542
  927SOL     OW  699   1.730   2.796   3.379
  927SOL    HW1  700   1.768   2.887   3.394
  927SOL    HW2  701   1.722   2.779   3.280
  928SOL     OW  702   0.859   3.236   1.878
  928SOL    HW1  703   0.813   3.251   1.966
  928SOL    HW2  704   0.903   3.321   1.848
  930SOL     OW  705   0.859   2.818   2.723
  930SOL    HW1  706   0.913   2.749   2.771
  930SOL    HW2  707   0.827   2.887   2.789
  931SOL     OW  708   1.083   2.846   1.949
  931SOL    HW1  709   1.060   2.899   1.867
  931SOL    HW2  710   1.164   2.790   1.930
  932SOL     OW  711   1.861   3.431   2.713
  932SOL    HW1  712   1.790   3.419   2.643
  932SOL    HW2  713   1.862   3.352   2.773
  936SOL     OW  714   1.824   2.054   3.089
  936SOL    HW1  715   1.820   1.964   3.133
  936SOL    HW2  716   1.827   2.043   2.990
  938SOL     OW  717   1.705   3.349   2.966
  938SOL    HW1  718   1.612   3.324   2.939
  938SOL    HW2  719   1.731   3.299   3.048
  941SOL     OW  720   1.424   2.076   2.974
  941SOL    HW1  721   1.476   2.011   3.029
  941SOL    HW2  722   1.375   2.139   3.035
  942SOL     OW  723   1.001   1.896   3.016
  942SOL    HW1  724   0.938   1.824   2.985
  942SOL    HW2  725   1.094   1.860   3.016
  943SOL     OW  726   0.770   3.192   2.163
  943SOL    HW1  727   0.724   3.105   2.180
  943SOL    HW2  728   0.861   3.189   2.204
  945SOL     OW  729   1.352   1.914   2.030
  945SOL    HW1  730   1.387   1.873   1.946
  945SOL    HW2  731   1.262   1.876   2.050
  946SOL     OW  732   1.300   2.315   2.553
  946SOL    HW1  733   1.241   2.395   2.557
  946SOL    HW2  734   1.315   2.280   2.646
  947SOL     OW  735   1.593   2.083   2.744
  947SOL    HW1  736   1.509   2.082   2.798
  947SOL    HW2  737   1.595   2.166   2.688
  954SOL     OW  738   1.755   2.469   3.955
  954SOL    HW1  739   1.743   2.456   3.856
  954SOL    HW2  740   1.725   2.388   4.004
 1003SOL     OW  741   1.390   2.437   3.802
 1003SOL    HW1  742   1.336   2.416   3.883
 1003SOL    HW2  743   1.481   2.396   3.811
 1013SOL     OW  744   1.540   2.136   3.849
 1013SOL    HW1  745   1.479   2.061   3.872
 1013SOL    HW2  746   1.562   2.188   3.932
 1176SOL     OW  747   1.400   3.831   2.288
 1176SOL    HW1  748   1.376   3.794   2.198
 1176SOL    HW2  749   1.499   3.847   2.292
 1225SOL     OW  750   1.726   3.859   2.385
 1225SOL    HW1  751   1.799   3.842   2.318
 1225SOL    HW2  752   1.695   3.772   2.423
 1227SOL     OW  753   1.841   3.899   2.825
 1227SOL    HW1  754   1.880   3.814   2.789
 1227SOL    HW2  755   1.743   3.901   2.806
 1248SOL     OW  756   1.352   3.776   2.030
 1248SOL    HW1  757   1.387   3.735   1.946
 1248SOL    HW2  758   1.262   3.738   2.050
 1304SOL     OW  759   2.431   1.275   1.165
 1304SOL    HW1  760   2.338   1.268   1.128
 1304SOL    HW2  761   2.442   1.364   1.209
 1308SOL     OW  762   2.630   1.144   1.023
 1308SOL    HW1  763   2.552   1.161   1.083
 1308SOL    HW2  764   2.664   1.231   0.987
 1309SOL     OW  765   2.712   0.798   1.823
 1309SOL    HW1  766   2.708   0.874   1.888
 1309SOL    HW2  767   2.734   0.834   1.732
 1311SOL     OW  768   2.548   1.161   1.803
 1311SOL    HW1  769   2.608   1.240   1.817
 1311SOL    HW2  770   2.462   1.192   1.762
 1312SOL     OW  771   2.197   1.435   1.061
 1312SOL    HW1  772   2.119   1.404   1.008
 1312SOL    HW2  773   2.255   1.493   1.004
 1313SOL     OW  774   3.322   1.505   1.339
 1313SOL    HW1  775   3.346   1.599   1.365
 1313SOL    HW2  776   3.306   1.451   1.421
 1317SOL     OW  777   2.989   1.341   1.690
 1317SOL    HW1  778   3.036   1.341   1.778
 1317SOL    HW2  779   2.941   1.254   1.679
 1320SOL     OW  780   2.482   1.786   1.439
 1320SOL    HW1  781   2.390   1.769   1.474
 1320SOL    HW2  782   2.510   1.878   1.465
 1328SOL     OW  783   1.975   0.737   1.597
 1328SOL    HW1  784   2.063   0.724   1.642
 1328SOL    HW2  785   1.962   0.834   1.575
 1330SOL     OW  786   3.155   1.228   1.423
 1330SOL    HW1  787   3.192   1.155   1.365
 1330SOL    HW2  788   3.207   1.233   1.508
 1332SOL     OW  789   2.059   0.976   1.264
 1332SOL    HW1  790   2.148   0.931   1.250
 1332SOL    HW2  791   1.986   0.911   1.245
 1334SOL     OW  792   3.049   1.792   1.616
 1334SOL    HW1  793   3.073   1.852   1.540
 1334SOL    HW2  794   3.056   1.697   1.586
 1343SOL     OW  795   2.835   0.890   1.572
 1343SOL    HW1  796   2.881   0.806   1.543
 1343SOL    HW2  797   2.779   0.924   1.497
 1347SOL     OW  798   1.992   1.821   1.571
 1347SOL    HW1  799   1.982   1.806   1.670
 1347SOL    HW2  800   1.906   1.857   1.535
 1353SOL     OW  801   2.213   1.801   0.853
 1353SOL    HW1  802   2.263   1.715   0.859
 1353SOL    HW2  803   2.278   1.878   0.850
 1355SOL     OW  804   3.089   1.550   1.506
 1355SOL    HW1  805   3.095   1.473   1.570
 1355SOL    HW2  806   3.037   1.524   1.426
 1358SOL     OW  807   2.323   1.266   1.727
 1358SOL    HW1  808   2.273   1.267   1.641
 1358SOL    HW2  809   2.260   1.248   1.803
 1364SOL     OW  810   2.111   1.785   1.241
 1364SOL    HW1  811   2.168   1.720   1.291
 1364SOL    HW2  812   2.095   1.752   1.148
 1365SOL     OW  813   2.802   1.698   0.904
 1365SOL    HW1  814   2.882   1.641   0.925
 1365SOL    HW2  815   2.753   1.658   0.827
 1370SOL     OW  816   2.750   1.514   1.195
 1370SOL    HW1  817   2.727   1.489   1.101
 1370SOL    HW2  818   2.811   1.445   1.234
 1372SOL     OW  819   2.665   1.402   0.924
 1372SOL    HW1  820   2.755   1.416   0.882
 1372SOL    HW2  821   2.594   1.404   0.853
 1395SOL     OW  822   2.926   1.347   1.340
 1395SOL    HW1  823   2.846   1.324   1.395
 1395SOL    HW2  824   3.009   1.321   1.389
 1396SOL     OW  825   3.454   1.629   1.625
 1396SOL    HW1  826   3.481   1.663   1.535
 1396SOL    HW2  827   3.533   1.591   1.671
 1397SOL     OW  828   2.973   1.195   1.100
 1397SOL    HW1  829   2.933   1.239   1.181
 1397SOL    HW2  830   2.932   1.232   1.017
 1400SOL     OW  831   2.842   1.116   1.719
 1400SOL    HW1  832   2.743   1.122   1.729
 1400SOL    HW2  833   2.865   1.036   1.663
 1404SOL     OW  834   1.926   1.564   1.331
 1404SOL    HW1  835   1.880   1.646   1.297
 1404SOL    HW2  836   2.024   1.583   1.340
 1408SOL     OW  837   3.134   1.445   1.142
 1408SOL    HW1  838   3.181   1.458   1.229
 1408SOL    HW2  839   3.068   1.371   1.151
 1410SOL     OW  840   2.216   1.510   1.329
 1410SOL    HW1  841   2.195   1.466   1.242
 1410SOL    HW2  842   2.313   1.536   1.332
 1411SOL     OW  843   2.264   0.751   1.598
 1411SOL    HW1  844   2.332   0.806   1.551
 1411SOL    HW2  845   2.304   0.663   1.625
 1419SOL     OW  846   1.899   1.310   1.282
 1419SOL    HW1  847   1.952   1.261   1.350
 1419SOL    HW2  848   1.921   1.408   1.287
 1425SOL     OW  849   2.842   1.573   1.700
 1425SOL    HW1  850   2.822   1.617   1.612
 1425SOL    HW2  851   2.881   1.482   1.684
 1426SOL     OW  852   3.721   1.518   1.605
 1426SOL    HW1  853   3.735   1.545   1.510
 1426SOL    HW2  854   3.804   1.540   1.658
 1427SOL     OW  855   2.212   0.898   1.804
 1427SOL    HW1  856   2.288   0.942   1.852
 1427SOL    HW2  857   2.247   0.851   1.722
 1436SOL     OW  858   1.950   1.801   0.927
 1436SOL    HW1  859   1.908   1.715   0.900
 1436SOL    HW2  860   2.044   1.804   0.893
 1437SOL     OW  861   2.366   1.568   0.910
 1437SOL    HW1  862   2.432   1.642   0.919
 1437SOL    HW2  863   2.410   1.489   0.868
 1441SOL     OW  864   3.231   0.950   1.660
 1441SOL    HW1  865   3.270   1.039   1.680
 1441SOL    HW2  866   3.241   0.930   1.563
 1444SOL     OW  867   2.114   1.564   1.744
 1444SOL    HW1  868   2.084   1.621   1.820
 1444SOL    HW2  869   2.107   1.467   1.770
 1446SOL     OW  870   2.792   1.678   1.465
 1446SOL    HW1  871   2.768   1.660   1.370
 1446SOL    HW2  872   2.822   1.772   1.475
 1448SOL     OW  873   2.021   1.137   1.466
 1448SOL    HW1  874   2.043   1.076   1.542
 1448SOL    HW2  875   2.031   1.088   1.380
 1452SOL     OW  876   3.114   1.731   1.128
 1452SOL    HW1  877   3.198   1.736   1.074
 1452SOL    HW2  878   3.091   1.635   1.146
 1453SOL     OW  879   1.945   1.258   1.022
 1453SOL    HW1  880   1.940   1.257   1.122
 1453SOL    HW2  881   1.862   1.217   0.984
 1454SOL     OW  882   2.550   1.662   1.716
 1454SOL    HW1  883   2.494   1.743   1.725
 1454SOL    HW2  884   2.602   1.666   1.630
 1458SOL     OW  885   1.992   1.794   1.851
 1458SOL    HW1  886   1.951   1.720   1.904
 1458SOL    HW2  887   2.056   1.845   1.909
 1460SOL     OW  888   2.692   1.273   1.422
 1460SOL    HW1  889   2.687   1.306   1.517
 1460SOL    HW2  890   2.606   1.292   1.376
 1462SOL     OW  891   3.512   1.720   1.394
 1462SOL    HW1  892   3.565   1.730   1.310
 1462SOL    HW2  893   3.485   1.810   1.428
 1466SOL     OW  894   2.684   1.002   1.372
 1466SOL    HW1  895   2.724   1.001   1.280
 1466SOL    HW2  896   2.694   1.094   1.412
 1469SOL     OW  897   2.234   1.288   1.490
 1469SOL    HW1  898   2.221   1.381   1.456
 1469SOL    HW2  899   2.150   1.236   1.477
 1476SOL     OW  900   1.967   1.013   1.726
 1476SOL    HW1  901   1.890   0.980   1.780
 1476SOL    HW2  902   2.052   0.983   1.768
 1482SOL     OW  903   2.475   0.842   1.431
 1482SOL    HW1  904   2.531   0.923   1.414
 1482SOL    HW2  905   2.534   0.762   1.434
 1483SOL     OW  906   3.355   1.767   0.959
 1483SOL    HW1  907   3.388   1.831   0.890
 1483SOL    HW2  908   3.421   1.761   1.034
 1485SOL     OW  909   3.312   1.220   1.633
 1485SOL    HW1  910   3.303   1.210   1.732
 1485SOL    HW2  911   3.408   1.213   1.607
 1486SOL     OW  912   2.252   1.741   1.560
 1486SOL    HW1  913   2.161   1.782   1.558
 1486SOL    HW2  914   2.245   1.647   1.592
 1493SOL     OW  915   2.523   1.790   0.953
 1493SOL    HW1  916   2.477   1.878   0.940
 1493SOL    HW2  917   2.622   1.802   0.946
 1497SOL     OW  918   2.083   1.314   1.844
 1497SOL    HW1  919   2.018   1.241   1.823
 1497SOL    HW2  920   2.087   1.328   1.942
 1499SOL     OW  921   2.534   1.391   1.624
 1499SOL    HW1  922   2.456   1.341   1.662
 1499SOL    HW2  923   2.531   1.486   1.655
 1508SOL     OW  924   2.480   1.567   1.284
 1508SOL    HW1  925   2.475   1.649   1.341
 1508SOL    HW2  926   2.569   1.564   1.239
 1514SOL     OW  927   2.092   0.628   1.975
 1514SOL    HW1  928   1.999   0.626   2.012
 1514SOL    HW2  929   2.093   0.589   1.883
 1517SOL     OW  930   2.431   1.275   3.027
 1517SOL    HW1  931   2.338   1.268   2.990
 1517SOL    HW2  932   2.442   1.364   3.071
 1518SOL     OW  933   3.417   1.511   2.565
 1518SOL    HW1  934   3.360   1.495   2.646
 1518SOL    HW2  935   3.358   1.521   2.485
 1519SOL     OW  936   2.997   0.703   2.579
 1519SOL    HW1  937   3.054   0.781   2.554
 1519SOL    HW2  938   2.937   0.729   2.655
 1521SOL     OW  939   2.630   1.144   2.885
 1521SOL    HW1  940   2.552   1.161   2.945
 1521SOL    HW2  941   2.664   1.231   2.849
 1523SOL     OW  942   2.547   1.012   2.527
 1523SOL    HW1  943   2.616   0.996   2.597
 1523SOL    HW2  944   2.474   1.069   2.565
 1524SOL     OW  945   2.548   1.161   3.665
 1524SOL    HW1  946   2.608   1.240   3.679
 1524SOL    HW2  947   2.462   1.192   3.624
 1525SOL     OW  948   2.197   1.435   2.923
 1525SOL    HW1  949   2.119   1.404   2.870
 1525SOL    HW2  950   2.255   1.493   2.866
 1526SOL     OW  951   3.322   1.505   3.201
 1526SOL    HW1  952   3.346   1.599   3.227
 1526SOL    HW2  953   3.306   1.451   3.283
 1529SOL     OW  954   2.093   1.713   2.345
 1529SOL    HW1  955   2.127   1.790   2.399
 1529SOL    HW2  956   2.137   1.713   2.255
 1530SOL     OW  957   2.989   1.341   3.552
 1530SOL    HW1  958   3.036   1.341   3.640
 1530SOL    HW2  959   2.941   1.254   3.541
 1531SOL     OW  960   2.092   1.434   2.400
 1531SOL    HW1  961   2.066   1.530   2.400
 1531SOL    HW2  962   2.021   1.380   2.445
 1532SOL     OW  963   2.102   1.091   2.748
 1532SOL    HW1  964   2.116   1.007   2.800
 1532SOL    HW2  965   2.047   1.155   2.803
 1533SOL     OW  966   2.482   1.786   3.301
 1533SOL    HW1  967   2.390   1.769   3.336
 1533SOL    HW2  968   2.510   1.878   3.327
 1534SOL     OW  969   2.468   0.964   1.985
 1534SOL    HW1  970   2.475   1.048   1.931
 1534SOL    HW2  971   2.514   0.977   2.073
 1536SOL     OW  972   1.984   0.643   2.425
 1536SOL    HW1  973   1.939   0.555   2.442
 1536SOL    HW2  974   1.983   0.697   2.509
 1537SOL     OW  975   3.704   1.767   2.221
 1537SOL    HW1  976   3.758   1.738   2.301
 1537SOL    HW2  977   3.734   1.857   2.192
 1538SOL     OW  978   1.889   1.596   1.979
 1538SOL    HW1  979   1.870   1.500   2.000
 1538SOL    HW2  980   1.856   1.654   2.054
 1540SOL     OW  981   3.503   1.108   2.294
 1540SOL    HW1  982   3.589   1.110   2.242
 1540SOL    HW2  983   3.517   1.155   2.382
 1542SOL     OW  984   2.475   1.365   2.588
 1542SOL    HW1  985   2.426   1.278   2.597
 1542SOL    HW2  986   2.452   1.408   2.501
 1543SOL     OW  987   3.155   1.228   3.285
 1543SOL    HW1  988   3.192   1.155   3.227
 1543SOL    HW2  989   3.207   1.233   3.370
 1545SOL     OW  990   2.059   0.976   3.126
 1545SOL    HW1  991   2.148   0.931   3.112
 1545SOL    HW2  992   1.986   0.911   3.107
 1546SOL     OW  993   3.387   0.999   2.052
 1546SOL    HW1  994   3.324   0.923   2.065
 1546SOL    HW2  995   3.435   1.017   2.138
 1547SOL     OW  996   3.049   1.792   3.478
 1547SOL    HW1  997   3.073   1.852   3.402
 1547SOL    HW2  998   3.056   1.697   3.448
 1549SOL     OW  999   3.328   1.417   2.815
 1549SOL    HW1 1000   3.269   1.423   2.895
 1549SOL    HW2 1001   3.313   1.329   2.769
 1550SOL     OW 1002   3.529   1.714   2.434
 1550SOL    HW1 1003   3.488   1.691   2.346
 1550SOL    HW2 1004   3.511   1.640   2.499
 1551SOL     OW 1005   2.460   0.729   2.132
 1551SOL    HW1 1006   2.484   0.798   2.064
 1551SOL    HW2 1007   2.382   0.762   2.186
 1553SOL     OW 1008   3.438   1.662   2.169
 1553SOL    HW1 1009   3.527   1.708   2.172
 1553SOL    HW2 1010   3.417   1.638   2.074
 1558SOL     OW 1011   2.903   0.701   2.291
 1558SOL    HW1 1012   2.929   0.697   2.387
 1558SOL    HW2 1013   2.818   0.650   2.277
 1559SOL     OW 1014   1.938   0.811   2.651
 1559SOL    HW1 1015   2.037   0.799   2.660
 1559SOL    HW2 1016   1.914   0.906   2.672
 1560SOL     OW 1017   1.992   1.821   3.433
 1560SOL    HW1 1018   1.982   1.806   3.532
 1560SOL    HW2 1019   1.906   1.857   3.397
 1563SOL     OW 1020   3.224   1.144   2.407
 1563SOL    HW1 1021   3.307   1.115   2.359
 1563SOL    HW2 1022   3.175   1.211   2.351
 1565SOL     OW 1023   2.870   1.456   2.339
 1565SOL    HW1 1024   2.824   1.528   2.287
 1565SOL    HW2 1025   2.866   1.476   2.437
 1566SOL     OW 1026   2.213   1.801   2.715
 1566SOL    HW1 1027   2.263   1.715   2.721
 1566SOL    HW2 1028   2.278   1.878   2.712
 1568SOL     OW 1029   3.089   1.550   3.368
 1568SOL    HW1 1030   3.095   1.473   3.432
 1568SOL    HW2 1031   3.037   1.524   3.288
 1569SOL     OW 1032   2.183   0.943   2.104
 1569SOL    HW1 1033   2.265   0.982   2.062
 1569SOL    HW2 1034   2.156   0.861   2.055
 1571SOL     OW 1035   2.323   1.266   3.589
 1571SOL    HW1 1036   2.273   1.267   3.503
 1571SOL    HW2 1037   2.260   1.248   3.665
 1572SOL     OW 1038   2.973   1.776   2.099
 1572SOL    HW1 1039   2.913   1.714   2.149
 1572SOL    HW2 1040   3.004   1.732   2.014
 1574SOL     OW 1041   3.494   1.377   1.943
 1574SOL    HW1 1042   3.462   1.471   1.933
 1574SOL    HW2 1043   3.418   1.314   1.931
 1575SOL     OW 1044   2.326   1.743   2.185
 1575SOL    HW1 1045   2.359   1.782   2.271
 1575SOL    HW2 1046   2.402   1.736   2.120
 1577SOL     OW 1047   2.111   1.785   3.103
 1577SOL    HW1 1048   2.168   1.720   3.153
 1577SOL    HW2 1049   2.095   1.752   3.010
 1578SOL     OW 1050   2.802   1.698   2.766
 1578SOL    HW1 1051   2.882   1.641   2.787
 1578SOL    HW2 1052   2.753   1.658   2.689
 1579SOL     OW 1053   2.244   0.700   2.342
 1579SOL    HW1 1054   2.289   0.610   2.339
 1579SOL    HW2 1055   2.150   0.689   2.375
 1583SOL     OW 1056   2.750   1.514   3.057
 1583SOL    HW1 1057   2.727   1.489   2.963
 1583SOL    HW2 1058   2.811   1.445   3.096
 1585SOL     OW 1059   2.665   1.402   2.786
 1585SOL    HW1 1060   2.755   1.416   2.744
 1585SOL    HW2 1061   2.594   1.404   2.715
 1588SOL     OW 1062   3.296   1.188   1.903
 1588SOL    HW1 1063   3.328   1.112   1.960
 1588SOL    HW2 1064   3.204   1.215   1.933
 1592SOL     OW 1065   3.089   1.570   2.655
 1592SOL    HW1 1066   3.110   1.644   2.590
 1592SOL    HW2 1067   3.157   1.570   2.728
 1593SOL     OW 1068   2.321   1.152   2.603
 1593SOL    HW1 1069   2.250   1.125   2.668
 1593SOL    HW2 1070   2.295   1.124   2.510
 1594SOL     OW 1071   3.133   1.797   2.453
 1594SOL    HW1 1072   3.177   1.861   2.389
 1594SOL    HW2 1073   3.083   1.849   2.523
 1600SOL     OW 1074   3.291   1.173   2.729
 1600SOL    HW1 1075   3.236   1.089   2.722
 1600SOL    HW2 1076   3.317   1.202   2.637
 1603SOL     OW 1077   2.350   1.385   2.036
 1603SOL    HW1 1078   2.263   1.370   2.083
 1603SOL    HW2 1079   2.333   1.411   1.941
 1604SOL     OW 1080   3.526   1.280   2.519
 1604SOL    HW1 1081   3.625   1.288   2.533
 1604SOL    HW2 1082   3.481   1.364   2.550
 1608SOL     OW 1083   2.926   1.347   3.202
 1608SOL    HW1 1084   2.846   1.324   3.257
 1608SOL    HW2 1085   3.009   1.321   3.251
 1609SOL     OW 1086   3.454   1.629   3.487
 1609SOL    HW1 1087   3.481   1.663   3.397
 1609SOL    HW2 1088   3.533   1.591   3.533
 1610SOL     OW 1089   2.973   1.195   2.962
 1610SOL    HW1 1090   2.933   1.239   3.043
 1610SOL    HW2 1091   2.932   1.232   2.879
 1614SOL     OW 1092   2.567   1.050   2.230
 1614SOL    HW1 1093   2.553   1.057   2.329
 1614SOL    HW2 1094   2.651   0.999   2.212
 1615SOL     OW 1095   2.272   0.813   3.113
 1615SOL    HW1 1096   2.358   0.825   3.163
 1615SOL    HW2 1097   2.230   0.726   3.140
 1617SOL     OW 1098   1.926   1.564   3.193
 1617SOL    HW1 1099   1.880   1.646   3.159
 1617SOL    HW2 1100   2.024   1.583   3.202
 1618SOL     OW 1101   2.229   1.100   2.363
 1618SOL    HW1 1102   2.222   1.183   2.307
 1618SOL    HW2 1103   2.233   1.020   2.303
 1620SOL     OW 1104   3.114   1.348   2.250
 1620SOL    HW1 1105   3.164   1.425   2.290
 1620SOL    HW2 1106   3.019   1.350   2.282
 1621SOL     OW 1107   3.134   1.445   3.004
 1621SOL    HW1 1108   3.181   1.458   3.091
 1621SOL    HW2 1109   3.068   1.371   3.013
 1623SOL     OW 1110   2.216   1.510   3.191
 1623SOL    HW1 1111   2.195   1.466   3.104
 1623SOL    HW2 1112   2.313   1.536   3.194
 1628SOL     OW 1113   2.435   0.870   2.891
 1628SOL    HW1 1114   2.479   0.959   2.882
 1628SOL    HW2 1115   2.372   0.870   2.968
 1632SOL     OW 1116   1.899   1.310   3.144
 1632SOL    HW1 1117   1.952   1.261   3.212
 1632SOL    HW2 1118   1.921   1.408   3.149
 1637SOL     OW 1119   2.885   0.766   2.828
 1637SOL    HW1 1120   2.900   0.787   2.924
 1637SOL    HW2 1121   2.855   0.671   2.819
 1638SOL     OW 1122   2.842   1.573   3.562
 1638SOL    HW1 1123   2.822   1.617   3.474
 1638SOL    HW2 1124   2.881   1.482   3.546
 1642SOL     OW 1125   3.165   0.838   1.904
 1642SOL    HW1 1126   3.199   0.745   1.919
 1642SOL    HW2 1127   3.183   0.865   1.809
 1643SOL     OW 1128   2.930   1.333   2.711
 1643SOL    HW1 1129   2.937   1.249   2.656
 1643SOL    HW2 1130   2.992   1.402   2.675
 1644SOL     OW 1131   2.181   0.810   2.811
 1644SOL    HW1 1132   2.274   0.846   2.816
 1644SOL    HW2 1133   2.175   0.725   2.863
 1648SOL     OW 1134   1.870   1.326   2.062
 1648SOL    HW1 1135   1.777   1.347   2.031
 1648SOL    HW2 1136   1.880   1.227   2.075
 1649SOL     OW 1137   1.950   1.801   2.789
 1649SOL    HW1 1138   1.908   1.715   2.762
 1649SOL    HW2 1139   2.044   1.804   2.755
 1650SOL     OW 1140   2.366   1.568   2.772
 1650SOL    HW1 1141   2.432   1.642   2.781
 1650SOL    HW2 1142   2.410   1.489   2.730
 1651SOL     OW 1143   2.864   0.796   3.100
 1651SOL    HW1 1144   2.905   0.764   3.186
 1651SOL    HW2 1145   2.768   0.769   3.097
 1655SOL     OW 1146   2.677   0.572   2.187
 1655SOL    HW1 1147   2.684   0.483   2.141
 1655SOL    HW2 1148   2.583   0.606   2.179
 1657SOL     OW 1149   2.114   1.564   3.606
 1657SOL    HW1 1150   2.084   1.621   3.682
 1657SOL    HW2 1151   2.107   1.467   3.632
 1659SOL     OW 1152   2.792   1.678   3.327
 1659SOL    HW1 1153   2.768   1.660   3.232
 1659SOL    HW2 1154   2.822   1.772   3.337
 1661SOL     OW 1155   2.021   1.137   3.328
 1661SOL    HW1 1156   2.043   1.076   3.404
 1661SOL    HW2 1157   2.031   1.088   3.242
 1662SOL     OW 1158   3.209   1.059   3.096
 1662SOL    HW1 1159   3.233   0.996   3.022
 1662SOL    HW2 1160   3.119   1.099   3.078
 1663SOL     OW 1161   3.164   0.855   2.171
 1663SOL    HW1 1162   3.078   0.824   2.213
 1663SOL    HW2 1163   3.160   0.841   2.072
 1664SOL     OW 1164   3.621   1.747   3.016
 1664SOL    HW1 1165   3.682   1.777   2.943
 1664SOL    HW2 1166   3.583   1.658   2.994
 1665SOL     OW 1167   3.114   1.731   2.990
 1665SOL    HW1 1168   3.198   1.736   2.936
 1665SOL    HW2 1169   3.091   1.635   3.008
 1666SOL     OW 1170   1.945   1.258   2.884
 1666SOL    HW1 1171   1.940   1.257   2.984
 1666SOL    HW2 1172   1.862   1.217   2.846
 1667SOL     OW 1173   2.550   1.662   3.578
 1667SOL    HW1 1174   2.494   1.743   3.587
 1667SOL    HW2 1175   2.602   1.666   3.492
 1669SOL     OW 1176   3.250   1.573   2.339
 1669SOL    HW1 1177   3.317   1.585   2.265
 1669SOL    HW2 1178   3.210   1.662   2.362
 1670SOL     OW 1179   1.992   1.794   3.713
 1670SOL    HW1 1180   1.951   1.720   3.766
 1670SOL    HW2 1181   2.056   1.845   3.771
 1671SOL     OW 1182   3.142   0.927   2.534
 1671SOL    HW1 1183   3.202   0.846   2.536
 1671SOL    HW2 1184   3.182   0.996   2.474
 1672SOL     OW 1185   2.692   1.273   3.284
 1672SOL    HW1 1186   2.687   1.306   3.379
 1672SOL    HW2 1187   2.606   1.292   3.238
 1673SOL     OW 1188   2.534   1.616   2.016
 1673SOL    HW1 1189   2.543   1.626   1.917
 1673SOL    HW2 1190   2.494   1.527   2.037
 1674SOL     OW 1191   3.512   1.720   3.256
 1674SOL    HW1 1192   3.565   1.730   3.172
 1674SOL    HW2 1193   3.485   1.810   3.290
 1677SOL     OW 1194   3.056   1.612   1.893
 1677SOL    HW1 1195   3.062   1.519   1.930
 1677SOL    HW2 1196   2.997   1.612   1.813
 1678SOL     OW 1197   2.684   1.002   3.234
 1678SOL    HW1 1198   2.724   1.001   3.142
 1678SOL    HW2 1199   2.694   1.094   3.274
 1679SOL     OW 1200   2.778   0.910   2.153
 1679SOL    HW1 1201   2.841   0.948   2.085
 1679SOL    HW2 1202   2.818   0.827   2.192
 1680SOL     OW 1203   3.366   1.607   1.906
 1680SOL    HW1 1204   3.274   1.644   1.913
 1680SOL    HW2 1205   3.404   1.627   1.816
 1681SOL     OW 1206   2.234   1.288   3.352
 1681SOL    HW1 1207   2.221   1.381   3.318
 1681SOL    HW2 1208   2.150   1.236   3.339
 1682SOL     OW 1209   3.476   1.292   3.151
 1682SOL    HW1 1210   3.536   1.295   3.231
 1682SOL    HW2 1211   3.401   1.356   3.164
 1683SOL     OW 1212   2.901   1.098   2.558
 1683SOL    HW1 1213   2.831   1.051   2.612
 1683SOL    HW2 1214   2.960   1.030   2.515
 1685SOL     OW 1215   2.452   1.487   2.353
 1685SOL    HW1 1216   2.494   1.429   2.283
 1685SOL    HW2 1217   2.408   1.566   2.309
 1687SOL     OW 1218   2.117   1.348   2.152
 1687SOL    HW1 1219   2.021   1.349   2.125
 1687SOL    HW2 1220   2.129   1.401   2.236
 1693SOL     OW 1221   3.045   1.335   1.981
 1693SOL    HW1 1222   2.946   1.324   1.983
 1693SOL    HW2 1223   3.079   1.350   2.074
 1694SOL     OW 1224   2.475   0.842   3.293
 1694SOL    HW1 1225   2.531   0.923   3.276
 1694SOL    HW2 1226   2.534   0.762   3.296
 1695SOL     OW 1227   3.355   1.767   2.821
 1695SOL    HW1 1228   3.388   1.831   2.752
 1695SOL    HW2 1229   3.421   1.761   2.896
 1698SOL     OW 1230   2.252   1.741   3.422
 1698SOL    HW1 1231   2.161   1.782   3.420
 1698SOL    HW2 1232   2.245   1.647   3.454
 1701SOL     OW 1233   2.456   0.745   2.514
 1701SOL    HW1 1234   2.506   0.830   2.495
 1701SOL    HW2 1235   2.368   0.747   2.466
 1704SOL     OW 1236   2.721   1.374   1.878
 1704SOL    HW1 1237   2.675   1.389   1.966
 1704SOL    HW2 1238   2.765   1.459   1.848
 1705SOL     OW 1239   2.523   1.790   2.815
 1705SOL    HW1 1240   2.477   1.878   2.802
 1705SOL    HW2 1241   2.622   1.802   2.808
 1706SOL     OW 1242   2.721   0.956   2.723
 1706SOL    HW1 1243   2.775   0.887   2.771
 1706SOL    HW2 1244   2.689   1.025   2.789
 1707SOL     OW 1245   2.945   0.984   1.949
 1707SOL    HW1 1246   2.922   1.037   1.867
 1707SOL    HW2 1247   3.026   0.928   1.930
 1708SOL     OW 1248   3.723   1.569   2.713
 1708SOL    HW1 1249   3.652   1.557   2.643
 1708SOL    HW2 1250   3.724   1.490   2.773
 1709SOL     OW 1251   2.083   1.314   3.706
 1709SOL    HW1 1252   2.018   1.241   3.685
 1709SOL    HW2 1253   2.087   1.328   3.804
 1710SOL     OW 1254   1.941   1.240   2.515
 1710SOL    HW1 1255   1.940   1.193   2.603
 1710SOL    HW2 1256   2.023   1.212   2.464
 1711SOL     OW 1257   2.534   1.391   3.486
 1711SOL    HW1 1258   2.456   1.341   3.524
 1711SOL    HW2 1259   2.531   1.486   3.517
 1714SOL     OW 1260   3.567   1.487   2.966
 1714SOL    HW1 1261   3.474   1.462   2.939
 1714SOL    HW2 1262   3.593   1.437   3.048
 1716SOL     OW 1263   2.674   1.586   2.549
 1716SOL    HW1 1264   2.706   1.596   2.455
 1716SOL    HW2 1265   2.595   1.524   2.551
 1719SOL     OW 1266   2.632   1.330   2.163
 1719SOL    HW1 1267   2.586   1.243   2.180
 1719SOL    HW2 1268   2.723   1.327   2.204
 1720SOL     OW 1269   2.480   1.567   3.146
 1720SOL    HW1 1270   2.475   1.649   3.203
 1720SOL    HW2 1271   2.569   1.564   3.101
 1724SOL     OW 1272   1.901   1.077   2.162
 1724SOL    HW1 1273   2.000   1.066   2.153
 1724SOL    HW2 1274   1.861   0.991   2.194
 1725SOL     OW 1275   2.737   1.646   2.199
 1725SOL    HW1 1276   2.660   1.611   2.145
 1725SOL    HW2 1277   2.705   1.717   2.261
 1740SOL     OW 1278   1.889   1.596   3.841
 1740SOL    HW1 1279   1.870   1.500   3.862
 1740SOL    HW2 1280   1.856   1.654   3.916
 1799SOL     OW 1281   2.534   1.616   3.878
 1799SOL    HW1 1282   2.543   1.626   3.779
 1799SOL    HW2 1283   2.494   1.527   3.899
 1802SOL     OW 1284   3.056   1.612   3.755
 1802SOL    HW1 1285   3.062   1.519   3.792
 1802SOL    HW2 1286   2.997   1.612   3.675
 1813SOL     OW 1287   2.721   1.374   3.740
 1813SOL    HW1 1288   2.675   1.389   3.828
 1813SOL    HW2 1289   2.765   1.459   3.710
 1826SOL     OW 1290   2.087   2.137   0.996
 1826SOL    HW1 1291   2.122   2.120   1.088
 1826SOL    HW2 1292   1.999   2.092   0.984
 1827SOL     OW 1293   1.881   2.230   0.647
 1827SOL    HW1 1294   1.799   2.273   0.686
 1827SOL    HW2 1295   1.853   2.157   0.584
 1828SOL     OW 1296   2.431   3.137   1.165
 1828SOL    HW1 1297   2.338   3.130   1.128
 1828SOL    HW2 1298   2.442   3.226   1.209
 1830SOL     OW 1299   2.997   2.565   0.717
 1830SOL    HW1 1300   3.054   2.643   0.692
 1830SOL    HW2 1301   2.937   2.591   0.793
 1832SOL     OW 1302   2.630   3.006   1.023
 1832SOL    HW1 1303   2.552   3.023   1.083
 1832SOL    HW2 1304   2.664   3.093   0.987
 1833SOL     OW 1305   2.712   2.660   1.823
 1833SOL    HW1 1306   2.708   2.736   1.888
 1833SOL    HW2 1307   2.734   2.696   1.732
 1834SOL     OW 1308   2.547   2.874   0.665
 1834SOL    HW1 1309   2.616   2.858   0.735
 1834SOL    HW2 1310   2.474   2.931   0.703
 1835SOL     OW 1311   2.548   3.023   1.803
 1835SOL    HW1 1312   2.608   3.102   1.817
 1835SOL    HW2 1313   2.462   3.054   1.762
 1836SOL     OW 1314   2.197   3.297   1.061
 1836SOL    HW1 1315   2.119   3.266   1.008
 1836SOL    HW2 1316   2.255   3.355   1.004
 1837SOL     OW 1317   3.322   3.367   1.339
 1837SOL    HW1 1318   3.346   3.461   1.365
 1837SOL    HW2 1319   3.306   3.313   1.421
 1838SOL     OW 1320   2.300   2.254   1.499
 1838SOL    HW1 1321   2.382   2.198   1.508
 1838SOL    HW2 1322   2.219   2.196   1.503
 1841SOL     OW 1323   2.989   3.203   1.690
 1841SOL    HW1 1324   3.036   3.203   1.778
 1841SOL    HW2 1325   2.941   3.116   1.679
 1843SOL     OW 1326   2.102   2.953   0.886
 1843SOL    HW1 1327   2.116   2.869   0.938
 1843SOL    HW2 1328   2.047   3.017   0.941
 1844SOL     OW 1329   2.482   3.648   1.439
 1844SOL    HW1 1330   2.390   3.631   1.474
 1844SOL    HW2 1331   2.510   3.740   1.465
 1846SOL     OW 1332   3.456   1.976   1.480
 1846SOL    HW1 1333   3.438   2.043   1.408
 1846SOL    HW2 1334   3.453   2.022   1.569
 1847SOL     OW 1335   1.984   2.505   0.563
 1847SOL    HW1 1336   1.939   2.417   0.580
 1847SOL    HW2 1337   1.983   2.559   0.647
 1852SOL     OW 1338   1.975   2.599   1.597
 1852SOL    HW1 1339   2.063   2.586   1.642
 1852SOL    HW2 1340   1.962   2.696   1.575
 1854SOL     OW 1341   3.155   3.090   1.423
 1854SOL    HW1 1342   3.192   3.017   1.365
 1854SOL    HW2 1343   3.207   3.095   1.508
 1856SOL     OW 1344   2.059   2.838   1.264
 1856SOL    HW1 1345   2.148   2.793   1.250
 1856SOL    HW2 1346   1.986   2.773   1.245
 1858SOL     OW 1347   3.049   3.654   1.616
 1858SOL    HW1 1348   3.073   3.714   1.540
 1858SOL    HW2 1349   3.056   3.559   1.586
 1859SOL     OW 1350   2.179   2.113   1.801
 1859SOL    HW1 1351   2.250   2.184   1.807
 1859SOL    HW2 1352   2.091   2.152   1.829
 1863SOL     OW 1353   3.143   2.207   0.944
 1863SOL    HW1 1354   3.057   2.157   0.931
 1863SOL    HW2 1355   3.205   2.153   1.000
 1865SOL     OW 1356   2.669   2.467   1.465
 1865SOL    HW1 1357   2.622   2.464   1.554
 1865SOL    HW2 1358   2.618   2.412   1.399
 1866SOL     OW 1359   3.256   2.331   1.674
 1866SOL    HW1 1360   3.236   2.374   1.762
 1866SOL    HW2 1361   3.334   2.269   1.683
 1867SOL     OW 1362   2.835   2.752   1.572
 1867SOL    HW1 1363   2.881   2.668   1.543
 1867SOL    HW2 1364   2.779   2.786   1.497
 1868SOL     OW 1365   2.853   2.272   1.242
 1868SOL    HW1 1366   2.776   2.306   1.296
 1868SOL    HW2 1367   2.819   2.221   1.163
 1870SOL     OW 1368   1.938   2.673   0.789
 1870SOL    HW1 1369   2.037   2.661   0.798
 1870SOL    HW2 1370   1.914   2.768   0.810
 1871SOL     OW 1371   1.992   3.683   1.571
 1871SOL    HW1 1372   1.982   3.668   1.670
 1871SOL    HW2 1373   1.906   3.719   1.535
 1873SOL     OW 1374   3.581   2.447   1.831
 1873SOL    HW1 1375   3.555   2.536   1.795
 1873SOL    HW2 1376   3.579   2.379   1.758
 1875SOL     OW 1377   2.412   2.058   0.885
 1875SOL    HW1 1378   2.407   2.053   0.985
 1875SOL    HW2 1379   2.414   2.154   0.856
 1879SOL     OW 1380   3.089   3.412   1.506
 1879SOL    HW1 1381   3.095   3.335   1.570
 1879SOL    HW2 1382   3.037   3.386   1.426
 1882SOL     OW 1383   2.323   3.128   1.727
 1882SOL    HW1 1384   2.273   3.129   1.641
 1882SOL    HW2 1385   2.260   3.110   1.803
 1884SOL     OW 1386   2.064   2.147   1.498
 1884SOL    HW1 1387   1.984   2.207   1.485
 1884SOL    HW2 1388   2.054   2.098   1.584
 1888SOL     OW 1389   2.111   3.647   1.241
 1888SOL    HW1 1390   2.168   3.582   1.291
 1888SOL    HW2 1391   2.095   3.614   1.148
 1891SOL     OW 1392   3.409   2.084   1.729
 1891SOL    HW1 1393   3.404   2.121   1.821
 1891SOL    HW2 1394   3.337   2.015   1.717
 1892SOL     OW 1395   2.643   2.126   1.749
 1892SOL    HW1 1396   2.710   2.065   1.792
 1892SOL    HW2 1397   2.570   2.145   1.814
 1893SOL     OW 1398   2.750   3.376   1.195
 1893SOL    HW1 1399   2.727   3.351   1.101
 1893SOL    HW2 1400   2.811   3.307   1.234
 1894SOL     OW 1401   3.213   2.452   1.433
 1894SOL    HW1 1402   3.241   2.409   1.518
 1894SOL    HW2 1403   3.238   2.548   1.434
 1895SOL     OW 1404   2.665   3.264   0.924
 1895SOL    HW1 1405   2.755   3.278   0.882
 1895SOL    HW2 1406   2.594   3.266   0.853
 1896SOL     OW 1407   2.784   2.365   0.899
 1896SOL    HW1 1408   2.759   2.356   0.803
 1896SOL    HW2 1409   2.832   2.283   0.930
 1901SOL     OW 1410   2.938   2.545   1.464
 1901SOL    HW1 1411   2.858   2.484   1.467
 1901SOL    HW2 1412   3.019   2.492   1.440
 1903SOL     OW 1413   2.321   3.014   0.741
 1903SOL    HW1 1414   2.250   2.987   0.806
 1903SOL    HW2 1415   2.295   2.986   0.648
 1906SOL     OW 1416   1.940   2.418   1.386
 1906SOL    HW1 1417   2.032   2.417   1.345
 1906SOL    HW2 1418   1.934   2.492   1.453
 1907SOL     OW 1419   2.423   2.084   1.147
 1907SOL    HW1 1420   2.461   2.000   1.184
 1907SOL    HW2 1421   2.335   2.103   1.191
 1908SOL     OW 1422   2.728   2.316   0.642
 1908SOL    HW1 1423   2.696   2.388   0.580
 1908SOL    HW2 1424   2.752   2.235   0.589
 1909SOL     OW 1425   2.879   1.901   0.753
 1909SOL    HW1 1426   2.807   1.906   0.684
 1909SOL    HW2 1427   2.855   1.832   0.822
 1911SOL     OW 1428   3.328   2.452   0.992
 1911SOL    HW1 1429   3.298   2.357   0.999
 1911SOL    HW2 1430   3.401   2.468   1.058
 1917SOL     OW 1431   3.616   3.085   1.588
 1917SOL    HW1 1432   3.707   3.046   1.575
 1917SOL    HW2 1433   3.624   3.181   1.612
 1918SOL     OW 1434   2.926   3.209   1.340
 1918SOL    HW1 1435   2.846   3.186   1.395
 1918SOL    HW2 1436   3.009   3.183   1.389
 1919SOL     OW 1437   3.454   3.491   1.625
 1919SOL    HW1 1438   3.481   3.525   1.535
 1919SOL    HW2 1439   3.533   3.453   1.671
 1920SOL     OW 1440   2.973   3.057   1.100
 1920SOL    HW1 1441   2.933   3.101   1.181
 1920SOL    HW2 1442   2.932   3.094   1.017
 1922SOL     OW 1443   2.777   1.951   1.402
 1922SOL    HW1 1444   2.802   1.931   1.307
 1922SOL    HW2 1445   2.849   2.007   1.444
 1923SOL     OW 1446   2.842   2.978   1.719
 1923SOL    HW1 1447   2.743   2.984   1.729
 1923SOL    HW2 1448   2.865   2.898   1.663
 1925SOL     OW 1449   2.272   2.675   1.251
 1925SOL    HW1 1450   2.358   2.687   1.301
 1925SOL    HW2 1451   2.230   2.588   1.278
 1926SOL     OW 1452   3.136   2.248   1.262
 1926SOL    HW1 1453   3.157   2.322   1.326
 1926SOL    HW2 1454   3.047   2.265   1.219
 1927SOL     OW 1455   1.926   3.426   1.331
 1927SOL    HW1 1456   1.880   3.508   1.297
 1927SOL    HW2 1457   2.024   3.445   1.340
 1929SOL     OW 1458   2.428   2.399   0.865
 1929SOL    HW1 1459   2.440   2.465   0.791
 1929SOL    HW2 1460   2.474   2.433   0.948
 1931SOL     OW 1461   3.134   3.307   1.142
 1931SOL    HW1 1462   3.181   3.320   1.229
 1931SOL    HW2 1463   3.068   3.233   1.151
 1933SOL     OW 1464   2.216   3.372   1.329
 1933SOL    HW1 1465   2.195   3.328   1.242
 1933SOL    HW2 1466   2.313   3.398   1.332
 1934SOL     OW 1467   2.264   2.613   1.598
 1934SOL    HW1 1468   2.332   2.668   1.551
 1934SOL    HW2 1469   2.304   2.525   1.625
 1935SOL     OW 1470   3.449   2.641   1.670
 1935SOL    HW1 1471   3.357   2.679   1.665
 1935SOL    HW2 1472   3.509   2.688   1.605
 1936SOL     OW 1473   2.875   1.967   1.770
 1936SOL    HW1 1474   2.881   2.052   1.718
 1936SOL    HW2 1475   2.907   1.891   1.713
 1937SOL     OW 1476   2.366   1.912   1.740
 1937SOL    HW1 1477   2.324   1.855   1.670
 1937SOL    HW2 1478   2.300   1.981   1.772
 1938SOL     OW 1479   2.435   2.732   1.029
 1938SOL    HW1 1480   2.479   2.821   1.020
 1938SOL    HW2 1481   2.372   2.732   1.106
 1939SOL     OW 1482   3.222   2.724   1.045
 1939SOL    HW1 1483   3.147   2.724   0.979
 1939SOL    HW2 1484   3.259   2.632   1.054
 1941SOL     OW 1485   2.169   2.075   1.231
 1941SOL    HW1 1486   2.146   2.112   1.321
 1941SOL    HW2 1487   2.139   1.980   1.225
 1942SOL     OW 1488   1.899   3.172   1.282
 1942SOL    HW1 1489   1.952   3.123   1.350
 1942SOL    HW2 1490   1.921   3.270   1.287
 1943SOL     OW 1491   2.594   2.496   1.064
 1943SOL    HW1 1492   2.653   2.470   0.988
 1943SOL    HW2 1493   2.566   2.592   1.053
 1944SOL     OW 1494   3.590   2.797   1.854
 1944SOL    HW1 1495   3.544   2.790   1.765
 1944SOL    HW2 1496   3.528   2.841   1.920
 1945SOL     OW 1497   2.169   1.925   0.618
 1945SOL    HW1 1498   2.158   2.019   0.651
 1945SOL    HW2 1499   2.164   1.862   0.695
 1947SOL     OW 1500   2.885   2.628   0.966
 1947SOL    HW1 1501   2.900   2.649   1.062
 1947SOL    HW2 1502   2.855   2.533   0.957
 1948SOL     OW 1503   2.842   3.435   1.700
 1948SOL    HW1 1504   2.822   3.479   1.612
 1948SOL    HW2 1505   2.881   3.344   1.684
 1950SOL     OW 1506   2.212   2.760   1.804
 1950SOL    HW1 1507   2.288   2.804   1.852
 1950SOL    HW2 1508   2.247   2.713   1.722
 1954SOL     OW 1509   2.181   2.672   0.949
 1954SOL    HW1 1510   2.274   2.708   0.954
 1954SOL    HW2 1511   2.175   2.587   1.001
 1955SOL     OW 1512   2.201   2.371   1.006
 1955SOL    HW1 1513   2.149   2.288   0.989
 1955SOL    HW2 1514   2.278   2.376   0.942
 1956SOL     OW 1515   3.000   2.242   1.678
 1956SOL    HW1 1516   2.955   2.305   1.742
 1956SOL    HW2 1517   3.093   2.273   1.661
 1957SOL     OW 1518   3.022   2.069   1.477
 1957SOL    HW1 1519   3.022   2.133   1.554
 1957SOL    HW2 1520   3.050   2.117   1.394
 1960SOL     OW 1521   2.366   3.430   0.910
 1960SOL    HW1 1522   2.432   3.504   0.919
 1960SOL    HW2 1523   2.410   3.351   0.868
 1961SOL     OW 1524   2.864   2.658   1.238
 1961SOL    HW1 1525   2.905   2.626   1.324
 1961SOL    HW2 1526   2.768   2.631   1.235
 1962SOL     OW 1527   1.902   2.406   1.114
 1962SOL    HW1 1528   1.987   2.373   1.073
 1962SOL    HW2 1529   1.915   2.421   1.212
 1963SOL     OW 1530   2.051   2.382   1.722
 1963SOL    HW1 1531   2.110   2.342   1.652
 1963SOL    HW2 1532   1.993   2.453   1.681
 1964SOL     OW 1533   3.231   2.812   1.660
 1964SOL    HW1 1534   3.270   2.901   1.680
 1964SOL    HW2 1535   3.241   2.792   1.563
 1966SOL     OW 1536   3.519   2.466   1.206
 1966SOL    HW1 1537   3.481   2.397   1.268
 1966SOL    HW2 1538   3.601   2.430   1.162
 1967SOL     OW 1539   2.114   3.426   1.744
 1967SOL    HW1 1540   2.084   3.483   1.820
 1967SOL    HW2 1541   2.107   3.329   1.770
 1968SOL     OW 1542   2.533   2.326   1.269
 1968SOL    HW1 1543   2.499   2.237   1.239
 1968SOL    HW2 1544   2.559   2.380   1.189
 1969SOL     OW 1545   2.792   3.540   1.465
 1969SOL    HW1 1546   2.768   3.522   1.370
 1969SOL    HW2 1547   2.822   3.634   1.475
 1971SOL     OW 1548   2.021   2.999   1.466
 1971SOL    HW1 1549   2.043   2.938   1.542
 1971SOL    HW2 1550   2.031   2.950   1.380
 1972SOL     OW 1551   3.209   2.921   1.234
 1972SOL    HW1 1552   3.233   2.858   1.160
 1972SOL    HW2 1553   3.119   2.961   1.216
 1976SOL     OW 1554   1.945   3.120   1.022
 1976SOL    HW1 1555   1.940   3.119   1.122
 1976SOL    HW2 1556   1.862   3.079   0.984
 1977SOL     OW 1557   2.550   3.524   1.716
 1977SOL    HW1 1558   2.494   3.605   1.725
 1977SOL    HW2 1559   2.602   3.528   1.630
 1981SOL     OW 1560   1.992   3.656   1.851
 1981SOL    HW1 1561   1.951   3.582   1.904
 1981SOL    HW2 1562   2.056   3.707   1.909
 1983SOL     OW 1563   2.692   3.135   1.422
 1983SOL    HW1 1564   2.687   3.168   1.517
 1983SOL    HW2 1565   2.606   3.154   1.376
 1987SOL     OW 1566   2.125   2.188   0.720
 1987SOL    HW1 1567   2.046   2.239   0.686
 1987SOL    HW2 1568   2.116   2.173   0.818
 1989SOL     OW 1569   2.684   2.864   1.372
 1989SOL    HW1 1570   2.724   2.863   1.280
 1989SOL    HW2 1571   2.694   2.956   1.412
 1992SOL     OW 1572   2.234   3.150   1.490
 1992SOL    HW1 1573   2.221   3.243   1.456
 1992SOL    HW2 1574   2.150   3.098   1.477
 1993SOL     OW 1575   3.476   3.154   1.289
 1993SOL    HW1 1576   3.536   3.157   1.369
 1993SOL    HW2 1577   3.401   3.218   1.302
 1995SOL     OW 1578   2.876   2.098   0.971
 1995SOL    HW1 1579   2.868   2.062   0.878
 1995SOL    HW2 1580   2.874   2.022   1.036
 1997SOL     OW 1581   3.571   2.247   1.381
 1997SOL    HW1 1582   3.644   2.316   1.385
 1997SOL    HW2 1583   3.599   2.172   1.322
 1999SOL     OW 1584   1.967   2.875   1.726
 1999SOL    HW1 1585   1.890   2.842   1.780
 1999SOL    HW2 1586   2.052   2.845   1.768
 2000SOL     OW 1587   2.534   2.065   1.489
 2000SOL    HW1 1588   2.624   2.049   1.449
 2000SOL    HW2 1589   2.542   2.070   1.588
 2002SOL     OW 1590   3.302   2.718   1.398
 2002SOL    HW1 1591   3.245   2.770   1.335
 2002SOL    HW2 1592   3.398   2.730   1.374
 2005SOL     OW 1593   2.475   2.704   1.431
 2005SOL    HW1 1594   2.531   2.785   1.414
 2005SOL    HW2 1595   2.534   2.624   1.434
 2007SOL     OW 1596   2.578   2.427   1.708
 2007SOL    HW1 1597   2.597   2.492   1.782
 2007SOL    HW2 1598   2.638   2.347   1.717
 2008SOL     OW 1599   3.312   3.082   1.633
 2008SOL    HW1 1600   3.303   3.072   1.732
 2008SOL    HW2 1601   3.408   3.075   1.607
 2009SOL     OW 1602   2.252   3.603   1.560
 2009SOL    HW1 1603   2.161   3.644   1.558
 2009SOL    HW2 1604   2.245   3.509   1.592
 2010SOL     OW 1605   3.536   2.745   1.254
 2010SOL    HW1 1606   3.509   2.656   1.217
 2010SOL    HW2 1607   3.537   2.813   1.181
 2012SOL     OW 1608   2.456   2.607   0.652
 2012SOL    HW1 1609   2.506   2.692   0.633
 2012SOL    HW2 1610   2.368   2.609   0.604
 2013SOL     OW 1611   3.639   2.204   1.642
 2013SOL    HW1 1612   3.622   2.235   1.548
 2013SOL    HW2 1613   3.555   2.167   1.680
 2014SOL     OW 1614   3.592   2.796   1.517
 2014SOL    HW1 1615   3.630   2.887   1.532
 2014SOL    HW2 1616   3.584   2.779   1.418
 2017SOL     OW 1617   2.721   2.818   0.861
 2017SOL    HW1 1618   2.775   2.749   0.909
 2017SOL    HW2 1619   2.689   2.887   0.927
 2020SOL     OW 1620   2.083   3.176   1.844
 2020SOL    HW1 1621   2.018   3.103   1.823
 2020SOL    HW2 1622   2.087   3.190   1.942
 2022SOL     OW 1623   2.534   3.253   1.624
 2022SOL    HW1 1624   2.456   3.203   1.662
 2022SOL    HW2 1625   2.531   3.348   1.655
 2023SOL     OW 1626   3.686   2.054   1.227
 2023SOL    HW1 1627   3.682   1.964   1.271
 2023SOL    HW2 1628   3.689   2.043   1.128
 2024SOL     OW 1629   2.290   2.286   0.520
 2024SOL    HW1 1630   2.320   2.214   0.458
 2024SOL    HW2 1631   2.251   2.246   0.603
 2026SOL     OW 1632   2.179   2.409   1.280
 2026SOL    HW1 1633   2.217   2.350   1.352
 2026SOL    HW2 1634   2.219   2.383   1.192
 2028SOL     OW 1635   3.286   2.076   1.112
 2028SOL    HW1 1636   3.338   2.011   1.167
 2028SOL    HW2 1637   3.237   2.139   1.173
 2029SOL     OW 1638   2.863   1.896   1.154
 2029SOL    HW1 1639   2.800   1.824   1.123
 2029SOL    HW2 1640   2.956   1.860   1.154
 2031SOL     OW 1641   2.480   3.429   1.284
 2031SOL    HW1 1642   2.475   3.511   1.341
 2031SOL    HW2 1643   2.569   3.426   1.239
 2037SOL     OW 1644   2.092   2.490   1.975
 2037SOL    HW1 1645   1.999   2.488   2.012
 2037SOL    HW2 1646   2.093   2.451   1.883
 2038SOL     OW 1647   2.087   2.137   2.858
 2038SOL    HW1 1648   2.122   2.120   2.950
 2038SOL    HW2 1649   1.999   2.092   2.846
 2039SOL     OW 1650   1.881   2.230   2.509
 2039SOL    HW1 1651   1.799   2.273   2.548
 2039SOL    HW2 1652   1.853   2.157   2.446
 2040SOL     OW 1653   2.431   3.137   3.027
 2040SOL    HW1 1654   2.338   3.130   2.990
 2040SOL    HW2 1655   2.442   3.226   3.071
 2041SOL     OW 1656   3.417   3.373   2.565
 2041SOL    HW1 1657   3.360   3.357   2.646
 2041SOL    HW2 1658   3.358   3.383   2.485
 2042SOL     OW 1659   2.997   2.565   2.579
 2042SOL    HW1 1660   3.054   2.643   2.554
 2042SOL    HW2 1661   2.937   2.591   2.655
 2043SOL     OW 1662   3.617   2.469   2.093
 2043SOL    HW1 1663   3.605   2.456   1.994
 2043SOL    HW2 1664   3.587   2.388   2.142
 2044SOL     OW 1665   2.630   3.006   2.885
 2044SOL    HW1 1666   2.552   3.023   2.945
 2044SOL    HW2 1667   2.664   3.093   2.849
 2045SOL     OW 1668   2.712   2.660   3.685
 2045SOL    HW1 1669   2.708   2.736   3.750
 2045SOL    HW2 1670   2.734   2.696   3.594
 2046SOL     OW 1671   2.547   2.874   2.527
 2046SOL    HW1 1672   2.616   2.858   2.597
 2046SOL    HW2 1673   2.474   2.931   2.565
 2047SOL     OW 1674   2.548   3.023   3.665
 2047SOL    HW1 1675   2.608   3.102   3.679
 2047SOL    HW2 1676   2.462   3.054   3.624
 2048SOL     OW 1677   2.197   3.297   2.923
 2048SOL    HW1 1678   2.119   3.266   2.870
 2048SOL    HW2 1679   2.255   3.355   2.866
 2049SOL     OW 1680   3.322   3.367   3.201
 2049SOL    HW1 1681   3.346   3.461   3.227
 2049SOL    HW2 1682   3.306   3.313   3.283
 2050SOL     OW 1683   2.300   2.254   3.361
 2050SOL    HW1 1684   2.382   2.198   3.370
 2050SOL    HW2 1685   2.219   2.196   3.365
 2051SOL     OW 1686   3.465   2.309   2.599
 2051SOL    HW1 1687   3.391   2.355   2.549
 2051SOL    HW2 1688   3.516   2.377   2.652
 2052SOL     OW 1689   2.093   3.575   2.345
 2052SOL    HW1 1690   2.127   3.652   2.399
 2052SOL    HW2 1691   2.137   3.575   2.255
 2053SOL     OW 1692   2.989   3.203   3.552
 2053SOL    HW1 1693   3.036   3.203   3.640
 2053SOL    HW2 1694   2.941   3.116   3.541
 2054SOL     OW 1695   2.092   3.296   2.400
 2054SOL    HW1 1696   2.066   3.392   2.400
 2054SOL    HW2 1697   2.021   3.242   2.445
 2055SOL     OW 1698   2.102   2.953   2.748
 2055SOL    HW1 1699   2.116   2.869   2.800
 2055SOL    HW2 1700   2.047   3.017   2.803
 2056SOL     OW 1701   2.482   3.648   3.301
 2056SOL    HW1 1702   2.390   3.631   3.336
 2056SOL    HW2 1703   2.510   3.740   3.327
 2057SOL     OW 1704   2.468   2.826   1.985
 2057SOL    HW1 1705   2.475   2.910   1.931
 2057SOL    HW2 1706   2.514   2.839   2.073
 2058SOL     OW 1707   3.456   1.976   3.342
 2058SOL    HW1 1708   3.438   2.043   3.270
 2058SOL    HW2 1709   3.453   2.022   3.431
 2059SOL     OW 1710   1.984   2.505   2.425
 2059SOL    HW1 1711   1.939   2.417   2.442
 2059SOL    HW2 1712   1.983   2.559   2.509
 2061SOL     OW 1713   1.889   3.458   1.979
 2061SOL    HW1 1714   1.870   3.362   2.000
 2061SOL    HW2 1715   1.856   3.516   2.054
 2062SOL     OW 1716   3.551   2.784   2.474
 2062SOL    HW1 1717   3.646   2.755   2.482
 2062SOL    HW2 1718   3.543   2.849   2.399
 2063SOL     OW 1719   3.503   2.970   2.294
 2063SOL    HW1 1720   3.589   2.972   2.242
 2063SOL    HW2 1721   3.517   3.017   2.382
 2064SOL     OW 1722   1.975   2.599   3.459
 2064SOL    HW1 1723   2.063   2.586   3.504
 2064SOL    HW2 1724   1.962   2.696   3.437
 2065SOL     OW 1725   2.475   3.227   2.588
 2065SOL    HW1 1726   2.426   3.140   2.597
 2065SOL    HW2 1727   2.452   3.270   2.501
 2066SOL     OW 1728   3.155   3.090   3.285
 2066SOL    HW1 1729   3.192   3.017   3.227
 2066SOL    HW2 1730   3.207   3.095   3.370
 2067SOL     OW 1731   2.671   1.866   2.364
 2067SOL    HW1 1732   2.711   1.957   2.355
 2067SOL    HW2 1733   2.571   1.874   2.370
 2068SOL     OW 1734   2.059   2.838   3.126
 2068SOL    HW1 1735   2.148   2.793   3.112
 2068SOL    HW2 1736   1.986   2.773   3.107
 2069SOL     OW 1737   3.387   2.861   2.052
 2069SOL    HW1 1738   3.324   2.785   2.065
 2069SOL    HW2 1739   3.435   2.879   2.138
 2071SOL     OW 1740   2.179   2.113   3.663
 2071SOL    HW1 1741   2.250   2.184   3.669
 2071SOL    HW2 1742   2.091   2.152   3.691
 2072SOL     OW 1743   3.328   3.279   2.815
 2072SOL    HW1 1744   3.269   3.285   2.895
 2072SOL    HW2 1745   3.313   3.191   2.769
 2073SOL     OW 1746   3.529   3.576   2.434
 2073SOL    HW1 1747   3.488   3.553   2.346
 2073SOL    HW2 1748   3.511   3.502   2.499
 2074SOL     OW 1749   2.460   2.591   2.132
 2074SOL    HW1 1750   2.484   2.660   2.064
 2074SOL    HW2 1751   2.382   2.624   2.186
 2075SOL     OW 1752   3.143   2.207   2.806
 2075SOL    HW1 1753   3.057   2.157   2.793
 2075SOL    HW2 1754   3.205   2.153   2.862
 2076SOL     OW 1755   3.438   3.524   2.169
 2076SOL    HW1 1756   3.527   3.570   2.172
 2076SOL    HW2 1757   3.417   3.500   2.074
 2077SOL     OW 1758   2.669   2.467   3.327
 2077SOL    HW1 1759   2.622   2.464   3.416
 2077SOL    HW2 1760   2.618   2.412   3.261
 2078SOL     OW 1761   3.256   2.331   3.536
 2078SOL    HW1 1762   3.236   2.374   3.624
 2078SOL    HW2 1763   3.334   2.269   3.545
 2079SOL     OW 1764   2.835   2.752   3.434
 2079SOL    HW1 1765   2.881   2.668   3.405
 2079SOL    HW2 1766   2.779   2.786   3.359
 2080SOL     OW 1767   2.853   2.272   3.104
 2080SOL    HW1 1768   2.776   2.306   3.158
 2080SOL    HW2 1769   2.819   2.221   3.025
 2081SOL     OW 1770   2.903   2.563   2.291
 2081SOL    HW1 1771   2.929   2.559   2.387
 2081SOL    HW2 1772   2.818   2.512   2.277
 2082SOL     OW 1773   1.938   2.673   2.651
 2082SOL    HW1 1774   2.037   2.661   2.660
 2082SOL    HW2 1775   1.914   2.768   2.672
 2084SOL     OW 1776   2.727   2.210   2.057
 2084SOL    HW1 1777   2.786   2.273   2.008
 2084SOL    HW2 1778   2.746   2.116   2.028
 2086SOL     OW 1779   3.224   3.006   2.407
 2086SOL    HW1 1780   3.307   2.977   2.359
 2086SOL    HW2 1781   3.175   3.073   2.351
 2087SOL     OW 1782   2.412   2.058   2.747
 2087SOL    HW1 1783   2.407   2.053   2.847
 2087SOL    HW2 1784   2.414   2.154   2.718
 2088SOL     OW 1785   2.870   3.318   2.339
 2088SOL    HW1 1786   2.824   3.390   2.287
 2088SOL    HW2 1787   2.866   3.338   2.437
 2089SOL     OW 1788   2.213   3.663   2.715
 2089SOL    HW1 1789   2.263   3.577   2.721
 2089SOL    HW2 1790   2.278   3.740   2.712
 2090SOL     OW 1791   3.657   2.928   2.735
 2090SOL    HW1 1792   3.595   2.913   2.659
 2090SOL    HW2 1793   3.605   2.939   2.820
 2091SOL     OW 1794   3.089   3.412   3.368
 2091SOL    HW1 1795   3.095   3.335   3.432
 2091SOL    HW2 1796   3.037   3.386   3.288
 2092SOL     OW 1797   2.183   2.805   2.104
 2092SOL    HW1 1798   2.265   2.844   2.062
 2092SOL    HW2 1799   2.156   2.723   2.055
 2093SOL     OW 1800   3.320   2.597   2.590
 2093SOL    HW1 1801   3.315   2.532   2.665
 2093SOL    HW2 1802   3.400   2.656   2.603
 2094SOL     OW 1803   2.323   3.128   3.589
 2094SOL    HW1 1804   2.273   3.129   3.503
 2094SOL    HW2 1805   2.260   3.110   3.665
 2095SOL     OW 1806   2.973   3.638   2.099
 2095SOL    HW1 1807   2.913   3.576   2.149
 2095SOL    HW2 1808   3.004   3.594   2.014
 2096SOL     OW 1809   2.064   2.147   3.360
 2096SOL    HW1 1810   1.984   2.207   3.347
 2096SOL    HW2 1811   2.054   2.098   3.446
 2097SOL     OW 1812   3.494   3.239   1.943
 2097SOL    HW1 1813   3.462   3.333   1.933
 2097SOL    HW2 1814   3.418   3.176   1.931
 2098SOL     OW 1815   2.326   3.605   2.185
 2098SOL    HW1 1816   2.359   3.644   2.271
 2098SOL    HW2 1817   2.402   3.598   2.120
 2099SOL     OW 1818   3.262   1.969   2.288
 2099SOL    HW1 1819   3.238   1.932   2.198
 2099SOL    HW2 1820   3.361   1.985   2.292
 2100SOL     OW 1821   2.111   3.647   3.103
 2100SOL    HW1 1822   2.168   3.582   3.153
 2100SOL    HW2 1823   2.095   3.614   3.010
 2101SOL     OW 1824   2.802   3.560   2.766
 2101SOL    HW1 1825   2.882   3.503   2.787
 2101SOL    HW2 1826   2.753   3.520   2.689
 2102SOL     OW 1827   3.409   2.084   3.591
 2102SOL    HW1 1828   3.404   2.121   3.683
 2102SOL    HW2 1829   3.337   2.015   3.579
 2103SOL     OW 1830   2.476   1.984   1.979
 2103SOL    HW1 1831   2.574   1.962   1.986
 2103SOL    HW2 1832   2.445   1.967   1.886
 2104SOL     OW 1833   2.643   2.126   3.611
 2104SOL    HW1 1834   2.710   2.065   3.654
 2104SOL    HW2 1835   2.570   2.145   3.676
 2105SOL     OW 1836   2.750   3.376   3.057
 2105SOL    HW1 1837   2.727   3.351   2.963
 2105SOL    HW2 1838   2.811   3.307   3.096
 2106SOL     OW 1839   3.213   2.452   3.295
 2106SOL    HW1 1840   3.241   2.409   3.380
 2106SOL    HW2 1841   3.238   2.548   3.296
 2107SOL     OW 1842   2.665   3.264   2.786
 2107SOL    HW1 1843   2.755   3.278   2.744
 2107SOL    HW2 1844   2.594   3.266   2.715
 2108SOL     OW 1845   2.784   2.365   2.761
 2108SOL    HW1 1846   2.759   2.356   2.665
 2108SOL    HW2 1847   2.832   2.283   2.792
 2109SOL     OW 1848   2.401   1.926   2.374
 2109SOL    HW1 1849   2.320   1.927   2.432
 2109SOL    HW2 1850   2.404   2.009   2.319
 2110SOL     OW 1851   3.296   3.050   1.903
 2110SOL    HW1 1852   3.328   2.974   1.960
 2110SOL    HW2 1853   3.204   3.077   1.933
 2111SOL     OW 1854   2.159   1.897   2.033
 2111SOL    HW1 1855   2.208   1.981   2.012
 2111SOL    HW2 1856   2.221   1.832   2.078
 2112SOL     OW 1857   2.797   2.098   2.342
 2112SOL    HW1 1858   2.749   2.139   2.264
 2112SOL    HW2 1859   2.896   2.096   2.323
 2113SOL     OW 1860   2.938   2.545   3.326
 2113SOL    HW1 1861   2.858   2.484   3.329
 2113SOL    HW2 1862   3.019   2.492   3.302
 2114SOL     OW 1863   3.089   3.432   2.655
 2114SOL    HW1 1864   3.110   3.506   2.590
 2114SOL    HW2 1865   3.157   3.432   2.728
 2115SOL     OW 1866   2.321   3.014   2.603
 2115SOL    HW1 1867   2.250   2.987   2.668
 2115SOL    HW2 1868   2.295   2.986   2.510
 2116SOL     OW 1869   3.133   3.659   2.453
 2116SOL    HW1 1870   3.177   3.723   2.389
 2116SOL    HW2 1871   3.083   3.711   2.523
 2117SOL     OW 1872   2.894   2.411   1.878
 2117SOL    HW1 1873   2.853   2.493   1.839
 2117SOL    HW2 1874   2.958   2.437   1.951
 2118SOL     OW 1875   1.940   2.418   3.248
 2118SOL    HW1 1876   2.032   2.417   3.207
 2118SOL    HW2 1877   1.934   2.492   3.315
 2119SOL     OW 1878   2.423   2.084   3.009
 2119SOL    HW1 1879   2.461   2.000   3.046
 2119SOL    HW2 1880   2.335   2.103   3.053
 2120SOL     OW 1881   2.728   2.316   2.504
 2120SOL    HW1 1882   2.696   2.388   2.442
 2120SOL    HW2 1883   2.752   2.235   2.451
 2121SOL     OW 1884   2.879   1.901   2.615
 2121SOL    HW1 1885   2.807   1.906   2.546
 2121SOL    HW2 1886   2.855   1.832   2.684
 2122SOL     OW 1887   3.291   3.035   2.729
 2122SOL    HW1 1888   3.236   2.951   2.722
 2122SOL    HW2 1889   3.317   3.064   2.637
 2123SOL     OW 1890   3.328   2.452   2.854
 2123SOL    HW1 1891   3.298   2.357   2.861
 2123SOL    HW2 1892   3.401   2.468   2.920
 2124SOL     OW 1893   3.719   2.695   2.239
 2124SOL    HW1 1894   3.761   2.631   2.303
 2124SOL    HW2 1895   3.681   2.644   2.161
 2125SOL     OW 1896   2.350   3.247   2.036
 2125SOL    HW1 1897   2.263   3.232   2.083
 2125SOL    HW2 1898   2.333   3.273   1.941
 2126SOL     OW 1899   3.526   3.142   2.519
 2126SOL    HW1 1900   3.625   3.150   2.533
 2126SOL    HW2 1901   3.481   3.226   2.550
 2127SOL     OW 1902   3.252   2.437   1.940
 2127SOL    HW1 1903   3.198   2.416   2.021
 2127SOL    HW2 1904   3.343   2.396   1.949
 2129SOL     OW 1905   2.926   3.209   3.202
 2129SOL    HW1 1906   2.846   3.186   3.257
 2129SOL    HW2 1907   3.009   3.183   3.251
 2131SOL     OW 1908   2.973   3.057   2.962
 2131SOL    HW1 1909   2.933   3.101   3.043
 2131SOL    HW2 1910   2.932   3.094   2.879
 2132SOL     OW 1911   3.500   2.961   2.941
 2132SOL    HW1 1912   3.505   3.042   3.000
 2132SOL    HW2 1913   3.414   2.963   2.890
 2133SOL     OW 1914   2.777   1.951   3.264
 2133SOL    HW1 1915   2.802   1.931   3.169
 2133SOL    HW2 1916   2.849   2.007   3.306
 2134SOL     OW 1917   2.842   2.978   3.581
 2134SOL    HW1 1918   2.743   2.984   3.591
 2134SOL    HW2 1919   2.865   2.898   3.525
 2135SOL     OW 1920   2.567   2.912   2.230
 2135SOL    HW1 1921   2.553   2.919   2.329
 2135SOL    HW2 1922   2.651   2.861   2.212
 2136SOL     OW 1923   2.272   2.675   3.113
 2136SOL    HW1 1924   2.358   2.687   3.163
 2136SOL    HW2 1925   2.230   2.588   3.140
 2137SOL     OW 1926   3.136   2.248   3.124
 2137SOL    HW1 1927   3.157   2.322   3.188
 2137SOL    HW2 1928   3.047   2.265   3.081
 2138SOL     OW 1929   1.926   3.426   3.193
 2138SOL    HW1 1930   1.880   3.508   3.159
 2138SOL    HW2 1931   2.024   3.445   3.202
 2139SOL     OW 1932   2.229   2.962   2.363
 2139SOL    HW1 1933   2.222   3.045   2.307
 2139SOL    HW2 1934   2.233   2.882   2.303
 2140SOL     OW 1935   2.428   2.399   2.727
 2140SOL    HW1 1936   2.440   2.465   2.653
 2140SOL    HW2 1937   2.474   2.433   2.810
 2141SOL     OW 1938   3.114   3.210   2.250
 2141SOL    HW1 1939   3.164   3.287   2.290
 2141SOL    HW2 1940   3.019   3.212   2.282
 2142SOL     OW 1941   3.134   3.307   3.004
 2142SOL    HW1 1942   3.181   3.320   3.091
 2142SOL    HW2 1943   3.068   3.233   3.013
 2143SOL     OW 1944   3.444   2.501   2.334
 2143SOL    HW1 1945   3.413   2.562   2.407
 2143SOL    HW2 1946   3.494   2.553   2.265
 2144SOL     OW 1947   2.216   3.372   3.191
 2144SOL    HW1 1948   2.195   3.328   3.104
 2144SOL    HW2 1949   2.313   3.398   3.194
 2145SOL     OW 1950   2.264   2.613   3.460
 2145SOL    HW1 1951   2.332   2.668   3.413
 2145SOL    HW2 1952   2.304   2.525   3.487
 2146SOL     OW 1953   3.449   2.641   3.532
 2146SOL    HW1 1954   3.357   2.679   3.527
 2146SOL    HW2 1955   3.509   2.688   3.467
 2147SOL     OW 1956   2.875   1.967   3.632
 2147SOL    HW1 1957   2.881   2.052   3.580
 2147SOL    HW2 1958   2.907   1.891   3.575
 2148SOL     OW 1959   2.366   1.912   3.602
 2148SOL    HW1 1960   2.324   1.855   3.532
 2148SOL    HW2 1961   2.300   1.981   3.634
 2149SOL     OW 1962   2.435   2.732   2.891
 2149SOL    HW1 1963   2.479   2.821   2.882
 2149SOL    HW2 1964   2.372   2.732   2.968
 2150SOL     OW 1965   3.222   2.724   2.907
 2150SOL    HW1 1966   3.147   2.724   2.841
 2150SOL    HW2 1967   3.259   2.632   2.916
 2151SOL     OW 1968   3.071   2.387   2.137
 2151SOL    HW1 1969   3.084   2.303   2.191
 2151SOL    HW2 1970   3.042   2.461   2.197
 2152SOL     OW 1971   2.169   2.075   3.093
 2152SOL    HW1 1972   2.146   2.112   3.183
 2152SOL    HW2 1973   2.139   1.980   3.087
 2153SOL     OW 1974   1.899   3.172   3.144
 2153SOL    HW1 1975   1.952   3.123   3.212
 2153SOL    HW2 1976   1.921   3.270   3.149
 2154SOL     OW 1977   2.594   2.496   2.926
 2154SOL    HW1 1978   2.653   2.470   2.850
 2154SOL    HW2 1979   2.566   2.592   2.915
 2156SOL     OW 1980   2.169   1.925   2.480
 2156SOL    HW1 1981   2.158   2.019   2.513
 2156SOL    HW2 1982   2.164   1.862   2.557
 2157SOL     OW 1983   3.484   2.229   2.236
 2157SOL    HW1 1984   3.486   2.153   2.300
 2157SOL    HW2 1985   3.436   2.306   2.276
 2158SOL     OW 1986   2.885   2.628   2.828
 2158SOL    HW1 1987   2.900   2.649   2.924
 2158SOL    HW2 1988   2.855   2.533   2.819
 2159SOL     OW 1989   2.842   3.435   3.562
 2159SOL    HW1 1990   2.822   3.479   3.474
 2159SOL    HW2 1991   2.881   3.344   3.546
 2161SOL     OW 1992   2.212   2.760   3.666
 2161SOL    HW1 1993   2.288   2.804   3.714
 2161SOL    HW2 1994   2.247   2.713   3.584
 2162SOL     OW 1995   3.402   2.136   1.987
 2162SOL    HW1 1996   3.341   2.061   2.010
 2162SOL    HW2 1997   3.424   2.188   2.070
 2163SOL     OW 1998   3.165   2.700   1.904
 2163SOL    HW1 1999   3.199   2.607   1.919
 2163SOL    HW2 2000   3.183   2.727   1.809
 2164SOL     OW 2001   2.930   3.195   2.711
 2164SOL    HW1 2002   2.937   3.111   2.656
 2164SOL    HW2 2003   2.992   3.264   2.675
 2165SOL     OW 2004   2.181   2.672   2.811
 2165SOL    HW1 2005   2.274   2.708   2.816
 2165SOL    HW2 2006   2.175   2.587   2.863
 2166SOL     OW 2007   2.201   2.371   2.868
 2166SOL    HW1 2008   2.149   2.288   2.851
 2166SOL    HW2 2009   2.278   2.376   2.804
 2167SOL     OW 2010   3.000   2.242   3.540
 2167SOL    HW1 2011   2.955   2.305   3.604
 2167SOL    HW2 2012   3.093   2.273   3.523
 2168SOL     OW 2013   3.022   2.069   3.339
 2168SOL    HW1 2014   3.022   2.133   3.416
 2168SOL    HW2 2015   3.050   2.117   3.256
 2169SOL     OW 2016   1.870   3.188   2.062
 2169SOL    HW1 2017   1.777   3.209   2.031
 2169SOL    HW2 2018   1.880   3.089   2.075
 2170SOL     OW 2019   1.950   3.663   2.789
 2170SOL    HW1 2020   1.908   3.577   2.762
 2170SOL    HW2 2021   2.044   3.666   2.755
 2171SOL     OW 2022   2.366   3.430   2.772
 2171SOL    HW1 2023   2.432   3.504   2.781
 2171SOL    HW2 2024   2.410   3.351   2.730
 2172SOL     OW 2025   2.864   2.658   3.100
 2172SOL    HW1 2026   2.905   2.626   3.186
 2172SOL    HW2 2027   2.768   2.631   3.097
 2173SOL     OW 2028   1.902   2.406   2.976
 2173SOL    HW1 2029   1.987   2.373   2.935
 2173SOL    HW2 2030   1.915   2.421   3.074
 2174SOL     OW 2031   2.051   2.382   3.584
 2174SOL    HW1 2032   2.110   2.342   3.514
 2174SOL    HW2 2033   1.993   2.453   3.543
 2175SOL     OW 2034   3.231   2.812   3.522
 2175SOL    HW1 2035   3.270   2.901   3.542
 2175SOL    HW2 2036   3.241   2.792   3.425
 2176SOL     OW 2037   2.677   2.434   2.187
 2176SOL    HW1 2038   2.684   2.345   2.141
 2176SOL    HW2 2039   2.583   2.468   2.179
 2177SOL     OW 2040   3.519   2.466   3.068
 2177SOL    HW1 2041   3.481   2.397   3.130
 2177SOL    HW2 2042   3.601   2.430   3.024
 2178SOL     OW 2043   2.114   3.426   3.606
 2178SOL    HW1 2044   2.084   3.483   3.682
 2178SOL    HW2 2045   2.107   3.329   3.632
 2179SOL     OW 2046   2.533   2.326   3.131
 2179SOL    HW1 2047   2.499   2.237   3.101
 2179SOL    HW2 2048   2.559   2.380   3.051
 2180SOL     OW 2049   2.792   3.540   3.327
 2180SOL    HW1 2050   2.768   3.522   3.232
 2180SOL    HW2 2051   2.822   3.634   3.337
 2181SOL     OW 2052   2.021   2.999   3.328
 2181SOL    HW1 2053   2.043   2.938   3.404
 2181SOL    HW2 2054   2.031   2.950   3.242
 2182SOL     OW 2055   3.209   2.921   3.096
 2182SOL    HW1 2056   3.233   2.858   3.022
 2182SOL    HW2 2057   3.119   2.961   3.078
 2183SOL     OW 2058   3.164   2.717   2.171
 2183SOL    HW1 2059   3.078   2.686   2.213
 2183SOL    HW2 2060   3.160   2.703   2.072
 2185SOL     OW 2061   3.114   3.593   2.990
 2185SOL    HW1 2062   3.198   3.598   2.936
 2185SOL    HW2 2063   3.091   3.497   3.008
 2186SOL     OW 2064   1.945   3.120   2.884
 2186SOL    HW1 2065   1.940   3.119   2.984
 2186SOL    HW2 2066   1.862   3.079   2.846
 2187SOL     OW 2067   2.550   3.524   3.578
 2187SOL    HW1 2068   2.494   3.605   3.587
 2187SOL    HW2 2069   2.602   3.528   3.492
 2188SOL     OW 2070   3.588   1.997   2.385
 2188SOL    HW1 2071   3.661   1.980   2.318
 2188SOL    HW2 2072   3.557   1.910   2.423
 2189SOL     OW 2073   3.250   3.435   2.339
 2189SOL    HW1 2074   3.317   3.447   2.265
 2189SOL    HW2 2075   3.210   3.524   2.362
 2191SOL     OW 2076   3.142   2.789   2.534
 2191SOL    HW1 2077   3.202   2.708   2.536
 2191SOL    HW2 2078   3.182   2.858   2.474
 2192SOL     OW 2079   2.692   3.135   3.284
 2192SOL    HW1 2080   2.687   3.168   3.379
 2192SOL    HW2 2081   2.606   3.154   3.238
 2193SOL     OW 2082   2.534   3.478   2.016
 2193SOL    HW1 2083   2.543   3.488   1.917
 2193SOL    HW2 2084   2.494   3.389   2.037
 2195SOL     OW 2085   3.703   2.037   2.825
 2195SOL    HW1 2086   3.742   1.952   2.789
 2195SOL    HW2 2087   3.605   2.039   2.806
 2196SOL     OW 2088   2.125   2.188   2.582
 2196SOL    HW1 2089   2.046   2.239   2.548
 2196SOL    HW2 2090   2.116   2.173   2.680
 2197SOL     OW 2091   3.056   3.474   1.893
 2197SOL    HW1 2092   3.062   3.381   1.930
 2197SOL    HW2 2093   2.997   3.474   1.813
 2198SOL     OW 2094   2.684   2.864   3.234
 2198SOL    HW1 2095   2.724   2.863   3.142
 2198SOL    HW2 2096   2.694   2.956   3.274
 2199SOL     OW 2097   2.778   2.772   2.153
 2199SOL    HW1 2098   2.841   2.810   2.085
 2199SOL    HW2 2099   2.818   2.689   2.192
 2200SOL     OW 2100   3.366   3.469   1.906
 2200SOL    HW1 2101   3.274   3.506   1.913
 2200SOL    HW2 2102   3.404   3.489   1.816
 2201SOL     OW 2103   2.234   3.150   3.352
 2201SOL    HW1 2104   2.221   3.243   3.318
 2201SOL    HW2 2105   2.150   3.098   3.339
 2202SOL     OW 2106   3.476   3.154   3.151
 2202SOL    HW1 2107   3.536   3.157   3.231
 2202SOL    HW2 2108   3.401   3.218   3.164
 2203SOL     OW 2109   2.901   2.960   2.558
 2203SOL    HW1 2110   2.831   2.913   2.612
 2203SOL    HW2 2111   2.960   2.892   2.515
 2204SOL     OW 2112   2.876   2.098   2.833
 2204SOL    HW1 2113   2.868   2.062   2.740
 2204SOL    HW2 2114   2.874   2.022   2.898
 2205SOL     OW 2115   2.452   3.349   2.353
 2205SOL    HW1 2116   2.494   3.291   2.283
 2205SOL    HW2 2117   2.408   3.428   2.309
 2206SOL     OW 2118   3.571   2.247   3.243
 2206SOL    HW1 2119   3.644   2.316   3.247
 2206SOL    HW2 2120   3.599   2.172   3.184
 2207SOL     OW 2121   2.117   3.210   2.152
 2207SOL    HW1 2122   2.021   3.211   2.125
 2207SOL    HW2 2123   2.129   3.263   2.236
 2208SOL     OW 2124   1.967   2.875   3.588
 2208SOL    HW1 2125   1.890   2.842   3.642
 2208SOL    HW2 2126   2.052   2.845   3.630
 2209SOL     OW 2127   2.534   2.065   3.351
 2209SOL    HW1 2128   2.624   2.049   3.311
 2209SOL    HW2 2129   2.542   2.070   3.450
 2210SOL     OW 2130   1.937   2.207   1.895
 2210SOL    HW1 2131   1.845   2.179   1.866
 2210SOL    HW2 2132   1.968   2.284   1.839
 2211SOL     OW 2133   3.302   2.718   3.260
 2211SOL    HW1 2134   3.245   2.770   3.197
 2211SOL    HW2 2135   3.398   2.730   3.236
 2212SOL     OW 2136   1.934   2.028   2.180
 2212SOL    HW1 2137   1.917   2.111   2.126
 2212SOL    HW2 2138   2.024   1.991   2.158
 2213SOL     OW 2139   3.045   3.197   1.981
 2213SOL    HW1 2140   2.946   3.186   1.983
 2213SOL    HW2 2141   3.079   3.212   2.074
 2214SOL     OW 2142   2.475   2.704   3.293
 2214SOL    HW1 2143   2.531   2.785   3.276
 2214SOL    HW2 2144   2.534   2.624   3.296
 2215SOL     OW 2145   3.355   3.629   2.821
 2215SOL    HW1 2146   3.388   3.693   2.752
 2215SOL    HW2 2147   3.421   3.623   2.896
 2216SOL     OW 2148   2.578   2.427   3.570
 2216SOL    HW1 2149   2.597   2.492   3.644
 2216SOL    HW2 2150   2.638   2.347   3.579
 2217SOL     OW 2151   3.312   3.082   3.495
 2217SOL    HW1 2152   3.303   3.072   3.594
 2217SOL    HW2 2153   3.408   3.075   3.469
 2218SOL     OW 2154   2.252   3.603   3.422
 2218SOL    HW1 2155   2.161   3.644   3.420
 2218SOL    HW2 2156   2.245   3.509   3.454
 2219SOL     OW 2157   3.536   2.745   3.116
 2219SOL    HW1 2158   3.509   2.656   3.079
 2219SOL    HW2 2159   3.537   2.813   3.043
 2220SOL     OW 2160   3.087   2.187   2.311
 2220SOL    HW1 2161   3.152   2.113   2.300
 2220SOL    HW2 2162   3.107   2.237   2.395
 2221SOL     OW 2163   2.456   2.607   2.514
 2221SOL    HW1 2164   2.506   2.692   2.495
 2221SOL    HW2 2165   2.368   2.609   2.466
 2222SOL     OW 2166   3.639   2.204   3.504
 2222SOL    HW1 2167   3.622   2.235   3.410
 2222SOL    HW2 2168   3.555   2.167   3.542
 2223SOL     OW 2169   3.592   2.796   3.379
 2223SOL    HW1 2170   3.630   2.887   3.394
 2223SOL    HW2 2171   3.584   2.779   3.280
 2224SOL     OW 2172   2.721   3.236   1.878
 2224SOL    HW1 2173   2.675   3.251   1.966
 2224SOL    HW2 2174   2.765   3.321   1.848
 2225SOL     OW 2175   2.523   3.652   2.815
 2225SOL    HW1 2176   2.477   3.740   2.802
 2225SOL    HW2 2177   2.622   3.664   2.808
 2226SOL     OW 2178   2.721   2.818   2.723
 2226SOL    HW1 2179   2.775   2.749   2.771
 2226SOL    HW2 2180   2.689   2.887   2.789
 2227SOL     OW 2181   2.945   2.846   1.949
 2227SOL    HW1 2182   2.922   2.899   1.867
 2227SOL    HW2 2183   3.026   2.790   1.930
 2229SOL     OW 2184   2.083   3.176   3.706
 2229SOL    HW1 2185   2.018   3.103   3.685
 2229SOL    HW2 2186   2.087   3.190   3.804
 2230SOL     OW 2187   1.941   3.102   2.515
 2230SOL    HW1 2188   1.940   3.055   2.603
 2230SOL    HW2 2189   2.023   3.074   2.464
 2231SOL     OW 2190   2.534   3.253   3.486
 2231SOL    HW1 2191   2.456   3.203   3.524
 2231SOL    HW2 2192   2.531   3.348   3.517
 2232SOL     OW 2193   3.686   2.054   3.089
 2232SOL    HW1 2194   3.682   1.964   3.133
 2232SOL    HW2 2195   3.689   2.043   2.990
 2233SOL     OW 2196   3.567   3.349   2.966
 2233SOL    HW1 2197   3.474   3.324   2.939
 2233SOL    HW2 2198   3.593   3.299   3.048
 2234SOL     OW 2199   2.179   2.409   3.142
 2234SOL    HW1 2200   2.217   2.350   3.214
 2234SOL    HW2 2201   2.219   2.383   3.054
 2235SOL     OW 2202   2.674   3.448   2.549
 2235SOL    HW1 2203   2.706   3.458   2.455
 2235SOL    HW2 2204   2.595   3.386   2.551
 2236SOL     OW 2205   3.286   2.076   2.974
 2236SOL    HW1 2206   3.338   2.011   3.029
 2236SOL    HW2 2207   3.237   2.139   3.035
 2237SOL     OW 2208   2.863   1.896   3.016
 2237SOL    HW1 2209   2.800   1.824   2.985
 2237SOL    HW2 2210   2.956   1.860   3.016
 2238SOL     OW 2211   2.632   3.192   2.163
 2238SOL    HW1 2212   2.586   3.105   2.180
 2238SOL    HW2 2213   2.723   3.189   2.204
 2239SOL     OW 2214   2.480   3.429   3.146
 2239SOL    HW1 2215   2.475   3.511   3.203
 2239SOL    HW2 2216   2.569   3.426   3.101
 2240SOL     OW 2217   3.214   1.914   2.030
 2240SOL    HW1 2218   3.249   1.873   1.946
 2240SOL    HW2 2219   3.124   1.876   2.050
 2241SOL     OW 2220   3.162   2.315   2.553
 2241SOL    HW1 2221   3.103   2.395   2.557
 2241SOL    HW2 2222   3.177   2.280   2.646
 2242SOL     OW 2223   3.455   2.083   2.744
 2242SOL    HW1 2224   3.371   2.082   2.798
 2242SOL    HW2 2225   3.457   2.166   2.688
 2243SOL     OW 2226   1.901   2.939   2.162
 2243SOL    HW1 2227   2.000   2.928   2.153
 2243SOL    HW2 2228   1.861   2.853   2.194
 2244SOL     OW 2229   2.737   3.508   2.199
 2244SOL    HW1 2230   2.660   3.473   2.145
 2244SOL    HW2 2231   2.705   3.579   2.261
 2245SOL     OW 2232   2.092   2.490   3.837
 2245SOL    HW1 2233   1.999   2.488   3.874
 2245SOL    HW2 2234   2.093   2.451   3.745
 2256SOL     OW 2235   2.468   2.826   3.847
 2256SOL    HW1 2236   2.475   2.910   3.793
 2256SOL    HW2 2237   2.514   2.839   3.935
 2266SOL     OW 2238   2.460   2.591   3.994
 2266SOL    HW1 2239   2.484   2.660   3.926
 2266SOL    HW2 2240   2.382   2.624   4.048
 2271SOL     OW 2241   2.727   2.210   3.919
 2271SOL    HW1 2242   2.786   2.273   3.870
 2271SOL    HW2 2243   2.746   2.116   3.890
 2277SOL     OW 2244   2.183   2.805   3.966
 2277SOL    HW1 2245   2.265   2.844   3.924
 2277SOL    HW2 2246   2.156   2.723   3.917
 2285SOL     OW 2247   2.476   1.984   3.841
 2285SOL    HW1 2248   2.574   1.962   3.848
 2285SOL    HW2 2249   2.445   1.967   3.748
 2288SOL     OW 2250   2.159   1.897   3.895
 2288SOL    HW1 2251   2.208   1.981   3.874
 2288SOL    HW2 2252   2.221   1.832   3.940
 2292SOL     OW 2253   2.894   2.411   3.740
 2292SOL    HW1 2254   2.853   2.493   3.701
 2292SOL    HW2 2255   2.958   2.437   3.813
 2298SOL     OW 2256   3.252   2.437   3.802
 2298SOL    HW1 2257   3.198   2.416   3.883
 2298SOL    HW2 2258   3.343   2.396   3.811
 2299SOL     OW 2259   2.389   2.118   4.052
 2299SOL    HW1 2260   2.416   2.059   3.977
 2299SOL    HW2 2261   2.389   2.213   4.021
 2309SOL     OW 2262   3.165   2.700   3.766
 2309SOL    HW1 2263   3.199   2.607   3.781
 2309SOL    HW2 2264   3.183   2.727   3.671
 2313SOL     OW 2265   2.677   2.434   4.049
 2313SOL    HW1 2266   2.684   2.345   4.003
 2313SOL    HW2 2267   2.583   2.468   4.041
 2314SOL     OW 2268   2.335   2.362   3.915
 2314SOL    HW1 2269   2.396   2.442   3.919
 2314SOL    HW2 2270   2.240   2.393   3.922
 2328SOL     OW 2271   1.937   2.207   3.757
 2328SOL    HW1 2272   1.845   2.179   3.728
 2328SOL    HW2 2273   1.968   2.284   3.701
 2329SOL     OW 2274   1.934   2.028   4.042
 2329SOL    HW1 2275   1.917   2.111   3.988
 2329SOL    HW2 2276   2.024   1.991   4.020
 2333SOL     OW 2277   2.721   3.236   3.740
 2333SOL    HW1 2278   2.675   3.251   3.828
 2333SOL    HW2 2279   2.765   3.321   3.710
 2336SOL     OW 2280   2.945   2.846   3.811
 2336SOL    HW1 2281   2.922   2.899   3.729
 2336SOL    HW2 2282   3.026   2.790   3.792
 2358SOL     OW 2283   2.179   3.975   1.801
 2358SOL    HW1 2284   2.250   4.046   1.807
 2358SOL    HW2 2285   2.091   4.014   1.829
 2398SOL     OW 2286   2.875   3.829   1.770
 2398SOL    HW1 2287   2.881   3.914   1.718
 2398SOL    HW2 2288   2.907   3.753   1.713
 2399SOL     OW 2289   2.366   3.774   1.740
 2399SOL    HW1 2290   2.324   3.717   1.670
 2399SOL    HW2 2291   2.300   3.843   1.772
 2446SOL     OW 2292   2.087   3.999   2.858
 2446SOL    HW1 2293   2.122   3.982   2.950
 2446SOL    HW2 2294   1.999   3.954   2.846
 2457SOL     OW 2295   2.671   3.728   2.364
 2457SOL    HW1 2296   2.711   3.819   2.355
 2457SOL    HW2 2297   2.571   3.736   2.370
 2468SOL     OW 2298   2.412   3.920   2.747
 2468SOL    HW1 2299   2.407   3.915   2.847
 2468SOL    HW2 2300   2.414   4.016   2.718
 2474SOL     OW 2301   2.476   3.846   1.979
 2474SOL    HW1 2302   2.574   3.824   1.986
 2474SOL    HW2 2303   2.445   3.829   1.886
 2478SOL     OW 2304   2.401   3.788   2.374
 2478SOL    HW1 2305   2.320   3.789   2.432
 2478SOL    HW2 2306   2.404   3.871   2.319
 2479SOL     OW 2307   2.159   3.759   2.033
 2479SOL    HW1 2308   2.208   3.843   2.012
 2479SOL    HW2 2309   2.221   3.694   2.078
 2480SOL     OW 2310   2.797   3.960   2.342
 2480SOL    HW1 2311   2.749   4.001   2.264
 2480SOL    HW2 2312   2.896   3.958   2.323
 2484SOL     OW 2313   2.423   3.946   3.009
 2484SOL    HW1 2314   2.461   3.862   3.046
 2484SOL    HW2 2315   2.335   3.965   3.053
 2486SOL     OW 2316   2.879   3.763   2.615
 2486SOL    HW1 2317   2.807   3.768   2.546
 2486SOL    HW2 2318   2.855   3.694   2.684
 2490SOL     OW 2319   2.389   3.980   2.190
 2490SOL    HW1 2320   2.416   3.921   2.115
 2490SOL    HW2 2321   2.389   4.075   2.159
 2507SOL     OW 2322   2.169   3.787   2.480
 2507SOL    HW1 2323   2.158   3.881   2.513
 2507SOL    HW2 2324   2.164   3.724   2.557
 2523SOL     OW 2325   2.125   4.050   2.582
 2523SOL    HW1 2326   2.046   4.101   2.548
 2523SOL    HW2 2327   2.116   4.035   2.680
 2531SOL     OW 2328   1.934   3.890   2.180
 2531SOL    HW1 2329   1.917   3.973   2.126
 2531SOL    HW2 2330   2.024   3.853   2.158
 2542SOL     OW 2331   2.863   3.758   3.016
 2542SOL    HW1 2332   2.800   3.686   2.985
 2542SOL    HW2 2333   2.956   3.722   3.016
 2543SOL     OW 2334   3.214   3.776   2.030
 2543SOL    HW1 2335   3.249   3.735   1.946
 2543SOL    HW2 2336   3.124   3.738   2.050
 2619SOL     OW 2337   3.854   1.821   1.571
 2619SOL    HW1 2338   3.844   1.806   1.670
 2619SOL    HW2 2339   3.768   1.857   1.535
 2668SOL     OW 2340   3.854   1.794   1.851
 2668SOL    HW1 2341   3.813   1.720   1.904
 2668SOL    HW2 2342   3.918   1.845   1.909
 2702SOL     OW 2343   3.955   1.713   2.345
 2702SOL    HW1 2344   3.989   1.790   2.399
 2702SOL    HW2 2345   3.999   1.713   2.255
 2708SOL     OW 2346   3.751   1.596   1.979
 2708SOL    HW1 2347   3.732   1.500   2.000
 2708SOL    HW2 2348   3.718   1.654   2.054
 2752SOL     OW 2349   3.732   1.326   2.062
 2752SOL    HW1 2350   3.639   1.347   2.031
 2752SOL    HW2 2351   3.742   1.227   2.075
 2753SOL     OW 2352   3.812   1.801   2.789
 2753SOL    HW1 2353   3.770   1.715   2.762
 2753SOL    HW2 2354   3.906   1.804   2.755
 2847SOL     OW 2355   3.837   2.599   1.597
 2847SOL    HW1 2356   3.925   2.586   1.642
 2847SOL    HW2 2357   3.824   2.696   1.575
 2869SOL     OW 2358   3.802   2.418   1.386
 2869SOL    HW1 2359   3.894   2.417   1.345
 2869SOL    HW2 2360   3.796   2.492   1.453
 2894SOL     OW 2361   3.913   2.382   1.722
 2894SOL    HW1 2362   3.972   2.342   1.652
 2894SOL    HW2 2363   3.855   2.453   1.681
 2909SOL     OW 2364   3.829   2.875   1.726
 2909SOL    HW1 2365   3.752   2.842   1.780
 2909SOL    HW2 2366   3.914   2.845   1.768
 2926SOL     OW 2367   3.954   2.490   1.975
 2926SOL    HW1 2368   3.861   2.488   2.012
 2926SOL    HW2 2369   3.955   2.451   1.883
 2927SOL     OW 2370   3.949   2.137   2.858
 2927SOL    HW1 2371   3.984   2.120   2.950
 2927SOL    HW2 2372   3.861   2.092   2.846
 2928SOL     OW 2373   3.743   2.230   2.509
 2928SOL    HW1 2374   3.661   2.273   2.548
 2928SOL    HW2 2375   3.715   2.157   2.446
 2940SOL     OW 2376   3.846   2.505   2.425
 2940SOL    HW1 2377   3.801   2.417   2.442
 2940SOL    HW2 2378   3.845   2.559   2.509
 2948SOL     OW 2379   3.800   2.673   2.651
 2948SOL    HW1 2380   3.899   2.661   2.660
 2948SOL    HW2 2381   3.776   2.768   2.672
 2963SOL     OW 2382   4.021   1.897   2.033
 2963SOL    HW1 2383   4.070   1.981   2.012
 2963SOL    HW2 2384   4.083   1.832   2.078
 2965SOL     OW 2385   3.802   2.418   3.248
 2965SOL    HW1 2386   3.894   2.417   3.207
 2965SOL    HW2 2387   3.796   2.492   3.315
 2981SOL     OW 2388   4.031   1.925   2.480
 2981SOL    HW1 2389   4.020   2.019   2.513
 2981SOL    HW2 2390   4.026   1.862   2.557
 2986SOL     OW 2391   3.732   3.188   2.062
 2986SOL    HW1 2392   3.639   3.209   2.031
 2986SOL    HW2 2393   3.742   3.089   2.075
 2989SOL     OW 2394   3.764   2.406   2.976
 2989SOL    HW1 2395   3.849   2.373   2.935
 2989SOL    HW2 2396   3.777   2.421   3.074
 3001SOL     OW 2397   3.987   2.188   2.582
 3001SOL    HW1 2398   3.908   2.239   2.548
 3001SOL    HW2 2399   3.978   2.173   2.680
 3008SOL     OW 2400   3.799   2.207   1.895
 3008SOL    HW1 2401   3.707   2.179   1.866
 3008SOL    HW2 2402   3.830   2.284   1.839
 3009SOL     OW 2403   3.796   2.028   2.180
 3009SOL    HW1 2404   3.779   2.111   2.126
 3009SOL    HW2 2405   3.886   1.991   2.158
 3016SOL     OW 2406   3.803   3.102   2.515
 3016SOL    HW1 2407   3.802   3.055   2.603
 3016SOL    HW2 2408   3.885   3.074   2.464
 3022SOL     OW 2409   3.763   2.939   2.162
 3022SOL    HW1 2410   3.862   2.928   2.153
 3022SOL    HW2 2411   3.723   2.853   2.194
   4.60981   4.60981   4.60981
