mobley_9100956_GMX.gro created by acpype (v: 2023.10.27) on Tue May 19 14:12:31 2026
 2409
    1MOL     C1    1   2.210   2.444   2.404
    1MOL     C2    2   2.207   2.299   2.453
    1MOL     C3    3   2.219   2.451   2.252
    1MOL     C4    4   2.326   2.219   2.400
    1MOL     C5    5   2.337   2.371   2.198
    1MOL     C6    6   2.335   2.226   2.247
    1MOL     C7    7   2.457   2.150   2.196
    1MOL     H1    8   2.120   2.496   2.438
    1MOL     H2    9   2.296   2.496   2.448
    1MOL     H3   10   2.208   2.298   2.563
    1MOL     H4   11   2.114   2.251   2.421
    1MOL     H5   12   2.126   2.412   2.208
    1MOL     H6   13   2.227   2.555   2.220
    1MOL     H7   14   2.419   2.259   2.444
    1MOL     H8   15   2.317   2.115   2.432
    1MOL     H9   16   2.337   2.374   2.088
    1MOL    H10   17   2.431   2.419   2.230
    1MOL    H11   18   2.246   2.177   2.205
    1MOL    H12   19   2.508   2.099   2.279
    1MOL    H13   20   2.428   2.075   2.122
    1MOL    H14   21   2.529   2.218   2.150
   14SOL     OW   22   1.460   1.505   1.339
   14SOL    HW1   23   1.484   1.599   1.365
   14SOL    HW2   24   1.444   1.451   1.421
   18SOL     OW   25   1.127   1.341   1.690
   18SOL    HW1   26   1.174   1.341   1.778
   18SOL    HW2   27   1.079   1.254   1.679
   31SOL     OW   28   1.293   1.228   1.423
   31SOL    HW1   29   1.330   1.155   1.365
   31SOL    HW2   30   1.345   1.233   1.508
   35SOL     OW   31   1.187   1.792   1.616
   35SOL    HW1   32   1.211   1.852   1.540
   35SOL    HW2   33   1.194   1.697   1.586
   56SOL     OW   34   1.227   1.550   1.506
   56SOL    HW1   35   1.233   1.473   1.570
   56SOL    HW2   36   1.175   1.524   1.426
   95SOL     OW   37   1.754   1.223   1.588
   95SOL    HW1   38   1.845   1.184   1.575
   95SOL    HW2   39   1.762   1.319   1.612
   97SOL     OW   40   1.592   1.629   1.625
   97SOL    HW1   41   1.619   1.663   1.535
   97SOL    HW2   42   1.671   1.591   1.671
  109SOL     OW   43   1.272   1.445   1.142
  109SOL    HW1   44   1.319   1.458   1.229
  109SOL    HW2   45   1.206   1.371   1.151
  122SOL     OW   46   1.728   0.935   1.854
  122SOL    HW1   47   1.682   0.928   1.765
  122SOL    HW2   48   1.666   0.979   1.920
  126SOL     OW   49   0.980   1.573   1.700
  126SOL    HW1   50   0.960   1.617   1.612
  126SOL    HW2   51   1.019   1.482   1.684
  127SOL     OW   52   1.859   1.518   1.605
  127SOL    HW1   53   1.873   1.545   1.510
  127SOL    HW2   54   1.942   1.540   1.658
  142SOL     OW   55   1.369   0.950   1.660
  142SOL    HW1   56   1.408   1.039   1.680
  142SOL    HW2   57   1.379   0.930   1.563
  147SOL     OW   58   0.930   1.678   1.465
  147SOL    HW1   59   0.906   1.660   1.370
  147SOL    HW2   60   0.960   1.772   1.475
  152SOL     OW   61   1.759   1.747   1.154
  152SOL    HW1   62   1.820   1.777   1.081
  152SOL    HW2   63   1.721   1.658   1.132
  153SOL     OW   64   1.252   1.731   1.128
  153SOL    HW1   65   1.336   1.736   1.074
  153SOL    HW2   66   1.229   1.635   1.146
  163SOL     OW   67   1.650   1.720   1.394
  163SOL    HW1   68   1.703   1.730   1.310
  163SOL    HW2   69   1.623   1.810   1.428
  171SOL     OW   70   1.614   1.292   1.289
  171SOL    HW1   71   1.674   1.295   1.369
  171SOL    HW2   72   1.539   1.356   1.302
  184SOL     OW   73   1.493   1.767   0.959
  184SOL    HW1   74   1.526   1.831   0.890
  184SOL    HW2   75   1.559   1.761   1.034
  186SOL     OW   76   1.450   1.220   1.633
  186SOL    HW1   77   1.441   1.210   1.732
  186SOL    HW2   78   1.546   1.213   1.607
  192SOL     OW   79   1.730   0.934   1.517
  192SOL    HW1   80   1.768   1.025   1.532
  192SOL    HW2   81   1.722   0.917   1.418
  197SOL     OW   82   1.861   1.569   0.851
  197SOL    HW1   83   1.790   1.557   0.781
  197SOL    HW2   84   1.862   1.490   0.911
  203SOL     OW   85   1.705   1.487   1.104
  203SOL    HW1   86   1.612   1.462   1.077
  203SOL    HW2   87   1.731   1.437   1.186
  219SOL     OW   88   1.555   1.511   2.565
  219SOL    HW1   89   1.498   1.495   2.646
  219SOL    HW2   90   1.496   1.521   2.485
  221SOL     OW   91   1.755   0.607   2.093
  221SOL    HW1   92   1.743   0.594   1.994
  221SOL    HW2   93   1.725   0.526   2.142
  227SOL     OW   94   1.460   1.505   3.201
  227SOL    HW1   95   1.484   1.599   3.227
  227SOL    HW2   96   1.444   1.451   3.283
  238SOL     OW   97   1.842   1.767   2.221
  238SOL    HW1   98   1.896   1.738   2.301
  238SOL    HW2   99   1.872   1.857   2.192
  240SOL     OW  100   1.689   0.922   2.474
  240SOL    HW1  101   1.784   0.893   2.482
  240SOL    HW2  102   1.681   0.987   2.399
  241SOL     OW  103   1.641   1.108   2.294
  241SOL    HW1  104   1.727   1.110   2.242
  241SOL    HW2  105   1.655   1.155   2.382
  244SOL     OW  106   1.293   1.228   3.285
  244SOL    HW1  107   1.330   1.155   3.227
  244SOL    HW2  108   1.345   1.233   3.370
  247SOL     OW  109   1.525   0.999   2.052
  247SOL    HW1  110   1.462   0.923   2.065
  247SOL    HW2  111   1.573   1.017   2.138
  248SOL     OW  112   1.187   1.792   3.478
  248SOL    HW1  113   1.211   1.852   3.402
  248SOL    HW2  114   1.194   1.697   3.448
  250SOL     OW  115   1.466   1.417   2.815
  250SOL    HW1  116   1.407   1.423   2.895
  250SOL    HW2  117   1.451   1.329   2.769
  251SOL     OW  118   1.667   1.714   2.434
  251SOL    HW1  119   1.626   1.691   2.346
  251SOL    HW2  120   1.649   1.640   2.499
  254SOL     OW  121   1.576   1.662   2.169
  254SOL    HW1  122   1.665   1.708   2.172
  254SOL    HW2  123   1.555   1.638   2.074
  264SOL     OW  124   1.362   1.144   2.407
  264SOL    HW1  125   1.445   1.115   2.359
  264SOL    HW2  126   1.313   1.211   2.351
  266SOL     OW  127   1.008   1.456   2.339
  266SOL    HW1  128   0.962   1.528   2.287
  266SOL    HW2  129   1.004   1.476   2.437
  268SOL     OW  130   1.795   1.066   2.735
  268SOL    HW1  131   1.733   1.051   2.659
  268SOL    HW2  132   1.743   1.077   2.820
  269SOL     OW  133   1.227   1.550   3.368
  269SOL    HW1  134   1.233   1.473   3.432
  269SOL    HW2  135   1.175   1.524   3.288
  273SOL     OW  136   1.111   1.776   2.099
  273SOL    HW1  137   1.051   1.714   2.149
  273SOL    HW2  138   1.142   1.732   2.014
  275SOL     OW  139   1.632   1.377   1.943
  275SOL    HW1  140   1.600   1.471   1.933
  275SOL    HW2  141   1.556   1.314   1.931
  279SOL     OW  142   0.940   1.698   2.766
  279SOL    HW1  143   1.020   1.641   2.787
  279SOL    HW2  144   0.891   1.658   2.689
  284SOL     OW  145   0.888   1.514   3.057
  284SOL    HW1  146   0.865   1.489   2.963
  284SOL    HW2  147   0.949   1.445   3.096
  289SOL     OW  148   1.434   1.188   1.903
  289SOL    HW1  149   1.466   1.112   1.960
  289SOL    HW2  150   1.342   1.215   1.933
  293SOL     OW  151   1.227   1.570   2.655
  293SOL    HW1  152   1.248   1.644   2.590
  293SOL    HW2  153   1.295   1.570   2.728
  295SOL     OW  154   1.271   1.797   2.453
  295SOL    HW1  155   1.315   1.861   2.389
  295SOL    HW2  156   1.221   1.849   2.523
  301SOL     OW  157   1.429   1.173   2.729
  301SOL    HW1  158   1.374   1.089   2.722
  301SOL    HW2  159   1.455   1.202   2.637
  303SOL     OW  160   1.857   0.833   2.239
  303SOL    HW1  161   1.899   0.769   2.303
  303SOL    HW2  162   1.819   0.782   2.161
  305SOL     OW  163   1.664   1.280   2.519
  305SOL    HW1  164   1.763   1.288   2.533
  305SOL    HW2  165   1.619   1.364   2.550
  308SOL     OW  166   1.754   1.223   3.450
  308SOL    HW1  167   1.845   1.184   3.437
  308SOL    HW2  168   1.762   1.319   3.474
  310SOL     OW  169   1.592   1.629   3.487
  310SOL    HW1  170   1.619   1.663   3.397
  310SOL    HW2  171   1.671   1.591   3.533
  311SOL     OW  172   1.111   1.195   2.962
  311SOL    HW1  173   1.071   1.239   3.043
  311SOL    HW2  174   1.070   1.232   2.879
  312SOL     OW  175   1.638   1.099   2.941
  312SOL    HW1  176   1.643   1.180   3.000
  312SOL    HW2  177   1.552   1.101   2.890
  321SOL     OW  178   1.252   1.348   2.250
  321SOL    HW1  179   1.302   1.425   2.290
  321SOL    HW2  180   1.157   1.350   2.282
  322SOL     OW  181   1.272   1.445   3.004
  322SOL    HW1  182   1.319   1.458   3.091
  322SOL    HW2  183   1.206   1.371   3.013
  340SOL     OW  184   1.859   1.518   3.467
  340SOL    HW1  185   1.873   1.545   3.372
  340SOL    HW2  186   1.942   1.540   3.520
  344SOL     OW  187   1.068   1.333   2.711
  344SOL    HW1  188   1.075   1.249   2.656
  344SOL    HW2  189   1.130   1.402   2.675
  363SOL     OW  190   1.347   1.059   3.096
  363SOL    HW1  191   1.371   0.996   3.022
  363SOL    HW2  192   1.257   1.099   3.078
  364SOL     OW  193   1.302   0.855   2.171
  364SOL    HW1  194   1.216   0.824   2.213
  364SOL    HW2  195   1.298   0.841   2.072
  365SOL     OW  196   1.759   1.747   3.016
  365SOL    HW1  197   1.820   1.777   2.943
  365SOL    HW2  198   1.721   1.658   2.994
  366SOL     OW  199   1.252   1.731   2.990
  366SOL    HW1  200   1.336   1.736   2.936
  366SOL    HW2  201   1.229   1.635   3.008
  370SOL     OW  202   1.388   1.573   2.339
  370SOL    HW1  203   1.455   1.585   2.265
  370SOL    HW2  204   1.348   1.662   2.362
  372SOL     OW  205   1.280   0.927   2.534
  372SOL    HW1  206   1.340   0.846   2.536
  372SOL    HW2  207   1.320   0.996   2.474
  374SOL     OW  208   0.672   1.616   2.016
  374SOL    HW1  209   0.681   1.626   1.917
  374SOL    HW2  210   0.632   1.527   2.037
  375SOL     OW  211   1.650   1.720   3.256
  375SOL    HW1  212   1.703   1.730   3.172
  375SOL    HW2  213   1.623   1.810   3.290
  378SOL     OW  214   1.194   1.612   1.893
  378SOL    HW1  215   1.200   1.519   1.930
  378SOL    HW2  216   1.135   1.612   1.813
  381SOL     OW  217   1.504   1.607   1.906
  381SOL    HW1  218   1.412   1.644   1.913
  381SOL    HW2  219   1.542   1.627   1.816
  383SOL     OW  220   1.614   1.292   3.151
  383SOL    HW1  221   1.674   1.295   3.231
  383SOL    HW2  222   1.539   1.356   3.164
  384SOL     OW  223   1.039   1.098   2.558
  384SOL    HW1  224   0.969   1.051   2.612
  384SOL    HW2  225   1.098   1.030   2.515
  394SOL     OW  226   1.183   1.335   1.981
  394SOL    HW1  227   1.084   1.324   1.983
  394SOL    HW2  228   1.217   1.350   2.074
  396SOL     OW  229   1.493   1.767   2.821
  396SOL    HW1  230   1.526   1.831   2.752
  396SOL    HW2  231   1.559   1.761   2.896
  400SOL     OW  232   1.674   0.883   3.116
  400SOL    HW1  233   1.647   0.794   3.079
  400SOL    HW2  234   1.675   0.951   3.043
  405SOL     OW  235   0.859   1.374   1.878
  405SOL    HW1  236   0.813   1.389   1.966
  405SOL    HW2  237   0.903   1.459   1.848
  406SOL     OW  238   0.661   1.790   2.815
  406SOL    HW1  239   0.615   1.878   2.802
  406SOL    HW2  240   0.760   1.802   2.808
  409SOL     OW  241   1.861   1.569   2.713
  409SOL    HW1  242   1.790   1.557   2.643
  409SOL    HW2  243   1.862   1.490   2.773
  415SOL     OW  244   1.705   1.487   2.966
  415SOL    HW1  245   1.612   1.462   2.939
  415SOL    HW2  246   1.731   1.437   3.048
  417SOL     OW  247   0.812   1.586   2.549
  417SOL    HW1  248   0.844   1.596   2.455
  417SOL    HW2  249   0.733   1.524   2.551
  426SOL     OW  250   0.875   1.646   2.199
  426SOL    HW1  251   0.798   1.611   2.145
  426SOL    HW2  252   0.843   1.717   2.261
  534SOL     OW  253   0.850   2.660   1.823
  534SOL    HW1  254   0.846   2.736   1.888
  534SOL    HW2  255   0.872   2.696   1.732
  538SOL     OW  256   1.460   3.367   1.339
  538SOL    HW1  257   1.484   3.461   1.365
  538SOL    HW2  258   1.444   3.313   1.421
  540SOL     OW  259   1.603   2.309   0.737
  540SOL    HW1  260   1.529   2.355   0.687
  540SOL    HW2  261   1.654   2.377   0.790
  542SOL     OW  262   1.127   3.203   1.690
  542SOL    HW1  263   1.174   3.203   1.778
  542SOL    HW2  264   1.079   3.116   1.679
  547SOL     OW  265   1.594   1.976   1.480
  547SOL    HW1  266   1.576   2.043   1.408
  547SOL    HW2  267   1.591   2.022   1.569
  555SOL     OW  268   1.293   3.090   1.423
  555SOL    HW1  269   1.330   3.017   1.365
  555SOL    HW2  270   1.345   3.095   1.508
  564SOL     OW  271   1.281   2.207   0.944
  564SOL    HW1  272   1.195   2.157   0.931
  564SOL    HW2  273   1.343   2.153   1.000
  566SOL     OW  274   0.807   2.467   1.465
  566SOL    HW1  275   0.760   2.464   1.554
  566SOL    HW2  276   0.756   2.412   1.399
  567SOL     OW  277   1.394   2.331   1.674
  567SOL    HW1  278   1.374   2.374   1.762
  567SOL    HW2  279   1.472   2.269   1.683
  568SOL     OW  280   0.973   2.752   1.572
  568SOL    HW1  281   1.019   2.668   1.543
  568SOL    HW2  282   0.917   2.786   1.497
  569SOL     OW  283   0.991   2.272   1.242
  569SOL    HW1  284   0.914   2.306   1.296
  569SOL    HW2  285   0.957   2.221   1.163
  574SOL     OW  286   1.719   2.447   1.831
  574SOL    HW1  287   1.693   2.536   1.795
  574SOL    HW2  288   1.717   2.379   1.758
  579SOL     OW  289   1.795   2.928   0.873
  579SOL    HW1  290   1.733   2.913   0.797
  579SOL    HW2  291   1.743   2.939   0.958
  580SOL     OW  292   1.227   3.412   1.506
  580SOL    HW1  293   1.233   3.335   1.570
  580SOL    HW2  294   1.175   3.386   1.426
  592SOL     OW  295   1.547   2.084   1.729
  592SOL    HW1  296   1.542   2.121   1.821
  592SOL    HW2  297   1.475   2.015   1.717
  593SOL     OW  298   0.781   2.126   1.749
  593SOL    HW1  299   0.848   2.065   1.792
  593SOL    HW2  300   0.708   2.145   1.814
  595SOL     OW  301   1.351   2.452   1.433
  595SOL    HW1  302   1.379   2.409   1.518
  595SOL    HW2  303   1.376   2.548   1.434
  602SOL     OW  304   1.076   2.545   1.464
  602SOL    HW1  305   0.996   2.484   1.467
  602SOL    HW2  306   1.157   2.492   1.440
  612SOL     OW  307   1.466   2.452   0.992
  612SOL    HW1  308   1.436   2.357   0.999
  612SOL    HW2  309   1.539   2.468   1.058
  618SOL     OW  310   1.754   3.085   1.588
  618SOL    HW1  311   1.845   3.046   1.575
  618SOL    HW2  312   1.762   3.181   1.612
  620SOL     OW  313   1.592   3.491   1.625
  620SOL    HW1  314   1.619   3.525   1.535
  620SOL    HW2  315   1.671   3.453   1.671
  622SOL     OW  316   1.638   2.961   1.079
  622SOL    HW1  317   1.643   3.042   1.138
  622SOL    HW2  318   1.552   2.963   1.028
  623SOL     OW  319   0.915   1.951   1.402
  623SOL    HW1  320   0.940   1.931   1.307
  623SOL    HW2  321   0.987   2.007   1.444
  624SOL     OW  322   0.980   2.978   1.719
  624SOL    HW1  323   0.881   2.984   1.729
  624SOL    HW2  324   1.003   2.898   1.663
  627SOL     OW  325   1.274   2.248   1.262
  627SOL    HW1  326   1.295   2.322   1.326
  627SOL    HW2  327   1.185   2.265   1.219
  636SOL     OW  328   1.587   2.641   1.670
  636SOL    HW1  329   1.495   2.679   1.665
  636SOL    HW2  330   1.647   2.688   1.605
  637SOL     OW  331   1.013   1.967   1.770
  637SOL    HW1  332   1.019   2.052   1.718
  637SOL    HW2  333   1.045   1.891   1.713
  640SOL     OW  334   1.360   2.724   1.045
  640SOL    HW1  335   1.285   2.724   0.979
  640SOL    HW2  336   1.397   2.632   1.054
  645SOL     OW  337   1.728   2.797   1.854
  645SOL    HW1  338   1.682   2.790   1.765
  645SOL    HW2  339   1.666   2.841   1.920
  650SOL     OW  340   1.859   3.380   1.605
  650SOL    HW1  341   1.873   3.407   1.510
  650SOL    HW2  342   1.942   3.402   1.658
  657SOL     OW  343   1.138   2.242   1.678
  657SOL    HW1  344   1.093   2.305   1.742
  657SOL    HW2  345   1.231   2.273   1.661
  658SOL     OW  346   1.160   2.069   1.477
  658SOL    HW1  347   1.160   2.133   1.554
  658SOL    HW2  348   1.188   2.117   1.394
  662SOL     OW  349   1.002   2.658   1.238
  662SOL    HW1  350   1.043   2.626   1.324
  662SOL    HW2  351   0.906   2.631   1.235
  665SOL     OW  352   1.369   2.812   1.660
  665SOL    HW1  353   1.408   2.901   1.680
  665SOL    HW2  354   1.379   2.792   1.563
  667SOL     OW  355   1.657   2.466   1.206
  667SOL    HW1  356   1.619   2.397   1.268
  667SOL    HW2  357   1.739   2.430   1.162
  673SOL     OW  358   1.347   2.921   1.234
  673SOL    HW1  359   1.371   2.858   1.160
  673SOL    HW2  360   1.257   2.961   1.216
  686SOL     OW  361   1.650   3.582   1.394
  686SOL    HW1  362   1.703   3.592   1.310
  686SOL    HW2  363   1.623   3.672   1.428
  687SOL     OW  364   1.841   2.037   0.963
  687SOL    HW1  365   1.880   1.952   0.927
  687SOL    HW2  366   1.743   2.039   0.944
  694SOL     OW  367   1.614   3.154   1.289
  694SOL    HW1  368   1.674   3.157   1.369
  694SOL    HW2  369   1.539   3.218   1.302
  698SOL     OW  370   1.709   2.247   1.381
  698SOL    HW1  371   1.782   2.316   1.385
  698SOL    HW2  372   1.737   2.172   1.322
  703SOL     OW  373   1.440   2.718   1.398
  703SOL    HW1  374   1.383   2.770   1.335
  703SOL    HW2  375   1.536   2.730   1.374
  708SOL     OW  376   0.716   2.427   1.708
  708SOL    HW1  377   0.735   2.492   1.782
  708SOL    HW2  378   0.776   2.347   1.717
  709SOL     OW  379   1.450   3.082   1.633
  709SOL    HW1  380   1.441   3.072   1.732
  709SOL    HW2  381   1.546   3.075   1.607
  711SOL     OW  382   1.674   2.745   1.254
  711SOL    HW1  383   1.647   2.656   1.217
  711SOL    HW2  384   1.675   2.813   1.181
  714SOL     OW  385   1.777   2.204   1.642
  714SOL    HW1  386   1.760   2.235   1.548
  714SOL    HW2  387   1.693   2.167   1.680
  715SOL     OW  388   1.730   2.796   1.517
  715SOL    HW1  389   1.768   2.887   1.532
  715SOL    HW2  390   1.722   2.779   1.418
  724SOL     OW  391   1.824   2.054   1.227
  724SOL    HW1  392   1.820   1.964   1.271
  724SOL    HW2  393   1.827   2.043   1.128
  726SOL     OW  394   1.705   3.349   1.104
  726SOL    HW1  395   1.612   3.324   1.077
  726SOL    HW2  396   1.731   3.299   1.186
  729SOL     OW  397   1.424   2.076   1.112
  729SOL    HW1  398   1.476   2.011   1.167
  729SOL    HW2  399   1.375   2.139   1.173
  730SOL     OW  400   1.001   1.896   1.154
  730SOL    HW1  401   0.938   1.824   1.123
  730SOL    HW2  402   1.094   1.860   1.154
  735SOL     OW  403   1.593   2.083   0.882
  735SOL    HW1  404   1.509   2.082   0.936
  735SOL    HW2  405   1.595   2.166   0.826
  742SOL     OW  406   1.555   3.373   2.565
  742SOL    HW1  407   1.498   3.357   2.646
  742SOL    HW2  408   1.496   3.383   2.485
  743SOL     OW  409   1.135   2.565   2.579
  743SOL    HW1  410   1.192   2.643   2.554
  743SOL    HW2  411   1.075   2.591   2.655
  744SOL     OW  412   1.755   2.469   2.093
  744SOL    HW1  413   1.743   2.456   1.994
  744SOL    HW2  414   1.725   2.388   2.142
  745SOL     OW  415   0.768   3.006   2.885
  745SOL    HW1  416   0.690   3.023   2.945
  745SOL    HW2  417   0.802   3.093   2.849
  747SOL     OW  418   0.685   2.874   2.527
  747SOL    HW1  419   0.754   2.858   2.597
  747SOL    HW2  420   0.612   2.931   2.565
  750SOL     OW  421   1.460   3.367   3.201
  750SOL    HW1  422   1.484   3.461   3.227
  750SOL    HW2  423   1.444   3.313   3.283
  752SOL     OW  424   1.603   2.309   2.599
  752SOL    HW1  425   1.529   2.355   2.549
  752SOL    HW2  426   1.654   2.377   2.652
  759SOL     OW  427   1.594   1.976   3.342
  759SOL    HW1  428   1.576   2.043   3.270
  759SOL    HW2  429   1.591   2.022   3.431
  761SOL     OW  430   1.842   3.629   2.221
  761SOL    HW1  431   1.896   3.600   2.301
  761SOL    HW2  432   1.872   3.719   2.192
  763SOL     OW  433   1.689   2.784   2.474
  763SOL    HW1  434   1.784   2.755   2.482
  763SOL    HW2  435   1.681   2.849   2.399
  764SOL     OW  436   1.641   2.970   2.294
  764SOL    HW1  437   1.727   2.972   2.242
  764SOL    HW2  438   1.655   3.017   2.382
  767SOL     OW  439   1.293   3.090   3.285
  767SOL    HW1  440   1.330   3.017   3.227
  767SOL    HW2  441   1.345   3.095   3.370
  768SOL     OW  442   0.809   1.866   2.364
  768SOL    HW1  443   0.849   1.957   2.355
  768SOL    HW2  444   0.709   1.874   2.370
  770SOL     OW  445   1.525   2.861   2.052
  770SOL    HW1  446   1.462   2.785   2.065
  770SOL    HW2  447   1.573   2.879   2.138
  773SOL     OW  448   1.466   3.279   2.815
  773SOL    HW1  449   1.407   3.285   2.895
  773SOL    HW2  450   1.451   3.191   2.769
  774SOL     OW  451   1.667   3.576   2.434
  774SOL    HW1  452   1.626   3.553   2.346
  774SOL    HW2  453   1.649   3.502   2.499
  775SOL     OW  454   0.598   2.591   2.132
  775SOL    HW1  455   0.622   2.660   2.064
  775SOL    HW2  456   0.520   2.624   2.186
  776SOL     OW  457   1.281   2.207   2.806
  776SOL    HW1  458   1.195   2.157   2.793
  776SOL    HW2  459   1.343   2.153   2.862
  777SOL     OW  460   1.576   3.524   2.169
  777SOL    HW1  461   1.665   3.570   2.172
  777SOL    HW2  462   1.555   3.500   2.074
  779SOL     OW  463   1.394   2.331   3.536
  779SOL    HW1  464   1.374   2.374   3.624
  779SOL    HW2  465   1.472   2.269   3.545
  781SOL     OW  466   0.991   2.272   3.104
  781SOL    HW1  467   0.914   2.306   3.158
  781SOL    HW2  468   0.957   2.221   3.025
  782SOL     OW  469   1.041   2.563   2.291
  782SOL    HW1  470   1.067   2.559   2.387
  782SOL    HW2  471   0.956   2.512   2.277
  785SOL     OW  472   0.865   2.210   2.057
  785SOL    HW1  473   0.924   2.273   2.008
  785SOL    HW2  474   0.884   2.116   2.028
  786SOL     OW  475   1.719   2.447   3.693
  786SOL    HW1  476   1.693   2.536   3.657
  786SOL    HW2  477   1.717   2.379   3.620
  787SOL     OW  478   1.362   3.006   2.407
  787SOL    HW1  479   1.445   2.977   2.359
  787SOL    HW2  480   1.313   3.073   2.351
  789SOL     OW  481   1.008   3.318   2.339
  789SOL    HW1  482   0.962   3.390   2.287
  789SOL    HW2  483   1.004   3.338   2.437
  791SOL     OW  484   1.795   2.928   2.735
  791SOL    HW1  485   1.733   2.913   2.659
  791SOL    HW2  486   1.743   2.939   2.820
  794SOL     OW  487   1.458   2.597   2.590
  794SOL    HW1  488   1.453   2.532   2.665
  794SOL    HW2  489   1.538   2.656   2.603
  798SOL     OW  490   1.632   3.239   1.943
  798SOL    HW1  491   1.600   3.333   1.933
  798SOL    HW2  492   1.556   3.176   1.931
  800SOL     OW  493   1.400   1.969   2.288
  800SOL    HW1  494   1.376   1.932   2.198
  800SOL    HW2  495   1.499   1.985   2.292
  804SOL     OW  496   1.547   2.084   3.591
  804SOL    HW1  497   1.542   2.121   3.683
  804SOL    HW2  498   1.475   2.015   3.579
  805SOL     OW  499   0.614   1.984   1.979
  805SOL    HW1  500   0.712   1.962   1.986
  805SOL    HW2  501   0.583   1.967   1.886
  808SOL     OW  502   1.351   2.452   3.295
  808SOL    HW1  503   1.379   2.409   3.380
  808SOL    HW2  504   1.376   2.548   3.296
  810SOL     OW  505   0.922   2.365   2.761
  810SOL    HW1  506   0.897   2.356   2.665
  810SOL    HW2  507   0.970   2.283   2.792
  812SOL     OW  508   1.434   3.050   1.903
  812SOL    HW1  509   1.466   2.974   1.960
  812SOL    HW2  510   1.342   3.077   1.933
  814SOL     OW  511   0.935   2.098   2.342
  814SOL    HW1  512   0.887   2.139   2.264
  814SOL    HW2  513   1.034   2.096   2.323
  815SOL     OW  514   1.076   2.545   3.326
  815SOL    HW1  515   0.996   2.484   3.329
  815SOL    HW2  516   1.157   2.492   3.302
  816SOL     OW  517   1.227   3.432   2.655
  816SOL    HW1  518   1.248   3.506   2.590
  816SOL    HW2  519   1.295   3.432   2.728
  818SOL     OW  520   1.271   3.659   2.453
  818SOL    HW1  521   1.315   3.723   2.389
  818SOL    HW2  522   1.221   3.711   2.523
  819SOL     OW  523   1.032   2.411   1.878
  819SOL    HW1  524   0.991   2.493   1.839
  819SOL    HW2  525   1.096   2.437   1.951
  822SOL     OW  526   0.866   2.316   2.504
  822SOL    HW1  527   0.834   2.388   2.442
  822SOL    HW2  528   0.890   2.235   2.451
  823SOL     OW  529   1.017   1.901   2.615
  823SOL    HW1  530   0.945   1.906   2.546
  823SOL    HW2  531   0.993   1.832   2.684
  824SOL     OW  532   1.429   3.035   2.729
  824SOL    HW1  533   1.374   2.951   2.722
  824SOL    HW2  534   1.455   3.064   2.637
  825SOL     OW  535   1.466   2.452   2.854
  825SOL    HW1  536   1.436   2.357   2.861
  825SOL    HW2  537   1.539   2.468   2.920
  826SOL     OW  538   1.857   2.695   2.239
  826SOL    HW1  539   1.899   2.631   2.303
  826SOL    HW2  540   1.819   2.644   2.161
  828SOL     OW  541   1.664   3.142   2.519
  828SOL    HW1  542   1.763   3.150   2.533
  828SOL    HW2  543   1.619   3.226   2.550
  829SOL     OW  544   1.390   2.437   1.940
  829SOL    HW1  545   1.336   2.416   2.021
  829SOL    HW2  546   1.481   2.396   1.949
  830SOL     OW  547   0.527   2.118   2.190
  830SOL    HW1  548   0.554   2.059   2.115
  830SOL    HW2  549   0.527   2.213   2.159
  831SOL     OW  550   1.754   3.085   3.450
  831SOL    HW1  551   1.845   3.046   3.437
  831SOL    HW2  552   1.762   3.181   3.474
  832SOL     OW  553   1.064   3.209   3.202
  832SOL    HW1  554   0.984   3.186   3.257
  832SOL    HW2  555   1.147   3.183   3.251
  834SOL     OW  556   1.111   3.057   2.962
  834SOL    HW1  557   1.071   3.101   3.043
  834SOL    HW2  558   1.070   3.094   2.879
  835SOL     OW  559   1.638   2.961   2.941
  835SOL    HW1  560   1.643   3.042   3.000
  835SOL    HW2  561   1.552   2.963   2.890
  836SOL     OW  562   0.915   1.951   3.264
  836SOL    HW1  563   0.940   1.931   3.169
  836SOL    HW2  564   0.987   2.007   3.306
  838SOL     OW  565   0.705   2.912   2.230
  838SOL    HW1  566   0.691   2.919   2.329
  838SOL    HW2  567   0.789   2.861   2.212
  840SOL     OW  568   1.274   2.248   3.124
  840SOL    HW1  569   1.295   2.322   3.188
  840SOL    HW2  570   1.185   2.265   3.081
  843SOL     OW  571   0.566   2.399   2.727
  843SOL    HW1  572   0.578   2.465   2.653
  843SOL    HW2  573   0.612   2.433   2.810
  844SOL     OW  574   1.252   3.210   2.250
  844SOL    HW1  575   1.302   3.287   2.290
  844SOL    HW2  576   1.157   3.212   2.282
  845SOL     OW  577   1.272   3.307   3.004
  845SOL    HW1  578   1.319   3.320   3.091
  845SOL    HW2  579   1.206   3.233   3.013
  846SOL     OW  580   1.582   2.501   2.334
  846SOL    HW1  581   1.551   2.562   2.407
  846SOL    HW2  582   1.632   2.553   2.265
  849SOL     OW  583   1.587   2.641   3.532
  849SOL    HW1  584   1.495   2.679   3.527
  849SOL    HW2  585   1.647   2.688   3.467
  853SOL     OW  586   1.360   2.724   2.907
  853SOL    HW1  587   1.285   2.724   2.841
  853SOL    HW2  588   1.397   2.632   2.916
  854SOL     OW  589   1.209   2.387   2.137
  854SOL    HW1  590   1.222   2.303   2.191
  854SOL    HW2  591   1.180   2.461   2.197
  857SOL     OW  592   0.732   2.496   2.926
  857SOL    HW1  593   0.791   2.470   2.850
  857SOL    HW2  594   0.704   2.592   2.915
  858SOL     OW  595   1.728   2.797   3.716
  858SOL    HW1  596   1.682   2.790   3.627
  858SOL    HW2  597   1.666   2.841   3.782
  860SOL     OW  598   1.622   2.229   2.236
  860SOL    HW1  599   1.624   2.153   2.300
  860SOL    HW2  600   1.574   2.306   2.276
  861SOL     OW  601   1.023   2.628   2.828
  861SOL    HW1  602   1.038   2.649   2.924
  861SOL    HW2  603   0.993   2.533   2.819
  863SOL     OW  604   1.859   3.380   3.467
  863SOL    HW1  605   1.873   3.407   3.372
  863SOL    HW2  606   1.942   3.402   3.520
  865SOL     OW  607   1.540   2.136   1.987
  865SOL    HW1  608   1.479   2.061   2.010
  865SOL    HW2  609   1.562   2.188   2.070
  866SOL     OW  610   1.303   2.700   1.904
  866SOL    HW1  611   1.337   2.607   1.919
  866SOL    HW2  612   1.321   2.727   1.809
  867SOL     OW  613   1.068   3.195   2.711
  867SOL    HW1  614   1.075   3.111   2.656
  867SOL    HW2  615   1.130   3.264   2.675
  870SOL     OW  616   1.138   2.242   3.540
  870SOL    HW1  617   1.093   2.305   3.604
  870SOL    HW2  618   1.231   2.273   3.523
  871SOL     OW  619   1.160   2.069   3.339
  871SOL    HW1  620   1.160   2.133   3.416
  871SOL    HW2  621   1.188   2.117   3.256
  875SOL     OW  622   1.002   2.658   3.100
  875SOL    HW1  623   1.043   2.626   3.186
  875SOL    HW2  624   0.906   2.631   3.097
  878SOL     OW  625   1.369   2.812   3.522
  878SOL    HW1  626   1.408   2.901   3.542
  878SOL    HW2  627   1.379   2.792   3.425
  879SOL     OW  628   0.815   2.434   2.187
  879SOL    HW1  629   0.822   2.345   2.141
  879SOL    HW2  630   0.721   2.468   2.179
  880SOL     OW  631   1.657   2.466   3.068
  880SOL    HW1  632   1.619   2.397   3.130
  880SOL    HW2  633   1.739   2.430   3.024
  886SOL     OW  634   1.347   2.921   3.096
  886SOL    HW1  635   1.371   2.858   3.022
  886SOL    HW2  636   1.257   2.961   3.078
  887SOL     OW  637   1.302   2.717   2.171
  887SOL    HW1  638   1.216   2.686   2.213
  887SOL    HW2  639   1.298   2.703   2.072
  888SOL     OW  640   1.759   3.609   3.016
  888SOL    HW1  641   1.820   3.639   2.943
  888SOL    HW2  642   1.721   3.520   2.994
  889SOL     OW  643   1.252   3.593   2.990
  889SOL    HW1  644   1.336   3.598   2.936
  889SOL    HW2  645   1.229   3.497   3.008
  892SOL     OW  646   1.726   1.997   2.385
  892SOL    HW1  647   1.799   1.980   2.318
  892SOL    HW2  648   1.695   1.910   2.423
  893SOL     OW  649   1.388   3.435   2.339
  893SOL    HW1  650   1.455   3.447   2.265
  893SOL    HW2  651   1.348   3.524   2.362
  895SOL     OW  652   1.280   2.789   2.534
  895SOL    HW1  653   1.340   2.708   2.536
  895SOL    HW2  654   1.320   2.858   2.474
  898SOL     OW  655   1.650   3.582   3.256
  898SOL    HW1  656   1.703   3.592   3.172
  898SOL    HW2  657   1.623   3.672   3.290
  899SOL     OW  658   1.841   2.037   2.825
  899SOL    HW1  659   1.880   1.952   2.789
  899SOL    HW2  660   1.743   2.039   2.806
  901SOL     OW  661   1.194   3.474   1.893
  901SOL    HW1  662   1.200   3.381   1.930
  901SOL    HW2  663   1.135   3.474   1.813
  903SOL     OW  664   0.916   2.772   2.153
  903SOL    HW1  665   0.979   2.810   2.085
  903SOL    HW2  666   0.956   2.689   2.192
  904SOL     OW  667   1.504   3.469   1.906
  904SOL    HW1  668   1.412   3.506   1.913
  904SOL    HW2  669   1.542   3.489   1.816
  906SOL     OW  670   1.614   3.154   3.151
  906SOL    HW1  671   1.674   3.157   3.231
  906SOL    HW2  672   1.539   3.218   3.164
  907SOL     OW  673   1.039   2.960   2.558
  907SOL    HW1  674   0.969   2.913   2.612
  907SOL    HW2  675   1.098   2.892   2.515
  908SOL     OW  676   1.014   2.098   2.833
  908SOL    HW1  677   1.006   2.062   2.740
  908SOL    HW2  678   1.012   2.022   2.898
  910SOL     OW  679   1.709   2.247   3.243
  910SOL    HW1  680   1.782   2.316   3.247
  910SOL    HW2  681   1.737   2.172   3.184
  915SOL     OW  682   1.440   2.718   3.260
  915SOL    HW1  683   1.383   2.770   3.197
  915SOL    HW2  684   1.536   2.730   3.236
  917SOL     OW  685   1.183   3.197   1.981
  917SOL    HW1  686   1.084   3.186   1.983
  917SOL    HW2  687   1.217   3.212   2.074
  919SOL     OW  688   1.493   3.629   2.821
  919SOL    HW1  689   1.526   3.693   2.752
  919SOL    HW2  690   1.559   3.623   2.896
  921SOL     OW  691   1.450   3.082   3.495
  921SOL    HW1  692   1.441   3.072   3.594
  921SOL    HW2  693   1.546   3.075   3.469
  923SOL     OW  694   1.674   2.745   3.116
  923SOL    HW1  695   1.647   2.656   3.079
  923SOL    HW2  696   1.675   2.813   3.043
  924SOL     OW  697   1.225   2.187   2.311
  924SOL    HW1  698   1.290   2.113   2.300
  924SOL    HW2  699   1.245   2.237   2.395
  925SOL     OW  700   0.594   2.607   2.514
  925SOL    HW1  701   0.644   2.692   2.495
  925SOL    HW2  702   0.506   2.609   2.466
  926SOL     OW  703   1.777   2.204   3.504
  926SOL    HW1  704   1.760   2.235   3.410
  926SOL    HW2  705   1.693   2.167   3.542
  927SOL     OW  706   1.730   2.796   3.379
  927SOL    HW1  707   1.768   2.887   3.394
  927SOL    HW2  708   1.722   2.779   3.280
  928SOL     OW  709   0.859   3.236   1.878
  928SOL    HW1  710   0.813   3.251   1.966
  928SOL    HW2  711   0.903   3.321   1.848
  930SOL     OW  712   0.859   2.818   2.723
  930SOL    HW1  713   0.913   2.749   2.771
  930SOL    HW2  714   0.827   2.887   2.789
  931SOL     OW  715   1.083   2.846   1.949
  931SOL    HW1  716   1.060   2.899   1.867
  931SOL    HW2  717   1.164   2.790   1.930
  932SOL     OW  718   1.861   3.431   2.713
  932SOL    HW1  719   1.790   3.419   2.643
  932SOL    HW2  720   1.862   3.352   2.773
  936SOL     OW  721   1.824   2.054   3.089
  936SOL    HW1  722   1.820   1.964   3.133
  936SOL    HW2  723   1.827   2.043   2.990
  938SOL     OW  724   1.705   3.349   2.966
  938SOL    HW1  725   1.612   3.324   2.939
  938SOL    HW2  726   1.731   3.299   3.048
  941SOL     OW  727   1.424   2.076   2.974
  941SOL    HW1  728   1.476   2.011   3.029
  941SOL    HW2  729   1.375   2.139   3.035
  942SOL     OW  730   1.001   1.896   3.016
  942SOL    HW1  731   0.938   1.824   2.985
  942SOL    HW2  732   1.094   1.860   3.016
  943SOL     OW  733   0.770   3.192   2.163
  943SOL    HW1  734   0.724   3.105   2.180
  943SOL    HW2  735   0.861   3.189   2.204
  945SOL     OW  736   1.352   1.914   2.030
  945SOL    HW1  737   1.387   1.873   1.946
  945SOL    HW2  738   1.262   1.876   2.050
  946SOL     OW  739   1.300   2.315   2.553
  946SOL    HW1  740   1.241   2.395   2.557
  946SOL    HW2  741   1.315   2.280   2.646
  947SOL     OW  742   1.593   2.083   2.744
  947SOL    HW1  743   1.509   2.082   2.798
  947SOL    HW2  744   1.595   2.166   2.688
  954SOL     OW  745   1.755   2.469   3.955
  954SOL    HW1  746   1.743   2.456   3.856
  954SOL    HW2  747   1.725   2.388   4.004
 1003SOL     OW  748   1.390   2.437   3.802
 1003SOL    HW1  749   1.336   2.416   3.883
 1003SOL    HW2  750   1.481   2.396   3.811
 1013SOL     OW  751   1.540   2.136   3.849
 1013SOL    HW1  752   1.479   2.061   3.872
 1013SOL    HW2  753   1.562   2.188   3.932
 1176SOL     OW  754   1.400   3.831   2.288
 1176SOL    HW1  755   1.376   3.794   2.198
 1176SOL    HW2  756   1.499   3.847   2.292
 1225SOL     OW  757   1.726   3.859   2.385
 1225SOL    HW1  758   1.799   3.842   2.318
 1225SOL    HW2  759   1.695   3.772   2.423
 1227SOL     OW  760   1.841   3.899   2.825
 1227SOL    HW1  761   1.880   3.814   2.789
 1227SOL    HW2  762   1.743   3.901   2.806
 1248SOL     OW  763   1.352   3.776   2.030
 1248SOL    HW1  764   1.387   3.735   1.946
 1248SOL    HW2  765   1.262   3.738   2.050
 1304SOL     OW  766   2.431   1.275   1.165
 1304SOL    HW1  767   2.338   1.268   1.128
 1304SOL    HW2  768   2.442   1.364   1.209
 1308SOL     OW  769   2.630   1.144   1.023
 1308SOL    HW1  770   2.552   1.161   1.083
 1308SOL    HW2  771   2.664   1.231   0.987
 1309SOL     OW  772   2.712   0.798   1.823
 1309SOL    HW1  773   2.708   0.874   1.888
 1309SOL    HW2  774   2.734   0.834   1.732
 1311SOL     OW  775   2.548   1.161   1.803
 1311SOL    HW1  776   2.608   1.240   1.817
 1311SOL    HW2  777   2.462   1.192   1.762
 1312SOL     OW  778   2.197   1.435   1.061
 1312SOL    HW1  779   2.119   1.404   1.008
 1312SOL    HW2  780   2.255   1.493   1.004
 1313SOL     OW  781   3.322   1.505   1.339
 1313SOL    HW1  782   3.346   1.599   1.365
 1313SOL    HW2  783   3.306   1.451   1.421
 1317SOL     OW  784   2.989   1.341   1.690
 1317SOL    HW1  785   3.036   1.341   1.778
 1317SOL    HW2  786   2.941   1.254   1.679
 1320SOL     OW  787   2.482   1.786   1.439
 1320SOL    HW1  788   2.390   1.769   1.474
 1320SOL    HW2  789   2.510   1.878   1.465
 1328SOL     OW  790   1.975   0.737   1.597
 1328SOL    HW1  791   2.063   0.724   1.642
 1328SOL    HW2  792   1.962   0.834   1.575
 1330SOL     OW  793   3.155   1.228   1.423
 1330SOL    HW1  794   3.192   1.155   1.365
 1330SOL    HW2  795   3.207   1.233   1.508
 1332SOL     OW  796   2.059   0.976   1.264
 1332SOL    HW1  797   2.148   0.931   1.250
 1332SOL    HW2  798   1.986   0.911   1.245
 1334SOL     OW  799   3.049   1.792   1.616
 1334SOL    HW1  800   3.073   1.852   1.540
 1334SOL    HW2  801   3.056   1.697   1.586
 1343SOL     OW  802   2.835   0.890   1.572
 1343SOL    HW1  803   2.881   0.806   1.543
 1343SOL    HW2  804   2.779   0.924   1.497
 1347SOL     OW  805   1.992   1.821   1.571
 1347SOL    HW1  806   1.982   1.806   1.670
 1347SOL    HW2  807   1.906   1.857   1.535
 1353SOL     OW  808   2.213   1.801   0.853
 1353SOL    HW1  809   2.263   1.715   0.859
 1353SOL    HW2  810   2.278   1.878   0.850
 1355SOL     OW  811   3.089   1.550   1.506
 1355SOL    HW1  812   3.095   1.473   1.570
 1355SOL    HW2  813   3.037   1.524   1.426
 1358SOL     OW  814   2.323   1.266   1.727
 1358SOL    HW1  815   2.273   1.267   1.641
 1358SOL    HW2  816   2.260   1.248   1.803
 1364SOL     OW  817   2.111   1.785   1.241
 1364SOL    HW1  818   2.168   1.720   1.291
 1364SOL    HW2  819   2.095   1.752   1.148
 1365SOL     OW  820   2.802   1.698   0.904
 1365SOL    HW1  821   2.882   1.641   0.925
 1365SOL    HW2  822   2.753   1.658   0.827
 1370SOL     OW  823   2.750   1.514   1.195
 1370SOL    HW1  824   2.727   1.489   1.101
 1370SOL    HW2  825   2.811   1.445   1.234
 1372SOL     OW  826   2.665   1.402   0.924
 1372SOL    HW1  827   2.755   1.416   0.882
 1372SOL    HW2  828   2.594   1.404   0.853
 1395SOL     OW  829   2.926   1.347   1.340
 1395SOL    HW1  830   2.846   1.324   1.395
 1395SOL    HW2  831   3.009   1.321   1.389
 1396SOL     OW  832   3.454   1.629   1.625
 1396SOL    HW1  833   3.481   1.663   1.535
 1396SOL    HW2  834   3.533   1.591   1.671
 1397SOL     OW  835   2.973   1.195   1.100
 1397SOL    HW1  836   2.933   1.239   1.181
 1397SOL    HW2  837   2.932   1.232   1.017
 1400SOL     OW  838   2.842   1.116   1.719
 1400SOL    HW1  839   2.743   1.122   1.729
 1400SOL    HW2  840   2.865   1.036   1.663
 1404SOL     OW  841   1.926   1.564   1.331
 1404SOL    HW1  842   1.880   1.646   1.297
 1404SOL    HW2  843   2.024   1.583   1.340
 1408SOL     OW  844   3.134   1.445   1.142
 1408SOL    HW1  845   3.181   1.458   1.229
 1408SOL    HW2  846   3.068   1.371   1.151
 1410SOL     OW  847   2.216   1.510   1.329
 1410SOL    HW1  848   2.195   1.466   1.242
 1410SOL    HW2  849   2.313   1.536   1.332
 1411SOL     OW  850   2.264   0.751   1.598
 1411SOL    HW1  851   2.332   0.806   1.551
 1411SOL    HW2  852   2.304   0.663   1.625
 1419SOL     OW  853   1.899   1.310   1.282
 1419SOL    HW1  854   1.952   1.261   1.350
 1419SOL    HW2  855   1.921   1.408   1.287
 1425SOL     OW  856   2.842   1.573   1.700
 1425SOL    HW1  857   2.822   1.617   1.612
 1425SOL    HW2  858   2.881   1.482   1.684
 1426SOL     OW  859   3.721   1.518   1.605
 1426SOL    HW1  860   3.735   1.545   1.510
 1426SOL    HW2  861   3.804   1.540   1.658
 1427SOL     OW  862   2.212   0.898   1.804
 1427SOL    HW1  863   2.288   0.942   1.852
 1427SOL    HW2  864   2.247   0.851   1.722
 1436SOL     OW  865   1.950   1.801   0.927
 1436SOL    HW1  866   1.908   1.715   0.900
 1436SOL    HW2  867   2.044   1.804   0.893
 1437SOL     OW  868   2.366   1.568   0.910
 1437SOL    HW1  869   2.432   1.642   0.919
 1437SOL    HW2  870   2.410   1.489   0.868
 1441SOL     OW  871   3.231   0.950   1.660
 1441SOL    HW1  872   3.270   1.039   1.680
 1441SOL    HW2  873   3.241   0.930   1.563
 1444SOL     OW  874   2.114   1.564   1.744
 1444SOL    HW1  875   2.084   1.621   1.820
 1444SOL    HW2  876   2.107   1.467   1.770
 1446SOL     OW  877   2.792   1.678   1.465
 1446SOL    HW1  878   2.768   1.660   1.370
 1446SOL    HW2  879   2.822   1.772   1.475
 1448SOL     OW  880   2.021   1.137   1.466
 1448SOL    HW1  881   2.043   1.076   1.542
 1448SOL    HW2  882   2.031   1.088   1.380
 1452SOL     OW  883   3.114   1.731   1.128
 1452SOL    HW1  884   3.198   1.736   1.074
 1452SOL    HW2  885   3.091   1.635   1.146
 1453SOL     OW  886   1.945   1.258   1.022
 1453SOL    HW1  887   1.940   1.257   1.122
 1453SOL    HW2  888   1.862   1.217   0.984
 1454SOL     OW  889   2.550   1.662   1.716
 1454SOL    HW1  890   2.494   1.743   1.725
 1454SOL    HW2  891   2.602   1.666   1.630
 1458SOL     OW  892   1.992   1.794   1.851
 1458SOL    HW1  893   1.951   1.720   1.904
 1458SOL    HW2  894   2.056   1.845   1.909
 1460SOL     OW  895   2.692   1.273   1.422
 1460SOL    HW1  896   2.687   1.306   1.517
 1460SOL    HW2  897   2.606   1.292   1.376
 1462SOL     OW  898   3.512   1.720   1.394
 1462SOL    HW1  899   3.565   1.730   1.310
 1462SOL    HW2  900   3.485   1.810   1.428
 1466SOL     OW  901   2.684   1.002   1.372
 1466SOL    HW1  902   2.724   1.001   1.280
 1466SOL    HW2  903   2.694   1.094   1.412
 1469SOL     OW  904   2.234   1.288   1.490
 1469SOL    HW1  905   2.221   1.381   1.456
 1469SOL    HW2  906   2.150   1.236   1.477
 1476SOL     OW  907   1.967   1.013   1.726
 1476SOL    HW1  908   1.890   0.980   1.780
 1476SOL    HW2  909   2.052   0.983   1.768
 1482SOL     OW  910   2.475   0.842   1.431
 1482SOL    HW1  911   2.531   0.923   1.414
 1482SOL    HW2  912   2.534   0.762   1.434
 1483SOL     OW  913   3.355   1.767   0.959
 1483SOL    HW1  914   3.388   1.831   0.890
 1483SOL    HW2  915   3.421   1.761   1.034
 1485SOL     OW  916   3.312   1.220   1.633
 1485SOL    HW1  917   3.303   1.210   1.732
 1485SOL    HW2  918   3.408   1.213   1.607
 1486SOL     OW  919   2.252   1.741   1.560
 1486SOL    HW1  920   2.161   1.782   1.558
 1486SOL    HW2  921   2.245   1.647   1.592
 1493SOL     OW  922   2.523   1.790   0.953
 1493SOL    HW1  923   2.477   1.878   0.940
 1493SOL    HW2  924   2.622   1.802   0.946
 1497SOL     OW  925   2.083   1.314   1.844
 1497SOL    HW1  926   2.018   1.241   1.823
 1497SOL    HW2  927   2.087   1.328   1.942
 1499SOL     OW  928   2.534   1.391   1.624
 1499SOL    HW1  929   2.456   1.341   1.662
 1499SOL    HW2  930   2.531   1.486   1.655
 1508SOL     OW  931   2.480   1.567   1.284
 1508SOL    HW1  932   2.475   1.649   1.341
 1508SOL    HW2  933   2.569   1.564   1.239
 1514SOL     OW  934   2.092   0.628   1.975
 1514SOL    HW1  935   1.999   0.626   2.012
 1514SOL    HW2  936   2.093   0.589   1.883
 1517SOL     OW  937   2.431   1.275   3.027
 1517SOL    HW1  938   2.338   1.268   2.990
 1517SOL    HW2  939   2.442   1.364   3.071
 1518SOL     OW  940   3.417   1.511   2.565
 1518SOL    HW1  941   3.360   1.495   2.646
 1518SOL    HW2  942   3.358   1.521   2.485
 1519SOL     OW  943   2.997   0.703   2.579
 1519SOL    HW1  944   3.054   0.781   2.554
 1519SOL    HW2  945   2.937   0.729   2.655
 1521SOL     OW  946   2.630   1.144   2.885
 1521SOL    HW1  947   2.552   1.161   2.945
 1521SOL    HW2  948   2.664   1.231   2.849
 1523SOL     OW  949   2.547   1.012   2.527
 1523SOL    HW1  950   2.616   0.996   2.597
 1523SOL    HW2  951   2.474   1.069   2.565
 1524SOL     OW  952   2.548   1.161   3.665
 1524SOL    HW1  953   2.608   1.240   3.679
 1524SOL    HW2  954   2.462   1.192   3.624
 1525SOL     OW  955   2.197   1.435   2.923
 1525SOL    HW1  956   2.119   1.404   2.870
 1525SOL    HW2  957   2.255   1.493   2.866
 1526SOL     OW  958   3.322   1.505   3.201
 1526SOL    HW1  959   3.346   1.599   3.227
 1526SOL    HW2  960   3.306   1.451   3.283
 1529SOL     OW  961   2.093   1.713   2.345
 1529SOL    HW1  962   2.127   1.790   2.399
 1529SOL    HW2  963   2.137   1.713   2.255
 1530SOL     OW  964   2.989   1.341   3.552
 1530SOL    HW1  965   3.036   1.341   3.640
 1530SOL    HW2  966   2.941   1.254   3.541
 1531SOL     OW  967   2.092   1.434   2.400
 1531SOL    HW1  968   2.066   1.530   2.400
 1531SOL    HW2  969   2.021   1.380   2.445
 1532SOL     OW  970   2.102   1.091   2.748
 1532SOL    HW1  971   2.116   1.007   2.800
 1532SOL    HW2  972   2.047   1.155   2.803
 1533SOL     OW  973   2.482   1.786   3.301
 1533SOL    HW1  974   2.390   1.769   3.336
 1533SOL    HW2  975   2.510   1.878   3.327
 1534SOL     OW  976   2.468   0.964   1.985
 1534SOL    HW1  977   2.475   1.048   1.931
 1534SOL    HW2  978   2.514   0.977   2.073
 1536SOL     OW  979   1.984   0.643   2.425
 1536SOL    HW1  980   1.939   0.555   2.442
 1536SOL    HW2  981   1.983   0.697   2.509
 1537SOL     OW  982   3.704   1.767   2.221
 1537SOL    HW1  983   3.758   1.738   2.301
 1537SOL    HW2  984   3.734   1.857   2.192
 1538SOL     OW  985   1.889   1.596   1.979
 1538SOL    HW1  986   1.870   1.500   2.000
 1538SOL    HW2  987   1.856   1.654   2.054
 1540SOL     OW  988   3.503   1.108   2.294
 1540SOL    HW1  989   3.589   1.110   2.242
 1540SOL    HW2  990   3.517   1.155   2.382
 1542SOL     OW  991   2.475   1.365   2.588
 1542SOL    HW1  992   2.426   1.278   2.597
 1542SOL    HW2  993   2.452   1.408   2.501
 1543SOL     OW  994   3.155   1.228   3.285
 1543SOL    HW1  995   3.192   1.155   3.227
 1543SOL    HW2  996   3.207   1.233   3.370
 1545SOL     OW  997   2.059   0.976   3.126
 1545SOL    HW1  998   2.148   0.931   3.112
 1545SOL    HW2  999   1.986   0.911   3.107
 1546SOL     OW 1000   3.387   0.999   2.052
 1546SOL    HW1 1001   3.324   0.923   2.065
 1546SOL    HW2 1002   3.435   1.017   2.138
 1547SOL     OW 1003   3.049   1.792   3.478
 1547SOL    HW1 1004   3.073   1.852   3.402
 1547SOL    HW2 1005   3.056   1.697   3.448
 1549SOL     OW 1006   3.328   1.417   2.815
 1549SOL    HW1 1007   3.269   1.423   2.895
 1549SOL    HW2 1008   3.313   1.329   2.769
 1550SOL     OW 1009   3.529   1.714   2.434
 1550SOL    HW1 1010   3.488   1.691   2.346
 1550SOL    HW2 1011   3.511   1.640   2.499
 1551SOL     OW 1012   2.460   0.729   2.132
 1551SOL    HW1 1013   2.484   0.798   2.064
 1551SOL    HW2 1014   2.382   0.762   2.186
 1553SOL     OW 1015   3.438   1.662   2.169
 1553SOL    HW1 1016   3.527   1.708   2.172
 1553SOL    HW2 1017   3.417   1.638   2.074
 1558SOL     OW 1018   2.903   0.701   2.291
 1558SOL    HW1 1019   2.929   0.697   2.387
 1558SOL    HW2 1020   2.818   0.650   2.277
 1559SOL     OW 1021   1.938   0.811   2.651
 1559SOL    HW1 1022   2.037   0.799   2.660
 1559SOL    HW2 1023   1.914   0.906   2.672
 1560SOL     OW 1024   1.992   1.821   3.433
 1560SOL    HW1 1025   1.982   1.806   3.532
 1560SOL    HW2 1026   1.906   1.857   3.397
 1563SOL     OW 1027   3.224   1.144   2.407
 1563SOL    HW1 1028   3.307   1.115   2.359
 1563SOL    HW2 1029   3.175   1.211   2.351
 1565SOL     OW 1030   2.870   1.456   2.339
 1565SOL    HW1 1031   2.824   1.528   2.287
 1565SOL    HW2 1032   2.866   1.476   2.437
 1566SOL     OW 1033   2.213   1.801   2.715
 1566SOL    HW1 1034   2.263   1.715   2.721
 1566SOL    HW2 1035   2.278   1.878   2.712
 1568SOL     OW 1036   3.089   1.550   3.368
 1568SOL    HW1 1037   3.095   1.473   3.432
 1568SOL    HW2 1038   3.037   1.524   3.288
 1569SOL     OW 1039   2.183   0.943   2.104
 1569SOL    HW1 1040   2.265   0.982   2.062
 1569SOL    HW2 1041   2.156   0.861   2.055
 1571SOL     OW 1042   2.323   1.266   3.589
 1571SOL    HW1 1043   2.273   1.267   3.503
 1571SOL    HW2 1044   2.260   1.248   3.665
 1572SOL     OW 1045   2.973   1.776   2.099
 1572SOL    HW1 1046   2.913   1.714   2.149
 1572SOL    HW2 1047   3.004   1.732   2.014
 1574SOL     OW 1048   3.494   1.377   1.943
 1574SOL    HW1 1049   3.462   1.471   1.933
 1574SOL    HW2 1050   3.418   1.314   1.931
 1575SOL     OW 1051   2.326   1.743   2.185
 1575SOL    HW1 1052   2.359   1.782   2.271
 1575SOL    HW2 1053   2.402   1.736   2.120
 1577SOL     OW 1054   2.111   1.785   3.103
 1577SOL    HW1 1055   2.168   1.720   3.153
 1577SOL    HW2 1056   2.095   1.752   3.010
 1578SOL     OW 1057   2.802   1.698   2.766
 1578SOL    HW1 1058   2.882   1.641   2.787
 1578SOL    HW2 1059   2.753   1.658   2.689
 1579SOL     OW 1060   2.244   0.700   2.342
 1579SOL    HW1 1061   2.289   0.610   2.339
 1579SOL    HW2 1062   2.150   0.689   2.375
 1583SOL     OW 1063   2.750   1.514   3.057
 1583SOL    HW1 1064   2.727   1.489   2.963
 1583SOL    HW2 1065   2.811   1.445   3.096
 1585SOL     OW 1066   2.665   1.402   2.786
 1585SOL    HW1 1067   2.755   1.416   2.744
 1585SOL    HW2 1068   2.594   1.404   2.715
 1588SOL     OW 1069   3.296   1.188   1.903
 1588SOL    HW1 1070   3.328   1.112   1.960
 1588SOL    HW2 1071   3.204   1.215   1.933
 1592SOL     OW 1072   3.089   1.570   2.655
 1592SOL    HW1 1073   3.110   1.644   2.590
 1592SOL    HW2 1074   3.157   1.570   2.728
 1593SOL     OW 1075   2.321   1.152   2.603
 1593SOL    HW1 1076   2.250   1.125   2.668
 1593SOL    HW2 1077   2.295   1.124   2.510
 1594SOL     OW 1078   3.133   1.797   2.453
 1594SOL    HW1 1079   3.177   1.861   2.389
 1594SOL    HW2 1080   3.083   1.849   2.523
 1600SOL     OW 1081   3.291   1.173   2.729
 1600SOL    HW1 1082   3.236   1.089   2.722
 1600SOL    HW2 1083   3.317   1.202   2.637
 1603SOL     OW 1084   2.350   1.385   2.036
 1603SOL    HW1 1085   2.263   1.370   2.083
 1603SOL    HW2 1086   2.333   1.411   1.941
 1604SOL     OW 1087   3.526   1.280   2.519
 1604SOL    HW1 1088   3.625   1.288   2.533
 1604SOL    HW2 1089   3.481   1.364   2.550
 1608SOL     OW 1090   2.926   1.347   3.202
 1608SOL    HW1 1091   2.846   1.324   3.257
 1608SOL    HW2 1092   3.009   1.321   3.251
 1609SOL     OW 1093   3.454   1.629   3.487
 1609SOL    HW1 1094   3.481   1.663   3.397
 1609SOL    HW2 1095   3.533   1.591   3.533
 1610SOL     OW 1096   2.973   1.195   2.962
 1610SOL    HW1 1097   2.933   1.239   3.043
 1610SOL    HW2 1098   2.932   1.232   2.879
 1614SOL     OW 1099   2.567   1.050   2.230
 1614SOL    HW1 1100   2.553   1.057   2.329
 1614SOL    HW2 1101   2.651   0.999   2.212
 1615SOL     OW 1102   2.272   0.813   3.113
 1615SOL    HW1 1103   2.358   0.825   3.163
 1615SOL    HW2 1104   2.230   0.726   3.140
 1617SOL     OW 1105   1.926   1.564   3.193
 1617SOL    HW1 1106   1.880   1.646   3.159
 1617SOL    HW2 1107   2.024   1.583   3.202
 1618SOL     OW 1108   2.229   1.100   2.363
 1618SOL    HW1 1109   2.222   1.183   2.307
 1618SOL    HW2 1110   2.233   1.020   2.303
 1620SOL     OW 1111   3.114   1.348   2.250
 1620SOL    HW1 1112   3.164   1.425   2.290
 1620SOL    HW2 1113   3.019   1.350   2.282
 1621SOL     OW 1114   3.134   1.445   3.004
 1621SOL    HW1 1115   3.181   1.458   3.091
 1621SOL    HW2 1116   3.068   1.371   3.013
 1623SOL     OW 1117   2.216   1.510   3.191
 1623SOL    HW1 1118   2.195   1.466   3.104
 1623SOL    HW2 1119   2.313   1.536   3.194
 1628SOL     OW 1120   2.435   0.870   2.891
 1628SOL    HW1 1121   2.479   0.959   2.882
 1628SOL    HW2 1122   2.372   0.870   2.968
 1632SOL     OW 1123   1.899   1.310   3.144
 1632SOL    HW1 1124   1.952   1.261   3.212
 1632SOL    HW2 1125   1.921   1.408   3.149
 1637SOL     OW 1126   2.885   0.766   2.828
 1637SOL    HW1 1127   2.900   0.787   2.924
 1637SOL    HW2 1128   2.855   0.671   2.819
 1638SOL     OW 1129   2.842   1.573   3.562
 1638SOL    HW1 1130   2.822   1.617   3.474
 1638SOL    HW2 1131   2.881   1.482   3.546
 1642SOL     OW 1132   3.165   0.838   1.904
 1642SOL    HW1 1133   3.199   0.745   1.919
 1642SOL    HW2 1134   3.183   0.865   1.809
 1643SOL     OW 1135   2.930   1.333   2.711
 1643SOL    HW1 1136   2.937   1.249   2.656
 1643SOL    HW2 1137   2.992   1.402   2.675
 1644SOL     OW 1138   2.181   0.810   2.811
 1644SOL    HW1 1139   2.274   0.846   2.816
 1644SOL    HW2 1140   2.175   0.725   2.863
 1648SOL     OW 1141   1.870   1.326   2.062
 1648SOL    HW1 1142   1.777   1.347   2.031
 1648SOL    HW2 1143   1.880   1.227   2.075
 1649SOL     OW 1144   1.950   1.801   2.789
 1649SOL    HW1 1145   1.908   1.715   2.762
 1649SOL    HW2 1146   2.044   1.804   2.755
 1650SOL     OW 1147   2.366   1.568   2.772
 1650SOL    HW1 1148   2.432   1.642   2.781
 1650SOL    HW2 1149   2.410   1.489   2.730
 1651SOL     OW 1150   2.864   0.796   3.100
 1651SOL    HW1 1151   2.905   0.764   3.186
 1651SOL    HW2 1152   2.768   0.769   3.097
 1655SOL     OW 1153   2.677   0.572   2.187
 1655SOL    HW1 1154   2.684   0.483   2.141
 1655SOL    HW2 1155   2.583   0.606   2.179
 1657SOL     OW 1156   2.114   1.564   3.606
 1657SOL    HW1 1157   2.084   1.621   3.682
 1657SOL    HW2 1158   2.107   1.467   3.632
 1659SOL     OW 1159   2.792   1.678   3.327
 1659SOL    HW1 1160   2.768   1.660   3.232
 1659SOL    HW2 1161   2.822   1.772   3.337
 1661SOL     OW 1162   2.021   1.137   3.328
 1661SOL    HW1 1163   2.043   1.076   3.404
 1661SOL    HW2 1164   2.031   1.088   3.242
 1662SOL     OW 1165   3.209   1.059   3.096
 1662SOL    HW1 1166   3.233   0.996   3.022
 1662SOL    HW2 1167   3.119   1.099   3.078
 1663SOL     OW 1168   3.164   0.855   2.171
 1663SOL    HW1 1169   3.078   0.824   2.213
 1663SOL    HW2 1170   3.160   0.841   2.072
 1664SOL     OW 1171   3.621   1.747   3.016
 1664SOL    HW1 1172   3.682   1.777   2.943
 1664SOL    HW2 1173   3.583   1.658   2.994
 1665SOL     OW 1174   3.114   1.731   2.990
 1665SOL    HW1 1175   3.198   1.736   2.936
 1665SOL    HW2 1176   3.091   1.635   3.008
 1666SOL     OW 1177   1.945   1.258   2.884
 1666SOL    HW1 1178   1.940   1.257   2.984
 1666SOL    HW2 1179   1.862   1.217   2.846
 1667SOL     OW 1180   2.550   1.662   3.578
 1667SOL    HW1 1181   2.494   1.743   3.587
 1667SOL    HW2 1182   2.602   1.666   3.492
 1669SOL     OW 1183   3.250   1.573   2.339
 1669SOL    HW1 1184   3.317   1.585   2.265
 1669SOL    HW2 1185   3.210   1.662   2.362
 1670SOL     OW 1186   1.992   1.794   3.713
 1670SOL    HW1 1187   1.951   1.720   3.766
 1670SOL    HW2 1188   2.056   1.845   3.771
 1671SOL     OW 1189   3.142   0.927   2.534
 1671SOL    HW1 1190   3.202   0.846   2.536
 1671SOL    HW2 1191   3.182   0.996   2.474
 1672SOL     OW 1192   2.692   1.273   3.284
 1672SOL    HW1 1193   2.687   1.306   3.379
 1672SOL    HW2 1194   2.606   1.292   3.238
 1673SOL     OW 1195   2.534   1.616   2.016
 1673SOL    HW1 1196   2.543   1.626   1.917
 1673SOL    HW2 1197   2.494   1.527   2.037
 1674SOL     OW 1198   3.512   1.720   3.256
 1674SOL    HW1 1199   3.565   1.730   3.172
 1674SOL    HW2 1200   3.485   1.810   3.290
 1677SOL     OW 1201   3.056   1.612   1.893
 1677SOL    HW1 1202   3.062   1.519   1.930
 1677SOL    HW2 1203   2.997   1.612   1.813
 1678SOL     OW 1204   2.684   1.002   3.234
 1678SOL    HW1 1205   2.724   1.001   3.142
 1678SOL    HW2 1206   2.694   1.094   3.274
 1679SOL     OW 1207   2.778   0.910   2.153
 1679SOL    HW1 1208   2.841   0.948   2.085
 1679SOL    HW2 1209   2.818   0.827   2.192
 1680SOL     OW 1210   3.366   1.607   1.906
 1680SOL    HW1 1211   3.274   1.644   1.913
 1680SOL    HW2 1212   3.404   1.627   1.816
 1681SOL     OW 1213   2.234   1.288   3.352
 1681SOL    HW1 1214   2.221   1.381   3.318
 1681SOL    HW2 1215   2.150   1.236   3.339
 1682SOL     OW 1216   3.476   1.292   3.151
 1682SOL    HW1 1217   3.536   1.295   3.231
 1682SOL    HW2 1218   3.401   1.356   3.164
 1683SOL     OW 1219   2.901   1.098   2.558
 1683SOL    HW1 1220   2.831   1.051   2.612
 1683SOL    HW2 1221   2.960   1.030   2.515
 1685SOL     OW 1222   2.452   1.487   2.353
 1685SOL    HW1 1223   2.494   1.429   2.283
 1685SOL    HW2 1224   2.408   1.566   2.309
 1687SOL     OW 1225   2.117   1.348   2.152
 1687SOL    HW1 1226   2.021   1.349   2.125
 1687SOL    HW2 1227   2.129   1.401   2.236
 1693SOL     OW 1228   3.045   1.335   1.981
 1693SOL    HW1 1229   2.946   1.324   1.983
 1693SOL    HW2 1230   3.079   1.350   2.074
 1694SOL     OW 1231   2.475   0.842   3.293
 1694SOL    HW1 1232   2.531   0.923   3.276
 1694SOL    HW2 1233   2.534   0.762   3.296
 1695SOL     OW 1234   3.355   1.767   2.821
 1695SOL    HW1 1235   3.388   1.831   2.752
 1695SOL    HW2 1236   3.421   1.761   2.896
 1698SOL     OW 1237   2.252   1.741   3.422
 1698SOL    HW1 1238   2.161   1.782   3.420
 1698SOL    HW2 1239   2.245   1.647   3.454
 1701SOL     OW 1240   2.456   0.745   2.514
 1701SOL    HW1 1241   2.506   0.830   2.495
 1701SOL    HW2 1242   2.368   0.747   2.466
 1704SOL     OW 1243   2.721   1.374   1.878
 1704SOL    HW1 1244   2.675   1.389   1.966
 1704SOL    HW2 1245   2.765   1.459   1.848
 1705SOL     OW 1246   2.523   1.790   2.815
 1705SOL    HW1 1247   2.477   1.878   2.802
 1705SOL    HW2 1248   2.622   1.802   2.808
 1706SOL     OW 1249   2.721   0.956   2.723
 1706SOL    HW1 1250   2.775   0.887   2.771
 1706SOL    HW2 1251   2.689   1.025   2.789
 1707SOL     OW 1252   2.945   0.984   1.949
 1707SOL    HW1 1253   2.922   1.037   1.867
 1707SOL    HW2 1254   3.026   0.928   1.930
 1708SOL     OW 1255   3.723   1.569   2.713
 1708SOL    HW1 1256   3.652   1.557   2.643
 1708SOL    HW2 1257   3.724   1.490   2.773
 1709SOL     OW 1258   2.083   1.314   3.706
 1709SOL    HW1 1259   2.018   1.241   3.685
 1709SOL    HW2 1260   2.087   1.328   3.804
 1710SOL     OW 1261   1.941   1.240   2.515
 1710SOL    HW1 1262   1.940   1.193   2.603
 1710SOL    HW2 1263   2.023   1.212   2.464
 1711SOL     OW 1264   2.534   1.391   3.486
 1711SOL    HW1 1265   2.456   1.341   3.524
 1711SOL    HW2 1266   2.531   1.486   3.517
 1714SOL     OW 1267   3.567   1.487   2.966
 1714SOL    HW1 1268   3.474   1.462   2.939
 1714SOL    HW2 1269   3.593   1.437   3.048
 1716SOL     OW 1270   2.674   1.586   2.549
 1716SOL    HW1 1271   2.706   1.596   2.455
 1716SOL    HW2 1272   2.595   1.524   2.551
 1719SOL     OW 1273   2.632   1.330   2.163
 1719SOL    HW1 1274   2.586   1.243   2.180
 1719SOL    HW2 1275   2.723   1.327   2.204
 1720SOL     OW 1276   2.480   1.567   3.146
 1720SOL    HW1 1277   2.475   1.649   3.203
 1720SOL    HW2 1278   2.569   1.564   3.101
 1724SOL     OW 1279   1.901   1.077   2.162
 1724SOL    HW1 1280   2.000   1.066   2.153
 1724SOL    HW2 1281   1.861   0.991   2.194
 1725SOL     OW 1282   2.737   1.646   2.199
 1725SOL    HW1 1283   2.660   1.611   2.145
 1725SOL    HW2 1284   2.705   1.717   2.261
 1740SOL     OW 1285   1.889   1.596   3.841
 1740SOL    HW1 1286   1.870   1.500   3.862
 1740SOL    HW2 1287   1.856   1.654   3.916
 1799SOL     OW 1288   2.534   1.616   3.878
 1799SOL    HW1 1289   2.543   1.626   3.779
 1799SOL    HW2 1290   2.494   1.527   3.899
 1802SOL     OW 1291   3.056   1.612   3.755
 1802SOL    HW1 1292   3.062   1.519   3.792
 1802SOL    HW2 1293   2.997   1.612   3.675
 1813SOL     OW 1294   2.721   1.374   3.740
 1813SOL    HW1 1295   2.675   1.389   3.828
 1813SOL    HW2 1296   2.765   1.459   3.710
 1826SOL     OW 1297   2.087   2.137   0.996
 1826SOL    HW1 1298   2.122   2.120   1.088
 1826SOL    HW2 1299   1.999   2.092   0.984
 1827SOL     OW 1300   1.881   2.230   0.647
 1827SOL    HW1 1301   1.799   2.273   0.686
 1827SOL    HW2 1302   1.853   2.157   0.584
 1828SOL     OW 1303   2.431   3.137   1.165
 1828SOL    HW1 1304   2.338   3.130   1.128
 1828SOL    HW2 1305   2.442   3.226   1.209
 1830SOL     OW 1306   2.997   2.565   0.717
 1830SOL    HW1 1307   3.054   2.643   0.692
 1830SOL    HW2 1308   2.937   2.591   0.793
 1832SOL     OW 1309   2.630   3.006   1.023
 1832SOL    HW1 1310   2.552   3.023   1.083
 1832SOL    HW2 1311   2.664   3.093   0.987
 1833SOL     OW 1312   2.712   2.660   1.823
 1833SOL    HW1 1313   2.708   2.736   1.888
 1833SOL    HW2 1314   2.734   2.696   1.732
 1834SOL     OW 1315   2.547   2.874   0.665
 1834SOL    HW1 1316   2.616   2.858   0.735
 1834SOL    HW2 1317   2.474   2.931   0.703
 1835SOL     OW 1318   2.548   3.023   1.803
 1835SOL    HW1 1319   2.608   3.102   1.817
 1835SOL    HW2 1320   2.462   3.054   1.762
 1836SOL     OW 1321   2.197   3.297   1.061
 1836SOL    HW1 1322   2.119   3.266   1.008
 1836SOL    HW2 1323   2.255   3.355   1.004
 1837SOL     OW 1324   3.322   3.367   1.339
 1837SOL    HW1 1325   3.346   3.461   1.365
 1837SOL    HW2 1326   3.306   3.313   1.421
 1838SOL     OW 1327   2.300   2.254   1.499
 1838SOL    HW1 1328   2.382   2.198   1.508
 1838SOL    HW2 1329   2.219   2.196   1.503
 1841SOL     OW 1330   2.989   3.203   1.690
 1841SOL    HW1 1331   3.036   3.203   1.778
 1841SOL    HW2 1332   2.941   3.116   1.679
 1843SOL     OW 1333   2.102   2.953   0.886
 1843SOL    HW1 1334   2.116   2.869   0.938
 1843SOL    HW2 1335   2.047   3.017   0.941
 1844SOL     OW 1336   2.482   3.648   1.439
 1844SOL    HW1 1337   2.390   3.631   1.474
 1844SOL    HW2 1338   2.510   3.740   1.465
 1846SOL     OW 1339   3.456   1.976   1.480
 1846SOL    HW1 1340   3.438   2.043   1.408
 1846SOL    HW2 1341   3.453   2.022   1.569
 1847SOL     OW 1342   1.984   2.505   0.563
 1847SOL    HW1 1343   1.939   2.417   0.580
 1847SOL    HW2 1344   1.983   2.559   0.647
 1852SOL     OW 1345   1.975   2.599   1.597
 1852SOL    HW1 1346   2.063   2.586   1.642
 1852SOL    HW2 1347   1.962   2.696   1.575
 1854SOL     OW 1348   3.155   3.090   1.423
 1854SOL    HW1 1349   3.192   3.017   1.365
 1854SOL    HW2 1350   3.207   3.095   1.508
 1856SOL     OW 1351   2.059   2.838   1.264
 1856SOL    HW1 1352   2.148   2.793   1.250
 1856SOL    HW2 1353   1.986   2.773   1.245
 1858SOL     OW 1354   3.049   3.654   1.616
 1858SOL    HW1 1355   3.073   3.714   1.540
 1858SOL    HW2 1356   3.056   3.559   1.586
 1859SOL     OW 1357   2.179   2.113   1.801
 1859SOL    HW1 1358   2.250   2.184   1.807
 1859SOL    HW2 1359   2.091   2.152   1.829
 1863SOL     OW 1360   3.143   2.207   0.944
 1863SOL    HW1 1361   3.057   2.157   0.931
 1863SOL    HW2 1362   3.205   2.153   1.000
 1865SOL     OW 1363   2.669   2.467   1.465
 1865SOL    HW1 1364   2.622   2.464   1.554
 1865SOL    HW2 1365   2.618   2.412   1.399
 1866SOL     OW 1366   3.256   2.331   1.674
 1866SOL    HW1 1367   3.236   2.374   1.762
 1866SOL    HW2 1368   3.334   2.269   1.683
 1867SOL     OW 1369   2.835   2.752   1.572
 1867SOL    HW1 1370   2.881   2.668   1.543
 1867SOL    HW2 1371   2.779   2.786   1.497
 1868SOL     OW 1372   2.853   2.272   1.242
 1868SOL    HW1 1373   2.776   2.306   1.296
 1868SOL    HW2 1374   2.819   2.221   1.163
 1870SOL     OW 1375   1.938   2.673   0.789
 1870SOL    HW1 1376   2.037   2.661   0.798
 1870SOL    HW2 1377   1.914   2.768   0.810
 1871SOL     OW 1378   1.992   3.683   1.571
 1871SOL    HW1 1379   1.982   3.668   1.670
 1871SOL    HW2 1380   1.906   3.719   1.535
 1873SOL     OW 1381   3.581   2.447   1.831
 1873SOL    HW1 1382   3.555   2.536   1.795
 1873SOL    HW2 1383   3.579   2.379   1.758
 1875SOL     OW 1384   2.412   2.058   0.885
 1875SOL    HW1 1385   2.407   2.053   0.985
 1875SOL    HW2 1386   2.414   2.154   0.856
 1879SOL     OW 1387   3.089   3.412   1.506
 1879SOL    HW1 1388   3.095   3.335   1.570
 1879SOL    HW2 1389   3.037   3.386   1.426
 1882SOL     OW 1390   2.323   3.128   1.727
 1882SOL    HW1 1391   2.273   3.129   1.641
 1882SOL    HW2 1392   2.260   3.110   1.803
 1884SOL     OW 1393   2.064   2.147   1.498
 1884SOL    HW1 1394   1.984   2.207   1.485
 1884SOL    HW2 1395   2.054   2.098   1.584
 1888SOL     OW 1396   2.111   3.647   1.241
 1888SOL    HW1 1397   2.168   3.582   1.291
 1888SOL    HW2 1398   2.095   3.614   1.148
 1891SOL     OW 1399   3.409   2.084   1.729
 1891SOL    HW1 1400   3.404   2.121   1.821
 1891SOL    HW2 1401   3.337   2.015   1.717
 1892SOL     OW 1402   2.643   2.126   1.749
 1892SOL    HW1 1403   2.710   2.065   1.792
 1892SOL    HW2 1404   2.570   2.145   1.814
 1893SOL     OW 1405   2.750   3.376   1.195
 1893SOL    HW1 1406   2.727   3.351   1.101
 1893SOL    HW2 1407   2.811   3.307   1.234
 1894SOL     OW 1408   3.213   2.452   1.433
 1894SOL    HW1 1409   3.241   2.409   1.518
 1894SOL    HW2 1410   3.238   2.548   1.434
 1895SOL     OW 1411   2.665   3.264   0.924
 1895SOL    HW1 1412   2.755   3.278   0.882
 1895SOL    HW2 1413   2.594   3.266   0.853
 1896SOL     OW 1414   2.784   2.365   0.899
 1896SOL    HW1 1415   2.759   2.356   0.803
 1896SOL    HW2 1416   2.832   2.283   0.930
 1901SOL     OW 1417   2.938   2.545   1.464
 1901SOL    HW1 1418   2.858   2.484   1.467
 1901SOL    HW2 1419   3.019   2.492   1.440
 1903SOL     OW 1420   2.321   3.014   0.741
 1903SOL    HW1 1421   2.250   2.987   0.806
 1903SOL    HW2 1422   2.295   2.986   0.648
 1906SOL     OW 1423   1.940   2.418   1.386
 1906SOL    HW1 1424   2.032   2.417   1.345
 1906SOL    HW2 1425   1.934   2.492   1.453
 1907SOL     OW 1426   2.423   2.084   1.147
 1907SOL    HW1 1427   2.461   2.000   1.184
 1907SOL    HW2 1428   2.335   2.103   1.191
 1908SOL     OW 1429   2.728   2.316   0.642
 1908SOL    HW1 1430   2.696   2.388   0.580
 1908SOL    HW2 1431   2.752   2.235   0.589
 1909SOL     OW 1432   2.879   1.901   0.753
 1909SOL    HW1 1433   2.807   1.906   0.684
 1909SOL    HW2 1434   2.855   1.832   0.822
 1911SOL     OW 1435   3.328   2.452   0.992
 1911SOL    HW1 1436   3.298   2.357   0.999
 1911SOL    HW2 1437   3.401   2.468   1.058
 1917SOL     OW 1438   3.616   3.085   1.588
 1917SOL    HW1 1439   3.707   3.046   1.575
 1917SOL    HW2 1440   3.624   3.181   1.612
 1918SOL     OW 1441   2.926   3.209   1.340
 1918SOL    HW1 1442   2.846   3.186   1.395
 1918SOL    HW2 1443   3.009   3.183   1.389
 1919SOL     OW 1444   3.454   3.491   1.625
 1919SOL    HW1 1445   3.481   3.525   1.535
 1919SOL    HW2 1446   3.533   3.453   1.671
 1920SOL     OW 1447   2.973   3.057   1.100
 1920SOL    HW1 1448   2.933   3.101   1.181
 1920SOL    HW2 1449   2.932   3.094   1.017
 1922SOL     OW 1450   2.777   1.951   1.402
 1922SOL    HW1 1451   2.802   1.931   1.307
 1922SOL    HW2 1452   2.849   2.007   1.444
 1923SOL     OW 1453   2.842   2.978   1.719
 1923SOL    HW1 1454   2.743   2.984   1.729
 1923SOL    HW2 1455   2.865   2.898   1.663
 1925SOL     OW 1456   2.272   2.675   1.251
 1925SOL    HW1 1457   2.358   2.687   1.301
 1925SOL    HW2 1458   2.230   2.588   1.278
 1926SOL     OW 1459   3.136   2.248   1.262
 1926SOL    HW1 1460   3.157   2.322   1.326
 1926SOL    HW2 1461   3.047   2.265   1.219
 1927SOL     OW 1462   1.926   3.426   1.331
 1927SOL    HW1 1463   1.880   3.508   1.297
 1927SOL    HW2 1464   2.024   3.445   1.340
 1929SOL     OW 1465   2.428   2.399   0.865
 1929SOL    HW1 1466   2.440   2.465   0.791
 1929SOL    HW2 1467   2.474   2.433   0.948
 1931SOL     OW 1468   3.134   3.307   1.142
 1931SOL    HW1 1469   3.181   3.320   1.229
 1931SOL    HW2 1470   3.068   3.233   1.151
 1933SOL     OW 1471   2.216   3.372   1.329
 1933SOL    HW1 1472   2.195   3.328   1.242
 1933SOL    HW2 1473   2.313   3.398   1.332
 1934SOL     OW 1474   2.264   2.613   1.598
 1934SOL    HW1 1475   2.332   2.668   1.551
 1934SOL    HW2 1476   2.304   2.525   1.625
 1935SOL     OW 1477   3.449   2.641   1.670
 1935SOL    HW1 1478   3.357   2.679   1.665
 1935SOL    HW2 1479   3.509   2.688   1.605
 1936SOL     OW 1480   2.875   1.967   1.770
 1936SOL    HW1 1481   2.881   2.052   1.718
 1936SOL    HW2 1482   2.907   1.891   1.713
 1937SOL     OW 1483   2.366   1.912   1.740
 1937SOL    HW1 1484   2.324   1.855   1.670
 1937SOL    HW2 1485   2.300   1.981   1.772
 1938SOL     OW 1486   2.435   2.732   1.029
 1938SOL    HW1 1487   2.479   2.821   1.020
 1938SOL    HW2 1488   2.372   2.732   1.106
 1939SOL     OW 1489   3.222   2.724   1.045
 1939SOL    HW1 1490   3.147   2.724   0.979
 1939SOL    HW2 1491   3.259   2.632   1.054
 1941SOL     OW 1492   2.169   2.075   1.231
 1941SOL    HW1 1493   2.146   2.112   1.321
 1941SOL    HW2 1494   2.139   1.980   1.225
 1942SOL     OW 1495   1.899   3.172   1.282
 1942SOL    HW1 1496   1.952   3.123   1.350
 1942SOL    HW2 1497   1.921   3.270   1.287
 1943SOL     OW 1498   2.594   2.496   1.064
 1943SOL    HW1 1499   2.653   2.470   0.988
 1943SOL    HW2 1500   2.566   2.592   1.053
 1944SOL     OW 1501   3.590   2.797   1.854
 1944SOL    HW1 1502   3.544   2.790   1.765
 1944SOL    HW2 1503   3.528   2.841   1.920
 1945SOL     OW 1504   2.169   1.925   0.618
 1945SOL    HW1 1505   2.158   2.019   0.651
 1945SOL    HW2 1506   2.164   1.862   0.695
 1947SOL     OW 1507   2.885   2.628   0.966
 1947SOL    HW1 1508   2.900   2.649   1.062
 1947SOL    HW2 1509   2.855   2.533   0.957
 1948SOL     OW 1510   2.842   3.435   1.700
 1948SOL    HW1 1511   2.822   3.479   1.612
 1948SOL    HW2 1512   2.881   3.344   1.684
 1950SOL     OW 1513   2.212   2.760   1.804
 1950SOL    HW1 1514   2.288   2.804   1.852
 1950SOL    HW2 1515   2.247   2.713   1.722
 1954SOL     OW 1516   2.181   2.672   0.949
 1954SOL    HW1 1517   2.274   2.708   0.954
 1954SOL    HW2 1518   2.175   2.587   1.001
 1955SOL     OW 1519   2.201   2.371   1.006
 1955SOL    HW1 1520   2.149   2.288   0.989
 1955SOL    HW2 1521   2.278   2.376   0.942
 1956SOL     OW 1522   3.000   2.242   1.678
 1956SOL    HW1 1523   2.955   2.305   1.742
 1956SOL    HW2 1524   3.093   2.273   1.661
 1957SOL     OW 1525   3.022   2.069   1.477
 1957SOL    HW1 1526   3.022   2.133   1.554
 1957SOL    HW2 1527   3.050   2.117   1.394
 1960SOL     OW 1528   2.366   3.430   0.910
 1960SOL    HW1 1529   2.432   3.504   0.919
 1960SOL    HW2 1530   2.410   3.351   0.868
 1961SOL     OW 1531   2.864   2.658   1.238
 1961SOL    HW1 1532   2.905   2.626   1.324
 1961SOL    HW2 1533   2.768   2.631   1.235
 1962SOL     OW 1534   1.902   2.406   1.114
 1962SOL    HW1 1535   1.987   2.373   1.073
 1962SOL    HW2 1536   1.915   2.421   1.212
 1963SOL     OW 1537   2.051   2.382   1.722
 1963SOL    HW1 1538   2.110   2.342   1.652
 1963SOL    HW2 1539   1.993   2.453   1.681
 1964SOL     OW 1540   3.231   2.812   1.660
 1964SOL    HW1 1541   3.270   2.901   1.680
 1964SOL    HW2 1542   3.241   2.792   1.563
 1966SOL     OW 1543   3.519   2.466   1.206
 1966SOL    HW1 1544   3.481   2.397   1.268
 1966SOL    HW2 1545   3.601   2.430   1.162
 1967SOL     OW 1546   2.114   3.426   1.744
 1967SOL    HW1 1547   2.084   3.483   1.820
 1967SOL    HW2 1548   2.107   3.329   1.770
 1968SOL     OW 1549   2.533   2.326   1.269
 1968SOL    HW1 1550   2.499   2.237   1.239
 1968SOL    HW2 1551   2.559   2.380   1.189
 1969SOL     OW 1552   2.792   3.540   1.465
 1969SOL    HW1 1553   2.768   3.522   1.370
 1969SOL    HW2 1554   2.822   3.634   1.475
 1971SOL     OW 1555   2.021   2.999   1.466
 1971SOL    HW1 1556   2.043   2.938   1.542
 1971SOL    HW2 1557   2.031   2.950   1.380
 1972SOL     OW 1558   3.209   2.921   1.234
 1972SOL    HW1 1559   3.233   2.858   1.160
 1972SOL    HW2 1560   3.119   2.961   1.216
 1976SOL     OW 1561   1.945   3.120   1.022
 1976SOL    HW1 1562   1.940   3.119   1.122
 1976SOL    HW2 1563   1.862   3.079   0.984
 1977SOL     OW 1564   2.550   3.524   1.716
 1977SOL    HW1 1565   2.494   3.605   1.725
 1977SOL    HW2 1566   2.602   3.528   1.630
 1981SOL     OW 1567   1.992   3.656   1.851
 1981SOL    HW1 1568   1.951   3.582   1.904
 1981SOL    HW2 1569   2.056   3.707   1.909
 1983SOL     OW 1570   2.692   3.135   1.422
 1983SOL    HW1 1571   2.687   3.168   1.517
 1983SOL    HW2 1572   2.606   3.154   1.376
 1987SOL     OW 1573   2.125   2.188   0.720
 1987SOL    HW1 1574   2.046   2.239   0.686
 1987SOL    HW2 1575   2.116   2.173   0.818
 1989SOL     OW 1576   2.684   2.864   1.372
 1989SOL    HW1 1577   2.724   2.863   1.280
 1989SOL    HW2 1578   2.694   2.956   1.412
 1992SOL     OW 1579   2.234   3.150   1.490
 1992SOL    HW1 1580   2.221   3.243   1.456
 1992SOL    HW2 1581   2.150   3.098   1.477
 1993SOL     OW 1582   3.476   3.154   1.289
 1993SOL    HW1 1583   3.536   3.157   1.369
 1993SOL    HW2 1584   3.401   3.218   1.302
 1995SOL     OW 1585   2.876   2.098   0.971
 1995SOL    HW1 1586   2.868   2.062   0.878
 1995SOL    HW2 1587   2.874   2.022   1.036
 1997SOL     OW 1588   3.571   2.247   1.381
 1997SOL    HW1 1589   3.644   2.316   1.385
 1997SOL    HW2 1590   3.599   2.172   1.322
 1999SOL     OW 1591   1.967   2.875   1.726
 1999SOL    HW1 1592   1.890   2.842   1.780
 1999SOL    HW2 1593   2.052   2.845   1.768
 2000SOL     OW 1594   2.534   2.065   1.489
 2000SOL    HW1 1595   2.624   2.049   1.449
 2000SOL    HW2 1596   2.542   2.070   1.588
 2002SOL     OW 1597   3.302   2.718   1.398
 2002SOL    HW1 1598   3.245   2.770   1.335
 2002SOL    HW2 1599   3.398   2.730   1.374
 2005SOL     OW 1600   2.475   2.704   1.431
 2005SOL    HW1 1601   2.531   2.785   1.414
 2005SOL    HW2 1602   2.534   2.624   1.434
 2007SOL     OW 1603   2.578   2.427   1.708
 2007SOL    HW1 1604   2.597   2.492   1.782
 2007SOL    HW2 1605   2.638   2.347   1.717
 2008SOL     OW 1606   3.312   3.082   1.633
 2008SOL    HW1 1607   3.303   3.072   1.732
 2008SOL    HW2 1608   3.408   3.075   1.607
 2009SOL     OW 1609   2.252   3.603   1.560
 2009SOL    HW1 1610   2.161   3.644   1.558
 2009SOL    HW2 1611   2.245   3.509   1.592
 2010SOL     OW 1612   3.536   2.745   1.254
 2010SOL    HW1 1613   3.509   2.656   1.217
 2010SOL    HW2 1614   3.537   2.813   1.181
 2012SOL     OW 1615   2.456   2.607   0.652
 2012SOL    HW1 1616   2.506   2.692   0.633
 2012SOL    HW2 1617   2.368   2.609   0.604
 2013SOL     OW 1618   3.639   2.204   1.642
 2013SOL    HW1 1619   3.622   2.235   1.548
 2013SOL    HW2 1620   3.555   2.167   1.680
 2014SOL     OW 1621   3.592   2.796   1.517
 2014SOL    HW1 1622   3.630   2.887   1.532
 2014SOL    HW2 1623   3.584   2.779   1.418
 2017SOL     OW 1624   2.721   2.818   0.861
 2017SOL    HW1 1625   2.775   2.749   0.909
 2017SOL    HW2 1626   2.689   2.887   0.927
 2020SOL     OW 1627   2.083   3.176   1.844
 2020SOL    HW1 1628   2.018   3.103   1.823
 2020SOL    HW2 1629   2.087   3.190   1.942
 2022SOL     OW 1630   2.534   3.253   1.624
 2022SOL    HW1 1631   2.456   3.203   1.662
 2022SOL    HW2 1632   2.531   3.348   1.655
 2023SOL     OW 1633   3.686   2.054   1.227
 2023SOL    HW1 1634   3.682   1.964   1.271
 2023SOL    HW2 1635   3.689   2.043   1.128
 2024SOL     OW 1636   2.290   2.286   0.520
 2024SOL    HW1 1637   2.320   2.214   0.458
 2024SOL    HW2 1638   2.251   2.246   0.603
 2026SOL     OW 1639   2.179   2.409   1.280
 2026SOL    HW1 1640   2.217   2.350   1.352
 2026SOL    HW2 1641   2.219   2.383   1.192
 2028SOL     OW 1642   3.286   2.076   1.112
 2028SOL    HW1 1643   3.338   2.011   1.167
 2028SOL    HW2 1644   3.237   2.139   1.173
 2029SOL     OW 1645   2.863   1.896   1.154
 2029SOL    HW1 1646   2.800   1.824   1.123
 2029SOL    HW2 1647   2.956   1.860   1.154
 2031SOL     OW 1648   2.480   3.429   1.284
 2031SOL    HW1 1649   2.475   3.511   1.341
 2031SOL    HW2 1650   2.569   3.426   1.239
 2037SOL     OW 1651   2.092   2.490   1.975
 2037SOL    HW1 1652   1.999   2.488   2.012
 2037SOL    HW2 1653   2.093   2.451   1.883
 2038SOL     OW 1654   2.087   2.137   2.858
 2038SOL    HW1 1655   2.122   2.120   2.950
 2038SOL    HW2 1656   1.999   2.092   2.846
 2039SOL     OW 1657   1.881   2.230   2.509
 2039SOL    HW1 1658   1.799   2.273   2.548
 2039SOL    HW2 1659   1.853   2.157   2.446
 2040SOL     OW 1660   2.431   3.137   3.027
 2040SOL    HW1 1661   2.338   3.130   2.990
 2040SOL    HW2 1662   2.442   3.226   3.071
 2041SOL     OW 1663   3.417   3.373   2.565
 2041SOL    HW1 1664   3.360   3.357   2.646
 2041SOL    HW2 1665   3.358   3.383   2.485
 2042SOL     OW 1666   2.997   2.565   2.579
 2042SOL    HW1 1667   3.054   2.643   2.554
 2042SOL    HW2 1668   2.937   2.591   2.655
 2043SOL     OW 1669   3.617   2.469   2.093
 2043SOL    HW1 1670   3.605   2.456   1.994
 2043SOL    HW2 1671   3.587   2.388   2.142
 2044SOL     OW 1672   2.630   3.006   2.885
 2044SOL    HW1 1673   2.552   3.023   2.945
 2044SOL    HW2 1674   2.664   3.093   2.849
 2045SOL     OW 1675   2.712   2.660   3.685
 2045SOL    HW1 1676   2.708   2.736   3.750
 2045SOL    HW2 1677   2.734   2.696   3.594
 2046SOL     OW 1678   2.547   2.874   2.527
 2046SOL    HW1 1679   2.616   2.858   2.597
 2046SOL    HW2 1680   2.474   2.931   2.565
 2047SOL     OW 1681   2.548   3.023   3.665
 2047SOL    HW1 1682   2.608   3.102   3.679
 2047SOL    HW2 1683   2.462   3.054   3.624
 2048SOL     OW 1684   2.197   3.297   2.923
 2048SOL    HW1 1685   2.119   3.266   2.870
 2048SOL    HW2 1686   2.255   3.355   2.866
 2049SOL     OW 1687   3.322   3.367   3.201
 2049SOL    HW1 1688   3.346   3.461   3.227
 2049SOL    HW2 1689   3.306   3.313   3.283
 2050SOL     OW 1690   2.300   2.254   3.361
 2050SOL    HW1 1691   2.382   2.198   3.370
 2050SOL    HW2 1692   2.219   2.196   3.365
 2051SOL     OW 1693   3.465   2.309   2.599
 2051SOL    HW1 1694   3.391   2.355   2.549
 2051SOL    HW2 1695   3.516   2.377   2.652
 2052SOL     OW 1696   2.093   3.575   2.345
 2052SOL    HW1 1697   2.127   3.652   2.399
 2052SOL    HW2 1698   2.137   3.575   2.255
 2053SOL     OW 1699   2.989   3.203   3.552
 2053SOL    HW1 1700   3.036   3.203   3.640
 2053SOL    HW2 1701   2.941   3.116   3.541
 2054SOL     OW 1702   2.092   3.296   2.400
 2054SOL    HW1 1703   2.066   3.392   2.400
 2054SOL    HW2 1704   2.021   3.242   2.445
 2055SOL     OW 1705   2.102   2.953   2.748
 2055SOL    HW1 1706   2.116   2.869   2.800
 2055SOL    HW2 1707   2.047   3.017   2.803
 2056SOL     OW 1708   2.482   3.648   3.301
 2056SOL    HW1 1709   2.390   3.631   3.336
 2056SOL    HW2 1710   2.510   3.740   3.327
 2057SOL     OW 1711   2.468   2.826   1.985
 2057SOL    HW1 1712   2.475   2.910   1.931
 2057SOL    HW2 1713   2.514   2.839   2.073
 2058SOL     OW 1714   3.456   1.976   3.342
 2058SOL    HW1 1715   3.438   2.043   3.270
 2058SOL    HW2 1716   3.453   2.022   3.431
 2060SOL     OW 1717   1.889   3.458   1.979
 2060SOL    HW1 1718   1.870   3.362   2.000
 2060SOL    HW2 1719   1.856   3.516   2.054
 2061SOL     OW 1720   3.551   2.784   2.474
 2061SOL    HW1 1721   3.646   2.755   2.482
 2061SOL    HW2 1722   3.543   2.849   2.399
 2062SOL     OW 1723   3.503   2.970   2.294
 2062SOL    HW1 1724   3.589   2.972   2.242
 2062SOL    HW2 1725   3.517   3.017   2.382
 2063SOL     OW 1726   1.975   2.599   3.459
 2063SOL    HW1 1727   2.063   2.586   3.504
 2063SOL    HW2 1728   1.962   2.696   3.437
 2064SOL     OW 1729   2.475   3.227   2.588
 2064SOL    HW1 1730   2.426   3.140   2.597
 2064SOL    HW2 1731   2.452   3.270   2.501
 2065SOL     OW 1732   3.155   3.090   3.285
 2065SOL    HW1 1733   3.192   3.017   3.227
 2065SOL    HW2 1734   3.207   3.095   3.370
 2066SOL     OW 1735   2.671   1.866   2.364
 2066SOL    HW1 1736   2.711   1.957   2.355
 2066SOL    HW2 1737   2.571   1.874   2.370
 2067SOL     OW 1738   2.059   2.838   3.126
 2067SOL    HW1 1739   2.148   2.793   3.112
 2067SOL    HW2 1740   1.986   2.773   3.107
 2068SOL     OW 1741   3.387   2.861   2.052
 2068SOL    HW1 1742   3.324   2.785   2.065
 2068SOL    HW2 1743   3.435   2.879   2.138
 2070SOL     OW 1744   2.179   2.113   3.663
 2070SOL    HW1 1745   2.250   2.184   3.669
 2070SOL    HW2 1746   2.091   2.152   3.691
 2071SOL     OW 1747   3.328   3.279   2.815
 2071SOL    HW1 1748   3.269   3.285   2.895
 2071SOL    HW2 1749   3.313   3.191   2.769
 2072SOL     OW 1750   3.529   3.576   2.434
 2072SOL    HW1 1751   3.488   3.553   2.346
 2072SOL    HW2 1752   3.511   3.502   2.499
 2073SOL     OW 1753   2.460   2.591   2.132
 2073SOL    HW1 1754   2.484   2.660   2.064
 2073SOL    HW2 1755   2.382   2.624   2.186
 2074SOL     OW 1756   3.143   2.207   2.806
 2074SOL    HW1 1757   3.057   2.157   2.793
 2074SOL    HW2 1758   3.205   2.153   2.862
 2075SOL     OW 1759   3.438   3.524   2.169
 2075SOL    HW1 1760   3.527   3.570   2.172
 2075SOL    HW2 1761   3.417   3.500   2.074
 2076SOL     OW 1762   2.669   2.467   3.327
 2076SOL    HW1 1763   2.622   2.464   3.416
 2076SOL    HW2 1764   2.618   2.412   3.261
 2077SOL     OW 1765   3.256   2.331   3.536
 2077SOL    HW1 1766   3.236   2.374   3.624
 2077SOL    HW2 1767   3.334   2.269   3.545
 2078SOL     OW 1768   2.835   2.752   3.434
 2078SOL    HW1 1769   2.881   2.668   3.405
 2078SOL    HW2 1770   2.779   2.786   3.359
 2079SOL     OW 1771   2.853   2.272   3.104
 2079SOL    HW1 1772   2.776   2.306   3.158
 2079SOL    HW2 1773   2.819   2.221   3.025
 2080SOL     OW 1774   2.903   2.563   2.291
 2080SOL    HW1 1775   2.929   2.559   2.387
 2080SOL    HW2 1776   2.818   2.512   2.277
 2081SOL     OW 1777   1.938   2.673   2.651
 2081SOL    HW1 1778   2.037   2.661   2.660
 2081SOL    HW2 1779   1.914   2.768   2.672
 2083SOL     OW 1780   2.727   2.210   2.057
 2083SOL    HW1 1781   2.786   2.273   2.008
 2083SOL    HW2 1782   2.746   2.116   2.028
 2085SOL     OW 1783   3.224   3.006   2.407
 2085SOL    HW1 1784   3.307   2.977   2.359
 2085SOL    HW2 1785   3.175   3.073   2.351
 2086SOL     OW 1786   2.412   2.058   2.747
 2086SOL    HW1 1787   2.407   2.053   2.847
 2086SOL    HW2 1788   2.414   2.154   2.718
 2087SOL     OW 1789   2.870   3.318   2.339
 2087SOL    HW1 1790   2.824   3.390   2.287
 2087SOL    HW2 1791   2.866   3.338   2.437
 2088SOL     OW 1792   2.213   3.663   2.715
 2088SOL    HW1 1793   2.263   3.577   2.721
 2088SOL    HW2 1794   2.278   3.740   2.712
 2089SOL     OW 1795   3.657   2.928   2.735
 2089SOL    HW1 1796   3.595   2.913   2.659
 2089SOL    HW2 1797   3.605   2.939   2.820
 2090SOL     OW 1798   3.089   3.412   3.368
 2090SOL    HW1 1799   3.095   3.335   3.432
 2090SOL    HW2 1800   3.037   3.386   3.288
 2091SOL     OW 1801   2.183   2.805   2.104
 2091SOL    HW1 1802   2.265   2.844   2.062
 2091SOL    HW2 1803   2.156   2.723   2.055
 2092SOL     OW 1804   3.320   2.597   2.590
 2092SOL    HW1 1805   3.315   2.532   2.665
 2092SOL    HW2 1806   3.400   2.656   2.603
 2093SOL     OW 1807   2.323   3.128   3.589
 2093SOL    HW1 1808   2.273   3.129   3.503
 2093SOL    HW2 1809   2.260   3.110   3.665
 2094SOL     OW 1810   2.973   3.638   2.099
 2094SOL    HW1 1811   2.913   3.576   2.149
 2094SOL    HW2 1812   3.004   3.594   2.014
 2095SOL     OW 1813   2.064   2.147   3.360
 2095SOL    HW1 1814   1.984   2.207   3.347
 2095SOL    HW2 1815   2.054   2.098   3.446
 2096SOL     OW 1816   3.494   3.239   1.943
 2096SOL    HW1 1817   3.462   3.333   1.933
 2096SOL    HW2 1818   3.418   3.176   1.931
 2097SOL     OW 1819   2.326   3.605   2.185
 2097SOL    HW1 1820   2.359   3.644   2.271
 2097SOL    HW2 1821   2.402   3.598   2.120
 2098SOL     OW 1822   3.262   1.969   2.288
 2098SOL    HW1 1823   3.238   1.932   2.198
 2098SOL    HW2 1824   3.361   1.985   2.292
 2099SOL     OW 1825   2.111   3.647   3.103
 2099SOL    HW1 1826   2.168   3.582   3.153
 2099SOL    HW2 1827   2.095   3.614   3.010
 2100SOL     OW 1828   2.802   3.560   2.766
 2100SOL    HW1 1829   2.882   3.503   2.787
 2100SOL    HW2 1830   2.753   3.520   2.689
 2101SOL     OW 1831   3.409   2.084   3.591
 2101SOL    HW1 1832   3.404   2.121   3.683
 2101SOL    HW2 1833   3.337   2.015   3.579
 2102SOL     OW 1834   2.476   1.984   1.979
 2102SOL    HW1 1835   2.574   1.962   1.986
 2102SOL    HW2 1836   2.445   1.967   1.886
 2103SOL     OW 1837   2.643   2.126   3.611
 2103SOL    HW1 1838   2.710   2.065   3.654
 2103SOL    HW2 1839   2.570   2.145   3.676
 2104SOL     OW 1840   2.750   3.376   3.057
 2104SOL    HW1 1841   2.727   3.351   2.963
 2104SOL    HW2 1842   2.811   3.307   3.096
 2105SOL     OW 1843   3.213   2.452   3.295
 2105SOL    HW1 1844   3.241   2.409   3.380
 2105SOL    HW2 1845   3.238   2.548   3.296
 2106SOL     OW 1846   2.665   3.264   2.786
 2106SOL    HW1 1847   2.755   3.278   2.744
 2106SOL    HW2 1848   2.594   3.266   2.715
 2107SOL     OW 1849   2.784   2.365   2.761
 2107SOL    HW1 1850   2.759   2.356   2.665
 2107SOL    HW2 1851   2.832   2.283   2.792
 2108SOL     OW 1852   2.401   1.926   2.374
 2108SOL    HW1 1853   2.320   1.927   2.432
 2108SOL    HW2 1854   2.404   2.009   2.319
 2109SOL     OW 1855   3.296   3.050   1.903
 2109SOL    HW1 1856   3.328   2.974   1.960
 2109SOL    HW2 1857   3.204   3.077   1.933
 2110SOL     OW 1858   2.159   1.897   2.033
 2110SOL    HW1 1859   2.208   1.981   2.012
 2110SOL    HW2 1860   2.221   1.832   2.078
 2111SOL     OW 1861   2.797   2.098   2.342
 2111SOL    HW1 1862   2.749   2.139   2.264
 2111SOL    HW2 1863   2.896   2.096   2.323
 2112SOL     OW 1864   2.938   2.545   3.326
 2112SOL    HW1 1865   2.858   2.484   3.329
 2112SOL    HW2 1866   3.019   2.492   3.302
 2113SOL     OW 1867   3.089   3.432   2.655
 2113SOL    HW1 1868   3.110   3.506   2.590
 2113SOL    HW2 1869   3.157   3.432   2.728
 2114SOL     OW 1870   2.321   3.014   2.603
 2114SOL    HW1 1871   2.250   2.987   2.668
 2114SOL    HW2 1872   2.295   2.986   2.510
 2115SOL     OW 1873   3.133   3.659   2.453
 2115SOL    HW1 1874   3.177   3.723   2.389
 2115SOL    HW2 1875   3.083   3.711   2.523
 2116SOL     OW 1876   2.894   2.411   1.878
 2116SOL    HW1 1877   2.853   2.493   1.839
 2116SOL    HW2 1878   2.958   2.437   1.951
 2117SOL     OW 1879   1.940   2.418   3.248
 2117SOL    HW1 1880   2.032   2.417   3.207
 2117SOL    HW2 1881   1.934   2.492   3.315
 2118SOL     OW 1882   2.423   2.084   3.009
 2118SOL    HW1 1883   2.461   2.000   3.046
 2118SOL    HW2 1884   2.335   2.103   3.053
 2119SOL     OW 1885   2.728   2.316   2.504
 2119SOL    HW1 1886   2.696   2.388   2.442
 2119SOL    HW2 1887   2.752   2.235   2.451
 2120SOL     OW 1888   2.879   1.901   2.615
 2120SOL    HW1 1889   2.807   1.906   2.546
 2120SOL    HW2 1890   2.855   1.832   2.684
 2121SOL     OW 1891   3.291   3.035   2.729
 2121SOL    HW1 1892   3.236   2.951   2.722
 2121SOL    HW2 1893   3.317   3.064   2.637
 2122SOL     OW 1894   3.328   2.452   2.854
 2122SOL    HW1 1895   3.298   2.357   2.861
 2122SOL    HW2 1896   3.401   2.468   2.920
 2123SOL     OW 1897   3.719   2.695   2.239
 2123SOL    HW1 1898   3.761   2.631   2.303
 2123SOL    HW2 1899   3.681   2.644   2.161
 2124SOL     OW 1900   2.350   3.247   2.036
 2124SOL    HW1 1901   2.263   3.232   2.083
 2124SOL    HW2 1902   2.333   3.273   1.941
 2125SOL     OW 1903   3.526   3.142   2.519
 2125SOL    HW1 1904   3.625   3.150   2.533
 2125SOL    HW2 1905   3.481   3.226   2.550
 2126SOL     OW 1906   3.252   2.437   1.940
 2126SOL    HW1 1907   3.198   2.416   2.021
 2126SOL    HW2 1908   3.343   2.396   1.949
 2128SOL     OW 1909   2.926   3.209   3.202
 2128SOL    HW1 1910   2.846   3.186   3.257
 2128SOL    HW2 1911   3.009   3.183   3.251
 2130SOL     OW 1912   2.973   3.057   2.962
 2130SOL    HW1 1913   2.933   3.101   3.043
 2130SOL    HW2 1914   2.932   3.094   2.879
 2131SOL     OW 1915   3.500   2.961   2.941
 2131SOL    HW1 1916   3.505   3.042   3.000
 2131SOL    HW2 1917   3.414   2.963   2.890
 2132SOL     OW 1918   2.777   1.951   3.264
 2132SOL    HW1 1919   2.802   1.931   3.169
 2132SOL    HW2 1920   2.849   2.007   3.306
 2133SOL     OW 1921   2.842   2.978   3.581
 2133SOL    HW1 1922   2.743   2.984   3.591
 2133SOL    HW2 1923   2.865   2.898   3.525
 2134SOL     OW 1924   2.567   2.912   2.230
 2134SOL    HW1 1925   2.553   2.919   2.329
 2134SOL    HW2 1926   2.651   2.861   2.212
 2135SOL     OW 1927   2.272   2.675   3.113
 2135SOL    HW1 1928   2.358   2.687   3.163
 2135SOL    HW2 1929   2.230   2.588   3.140
 2136SOL     OW 1930   3.136   2.248   3.124
 2136SOL    HW1 1931   3.157   2.322   3.188
 2136SOL    HW2 1932   3.047   2.265   3.081
 2137SOL     OW 1933   1.926   3.426   3.193
 2137SOL    HW1 1934   1.880   3.508   3.159
 2137SOL    HW2 1935   2.024   3.445   3.202
 2138SOL     OW 1936   2.229   2.962   2.363
 2138SOL    HW1 1937   2.222   3.045   2.307
 2138SOL    HW2 1938   2.233   2.882   2.303
 2139SOL     OW 1939   2.428   2.399   2.727
 2139SOL    HW1 1940   2.440   2.465   2.653
 2139SOL    HW2 1941   2.474   2.433   2.810
 2140SOL     OW 1942   3.114   3.210   2.250
 2140SOL    HW1 1943   3.164   3.287   2.290
 2140SOL    HW2 1944   3.019   3.212   2.282
 2141SOL     OW 1945   3.134   3.307   3.004
 2141SOL    HW1 1946   3.181   3.320   3.091
 2141SOL    HW2 1947   3.068   3.233   3.013
 2142SOL     OW 1948   3.444   2.501   2.334
 2142SOL    HW1 1949   3.413   2.562   2.407
 2142SOL    HW2 1950   3.494   2.553   2.265
 2143SOL     OW 1951   2.216   3.372   3.191
 2143SOL    HW1 1952   2.195   3.328   3.104
 2143SOL    HW2 1953   2.313   3.398   3.194
 2144SOL     OW 1954   2.264   2.613   3.460
 2144SOL    HW1 1955   2.332   2.668   3.413
 2144SOL    HW2 1956   2.304   2.525   3.487
 2145SOL     OW 1957   3.449   2.641   3.532
 2145SOL    HW1 1958   3.357   2.679   3.527
 2145SOL    HW2 1959   3.509   2.688   3.467
 2146SOL     OW 1960   2.875   1.967   3.632
 2146SOL    HW1 1961   2.881   2.052   3.580
 2146SOL    HW2 1962   2.907   1.891   3.575
 2147SOL     OW 1963   2.366   1.912   3.602
 2147SOL    HW1 1964   2.324   1.855   3.532
 2147SOL    HW2 1965   2.300   1.981   3.634
 2148SOL     OW 1966   2.435   2.732   2.891
 2148SOL    HW1 1967   2.479   2.821   2.882
 2148SOL    HW2 1968   2.372   2.732   2.968
 2149SOL     OW 1969   3.222   2.724   2.907
 2149SOL    HW1 1970   3.147   2.724   2.841
 2149SOL    HW2 1971   3.259   2.632   2.916
 2150SOL     OW 1972   3.071   2.387   2.137
 2150SOL    HW1 1973   3.084   2.303   2.191
 2150SOL    HW2 1974   3.042   2.461   2.197
 2151SOL     OW 1975   2.169   2.075   3.093
 2151SOL    HW1 1976   2.146   2.112   3.183
 2151SOL    HW2 1977   2.139   1.980   3.087
 2152SOL     OW 1978   1.899   3.172   3.144
 2152SOL    HW1 1979   1.952   3.123   3.212
 2152SOL    HW2 1980   1.921   3.270   3.149
 2153SOL     OW 1981   2.594   2.496   2.926
 2153SOL    HW1 1982   2.653   2.470   2.850
 2153SOL    HW2 1983   2.566   2.592   2.915
 2155SOL     OW 1984   2.169   1.925   2.480
 2155SOL    HW1 1985   2.158   2.019   2.513
 2155SOL    HW2 1986   2.164   1.862   2.557
 2156SOL     OW 1987   3.484   2.229   2.236
 2156SOL    HW1 1988   3.486   2.153   2.300
 2156SOL    HW2 1989   3.436   2.306   2.276
 2157SOL     OW 1990   2.885   2.628   2.828
 2157SOL    HW1 1991   2.900   2.649   2.924
 2157SOL    HW2 1992   2.855   2.533   2.819
 2158SOL     OW 1993   2.842   3.435   3.562
 2158SOL    HW1 1994   2.822   3.479   3.474
 2158SOL    HW2 1995   2.881   3.344   3.546
 2160SOL     OW 1996   2.212   2.760   3.666
 2160SOL    HW1 1997   2.288   2.804   3.714
 2160SOL    HW2 1998   2.247   2.713   3.584
 2161SOL     OW 1999   3.402   2.136   1.987
 2161SOL    HW1 2000   3.341   2.061   2.010
 2161SOL    HW2 2001   3.424   2.188   2.070
 2162SOL     OW 2002   3.165   2.700   1.904
 2162SOL    HW1 2003   3.199   2.607   1.919
 2162SOL    HW2 2004   3.183   2.727   1.809
 2163SOL     OW 2005   2.930   3.195   2.711
 2163SOL    HW1 2006   2.937   3.111   2.656
 2163SOL    HW2 2007   2.992   3.264   2.675
 2164SOL     OW 2008   2.181   2.672   2.811
 2164SOL    HW1 2009   2.274   2.708   2.816
 2164SOL    HW2 2010   2.175   2.587   2.863
 2165SOL     OW 2011   2.201   2.371   2.868
 2165SOL    HW1 2012   2.149   2.288   2.851
 2165SOL    HW2 2013   2.278   2.376   2.804
 2166SOL     OW 2014   3.000   2.242   3.540
 2166SOL    HW1 2015   2.955   2.305   3.604
 2166SOL    HW2 2016   3.093   2.273   3.523
 2167SOL     OW 2017   3.022   2.069   3.339
 2167SOL    HW1 2018   3.022   2.133   3.416
 2167SOL    HW2 2019   3.050   2.117   3.256
 2168SOL     OW 2020   1.870   3.188   2.062
 2168SOL    HW1 2021   1.777   3.209   2.031
 2168SOL    HW2 2022   1.880   3.089   2.075
 2169SOL     OW 2023   1.950   3.663   2.789
 2169SOL    HW1 2024   1.908   3.577   2.762
 2169SOL    HW2 2025   2.044   3.666   2.755
 2170SOL     OW 2026   2.366   3.430   2.772
 2170SOL    HW1 2027   2.432   3.504   2.781
 2170SOL    HW2 2028   2.410   3.351   2.730
 2171SOL     OW 2029   2.864   2.658   3.100
 2171SOL    HW1 2030   2.905   2.626   3.186
 2171SOL    HW2 2031   2.768   2.631   3.097
 2172SOL     OW 2032   1.902   2.406   2.976
 2172SOL    HW1 2033   1.987   2.373   2.935
 2172SOL    HW2 2034   1.915   2.421   3.074
 2173SOL     OW 2035   2.051   2.382   3.584
 2173SOL    HW1 2036   2.110   2.342   3.514
 2173SOL    HW2 2037   1.993   2.453   3.543
 2174SOL     OW 2038   3.231   2.812   3.522
 2174SOL    HW1 2039   3.270   2.901   3.542
 2174SOL    HW2 2040   3.241   2.792   3.425
 2175SOL     OW 2041   2.677   2.434   2.187
 2175SOL    HW1 2042   2.684   2.345   2.141
 2175SOL    HW2 2043   2.583   2.468   2.179
 2176SOL     OW 2044   3.519   2.466   3.068
 2176SOL    HW1 2045   3.481   2.397   3.130
 2176SOL    HW2 2046   3.601   2.430   3.024
 2177SOL     OW 2047   2.114   3.426   3.606
 2177SOL    HW1 2048   2.084   3.483   3.682
 2177SOL    HW2 2049   2.107   3.329   3.632
 2178SOL     OW 2050   2.533   2.326   3.131
 2178SOL    HW1 2051   2.499   2.237   3.101
 2178SOL    HW2 2052   2.559   2.380   3.051
 2179SOL     OW 2053   2.792   3.540   3.327
 2179SOL    HW1 2054   2.768   3.522   3.232
 2179SOL    HW2 2055   2.822   3.634   3.337
 2180SOL     OW 2056   2.021   2.999   3.328
 2180SOL    HW1 2057   2.043   2.938   3.404
 2180SOL    HW2 2058   2.031   2.950   3.242
 2181SOL     OW 2059   3.209   2.921   3.096
 2181SOL    HW1 2060   3.233   2.858   3.022
 2181SOL    HW2 2061   3.119   2.961   3.078
 2182SOL     OW 2062   3.164   2.717   2.171
 2182SOL    HW1 2063   3.078   2.686   2.213
 2182SOL    HW2 2064   3.160   2.703   2.072
 2184SOL     OW 2065   3.114   3.593   2.990
 2184SOL    HW1 2066   3.198   3.598   2.936
 2184SOL    HW2 2067   3.091   3.497   3.008
 2185SOL     OW 2068   1.945   3.120   2.884
 2185SOL    HW1 2069   1.940   3.119   2.984
 2185SOL    HW2 2070   1.862   3.079   2.846
 2186SOL     OW 2071   2.550   3.524   3.578
 2186SOL    HW1 2072   2.494   3.605   3.587
 2186SOL    HW2 2073   2.602   3.528   3.492
 2187SOL     OW 2074   3.588   1.997   2.385
 2187SOL    HW1 2075   3.661   1.980   2.318
 2187SOL    HW2 2076   3.557   1.910   2.423
 2188SOL     OW 2077   3.250   3.435   2.339
 2188SOL    HW1 2078   3.317   3.447   2.265
 2188SOL    HW2 2079   3.210   3.524   2.362
 2190SOL     OW 2080   3.142   2.789   2.534
 2190SOL    HW1 2081   3.202   2.708   2.536
 2190SOL    HW2 2082   3.182   2.858   2.474
 2191SOL     OW 2083   2.692   3.135   3.284
 2191SOL    HW1 2084   2.687   3.168   3.379
 2191SOL    HW2 2085   2.606   3.154   3.238
 2192SOL     OW 2086   2.534   3.478   2.016
 2192SOL    HW1 2087   2.543   3.488   1.917
 2192SOL    HW2 2088   2.494   3.389   2.037
 2194SOL     OW 2089   3.703   2.037   2.825
 2194SOL    HW1 2090   3.742   1.952   2.789
 2194SOL    HW2 2091   3.605   2.039   2.806
 2195SOL     OW 2092   3.056   3.474   1.893
 2195SOL    HW1 2093   3.062   3.381   1.930
 2195SOL    HW2 2094   2.997   3.474   1.813
 2196SOL     OW 2095   2.684   2.864   3.234
 2196SOL    HW1 2096   2.724   2.863   3.142
 2196SOL    HW2 2097   2.694   2.956   3.274
 2197SOL     OW 2098   2.778   2.772   2.153
 2197SOL    HW1 2099   2.841   2.810   2.085
 2197SOL    HW2 2100   2.818   2.689   2.192
 2198SOL     OW 2101   3.366   3.469   1.906
 2198SOL    HW1 2102   3.274   3.506   1.913
 2198SOL    HW2 2103   3.404   3.489   1.816
 2199SOL     OW 2104   2.234   3.150   3.352
 2199SOL    HW1 2105   2.221   3.243   3.318
 2199SOL    HW2 2106   2.150   3.098   3.339
 2200SOL     OW 2107   3.476   3.154   3.151
 2200SOL    HW1 2108   3.536   3.157   3.231
 2200SOL    HW2 2109   3.401   3.218   3.164
 2201SOL     OW 2110   2.901   2.960   2.558
 2201SOL    HW1 2111   2.831   2.913   2.612
 2201SOL    HW2 2112   2.960   2.892   2.515
 2202SOL     OW 2113   2.876   2.098   2.833
 2202SOL    HW1 2114   2.868   2.062   2.740
 2202SOL    HW2 2115   2.874   2.022   2.898
 2203SOL     OW 2116   2.452   3.349   2.353
 2203SOL    HW1 2117   2.494   3.291   2.283
 2203SOL    HW2 2118   2.408   3.428   2.309
 2204SOL     OW 2119   3.571   2.247   3.243
 2204SOL    HW1 2120   3.644   2.316   3.247
 2204SOL    HW2 2121   3.599   2.172   3.184
 2205SOL     OW 2122   2.117   3.210   2.152
 2205SOL    HW1 2123   2.021   3.211   2.125
 2205SOL    HW2 2124   2.129   3.263   2.236
 2206SOL     OW 2125   1.967   2.875   3.588
 2206SOL    HW1 2126   1.890   2.842   3.642
 2206SOL    HW2 2127   2.052   2.845   3.630
 2207SOL     OW 2128   2.534   2.065   3.351
 2207SOL    HW1 2129   2.624   2.049   3.311
 2207SOL    HW2 2130   2.542   2.070   3.450
 2208SOL     OW 2131   1.937   2.207   1.895
 2208SOL    HW1 2132   1.845   2.179   1.866
 2208SOL    HW2 2133   1.968   2.284   1.839
 2209SOL     OW 2134   3.302   2.718   3.260
 2209SOL    HW1 2135   3.245   2.770   3.197
 2209SOL    HW2 2136   3.398   2.730   3.236
 2210SOL     OW 2137   1.934   2.028   2.180
 2210SOL    HW1 2138   1.917   2.111   2.126
 2210SOL    HW2 2139   2.024   1.991   2.158
 2211SOL     OW 2140   3.045   3.197   1.981
 2211SOL    HW1 2141   2.946   3.186   1.983
 2211SOL    HW2 2142   3.079   3.212   2.074
 2212SOL     OW 2143   2.475   2.704   3.293
 2212SOL    HW1 2144   2.531   2.785   3.276
 2212SOL    HW2 2145   2.534   2.624   3.296
 2213SOL     OW 2146   3.355   3.629   2.821
 2213SOL    HW1 2147   3.388   3.693   2.752
 2213SOL    HW2 2148   3.421   3.623   2.896
 2214SOL     OW 2149   2.578   2.427   3.570
 2214SOL    HW1 2150   2.597   2.492   3.644
 2214SOL    HW2 2151   2.638   2.347   3.579
 2215SOL     OW 2152   3.312   3.082   3.495
 2215SOL    HW1 2153   3.303   3.072   3.594
 2215SOL    HW2 2154   3.408   3.075   3.469
 2216SOL     OW 2155   2.252   3.603   3.422
 2216SOL    HW1 2156   2.161   3.644   3.420
 2216SOL    HW2 2157   2.245   3.509   3.454
 2217SOL     OW 2158   3.536   2.745   3.116
 2217SOL    HW1 2159   3.509   2.656   3.079
 2217SOL    HW2 2160   3.537   2.813   3.043
 2218SOL     OW 2161   3.087   2.187   2.311
 2218SOL    HW1 2162   3.152   2.113   2.300
 2218SOL    HW2 2163   3.107   2.237   2.395
 2219SOL     OW 2164   3.639   2.204   3.504
 2219SOL    HW1 2165   3.622   2.235   3.410
 2219SOL    HW2 2166   3.555   2.167   3.542
 2220SOL     OW 2167   3.592   2.796   3.379
 2220SOL    HW1 2168   3.630   2.887   3.394
 2220SOL    HW2 2169   3.584   2.779   3.280
 2221SOL     OW 2170   2.721   3.236   1.878
 2221SOL    HW1 2171   2.675   3.251   1.966
 2221SOL    HW2 2172   2.765   3.321   1.848
 2222SOL     OW 2173   2.523   3.652   2.815
 2222SOL    HW1 2174   2.477   3.740   2.802
 2222SOL    HW2 2175   2.622   3.664   2.808
 2223SOL     OW 2176   2.721   2.818   2.723
 2223SOL    HW1 2177   2.775   2.749   2.771
 2223SOL    HW2 2178   2.689   2.887   2.789
 2224SOL     OW 2179   2.945   2.846   1.949
 2224SOL    HW1 2180   2.922   2.899   1.867
 2224SOL    HW2 2181   3.026   2.790   1.930
 2226SOL     OW 2182   2.083   3.176   3.706
 2226SOL    HW1 2183   2.018   3.103   3.685
 2226SOL    HW2 2184   2.087   3.190   3.804
 2227SOL     OW 2185   1.941   3.102   2.515
 2227SOL    HW1 2186   1.940   3.055   2.603
 2227SOL    HW2 2187   2.023   3.074   2.464
 2228SOL     OW 2188   2.534   3.253   3.486
 2228SOL    HW1 2189   2.456   3.203   3.524
 2228SOL    HW2 2190   2.531   3.348   3.517
 2229SOL     OW 2191   3.686   2.054   3.089
 2229SOL    HW1 2192   3.682   1.964   3.133
 2229SOL    HW2 2193   3.689   2.043   2.990
 2230SOL     OW 2194   3.567   3.349   2.966
 2230SOL    HW1 2195   3.474   3.324   2.939
 2230SOL    HW2 2196   3.593   3.299   3.048
 2231SOL     OW 2197   2.179   2.409   3.142
 2231SOL    HW1 2198   2.217   2.350   3.214
 2231SOL    HW2 2199   2.219   2.383   3.054
 2232SOL     OW 2200   2.674   3.448   2.549
 2232SOL    HW1 2201   2.706   3.458   2.455
 2232SOL    HW2 2202   2.595   3.386   2.551
 2233SOL     OW 2203   3.286   2.076   2.974
 2233SOL    HW1 2204   3.338   2.011   3.029
 2233SOL    HW2 2205   3.237   2.139   3.035
 2234SOL     OW 2206   2.863   1.896   3.016
 2234SOL    HW1 2207   2.800   1.824   2.985
 2234SOL    HW2 2208   2.956   1.860   3.016
 2235SOL     OW 2209   2.632   3.192   2.163
 2235SOL    HW1 2210   2.586   3.105   2.180
 2235SOL    HW2 2211   2.723   3.189   2.204
 2236SOL     OW 2212   2.480   3.429   3.146
 2236SOL    HW1 2213   2.475   3.511   3.203
 2236SOL    HW2 2214   2.569   3.426   3.101
 2237SOL     OW 2215   3.214   1.914   2.030
 2237SOL    HW1 2216   3.249   1.873   1.946
 2237SOL    HW2 2217   3.124   1.876   2.050
 2238SOL     OW 2218   3.162   2.315   2.553
 2238SOL    HW1 2219   3.103   2.395   2.557
 2238SOL    HW2 2220   3.177   2.280   2.646
 2239SOL     OW 2221   3.455   2.083   2.744
 2239SOL    HW1 2222   3.371   2.082   2.798
 2239SOL    HW2 2223   3.457   2.166   2.688
 2240SOL     OW 2224   1.901   2.939   2.162
 2240SOL    HW1 2225   2.000   2.928   2.153
 2240SOL    HW2 2226   1.861   2.853   2.194
 2241SOL     OW 2227   2.737   3.508   2.199
 2241SOL    HW1 2228   2.660   3.473   2.145
 2241SOL    HW2 2229   2.705   3.579   2.261
 2242SOL     OW 2230   2.092   2.490   3.837
 2242SOL    HW1 2231   1.999   2.488   3.874
 2242SOL    HW2 2232   2.093   2.451   3.745
 2253SOL     OW 2233   2.468   2.826   3.847
 2253SOL    HW1 2234   2.475   2.910   3.793
 2253SOL    HW2 2235   2.514   2.839   3.935
 2263SOL     OW 2236   2.460   2.591   3.994
 2263SOL    HW1 2237   2.484   2.660   3.926
 2263SOL    HW2 2238   2.382   2.624   4.048
 2268SOL     OW 2239   2.727   2.210   3.919
 2268SOL    HW1 2240   2.786   2.273   3.870
 2268SOL    HW2 2241   2.746   2.116   3.890
 2274SOL     OW 2242   2.183   2.805   3.966
 2274SOL    HW1 2243   2.265   2.844   3.924
 2274SOL    HW2 2244   2.156   2.723   3.917
 2282SOL     OW 2245   2.476   1.984   3.841
 2282SOL    HW1 2246   2.574   1.962   3.848
 2282SOL    HW2 2247   2.445   1.967   3.748
 2285SOL     OW 2248   2.159   1.897   3.895
 2285SOL    HW1 2249   2.208   1.981   3.874
 2285SOL    HW2 2250   2.221   1.832   3.940
 2289SOL     OW 2251   2.894   2.411   3.740
 2289SOL    HW1 2252   2.853   2.493   3.701
 2289SOL    HW2 2253   2.958   2.437   3.813
 2295SOL     OW 2254   3.252   2.437   3.802
 2295SOL    HW1 2255   3.198   2.416   3.883
 2295SOL    HW2 2256   3.343   2.396   3.811
 2296SOL     OW 2257   2.389   2.118   4.052
 2296SOL    HW1 2258   2.416   2.059   3.977
 2296SOL    HW2 2259   2.389   2.213   4.021
 2306SOL     OW 2260   3.165   2.700   3.766
 2306SOL    HW1 2261   3.199   2.607   3.781
 2306SOL    HW2 2262   3.183   2.727   3.671
 2310SOL     OW 2263   2.677   2.434   4.049
 2310SOL    HW1 2264   2.684   2.345   4.003
 2310SOL    HW2 2265   2.583   2.468   4.041
 2311SOL     OW 2266   2.335   2.362   3.915
 2311SOL    HW1 2267   2.396   2.442   3.919
 2311SOL    HW2 2268   2.240   2.393   3.922
 2325SOL     OW 2269   1.937   2.207   3.757
 2325SOL    HW1 2270   1.845   2.179   3.728
 2325SOL    HW2 2271   1.968   2.284   3.701
 2326SOL     OW 2272   1.934   2.028   4.042
 2326SOL    HW1 2273   1.917   2.111   3.988
 2326SOL    HW2 2274   2.024   1.991   4.020
 2330SOL     OW 2275   2.721   3.236   3.740
 2330SOL    HW1 2276   2.675   3.251   3.828
 2330SOL    HW2 2277   2.765   3.321   3.710
 2333SOL     OW 2278   2.945   2.846   3.811
 2333SOL    HW1 2279   2.922   2.899   3.729
 2333SOL    HW2 2280   3.026   2.790   3.792
 2355SOL     OW 2281   2.179   3.975   1.801
 2355SOL    HW1 2282   2.250   4.046   1.807
 2355SOL    HW2 2283   2.091   4.014   1.829
 2395SOL     OW 2284   2.875   3.829   1.770
 2395SOL    HW1 2285   2.881   3.914   1.718
 2395SOL    HW2 2286   2.907   3.753   1.713
 2396SOL     OW 2287   2.366   3.774   1.740
 2396SOL    HW1 2288   2.324   3.717   1.670
 2396SOL    HW2 2289   2.300   3.843   1.772
 2443SOL     OW 2290   2.087   3.999   2.858
 2443SOL    HW1 2291   2.122   3.982   2.950
 2443SOL    HW2 2292   1.999   3.954   2.846
 2454SOL     OW 2293   2.671   3.728   2.364
 2454SOL    HW1 2294   2.711   3.819   2.355
 2454SOL    HW2 2295   2.571   3.736   2.370
 2465SOL     OW 2296   2.412   3.920   2.747
 2465SOL    HW1 2297   2.407   3.915   2.847
 2465SOL    HW2 2298   2.414   4.016   2.718
 2471SOL     OW 2299   2.476   3.846   1.979
 2471SOL    HW1 2300   2.574   3.824   1.986
 2471SOL    HW2 2301   2.445   3.829   1.886
 2475SOL     OW 2302   2.401   3.788   2.374
 2475SOL    HW1 2303   2.320   3.789   2.432
 2475SOL    HW2 2304   2.404   3.871   2.319
 2476SOL     OW 2305   2.159   3.759   2.033
 2476SOL    HW1 2306   2.208   3.843   2.012
 2476SOL    HW2 2307   2.221   3.694   2.078
 2477SOL     OW 2308   2.797   3.960   2.342
 2477SOL    HW1 2309   2.749   4.001   2.264
 2477SOL    HW2 2310   2.896   3.958   2.323
 2481SOL     OW 2311   2.423   3.946   3.009
 2481SOL    HW1 2312   2.461   3.862   3.046
 2481SOL    HW2 2313   2.335   3.965   3.053
 2483SOL     OW 2314   2.879   3.763   2.615
 2483SOL    HW1 2315   2.807   3.768   2.546
 2483SOL    HW2 2316   2.855   3.694   2.684
 2487SOL     OW 2317   2.389   3.980   2.190
 2487SOL    HW1 2318   2.416   3.921   2.115
 2487SOL    HW2 2319   2.389   4.075   2.159
 2504SOL     OW 2320   2.169   3.787   2.480
 2504SOL    HW1 2321   2.158   3.881   2.513
 2504SOL    HW2 2322   2.164   3.724   2.557
 2520SOL     OW 2323   2.125   4.050   2.582
 2520SOL    HW1 2324   2.046   4.101   2.548
 2520SOL    HW2 2325   2.116   4.035   2.680
 2528SOL     OW 2326   1.934   3.890   2.180
 2528SOL    HW1 2327   1.917   3.973   2.126
 2528SOL    HW2 2328   2.024   3.853   2.158
 2539SOL     OW 2329   2.863   3.758   3.016
 2539SOL    HW1 2330   2.800   3.686   2.985
 2539SOL    HW2 2331   2.956   3.722   3.016
 2540SOL     OW 2332   3.214   3.776   2.030
 2540SOL    HW1 2333   3.249   3.735   1.946
 2540SOL    HW2 2334   3.124   3.738   2.050
 2616SOL     OW 2335   3.854   1.821   1.571
 2616SOL    HW1 2336   3.844   1.806   1.670
 2616SOL    HW2 2337   3.768   1.857   1.535
 2665SOL     OW 2338   3.854   1.794   1.851
 2665SOL    HW1 2339   3.813   1.720   1.904
 2665SOL    HW2 2340   3.918   1.845   1.909
 2699SOL     OW 2341   3.955   1.713   2.345
 2699SOL    HW1 2342   3.989   1.790   2.399
 2699SOL    HW2 2343   3.999   1.713   2.255
 2705SOL     OW 2344   3.751   1.596   1.979
 2705SOL    HW1 2345   3.732   1.500   2.000
 2705SOL    HW2 2346   3.718   1.654   2.054
 2749SOL     OW 2347   3.732   1.326   2.062
 2749SOL    HW1 2348   3.639   1.347   2.031
 2749SOL    HW2 2349   3.742   1.227   2.075
 2750SOL     OW 2350   3.812   1.801   2.789
 2750SOL    HW1 2351   3.770   1.715   2.762
 2750SOL    HW2 2352   3.906   1.804   2.755
 2844SOL     OW 2353   3.837   2.599   1.597
 2844SOL    HW1 2354   3.925   2.586   1.642
 2844SOL    HW2 2355   3.824   2.696   1.575
 2866SOL     OW 2356   3.802   2.418   1.386
 2866SOL    HW1 2357   3.894   2.417   1.345
 2866SOL    HW2 2358   3.796   2.492   1.453
 2891SOL     OW 2359   3.913   2.382   1.722
 2891SOL    HW1 2360   3.972   2.342   1.652
 2891SOL    HW2 2361   3.855   2.453   1.681
 2906SOL     OW 2362   3.829   2.875   1.726
 2906SOL    HW1 2363   3.752   2.842   1.780
 2906SOL    HW2 2364   3.914   2.845   1.768
 2923SOL     OW 2365   3.954   2.490   1.975
 2923SOL    HW1 2366   3.861   2.488   2.012
 2923SOL    HW2 2367   3.955   2.451   1.883
 2924SOL     OW 2368   3.949   2.137   2.858
 2924SOL    HW1 2369   3.984   2.120   2.950
 2924SOL    HW2 2370   3.861   2.092   2.846
 2925SOL     OW 2371   3.743   2.230   2.509
 2925SOL    HW1 2372   3.661   2.273   2.548
 2925SOL    HW2 2373   3.715   2.157   2.446
 2937SOL     OW 2374   3.846   2.505   2.425
 2937SOL    HW1 2375   3.801   2.417   2.442
 2937SOL    HW2 2376   3.845   2.559   2.509
 2945SOL     OW 2377   3.800   2.673   2.651
 2945SOL    HW1 2378   3.899   2.661   2.660
 2945SOL    HW2 2379   3.776   2.768   2.672
 2960SOL     OW 2380   4.021   1.897   2.033
 2960SOL    HW1 2381   4.070   1.981   2.012
 2960SOL    HW2 2382   4.083   1.832   2.078
 2962SOL     OW 2383   3.802   2.418   3.248
 2962SOL    HW1 2384   3.894   2.417   3.207
 2962SOL    HW2 2385   3.796   2.492   3.315
 2978SOL     OW 2386   4.031   1.925   2.480
 2978SOL    HW1 2387   4.020   2.019   2.513
 2978SOL    HW2 2388   4.026   1.862   2.557
 2983SOL     OW 2389   3.732   3.188   2.062
 2983SOL    HW1 2390   3.639   3.209   2.031
 2983SOL    HW2 2391   3.742   3.089   2.075
 2986SOL     OW 2392   3.764   2.406   2.976
 2986SOL    HW1 2393   3.849   2.373   2.935
 2986SOL    HW2 2394   3.777   2.421   3.074
 2998SOL     OW 2395   3.987   2.188   2.582
 2998SOL    HW1 2396   3.908   2.239   2.548
 2998SOL    HW2 2397   3.978   2.173   2.680
 3005SOL     OW 2398   3.799   2.207   1.895
 3005SOL    HW1 2399   3.707   2.179   1.866
 3005SOL    HW2 2400   3.830   2.284   1.839
 3006SOL     OW 2401   3.796   2.028   2.180
 3006SOL    HW1 2402   3.779   2.111   2.126
 3006SOL    HW2 2403   3.886   1.991   2.158
 3013SOL     OW 2404   3.803   3.102   2.515
 3013SOL    HW1 2405   3.802   3.055   2.603
 3013SOL    HW2 2406   3.885   3.074   2.464
 3019SOL     OW 2407   3.763   2.939   2.162
 3019SOL    HW1 2408   3.862   2.928   2.153
 3019SOL    HW2 2409   3.723   2.853   2.194
   4.60989   4.60989   4.60989
