; mobley_486214_GMX.itp created by acpype (v: 2023.10.27) on Thu May 21 00:12:42 2026

[ atomtypes ]
;name   bond_type     mass     charge   ptype   sigma         epsilon       Amb
 ca       ca          0.00000  0.00000   A     3.31521e-01   4.13379e-01 ; 1.86  0.0988
 c3       c3          0.00000  0.00000   A     3.39771e-01   4.51035e-01 ; 1.91  0.1078
 oh       oh          0.00000  0.00000   A     3.24287e-01   3.89112e-01 ; 1.82  0.0930
 os       os          0.00000  0.00000   A     3.15610e-01   3.03758e-01 ; 1.77  0.0726
 ha       ha          0.00000  0.00000   A     2.62548e-01   6.73624e-02 ; 1.47  0.0161
 h1       h1          0.00000  0.00000   A     2.42200e-01   8.70272e-02 ; 1.36  0.0208
 ho       ho          0.00000  0.00000   A     5.37925e-02   1.96648e-02 ; 0.30  0.0047

[ moleculetype ]
;name            nrexcl
 mobley_486214    3

[ atoms ]
;   nr  type  resi  res  atom  cgnr     charge      mass       ; qtot   bond_type
     1   ca     1   MOL    C1    1    -0.100000     12.01000 ; qtot -0.100
     2   ca     1   MOL    C2    2    -0.198000     12.01000 ; qtot -0.298
     3   ca     1   MOL    C3    3    -0.198000     12.01000 ; qtot -0.496
     4   ca     1   MOL    C4    4     0.094100     12.01000 ; qtot -0.402
     5   ca     1   MOL    C5    5     0.094100     12.01000 ; qtot -0.308
     6   ca     1   MOL    C6    6     0.083100     12.01000 ; qtot -0.225
     7   c3     1   MOL    C7    7     0.116700     12.01000 ; qtot -0.108
     8   c3     1   MOL    C8    8     0.116700     12.01000 ; qtot 0.009
     9   oh     1   MOL    O1    9    -0.473098     16.00000 ; qtot -0.464
    10   os     1   MOL    O2   10    -0.324900     16.00000 ; qtot -0.789
    11   os     1   MOL    O3   11    -0.324900     16.00000 ; qtot -1.114
    12   ha     1   MOL    H1   12     0.134000      1.00800 ; qtot -0.980
    13   ha     1   MOL    H2   13     0.139500      1.00800 ; qtot -0.841
    14   ha     1   MOL    H3   14     0.139500      1.00800 ; qtot -0.701
    15   h1     1   MOL    H4   15     0.045033      1.00800 ; qtot -0.656
    16   h1     1   MOL    H5   16     0.045033      1.00800 ; qtot -0.611
    17   h1     1   MOL    H6   17     0.045033      1.00800 ; qtot -0.566
    18   h1     1   MOL    H7   18     0.045033      1.00800 ; qtot -0.521
    19   h1     1   MOL    H8   19     0.045033      1.00800 ; qtot -0.476
    20   h1     1   MOL    H9   20     0.045033      1.00800 ; qtot -0.431
    21   ho     1   MOL   H10   21     0.431000      1.00800 ; qtot 0.000

[ bonds ]
;   ai     aj funct   r             k
     1      2   1    1.3986e-01    2.9644e+05 ;     C1 - C2    
     1      3   1    1.3986e-01    2.9644e+05 ;     C1 - C3    
     1     12   1    1.0860e-01    3.0183e+05 ;     C1 - H1    
     2      4   1    1.3986e-01    2.9644e+05 ;     C2 - C4    
     2     13   1    1.0860e-01    3.0183e+05 ;     C2 - H2    
     3      5   1    1.3986e-01    2.9644e+05 ;     C3 - C5    
     3     14   1    1.0860e-01    3.0183e+05 ;     C3 - H3    
     4      6   1    1.3986e-01    2.9644e+05 ;     C4 - C6    
     4     10   1    1.3688e-01    2.8731e+05 ;     C4 - O2    
     5      6   1    1.3986e-01    2.9644e+05 ;     C5 - C6    
     5     11   1    1.3688e-01    2.8731e+05 ;     C5 - O3    
     6      9   1    1.3644e-01    2.9167e+05 ;     C6 - O1    
     7     10   1    1.4273e-01    2.3620e+05 ;     C7 - O2    
     7     15   1    1.0969e-01    2.8804e+05 ;     C7 - H4    
     7     16   1    1.0969e-01    2.8804e+05 ;     C7 - H5    
     7     17   1    1.0969e-01    2.8804e+05 ;     C7 - H6    
     8     11   1    1.4273e-01    2.3620e+05 ;     C8 - O3    
     8     18   1    1.0969e-01    2.8804e+05 ;     C8 - H7    
     8     19   1    1.0969e-01    2.8804e+05 ;     C8 - H8    
     8     20   1    1.0969e-01    2.8804e+05 ;     C8 - H9    
     9     21   1    9.7250e-02    4.4811e+05 ;     O1 - H10   

[ pairs ]
;   ai     aj    funct
     1      6      1 ;     C1 - C6    
     1     10      1 ;     C1 - O2    
     1     11      1 ;     C1 - O3    
     2      5      1 ;     C2 - C5    
     2      7      1 ;     C2 - C7    
     2      9      1 ;     C2 - O1    
     2     14      1 ;     C2 - H3    
     3      4      1 ;     C3 - C4    
     3      8      1 ;     C3 - C8    
     3      9      1 ;     C3 - O1    
     3     13      1 ;     C3 - H2    
     4     11      1 ;     C4 - O3    
     4     15      1 ;     C4 - H4    
     4     16      1 ;     C4 - H5    
     4     17      1 ;     C4 - H6    
     4     21      1 ;     C4 - H10   
     5     10      1 ;     C5 - O2    
     5     18      1 ;     C5 - H7    
     5     19      1 ;     C5 - H8    
     5     20      1 ;     C5 - H9    
     5     21      1 ;     C5 - H10   
     6      7      1 ;     C6 - C7    
     6      8      1 ;     C6 - C8    
     6     13      1 ;     C6 - H2    
     6     14      1 ;     C6 - H3    
     9     10      1 ;     O1 - O2    
     9     11      1 ;     O1 - O3    
    10     13      1 ;     O2 - H2    
    11     14      1 ;     O3 - H3    
    12      4      1 ;     H1 - C4    
    12      5      1 ;     H1 - C5    
    12     13      1 ;     H1 - H2    
    12     14      1 ;     H1 - H3    

[ angles ]
;   ai     aj     ak    funct   theta         cth
     1      2      4      1    1.2002e+02    5.3279e+02 ;     C1 - C2     - C4    
     1      2     13      1    1.1988e+02    3.7572e+02 ;     C1 - C2     - H2    
     1      3      5      1    1.2002e+02    5.3279e+02 ;     C1 - C3     - C5    
     1      3     14      1    1.1988e+02    3.7572e+02 ;     C1 - C3     - H3    
     2      1      3      1    1.2002e+02    5.3279e+02 ;     C2 - C1     - C3    
     2      1     12      1    1.1988e+02    3.7572e+02 ;     C2 - C1     - H1    
     2      4      6      1    1.2002e+02    5.3279e+02 ;     C2 - C4     - C6    
     2      4     10      1    1.1911e+02    6.6107e+02 ;     C2 - C4     - O2    
     3      1     12      1    1.1988e+02    3.7572e+02 ;     C3 - C1     - H1    
     3      5      6      1    1.2002e+02    5.3279e+02 ;     C3 - C5     - C6    
     3      5     11      1    1.1911e+02    6.6107e+02 ;     C3 - C5     - O3    
     4      2     13      1    1.1988e+02    3.7572e+02 ;     C4 - C2     - H2    
     4      6      5      1    1.2002e+02    5.3279e+02 ;     C4 - C6     - C5    
     4      6      9      1    1.1990e+02    6.5990e+02 ;     C4 - C6     - O1    
     4     10      7      1    1.1839e+02    7.3856e+02 ;     C4 - O2     - C7    
     5      3     14      1    1.1988e+02    3.7572e+02 ;     C5 - C3     - H3    
     5      6      9      1    1.1990e+02    6.5990e+02 ;     C5 - C6     - O1    
     5     11      8      1    1.1839e+02    7.3856e+02 ;     C5 - O3     - C8    
     6      4     10      1    1.1911e+02    6.6107e+02 ;     C6 - C4     - O2    
     6      5     11      1    1.1911e+02    6.6107e+02 ;     C6 - C5     - O3    
     6      9     21      1    1.0858e+02    5.6409e+02 ;     C6 - O1     - H10   
    10      7     15      1    1.1034e+02    4.7028e+02 ;     O2 - C7     - H4    
    10      7     16      1    1.1034e+02    4.7028e+02 ;     O2 - C7     - H5    
    10      7     17      1    1.1034e+02    4.7028e+02 ;     O2 - C7     - H6    
    11      8     18      1    1.1034e+02    4.7028e+02 ;     O3 - C8     - H7    
    11      8     19      1    1.1034e+02    4.7028e+02 ;     O3 - C8     - H8    
    11      8     20      1    1.1034e+02    4.7028e+02 ;     O3 - C8     - H9    
    15      7     16      1    1.0855e+02    2.9824e+02 ;     H4 - C7     - H5    
    15      7     17      1    1.0855e+02    2.9824e+02 ;     H4 - C7     - H6    
    16      7     17      1    1.0855e+02    2.9824e+02 ;     H5 - C7     - H6    
    18      8     19      1    1.0855e+02    2.9824e+02 ;     H7 - C8     - H8    
    18      8     20      1    1.0855e+02    2.9824e+02 ;     H7 - C8     - H9    
    19      8     20      1    1.0855e+02    2.9824e+02 ;     H8 - C8     - H9    

[ dihedrals ] ; propers
; for gromacs 4.5 or higher, using funct 9
;    i      j      k      l   func   phase     kd      pn
     1      2      4      6      9   180.00  15.16700   2 ;     C1-    C2-    C4-    C6
     1      2      4     10      9   180.00  15.16700   2 ;     C1-    C2-    C4-    O2
     1      3      5      6      9   180.00  15.16700   2 ;     C1-    C3-    C5-    C6
     1      3      5     11      9   180.00  15.16700   2 ;     C1-    C3-    C5-    O3
     2      1      3      5      9   180.00  15.16700   2 ;     C2-    C1-    C3-    C5
     2      1      3     14      9   180.00  15.16700   2 ;     C2-    C1-    C3-    H3
     2      4      6      5      9   180.00  15.16700   2 ;     C2-    C4-    C6-    C5
     2      4      6      9      9   180.00  15.16700   2 ;     C2-    C4-    C6-    O1
     2      4     10      7      9   180.00   6.94544   2 ;     C2-    C4-    O2-    C7
     3      1      2      4      9   180.00  15.16700   2 ;     C3-    C1-    C2-    C4
     3      1      2     13      9   180.00  15.16700   2 ;     C3-    C1-    C2-    H2
     3      5      6      4      9   180.00  15.16700   2 ;     C3-    C5-    C6-    C4
     3      5      6      9      9   180.00  15.16700   2 ;     C3-    C5-    C6-    O1
     3      5     11      8      9   180.00   6.94544   2 ;     C3-    C5-    O3-    C8
     4      6      5     11      9   180.00  15.16700   2 ;     C4-    C6-    C5-    O3
     4      6      9     21      9   180.00   3.57732   2 ;     C4-    C6-    O1-   H10
     4     10      7     15      9     0.00   1.60387   3 ;     C4-    O2-    C7-    H4
     4     10      7     16      9     0.00   1.60387   3 ;     C4-    O2-    C7-    H5
     4     10      7     17      9     0.00   1.60387   3 ;     C4-    O2-    C7-    H6
     5      6      4     10      9   180.00  15.16700   2 ;     C5-    C6-    C4-    O2
     5      6      9     21      9   180.00   3.57732   2 ;     C5-    C6-    O1-   H10
     5     11      8     18      9     0.00   1.60387   3 ;     C5-    O3-    C8-    H7
     5     11      8     19      9     0.00   1.60387   3 ;     C5-    O3-    C8-    H8
     5     11      8     20      9     0.00   1.60387   3 ;     C5-    O3-    C8-    H9
     6      4      2     13      9   180.00  15.16700   2 ;     C6-    C4-    C2-    H2
     6      4     10      7      9   180.00   6.94544   2 ;     C6-    C4-    O2-    C7
     6      5      3     14      9   180.00  15.16700   2 ;     C6-    C5-    C3-    H3
     6      5     11      8      9   180.00   6.94544   2 ;     C6-    C5-    O3-    C8
     9      6      4     10      9   180.00  15.16700   2 ;     O1-    C6-    C4-    O2
     9      6      5     11      9   180.00  15.16700   2 ;     O1-    C6-    C5-    O3
    10      4      2     13      9   180.00  15.16700   2 ;     O2-    C4-    C2-    H2
    11      5      3     14      9   180.00  15.16700   2 ;     O3-    C5-    C3-    H3
    12      1      2      4      9   180.00  15.16700   2 ;     H1-    C1-    C2-    C4
    12      1      2     13      9   180.00  15.16700   2 ;     H1-    C1-    C2-    H2
    12      1      3      5      9   180.00  15.16700   2 ;     H1-    C1-    C3-    C5
    12      1      3     14      9   180.00  15.16700   2 ;     H1-    C1-    C3-    H3

[ dihedrals ] ; impropers
; treated as propers in GROMACS to use correct AMBER analytical function
;    i      j      k      l   func   phase     kd      pn
     1      4      2     13      4   180.00   4.60240   2 ;     C1-    C4-    C2-    H2
     1      5      3     14      4   180.00   4.60240   2 ;     C1-    C5-    C3-    H3
     2      6      4     10      4   180.00   4.60240   2 ;     C2-    C6-    C4-    O2
     3      6      5     11      4   180.00   4.60240   2 ;     C3-    C6-    C5-    O3
     4      5      6      9      4   180.00   4.60240   2 ;     C4-    C5-    C6-    O1
    12      1      3      2      4   180.00   4.60240   2 ;     H1-    C1-    C3-    C2
