; mobley_1857976_GMX.itp created by acpype (v: 2023.10.27) on Wed May 20 23:48:21 2026

[ atomtypes ]
;name   bond_type     mass     charge   ptype   sigma         epsilon       Amb
 c3       c3          0.00000  0.00000   A     3.39771e-01   4.51035e-01 ; 1.91  0.1078
 cl       cl          0.00000  0.00000   A     3.46595e-01   1.10374e+00 ; 1.95  0.2638
 h1       h1          0.00000  0.00000   A     2.42200e-01   8.70272e-02 ; 1.36  0.0208

[ moleculetype ]
;name            nrexcl
 mobley_1857976   3

[ atoms ]
;   nr  type  resi  res  atom  cgnr     charge      mass       ; qtot   bond_type
     1   c3     1   MOL    C1    1     0.020000     12.01000 ; qtot 0.020
     2   c3     1   MOL    C2    2     0.020000     12.01000 ; qtot 0.040
     3   cl     1   MOL   CL1    3    -0.174400     35.45000 ; qtot -0.134
     4   cl     1   MOL   CL2    4    -0.174400     35.45000 ; qtot -0.309
     5   h1     1   MOL    H1    5     0.077200      1.00800 ; qtot -0.232
     6   h1     1   MOL    H2    6     0.077200      1.00800 ; qtot -0.154
     7   h1     1   MOL    H3    7     0.077200      1.00800 ; qtot -0.077
     8   h1     1   MOL    H4    8     0.077200      1.00800 ; qtot 0.000

[ bonds ]
;   ai     aj funct   r             k
     1      2   1    1.5354e-01    1.9154e+05 ;     C1 - C2    
     1      3   1    1.8092e-01    1.3724e+05 ;     C1 - CL1   
     1      5   1    1.0969e-01    2.8804e+05 ;     C1 - H1    
     1      6   1    1.0969e-01    2.8804e+05 ;     C1 - H2    
     2      4   1    1.8092e-01    1.3724e+05 ;     C2 - CL2   
     2      7   1    1.0969e-01    2.8804e+05 ;     C2 - H3    
     2      8   1    1.0969e-01    2.8804e+05 ;     C2 - H4    

[ pairs ]
;   ai     aj    funct
     3      4      1 ;    CL1 - CL2   
     3      7      1 ;    CL1 - H3    
     3      8      1 ;    CL1 - H4    
     5      4      1 ;     H1 - CL2   
     5      7      1 ;     H1 - H3    
     5      8      1 ;     H1 - H4    
     6      4      1 ;     H2 - CL2   
     6      7      1 ;     H2 - H3    
     6      8      1 ;     H2 - H4    

[ angles ]
;   ai     aj     ak    funct   theta         cth
     1      2      4      1    1.1039e+02    5.3254e+02 ;     C1 - C2     - CL2   
     1      2      7      1    1.0959e+02    3.6217e+02 ;     C1 - C2     - H3    
     1      2      8      1    1.0959e+02    3.6217e+02 ;     C1 - C2     - H4    
     2      1      3      1    1.1039e+02    5.3254e+02 ;     C2 - C1     - CL1   
     2      1      5      1    1.0959e+02    3.6217e+02 ;     C2 - C1     - H1    
     2      1      6      1    1.0959e+02    3.6217e+02 ;     C2 - C1     - H2    
     3      1      5      1    1.0682e+02    3.6183e+02 ;    CL1 - C1     - H1    
     3      1      6      1    1.0682e+02    3.6183e+02 ;    CL1 - C1     - H2    
     4      2      7      1    1.0682e+02    3.6183e+02 ;    CL2 - C2     - H3    
     4      2      8      1    1.0682e+02    3.6183e+02 ;    CL2 - C2     - H4    
     5      1      6      1    1.0855e+02    2.9824e+02 ;     H1 - C1     - H2    
     7      2      8      1    1.0855e+02    2.9824e+02 ;     H3 - C2     - H4    

[ dihedrals ] ; propers
; for gromacs 4.5 or higher, using funct 9
;    i      j      k      l   func   phase     kd      pn
     3      1      2      4      9     0.00   5.94128   3 ;    CL1-    C1-    C2-   CL2
     3      1      2      7      9     0.00   0.00000   0 ;    CL1-    C1-    C2-    H3
     3      1      2      7      9     0.00   1.04600   1 ;    CL1-    C1-    C2-    H3
     3      1      2      8      9     0.00   0.00000   0 ;    CL1-    C1-    C2-    H4
     3      1      2      8      9     0.00   1.04600   1 ;    CL1-    C1-    C2-    H4
     5      1      2      4      9     0.00   0.00000   0 ;     H1-    C1-    C2-   CL2
     5      1      2      4      9     0.00   1.04600   1 ;     H1-    C1-    C2-   CL2
     5      1      2      7      9     0.00   0.65084   3 ;     H1-    C1-    C2-    H3
     5      1      2      8      9     0.00   0.65084   3 ;     H1-    C1-    C2-    H4
     6      1      2      4      9     0.00   0.00000   0 ;     H2-    C1-    C2-   CL2
     6      1      2      4      9     0.00   1.04600   1 ;     H2-    C1-    C2-   CL2
     6      1      2      7      9     0.00   0.65084   3 ;     H2-    C1-    C2-    H3
     6      1      2      8      9     0.00   0.65084   3 ;     H2-    C1-    C2-    H4
