; mobley_5347550_GMX.itp created by acpype (v: 2023.10.27) on Thu May 21 00:06:14 2026

[ atomtypes ]
;name   bond_type     mass     charge   ptype   sigma         epsilon       Amb
 c3       c3          0.00000  0.00000   A     3.39771e-01   4.51035e-01 ; 1.91  0.1078
 os       os          0.00000  0.00000   A     3.15610e-01   3.03758e-01 ; 1.77  0.0726
 f        f           0.00000  0.00000   A     3.03422e-01   3.48109e-01 ; 1.70  0.0832
 cl       cl          0.00000  0.00000   A     3.46595e-01   1.10374e+00 ; 1.95  0.2638
 h1       h1          0.00000  0.00000   A     2.42200e-01   8.70272e-02 ; 1.36  0.0208
 h2       h2          0.00000  0.00000   A     2.24382e-01   8.70272e-02 ; 1.26  0.0208

[ moleculetype ]
;name            nrexcl
 mobley_5347550   3

[ atoms ]
;   nr  type  resi  res  atom  cgnr     charge      mass       ; qtot   bond_type
     1   c3     1   MOL    C1    1     0.119700     12.01000 ; qtot 0.120
     2   c3     1   MOL    C2    2     0.115100     12.01000 ; qtot 0.235
     3   c3     1   MOL    C3    3     0.585401     12.01000 ; qtot 0.820
     4   os     1   MOL    O1    4    -0.451600     16.00000 ; qtot 0.369
     5    f     1   MOL    F1    5    -0.229800     19.00000 ; qtot 0.139
     6    f     1   MOL    F2    6    -0.229800     19.00000 ; qtot -0.091
     7   cl     1   MOL   CL1    7    -0.100400     35.45000 ; qtot -0.191
     8   cl     1   MOL   CL2    8    -0.100400     35.45000 ; qtot -0.292
     9   h1     1   MOL    H1    9     0.055033      1.00800 ; qtot -0.237
    10   h1     1   MOL    H2   10     0.055033      1.00800 ; qtot -0.182
    11   h1     1   MOL    H3   11     0.055033      1.00800 ; qtot -0.127
    12   h2     1   MOL    H4   12     0.126700      1.00800 ; qtot 0.000

[ bonds ]
;   ai     aj funct   r             k
     1      4   1    1.4273e-01    2.3620e+05 ;     C1 - O1    
     1      9   1    1.0969e-01    2.8804e+05 ;     C1 - H1    
     1     10   1    1.0969e-01    2.8804e+05 ;     C1 - H2    
     1     11   1    1.0969e-01    2.8804e+05 ;     C1 - H3    
     2      3   1    1.5354e-01    1.9154e+05 ;     C2 - C3    
     2      7   1    1.8092e-01    1.3724e+05 ;     C2 - CL1   
     2      8   1    1.8092e-01    1.3724e+05 ;     C2 - CL2   
     2     12   1    1.0950e-01    2.9039e+05 ;     C2 - H4    
     3      4   1    1.4273e-01    2.3620e+05 ;     C3 - O1    
     3      5   1    1.3512e-01    2.7973e+05 ;     C3 - F1    
     3      6   1    1.3512e-01    2.7973e+05 ;     C3 - F2    

[ pairs ]
;   ai     aj    funct
     1      2      1 ;     C1 - C2    
     1      5      1 ;     C1 - F1    
     1      6      1 ;     C1 - F2    
     4      7      1 ;     O1 - CL1   
     4      8      1 ;     O1 - CL2   
     4     12      1 ;     O1 - H4    
     5      7      1 ;     F1 - CL1   
     5      8      1 ;     F1 - CL2   
     5     12      1 ;     F1 - H4    
     6      7      1 ;     F2 - CL1   
     6      8      1 ;     F2 - CL2   
     6     12      1 ;     F2 - H4    
     9      3      1 ;     H1 - C3    
    10      3      1 ;     H2 - C3    
    11      3      1 ;     H3 - C3    

[ angles ]
;   ai     aj     ak    funct   theta         cth
     1      4      3      1    1.1360e+02    7.3915e+02 ;     C1 - O1     - C3    
     2      3      4      1    1.0762e+02    6.4802e+02 ;     C2 - C3     - O1    
     2      3      5      1    1.0948e+02    6.6408e+02 ;     C2 - C3     - F1    
     2      3      6      1    1.0948e+02    6.6408e+02 ;     C2 - C3     - F2    
     3      2      7      1    1.1039e+02    5.3254e+02 ;     C3 - C2     - CL1   
     3      2      8      1    1.1039e+02    5.3254e+02 ;     C3 - C2     - CL2   
     3      2     12      1    1.1042e+02    3.6091e+02 ;     C3 - C2     - H4    
     4      1      9      1    1.1034e+02    4.7028e+02 ;     O1 - C1     - H1    
     4      1     10      1    1.1034e+02    4.7028e+02 ;     O1 - C1     - H2    
     4      1     11      1    1.1034e+02    4.7028e+02 ;     O1 - C1     - H3    
     4      3      5      1    1.1134e+02    8.4232e+02 ;     O1 - C3     - F1    
     4      3      6      1    1.1134e+02    8.4232e+02 ;     O1 - C3     - F2    
     5      3      6      1    1.0737e+02    8.9437e+02 ;     F1 - C3     - F2    
     7      2      8      1    1.0934e+02    5.8225e+02 ;    CL1 - C2     - CL2   
     7      2     12      1    1.0706e+02    3.6133e+02 ;    CL1 - C2     - H4    
     8      2     12      1    1.0706e+02    3.6133e+02 ;    CL2 - C2     - H4    
     9      1     10      1    1.0855e+02    2.9824e+02 ;     H1 - C1     - H2    
     9      1     11      1    1.0855e+02    2.9824e+02 ;     H1 - C1     - H3    
    10      1     11      1    1.0855e+02    2.9824e+02 ;     H2 - C1     - H3    

[ dihedrals ] ; propers
; for gromacs 4.5 or higher, using funct 9
;    i      j      k      l   func   phase     kd      pn
     1      4      3      2      9     0.00   0.33472   2 ;     C1-    O1-    C3-    C2
     1      4      3      2      9     0.00   3.13800   3 ;     C1-    O1-    C3-    C2
     1      4      3      2      9   180.00   3.68192   1 ;     C1-    O1-    C3-    C2
     1      4      3      5      9     0.00   1.60387   3 ;     C1-    O1-    C3-    F1
     1      4      3      6      9     0.00   1.60387   3 ;     C1-    O1-    C3-    F2
     4      3      2      7      9     0.00   0.65084   3 ;     O1-    C3-    C2-   CL1
     4      3      2      8      9     0.00   0.65084   3 ;     O1-    C3-    C2-   CL2
     4      3      2     12      9     0.00   0.65084   3 ;     O1-    C3-    C2-    H4
     5      3      2      7      9     0.00   0.65084   3 ;     F1-    C3-    C2-   CL1
     5      3      2      8      9     0.00   0.65084   3 ;     F1-    C3-    C2-   CL2
     5      3      2     12      9     0.00   0.65084   3 ;     F1-    C3-    C2-    H4
     6      3      2      7      9     0.00   0.65084   3 ;     F2-    C3-    C2-   CL1
     6      3      2      8      9     0.00   0.65084   3 ;     F2-    C3-    C2-   CL2
     6      3      2     12      9     0.00   0.65084   3 ;     F2-    C3-    C2-    H4
     9      1      4      3      9     0.00   1.41001   3 ;     H1-    C1-    O1-    C3
    10      1      4      3      9     0.00   1.41001   3 ;     H2-    C1-    O1-    C3
    11      1      4      3      9     0.00   1.41001   3 ;     H3-    C1-    O1-    C3
