mobley_36119_GMX.gro created by acpype (v: 2023.10.27) on Tue May 19 12:44:35 2026
 2403
    1MOL     C1    1   2.850   2.849   2.789
    1MOL     C2    2   2.796   2.709   2.761
    1MOL     C3    3   2.678   2.713   2.664
    1MOL     C4    4   2.627   2.572   2.633
    1MOL     C5    5   2.513   2.570   2.531
    1MOL     C6    6   2.467   2.429   2.494
    1MOL     C7    7   2.355   2.433   2.390
    1MOL     C8    8   2.306   2.293   2.356
    1MOL     O1    9   2.203   2.303   2.258
    1MOL     H1   10   2.773   2.912   2.834
    1MOL     H2   11   2.885   2.897   2.697
    1MOL     H3   12   2.934   2.843   2.859
    1MOL     H4   13   2.766   2.662   2.855
    1MOL     H5   14   2.877   2.648   2.719
    1MOL     H6   15   2.598   2.773   2.708
    1MOL     H7   16   2.708   2.763   2.571
    1MOL     H8   17   2.595   2.523   2.725
    1MOL     H9   18   2.710   2.513   2.593
    1MOL    H10   19   2.428   2.628   2.569
    1MOL    H11   20   2.548   2.621   2.440
    1MOL    H12   21   2.431   2.376   2.583
    1MOL    H13   22   2.552   2.372   2.454
    1MOL    H14   23   2.390   2.482   2.298
    1MOL    H15   24   2.271   2.493   2.427
    1MOL    H16   25   2.387   2.232   2.315
    1MOL    H17   26   2.265   2.243   2.444
    1MOL    H18   27   2.244   2.285   2.172
   97SOL     OW   28   1.592   1.629   1.625
   97SOL    HW1   29   1.619   1.663   1.535
   97SOL    HW2   30   1.671   1.591   1.671
  127SOL     OW   31   1.859   1.518   1.605
  127SOL    HW1   32   1.873   1.545   1.510
  127SOL    HW2   33   1.942   1.540   1.658
  163SOL     OW   34   1.650   1.720   1.394
  163SOL    HW1   35   1.703   1.730   1.310
  163SOL    HW2   36   1.623   1.810   1.428
  219SOL     OW   37   1.555   1.511   2.565
  219SOL    HW1   38   1.498   1.495   2.646
  219SOL    HW2   39   1.496   1.521   2.485
  227SOL     OW   40   1.460   1.505   3.201
  227SOL    HW1   41   1.484   1.599   3.227
  227SOL    HW2   42   1.444   1.451   3.283
  238SOL     OW   43   1.842   1.767   2.221
  238SOL    HW1   44   1.896   1.738   2.301
  238SOL    HW2   45   1.872   1.857   2.192
  241SOL     OW   46   1.641   1.108   2.294
  241SOL    HW1   47   1.727   1.110   2.242
  241SOL    HW2   48   1.655   1.155   2.382
  250SOL     OW   49   1.466   1.417   2.815
  250SOL    HW1   50   1.407   1.423   2.895
  250SOL    HW2   51   1.451   1.329   2.769
  251SOL     OW   52   1.667   1.714   2.434
  251SOL    HW1   53   1.626   1.691   2.346
  251SOL    HW2   54   1.649   1.640   2.499
  254SOL     OW   55   1.576   1.662   2.169
  254SOL    HW1   56   1.665   1.708   2.172
  254SOL    HW2   57   1.555   1.638   2.074
  268SOL     OW   58   1.795   1.066   2.735
  268SOL    HW1   59   1.733   1.051   2.659
  268SOL    HW2   60   1.743   1.077   2.820
  273SOL     OW   61   1.111   1.776   2.099
  273SOL    HW1   62   1.051   1.714   2.149
  273SOL    HW2   63   1.142   1.732   2.014
  275SOL     OW   64   1.632   1.377   1.943
  275SOL    HW1   65   1.600   1.471   1.933
  275SOL    HW2   66   1.556   1.314   1.931
  293SOL     OW   67   1.227   1.570   2.655
  293SOL    HW1   68   1.248   1.644   2.590
  293SOL    HW2   69   1.295   1.570   2.728
  295SOL     OW   70   1.271   1.797   2.453
  295SOL    HW1   71   1.315   1.861   2.389
  295SOL    HW2   72   1.221   1.849   2.523
  301SOL     OW   73   1.429   1.173   2.729
  301SOL    HW1   74   1.374   1.089   2.722
  301SOL    HW2   75   1.455   1.202   2.637
  305SOL     OW   76   1.664   1.280   2.519
  305SOL    HW1   77   1.763   1.288   2.533
  305SOL    HW2   78   1.619   1.364   2.550
  308SOL     OW   79   1.754   1.223   3.450
  308SOL    HW1   80   1.845   1.184   3.437
  308SOL    HW2   81   1.762   1.319   3.474
  310SOL     OW   82   1.592   1.629   3.487
  310SOL    HW1   83   1.619   1.663   3.397
  310SOL    HW2   84   1.671   1.591   3.533
  312SOL     OW   85   1.638   1.099   2.941
  312SOL    HW1   86   1.643   1.180   3.000
  312SOL    HW2   87   1.552   1.101   2.890
  322SOL     OW   88   1.272   1.445   3.004
  322SOL    HW1   89   1.319   1.458   3.091
  322SOL    HW2   90   1.206   1.371   3.013
  340SOL     OW   91   1.859   1.518   3.467
  340SOL    HW1   92   1.873   1.545   3.372
  340SOL    HW2   93   1.942   1.540   3.520
  365SOL     OW   94   1.759   1.747   3.016
  365SOL    HW1   95   1.820   1.777   2.943
  365SOL    HW2   96   1.721   1.658   2.994
  366SOL     OW   97   1.252   1.731   2.990
  366SOL    HW1   98   1.336   1.736   2.936
  366SOL    HW2   99   1.229   1.635   3.008
  370SOL     OW  100   1.388   1.573   2.339
  370SOL    HW1  101   1.455   1.585   2.265
  370SOL    HW2  102   1.348   1.662   2.362
  375SOL     OW  103   1.650   1.720   3.256
  375SOL    HW1  104   1.703   1.730   3.172
  375SOL    HW2  105   1.623   1.810   3.290
  378SOL     OW  106   1.194   1.612   1.893
  378SOL    HW1  107   1.200   1.519   1.930
  378SOL    HW2  108   1.135   1.612   1.813
  381SOL     OW  109   1.504   1.607   1.906
  381SOL    HW1  110   1.412   1.644   1.913
  381SOL    HW2  111   1.542   1.627   1.816
  383SOL     OW  112   1.614   1.292   3.151
  383SOL    HW1  113   1.674   1.295   3.231
  383SOL    HW2  114   1.539   1.356   3.164
  396SOL     OW  115   1.493   1.767   2.821
  396SOL    HW1  116   1.526   1.831   2.752
  396SOL    HW2  117   1.559   1.761   2.896
  409SOL     OW  118   1.861   1.569   2.713
  409SOL    HW1  119   1.790   1.557   2.643
  409SOL    HW2  120   1.862   1.490   2.773
  415SOL     OW  121   1.705   1.487   2.966
  415SOL    HW1  122   1.612   1.462   2.939
  415SOL    HW2  123   1.731   1.437   3.048
  605SOL     OW  124   1.127   3.203   1.690
  605SOL    HW1  125   1.174   3.203   1.778
  605SOL    HW2  126   1.079   3.116   1.679
  610SOL     OW  127   1.594   1.976   1.480
  610SOL    HW1  128   1.576   2.043   1.408
  610SOL    HW2  129   1.591   2.022   1.569
  618SOL     OW  130   1.293   3.090   1.423
  618SOL    HW1  131   1.330   3.017   1.365
  618SOL    HW2  132   1.345   3.095   1.508
  630SOL     OW  133   1.394   2.331   1.674
  630SOL    HW1  134   1.374   2.374   1.762
  630SOL    HW2  135   1.472   2.269   1.683
  637SOL     OW  136   1.719   2.447   1.831
  637SOL    HW1  137   1.693   2.536   1.795
  637SOL    HW2  138   1.717   2.379   1.758
  655SOL     OW  139   1.547   2.084   1.729
  655SOL    HW1  140   1.542   2.121   1.821
  655SOL    HW2  141   1.475   2.015   1.717
  658SOL     OW  142   1.351   2.452   1.433
  658SOL    HW1  143   1.379   2.409   1.518
  658SOL    HW2  144   1.376   2.548   1.434
  680SOL     OW  145   1.754   3.085   1.588
  680SOL    HW1  146   1.845   3.046   1.575
  680SOL    HW2  147   1.762   3.181   1.612
  682SOL     OW  148   1.592   3.491   1.625
  682SOL    HW1  149   1.619   3.525   1.535
  682SOL    HW2  150   1.671   3.453   1.671
  684SOL     OW  151   1.638   2.961   1.079
  684SOL    HW1  152   1.643   3.042   1.138
  684SOL    HW2  153   1.552   2.963   1.028
  698SOL     OW  154   1.587   2.641   1.670
  698SOL    HW1  155   1.495   2.679   1.665
  698SOL    HW2  156   1.647   2.688   1.605
  707SOL     OW  157   1.728   2.797   1.854
  707SOL    HW1  158   1.682   2.790   1.765
  707SOL    HW2  159   1.666   2.841   1.920
  712SOL     OW  160   1.859   3.380   1.605
  712SOL    HW1  161   1.873   3.407   1.510
  712SOL    HW2  162   1.942   3.402   1.658
  719SOL     OW  163   1.138   2.242   1.678
  719SOL    HW1  164   1.093   2.305   1.742
  719SOL    HW2  165   1.231   2.273   1.661
  727SOL     OW  166   1.369   2.812   1.660
  727SOL    HW1  167   1.408   2.901   1.680
  727SOL    HW2  168   1.379   2.792   1.563
  729SOL     OW  169   1.657   2.466   1.206
  729SOL    HW1  170   1.619   2.397   1.268
  729SOL    HW2  171   1.739   2.430   1.162
  748SOL     OW  172   1.650   3.582   1.394
  748SOL    HW1  173   1.703   3.592   1.310
  748SOL    HW2  174   1.623   3.672   1.428
  756SOL     OW  175   1.614   3.154   1.289
  756SOL    HW1  176   1.674   3.157   1.369
  756SOL    HW2  177   1.539   3.218   1.302
  760SOL     OW  178   1.709   2.247   1.381
  760SOL    HW1  179   1.782   2.316   1.385
  760SOL    HW2  180   1.737   2.172   1.322
  765SOL     OW  181   1.440   2.718   1.398
  765SOL    HW1  182   1.383   2.770   1.335
  765SOL    HW2  183   1.536   2.730   1.374
  771SOL     OW  184   1.450   3.082   1.633
  771SOL    HW1  185   1.441   3.072   1.732
  771SOL    HW2  186   1.546   3.075   1.607
  773SOL     OW  187   1.674   2.745   1.254
  773SOL    HW1  188   1.647   2.656   1.217
  773SOL    HW2  189   1.675   2.813   1.181
  776SOL     OW  190   1.777   2.204   1.642
  776SOL    HW1  191   1.760   2.235   1.548
  776SOL    HW2  192   1.693   2.167   1.680
  777SOL     OW  193   1.730   2.796   1.517
  777SOL    HW1  194   1.768   2.887   1.532
  777SOL    HW2  195   1.722   2.779   1.418
  786SOL     OW  196   1.824   2.054   1.227
  786SOL    HW1  197   1.820   1.964   1.271
  786SOL    HW2  198   1.827   2.043   1.128
  804SOL     OW  199   1.555   3.373   2.565
  804SOL    HW1  200   1.498   3.357   2.646
  804SOL    HW2  201   1.496   3.383   2.485
  805SOL     OW  202   1.135   2.565   2.579
  805SOL    HW1  203   1.192   2.643   2.554
  805SOL    HW2  204   1.075   2.591   2.655
  806SOL     OW  205   1.755   2.469   2.093
  806SOL    HW1  206   1.743   2.456   1.994
  806SOL    HW2  207   1.725   2.388   2.142
  812SOL     OW  208   1.460   3.367   3.201
  812SOL    HW1  209   1.484   3.461   3.227
  812SOL    HW2  210   1.444   3.313   3.283
  814SOL     OW  211   1.603   2.309   2.599
  814SOL    HW1  212   1.529   2.355   2.549
  814SOL    HW2  213   1.654   2.377   2.652
  821SOL     OW  214   1.594   1.976   3.342
  821SOL    HW1  215   1.576   2.043   3.270
  821SOL    HW2  216   1.591   2.022   3.431
  823SOL     OW  217   1.842   3.629   2.221
  823SOL    HW1  218   1.896   3.600   2.301
  823SOL    HW2  219   1.872   3.719   2.192
  825SOL     OW  220   1.689   2.784   2.474
  825SOL    HW1  221   1.784   2.755   2.482
  825SOL    HW2  222   1.681   2.849   2.399
  826SOL     OW  223   1.641   2.970   2.294
  826SOL    HW1  224   1.727   2.972   2.242
  826SOL    HW2  225   1.655   3.017   2.382
  829SOL     OW  226   1.293   3.090   3.285
  829SOL    HW1  227   1.330   3.017   3.227
  829SOL    HW2  228   1.345   3.095   3.370
  832SOL     OW  229   1.525   2.861   2.052
  832SOL    HW1  230   1.462   2.785   2.065
  832SOL    HW2  231   1.573   2.879   2.138
  835SOL     OW  232   1.466   3.279   2.815
  835SOL    HW1  233   1.407   3.285   2.895
  835SOL    HW2  234   1.451   3.191   2.769
  836SOL     OW  235   1.667   3.576   2.434
  836SOL    HW1  236   1.626   3.553   2.346
  836SOL    HW2  237   1.649   3.502   2.499
  838SOL     OW  238   1.281   2.207   2.806
  838SOL    HW1  239   1.195   2.157   2.793
  838SOL    HW2  240   1.343   2.153   2.862
  839SOL     OW  241   1.576   3.524   2.169
  839SOL    HW1  242   1.665   3.570   2.172
  839SOL    HW2  243   1.555   3.500   2.074
  841SOL     OW  244   1.394   2.331   3.536
  841SOL    HW1  245   1.374   2.374   3.624
  841SOL    HW2  246   1.472   2.269   3.545
  843SOL     OW  247   0.991   2.272   3.104
  843SOL    HW1  248   0.914   2.306   3.158
  843SOL    HW2  249   0.957   2.221   3.025
  844SOL     OW  250   1.041   2.563   2.291
  844SOL    HW1  251   1.067   2.559   2.387
  844SOL    HW2  252   0.956   2.512   2.277
  848SOL     OW  253   1.719   2.447   3.693
  848SOL    HW1  254   1.693   2.536   3.657
  848SOL    HW2  255   1.717   2.379   3.620
  849SOL     OW  256   1.362   3.006   2.407
  849SOL    HW1  257   1.445   2.977   2.359
  849SOL    HW2  258   1.313   3.073   2.351
  851SOL     OW  259   1.008   3.318   2.339
  851SOL    HW1  260   0.962   3.390   2.287
  851SOL    HW2  261   1.004   3.338   2.437
  853SOL     OW  262   1.795   2.928   2.735
  853SOL    HW1  263   1.733   2.913   2.659
  853SOL    HW2  264   1.743   2.939   2.820
  854SOL     OW  265   1.227   3.412   3.368
  854SOL    HW1  266   1.233   3.335   3.432
  854SOL    HW2  267   1.175   3.386   3.288
  856SOL     OW  268   1.458   2.597   2.590
  856SOL    HW1  269   1.453   2.532   2.665
  856SOL    HW2  270   1.538   2.656   2.603
  860SOL     OW  271   1.632   3.239   1.943
  860SOL    HW1  272   1.600   3.333   1.933
  860SOL    HW2  273   1.556   3.176   1.931
  862SOL     OW  274   1.400   1.969   2.288
  862SOL    HW1  275   1.376   1.932   2.198
  862SOL    HW2  276   1.499   1.985   2.292
  866SOL     OW  277   1.547   2.084   3.591
  866SOL    HW1  278   1.542   2.121   3.683
  866SOL    HW2  279   1.475   2.015   3.579
  870SOL     OW  280   1.351   2.452   3.295
  870SOL    HW1  281   1.379   2.409   3.380
  870SOL    HW2  282   1.376   2.548   3.296
  872SOL     OW  283   0.922   2.365   2.761
  872SOL    HW1  284   0.897   2.356   2.665
  872SOL    HW2  285   0.970   2.283   2.792
  874SOL     OW  286   1.434   3.050   1.903
  874SOL    HW1  287   1.466   2.974   1.960
  874SOL    HW2  288   1.342   3.077   1.933
  876SOL     OW  289   0.935   2.098   2.342
  876SOL    HW1  290   0.887   2.139   2.264
  876SOL    HW2  291   1.034   2.096   2.323
  877SOL     OW  292   1.076   2.545   3.326
  877SOL    HW1  293   0.996   2.484   3.329
  877SOL    HW2  294   1.157   2.492   3.302
  878SOL     OW  295   1.227   3.432   2.655
  878SOL    HW1  296   1.248   3.506   2.590
  878SOL    HW2  297   1.295   3.432   2.728
  880SOL     OW  298   1.271   3.659   2.453
  880SOL    HW1  299   1.315   3.723   2.389
  880SOL    HW2  300   1.221   3.711   2.523
  881SOL     OW  301   1.032   2.411   1.878
  881SOL    HW1  302   0.991   2.493   1.839
  881SOL    HW2  303   1.096   2.437   1.951
  884SOL     OW  304   0.866   2.316   2.504
  884SOL    HW1  305   0.834   2.388   2.442
  884SOL    HW2  306   0.890   2.235   2.451
  885SOL     OW  307   1.017   1.901   2.615
  885SOL    HW1  308   0.945   1.906   2.546
  885SOL    HW2  309   0.993   1.832   2.684
  886SOL     OW  310   1.429   3.035   2.729
  886SOL    HW1  311   1.374   2.951   2.722
  886SOL    HW2  312   1.455   3.064   2.637
  887SOL     OW  313   1.466   2.452   2.854
  887SOL    HW1  314   1.436   2.357   2.861
  887SOL    HW2  315   1.539   2.468   2.920
  888SOL     OW  316   1.857   2.695   2.239
  888SOL    HW1  317   1.899   2.631   2.303
  888SOL    HW2  318   1.819   2.644   2.161
  890SOL     OW  319   1.664   3.142   2.519
  890SOL    HW1  320   1.763   3.150   2.533
  890SOL    HW2  321   1.619   3.226   2.550
  891SOL     OW  322   1.390   2.437   1.940
  891SOL    HW1  323   1.336   2.416   2.021
  891SOL    HW2  324   1.481   2.396   1.949
  893SOL     OW  325   1.754   3.085   3.450
  893SOL    HW1  326   1.845   3.046   3.437
  893SOL    HW2  327   1.762   3.181   3.474
  894SOL     OW  328   1.064   3.209   3.202
  894SOL    HW1  329   0.984   3.186   3.257
  894SOL    HW2  330   1.147   3.183   3.251
  895SOL     OW  331   1.592   3.491   3.487
  895SOL    HW1  332   1.619   3.525   3.397
  895SOL    HW2  333   1.671   3.453   3.533
  896SOL     OW  334   1.111   3.057   2.962
  896SOL    HW1  335   1.071   3.101   3.043
  896SOL    HW2  336   1.070   3.094   2.879
  897SOL     OW  337   1.638   2.961   2.941
  897SOL    HW1  338   1.643   3.042   3.000
  897SOL    HW2  339   1.552   2.963   2.890
  902SOL     OW  340   1.274   2.248   3.124
  902SOL    HW1  341   1.295   2.322   3.188
  902SOL    HW2  342   1.185   2.265   3.081
  906SOL     OW  343   1.252   3.210   2.250
  906SOL    HW1  344   1.302   3.287   2.290
  906SOL    HW2  345   1.157   3.212   2.282
  907SOL     OW  346   1.272   3.307   3.004
  907SOL    HW1  347   1.319   3.320   3.091
  907SOL    HW2  348   1.206   3.233   3.013
  908SOL     OW  349   1.582   2.501   2.334
  908SOL    HW1  350   1.551   2.562   2.407
  908SOL    HW2  351   1.632   2.553   2.265
  911SOL     OW  352   1.587   2.641   3.532
  911SOL    HW1  353   1.495   2.679   3.527
  911SOL    HW2  354   1.647   2.688   3.467
  915SOL     OW  355   1.360   2.724   2.907
  915SOL    HW1  356   1.285   2.724   2.841
  915SOL    HW2  357   1.397   2.632   2.916
  916SOL     OW  358   1.209   2.387   2.137
  916SOL    HW1  359   1.222   2.303   2.191
  916SOL    HW2  360   1.180   2.461   2.197
  920SOL     OW  361   1.728   2.797   3.716
  920SOL    HW1  362   1.682   2.790   3.627
  920SOL    HW2  363   1.666   2.841   3.782
  922SOL     OW  364   1.622   2.229   2.236
  922SOL    HW1  365   1.624   2.153   2.300
  922SOL    HW2  366   1.574   2.306   2.276
  923SOL     OW  367   1.023   2.628   2.828
  923SOL    HW1  368   1.038   2.649   2.924
  923SOL    HW2  369   0.993   2.533   2.819
  925SOL     OW  370   1.859   3.380   3.467
  925SOL    HW1  371   1.873   3.407   3.372
  925SOL    HW2  372   1.942   3.402   3.520
  927SOL     OW  373   1.540   2.136   1.987
  927SOL    HW1  374   1.479   2.061   2.010
  927SOL    HW2  375   1.562   2.188   2.070
  928SOL     OW  376   1.303   2.700   1.904
  928SOL    HW1  377   1.337   2.607   1.919
  928SOL    HW2  378   1.321   2.727   1.809
  929SOL     OW  379   1.068   3.195   2.711
  929SOL    HW1  380   1.075   3.111   2.656
  929SOL    HW2  381   1.130   3.264   2.675
  932SOL     OW  382   1.138   2.242   3.540
  932SOL    HW1  383   1.093   2.305   3.604
  932SOL    HW2  384   1.231   2.273   3.523
  933SOL     OW  385   1.160   2.069   3.339
  933SOL    HW1  386   1.160   2.133   3.416
  933SOL    HW2  387   1.188   2.117   3.256
  937SOL     OW  388   1.002   2.658   3.100
  937SOL    HW1  389   1.043   2.626   3.186
  937SOL    HW2  390   0.906   2.631   3.097
  940SOL     OW  391   1.369   2.812   3.522
  940SOL    HW1  392   1.408   2.901   3.542
  940SOL    HW2  393   1.379   2.792   3.425
  941SOL     OW  394   0.815   2.434   2.187
  941SOL    HW1  395   0.822   2.345   2.141
  941SOL    HW2  396   0.721   2.468   2.179
  942SOL     OW  397   1.657   2.466   3.068
  942SOL    HW1  398   1.619   2.397   3.130
  942SOL    HW2  399   1.739   2.430   3.024
  948SOL     OW  400   1.347   2.921   3.096
  948SOL    HW1  401   1.371   2.858   3.022
  948SOL    HW2  402   1.257   2.961   3.078
  949SOL     OW  403   1.302   2.717   2.171
  949SOL    HW1  404   1.216   2.686   2.213
  949SOL    HW2  405   1.298   2.703   2.072
  950SOL     OW  406   1.759   3.609   3.016
  950SOL    HW1  407   1.820   3.639   2.943
  950SOL    HW2  408   1.721   3.520   2.994
  951SOL     OW  409   1.252   3.593   2.990
  951SOL    HW1  410   1.336   3.598   2.936
  951SOL    HW2  411   1.229   3.497   3.008
  954SOL     OW  412   1.726   1.997   2.385
  954SOL    HW1  413   1.799   1.980   2.318
  954SOL    HW2  414   1.695   1.910   2.423
  955SOL     OW  415   1.388   3.435   2.339
  955SOL    HW1  416   1.455   3.447   2.265
  955SOL    HW2  417   1.348   3.524   2.362
  957SOL     OW  418   1.280   2.789   2.534
  957SOL    HW1  419   1.340   2.708   2.536
  957SOL    HW2  420   1.320   2.858   2.474
  960SOL     OW  421   1.650   3.582   3.256
  960SOL    HW1  422   1.703   3.592   3.172
  960SOL    HW2  423   1.623   3.672   3.290
  961SOL     OW  424   1.841   2.037   2.825
  961SOL    HW1  425   1.880   1.952   2.789
  961SOL    HW2  426   1.743   2.039   2.806
  963SOL     OW  427   1.194   3.474   1.893
  963SOL    HW1  428   1.200   3.381   1.930
  963SOL    HW2  429   1.135   3.474   1.813
  965SOL     OW  430   0.916   2.772   2.153
  965SOL    HW1  431   0.979   2.810   2.085
  965SOL    HW2  432   0.956   2.689   2.192
  966SOL     OW  433   1.504   3.469   1.906
  966SOL    HW1  434   1.412   3.506   1.913
  966SOL    HW2  435   1.542   3.489   1.816
  968SOL     OW  436   1.614   3.154   3.151
  968SOL    HW1  437   1.674   3.157   3.231
  968SOL    HW2  438   1.539   3.218   3.164
  969SOL     OW  439   1.039   2.960   2.558
  969SOL    HW1  440   0.969   2.913   2.612
  969SOL    HW2  441   1.098   2.892   2.515
  970SOL     OW  442   1.014   2.098   2.833
  970SOL    HW1  443   1.006   2.062   2.740
  970SOL    HW2  444   1.012   2.022   2.898
  972SOL     OW  445   1.709   2.247   3.243
  972SOL    HW1  446   1.782   2.316   3.247
  972SOL    HW2  447   1.737   2.172   3.184
  977SOL     OW  448   1.440   2.718   3.260
  977SOL    HW1  449   1.383   2.770   3.197
  977SOL    HW2  450   1.536   2.730   3.236
  979SOL     OW  451   1.183   3.197   1.981
  979SOL    HW1  452   1.084   3.186   1.983
  979SOL    HW2  453   1.217   3.212   2.074
  981SOL     OW  454   1.493   3.629   2.821
  981SOL    HW1  455   1.526   3.693   2.752
  981SOL    HW2  456   1.559   3.623   2.896
  983SOL     OW  457   1.450   3.082   3.495
  983SOL    HW1  458   1.441   3.072   3.594
  983SOL    HW2  459   1.546   3.075   3.469
  985SOL     OW  460   1.674   2.745   3.116
  985SOL    HW1  461   1.647   2.656   3.079
  985SOL    HW2  462   1.675   2.813   3.043
  986SOL     OW  463   1.225   2.187   2.311
  986SOL    HW1  464   1.290   2.113   2.300
  986SOL    HW2  465   1.245   2.237   2.395
  988SOL     OW  466   1.777   2.204   3.504
  988SOL    HW1  467   1.760   2.235   3.410
  988SOL    HW2  468   1.693   2.167   3.542
  989SOL     OW  469   1.730   2.796   3.379
  989SOL    HW1  470   1.768   2.887   3.394
  989SOL    HW2  471   1.722   2.779   3.280
  992SOL     OW  472   0.859   2.818   2.723
  992SOL    HW1  473   0.913   2.749   2.771
  992SOL    HW2  474   0.827   2.887   2.789
  993SOL     OW  475   1.083   2.846   1.949
  993SOL    HW1  476   1.060   2.899   1.867
  993SOL    HW2  477   1.164   2.790   1.930
  994SOL     OW  478   1.861   3.431   2.713
  994SOL    HW1  479   1.790   3.419   2.643
  994SOL    HW2  480   1.862   3.352   2.773
  998SOL     OW  481   1.824   2.054   3.089
  998SOL    HW1  482   1.820   1.964   3.133
  998SOL    HW2  483   1.827   2.043   2.990
 1000SOL     OW  484   1.705   3.349   2.966
 1000SOL    HW1  485   1.612   3.324   2.939
 1000SOL    HW2  486   1.731   3.299   3.048
 1003SOL     OW  487   1.424   2.076   2.974
 1003SOL    HW1  488   1.476   2.011   3.029
 1003SOL    HW2  489   1.375   2.139   3.035
 1004SOL     OW  490   1.001   1.896   3.016
 1004SOL    HW1  491   0.938   1.824   2.985
 1004SOL    HW2  492   1.094   1.860   3.016
 1007SOL     OW  493   1.352   1.914   2.030
 1007SOL    HW1  494   1.387   1.873   1.946
 1007SOL    HW2  495   1.262   1.876   2.050
 1008SOL     OW  496   1.300   2.315   2.553
 1008SOL    HW1  497   1.241   2.395   2.557
 1008SOL    HW2  498   1.315   2.280   2.646
 1009SOL     OW  499   1.593   2.083   2.744
 1009SOL    HW1  500   1.509   2.082   2.798
 1009SOL    HW2  501   1.595   2.166   2.688
 1018SOL     OW  502   1.755   2.469   3.955
 1018SOL    HW1  503   1.743   2.456   3.856
 1018SOL    HW2  504   1.725   2.388   4.004
 1036SOL     OW  505   1.525   2.861   3.914
 1036SOL    HW1  506   1.462   2.785   3.927
 1036SOL    HW2  507   1.573   2.879   4.000
 1056SOL     OW  508   1.632   3.239   3.805
 1056SOL    HW1  509   1.600   3.333   3.795
 1056SOL    HW2  510   1.556   3.176   3.793
 1067SOL     OW  511   1.434   3.050   3.765
 1067SOL    HW1  512   1.466   2.974   3.822
 1067SOL    HW2  513   1.342   3.077   3.795
 1079SOL     OW  514   1.857   2.695   4.101
 1079SOL    HW1  515   1.899   2.631   4.165
 1079SOL    HW2  516   1.819   2.644   4.023
 1082SOL     OW  517   1.390   2.437   3.802
 1082SOL    HW1  518   1.336   2.416   3.883
 1082SOL    HW2  519   1.481   2.396   3.811
 1107SOL     OW  520   1.540   2.136   3.849
 1107SOL    HW1  521   1.479   2.061   3.872
 1107SOL    HW2  522   1.562   2.188   3.932
 1108SOL     OW  523   1.303   2.700   3.766
 1108SOL    HW1  524   1.337   2.607   3.781
 1108SOL    HW2  525   1.321   2.727   3.671
 1347SOL     OW  526   1.594   3.838   3.342
 1347SOL    HW1  527   1.576   3.905   3.270
 1347SOL    HW2  528   1.591   3.884   3.431
 1375SOL     OW  529   1.400   3.831   2.288
 1375SOL    HW1  530   1.376   3.794   2.198
 1375SOL    HW2  531   1.499   3.847   2.292
 1448SOL     OW  532   1.726   3.859   2.385
 1448SOL    HW1  533   1.799   3.842   2.318
 1448SOL    HW2  534   1.695   3.772   2.423
 1451SOL     OW  535   1.841   3.899   2.825
 1451SOL    HW1  536   1.880   3.814   2.789
 1451SOL    HW2  537   1.743   3.901   2.806
 1479SOL     OW  538   1.824   3.916   3.089
 1479SOL    HW1  539   1.820   3.826   3.133
 1479SOL    HW2  540   1.827   3.905   2.990
 1485SOL     OW  541   1.352   3.776   2.030
 1485SOL    HW1  542   1.387   3.735   1.946
 1485SOL    HW2  543   1.262   3.738   2.050
 1487SOL     OW  544   1.593   3.945   2.744
 1487SOL    HW1  545   1.509   3.944   2.798
 1487SOL    HW2  546   1.595   4.028   2.688
 1621SOL     OW  547   2.548   1.161   1.803
 1621SOL    HW1  548   2.608   1.240   1.817
 1621SOL    HW2  549   2.462   1.192   1.762
 1623SOL     OW  550   3.322   1.505   1.339
 1623SOL    HW1  551   3.346   1.599   1.365
 1623SOL    HW2  552   3.306   1.451   1.421
 1627SOL     OW  553   2.989   1.341   1.690
 1627SOL    HW1  554   3.036   1.341   1.778
 1627SOL    HW2  555   2.941   1.254   1.679
 1630SOL     OW  556   2.482   1.786   1.439
 1630SOL    HW1  557   2.390   1.769   1.474
 1630SOL    HW2  558   2.510   1.878   1.465
 1643SOL     OW  559   3.049   1.792   1.616
 1643SOL    HW1  560   3.073   1.852   1.540
 1643SOL    HW2  561   3.056   1.697   1.586
 1656SOL     OW  562   1.992   1.821   1.571
 1656SOL    HW1  563   1.982   1.806   1.670
 1656SOL    HW2  564   1.906   1.857   1.535
 1664SOL     OW  565   3.089   1.550   1.506
 1664SOL    HW1  566   3.095   1.473   1.570
 1664SOL    HW2  567   3.037   1.524   1.426
 1667SOL     OW  568   2.323   1.266   1.727
 1667SOL    HW1  569   2.273   1.267   1.641
 1667SOL    HW2  570   2.260   1.248   1.803
 1673SOL     OW  571   2.111   1.785   1.241
 1673SOL    HW1  572   2.168   1.720   1.291
 1673SOL    HW2  573   2.095   1.752   1.148
 1679SOL     OW  574   2.750   1.514   1.195
 1679SOL    HW1  575   2.727   1.489   1.101
 1679SOL    HW2  576   2.811   1.445   1.234
 1704SOL     OW  577   2.926   1.347   1.340
 1704SOL    HW1  578   2.846   1.324   1.395
 1704SOL    HW2  579   3.009   1.321   1.389
 1705SOL     OW  580   3.454   1.629   1.625
 1705SOL    HW1  581   3.481   1.663   1.535
 1705SOL    HW2  582   3.533   1.591   1.671
 1709SOL     OW  583   2.842   1.116   1.719
 1709SOL    HW1  584   2.743   1.122   1.729
 1709SOL    HW2  585   2.865   1.036   1.663
 1713SOL     OW  586   1.926   1.564   1.331
 1713SOL    HW1  587   1.880   1.646   1.297
 1713SOL    HW2  588   2.024   1.583   1.340
 1719SOL     OW  589   2.216   1.510   1.329
 1719SOL    HW1  590   2.195   1.466   1.242
 1719SOL    HW2  591   2.313   1.536   1.332
 1734SOL     OW  592   2.842   1.573   1.700
 1734SOL    HW1  593   2.822   1.617   1.612
 1734SOL    HW2  594   2.881   1.482   1.684
 1752SOL     OW  595   2.114   1.564   1.744
 1752SOL    HW1  596   2.084   1.621   1.820
 1752SOL    HW2  597   2.107   1.467   1.770
 1754SOL     OW  598   2.792   1.678   1.465
 1754SOL    HW1  599   2.768   1.660   1.370
 1754SOL    HW2  600   2.822   1.772   1.475
 1760SOL     OW  601   3.114   1.731   1.128
 1760SOL    HW1  602   3.198   1.736   1.074
 1760SOL    HW2  603   3.091   1.635   1.146
 1762SOL     OW  604   2.550   1.662   1.716
 1762SOL    HW1  605   2.494   1.743   1.725
 1762SOL    HW2  606   2.602   1.666   1.630
 1766SOL     OW  607   1.992   1.794   1.851
 1766SOL    HW1  608   1.951   1.720   1.904
 1766SOL    HW2  609   2.056   1.845   1.909
 1768SOL     OW  610   2.692   1.273   1.422
 1768SOL    HW1  611   2.687   1.306   1.517
 1768SOL    HW2  612   2.606   1.292   1.376
 1770SOL     OW  613   3.512   1.720   1.394
 1770SOL    HW1  614   3.565   1.730   1.310
 1770SOL    HW2  615   3.485   1.810   1.428
 1777SOL     OW  616   2.234   1.288   1.490
 1777SOL    HW1  617   2.221   1.381   1.456
 1777SOL    HW2  618   2.150   1.236   1.477
 1792SOL     OW  619   3.312   1.220   1.633
 1792SOL    HW1  620   3.303   1.210   1.732
 1792SOL    HW2  621   3.408   1.213   1.607
 1793SOL     OW  622   2.252   1.741   1.560
 1793SOL    HW1  623   2.161   1.782   1.558
 1793SOL    HW2  624   2.245   1.647   1.592
 1800SOL     OW  625   2.523   1.790   0.953
 1800SOL    HW1  626   2.477   1.878   0.940
 1800SOL    HW2  627   2.622   1.802   0.946
 1804SOL     OW  628   2.083   1.314   1.844
 1804SOL    HW1  629   2.018   1.241   1.823
 1804SOL    HW2  630   2.087   1.328   1.942
 1806SOL     OW  631   2.534   1.391   1.624
 1806SOL    HW1  632   2.456   1.341   1.662
 1806SOL    HW2  633   2.531   1.486   1.655
 1815SOL     OW  634   2.480   1.567   1.284
 1815SOL    HW1  635   2.475   1.649   1.341
 1815SOL    HW2  636   2.569   1.564   1.239
 1824SOL     OW  637   2.431   1.275   3.027
 1824SOL    HW1  638   2.338   1.268   2.990
 1824SOL    HW2  639   2.442   1.364   3.071
 1825SOL     OW  640   3.417   1.511   2.565
 1825SOL    HW1  641   3.360   1.495   2.646
 1825SOL    HW2  642   3.358   1.521   2.485
 1828SOL     OW  643   2.630   1.144   2.885
 1828SOL    HW1  644   2.552   1.161   2.945
 1828SOL    HW2  645   2.664   1.231   2.849
 1830SOL     OW  646   2.547   1.012   2.527
 1830SOL    HW1  647   2.616   0.996   2.597
 1830SOL    HW2  648   2.474   1.069   2.565
 1831SOL     OW  649   2.548   1.161   3.665
 1831SOL    HW1  650   2.608   1.240   3.679
 1831SOL    HW2  651   2.462   1.192   3.624
 1832SOL     OW  652   2.197   1.435   2.923
 1832SOL    HW1  653   2.119   1.404   2.870
 1832SOL    HW2  654   2.255   1.493   2.866
 1833SOL     OW  655   3.322   1.505   3.201
 1833SOL    HW1  656   3.346   1.599   3.227
 1833SOL    HW2  657   3.306   1.451   3.283
 1836SOL     OW  658   2.093   1.713   2.345
 1836SOL    HW1  659   2.127   1.790   2.399
 1836SOL    HW2  660   2.137   1.713   2.255
 1837SOL     OW  661   2.989   1.341   3.552
 1837SOL    HW1  662   3.036   1.341   3.640
 1837SOL    HW2  663   2.941   1.254   3.541
 1838SOL     OW  664   2.092   1.434   2.400
 1838SOL    HW1  665   2.066   1.530   2.400
 1838SOL    HW2  666   2.021   1.380   2.445
 1839SOL     OW  667   2.102   1.091   2.748
 1839SOL    HW1  668   2.116   1.007   2.800
 1839SOL    HW2  669   2.047   1.155   2.803
 1840SOL     OW  670   2.482   1.786   3.301
 1840SOL    HW1  671   2.390   1.769   3.336
 1840SOL    HW2  672   2.510   1.878   3.327
 1841SOL     OW  673   2.468   0.964   1.985
 1841SOL    HW1  674   2.475   1.048   1.931
 1841SOL    HW2  675   2.514   0.977   2.073
 1844SOL     OW  676   3.704   1.767   2.221
 1844SOL    HW1  677   3.758   1.738   2.301
 1844SOL    HW2  678   3.734   1.857   2.192
 1845SOL     OW  679   1.889   1.596   1.979
 1845SOL    HW1  680   1.870   1.500   2.000
 1845SOL    HW2  681   1.856   1.654   2.054
 1847SOL     OW  682   3.503   1.108   2.294
 1847SOL    HW1  683   3.589   1.110   2.242
 1847SOL    HW2  684   3.517   1.155   2.382
 1849SOL     OW  685   2.475   1.365   2.588
 1849SOL    HW1  686   2.426   1.278   2.597
 1849SOL    HW2  687   2.452   1.408   2.501
 1850SOL     OW  688   3.155   1.228   3.285
 1850SOL    HW1  689   3.192   1.155   3.227
 1850SOL    HW2  690   3.207   1.233   3.370
 1852SOL     OW  691   2.059   0.976   3.126
 1852SOL    HW1  692   2.148   0.931   3.112
 1852SOL    HW2  693   1.986   0.911   3.107
 1854SOL     OW  694   3.049   1.792   3.478
 1854SOL    HW1  695   3.073   1.852   3.402
 1854SOL    HW2  696   3.056   1.697   3.448
 1856SOL     OW  697   3.328   1.417   2.815
 1856SOL    HW1  698   3.269   1.423   2.895
 1856SOL    HW2  699   3.313   1.329   2.769
 1857SOL     OW  700   3.529   1.714   2.434
 1857SOL    HW1  701   3.488   1.691   2.346
 1857SOL    HW2  702   3.511   1.640   2.499
 1860SOL     OW  703   3.438   1.662   2.169
 1860SOL    HW1  704   3.527   1.708   2.172
 1860SOL    HW2  705   3.417   1.638   2.074
 1867SOL     OW  706   1.992   1.821   3.433
 1867SOL    HW1  707   1.982   1.806   3.532
 1867SOL    HW2  708   1.906   1.857   3.397
 1870SOL     OW  709   3.224   1.144   2.407
 1870SOL    HW1  710   3.307   1.115   2.359
 1870SOL    HW2  711   3.175   1.211   2.351
 1872SOL     OW  712   2.870   1.456   2.339
 1872SOL    HW1  713   2.824   1.528   2.287
 1872SOL    HW2  714   2.866   1.476   2.437
 1873SOL     OW  715   2.213   1.801   2.715
 1873SOL    HW1  716   2.263   1.715   2.721
 1873SOL    HW2  717   2.278   1.878   2.712
 1875SOL     OW  718   3.089   1.550   3.368
 1875SOL    HW1  719   3.095   1.473   3.432
 1875SOL    HW2  720   3.037   1.524   3.288
 1876SOL     OW  721   2.183   0.943   2.104
 1876SOL    HW1  722   2.265   0.982   2.062
 1876SOL    HW2  723   2.156   0.861   2.055
 1878SOL     OW  724   2.323   1.266   3.589
 1878SOL    HW1  725   2.273   1.267   3.503
 1878SOL    HW2  726   2.260   1.248   3.665
 1879SOL     OW  727   2.973   1.776   2.099
 1879SOL    HW1  728   2.913   1.714   2.149
 1879SOL    HW2  729   3.004   1.732   2.014
 1881SOL     OW  730   3.494   1.377   1.943
 1881SOL    HW1  731   3.462   1.471   1.933
 1881SOL    HW2  732   3.418   1.314   1.931
 1882SOL     OW  733   2.326   1.743   2.185
 1882SOL    HW1  734   2.359   1.782   2.271
 1882SOL    HW2  735   2.402   1.736   2.120
 1884SOL     OW  736   2.111   1.785   3.103
 1884SOL    HW1  737   2.168   1.720   3.153
 1884SOL    HW2  738   2.095   1.752   3.010
 1885SOL     OW  739   2.802   1.698   2.766
 1885SOL    HW1  740   2.882   1.641   2.787
 1885SOL    HW2  741   2.753   1.658   2.689
 1890SOL     OW  742   2.750   1.514   3.057
 1890SOL    HW1  743   2.727   1.489   2.963
 1890SOL    HW2  744   2.811   1.445   3.096
 1892SOL     OW  745   2.665   1.402   2.786
 1892SOL    HW1  746   2.755   1.416   2.744
 1892SOL    HW2  747   2.594   1.404   2.715
 1895SOL     OW  748   3.296   1.188   1.903
 1895SOL    HW1  749   3.328   1.112   1.960
 1895SOL    HW2  750   3.204   1.215   1.933
 1899SOL     OW  751   3.089   1.570   2.655
 1899SOL    HW1  752   3.110   1.644   2.590
 1899SOL    HW2  753   3.157   1.570   2.728
 1900SOL     OW  754   2.321   1.152   2.603
 1900SOL    HW1  755   2.250   1.125   2.668
 1900SOL    HW2  756   2.295   1.124   2.510
 1901SOL     OW  757   3.133   1.797   2.453
 1901SOL    HW1  758   3.177   1.861   2.389
 1901SOL    HW2  759   3.083   1.849   2.523
 1907SOL     OW  760   3.291   1.173   2.729
 1907SOL    HW1  761   3.236   1.089   2.722
 1907SOL    HW2  762   3.317   1.202   2.637
 1910SOL     OW  763   2.350   1.385   2.036
 1910SOL    HW1  764   2.263   1.370   2.083
 1910SOL    HW2  765   2.333   1.411   1.941
 1911SOL     OW  766   3.526   1.280   2.519
 1911SOL    HW1  767   3.625   1.288   2.533
 1911SOL    HW2  768   3.481   1.364   2.550
 1915SOL     OW  769   2.926   1.347   3.202
 1915SOL    HW1  770   2.846   1.324   3.257
 1915SOL    HW2  771   3.009   1.321   3.251
 1916SOL     OW  772   3.454   1.629   3.487
 1916SOL    HW1  773   3.481   1.663   3.397
 1916SOL    HW2  774   3.533   1.591   3.533
 1917SOL     OW  775   2.973   1.195   2.962
 1917SOL    HW1  776   2.933   1.239   3.043
 1917SOL    HW2  777   2.932   1.232   2.879
 1918SOL     OW  778   3.500   1.099   2.941
 1918SOL    HW1  779   3.505   1.180   3.000
 1918SOL    HW2  780   3.414   1.101   2.890
 1920SOL     OW  781   2.842   1.116   3.581
 1920SOL    HW1  782   2.743   1.122   3.591
 1920SOL    HW2  783   2.865   1.036   3.525
 1921SOL     OW  784   2.567   1.050   2.230
 1921SOL    HW1  785   2.553   1.057   2.329
 1921SOL    HW2  786   2.651   0.999   2.212
 1924SOL     OW  787   1.926   1.564   3.193
 1924SOL    HW1  788   1.880   1.646   3.159
 1924SOL    HW2  789   2.024   1.583   3.202
 1925SOL     OW  790   2.229   1.100   2.363
 1925SOL    HW1  791   2.222   1.183   2.307
 1925SOL    HW2  792   2.233   1.020   2.303
 1927SOL     OW  793   3.114   1.348   2.250
 1927SOL    HW1  794   3.164   1.425   2.290
 1927SOL    HW2  795   3.019   1.350   2.282
 1928SOL     OW  796   3.134   1.445   3.004
 1928SOL    HW1  797   3.181   1.458   3.091
 1928SOL    HW2  798   3.068   1.371   3.013
 1930SOL     OW  799   2.216   1.510   3.191
 1930SOL    HW1  800   2.195   1.466   3.104
 1930SOL    HW2  801   2.313   1.536   3.194
 1935SOL     OW  802   2.435   0.870   2.891
 1935SOL    HW1  803   2.479   0.959   2.882
 1935SOL    HW2  804   2.372   0.870   2.968
 1939SOL     OW  805   1.899   1.310   3.144
 1939SOL    HW1  806   1.952   1.261   3.212
 1939SOL    HW2  807   1.921   1.408   3.149
 1945SOL     OW  808   2.842   1.573   3.562
 1945SOL    HW1  809   2.822   1.617   3.474
 1945SOL    HW2  810   2.881   1.482   3.546
 1950SOL     OW  811   2.930   1.333   2.711
 1950SOL    HW1  812   2.937   1.249   2.656
 1950SOL    HW2  813   2.992   1.402   2.675
 1955SOL     OW  814   1.870   1.326   2.062
 1955SOL    HW1  815   1.777   1.347   2.031
 1955SOL    HW2  816   1.880   1.227   2.075
 1956SOL     OW  817   1.950   1.801   2.789
 1956SOL    HW1  818   1.908   1.715   2.762
 1956SOL    HW2  819   2.044   1.804   2.755
 1957SOL     OW  820   2.366   1.568   2.772
 1957SOL    HW1  821   2.432   1.642   2.781
 1957SOL    HW2  822   2.410   1.489   2.730
 1964SOL     OW  823   2.114   1.564   3.606
 1964SOL    HW1  824   2.084   1.621   3.682
 1964SOL    HW2  825   2.107   1.467   3.632
 1966SOL     OW  826   2.792   1.678   3.327
 1966SOL    HW1  827   2.768   1.660   3.232
 1966SOL    HW2  828   2.822   1.772   3.337
 1968SOL     OW  829   2.021   1.137   3.328
 1968SOL    HW1  830   2.043   1.076   3.404
 1968SOL    HW2  831   2.031   1.088   3.242
 1969SOL     OW  832   3.209   1.059   3.096
 1969SOL    HW1  833   3.233   0.996   3.022
 1969SOL    HW2  834   3.119   1.099   3.078
 1971SOL     OW  835   3.621   1.747   3.016
 1971SOL    HW1  836   3.682   1.777   2.943
 1971SOL    HW2  837   3.583   1.658   2.994
 1972SOL     OW  838   3.114   1.731   2.990
 1972SOL    HW1  839   3.198   1.736   2.936
 1972SOL    HW2  840   3.091   1.635   3.008
 1973SOL     OW  841   1.945   1.258   2.884
 1973SOL    HW1  842   1.940   1.257   2.984
 1973SOL    HW2  843   1.862   1.217   2.846
 1974SOL     OW  844   2.550   1.662   3.578
 1974SOL    HW1  845   2.494   1.743   3.587
 1974SOL    HW2  846   2.602   1.666   3.492
 1976SOL     OW  847   3.250   1.573   2.339
 1976SOL    HW1  848   3.317   1.585   2.265
 1976SOL    HW2  849   3.210   1.662   2.362
 1977SOL     OW  850   1.992   1.794   3.713
 1977SOL    HW1  851   1.951   1.720   3.766
 1977SOL    HW2  852   2.056   1.845   3.771
 1978SOL     OW  853   3.142   0.927   2.534
 1978SOL    HW1  854   3.202   0.846   2.536
 1978SOL    HW2  855   3.182   0.996   2.474
 1979SOL     OW  856   2.692   1.273   3.284
 1979SOL    HW1  857   2.687   1.306   3.379
 1979SOL    HW2  858   2.606   1.292   3.238
 1980SOL     OW  859   2.534   1.616   2.016
 1980SOL    HW1  860   2.543   1.626   1.917
 1980SOL    HW2  861   2.494   1.527   2.037
 1981SOL     OW  862   3.512   1.720   3.256
 1981SOL    HW1  863   3.565   1.730   3.172
 1981SOL    HW2  864   3.485   1.810   3.290
 1984SOL     OW  865   3.056   1.612   1.893
 1984SOL    HW1  866   3.062   1.519   1.930
 1984SOL    HW2  867   2.997   1.612   1.813
 1985SOL     OW  868   2.684   1.002   3.234
 1985SOL    HW1  869   2.724   1.001   3.142
 1985SOL    HW2  870   2.694   1.094   3.274
 1986SOL     OW  871   2.778   0.910   2.153
 1986SOL    HW1  872   2.841   0.948   2.085
 1986SOL    HW2  873   2.818   0.827   2.192
 1987SOL     OW  874   3.366   1.607   1.906
 1987SOL    HW1  875   3.274   1.644   1.913
 1987SOL    HW2  876   3.404   1.627   1.816
 1988SOL     OW  877   2.234   1.288   3.352
 1988SOL    HW1  878   2.221   1.381   3.318
 1988SOL    HW2  879   2.150   1.236   3.339
 1989SOL     OW  880   3.476   1.292   3.151
 1989SOL    HW1  881   3.536   1.295   3.231
 1989SOL    HW2  882   3.401   1.356   3.164
 1990SOL     OW  883   2.901   1.098   2.558
 1990SOL    HW1  884   2.831   1.051   2.612
 1990SOL    HW2  885   2.960   1.030   2.515
 1992SOL     OW  886   2.452   1.487   2.353
 1992SOL    HW1  887   2.494   1.429   2.283
 1992SOL    HW2  888   2.408   1.566   2.309
 1994SOL     OW  889   2.117   1.348   2.152
 1994SOL    HW1  890   2.021   1.349   2.125
 1994SOL    HW2  891   2.129   1.401   2.236
 2000SOL     OW  892   3.045   1.335   1.981
 2000SOL    HW1  893   2.946   1.324   1.983
 2000SOL    HW2  894   3.079   1.350   2.074
 2002SOL     OW  895   3.355   1.767   2.821
 2002SOL    HW1  896   3.388   1.831   2.752
 2002SOL    HW2  897   3.421   1.761   2.896
 2004SOL     OW  898   3.312   1.220   3.495
 2004SOL    HW1  899   3.303   1.210   3.594
 2004SOL    HW2  900   3.408   1.213   3.469
 2005SOL     OW  901   2.252   1.741   3.422
 2005SOL    HW1  902   2.161   1.782   3.420
 2005SOL    HW2  903   2.245   1.647   3.454
 2011SOL     OW  904   2.721   1.374   1.878
 2011SOL    HW1  905   2.675   1.389   1.966
 2011SOL    HW2  906   2.765   1.459   1.848
 2012SOL     OW  907   2.523   1.790   2.815
 2012SOL    HW1  908   2.477   1.878   2.802
 2012SOL    HW2  909   2.622   1.802   2.808
 2013SOL     OW  910   2.721   0.956   2.723
 2013SOL    HW1  911   2.775   0.887   2.771
 2013SOL    HW2  912   2.689   1.025   2.789
 2014SOL     OW  913   2.945   0.984   1.949
 2014SOL    HW1  914   2.922   1.037   1.867
 2014SOL    HW2  915   3.026   0.928   1.930
 2015SOL     OW  916   3.723   1.569   2.713
 2015SOL    HW1  917   3.652   1.557   2.643
 2015SOL    HW2  918   3.724   1.490   2.773
 2016SOL     OW  919   2.083   1.314   3.706
 2016SOL    HW1  920   2.018   1.241   3.685
 2016SOL    HW2  921   2.087   1.328   3.804
 2017SOL     OW  922   1.941   1.240   2.515
 2017SOL    HW1  923   1.940   1.193   2.603
 2017SOL    HW2  924   2.023   1.212   2.464
 2018SOL     OW  925   2.534   1.391   3.486
 2018SOL    HW1  926   2.456   1.341   3.524
 2018SOL    HW2  927   2.531   1.486   3.517
 2021SOL     OW  928   3.567   1.487   2.966
 2021SOL    HW1  929   3.474   1.462   2.939
 2021SOL    HW2  930   3.593   1.437   3.048
 2023SOL     OW  931   2.674   1.586   2.549
 2023SOL    HW1  932   2.706   1.596   2.455
 2023SOL    HW2  933   2.595   1.524   2.551
 2026SOL     OW  934   2.632   1.330   2.163
 2026SOL    HW1  935   2.586   1.243   2.180
 2026SOL    HW2  936   2.723   1.327   2.204
 2027SOL     OW  937   2.480   1.567   3.146
 2027SOL    HW1  938   2.475   1.649   3.203
 2027SOL    HW2  939   2.569   1.564   3.101
 2031SOL     OW  940   1.901   1.077   2.162
 2031SOL    HW1  941   2.000   1.066   2.153
 2031SOL    HW2  942   1.861   0.991   2.194
 2032SOL     OW  943   2.737   1.646   2.199
 2032SOL    HW1  944   2.660   1.611   2.145
 2032SOL    HW2  945   2.705   1.717   2.261
 2051SOL     OW  946   1.889   1.596   3.841
 2051SOL    HW1  947   1.870   1.500   3.862
 2051SOL    HW2  948   1.856   1.654   3.916
 2075SOL     OW  949   2.973   1.776   3.961
 2075SOL    HW1  950   2.913   1.714   4.011
 2075SOL    HW2  951   3.004   1.732   3.876
 2078SOL     OW  952   2.326   1.743   4.047
 2078SOL    HW1  953   2.359   1.782   4.133
 2078SOL    HW2  954   2.402   1.736   3.982
 2101SOL     OW  955   2.350   1.385   3.898
 2101SOL    HW1  956   2.263   1.370   3.945
 2101SOL    HW2  957   2.333   1.411   3.803
 2154SOL     OW  958   2.534   1.616   3.878
 2154SOL    HW1  959   2.543   1.626   3.779
 2154SOL    HW2  960   2.494   1.527   3.899
 2157SOL     OW  961   3.056   1.612   3.755
 2157SOL    HW1  962   3.062   1.519   3.792
 2157SOL    HW2  963   2.997   1.612   3.675
 2160SOL     OW  964   3.366   1.607   3.768
 2160SOL    HW1  965   3.274   1.644   3.775
 2160SOL    HW2  966   3.404   1.627   3.678
 2176SOL     OW  967   2.721   1.374   3.740
 2176SOL    HW1  968   2.675   1.389   3.828
 2176SOL    HW2  969   2.765   1.459   3.710
 2194SOL     OW  970   2.737   1.646   4.061
 2194SOL    HW1  971   2.660   1.611   4.007
 2194SOL    HW2  972   2.705   1.717   4.123
 2196SOL     OW  973   2.087   2.137   0.996
 2196SOL    HW1  974   2.122   2.120   1.088
 2196SOL    HW2  975   1.999   2.092   0.984
 2198SOL     OW  976   2.431   3.137   1.165
 2198SOL    HW1  977   2.338   3.130   1.128
 2198SOL    HW2  978   2.442   3.226   1.209
 2202SOL     OW  979   2.630   3.006   1.023
 2202SOL    HW1  980   2.552   3.023   1.083
 2202SOL    HW2  981   2.664   3.093   0.987
 2203SOL     OW  982   2.712   2.660   1.823
 2203SOL    HW1  983   2.708   2.736   1.888
 2203SOL    HW2  984   2.734   2.696   1.732
 2205SOL     OW  985   2.548   3.023   1.803
 2205SOL    HW1  986   2.608   3.102   1.817
 2205SOL    HW2  987   2.462   3.054   1.762
 2206SOL     OW  988   2.197   3.297   1.061
 2206SOL    HW1  989   2.119   3.266   1.008
 2206SOL    HW2  990   2.255   3.355   1.004
 2207SOL     OW  991   3.322   3.367   1.339
 2207SOL    HW1  992   3.346   3.461   1.365
 2207SOL    HW2  993   3.306   3.313   1.421
 2208SOL     OW  994   2.300   2.254   1.499
 2208SOL    HW1  995   2.382   2.198   1.508
 2208SOL    HW2  996   2.219   2.196   1.503
 2211SOL     OW  997   2.989   3.203   1.690
 2211SOL    HW1  998   3.036   3.203   1.778
 2211SOL    HW2  999   2.941   3.116   1.679
 2213SOL     OW 1000   2.102   2.953   0.886
 2213SOL    HW1 1001   2.116   2.869   0.938
 2213SOL    HW2 1002   2.047   3.017   0.941
 2214SOL     OW 1003   2.482   3.648   1.439
 2214SOL    HW1 1004   2.390   3.631   1.474
 2214SOL    HW2 1005   2.510   3.740   1.465
 2216SOL     OW 1006   3.456   1.976   1.480
 2216SOL    HW1 1007   3.438   2.043   1.408
 2216SOL    HW2 1008   3.453   2.022   1.569
 2221SOL     OW 1009   1.975   2.599   1.597
 2221SOL    HW1 1010   2.063   2.586   1.642
 2221SOL    HW2 1011   1.962   2.696   1.575
 2223SOL     OW 1012   3.155   3.090   1.423
 2223SOL    HW1 1013   3.192   3.017   1.365
 2223SOL    HW2 1014   3.207   3.095   1.508
 2225SOL     OW 1015   2.059   2.838   1.264
 2225SOL    HW1 1016   2.148   2.793   1.250
 2225SOL    HW2 1017   1.986   2.773   1.245
 2227SOL     OW 1018   3.049   3.654   1.616
 2227SOL    HW1 1019   3.073   3.714   1.540
 2227SOL    HW2 1020   3.056   3.559   1.586
 2228SOL     OW 1021   2.179   2.113   1.801
 2228SOL    HW1 1022   2.250   2.184   1.807
 2228SOL    HW2 1023   2.091   2.152   1.829
 2232SOL     OW 1024   3.143   2.207   0.944
 2232SOL    HW1 1025   3.057   2.157   0.931
 2232SOL    HW2 1026   3.205   2.153   1.000
 2234SOL     OW 1027   2.669   2.467   1.465
 2234SOL    HW1 1028   2.622   2.464   1.554
 2234SOL    HW2 1029   2.618   2.412   1.399
 2235SOL     OW 1030   3.256   2.331   1.674
 2235SOL    HW1 1031   3.236   2.374   1.762
 2235SOL    HW2 1032   3.334   2.269   1.683
 2236SOL     OW 1033   2.835   2.752   1.572
 2236SOL    HW1 1034   2.881   2.668   1.543
 2236SOL    HW2 1035   2.779   2.786   1.497
 2237SOL     OW 1036   2.853   2.272   1.242
 2237SOL    HW1 1037   2.776   2.306   1.296
 2237SOL    HW2 1038   2.819   2.221   1.163
 2240SOL     OW 1039   1.992   3.683   1.571
 2240SOL    HW1 1040   1.982   3.668   1.670
 2240SOL    HW2 1041   1.906   3.719   1.535
 2242SOL     OW 1042   3.581   2.447   1.831
 2242SOL    HW1 1043   3.555   2.536   1.795
 2242SOL    HW2 1044   3.579   2.379   1.758
 2244SOL     OW 1045   2.412   2.058   0.885
 2244SOL    HW1 1046   2.407   2.053   0.985
 2244SOL    HW2 1047   2.414   2.154   0.856
 2248SOL     OW 1048   3.089   3.412   1.506
 2248SOL    HW1 1049   3.095   3.335   1.570
 2248SOL    HW2 1050   3.037   3.386   1.426
 2251SOL     OW 1051   2.323   3.128   1.727
 2251SOL    HW1 1052   2.273   3.129   1.641
 2251SOL    HW2 1053   2.260   3.110   1.803
 2253SOL     OW 1054   2.064   2.147   1.498
 2253SOL    HW1 1055   1.984   2.207   1.485
 2253SOL    HW2 1056   2.054   2.098   1.584
 2257SOL     OW 1057   2.111   3.647   1.241
 2257SOL    HW1 1058   2.168   3.582   1.291
 2257SOL    HW2 1059   2.095   3.614   1.148
 2260SOL     OW 1060   3.409   2.084   1.729
 2260SOL    HW1 1061   3.404   2.121   1.821
 2260SOL    HW2 1062   3.337   2.015   1.717
 2261SOL     OW 1063   2.643   2.126   1.749
 2261SOL    HW1 1064   2.710   2.065   1.792
 2261SOL    HW2 1065   2.570   2.145   1.814
 2262SOL     OW 1066   2.750   3.376   1.195
 2262SOL    HW1 1067   2.727   3.351   1.101
 2262SOL    HW2 1068   2.811   3.307   1.234
 2263SOL     OW 1069   3.213   2.452   1.433
 2263SOL    HW1 1070   3.241   2.409   1.518
 2263SOL    HW2 1071   3.238   2.548   1.434
 2264SOL     OW 1072   2.665   3.264   0.924
 2264SOL    HW1 1073   2.755   3.278   0.882
 2264SOL    HW2 1074   2.594   3.266   0.853
 2265SOL     OW 1075   2.784   2.365   0.899
 2265SOL    HW1 1076   2.759   2.356   0.803
 2265SOL    HW2 1077   2.832   2.283   0.930
 2269SOL     OW 1078   2.938   2.545   1.464
 2269SOL    HW1 1079   2.858   2.484   1.467
 2269SOL    HW2 1080   3.019   2.492   1.440
 2274SOL     OW 1081   1.940   2.418   1.386
 2274SOL    HW1 1082   2.032   2.417   1.345
 2274SOL    HW2 1083   1.934   2.492   1.453
 2275SOL     OW 1084   2.423   2.084   1.147
 2275SOL    HW1 1085   2.461   2.000   1.184
 2275SOL    HW2 1086   2.335   2.103   1.191
 2279SOL     OW 1087   3.328   2.452   0.992
 2279SOL    HW1 1088   3.298   2.357   0.999
 2279SOL    HW2 1089   3.401   2.468   1.058
 2285SOL     OW 1090   3.616   3.085   1.588
 2285SOL    HW1 1091   3.707   3.046   1.575
 2285SOL    HW2 1092   3.624   3.181   1.612
 2286SOL     OW 1093   2.926   3.209   1.340
 2286SOL    HW1 1094   2.846   3.186   1.395
 2286SOL    HW2 1095   3.009   3.183   1.389
 2287SOL     OW 1096   3.454   3.491   1.625
 2287SOL    HW1 1097   3.481   3.525   1.535
 2287SOL    HW2 1098   3.533   3.453   1.671
 2288SOL     OW 1099   2.973   3.057   1.100
 2288SOL    HW1 1100   2.933   3.101   1.181
 2288SOL    HW2 1101   2.932   3.094   1.017
 2289SOL     OW 1102   3.500   2.961   1.079
 2289SOL    HW1 1103   3.505   3.042   1.138
 2289SOL    HW2 1104   3.414   2.963   1.028
 2290SOL     OW 1105   2.777   1.951   1.402
 2290SOL    HW1 1106   2.802   1.931   1.307
 2290SOL    HW2 1107   2.849   2.007   1.444
 2291SOL     OW 1108   2.842   2.978   1.719
 2291SOL    HW1 1109   2.743   2.984   1.729
 2291SOL    HW2 1110   2.865   2.898   1.663
 2293SOL     OW 1111   2.272   2.675   1.251
 2293SOL    HW1 1112   2.358   2.687   1.301
 2293SOL    HW2 1113   2.230   2.588   1.278
 2294SOL     OW 1114   3.136   2.248   1.262
 2294SOL    HW1 1115   3.157   2.322   1.326
 2294SOL    HW2 1116   3.047   2.265   1.219
 2295SOL     OW 1117   1.926   3.426   1.331
 2295SOL    HW1 1118   1.880   3.508   1.297
 2295SOL    HW2 1119   2.024   3.445   1.340
 2297SOL     OW 1120   2.428   2.399   0.865
 2297SOL    HW1 1121   2.440   2.465   0.791
 2297SOL    HW2 1122   2.474   2.433   0.948
 2299SOL     OW 1123   3.134   3.307   1.142
 2299SOL    HW1 1124   3.181   3.320   1.229
 2299SOL    HW2 1125   3.068   3.233   1.151
 2301SOL     OW 1126   2.216   3.372   1.329
 2301SOL    HW1 1127   2.195   3.328   1.242
 2301SOL    HW2 1128   2.313   3.398   1.332
 2302SOL     OW 1129   2.264   2.613   1.598
 2302SOL    HW1 1130   2.332   2.668   1.551
 2302SOL    HW2 1131   2.304   2.525   1.625
 2303SOL     OW 1132   3.449   2.641   1.670
 2303SOL    HW1 1133   3.357   2.679   1.665
 2303SOL    HW2 1134   3.509   2.688   1.605
 2304SOL     OW 1135   2.875   1.967   1.770
 2304SOL    HW1 1136   2.881   2.052   1.718
 2304SOL    HW2 1137   2.907   1.891   1.713
 2305SOL     OW 1138   2.366   1.912   1.740
 2305SOL    HW1 1139   2.324   1.855   1.670
 2305SOL    HW2 1140   2.300   1.981   1.772
 2306SOL     OW 1141   2.435   2.732   1.029
 2306SOL    HW1 1142   2.479   2.821   1.020
 2306SOL    HW2 1143   2.372   2.732   1.106
 2307SOL     OW 1144   3.222   2.724   1.045
 2307SOL    HW1 1145   3.147   2.724   0.979
 2307SOL    HW2 1146   3.259   2.632   1.054
 2309SOL     OW 1147   2.169   2.075   1.231
 2309SOL    HW1 1148   2.146   2.112   1.321
 2309SOL    HW2 1149   2.139   1.980   1.225
 2310SOL     OW 1150   1.899   3.172   1.282
 2310SOL    HW1 1151   1.952   3.123   1.350
 2310SOL    HW2 1152   1.921   3.270   1.287
 2311SOL     OW 1153   2.594   2.496   1.064
 2311SOL    HW1 1154   2.653   2.470   0.988
 2311SOL    HW2 1155   2.566   2.592   1.053
 2312SOL     OW 1156   3.590   2.797   1.854
 2312SOL    HW1 1157   3.544   2.790   1.765
 2312SOL    HW2 1158   3.528   2.841   1.920
 2315SOL     OW 1159   2.885   2.628   0.966
 2315SOL    HW1 1160   2.900   2.649   1.062
 2315SOL    HW2 1161   2.855   2.533   0.957
 2316SOL     OW 1162   2.842   3.435   1.700
 2316SOL    HW1 1163   2.822   3.479   1.612
 2316SOL    HW2 1164   2.881   3.344   1.684
 2317SOL     OW 1165   3.721   3.380   1.605
 2317SOL    HW1 1166   3.735   3.407   1.510
 2317SOL    HW2 1167   3.804   3.402   1.658
 2318SOL     OW 1168   2.212   2.760   1.804
 2318SOL    HW1 1169   2.288   2.804   1.852
 2318SOL    HW2 1170   2.247   2.713   1.722
 2322SOL     OW 1171   2.181   2.672   0.949
 2322SOL    HW1 1172   2.274   2.708   0.954
 2322SOL    HW2 1173   2.175   2.587   1.001
 2323SOL     OW 1174   2.201   2.371   1.006
 2323SOL    HW1 1175   2.149   2.288   0.989
 2323SOL    HW2 1176   2.278   2.376   0.942
 2324SOL     OW 1177   3.000   2.242   1.678
 2324SOL    HW1 1178   2.955   2.305   1.742
 2324SOL    HW2 1179   3.093   2.273   1.661
 2325SOL     OW 1180   3.022   2.069   1.477
 2325SOL    HW1 1181   3.022   2.133   1.554
 2325SOL    HW2 1182   3.050   2.117   1.394
 2328SOL     OW 1183   2.864   2.658   1.238
 2328SOL    HW1 1184   2.905   2.626   1.324
 2328SOL    HW2 1185   2.768   2.631   1.235
 2329SOL     OW 1186   1.902   2.406   1.114
 2329SOL    HW1 1187   1.987   2.373   1.073
 2329SOL    HW2 1188   1.915   2.421   1.212
 2330SOL     OW 1189   2.051   2.382   1.722
 2330SOL    HW1 1190   2.110   2.342   1.652
 2330SOL    HW2 1191   1.993   2.453   1.681
 2331SOL     OW 1192   3.231   2.812   1.660
 2331SOL    HW1 1193   3.270   2.901   1.680
 2331SOL    HW2 1194   3.241   2.792   1.563
 2333SOL     OW 1195   3.519   2.466   1.206
 2333SOL    HW1 1196   3.481   2.397   1.268
 2333SOL    HW2 1197   3.601   2.430   1.162
 2334SOL     OW 1198   2.114   3.426   1.744
 2334SOL    HW1 1199   2.084   3.483   1.820
 2334SOL    HW2 1200   2.107   3.329   1.770
 2335SOL     OW 1201   2.533   2.326   1.269
 2335SOL    HW1 1202   2.499   2.237   1.239
 2335SOL    HW2 1203   2.559   2.380   1.189
 2336SOL     OW 1204   2.792   3.540   1.465
 2336SOL    HW1 1205   2.768   3.522   1.370
 2336SOL    HW2 1206   2.822   3.634   1.475
 2338SOL     OW 1207   2.021   2.999   1.466
 2338SOL    HW1 1208   2.043   2.938   1.542
 2338SOL    HW2 1209   2.031   2.950   1.380
 2339SOL     OW 1210   3.209   2.921   1.234
 2339SOL    HW1 1211   3.233   2.858   1.160
 2339SOL    HW2 1212   3.119   2.961   1.216
 2343SOL     OW 1213   1.945   3.120   1.022
 2343SOL    HW1 1214   1.940   3.119   1.122
 2343SOL    HW2 1215   1.862   3.079   0.984
 2344SOL     OW 1216   2.550   3.524   1.716
 2344SOL    HW1 1217   2.494   3.605   1.725
 2344SOL    HW2 1218   2.602   3.528   1.630
 2348SOL     OW 1219   1.992   3.656   1.851
 2348SOL    HW1 1220   1.951   3.582   1.904
 2348SOL    HW2 1221   2.056   3.707   1.909
 2350SOL     OW 1222   2.692   3.135   1.422
 2350SOL    HW1 1223   2.687   3.168   1.517
 2350SOL    HW2 1224   2.606   3.154   1.376
 2356SOL     OW 1225   2.684   2.864   1.372
 2356SOL    HW1 1226   2.724   2.863   1.280
 2356SOL    HW2 1227   2.694   2.956   1.412
 2359SOL     OW 1228   2.234   3.150   1.490
 2359SOL    HW1 1229   2.221   3.243   1.456
 2359SOL    HW2 1230   2.150   3.098   1.477
 2360SOL     OW 1231   3.476   3.154   1.289
 2360SOL    HW1 1232   3.536   3.157   1.369
 2360SOL    HW2 1233   3.401   3.218   1.302
 2362SOL     OW 1234   2.876   2.098   0.971
 2362SOL    HW1 1235   2.868   2.062   0.878
 2362SOL    HW2 1236   2.874   2.022   1.036
 2364SOL     OW 1237   3.571   2.247   1.381
 2364SOL    HW1 1238   3.644   2.316   1.385
 2364SOL    HW2 1239   3.599   2.172   1.322
 2366SOL     OW 1240   1.967   2.875   1.726
 2366SOL    HW1 1241   1.890   2.842   1.780
 2366SOL    HW2 1242   2.052   2.845   1.768
 2367SOL     OW 1243   2.534   2.065   1.489
 2367SOL    HW1 1244   2.624   2.049   1.449
 2367SOL    HW2 1245   2.542   2.070   1.588
 2368SOL     OW 1246   3.302   2.718   1.398
 2368SOL    HW1 1247   3.245   2.770   1.335
 2368SOL    HW2 1248   3.398   2.730   1.374
 2371SOL     OW 1249   2.475   2.704   1.431
 2371SOL    HW1 1250   2.531   2.785   1.414
 2371SOL    HW2 1251   2.534   2.624   1.434
 2373SOL     OW 1252   2.578   2.427   1.708
 2373SOL    HW1 1253   2.597   2.492   1.782
 2373SOL    HW2 1254   2.638   2.347   1.717
 2374SOL     OW 1255   3.312   3.082   1.633
 2374SOL    HW1 1256   3.303   3.072   1.732
 2374SOL    HW2 1257   3.408   3.075   1.607
 2375SOL     OW 1258   2.252   3.603   1.560
 2375SOL    HW1 1259   2.161   3.644   1.558
 2375SOL    HW2 1260   2.245   3.509   1.592
 2376SOL     OW 1261   3.536   2.745   1.254
 2376SOL    HW1 1262   3.509   2.656   1.217
 2376SOL    HW2 1263   3.537   2.813   1.181
 2379SOL     OW 1264   3.639   2.204   1.642
 2379SOL    HW1 1265   3.622   2.235   1.548
 2379SOL    HW2 1266   3.555   2.167   1.680
 2380SOL     OW 1267   3.592   2.796   1.517
 2380SOL    HW1 1268   3.630   2.887   1.532
 2380SOL    HW2 1269   3.584   2.779   1.418
 2383SOL     OW 1270   2.721   2.818   0.861
 2383SOL    HW1 1271   2.775   2.749   0.909
 2383SOL    HW2 1272   2.689   2.887   0.927
 2386SOL     OW 1273   2.083   3.176   1.844
 2386SOL    HW1 1274   2.018   3.103   1.823
 2386SOL    HW2 1275   2.087   3.190   1.942
 2388SOL     OW 1276   2.534   3.253   1.624
 2388SOL    HW1 1277   2.456   3.203   1.662
 2388SOL    HW2 1278   2.531   3.348   1.655
 2392SOL     OW 1279   2.179   2.409   1.280
 2392SOL    HW1 1280   2.217   2.350   1.352
 2392SOL    HW2 1281   2.219   2.383   1.192
 2394SOL     OW 1282   3.286   2.076   1.112
 2394SOL    HW1 1283   3.338   2.011   1.167
 2394SOL    HW2 1284   3.237   2.139   1.173
 2395SOL     OW 1285   2.863   1.896   1.154
 2395SOL    HW1 1286   2.800   1.824   1.123
 2395SOL    HW2 1287   2.956   1.860   1.154
 2397SOL     OW 1288   2.480   3.429   1.284
 2397SOL    HW1 1289   2.475   3.511   1.341
 2397SOL    HW2 1290   2.569   3.426   1.239
 2403SOL     OW 1291   2.092   2.490   1.975
 2403SOL    HW1 1292   1.999   2.488   2.012
 2403SOL    HW2 1293   2.093   2.451   1.883
 2404SOL     OW 1294   2.087   2.137   2.858
 2404SOL    HW1 1295   2.122   2.120   2.950
 2404SOL    HW2 1296   1.999   2.092   2.846
 2405SOL     OW 1297   1.881   2.230   2.509
 2405SOL    HW1 1298   1.799   2.273   2.548
 2405SOL    HW2 1299   1.853   2.157   2.446
 2406SOL     OW 1300   2.431   3.137   3.027
 2406SOL    HW1 1301   2.338   3.130   2.990
 2406SOL    HW2 1302   2.442   3.226   3.071
 2407SOL     OW 1303   3.417   3.373   2.565
 2407SOL    HW1 1304   3.360   3.357   2.646
 2407SOL    HW2 1305   3.358   3.383   2.485
 2408SOL     OW 1306   3.617   2.469   2.093
 2408SOL    HW1 1307   3.605   2.456   1.994
 2408SOL    HW2 1308   3.587   2.388   2.142
 2409SOL     OW 1309   2.630   3.006   2.885
 2409SOL    HW1 1310   2.552   3.023   2.945
 2409SOL    HW2 1311   2.664   3.093   2.849
 2410SOL     OW 1312   2.712   2.660   3.685
 2410SOL    HW1 1313   2.708   2.736   3.750
 2410SOL    HW2 1314   2.734   2.696   3.594
 2411SOL     OW 1315   2.548   3.023   3.665
 2411SOL    HW1 1316   2.608   3.102   3.679
 2411SOL    HW2 1317   2.462   3.054   3.624
 2412SOL     OW 1318   2.197   3.297   2.923
 2412SOL    HW1 1319   2.119   3.266   2.870
 2412SOL    HW2 1320   2.255   3.355   2.866
 2413SOL     OW 1321   3.322   3.367   3.201
 2413SOL    HW1 1322   3.346   3.461   3.227
 2413SOL    HW2 1323   3.306   3.313   3.283
 2414SOL     OW 1324   2.300   2.254   3.361
 2414SOL    HW1 1325   2.382   2.198   3.370
 2414SOL    HW2 1326   2.219   2.196   3.365
 2415SOL     OW 1327   3.465   2.309   2.599
 2415SOL    HW1 1328   3.391   2.355   2.549
 2415SOL    HW2 1329   3.516   2.377   2.652
 2416SOL     OW 1330   2.093   3.575   2.345
 2416SOL    HW1 1331   2.127   3.652   2.399
 2416SOL    HW2 1332   2.137   3.575   2.255
 2417SOL     OW 1333   2.989   3.203   3.552
 2417SOL    HW1 1334   3.036   3.203   3.640
 2417SOL    HW2 1335   2.941   3.116   3.541
 2418SOL     OW 1336   2.092   3.296   2.400
 2418SOL    HW1 1337   2.066   3.392   2.400
 2418SOL    HW2 1338   2.021   3.242   2.445
 2419SOL     OW 1339   2.102   2.953   2.748
 2419SOL    HW1 1340   2.116   2.869   2.800
 2419SOL    HW2 1341   2.047   3.017   2.803
 2420SOL     OW 1342   2.482   3.648   3.301
 2420SOL    HW1 1343   2.390   3.631   3.336
 2420SOL    HW2 1344   2.510   3.740   3.327
 2421SOL     OW 1345   2.468   2.826   1.985
 2421SOL    HW1 1346   2.475   2.910   1.931
 2421SOL    HW2 1347   2.514   2.839   2.073
 2422SOL     OW 1348   3.456   1.976   3.342
 2422SOL    HW1 1349   3.438   2.043   3.270
 2422SOL    HW2 1350   3.453   2.022   3.431
 2423SOL     OW 1351   1.984   2.505   2.425
 2423SOL    HW1 1352   1.939   2.417   2.442
 2423SOL    HW2 1353   1.983   2.559   2.509
 2424SOL     OW 1354   3.704   3.629   2.221
 2424SOL    HW1 1355   3.758   3.600   2.301
 2424SOL    HW2 1356   3.734   3.719   2.192
 2425SOL     OW 1357   1.889   3.458   1.979
 2425SOL    HW1 1358   1.870   3.362   2.000
 2425SOL    HW2 1359   1.856   3.516   2.054
 2426SOL     OW 1360   3.551   2.784   2.474
 2426SOL    HW1 1361   3.646   2.755   2.482
 2426SOL    HW2 1362   3.543   2.849   2.399
 2427SOL     OW 1363   3.503   2.970   2.294
 2427SOL    HW1 1364   3.589   2.972   2.242
 2427SOL    HW2 1365   3.517   3.017   2.382
 2428SOL     OW 1366   1.975   2.599   3.459
 2428SOL    HW1 1367   2.063   2.586   3.504
 2428SOL    HW2 1368   1.962   2.696   3.437
 2429SOL     OW 1369   2.475   3.227   2.588
 2429SOL    HW1 1370   2.426   3.140   2.597
 2429SOL    HW2 1371   2.452   3.270   2.501
 2430SOL     OW 1372   3.155   3.090   3.285
 2430SOL    HW1 1373   3.192   3.017   3.227
 2430SOL    HW2 1374   3.207   3.095   3.370
 2431SOL     OW 1375   2.671   1.866   2.364
 2431SOL    HW1 1376   2.711   1.957   2.355
 2431SOL    HW2 1377   2.571   1.874   2.370
 2432SOL     OW 1378   2.059   2.838   3.126
 2432SOL    HW1 1379   2.148   2.793   3.112
 2432SOL    HW2 1380   1.986   2.773   3.107
 2433SOL     OW 1381   3.387   2.861   2.052
 2433SOL    HW1 1382   3.324   2.785   2.065
 2433SOL    HW2 1383   3.435   2.879   2.138
 2434SOL     OW 1384   3.049   3.654   3.478
 2434SOL    HW1 1385   3.073   3.714   3.402
 2434SOL    HW2 1386   3.056   3.559   3.448
 2435SOL     OW 1387   2.179   2.113   3.663
 2435SOL    HW1 1388   2.250   2.184   3.669
 2435SOL    HW2 1389   2.091   2.152   3.691
 2436SOL     OW 1390   3.328   3.279   2.815
 2436SOL    HW1 1391   3.269   3.285   2.895
 2436SOL    HW2 1392   3.313   3.191   2.769
 2437SOL     OW 1393   3.529   3.576   2.434
 2437SOL    HW1 1394   3.488   3.553   2.346
 2437SOL    HW2 1395   3.511   3.502   2.499
 2438SOL     OW 1396   2.460   2.591   2.132
 2438SOL    HW1 1397   2.484   2.660   2.064
 2438SOL    HW2 1398   2.382   2.624   2.186
 2439SOL     OW 1399   3.143   2.207   2.806
 2439SOL    HW1 1400   3.057   2.157   2.793
 2439SOL    HW2 1401   3.205   2.153   2.862
 2440SOL     OW 1402   3.438   3.524   2.169
 2440SOL    HW1 1403   3.527   3.570   2.172
 2440SOL    HW2 1404   3.417   3.500   2.074
 2441SOL     OW 1405   2.669   2.467   3.327
 2441SOL    HW1 1406   2.622   2.464   3.416
 2441SOL    HW2 1407   2.618   2.412   3.261
 2442SOL     OW 1408   3.256   2.331   3.536
 2442SOL    HW1 1409   3.236   2.374   3.624
 2442SOL    HW2 1410   3.334   2.269   3.545
 2443SOL     OW 1411   2.835   2.752   3.434
 2443SOL    HW1 1412   2.881   2.668   3.405
 2443SOL    HW2 1413   2.779   2.786   3.359
 2444SOL     OW 1414   2.853   2.272   3.104
 2444SOL    HW1 1415   2.776   2.306   3.158
 2444SOL    HW2 1416   2.819   2.221   3.025
 2445SOL     OW 1417   2.903   2.563   2.291
 2445SOL    HW1 1418   2.929   2.559   2.387
 2445SOL    HW2 1419   2.818   2.512   2.277
 2446SOL     OW 1420   1.938   2.673   2.651
 2446SOL    HW1 1421   2.037   2.661   2.660
 2446SOL    HW2 1422   1.914   2.768   2.672
 2447SOL     OW 1423   1.992   3.683   3.433
 2447SOL    HW1 1424   1.982   3.668   3.532
 2447SOL    HW2 1425   1.906   3.719   3.397
 2448SOL     OW 1426   2.727   2.210   2.057
 2448SOL    HW1 1427   2.786   2.273   2.008
 2448SOL    HW2 1428   2.746   2.116   2.028
 2449SOL     OW 1429   3.581   2.447   3.693
 2449SOL    HW1 1430   3.555   2.536   3.657
 2449SOL    HW2 1431   3.579   2.379   3.620
 2450SOL     OW 1432   3.224   3.006   2.407
 2450SOL    HW1 1433   3.307   2.977   2.359
 2450SOL    HW2 1434   3.175   3.073   2.351
 2451SOL     OW 1435   2.412   2.058   2.747
 2451SOL    HW1 1436   2.407   2.053   2.847
 2451SOL    HW2 1437   2.414   2.154   2.718
 2452SOL     OW 1438   2.870   3.318   2.339
 2452SOL    HW1 1439   2.824   3.390   2.287
 2452SOL    HW2 1440   2.866   3.338   2.437
 2453SOL     OW 1441   2.213   3.663   2.715
 2453SOL    HW1 1442   2.263   3.577   2.721
 2453SOL    HW2 1443   2.278   3.740   2.712
 2454SOL     OW 1444   3.657   2.928   2.735
 2454SOL    HW1 1445   3.595   2.913   2.659
 2454SOL    HW2 1446   3.605   2.939   2.820
 2455SOL     OW 1447   3.089   3.412   3.368
 2455SOL    HW1 1448   3.095   3.335   3.432
 2455SOL    HW2 1449   3.037   3.386   3.288
 2456SOL     OW 1450   2.183   2.805   2.104
 2456SOL    HW1 1451   2.265   2.844   2.062
 2456SOL    HW2 1452   2.156   2.723   2.055
 2457SOL     OW 1453   3.320   2.597   2.590
 2457SOL    HW1 1454   3.315   2.532   2.665
 2457SOL    HW2 1455   3.400   2.656   2.603
 2458SOL     OW 1456   2.323   3.128   3.589
 2458SOL    HW1 1457   2.273   3.129   3.503
 2458SOL    HW2 1458   2.260   3.110   3.665
 2459SOL     OW 1459   2.973   3.638   2.099
 2459SOL    HW1 1460   2.913   3.576   2.149
 2459SOL    HW2 1461   3.004   3.594   2.014
 2460SOL     OW 1462   2.064   2.147   3.360
 2460SOL    HW1 1463   1.984   2.207   3.347
 2460SOL    HW2 1464   2.054   2.098   3.446
 2461SOL     OW 1465   3.494   3.239   1.943
 2461SOL    HW1 1466   3.462   3.333   1.933
 2461SOL    HW2 1467   3.418   3.176   1.931
 2462SOL     OW 1468   2.326   3.605   2.185
 2462SOL    HW1 1469   2.359   3.644   2.271
 2462SOL    HW2 1470   2.402   3.598   2.120
 2463SOL     OW 1471   3.262   1.969   2.288
 2463SOL    HW1 1472   3.238   1.932   2.198
 2463SOL    HW2 1473   3.361   1.985   2.292
 2464SOL     OW 1474   2.111   3.647   3.103
 2464SOL    HW1 1475   2.168   3.582   3.153
 2464SOL    HW2 1476   2.095   3.614   3.010
 2465SOL     OW 1477   2.802   3.560   2.766
 2465SOL    HW1 1478   2.882   3.503   2.787
 2465SOL    HW2 1479   2.753   3.520   2.689
 2466SOL     OW 1480   3.409   2.084   3.591
 2466SOL    HW1 1481   3.404   2.121   3.683
 2466SOL    HW2 1482   3.337   2.015   3.579
 2467SOL     OW 1483   2.476   1.984   1.979
 2467SOL    HW1 1484   2.574   1.962   1.986
 2467SOL    HW2 1485   2.445   1.967   1.886
 2468SOL     OW 1486   2.643   2.126   3.611
 2468SOL    HW1 1487   2.710   2.065   3.654
 2468SOL    HW2 1488   2.570   2.145   3.676
 2469SOL     OW 1489   2.750   3.376   3.057
 2469SOL    HW1 1490   2.727   3.351   2.963
 2469SOL    HW2 1491   2.811   3.307   3.096
 2470SOL     OW 1492   3.213   2.452   3.295
 2470SOL    HW1 1493   3.241   2.409   3.380
 2470SOL    HW2 1494   3.238   2.548   3.296
 2471SOL     OW 1495   2.665   3.264   2.786
 2471SOL    HW1 1496   2.755   3.278   2.744
 2471SOL    HW2 1497   2.594   3.266   2.715
 2472SOL     OW 1498   2.784   2.365   2.761
 2472SOL    HW1 1499   2.759   2.356   2.665
 2472SOL    HW2 1500   2.832   2.283   2.792
 2473SOL     OW 1501   2.401   1.926   2.374
 2473SOL    HW1 1502   2.320   1.927   2.432
 2473SOL    HW2 1503   2.404   2.009   2.319
 2474SOL     OW 1504   3.296   3.050   1.903
 2474SOL    HW1 1505   3.328   2.974   1.960
 2474SOL    HW2 1506   3.204   3.077   1.933
 2475SOL     OW 1507   2.159   1.897   2.033
 2475SOL    HW1 1508   2.208   1.981   2.012
 2475SOL    HW2 1509   2.221   1.832   2.078
 2476SOL     OW 1510   2.797   2.098   2.342
 2476SOL    HW1 1511   2.749   2.139   2.264
 2476SOL    HW2 1512   2.896   2.096   2.323
 2477SOL     OW 1513   2.938   2.545   3.326
 2477SOL    HW1 1514   2.858   2.484   3.329
 2477SOL    HW2 1515   3.019   2.492   3.302
 2478SOL     OW 1516   3.089   3.432   2.655
 2478SOL    HW1 1517   3.110   3.506   2.590
 2478SOL    HW2 1518   3.157   3.432   2.728
 2479SOL     OW 1519   2.321   3.014   2.603
 2479SOL    HW1 1520   2.250   2.987   2.668
 2479SOL    HW2 1521   2.295   2.986   2.510
 2480SOL     OW 1522   3.133   3.659   2.453
 2480SOL    HW1 1523   3.177   3.723   2.389
 2480SOL    HW2 1524   3.083   3.711   2.523
 2481SOL     OW 1525   2.894   2.411   1.878
 2481SOL    HW1 1526   2.853   2.493   1.839
 2481SOL    HW2 1527   2.958   2.437   1.951
 2482SOL     OW 1528   1.940   2.418   3.248
 2482SOL    HW1 1529   2.032   2.417   3.207
 2482SOL    HW2 1530   1.934   2.492   3.315
 2483SOL     OW 1531   2.423   2.084   3.009
 2483SOL    HW1 1532   2.461   2.000   3.046
 2483SOL    HW2 1533   2.335   2.103   3.053
 2484SOL     OW 1534   2.728   2.316   2.504
 2484SOL    HW1 1535   2.696   2.388   2.442
 2484SOL    HW2 1536   2.752   2.235   2.451
 2485SOL     OW 1537   2.879   1.901   2.615
 2485SOL    HW1 1538   2.807   1.906   2.546
 2485SOL    HW2 1539   2.855   1.832   2.684
 2486SOL     OW 1540   3.291   3.035   2.729
 2486SOL    HW1 1541   3.236   2.951   2.722
 2486SOL    HW2 1542   3.317   3.064   2.637
 2487SOL     OW 1543   3.328   2.452   2.854
 2487SOL    HW1 1544   3.298   2.357   2.861
 2487SOL    HW2 1545   3.401   2.468   2.920
 2488SOL     OW 1546   3.719   2.695   2.239
 2488SOL    HW1 1547   3.761   2.631   2.303
 2488SOL    HW2 1548   3.681   2.644   2.161
 2489SOL     OW 1549   2.350   3.247   2.036
 2489SOL    HW1 1550   2.263   3.232   2.083
 2489SOL    HW2 1551   2.333   3.273   1.941
 2490SOL     OW 1552   3.526   3.142   2.519
 2490SOL    HW1 1553   3.625   3.150   2.533
 2490SOL    HW2 1554   3.481   3.226   2.550
 2491SOL     OW 1555   3.252   2.437   1.940
 2491SOL    HW1 1556   3.198   2.416   2.021
 2491SOL    HW2 1557   3.343   2.396   1.949
 2492SOL     OW 1558   2.389   2.118   2.190
 2492SOL    HW1 1559   2.416   2.059   2.115
 2492SOL    HW2 1560   2.389   2.213   2.159
 2493SOL     OW 1561   3.616   3.085   3.450
 2493SOL    HW1 1562   3.707   3.046   3.437
 2493SOL    HW2 1563   3.624   3.181   3.474
 2494SOL     OW 1564   2.926   3.209   3.202
 2494SOL    HW1 1565   2.846   3.186   3.257
 2494SOL    HW2 1566   3.009   3.183   3.251
 2495SOL     OW 1567   3.454   3.491   3.487
 2495SOL    HW1 1568   3.481   3.525   3.397
 2495SOL    HW2 1569   3.533   3.453   3.533
 2496SOL     OW 1570   2.973   3.057   2.962
 2496SOL    HW1 1571   2.933   3.101   3.043
 2496SOL    HW2 1572   2.932   3.094   2.879
 2497SOL     OW 1573   3.500   2.961   2.941
 2497SOL    HW1 1574   3.505   3.042   3.000
 2497SOL    HW2 1575   3.414   2.963   2.890
 2498SOL     OW 1576   2.777   1.951   3.264
 2498SOL    HW1 1577   2.802   1.931   3.169
 2498SOL    HW2 1578   2.849   2.007   3.306
 2499SOL     OW 1579   2.842   2.978   3.581
 2499SOL    HW1 1580   2.743   2.984   3.591
 2499SOL    HW2 1581   2.865   2.898   3.525
 2500SOL     OW 1582   2.567   2.912   2.230
 2500SOL    HW1 1583   2.553   2.919   2.329
 2500SOL    HW2 1584   2.651   2.861   2.212
 2501SOL     OW 1585   2.272   2.675   3.113
 2501SOL    HW1 1586   2.358   2.687   3.163
 2501SOL    HW2 1587   2.230   2.588   3.140
 2502SOL     OW 1588   3.136   2.248   3.124
 2502SOL    HW1 1589   3.157   2.322   3.188
 2502SOL    HW2 1590   3.047   2.265   3.081
 2503SOL     OW 1591   1.926   3.426   3.193
 2503SOL    HW1 1592   1.880   3.508   3.159
 2503SOL    HW2 1593   2.024   3.445   3.202
 2504SOL     OW 1594   2.229   2.962   2.363
 2504SOL    HW1 1595   2.222   3.045   2.307
 2504SOL    HW2 1596   2.233   2.882   2.303
 2505SOL     OW 1597   3.114   3.210   2.250
 2505SOL    HW1 1598   3.164   3.287   2.290
 2505SOL    HW2 1599   3.019   3.212   2.282
 2506SOL     OW 1600   3.134   3.307   3.004
 2506SOL    HW1 1601   3.181   3.320   3.091
 2506SOL    HW2 1602   3.068   3.233   3.013
 2507SOL     OW 1603   3.444   2.501   2.334
 2507SOL    HW1 1604   3.413   2.562   2.407
 2507SOL    HW2 1605   3.494   2.553   2.265
 2508SOL     OW 1606   2.216   3.372   3.191
 2508SOL    HW1 1607   2.195   3.328   3.104
 2508SOL    HW2 1608   2.313   3.398   3.194
 2509SOL     OW 1609   2.264   2.613   3.460
 2509SOL    HW1 1610   2.332   2.668   3.413
 2509SOL    HW2 1611   2.304   2.525   3.487
 2510SOL     OW 1612   3.449   2.641   3.532
 2510SOL    HW1 1613   3.357   2.679   3.527
 2510SOL    HW2 1614   3.509   2.688   3.467
 2511SOL     OW 1615   2.875   1.967   3.632
 2511SOL    HW1 1616   2.881   2.052   3.580
 2511SOL    HW2 1617   2.907   1.891   3.575
 2512SOL     OW 1618   2.366   1.912   3.602
 2512SOL    HW1 1619   2.324   1.855   3.532
 2512SOL    HW2 1620   2.300   1.981   3.634
 2513SOL     OW 1621   2.435   2.732   2.891
 2513SOL    HW1 1622   2.479   2.821   2.882
 2513SOL    HW2 1623   2.372   2.732   2.968
 2514SOL     OW 1624   3.222   2.724   2.907
 2514SOL    HW1 1625   3.147   2.724   2.841
 2514SOL    HW2 1626   3.259   2.632   2.916
 2515SOL     OW 1627   3.071   2.387   2.137
 2515SOL    HW1 1628   3.084   2.303   2.191
 2515SOL    HW2 1629   3.042   2.461   2.197
 2516SOL     OW 1630   2.169   2.075   3.093
 2516SOL    HW1 1631   2.146   2.112   3.183
 2516SOL    HW2 1632   2.139   1.980   3.087
 2517SOL     OW 1633   1.899   3.172   3.144
 2517SOL    HW1 1634   1.952   3.123   3.212
 2517SOL    HW2 1635   1.921   3.270   3.149
 2518SOL     OW 1636   2.594   2.496   2.926
 2518SOL    HW1 1637   2.653   2.470   2.850
 2518SOL    HW2 1638   2.566   2.592   2.915
 2519SOL     OW 1639   3.590   2.797   3.716
 2519SOL    HW1 1640   3.544   2.790   3.627
 2519SOL    HW2 1641   3.528   2.841   3.782
 2520SOL     OW 1642   2.169   1.925   2.480
 2520SOL    HW1 1643   2.158   2.019   2.513
 2520SOL    HW2 1644   2.164   1.862   2.557
 2521SOL     OW 1645   3.484   2.229   2.236
 2521SOL    HW1 1646   3.486   2.153   2.300
 2521SOL    HW2 1647   3.436   2.306   2.276
 2522SOL     OW 1648   2.842   3.435   3.562
 2522SOL    HW1 1649   2.822   3.479   3.474
 2522SOL    HW2 1650   2.881   3.344   3.546
 2523SOL     OW 1651   3.721   3.380   3.467
 2523SOL    HW1 1652   3.735   3.407   3.372
 2523SOL    HW2 1653   3.804   3.402   3.520
 2524SOL     OW 1654   2.212   2.760   3.666
 2524SOL    HW1 1655   2.288   2.804   3.714
 2524SOL    HW2 1656   2.247   2.713   3.584
 2525SOL     OW 1657   3.402   2.136   1.987
 2525SOL    HW1 1658   3.341   2.061   2.010
 2525SOL    HW2 1659   3.424   2.188   2.070
 2526SOL     OW 1660   3.165   2.700   1.904
 2526SOL    HW1 1661   3.199   2.607   1.919
 2526SOL    HW2 1662   3.183   2.727   1.809
 2527SOL     OW 1663   2.930   3.195   2.711
 2527SOL    HW1 1664   2.937   3.111   2.656
 2527SOL    HW2 1665   2.992   3.264   2.675
 2528SOL     OW 1666   2.181   2.672   2.811
 2528SOL    HW1 1667   2.274   2.708   2.816
 2528SOL    HW2 1668   2.175   2.587   2.863
 2529SOL     OW 1669   2.201   2.371   2.868
 2529SOL    HW1 1670   2.149   2.288   2.851
 2529SOL    HW2 1671   2.278   2.376   2.804
 2530SOL     OW 1672   3.000   2.242   3.540
 2530SOL    HW1 1673   2.955   2.305   3.604
 2530SOL    HW2 1674   3.093   2.273   3.523
 2531SOL     OW 1675   3.022   2.069   3.339
 2531SOL    HW1 1676   3.022   2.133   3.416
 2531SOL    HW2 1677   3.050   2.117   3.256
 2532SOL     OW 1678   1.870   3.188   2.062
 2532SOL    HW1 1679   1.777   3.209   2.031
 2532SOL    HW2 1680   1.880   3.089   2.075
 2533SOL     OW 1681   1.950   3.663   2.789
 2533SOL    HW1 1682   1.908   3.577   2.762
 2533SOL    HW2 1683   2.044   3.666   2.755
 2534SOL     OW 1684   2.366   3.430   2.772
 2534SOL    HW1 1685   2.432   3.504   2.781
 2534SOL    HW2 1686   2.410   3.351   2.730
 2535SOL     OW 1687   2.864   2.658   3.100
 2535SOL    HW1 1688   2.905   2.626   3.186
 2535SOL    HW2 1689   2.768   2.631   3.097
 2536SOL     OW 1690   1.902   2.406   2.976
 2536SOL    HW1 1691   1.987   2.373   2.935
 2536SOL    HW2 1692   1.915   2.421   3.074
 2537SOL     OW 1693   2.051   2.382   3.584
 2537SOL    HW1 1694   2.110   2.342   3.514
 2537SOL    HW2 1695   1.993   2.453   3.543
 2538SOL     OW 1696   3.231   2.812   3.522
 2538SOL    HW1 1697   3.270   2.901   3.542
 2538SOL    HW2 1698   3.241   2.792   3.425
 2539SOL     OW 1699   2.677   2.434   2.187
 2539SOL    HW1 1700   2.684   2.345   2.141
 2539SOL    HW2 1701   2.583   2.468   2.179
 2540SOL     OW 1702   3.519   2.466   3.068
 2540SOL    HW1 1703   3.481   2.397   3.130
 2540SOL    HW2 1704   3.601   2.430   3.024
 2541SOL     OW 1705   2.114   3.426   3.606
 2541SOL    HW1 1706   2.084   3.483   3.682
 2541SOL    HW2 1707   2.107   3.329   3.632
 2542SOL     OW 1708   2.533   2.326   3.131
 2542SOL    HW1 1709   2.499   2.237   3.101
 2542SOL    HW2 1710   2.559   2.380   3.051
 2543SOL     OW 1711   2.792   3.540   3.327
 2543SOL    HW1 1712   2.768   3.522   3.232
 2543SOL    HW2 1713   2.822   3.634   3.337
 2544SOL     OW 1714   2.335   2.362   2.053
 2544SOL    HW1 1715   2.396   2.442   2.057
 2544SOL    HW2 1716   2.240   2.393   2.060
 2545SOL     OW 1717   2.021   2.999   3.328
 2545SOL    HW1 1718   2.043   2.938   3.404
 2545SOL    HW2 1719   2.031   2.950   3.242
 2546SOL     OW 1720   3.209   2.921   3.096
 2546SOL    HW1 1721   3.233   2.858   3.022
 2546SOL    HW2 1722   3.119   2.961   3.078
 2547SOL     OW 1723   3.164   2.717   2.171
 2547SOL    HW1 1724   3.078   2.686   2.213
 2547SOL    HW2 1725   3.160   2.703   2.072
 2548SOL     OW 1726   3.621   3.609   3.016
 2548SOL    HW1 1727   3.682   3.639   2.943
 2548SOL    HW2 1728   3.583   3.520   2.994
 2549SOL     OW 1729   3.114   3.593   2.990
 2549SOL    HW1 1730   3.198   3.598   2.936
 2549SOL    HW2 1731   3.091   3.497   3.008
 2550SOL     OW 1732   1.945   3.120   2.884
 2550SOL    HW1 1733   1.940   3.119   2.984
 2550SOL    HW2 1734   1.862   3.079   2.846
 2551SOL     OW 1735   2.550   3.524   3.578
 2551SOL    HW1 1736   2.494   3.605   3.587
 2551SOL    HW2 1737   2.602   3.528   3.492
 2552SOL     OW 1738   3.588   1.997   2.385
 2552SOL    HW1 1739   3.661   1.980   2.318
 2552SOL    HW2 1740   3.557   1.910   2.423
 2553SOL     OW 1741   3.250   3.435   2.339
 2553SOL    HW1 1742   3.317   3.447   2.265
 2553SOL    HW2 1743   3.210   3.524   2.362
 2554SOL     OW 1744   1.992   3.656   3.713
 2554SOL    HW1 1745   1.951   3.582   3.766
 2554SOL    HW2 1746   2.056   3.707   3.771
 2555SOL     OW 1747   3.142   2.789   2.534
 2555SOL    HW1 1748   3.202   2.708   2.536
 2555SOL    HW2 1749   3.182   2.858   2.474
 2556SOL     OW 1750   2.692   3.135   3.284
 2556SOL    HW1 1751   2.687   3.168   3.379
 2556SOL    HW2 1752   2.606   3.154   3.238
 2557SOL     OW 1753   2.534   3.478   2.016
 2557SOL    HW1 1754   2.543   3.488   1.917
 2557SOL    HW2 1755   2.494   3.389   2.037
 2558SOL     OW 1756   3.512   3.582   3.256
 2558SOL    HW1 1757   3.565   3.592   3.172
 2558SOL    HW2 1758   3.485   3.672   3.290
 2559SOL     OW 1759   3.703   2.037   2.825
 2559SOL    HW1 1760   3.742   1.952   2.789
 2559SOL    HW2 1761   3.605   2.039   2.806
 2560SOL     OW 1762   2.125   2.188   2.582
 2560SOL    HW1 1763   2.046   2.239   2.548
 2560SOL    HW2 1764   2.116   2.173   2.680
 2561SOL     OW 1765   3.056   3.474   1.893
 2561SOL    HW1 1766   3.062   3.381   1.930
 2561SOL    HW2 1767   2.997   3.474   1.813
 2562SOL     OW 1768   2.684   2.864   3.234
 2562SOL    HW1 1769   2.724   2.863   3.142
 2562SOL    HW2 1770   2.694   2.956   3.274
 2563SOL     OW 1771   2.778   2.772   2.153
 2563SOL    HW1 1772   2.841   2.810   2.085
 2563SOL    HW2 1773   2.818   2.689   2.192
 2564SOL     OW 1774   3.366   3.469   1.906
 2564SOL    HW1 1775   3.274   3.506   1.913
 2564SOL    HW2 1776   3.404   3.489   1.816
 2565SOL     OW 1777   2.234   3.150   3.352
 2565SOL    HW1 1778   2.221   3.243   3.318
 2565SOL    HW2 1779   2.150   3.098   3.339
 2566SOL     OW 1780   3.476   3.154   3.151
 2566SOL    HW1 1781   3.536   3.157   3.231
 2566SOL    HW2 1782   3.401   3.218   3.164
 2567SOL     OW 1783   2.876   2.098   2.833
 2567SOL    HW1 1784   2.868   2.062   2.740
 2567SOL    HW2 1785   2.874   2.022   2.898
 2568SOL     OW 1786   2.452   3.349   2.353
 2568SOL    HW1 1787   2.494   3.291   2.283
 2568SOL    HW2 1788   2.408   3.428   2.309
 2569SOL     OW 1789   3.571   2.247   3.243
 2569SOL    HW1 1790   3.644   2.316   3.247
 2569SOL    HW2 1791   3.599   2.172   3.184
 2570SOL     OW 1792   2.117   3.210   2.152
 2570SOL    HW1 1793   2.021   3.211   2.125
 2570SOL    HW2 1794   2.129   3.263   2.236
 2571SOL     OW 1795   1.967   2.875   3.588
 2571SOL    HW1 1796   1.890   2.842   3.642
 2571SOL    HW2 1797   2.052   2.845   3.630
 2572SOL     OW 1798   2.534   2.065   3.351
 2572SOL    HW1 1799   2.624   2.049   3.311
 2572SOL    HW2 1800   2.542   2.070   3.450
 2573SOL     OW 1801   1.937   2.207   1.895
 2573SOL    HW1 1802   1.845   2.179   1.866
 2573SOL    HW2 1803   1.968   2.284   1.839
 2574SOL     OW 1804   3.302   2.718   3.260
 2574SOL    HW1 1805   3.245   2.770   3.197
 2574SOL    HW2 1806   3.398   2.730   3.236
 2575SOL     OW 1807   1.934   2.028   2.180
 2575SOL    HW1 1808   1.917   2.111   2.126
 2575SOL    HW2 1809   2.024   1.991   2.158
 2576SOL     OW 1810   3.045   3.197   1.981
 2576SOL    HW1 1811   2.946   3.186   1.983
 2576SOL    HW2 1812   3.079   3.212   2.074
 2577SOL     OW 1813   2.475   2.704   3.293
 2577SOL    HW1 1814   2.531   2.785   3.276
 2577SOL    HW2 1815   2.534   2.624   3.296
 2578SOL     OW 1816   3.355   3.629   2.821
 2578SOL    HW1 1817   3.388   3.693   2.752
 2578SOL    HW2 1818   3.421   3.623   2.896
 2579SOL     OW 1819   2.578   2.427   3.570
 2579SOL    HW1 1820   2.597   2.492   3.644
 2579SOL    HW2 1821   2.638   2.347   3.579
 2580SOL     OW 1822   3.312   3.082   3.495
 2580SOL    HW1 1823   3.303   3.072   3.594
 2580SOL    HW2 1824   3.408   3.075   3.469
 2581SOL     OW 1825   2.252   3.603   3.422
 2581SOL    HW1 1826   2.161   3.644   3.420
 2581SOL    HW2 1827   2.245   3.509   3.454
 2582SOL     OW 1828   3.536   2.745   3.116
 2582SOL    HW1 1829   3.509   2.656   3.079
 2582SOL    HW2 1830   3.537   2.813   3.043
 2583SOL     OW 1831   3.087   2.187   2.311
 2583SOL    HW1 1832   3.152   2.113   2.300
 2583SOL    HW2 1833   3.107   2.237   2.395
 2584SOL     OW 1834   3.639   2.204   3.504
 2584SOL    HW1 1835   3.622   2.235   3.410
 2584SOL    HW2 1836   3.555   2.167   3.542
 2585SOL     OW 1837   3.592   2.796   3.379
 2585SOL    HW1 1838   3.630   2.887   3.394
 2585SOL    HW2 1839   3.584   2.779   3.280
 2586SOL     OW 1840   2.721   3.236   1.878
 2586SOL    HW1 1841   2.675   3.251   1.966
 2586SOL    HW2 1842   2.765   3.321   1.848
 2587SOL     OW 1843   2.523   3.652   2.815
 2587SOL    HW1 1844   2.477   3.740   2.802
 2587SOL    HW2 1845   2.622   3.664   2.808
 2588SOL     OW 1846   2.945   2.846   1.949
 2588SOL    HW1 1847   2.922   2.899   1.867
 2588SOL    HW2 1848   3.026   2.790   1.930
 2589SOL     OW 1849   3.723   3.431   2.713
 2589SOL    HW1 1850   3.652   3.419   2.643
 2589SOL    HW2 1851   3.724   3.352   2.773
 2590SOL     OW 1852   2.083   3.176   3.706
 2590SOL    HW1 1853   2.018   3.103   3.685
 2590SOL    HW2 1854   2.087   3.190   3.804
 2591SOL     OW 1855   1.941   3.102   2.515
 2591SOL    HW1 1856   1.940   3.055   2.603
 2591SOL    HW2 1857   2.023   3.074   2.464
 2592SOL     OW 1858   2.534   3.253   3.486
 2592SOL    HW1 1859   2.456   3.203   3.524
 2592SOL    HW2 1860   2.531   3.348   3.517
 2593SOL     OW 1861   3.686   2.054   3.089
 2593SOL    HW1 1862   3.682   1.964   3.133
 2593SOL    HW2 1863   3.689   2.043   2.990
 2594SOL     OW 1864   3.567   3.349   2.966
 2594SOL    HW1 1865   3.474   3.324   2.939
 2594SOL    HW2 1866   3.593   3.299   3.048
 2595SOL     OW 1867   2.179   2.409   3.142
 2595SOL    HW1 1868   2.217   2.350   3.214
 2595SOL    HW2 1869   2.219   2.383   3.054
 2596SOL     OW 1870   2.674   3.448   2.549
 2596SOL    HW1 1871   2.706   3.458   2.455
 2596SOL    HW2 1872   2.595   3.386   2.551
 2597SOL     OW 1873   3.286   2.076   2.974
 2597SOL    HW1 1874   3.338   2.011   3.029
 2597SOL    HW2 1875   3.237   2.139   3.035
 2598SOL     OW 1876   2.863   1.896   3.016
 2598SOL    HW1 1877   2.800   1.824   2.985
 2598SOL    HW2 1878   2.956   1.860   3.016
 2599SOL     OW 1879   2.632   3.192   2.163
 2599SOL    HW1 1880   2.586   3.105   2.180
 2599SOL    HW2 1881   2.723   3.189   2.204
 2600SOL     OW 1882   2.480   3.429   3.146
 2600SOL    HW1 1883   2.475   3.511   3.203
 2600SOL    HW2 1884   2.569   3.426   3.101
 2601SOL     OW 1885   3.214   1.914   2.030
 2601SOL    HW1 1886   3.249   1.873   1.946
 2601SOL    HW2 1887   3.124   1.876   2.050
 2602SOL     OW 1888   3.162   2.315   2.553
 2602SOL    HW1 1889   3.103   2.395   2.557
 2602SOL    HW2 1890   3.177   2.280   2.646
 2603SOL     OW 1891   3.455   2.083   2.744
 2603SOL    HW1 1892   3.371   2.082   2.798
 2603SOL    HW2 1893   3.457   2.166   2.688
 2604SOL     OW 1894   1.901   2.939   2.162
 2604SOL    HW1 1895   2.000   2.928   2.153
 2604SOL    HW2 1896   1.861   2.853   2.194
 2605SOL     OW 1897   2.737   3.508   2.199
 2605SOL    HW1 1898   2.660   3.473   2.145
 2605SOL    HW2 1899   2.705   3.579   2.261
 2606SOL     OW 1900   2.092   2.490   3.837
 2606SOL    HW1 1901   1.999   2.488   3.874
 2606SOL    HW2 1902   2.093   2.451   3.745
 2612SOL     OW 1903   3.617   2.469   3.955
 2612SOL    HW1 1904   3.605   2.456   3.856
 2612SOL    HW2 1905   3.587   2.388   4.004
 2621SOL     OW 1906   2.468   2.826   3.847
 2621SOL    HW1 1907   2.475   2.910   3.793
 2621SOL    HW2 1908   2.514   2.839   3.935
 2624SOL     OW 1909   1.889   3.458   3.841
 2624SOL    HW1 1910   1.870   3.362   3.862
 2624SOL    HW2 1911   1.856   3.516   3.916
 2630SOL     OW 1912   3.387   2.861   3.914
 2630SOL    HW1 1913   3.324   2.785   3.927
 2630SOL    HW2 1914   3.435   2.879   4.000
 2633SOL     OW 1915   2.460   2.591   3.994
 2633SOL    HW1 1916   2.484   2.660   3.926
 2633SOL    HW2 1917   2.382   2.624   4.048
 2638SOL     OW 1918   2.903   2.563   4.153
 2638SOL    HW1 1919   2.929   2.559   4.249
 2638SOL    HW2 1920   2.818   2.512   4.139
 2640SOL     OW 1921   2.727   2.210   3.919
 2640SOL    HW1 1922   2.786   2.273   3.870
 2640SOL    HW2 1923   2.746   2.116   3.890
 2646SOL     OW 1924   2.183   2.805   3.966
 2646SOL    HW1 1925   2.265   2.844   3.924
 2646SOL    HW2 1926   2.156   2.723   3.917
 2650SOL     OW 1927   3.494   3.239   3.805
 2650SOL    HW1 1928   3.462   3.333   3.795
 2650SOL    HW2 1929   3.418   3.176   3.793
 2655SOL     OW 1930   2.244   2.562   4.204
 2655SOL    HW1 1931   2.289   2.472   4.201
 2655SOL    HW2 1932   2.150   2.551   4.237
 2656SOL     OW 1933   2.476   1.984   3.841
 2656SOL    HW1 1934   2.574   1.962   3.848
 2656SOL    HW2 1935   2.445   1.967   3.748
 2660SOL     OW 1936   2.401   1.926   4.236
 2660SOL    HW1 1937   2.320   1.927   4.294
 2660SOL    HW2 1938   2.404   2.009   4.181
 2661SOL     OW 1939   3.296   3.050   3.765
 2661SOL    HW1 1940   3.328   2.974   3.822
 2661SOL    HW2 1941   3.204   3.077   3.795
 2662SOL     OW 1942   2.159   1.897   3.895
 2662SOL    HW1 1943   2.208   1.981   3.874
 2662SOL    HW2 1944   2.221   1.832   3.940
 2663SOL     OW 1945   2.797   2.098   4.204
 2663SOL    HW1 1946   2.749   2.139   4.126
 2663SOL    HW2 1947   2.896   2.096   4.185
 2667SOL     OW 1948   2.894   2.411   3.740
 2667SOL    HW1 1949   2.853   2.493   3.701
 2667SOL    HW2 1950   2.958   2.437   3.813
 2674SOL     OW 1951   2.350   3.247   3.898
 2674SOL    HW1 1952   2.263   3.232   3.945
 2674SOL    HW2 1953   2.333   3.273   3.803
 2676SOL     OW 1954   3.252   2.437   3.802
 2676SOL    HW1 1955   3.198   2.416   3.883
 2676SOL    HW2 1956   3.343   2.396   3.811
 2677SOL     OW 1957   2.389   2.118   4.052
 2677SOL    HW1 1958   2.416   2.059   3.977
 2677SOL    HW2 1959   2.389   2.213   4.021
 2681SOL     OW 1960   2.567   2.912   4.092
 2681SOL    HW1 1961   2.553   2.919   4.191
 2681SOL    HW2 1962   2.651   2.861   4.074
 2685SOL     OW 1963   2.229   2.962   4.225
 2685SOL    HW1 1964   2.222   3.045   4.169
 2685SOL    HW2 1965   2.233   2.882   4.165
 2687SOL     OW 1966   3.114   3.210   4.112
 2687SOL    HW1 1967   3.164   3.287   4.152
 2687SOL    HW2 1968   3.019   3.212   4.144
 2693SOL     OW 1969   3.071   2.387   3.999
 2693SOL    HW1 1970   3.084   2.303   4.053
 2693SOL    HW2 1971   3.042   2.461   4.059
 2701SOL     OW 1972   3.402   2.136   3.849
 2701SOL    HW1 1973   3.341   2.061   3.872
 2701SOL    HW2 1974   3.424   2.188   3.932
 2702SOL     OW 1975   3.165   2.700   3.766
 2702SOL    HW1 1976   3.199   2.607   3.781
 2702SOL    HW2 1977   3.183   2.727   3.671
 2707SOL     OW 1978   1.870   3.188   3.924
 2707SOL    HW1 1979   1.777   3.209   3.893
 2707SOL    HW2 1980   1.880   3.089   3.937
 2713SOL     OW 1981   2.677   2.434   4.049
 2713SOL    HW1 1982   2.684   2.345   4.003
 2713SOL    HW2 1983   2.583   2.468   4.041
 2717SOL     OW 1984   2.335   2.362   3.915
 2717SOL    HW1 1985   2.396   2.442   3.919
 2717SOL    HW2 1986   2.240   2.393   3.922
 2720SOL     OW 1987   3.164   2.717   4.033
 2720SOL    HW1 1988   3.078   2.686   4.075
 2720SOL    HW2 1989   3.160   2.703   3.934
 2727SOL     OW 1990   2.534   3.478   3.878
 2727SOL    HW1 1991   2.543   3.488   3.779
 2727SOL    HW2 1992   2.494   3.389   3.899
 2730SOL     OW 1993   3.056   3.474   3.755
 2730SOL    HW1 1994   3.062   3.381   3.792
 2730SOL    HW2 1995   2.997   3.474   3.675
 2732SOL     OW 1996   2.778   2.772   4.015
 2732SOL    HW1 1997   2.841   2.810   3.947
 2732SOL    HW2 1998   2.818   2.689   4.054
 2733SOL     OW 1999   3.366   3.469   3.768
 2733SOL    HW1 2000   3.274   3.506   3.775
 2733SOL    HW2 2001   3.404   3.489   3.678
 2738SOL     OW 2002   2.117   3.210   4.014
 2738SOL    HW1 2003   2.021   3.211   3.987
 2738SOL    HW2 2004   2.129   3.263   4.098
 2740SOL     OW 2005   1.937   2.207   3.757
 2740SOL    HW1 2006   1.845   2.179   3.728
 2740SOL    HW2 2007   1.968   2.284   3.701
 2741SOL     OW 2008   1.934   2.028   4.042
 2741SOL    HW1 2009   1.917   2.111   3.988
 2741SOL    HW2 2010   2.024   1.991   4.020
 2742SOL     OW 2011   3.045   3.197   3.843
 2742SOL    HW1 2012   2.946   3.186   3.845
 2742SOL    HW2 2013   3.079   3.212   3.936
 2747SOL     OW 2014   3.087   2.187   4.173
 2747SOL    HW1 2015   3.152   2.113   4.162
 2747SOL    HW2 2016   3.107   2.237   4.257
 2750SOL     OW 2017   2.721   3.236   3.740
 2750SOL    HW1 2018   2.675   3.251   3.828
 2750SOL    HW2 2019   2.765   3.321   3.710
 2753SOL     OW 2020   2.945   2.846   3.811
 2753SOL    HW1 2021   2.922   2.899   3.729
 2753SOL    HW2 2022   3.026   2.790   3.792
 2757SOL     OW 2023   2.290   2.286   4.244
 2757SOL    HW1 2024   2.320   2.214   4.182
 2757SOL    HW2 2025   2.251   2.246   4.327
 2763SOL     OW 2026   2.632   3.192   4.025
 2763SOL    HW1 2027   2.586   3.105   4.042
 2763SOL    HW2 2028   2.723   3.189   4.066
 2764SOL     OW 2029   3.214   1.914   3.892
 2764SOL    HW1 2030   3.249   1.873   3.808
 2764SOL    HW2 2031   3.124   1.876   3.912
 2767SOL     OW 2032   1.901   2.939   4.024
 2767SOL    HW1 2033   2.000   2.928   4.015
 2767SOL    HW2 2034   1.861   2.853   4.056
 2768SOL     OW 2035   2.737   3.508   4.061
 2768SOL    HW1 2036   2.660   3.473   4.007
 2768SOL    HW2 2037   2.705   3.579   4.123
 2794SOL     OW 2038   2.179   3.975   1.801
 2794SOL    HW1 2039   2.250   4.046   1.807
 2794SOL    HW2 2040   2.091   4.014   1.829
 2816SOL     OW 2041   2.643   3.988   1.749
 2816SOL    HW1 2042   2.710   3.927   1.792
 2816SOL    HW2 2043   2.570   4.007   1.814
 2840SOL     OW 2044   2.777   3.813   1.402
 2840SOL    HW1 2045   2.802   3.793   1.307
 2840SOL    HW2 2046   2.849   3.869   1.444
 2850SOL     OW 2047   2.875   3.829   1.770
 2850SOL    HW1 2048   2.881   3.914   1.718
 2850SOL    HW2 2049   2.907   3.753   1.713
 2851SOL     OW 2050   2.366   3.774   1.740
 2851SOL    HW1 2051   2.324   3.717   1.670
 2851SOL    HW2 2052   2.300   3.843   1.772
 2896SOL     OW 2053   2.534   3.927   1.489
 2896SOL    HW1 2054   2.624   3.911   1.449
 2896SOL    HW2 2055   2.542   3.932   1.588
 2923SOL     OW 2056   2.087   3.999   2.858
 2923SOL    HW1 2057   2.122   3.982   2.950
 2923SOL    HW2 2058   1.999   3.954   2.846
 2924SOL     OW 2059   1.881   4.092   2.509
 2924SOL    HW1 2060   1.799   4.135   2.548
 2924SOL    HW2 2061   1.853   4.019   2.446
 2934SOL     OW 2062   2.300   4.116   3.361
 2934SOL    HW1 2063   2.382   4.060   3.370
 2934SOL    HW2 2064   2.219   4.058   3.365
 2938SOL     OW 2065   3.456   3.838   3.342
 2938SOL    HW1 2066   3.438   3.905   3.270
 2938SOL    HW2 2067   3.453   3.884   3.431
 2944SOL     OW 2068   2.671   3.728   2.364
 2944SOL    HW1 2069   2.711   3.819   2.355
 2944SOL    HW2 2070   2.571   3.736   2.370
 2950SOL     OW 2071   3.143   4.069   2.806
 2950SOL    HW1 2072   3.057   4.019   2.793
 2950SOL    HW2 2073   3.205   4.015   2.862
 2954SOL     OW 2074   2.853   4.134   3.104
 2954SOL    HW1 2075   2.776   4.168   3.158
 2954SOL    HW2 2076   2.819   4.083   3.025
 2957SOL     OW 2077   2.727   4.072   2.057
 2957SOL    HW1 2078   2.786   4.135   2.008
 2957SOL    HW2 2079   2.746   3.978   2.028
 2960SOL     OW 2080   2.412   3.920   2.747
 2960SOL    HW1 2081   2.407   3.915   2.847
 2960SOL    HW2 2082   2.414   4.016   2.718
 2964SOL     OW 2083   2.064   4.009   3.360
 2964SOL    HW1 2084   1.984   4.069   3.347
 2964SOL    HW2 2085   2.054   3.960   3.446
 2966SOL     OW 2086   3.262   3.831   2.288
 2966SOL    HW1 2087   3.238   3.794   2.198
 2966SOL    HW2 2088   3.361   3.847   2.292
 2969SOL     OW 2089   2.476   3.846   1.979
 2969SOL    HW1 2090   2.574   3.824   1.986
 2969SOL    HW2 2091   2.445   3.829   1.886
 2970SOL     OW 2092   2.643   3.988   3.611
 2970SOL    HW1 2093   2.710   3.927   3.654
 2970SOL    HW2 2094   2.570   4.007   3.676
 2972SOL     OW 2095   2.784   4.227   2.761
 2972SOL    HW1 2096   2.759   4.218   2.665
 2972SOL    HW2 2097   2.832   4.145   2.792
 2973SOL     OW 2098   2.401   3.788   2.374
 2973SOL    HW1 2099   2.320   3.789   2.432
 2973SOL    HW2 2100   2.404   3.871   2.319
 2975SOL     OW 2101   2.159   3.759   2.033
 2975SOL    HW1 2102   2.208   3.843   2.012
 2975SOL    HW2 2103   2.221   3.694   2.078
 2976SOL     OW 2104   2.797   3.960   2.342
 2976SOL    HW1 2105   2.749   4.001   2.264
 2976SOL    HW2 2106   2.896   3.958   2.323
 2982SOL     OW 2107   2.423   3.946   3.009
 2982SOL    HW1 2108   2.461   3.862   3.046
 2982SOL    HW2 2109   2.335   3.965   3.053
 2983SOL     OW 2110   2.728   4.178   2.504
 2983SOL    HW1 2111   2.696   4.250   2.442
 2983SOL    HW2 2112   2.752   4.097   2.451
 2984SOL     OW 2113   2.879   3.763   2.615
 2984SOL    HW1 2114   2.807   3.768   2.546
 2984SOL    HW2 2115   2.855   3.694   2.684
 2990SOL     OW 2116   2.389   3.980   2.190
 2990SOL    HW1 2117   2.416   3.921   2.115
 2990SOL    HW2 2118   2.389   4.075   2.159
 2995SOL     OW 2119   2.777   3.813   3.264
 2995SOL    HW1 2120   2.802   3.793   3.169
 2995SOL    HW2 2121   2.849   3.869   3.306
 2999SOL     OW 2122   3.136   4.110   3.124
 2999SOL    HW1 2123   3.157   4.184   3.188
 2999SOL    HW2 2124   3.047   4.127   3.081
 3001SOL     OW 2125   2.428   4.261   2.727
 3001SOL    HW1 2126   2.440   4.327   2.653
 3001SOL    HW2 2127   2.474   4.295   2.810
 3005SOL     OW 2128   2.875   3.829   3.632
 3005SOL    HW1 2129   2.881   3.914   3.580
 3005SOL    HW2 2130   2.907   3.753   3.575
 3006SOL     OW 2131   2.366   3.774   3.602
 3006SOL    HW1 2132   2.324   3.717   3.532
 3006SOL    HW2 2133   2.300   3.843   3.634
 3010SOL     OW 2134   2.169   3.937   3.093
 3010SOL    HW1 2135   2.146   3.974   3.183
 3010SOL    HW2 2136   2.139   3.842   3.087
 3014SOL     OW 2137   2.169   3.787   2.480
 3014SOL    HW1 2138   2.158   3.881   2.513
 3014SOL    HW2 2139   2.164   3.724   2.557
 3019SOL     OW 2140   3.402   3.998   1.987
 3019SOL    HW1 2141   3.341   3.923   2.010
 3019SOL    HW2 2142   3.424   4.050   2.070
 3022SOL     OW 2143   2.201   4.233   2.868
 3022SOL    HW1 2144   2.149   4.150   2.851
 3022SOL    HW2 2145   2.278   4.238   2.804
 3024SOL     OW 2146   3.022   3.931   3.339
 3024SOL    HW1 2147   3.022   3.995   3.416
 3024SOL    HW2 2148   3.050   3.979   3.256
 3030SOL     OW 2149   2.677   4.296   2.187
 3030SOL    HW1 2150   2.684   4.207   2.141
 3030SOL    HW2 2151   2.583   4.330   2.179
 3032SOL     OW 2152   2.533   4.188   3.131
 3032SOL    HW1 2153   2.499   4.099   3.101
 3032SOL    HW2 2154   2.559   4.242   3.051
 3033SOL     OW 2155   2.335   4.224   2.053
 3033SOL    HW1 2156   2.396   4.304   2.057
 3033SOL    HW2 2157   2.240   4.255   2.060
 3038SOL     OW 2158   3.588   3.859   2.385
 3038SOL    HW1 2159   3.661   3.842   2.318
 3038SOL    HW2 2160   3.557   3.772   2.423
 3041SOL     OW 2161   3.703   3.899   2.825
 3041SOL    HW1 2162   3.742   3.814   2.789
 3041SOL    HW2 2163   3.605   3.901   2.806
 3042SOL     OW 2164   2.125   4.050   2.582
 3042SOL    HW1 2165   2.046   4.101   2.548
 3042SOL    HW2 2166   2.116   4.035   2.680
 3049SOL     OW 2167   2.876   3.960   2.833
 3049SOL    HW1 2168   2.868   3.924   2.740
 3049SOL    HW2 2169   2.874   3.884   2.898
 3052SOL     OW 2170   2.534   3.927   3.351
 3052SOL    HW1 2171   2.624   3.911   3.311
 3052SOL    HW2 2172   2.542   3.932   3.450
 3053SOL     OW 2173   1.937   4.069   1.895
 3053SOL    HW1 2174   1.845   4.041   1.866
 3053SOL    HW2 2175   1.968   4.146   1.839
 3055SOL     OW 2176   1.934   3.890   2.180
 3055SOL    HW1 2177   1.917   3.973   2.126
 3055SOL    HW2 2178   2.024   3.853   2.158
 3060SOL     OW 2179   3.087   4.049   2.311
 3060SOL    HW1 2180   3.152   3.975   2.300
 3060SOL    HW2 2181   3.107   4.099   2.395
 3070SOL     OW 2182   2.290   4.148   2.382
 3070SOL    HW1 2183   2.320   4.076   2.320
 3070SOL    HW2 2184   2.251   4.108   2.465
 3072SOL     OW 2185   3.286   3.938   2.974
 3072SOL    HW1 2186   3.338   3.873   3.029
 3072SOL    HW2 2187   3.237   4.001   3.035
 3073SOL     OW 2188   2.863   3.758   3.016
 3073SOL    HW1 2189   2.800   3.686   2.985
 3073SOL    HW2 2190   2.956   3.722   3.016
 3075SOL     OW 2191   3.214   3.776   2.030
 3075SOL    HW1 2192   3.249   3.735   1.946
 3075SOL    HW2 2193   3.124   3.738   2.050
 3076SOL     OW 2194   3.162   4.177   2.553
 3076SOL    HW1 2195   3.103   4.257   2.557
 3076SOL    HW2 2196   3.177   4.142   2.646
 3077SOL     OW 2197   3.455   3.945   2.744
 3077SOL    HW1 2198   3.371   3.944   2.798
 3077SOL    HW2 2199   3.457   4.028   2.688
 3234SOL     OW 2200   3.854   1.821   1.571
 3234SOL    HW1 2201   3.844   1.806   1.670
 3234SOL    HW2 2202   3.768   1.857   1.535
 3319SOL     OW 2203   3.854   1.794   1.851
 3319SOL    HW1 2204   3.813   1.720   1.904
 3319SOL    HW2 2205   3.918   1.845   1.909
 3367SOL     OW 2206   3.955   1.713   2.345
 3367SOL    HW1 2207   3.989   1.790   2.399
 3367SOL    HW2 2208   3.999   1.713   2.255
 3369SOL     OW 2209   3.954   1.434   2.400
 3369SOL    HW1 2210   3.928   1.530   2.400
 3369SOL    HW2 2211   3.883   1.380   2.445
 3374SOL     OW 2212   3.751   1.596   1.979
 3374SOL    HW1 2213   3.732   1.500   2.000
 3374SOL    HW2 2214   3.718   1.654   2.054
 3390SOL     OW 2215   3.854   1.821   3.433
 3390SOL    HW1 2216   3.844   1.806   3.532
 3390SOL    HW2 2217   3.768   1.857   3.397
 3395SOL     OW 2218   4.075   1.801   2.715
 3395SOL    HW1 2219   4.125   1.715   2.721
 3395SOL    HW2 2220   4.140   1.878   2.712
 3402SOL     OW 2221   3.973   1.785   3.103
 3402SOL    HW1 2222   4.030   1.720   3.153
 3402SOL    HW2 2223   3.957   1.752   3.010
 3431SOL     OW 2224   3.788   1.564   3.193
 3431SOL    HW1 2225   3.742   1.646   3.159
 3431SOL    HW2 2226   3.886   1.583   3.202
 3457SOL     OW 2227   3.732   1.326   2.062
 3457SOL    HW1 2228   3.639   1.347   2.031
 3457SOL    HW2 2229   3.742   1.227   2.075
 3458SOL     OW 2230   3.812   1.801   2.789
 3458SOL    HW1 2231   3.770   1.715   2.762
 3458SOL    HW2 2232   3.906   1.804   2.755
 3652SOL     OW 2233   3.837   2.599   1.597
 3652SOL    HW1 2234   3.925   2.586   1.642
 3652SOL    HW2 2235   3.824   2.696   1.575
 3658SOL     OW 2236   4.041   2.113   1.801
 3658SOL    HW1 2237   4.112   2.184   1.807
 3658SOL    HW2 2238   3.953   2.152   1.829
 3677SOL     OW 2239   3.926   2.147   1.498
 3677SOL    HW1 2240   3.846   2.207   1.485
 3677SOL    HW2 2241   3.916   2.098   1.584
 3694SOL     OW 2242   3.802   2.418   1.386
 3694SOL    HW1 2243   3.894   2.417   1.345
 3694SOL    HW2 2244   3.796   2.492   1.453
 3725SOL     OW 2245   4.074   2.760   1.804
 3725SOL    HW1 2246   4.150   2.804   1.852
 3725SOL    HW2 2247   4.109   2.713   1.722
 3736SOL     OW 2248   3.913   2.382   1.722
 3736SOL    HW1 2249   3.972   2.342   1.652
 3736SOL    HW2 2250   3.855   2.453   1.681
 3742SOL     OW 2251   3.883   2.999   1.466
 3742SOL    HW1 2252   3.905   2.938   1.542
 3742SOL    HW2 2253   3.893   2.950   1.380
 3763SOL     OW 2254   3.829   2.875   1.726
 3763SOL    HW1 2255   3.752   2.842   1.780
 3763SOL    HW2 2256   3.914   2.845   1.768
 3776SOL     OW 2257   3.945   3.176   1.844
 3776SOL    HW1 2258   3.880   3.103   1.823
 3776SOL    HW2 2259   3.949   3.190   1.942
 3788SOL     OW 2260   3.954   2.490   1.975
 3788SOL    HW1 2261   3.861   2.488   2.012
 3788SOL    HW2 2262   3.955   2.451   1.883
 3789SOL     OW 2263   3.949   2.137   2.858
 3789SOL    HW1 2264   3.984   2.120   2.950
 3789SOL    HW2 2265   3.861   2.092   2.846
 3790SOL     OW 2266   3.743   2.230   2.509
 3790SOL    HW1 2267   3.661   2.273   2.548
 3790SOL    HW2 2268   3.715   2.157   2.446
 3797SOL     OW 2269   4.059   3.297   2.923
 3797SOL    HW1 2270   3.981   3.266   2.870
 3797SOL    HW2 2271   4.117   3.355   2.866
 3799SOL     OW 2272   3.955   3.575   2.345
 3799SOL    HW1 2273   3.989   3.652   2.399
 3799SOL    HW2 2274   3.999   3.575   2.255
 3801SOL     OW 2275   3.954   3.296   2.400
 3801SOL    HW1 2276   3.928   3.392   2.400
 3801SOL    HW2 2277   3.883   3.242   2.445
 3802SOL     OW 2278   3.964   2.953   2.748
 3802SOL    HW1 2279   3.978   2.869   2.800
 3802SOL    HW2 2280   3.909   3.017   2.803
 3805SOL     OW 2281   3.846   2.505   2.425
 3805SOL    HW1 2282   3.801   2.417   2.442
 3805SOL    HW2 2283   3.845   2.559   2.509
 3806SOL     OW 2284   3.751   3.458   1.979
 3806SOL    HW1 2285   3.732   3.362   2.000
 3806SOL    HW2 2286   3.718   3.516   2.054
 3807SOL     OW 2287   3.837   2.599   3.459
 3807SOL    HW1 2288   3.925   2.586   3.504
 3807SOL    HW2 2289   3.824   2.696   3.437
 3811SOL     OW 2290   3.921   2.838   3.126
 3811SOL    HW1 2291   4.010   2.793   3.112
 3811SOL    HW2 2292   3.848   2.773   3.107
 3821SOL     OW 2293   3.800   2.673   2.651
 3821SOL    HW1 2294   3.899   2.661   2.660
 3821SOL    HW2 2295   3.776   2.768   2.672
 3825SOL     OW 2296   4.274   2.058   2.747
 3825SOL    HW1 2297   4.269   2.053   2.847
 3825SOL    HW2 2298   4.276   2.154   2.718
 3829SOL     OW 2299   4.045   2.805   2.104
 3829SOL    HW1 2300   4.127   2.844   2.062
 3829SOL    HW2 2301   4.018   2.723   2.055
 3832SOL     OW 2302   3.926   2.147   3.360
 3832SOL    HW1 2303   3.846   2.207   3.347
 3832SOL    HW2 2304   3.916   2.098   3.446
 3836SOL     OW 2305   4.106   2.562   2.342
 3836SOL    HW1 2306   4.151   2.472   2.339
 3836SOL    HW2 2307   4.012   2.551   2.375
 3843SOL     OW 2308   4.021   1.897   2.033
 3843SOL    HW1 2309   4.070   1.981   2.012
 3843SOL    HW2 2310   4.083   1.832   2.078
 3847SOL     OW 2311   4.183   3.014   2.603
 3847SOL    HW1 2312   4.112   2.987   2.668
 3847SOL    HW2 2313   4.157   2.986   2.510
 3850SOL     OW 2314   3.802   2.418   3.248
 3850SOL    HW1 2315   3.894   2.417   3.207
 3850SOL    HW2 2316   3.796   2.492   3.315
 3855SOL     OW 2317   4.251   2.118   2.190
 3855SOL    HW1 2318   4.278   2.059   2.115
 3855SOL    HW2 2319   4.251   2.213   2.159
 3861SOL     OW 2320   4.134   2.675   3.113
 3861SOL    HW1 2321   4.220   2.687   3.163
 3861SOL    HW2 2322   4.092   2.588   3.140
 3863SOL     OW 2323   3.788   3.426   3.193
 3863SOL    HW1 2324   3.742   3.508   3.159
 3863SOL    HW2 2325   3.886   3.445   3.202
 3864SOL     OW 2326   4.091   2.962   2.363
 3864SOL    HW1 2327   4.084   3.045   2.307
 3864SOL    HW2 2328   4.095   2.882   2.303
 3865SOL     OW 2329   4.290   2.399   2.727
 3865SOL    HW1 2330   4.302   2.465   2.653
 3865SOL    HW2 2331   4.336   2.433   2.810
 3872SOL     OW 2332   4.297   2.732   2.891
 3872SOL    HW1 2333   4.341   2.821   2.882
 3872SOL    HW2 2334   4.234   2.732   2.968
 3875SOL     OW 2335   4.031   2.075   3.093
 3875SOL    HW1 2336   4.008   2.112   3.183
 3875SOL    HW2 2337   4.001   1.980   3.087
 3876SOL     OW 2338   3.761   3.172   3.144
 3876SOL    HW1 2339   3.814   3.123   3.212
 3876SOL    HW2 2340   3.783   3.270   3.149
 3878SOL     OW 2341   4.031   1.925   2.480
 3878SOL    HW1 2342   4.020   2.019   2.513
 3878SOL    HW2 2343   4.026   1.862   2.557
 3885SOL     OW 2344   4.043   2.672   2.811
 3885SOL    HW1 2345   4.136   2.708   2.816
 3885SOL    HW2 2346   4.037   2.587   2.863
 3886SOL     OW 2347   4.063   2.371   2.868
 3886SOL    HW1 2348   4.011   2.288   2.851
 3886SOL    HW2 2349   4.140   2.376   2.804
 3889SOL     OW 2350   3.732   3.188   2.062
 3889SOL    HW1 2351   3.639   3.209   2.031
 3889SOL    HW2 2352   3.742   3.089   2.075
 3890SOL     OW 2353   3.812   3.663   2.789
 3890SOL    HW1 2354   3.770   3.577   2.762
 3890SOL    HW2 2355   3.906   3.666   2.755
 3893SOL     OW 2356   3.764   2.406   2.976
 3893SOL    HW1 2357   3.849   2.373   2.935
 3893SOL    HW2 2358   3.777   2.421   3.074
 3894SOL     OW 2359   3.913   2.382   3.584
 3894SOL    HW1 2360   3.972   2.342   3.514
 3894SOL    HW2 2361   3.855   2.453   3.543
 3899SOL     OW 2362   4.197   2.362   2.053
 3899SOL    HW1 2363   4.258   2.442   2.057
 3899SOL    HW2 2364   4.102   2.393   2.060
 3900SOL     OW 2365   3.883   2.999   3.328
 3900SOL    HW1 2366   3.905   2.938   3.404
 3900SOL    HW2 2367   3.893   2.950   3.242
 3904SOL     OW 2368   3.807   3.120   2.884
 3904SOL    HW1 2369   3.802   3.119   2.984
 3904SOL    HW2 2370   3.724   3.079   2.846
 3911SOL     OW 2371   3.987   2.188   2.582
 3911SOL    HW1 2372   3.908   2.239   2.548
 3911SOL    HW2 2373   3.978   2.173   2.680
 3919SOL     OW 2374   3.979   3.210   2.152
 3919SOL    HW1 2375   3.883   3.211   2.125
 3919SOL    HW2 2376   3.991   3.263   2.236
 3920SOL     OW 2377   3.829   2.875   3.588
 3920SOL    HW1 2378   3.752   2.842   3.642
 3920SOL    HW2 2379   3.914   2.845   3.630
 3922SOL     OW 2380   3.799   2.207   1.895
 3922SOL    HW1 2381   3.707   2.179   1.866
 3922SOL    HW2 2382   3.830   2.284   1.839
 3923SOL     OW 2383   3.796   2.028   2.180
 3923SOL    HW1 2384   3.779   2.111   2.126
 3923SOL    HW2 2385   3.886   1.991   2.158
 3929SOL     OW 2386   4.318   2.607   2.514
 3929SOL    HW1 2387   4.368   2.692   2.495
 3929SOL    HW2 2388   4.230   2.609   2.466
 3935SOL     OW 2389   3.803   3.102   2.515
 3935SOL    HW1 2390   3.802   3.055   2.603
 3935SOL    HW2 2391   3.885   3.074   2.464
 3937SOL     OW 2392   4.152   2.286   2.382
 3937SOL    HW1 2393   4.182   2.214   2.320
 3937SOL    HW2 2394   4.113   2.246   2.465
 3938SOL     OW 2395   4.041   2.409   3.142
 3938SOL    HW1 2396   4.079   2.350   3.214
 3938SOL    HW2 2397   4.081   2.383   3.054
 3945SOL     OW 2398   3.763   2.939   2.162
 3945SOL    HW1 2399   3.862   2.928   2.153
 3945SOL    HW2 2400   3.723   2.853   2.194
 4051SOL     OW 2401   3.799   2.207   3.757
 4051SOL    HW1 2402   3.707   2.179   3.728
 4051SOL    HW2 2403   3.830   2.284   3.701
   5.12224   5.12224   5.12224
