mobley_755351_GMX.gro created by acpype (v: 2023.10.27) on Wed May 20 23:56:23 2026
 2382
    1MOL     C1    1   2.275   2.427   2.247
    1MOL     C2    2   2.382   2.366   2.182
    1MOL     C3    3   2.276   2.439   2.387
    1MOL     C4    4   2.489   2.326   2.395
    1MOL     C5    5   2.489   2.315   2.256
    1MOL     C6    6   2.382   2.388   2.460
    1MOL     C7    7   2.271   2.463   2.656
    1MOL     N1    8   2.597   2.252   2.190
    1MOL     O1    9   2.383   2.399   2.596
    1MOL     H1   10   2.192   2.467   2.190
    1MOL     H2   11   2.381   2.357   2.074
    1MOL     H3   12   2.192   2.487   2.437
    1MOL     H4   13   2.572   2.287   2.453
    1MOL     H5   14   2.192   2.390   2.675
    1MOL     H6   15   2.234   2.542   2.590
    1MOL     H7   16   2.302   2.508   2.751
    1MOL     H8   17   2.578   2.190   2.114
    1MOL     H9   18   2.689   2.264   2.227
   14SOL     OW   19   1.460   1.505   1.339
   14SOL    HW1   20   1.484   1.599   1.365
   14SOL    HW2   21   1.444   1.451   1.421
   18SOL     OW   22   1.127   1.341   1.690
   18SOL    HW1   23   1.174   1.341   1.778
   18SOL    HW2   24   1.079   1.254   1.679
   35SOL     OW   25   1.187   1.792   1.616
   35SOL    HW1   26   1.211   1.852   1.540
   35SOL    HW2   27   1.194   1.697   1.586
   56SOL     OW   28   1.227   1.550   1.506
   56SOL    HW1   29   1.233   1.473   1.570
   56SOL    HW2   30   1.175   1.524   1.426
   95SOL     OW   31   1.754   1.223   1.588
   95SOL    HW1   32   1.845   1.184   1.575
   95SOL    HW2   33   1.762   1.319   1.612
   97SOL     OW   34   1.592   1.629   1.625
   97SOL    HW1   35   1.619   1.663   1.535
   97SOL    HW2   36   1.671   1.591   1.671
  122SOL     OW   37   1.728   0.935   1.854
  122SOL    HW1   38   1.682   0.928   1.765
  122SOL    HW2   39   1.666   0.979   1.920
  126SOL     OW   40   0.980   1.573   1.700
  126SOL    HW1   41   0.960   1.617   1.612
  126SOL    HW2   42   1.019   1.482   1.684
  127SOL     OW   43   1.859   1.518   1.605
  127SOL    HW1   44   1.873   1.545   1.510
  127SOL    HW2   45   1.942   1.540   1.658
  152SOL     OW   46   1.759   1.747   1.154
  152SOL    HW1   47   1.820   1.777   1.081
  152SOL    HW2   48   1.721   1.658   1.132
  163SOL     OW   49   1.650   1.720   1.394
  163SOL    HW1   50   1.703   1.730   1.310
  163SOL    HW2   51   1.623   1.810   1.428
  171SOL     OW   52   1.614   1.292   1.289
  171SOL    HW1   53   1.674   1.295   1.369
  171SOL    HW2   54   1.539   1.356   1.302
  184SOL     OW   55   1.493   1.767   0.959
  184SOL    HW1   56   1.526   1.831   0.890
  184SOL    HW2   57   1.559   1.761   1.034
  186SOL     OW   58   1.450   1.220   1.633
  186SOL    HW1   59   1.441   1.210   1.732
  186SOL    HW2   60   1.546   1.213   1.607
  203SOL     OW   61   1.705   1.487   1.104
  203SOL    HW1   62   1.612   1.462   1.077
  203SOL    HW2   63   1.731   1.437   1.186
  219SOL     OW   64   1.555   1.511   2.565
  219SOL    HW1   65   1.498   1.495   2.646
  219SOL    HW2   66   1.496   1.521   2.485
  227SOL     OW   67   1.460   1.505   3.201
  227SOL    HW1   68   1.484   1.599   3.227
  227SOL    HW2   69   1.444   1.451   3.283
  238SOL     OW   70   1.842   1.767   2.221
  238SOL    HW1   71   1.896   1.738   2.301
  238SOL    HW2   72   1.872   1.857   2.192
  240SOL     OW   73   1.689   0.922   2.474
  240SOL    HW1   74   1.784   0.893   2.482
  240SOL    HW2   75   1.681   0.987   2.399
  241SOL     OW   76   1.641   1.108   2.294
  241SOL    HW1   77   1.727   1.110   2.242
  241SOL    HW2   78   1.655   1.155   2.382
  247SOL     OW   79   1.525   0.999   2.052
  247SOL    HW1   80   1.462   0.923   2.065
  247SOL    HW2   81   1.573   1.017   2.138
  248SOL     OW   82   1.187   1.792   3.478
  248SOL    HW1   83   1.211   1.852   3.402
  248SOL    HW2   84   1.194   1.697   3.448
  250SOL     OW   85   1.466   1.417   2.815
  250SOL    HW1   86   1.407   1.423   2.895
  250SOL    HW2   87   1.451   1.329   2.769
  251SOL     OW   88   1.667   1.714   2.434
  251SOL    HW1   89   1.626   1.691   2.346
  251SOL    HW2   90   1.649   1.640   2.499
  254SOL     OW   91   1.576   1.662   2.169
  254SOL    HW1   92   1.665   1.708   2.172
  254SOL    HW2   93   1.555   1.638   2.074
  264SOL     OW   94   1.362   1.144   2.407
  264SOL    HW1   95   1.445   1.115   2.359
  264SOL    HW2   96   1.313   1.211   2.351
  266SOL     OW   97   1.008   1.456   2.339
  266SOL    HW1   98   0.962   1.528   2.287
  266SOL    HW2   99   1.004   1.476   2.437
  268SOL     OW  100   1.795   1.066   2.735
  268SOL    HW1  101   1.733   1.051   2.659
  268SOL    HW2  102   1.743   1.077   2.820
  269SOL     OW  103   1.227   1.550   3.368
  269SOL    HW1  104   1.233   1.473   3.432
  269SOL    HW2  105   1.175   1.524   3.288
  273SOL     OW  106   1.111   1.776   2.099
  273SOL    HW1  107   1.051   1.714   2.149
  273SOL    HW2  108   1.142   1.732   2.014
  275SOL     OW  109   1.632   1.377   1.943
  275SOL    HW1  110   1.600   1.471   1.933
  275SOL    HW2  111   1.556   1.314   1.931
  279SOL     OW  112   0.940   1.698   2.766
  279SOL    HW1  113   1.020   1.641   2.787
  279SOL    HW2  114   0.891   1.658   2.689
  289SOL     OW  115   1.434   1.188   1.903
  289SOL    HW1  116   1.466   1.112   1.960
  289SOL    HW2  117   1.342   1.215   1.933
  293SOL     OW  118   1.227   1.570   2.655
  293SOL    HW1  119   1.248   1.644   2.590
  293SOL    HW2  120   1.295   1.570   2.728
  295SOL     OW  121   1.271   1.797   2.453
  295SOL    HW1  122   1.315   1.861   2.389
  295SOL    HW2  123   1.221   1.849   2.523
  301SOL     OW  124   1.429   1.173   2.729
  301SOL    HW1  125   1.374   1.089   2.722
  301SOL    HW2  126   1.455   1.202   2.637
  303SOL     OW  127   1.857   0.833   2.239
  303SOL    HW1  128   1.899   0.769   2.303
  303SOL    HW2  129   1.819   0.782   2.161
  305SOL     OW  130   1.664   1.280   2.519
  305SOL    HW1  131   1.763   1.288   2.533
  305SOL    HW2  132   1.619   1.364   2.550
  308SOL     OW  133   1.754   1.223   3.450
  308SOL    HW1  134   1.845   1.184   3.437
  308SOL    HW2  135   1.762   1.319   3.474
  310SOL     OW  136   1.592   1.629   3.487
  310SOL    HW1  137   1.619   1.663   3.397
  310SOL    HW2  138   1.671   1.591   3.533
  312SOL     OW  139   1.638   1.099   2.941
  312SOL    HW1  140   1.643   1.180   3.000
  312SOL    HW2  141   1.552   1.101   2.890
  321SOL     OW  142   1.252   1.348   2.250
  321SOL    HW1  143   1.302   1.425   2.290
  321SOL    HW2  144   1.157   1.350   2.282
  322SOL     OW  145   1.272   1.445   3.004
  322SOL    HW1  146   1.319   1.458   3.091
  322SOL    HW2  147   1.206   1.371   3.013
  340SOL     OW  148   1.859   1.518   3.467
  340SOL    HW1  149   1.873   1.545   3.372
  340SOL    HW2  150   1.942   1.540   3.520
  344SOL     OW  151   1.068   1.333   2.711
  344SOL    HW1  152   1.075   1.249   2.656
  344SOL    HW2  153   1.130   1.402   2.675
  365SOL     OW  154   1.759   1.747   3.016
  365SOL    HW1  155   1.820   1.777   2.943
  365SOL    HW2  156   1.721   1.658   2.994
  366SOL     OW  157   1.252   1.731   2.990
  366SOL    HW1  158   1.336   1.736   2.936
  366SOL    HW2  159   1.229   1.635   3.008
  370SOL     OW  160   1.388   1.573   2.339
  370SOL    HW1  161   1.455   1.585   2.265
  370SOL    HW2  162   1.348   1.662   2.362
  375SOL     OW  163   1.650   1.720   3.256
  375SOL    HW1  164   1.703   1.730   3.172
  375SOL    HW2  165   1.623   1.810   3.290
  378SOL     OW  166   1.194   1.612   1.893
  378SOL    HW1  167   1.200   1.519   1.930
  378SOL    HW2  168   1.135   1.612   1.813
  381SOL     OW  169   1.504   1.607   1.906
  381SOL    HW1  170   1.412   1.644   1.913
  381SOL    HW2  171   1.542   1.627   1.816
  383SOL     OW  172   1.614   1.292   3.151
  383SOL    HW1  173   1.674   1.295   3.231
  383SOL    HW2  174   1.539   1.356   3.164
  394SOL     OW  175   1.183   1.335   1.981
  394SOL    HW1  176   1.084   1.324   1.983
  394SOL    HW2  177   1.217   1.350   2.074
  396SOL     OW  178   1.493   1.767   2.821
  396SOL    HW1  179   1.526   1.831   2.752
  396SOL    HW2  180   1.559   1.761   2.896
  409SOL     OW  181   1.861   1.569   2.713
  409SOL    HW1  182   1.790   1.557   2.643
  409SOL    HW2  183   1.862   1.490   2.773
  415SOL     OW  184   1.705   1.487   2.966
  415SOL    HW1  185   1.612   1.462   2.939
  415SOL    HW2  186   1.731   1.437   3.048
  417SOL     OW  187   0.812   1.586   2.549
  417SOL    HW1  188   0.844   1.596   2.455
  417SOL    HW2  189   0.733   1.524   2.551
  426SOL     OW  190   0.875   1.646   2.199
  426SOL    HW1  191   0.798   1.611   2.145
  426SOL    HW2  192   0.843   1.717   2.261
  551SOL     OW  193   0.850   2.660   1.823
  551SOL    HW1  194   0.846   2.736   1.888
  551SOL    HW2  195   0.872   2.696   1.732
  555SOL     OW  196   1.460   3.367   1.339
  555SOL    HW1  197   1.484   3.461   1.365
  555SOL    HW2  198   1.444   3.313   1.421
  559SOL     OW  199   1.127   3.203   1.690
  559SOL    HW1  200   1.174   3.203   1.778
  559SOL    HW2  201   1.079   3.116   1.679
  564SOL     OW  202   1.594   1.976   1.480
  564SOL    HW1  203   1.576   2.043   1.408
  564SOL    HW2  204   1.591   2.022   1.569
  572SOL     OW  205   1.293   3.090   1.423
  572SOL    HW1  206   1.330   3.017   1.365
  572SOL    HW2  207   1.345   3.095   1.508
  584SOL     OW  208   1.394   2.331   1.674
  584SOL    HW1  209   1.374   2.374   1.762
  584SOL    HW2  210   1.472   2.269   1.683
  585SOL     OW  211   0.973   2.752   1.572
  585SOL    HW1  212   1.019   2.668   1.543
  585SOL    HW2  213   0.917   2.786   1.497
  591SOL     OW  214   1.719   2.447   1.831
  591SOL    HW1  215   1.693   2.536   1.795
  591SOL    HW2  216   1.717   2.379   1.758
  596SOL     OW  217   1.795   2.928   0.873
  596SOL    HW1  218   1.733   2.913   0.797
  596SOL    HW2  219   1.743   2.939   0.958
  597SOL     OW  220   1.227   3.412   1.506
  597SOL    HW1  221   1.233   3.335   1.570
  597SOL    HW2  222   1.175   3.386   1.426
  609SOL     OW  223   1.547   2.084   1.729
  609SOL    HW1  224   1.542   2.121   1.821
  609SOL    HW2  225   1.475   2.015   1.717
  611SOL     OW  226   0.781   2.126   1.749
  611SOL    HW1  227   0.848   2.065   1.792
  611SOL    HW2  228   0.708   2.145   1.814
  613SOL     OW  229   1.351   2.452   1.433
  613SOL    HW1  230   1.379   2.409   1.518
  613SOL    HW2  231   1.376   2.548   1.434
  619SOL     OW  232   1.076   2.545   1.464
  619SOL    HW1  233   0.996   2.484   1.467
  619SOL    HW2  234   1.157   2.492   1.440
  629SOL     OW  235   1.466   2.452   0.992
  629SOL    HW1  236   1.436   2.357   0.999
  629SOL    HW2  237   1.539   2.468   1.058
  635SOL     OW  238   1.754   3.085   1.588
  635SOL    HW1  239   1.845   3.046   1.575
  635SOL    HW2  240   1.762   3.181   1.612
  637SOL     OW  241   1.592   3.491   1.625
  637SOL    HW1  242   1.619   3.525   1.535
  637SOL    HW2  243   1.671   3.453   1.671
  639SOL     OW  244   1.638   2.961   1.079
  639SOL    HW1  245   1.643   3.042   1.138
  639SOL    HW2  246   1.552   2.963   1.028
  641SOL     OW  247   0.980   2.978   1.719
  641SOL    HW1  248   0.881   2.984   1.729
  641SOL    HW2  249   1.003   2.898   1.663
  644SOL     OW  250   1.274   2.248   1.262
  644SOL    HW1  251   1.295   2.322   1.326
  644SOL    HW2  252   1.185   2.265   1.219
  653SOL     OW  253   1.587   2.641   1.670
  653SOL    HW1  254   1.495   2.679   1.665
  653SOL    HW2  255   1.647   2.688   1.605
  654SOL     OW  256   1.013   1.967   1.770
  654SOL    HW1  257   1.019   2.052   1.718
  654SOL    HW2  258   1.045   1.891   1.713
  657SOL     OW  259   1.360   2.724   1.045
  657SOL    HW1  260   1.285   2.724   0.979
  657SOL    HW2  261   1.397   2.632   1.054
  662SOL     OW  262   1.728   2.797   1.854
  662SOL    HW1  263   1.682   2.790   1.765
  662SOL    HW2  264   1.666   2.841   1.920
  667SOL     OW  265   1.859   3.380   1.605
  667SOL    HW1  266   1.873   3.407   1.510
  667SOL    HW2  267   1.942   3.402   1.658
  674SOL     OW  268   1.138   2.242   1.678
  674SOL    HW1  269   1.093   2.305   1.742
  674SOL    HW2  270   1.231   2.273   1.661
  675SOL     OW  271   1.160   2.069   1.477
  675SOL    HW1  272   1.160   2.133   1.554
  675SOL    HW2  273   1.188   2.117   1.394
  682SOL     OW  274   1.369   2.812   1.660
  682SOL    HW1  275   1.408   2.901   1.680
  682SOL    HW2  276   1.379   2.792   1.563
  684SOL     OW  277   1.657   2.466   1.206
  684SOL    HW1  278   1.619   2.397   1.268
  684SOL    HW2  279   1.739   2.430   1.162
  690SOL     OW  280   1.347   2.921   1.234
  690SOL    HW1  281   1.371   2.858   1.160
  690SOL    HW2  282   1.257   2.961   1.216
  703SOL     OW  283   1.650   3.582   1.394
  703SOL    HW1  284   1.703   3.592   1.310
  703SOL    HW2  285   1.623   3.672   1.428
  704SOL     OW  286   1.841   2.037   0.963
  704SOL    HW1  287   1.880   1.952   0.927
  704SOL    HW2  288   1.743   2.039   0.944
  711SOL     OW  289   1.614   3.154   1.289
  711SOL    HW1  290   1.674   3.157   1.369
  711SOL    HW2  291   1.539   3.218   1.302
  715SOL     OW  292   1.709   2.247   1.381
  715SOL    HW1  293   1.782   2.316   1.385
  715SOL    HW2  294   1.737   2.172   1.322
  720SOL     OW  295   1.440   2.718   1.398
  720SOL    HW1  296   1.383   2.770   1.335
  720SOL    HW2  297   1.536   2.730   1.374
  725SOL     OW  298   0.716   2.427   1.708
  725SOL    HW1  299   0.735   2.492   1.782
  725SOL    HW2  300   0.776   2.347   1.717
  726SOL     OW  301   1.450   3.082   1.633
  726SOL    HW1  302   1.441   3.072   1.732
  726SOL    HW2  303   1.546   3.075   1.607
  728SOL     OW  304   1.674   2.745   1.254
  728SOL    HW1  305   1.647   2.656   1.217
  728SOL    HW2  306   1.675   2.813   1.181
  731SOL     OW  307   1.777   2.204   1.642
  731SOL    HW1  308   1.760   2.235   1.548
  731SOL    HW2  309   1.693   2.167   1.680
  732SOL     OW  310   1.730   2.796   1.517
  732SOL    HW1  311   1.768   2.887   1.532
  732SOL    HW2  312   1.722   2.779   1.418
  741SOL     OW  313   1.824   2.054   1.227
  741SOL    HW1  314   1.820   1.964   1.271
  741SOL    HW2  315   1.827   2.043   1.128
  743SOL     OW  316   1.705   3.349   1.104
  743SOL    HW1  317   1.612   3.324   1.077
  743SOL    HW2  318   1.731   3.299   1.186
  746SOL     OW  319   1.424   2.076   1.112
  746SOL    HW1  320   1.476   2.011   1.167
  746SOL    HW2  321   1.375   2.139   1.173
  752SOL     OW  322   1.593   2.083   0.882
  752SOL    HW1  323   1.509   2.082   0.936
  752SOL    HW2  324   1.595   2.166   0.826
  759SOL     OW  325   1.555   3.373   2.565
  759SOL    HW1  326   1.498   3.357   2.646
  759SOL    HW2  327   1.496   3.383   2.485
  760SOL     OW  328   1.135   2.565   2.579
  760SOL    HW1  329   1.192   2.643   2.554
  760SOL    HW2  330   1.075   2.591   2.655
  761SOL     OW  331   1.755   2.469   2.093
  761SOL    HW1  332   1.743   2.456   1.994
  761SOL    HW2  333   1.725   2.388   2.142
  764SOL     OW  334   0.685   2.874   2.527
  764SOL    HW1  335   0.754   2.858   2.597
  764SOL    HW2  336   0.612   2.931   2.565
  767SOL     OW  337   1.460   3.367   3.201
  767SOL    HW1  338   1.484   3.461   3.227
  767SOL    HW2  339   1.444   3.313   3.283
  769SOL     OW  340   1.603   2.309   2.599
  769SOL    HW1  341   1.529   2.355   2.549
  769SOL    HW2  342   1.654   2.377   2.652
  776SOL     OW  343   1.594   1.976   3.342
  776SOL    HW1  344   1.576   2.043   3.270
  776SOL    HW2  345   1.591   2.022   3.431
  778SOL     OW  346   1.842   3.629   2.221
  778SOL    HW1  347   1.896   3.600   2.301
  778SOL    HW2  348   1.872   3.719   2.192
  780SOL     OW  349   1.689   2.784   2.474
  780SOL    HW1  350   1.784   2.755   2.482
  780SOL    HW2  351   1.681   2.849   2.399
  781SOL     OW  352   1.641   2.970   2.294
  781SOL    HW1  353   1.727   2.972   2.242
  781SOL    HW2  354   1.655   3.017   2.382
  784SOL     OW  355   1.293   3.090   3.285
  784SOL    HW1  356   1.330   3.017   3.227
  784SOL    HW2  357   1.345   3.095   3.370
  785SOL     OW  358   0.809   1.866   2.364
  785SOL    HW1  359   0.849   1.957   2.355
  785SOL    HW2  360   0.709   1.874   2.370
  787SOL     OW  361   1.525   2.861   2.052
  787SOL    HW1  362   1.462   2.785   2.065
  787SOL    HW2  363   1.573   2.879   2.138
  790SOL     OW  364   1.466   3.279   2.815
  790SOL    HW1  365   1.407   3.285   2.895
  790SOL    HW2  366   1.451   3.191   2.769
  791SOL     OW  367   1.667   3.576   2.434
  791SOL    HW1  368   1.626   3.553   2.346
  791SOL    HW2  369   1.649   3.502   2.499
  793SOL     OW  370   1.281   2.207   2.806
  793SOL    HW1  371   1.195   2.157   2.793
  793SOL    HW2  372   1.343   2.153   2.862
  794SOL     OW  373   1.576   3.524   2.169
  794SOL    HW1  374   1.665   3.570   2.172
  794SOL    HW2  375   1.555   3.500   2.074
  796SOL     OW  376   1.394   2.331   3.536
  796SOL    HW1  377   1.374   2.374   3.624
  796SOL    HW2  378   1.472   2.269   3.545
  797SOL     OW  379   0.973   2.752   3.434
  797SOL    HW1  380   1.019   2.668   3.405
  797SOL    HW2  381   0.917   2.786   3.359
  798SOL     OW  382   0.991   2.272   3.104
  798SOL    HW1  383   0.914   2.306   3.158
  798SOL    HW2  384   0.957   2.221   3.025
  799SOL     OW  385   1.041   2.563   2.291
  799SOL    HW1  386   1.067   2.559   2.387
  799SOL    HW2  387   0.956   2.512   2.277
  802SOL     OW  388   0.865   2.210   2.057
  802SOL    HW1  389   0.924   2.273   2.008
  802SOL    HW2  390   0.884   2.116   2.028
  803SOL     OW  391   1.719   2.447   3.693
  803SOL    HW1  392   1.693   2.536   3.657
  803SOL    HW2  393   1.717   2.379   3.620
  804SOL     OW  394   1.362   3.006   2.407
  804SOL    HW1  395   1.445   2.977   2.359
  804SOL    HW2  396   1.313   3.073   2.351
  806SOL     OW  397   1.008   3.318   2.339
  806SOL    HW1  398   0.962   3.390   2.287
  806SOL    HW2  399   1.004   3.338   2.437
  808SOL     OW  400   1.795   2.928   2.735
  808SOL    HW1  401   1.733   2.913   2.659
  808SOL    HW2  402   1.743   2.939   2.820
  811SOL     OW  403   1.458   2.597   2.590
  811SOL    HW1  404   1.453   2.532   2.665
  811SOL    HW2  405   1.538   2.656   2.603
  815SOL     OW  406   1.632   3.239   1.943
  815SOL    HW1  407   1.600   3.333   1.933
  815SOL    HW2  408   1.556   3.176   1.931
  817SOL     OW  409   1.400   1.969   2.288
  817SOL    HW1  410   1.376   1.932   2.198
  817SOL    HW2  411   1.499   1.985   2.292
  821SOL     OW  412   1.547   2.084   3.591
  821SOL    HW1  413   1.542   2.121   3.683
  821SOL    HW2  414   1.475   2.015   3.579
  825SOL     OW  415   1.351   2.452   3.295
  825SOL    HW1  416   1.379   2.409   3.380
  825SOL    HW2  417   1.376   2.548   3.296
  827SOL     OW  418   0.922   2.365   2.761
  827SOL    HW1  419   0.897   2.356   2.665
  827SOL    HW2  420   0.970   2.283   2.792
  829SOL     OW  421   1.434   3.050   1.903
  829SOL    HW1  422   1.466   2.974   1.960
  829SOL    HW2  423   1.342   3.077   1.933
  831SOL     OW  424   0.935   2.098   2.342
  831SOL    HW1  425   0.887   2.139   2.264
  831SOL    HW2  426   1.034   2.096   2.323
  832SOL     OW  427   1.076   2.545   3.326
  832SOL    HW1  428   0.996   2.484   3.329
  832SOL    HW2  429   1.157   2.492   3.302
  833SOL     OW  430   1.227   3.432   2.655
  833SOL    HW1  431   1.248   3.506   2.590
  833SOL    HW2  432   1.295   3.432   2.728
  835SOL     OW  433   1.271   3.659   2.453
  835SOL    HW1  434   1.315   3.723   2.389
  835SOL    HW2  435   1.221   3.711   2.523
  836SOL     OW  436   1.032   2.411   1.878
  836SOL    HW1  437   0.991   2.493   1.839
  836SOL    HW2  438   1.096   2.437   1.951
  839SOL     OW  439   0.866   2.316   2.504
  839SOL    HW1  440   0.834   2.388   2.442
  839SOL    HW2  441   0.890   2.235   2.451
  840SOL     OW  442   1.017   1.901   2.615
  840SOL    HW1  443   0.945   1.906   2.546
  840SOL    HW2  444   0.993   1.832   2.684
  841SOL     OW  445   1.429   3.035   2.729
  841SOL    HW1  446   1.374   2.951   2.722
  841SOL    HW2  447   1.455   3.064   2.637
  842SOL     OW  448   1.466   2.452   2.854
  842SOL    HW1  449   1.436   2.357   2.861
  842SOL    HW2  450   1.539   2.468   2.920
  843SOL     OW  451   1.857   2.695   2.239
  843SOL    HW1  452   1.899   2.631   2.303
  843SOL    HW2  453   1.819   2.644   2.161
  845SOL     OW  454   1.664   3.142   2.519
  845SOL    HW1  455   1.763   3.150   2.533
  845SOL    HW2  456   1.619   3.226   2.550
  846SOL     OW  457   1.390   2.437   1.940
  846SOL    HW1  458   1.336   2.416   2.021
  846SOL    HW2  459   1.481   2.396   1.949
  848SOL     OW  460   1.754   3.085   3.450
  848SOL    HW1  461   1.845   3.046   3.437
  848SOL    HW2  462   1.762   3.181   3.474
  849SOL     OW  463   1.064   3.209   3.202
  849SOL    HW1  464   0.984   3.186   3.257
  849SOL    HW2  465   1.147   3.183   3.251
  850SOL     OW  466   1.592   3.491   3.487
  850SOL    HW1  467   1.619   3.525   3.397
  850SOL    HW2  468   1.671   3.453   3.533
  851SOL     OW  469   1.111   3.057   2.962
  851SOL    HW1  470   1.071   3.101   3.043
  851SOL    HW2  471   1.070   3.094   2.879
  852SOL     OW  472   1.638   2.961   2.941
  852SOL    HW1  473   1.643   3.042   3.000
  852SOL    HW2  474   1.552   2.963   2.890
  853SOL     OW  475   0.915   1.951   3.264
  853SOL    HW1  476   0.940   1.931   3.169
  853SOL    HW2  477   0.987   2.007   3.306
  855SOL     OW  478   0.705   2.912   2.230
  855SOL    HW1  479   0.691   2.919   2.329
  855SOL    HW2  480   0.789   2.861   2.212
  857SOL     OW  481   1.274   2.248   3.124
  857SOL    HW1  482   1.295   2.322   3.188
  857SOL    HW2  483   1.185   2.265   3.081
  861SOL     OW  484   1.252   3.210   2.250
  861SOL    HW1  485   1.302   3.287   2.290
  861SOL    HW2  486   1.157   3.212   2.282
  862SOL     OW  487   1.272   3.307   3.004
  862SOL    HW1  488   1.319   3.320   3.091
  862SOL    HW2  489   1.206   3.233   3.013
  863SOL     OW  490   1.582   2.501   2.334
  863SOL    HW1  491   1.551   2.562   2.407
  863SOL    HW2  492   1.632   2.553   2.265
  866SOL     OW  493   1.587   2.641   3.532
  866SOL    HW1  494   1.495   2.679   3.527
  866SOL    HW2  495   1.647   2.688   3.467
  870SOL     OW  496   1.360   2.724   2.907
  870SOL    HW1  497   1.285   2.724   2.841
  870SOL    HW2  498   1.397   2.632   2.916
  871SOL     OW  499   1.209   2.387   2.137
  871SOL    HW1  500   1.222   2.303   2.191
  871SOL    HW2  501   1.180   2.461   2.197
  874SOL     OW  502   0.732   2.496   2.926
  874SOL    HW1  503   0.791   2.470   2.850
  874SOL    HW2  504   0.704   2.592   2.915
  875SOL     OW  505   1.728   2.797   3.716
  875SOL    HW1  506   1.682   2.790   3.627
  875SOL    HW2  507   1.666   2.841   3.782
  877SOL     OW  508   1.622   2.229   2.236
  877SOL    HW1  509   1.624   2.153   2.300
  877SOL    HW2  510   1.574   2.306   2.276
  878SOL     OW  511   1.023   2.628   2.828
  878SOL    HW1  512   1.038   2.649   2.924
  878SOL    HW2  513   0.993   2.533   2.819
  880SOL     OW  514   1.859   3.380   3.467
  880SOL    HW1  515   1.873   3.407   3.372
  880SOL    HW2  516   1.942   3.402   3.520
  882SOL     OW  517   1.540   2.136   1.987
  882SOL    HW1  518   1.479   2.061   2.010
  882SOL    HW2  519   1.562   2.188   2.070
  883SOL     OW  520   1.303   2.700   1.904
  883SOL    HW1  521   1.337   2.607   1.919
  883SOL    HW2  522   1.321   2.727   1.809
  884SOL     OW  523   1.068   3.195   2.711
  884SOL    HW1  524   1.075   3.111   2.656
  884SOL    HW2  525   1.130   3.264   2.675
  887SOL     OW  526   1.138   2.242   3.540
  887SOL    HW1  527   1.093   2.305   3.604
  887SOL    HW2  528   1.231   2.273   3.523
  888SOL     OW  529   1.160   2.069   3.339
  888SOL    HW1  530   1.160   2.133   3.416
  888SOL    HW2  531   1.188   2.117   3.256
  892SOL     OW  532   1.002   2.658   3.100
  892SOL    HW1  533   1.043   2.626   3.186
  892SOL    HW2  534   0.906   2.631   3.097
  895SOL     OW  535   1.369   2.812   3.522
  895SOL    HW1  536   1.408   2.901   3.542
  895SOL    HW2  537   1.379   2.792   3.425
  896SOL     OW  538   0.815   2.434   2.187
  896SOL    HW1  539   0.822   2.345   2.141
  896SOL    HW2  540   0.721   2.468   2.179
  897SOL     OW  541   1.657   2.466   3.068
  897SOL    HW1  542   1.619   2.397   3.130
  897SOL    HW2  543   1.739   2.430   3.024
  903SOL     OW  544   1.347   2.921   3.096
  903SOL    HW1  545   1.371   2.858   3.022
  903SOL    HW2  546   1.257   2.961   3.078
  904SOL     OW  547   1.302   2.717   2.171
  904SOL    HW1  548   1.216   2.686   2.213
  904SOL    HW2  549   1.298   2.703   2.072
  905SOL     OW  550   1.759   3.609   3.016
  905SOL    HW1  551   1.820   3.639   2.943
  905SOL    HW2  552   1.721   3.520   2.994
  906SOL     OW  553   1.252   3.593   2.990
  906SOL    HW1  554   1.336   3.598   2.936
  906SOL    HW2  555   1.229   3.497   3.008
  909SOL     OW  556   1.726   1.997   2.385
  909SOL    HW1  557   1.799   1.980   2.318
  909SOL    HW2  558   1.695   1.910   2.423
  910SOL     OW  559   1.388   3.435   2.339
  910SOL    HW1  560   1.455   3.447   2.265
  910SOL    HW2  561   1.348   3.524   2.362
  912SOL     OW  562   1.280   2.789   2.534
  912SOL    HW1  563   1.340   2.708   2.536
  912SOL    HW2  564   1.320   2.858   2.474
  915SOL     OW  565   1.650   3.582   3.256
  915SOL    HW1  566   1.703   3.592   3.172
  915SOL    HW2  567   1.623   3.672   3.290
  916SOL     OW  568   1.841   2.037   2.825
  916SOL    HW1  569   1.880   1.952   2.789
  916SOL    HW2  570   1.743   2.039   2.806
  918SOL     OW  571   1.194   3.474   1.893
  918SOL    HW1  572   1.200   3.381   1.930
  918SOL    HW2  573   1.135   3.474   1.813
  920SOL     OW  574   0.916   2.772   2.153
  920SOL    HW1  575   0.979   2.810   2.085
  920SOL    HW2  576   0.956   2.689   2.192
  921SOL     OW  577   1.504   3.469   1.906
  921SOL    HW1  578   1.412   3.506   1.913
  921SOL    HW2  579   1.542   3.489   1.816
  923SOL     OW  580   1.614   3.154   3.151
  923SOL    HW1  581   1.674   3.157   3.231
  923SOL    HW2  582   1.539   3.218   3.164
  924SOL     OW  583   1.039   2.960   2.558
  924SOL    HW1  584   0.969   2.913   2.612
  924SOL    HW2  585   1.098   2.892   2.515
  925SOL     OW  586   1.014   2.098   2.833
  925SOL    HW1  587   1.006   2.062   2.740
  925SOL    HW2  588   1.012   2.022   2.898
  927SOL     OW  589   1.709   2.247   3.243
  927SOL    HW1  590   1.782   2.316   3.247
  927SOL    HW2  591   1.737   2.172   3.184
  932SOL     OW  592   1.440   2.718   3.260
  932SOL    HW1  593   1.383   2.770   3.197
  932SOL    HW2  594   1.536   2.730   3.236
  934SOL     OW  595   1.183   3.197   1.981
  934SOL    HW1  596   1.084   3.186   1.983
  934SOL    HW2  597   1.217   3.212   2.074
  936SOL     OW  598   1.493   3.629   2.821
  936SOL    HW1  599   1.526   3.693   2.752
  936SOL    HW2  600   1.559   3.623   2.896
  938SOL     OW  601   1.450   3.082   3.495
  938SOL    HW1  602   1.441   3.072   3.594
  938SOL    HW2  603   1.546   3.075   3.469
  940SOL     OW  604   1.674   2.745   3.116
  940SOL    HW1  605   1.647   2.656   3.079
  940SOL    HW2  606   1.675   2.813   3.043
  941SOL     OW  607   1.225   2.187   2.311
  941SOL    HW1  608   1.290   2.113   2.300
  941SOL    HW2  609   1.245   2.237   2.395
  943SOL     OW  610   1.777   2.204   3.504
  943SOL    HW1  611   1.760   2.235   3.410
  943SOL    HW2  612   1.693   2.167   3.542
  944SOL     OW  613   1.730   2.796   3.379
  944SOL    HW1  614   1.768   2.887   3.394
  944SOL    HW2  615   1.722   2.779   3.280
  947SOL     OW  616   0.859   2.818   2.723
  947SOL    HW1  617   0.913   2.749   2.771
  947SOL    HW2  618   0.827   2.887   2.789
  948SOL     OW  619   1.083   2.846   1.949
  948SOL    HW1  620   1.060   2.899   1.867
  948SOL    HW2  621   1.164   2.790   1.930
  949SOL     OW  622   1.861   3.431   2.713
  949SOL    HW1  623   1.790   3.419   2.643
  949SOL    HW2  624   1.862   3.352   2.773
  953SOL     OW  625   1.824   2.054   3.089
  953SOL    HW1  626   1.820   1.964   3.133
  953SOL    HW2  627   1.827   2.043   2.990
  955SOL     OW  628   1.705   3.349   2.966
  955SOL    HW1  629   1.612   3.324   2.939
  955SOL    HW2  630   1.731   3.299   3.048
  958SOL     OW  631   1.424   2.076   2.974
  958SOL    HW1  632   1.476   2.011   3.029
  958SOL    HW2  633   1.375   2.139   3.035
  959SOL     OW  634   1.001   1.896   3.016
  959SOL    HW1  635   0.938   1.824   2.985
  959SOL    HW2  636   1.094   1.860   3.016
  962SOL     OW  637   1.352   1.914   2.030
  962SOL    HW1  638   1.387   1.873   1.946
  962SOL    HW2  639   1.262   1.876   2.050
  963SOL     OW  640   1.300   2.315   2.553
  963SOL    HW1  641   1.241   2.395   2.557
  963SOL    HW2  642   1.315   2.280   2.646
  964SOL     OW  643   1.593   2.083   2.744
  964SOL    HW1  644   1.509   2.082   2.798
  964SOL    HW2  645   1.595   2.166   2.688
  972SOL     OW  646   1.755   2.469   3.955
  972SOL    HW1  647   1.743   2.456   3.856
  972SOL    HW2  648   1.725   2.388   4.004
 1024SOL     OW  649   1.390   2.437   3.802
 1024SOL    HW1  650   1.336   2.416   3.883
 1024SOL    HW2  651   1.481   2.396   3.811
 1037SOL     OW  652   1.540   2.136   3.849
 1037SOL    HW1  653   1.479   2.061   3.872
 1037SOL    HW2  654   1.562   2.188   3.932
 1038SOL     OW  655   1.303   2.700   3.766
 1038SOL    HW1  656   1.337   2.607   3.781
 1038SOL    HW2  657   1.321   2.727   3.671
 1230SOL     OW  658   1.400   3.831   2.288
 1230SOL    HW1  659   1.376   3.794   2.198
 1230SOL    HW2  660   1.499   3.847   2.292
 1288SOL     OW  661   1.726   3.859   2.385
 1288SOL    HW1  662   1.799   3.842   2.318
 1288SOL    HW2  663   1.695   3.772   2.423
 1290SOL     OW  664   1.841   3.899   2.825
 1290SOL    HW1  665   1.880   3.814   2.789
 1290SOL    HW2  666   1.743   3.901   2.806
 1307SOL     OW  667   1.824   3.916   3.089
 1307SOL    HW1  668   1.820   3.826   3.133
 1307SOL    HW2  669   1.827   3.905   2.990
 1312SOL     OW  670   1.352   3.776   2.030
 1312SOL    HW1  671   1.387   3.735   1.946
 1312SOL    HW2  672   1.262   3.738   2.050
 1314SOL     OW  673   1.593   3.945   2.744
 1314SOL    HW1  674   1.509   3.944   2.798
 1314SOL    HW2  675   1.595   4.028   2.688
 1380SOL     OW  676   2.431   1.275   1.165
 1380SOL    HW1  677   2.338   1.268   1.128
 1380SOL    HW2  678   2.442   1.364   1.209
 1385SOL     OW  679   2.712   0.798   1.823
 1385SOL    HW1  680   2.708   0.874   1.888
 1385SOL    HW2  681   2.734   0.834   1.732
 1387SOL     OW  682   2.548   1.161   1.803
 1387SOL    HW1  683   2.608   1.240   1.817
 1387SOL    HW2  684   2.462   1.192   1.762
 1388SOL     OW  685   2.197   1.435   1.061
 1388SOL    HW1  686   2.119   1.404   1.008
 1388SOL    HW2  687   2.255   1.493   1.004
 1389SOL     OW  688   3.322   1.505   1.339
 1389SOL    HW1  689   3.346   1.599   1.365
 1389SOL    HW2  690   3.306   1.451   1.421
 1393SOL     OW  691   2.989   1.341   1.690
 1393SOL    HW1  692   3.036   1.341   1.778
 1393SOL    HW2  693   2.941   1.254   1.679
 1396SOL     OW  694   2.482   1.786   1.439
 1396SOL    HW1  695   2.390   1.769   1.474
 1396SOL    HW2  696   2.510   1.878   1.465
 1406SOL     OW  697   3.155   1.228   1.423
 1406SOL    HW1  698   3.192   1.155   1.365
 1406SOL    HW2  699   3.207   1.233   1.508
 1410SOL     OW  700   3.049   1.792   1.616
 1410SOL    HW1  701   3.073   1.852   1.540
 1410SOL    HW2  702   3.056   1.697   1.586
 1419SOL     OW  703   2.835   0.890   1.572
 1419SOL    HW1  704   2.881   0.806   1.543
 1419SOL    HW2  705   2.779   0.924   1.497
 1423SOL     OW  706   1.992   1.821   1.571
 1423SOL    HW1  707   1.982   1.806   1.670
 1423SOL    HW2  708   1.906   1.857   1.535
 1429SOL     OW  709   2.213   1.801   0.853
 1429SOL    HW1  710   2.263   1.715   0.859
 1429SOL    HW2  711   2.278   1.878   0.850
 1431SOL     OW  712   3.089   1.550   1.506
 1431SOL    HW1  713   3.095   1.473   1.570
 1431SOL    HW2  714   3.037   1.524   1.426
 1434SOL     OW  715   2.323   1.266   1.727
 1434SOL    HW1  716   2.273   1.267   1.641
 1434SOL    HW2  717   2.260   1.248   1.803
 1440SOL     OW  718   2.111   1.785   1.241
 1440SOL    HW1  719   2.168   1.720   1.291
 1440SOL    HW2  720   2.095   1.752   1.148
 1441SOL     OW  721   2.802   1.698   0.904
 1441SOL    HW1  722   2.882   1.641   0.925
 1441SOL    HW2  723   2.753   1.658   0.827
 1446SOL     OW  724   2.750   1.514   1.195
 1446SOL    HW1  725   2.727   1.489   1.101
 1446SOL    HW2  726   2.811   1.445   1.234
 1448SOL     OW  727   2.665   1.402   0.924
 1448SOL    HW1  728   2.755   1.416   0.882
 1448SOL    HW2  729   2.594   1.404   0.853
 1471SOL     OW  730   2.926   1.347   1.340
 1471SOL    HW1  731   2.846   1.324   1.395
 1471SOL    HW2  732   3.009   1.321   1.389
 1472SOL     OW  733   3.454   1.629   1.625
 1472SOL    HW1  734   3.481   1.663   1.535
 1472SOL    HW2  735   3.533   1.591   1.671
 1476SOL     OW  736   2.842   1.116   1.719
 1476SOL    HW1  737   2.743   1.122   1.729
 1476SOL    HW2  738   2.865   1.036   1.663
 1480SOL     OW  739   1.926   1.564   1.331
 1480SOL    HW1  740   1.880   1.646   1.297
 1480SOL    HW2  741   2.024   1.583   1.340
 1484SOL     OW  742   3.134   1.445   1.142
 1484SOL    HW1  743   3.181   1.458   1.229
 1484SOL    HW2  744   3.068   1.371   1.151
 1486SOL     OW  745   2.216   1.510   1.329
 1486SOL    HW1  746   2.195   1.466   1.242
 1486SOL    HW2  747   2.313   1.536   1.332
 1495SOL     OW  748   1.899   1.310   1.282
 1495SOL    HW1  749   1.952   1.261   1.350
 1495SOL    HW2  750   1.921   1.408   1.287
 1501SOL     OW  751   2.842   1.573   1.700
 1501SOL    HW1  752   2.822   1.617   1.612
 1501SOL    HW2  753   2.881   1.482   1.684
 1502SOL     OW  754   3.721   1.518   1.605
 1502SOL    HW1  755   3.735   1.545   1.510
 1502SOL    HW2  756   3.804   1.540   1.658
 1503SOL     OW  757   2.212   0.898   1.804
 1503SOL    HW1  758   2.288   0.942   1.852
 1503SOL    HW2  759   2.247   0.851   1.722
 1512SOL     OW  760   1.950   1.801   0.927
 1512SOL    HW1  761   1.908   1.715   0.900
 1512SOL    HW2  762   2.044   1.804   0.893
 1513SOL     OW  763   2.366   1.568   0.910
 1513SOL    HW1  764   2.432   1.642   0.919
 1513SOL    HW2  765   2.410   1.489   0.868
 1520SOL     OW  766   2.114   1.564   1.744
 1520SOL    HW1  767   2.084   1.621   1.820
 1520SOL    HW2  768   2.107   1.467   1.770
 1522SOL     OW  769   2.792   1.678   1.465
 1522SOL    HW1  770   2.768   1.660   1.370
 1522SOL    HW2  771   2.822   1.772   1.475
 1524SOL     OW  772   2.021   1.137   1.466
 1524SOL    HW1  773   2.043   1.076   1.542
 1524SOL    HW2  774   2.031   1.088   1.380
 1528SOL     OW  775   3.114   1.731   1.128
 1528SOL    HW1  776   3.198   1.736   1.074
 1528SOL    HW2  777   3.091   1.635   1.146
 1530SOL     OW  778   2.550   1.662   1.716
 1530SOL    HW1  779   2.494   1.743   1.725
 1530SOL    HW2  780   2.602   1.666   1.630
 1534SOL     OW  781   1.992   1.794   1.851
 1534SOL    HW1  782   1.951   1.720   1.904
 1534SOL    HW2  783   2.056   1.845   1.909
 1536SOL     OW  784   2.692   1.273   1.422
 1536SOL    HW1  785   2.687   1.306   1.517
 1536SOL    HW2  786   2.606   1.292   1.376
 1538SOL     OW  787   3.512   1.720   1.394
 1538SOL    HW1  788   3.565   1.730   1.310
 1538SOL    HW2  789   3.485   1.810   1.428
 1542SOL     OW  790   2.684   1.002   1.372
 1542SOL    HW1  791   2.724   1.001   1.280
 1542SOL    HW2  792   2.694   1.094   1.412
 1545SOL     OW  793   2.234   1.288   1.490
 1545SOL    HW1  794   2.221   1.381   1.456
 1545SOL    HW2  795   2.150   1.236   1.477
 1552SOL     OW  796   1.967   1.013   1.726
 1552SOL    HW1  797   1.890   0.980   1.780
 1552SOL    HW2  798   2.052   0.983   1.768
 1560SOL     OW  799   3.312   1.220   1.633
 1560SOL    HW1  800   3.303   1.210   1.732
 1560SOL    HW2  801   3.408   1.213   1.607
 1561SOL     OW  802   2.252   1.741   1.560
 1561SOL    HW1  803   2.161   1.782   1.558
 1561SOL    HW2  804   2.245   1.647   1.592
 1568SOL     OW  805   2.523   1.790   0.953
 1568SOL    HW1  806   2.477   1.878   0.940
 1568SOL    HW2  807   2.622   1.802   0.946
 1572SOL     OW  808   2.083   1.314   1.844
 1572SOL    HW1  809   2.018   1.241   1.823
 1572SOL    HW2  810   2.087   1.328   1.942
 1574SOL     OW  811   2.534   1.391   1.624
 1574SOL    HW1  812   2.456   1.341   1.662
 1574SOL    HW2  813   2.531   1.486   1.655
 1583SOL     OW  814   2.480   1.567   1.284
 1583SOL    HW1  815   2.475   1.649   1.341
 1583SOL    HW2  816   2.569   1.564   1.239
 1592SOL     OW  817   2.431   1.275   3.027
 1592SOL    HW1  818   2.338   1.268   2.990
 1592SOL    HW2  819   2.442   1.364   3.071
 1593SOL     OW  820   3.417   1.511   2.565
 1593SOL    HW1  821   3.360   1.495   2.646
 1593SOL    HW2  822   3.358   1.521   2.485
 1594SOL     OW  823   2.997   0.703   2.579
 1594SOL    HW1  824   3.054   0.781   2.554
 1594SOL    HW2  825   2.937   0.729   2.655
 1596SOL     OW  826   2.630   1.144   2.885
 1596SOL    HW1  827   2.552   1.161   2.945
 1596SOL    HW2  828   2.664   1.231   2.849
 1598SOL     OW  829   2.547   1.012   2.527
 1598SOL    HW1  830   2.616   0.996   2.597
 1598SOL    HW2  831   2.474   1.069   2.565
 1599SOL     OW  832   2.548   1.161   3.665
 1599SOL    HW1  833   2.608   1.240   3.679
 1599SOL    HW2  834   2.462   1.192   3.624
 1600SOL     OW  835   2.197   1.435   2.923
 1600SOL    HW1  836   2.119   1.404   2.870
 1600SOL    HW2  837   2.255   1.493   2.866
 1601SOL     OW  838   3.322   1.505   3.201
 1601SOL    HW1  839   3.346   1.599   3.227
 1601SOL    HW2  840   3.306   1.451   3.283
 1604SOL     OW  841   2.093   1.713   2.345
 1604SOL    HW1  842   2.127   1.790   2.399
 1604SOL    HW2  843   2.137   1.713   2.255
 1605SOL     OW  844   2.989   1.341   3.552
 1605SOL    HW1  845   3.036   1.341   3.640
 1605SOL    HW2  846   2.941   1.254   3.541
 1606SOL     OW  847   2.092   1.434   2.400
 1606SOL    HW1  848   2.066   1.530   2.400
 1606SOL    HW2  849   2.021   1.380   2.445
 1607SOL     OW  850   2.102   1.091   2.748
 1607SOL    HW1  851   2.116   1.007   2.800
 1607SOL    HW2  852   2.047   1.155   2.803
 1608SOL     OW  853   2.482   1.786   3.301
 1608SOL    HW1  854   2.390   1.769   3.336
 1608SOL    HW2  855   2.510   1.878   3.327
 1609SOL     OW  856   2.468   0.964   1.985
 1609SOL    HW1  857   2.475   1.048   1.931
 1609SOL    HW2  858   2.514   0.977   2.073
 1611SOL     OW  859   1.984   0.643   2.425
 1611SOL    HW1  860   1.939   0.555   2.442
 1611SOL    HW2  861   1.983   0.697   2.509
 1612SOL     OW  862   3.704   1.767   2.221
 1612SOL    HW1  863   3.758   1.738   2.301
 1612SOL    HW2  864   3.734   1.857   2.192
 1613SOL     OW  865   1.889   1.596   1.979
 1613SOL    HW1  866   1.870   1.500   2.000
 1613SOL    HW2  867   1.856   1.654   2.054
 1615SOL     OW  868   3.503   1.108   2.294
 1615SOL    HW1  869   3.589   1.110   2.242
 1615SOL    HW2  870   3.517   1.155   2.382
 1617SOL     OW  871   2.475   1.365   2.588
 1617SOL    HW1  872   2.426   1.278   2.597
 1617SOL    HW2  873   2.452   1.408   2.501
 1618SOL     OW  874   3.155   1.228   3.285
 1618SOL    HW1  875   3.192   1.155   3.227
 1618SOL    HW2  876   3.207   1.233   3.370
 1620SOL     OW  877   2.059   0.976   3.126
 1620SOL    HW1  878   2.148   0.931   3.112
 1620SOL    HW2  879   1.986   0.911   3.107
 1621SOL     OW  880   3.387   0.999   2.052
 1621SOL    HW1  881   3.324   0.923   2.065
 1621SOL    HW2  882   3.435   1.017   2.138
 1622SOL     OW  883   3.049   1.792   3.478
 1622SOL    HW1  884   3.073   1.852   3.402
 1622SOL    HW2  885   3.056   1.697   3.448
 1624SOL     OW  886   3.328   1.417   2.815
 1624SOL    HW1  887   3.269   1.423   2.895
 1624SOL    HW2  888   3.313   1.329   2.769
 1625SOL     OW  889   3.529   1.714   2.434
 1625SOL    HW1  890   3.488   1.691   2.346
 1625SOL    HW2  891   3.511   1.640   2.499
 1626SOL     OW  892   2.460   0.729   2.132
 1626SOL    HW1  893   2.484   0.798   2.064
 1626SOL    HW2  894   2.382   0.762   2.186
 1628SOL     OW  895   3.438   1.662   2.169
 1628SOL    HW1  896   3.527   1.708   2.172
 1628SOL    HW2  897   3.417   1.638   2.074
 1633SOL     OW  898   2.903   0.701   2.291
 1633SOL    HW1  899   2.929   0.697   2.387
 1633SOL    HW2  900   2.818   0.650   2.277
 1634SOL     OW  901   1.938   0.811   2.651
 1634SOL    HW1  902   2.037   0.799   2.660
 1634SOL    HW2  903   1.914   0.906   2.672
 1635SOL     OW  904   1.992   1.821   3.433
 1635SOL    HW1  905   1.982   1.806   3.532
 1635SOL    HW2  906   1.906   1.857   3.397
 1638SOL     OW  907   3.224   1.144   2.407
 1638SOL    HW1  908   3.307   1.115   2.359
 1638SOL    HW2  909   3.175   1.211   2.351
 1640SOL     OW  910   2.870   1.456   2.339
 1640SOL    HW1  911   2.824   1.528   2.287
 1640SOL    HW2  912   2.866   1.476   2.437
 1641SOL     OW  913   2.213   1.801   2.715
 1641SOL    HW1  914   2.263   1.715   2.721
 1641SOL    HW2  915   2.278   1.878   2.712
 1643SOL     OW  916   3.089   1.550   3.368
 1643SOL    HW1  917   3.095   1.473   3.432
 1643SOL    HW2  918   3.037   1.524   3.288
 1644SOL     OW  919   2.183   0.943   2.104
 1644SOL    HW1  920   2.265   0.982   2.062
 1644SOL    HW2  921   2.156   0.861   2.055
 1646SOL     OW  922   2.323   1.266   3.589
 1646SOL    HW1  923   2.273   1.267   3.503
 1646SOL    HW2  924   2.260   1.248   3.665
 1647SOL     OW  925   2.973   1.776   2.099
 1647SOL    HW1  926   2.913   1.714   2.149
 1647SOL    HW2  927   3.004   1.732   2.014
 1649SOL     OW  928   3.494   1.377   1.943
 1649SOL    HW1  929   3.462   1.471   1.933
 1649SOL    HW2  930   3.418   1.314   1.931
 1650SOL     OW  931   2.326   1.743   2.185
 1650SOL    HW1  932   2.359   1.782   2.271
 1650SOL    HW2  933   2.402   1.736   2.120
 1652SOL     OW  934   2.111   1.785   3.103
 1652SOL    HW1  935   2.168   1.720   3.153
 1652SOL    HW2  936   2.095   1.752   3.010
 1653SOL     OW  937   2.802   1.698   2.766
 1653SOL    HW1  938   2.882   1.641   2.787
 1653SOL    HW2  939   2.753   1.658   2.689
 1654SOL     OW  940   2.244   0.700   2.342
 1654SOL    HW1  941   2.289   0.610   2.339
 1654SOL    HW2  942   2.150   0.689   2.375
 1658SOL     OW  943   2.750   1.514   3.057
 1658SOL    HW1  944   2.727   1.489   2.963
 1658SOL    HW2  945   2.811   1.445   3.096
 1660SOL     OW  946   2.665   1.402   2.786
 1660SOL    HW1  947   2.755   1.416   2.744
 1660SOL    HW2  948   2.594   1.404   2.715
 1663SOL     OW  949   3.296   1.188   1.903
 1663SOL    HW1  950   3.328   1.112   1.960
 1663SOL    HW2  951   3.204   1.215   1.933
 1667SOL     OW  952   3.089   1.570   2.655
 1667SOL    HW1  953   3.110   1.644   2.590
 1667SOL    HW2  954   3.157   1.570   2.728
 1668SOL     OW  955   2.321   1.152   2.603
 1668SOL    HW1  956   2.250   1.125   2.668
 1668SOL    HW2  957   2.295   1.124   2.510
 1669SOL     OW  958   3.133   1.797   2.453
 1669SOL    HW1  959   3.177   1.861   2.389
 1669SOL    HW2  960   3.083   1.849   2.523
 1675SOL     OW  961   3.291   1.173   2.729
 1675SOL    HW1  962   3.236   1.089   2.722
 1675SOL    HW2  963   3.317   1.202   2.637
 1678SOL     OW  964   2.350   1.385   2.036
 1678SOL    HW1  965   2.263   1.370   2.083
 1678SOL    HW2  966   2.333   1.411   1.941
 1679SOL     OW  967   3.526   1.280   2.519
 1679SOL    HW1  968   3.625   1.288   2.533
 1679SOL    HW2  969   3.481   1.364   2.550
 1683SOL     OW  970   2.926   1.347   3.202
 1683SOL    HW1  971   2.846   1.324   3.257
 1683SOL    HW2  972   3.009   1.321   3.251
 1684SOL     OW  973   3.454   1.629   3.487
 1684SOL    HW1  974   3.481   1.663   3.397
 1684SOL    HW2  975   3.533   1.591   3.533
 1685SOL     OW  976   2.973   1.195   2.962
 1685SOL    HW1  977   2.933   1.239   3.043
 1685SOL    HW2  978   2.932   1.232   2.879
 1686SOL     OW  979   3.500   1.099   2.941
 1686SOL    HW1  980   3.505   1.180   3.000
 1686SOL    HW2  981   3.414   1.101   2.890
 1689SOL     OW  982   2.567   1.050   2.230
 1689SOL    HW1  983   2.553   1.057   2.329
 1689SOL    HW2  984   2.651   0.999   2.212
 1690SOL     OW  985   2.272   0.813   3.113
 1690SOL    HW1  986   2.358   0.825   3.163
 1690SOL    HW2  987   2.230   0.726   3.140
 1692SOL     OW  988   1.926   1.564   3.193
 1692SOL    HW1  989   1.880   1.646   3.159
 1692SOL    HW2  990   2.024   1.583   3.202
 1693SOL     OW  991   2.229   1.100   2.363
 1693SOL    HW1  992   2.222   1.183   2.307
 1693SOL    HW2  993   2.233   1.020   2.303
 1695SOL     OW  994   3.114   1.348   2.250
 1695SOL    HW1  995   3.164   1.425   2.290
 1695SOL    HW2  996   3.019   1.350   2.282
 1696SOL     OW  997   3.134   1.445   3.004
 1696SOL    HW1  998   3.181   1.458   3.091
 1696SOL    HW2  999   3.068   1.371   3.013
 1698SOL     OW 1000   2.216   1.510   3.191
 1698SOL    HW1 1001   2.195   1.466   3.104
 1698SOL    HW2 1002   2.313   1.536   3.194
 1703SOL     OW 1003   2.435   0.870   2.891
 1703SOL    HW1 1004   2.479   0.959   2.882
 1703SOL    HW2 1005   2.372   0.870   2.968
 1707SOL     OW 1006   1.899   1.310   3.144
 1707SOL    HW1 1007   1.952   1.261   3.212
 1707SOL    HW2 1008   1.921   1.408   3.149
 1712SOL     OW 1009   2.885   0.766   2.828
 1712SOL    HW1 1010   2.900   0.787   2.924
 1712SOL    HW2 1011   2.855   0.671   2.819
 1713SOL     OW 1012   2.842   1.573   3.562
 1713SOL    HW1 1013   2.822   1.617   3.474
 1713SOL    HW2 1014   2.881   1.482   3.546
 1717SOL     OW 1015   3.165   0.838   1.904
 1717SOL    HW1 1016   3.199   0.745   1.919
 1717SOL    HW2 1017   3.183   0.865   1.809
 1718SOL     OW 1018   2.930   1.333   2.711
 1718SOL    HW1 1019   2.937   1.249   2.656
 1718SOL    HW2 1020   2.992   1.402   2.675
 1719SOL     OW 1021   2.181   0.810   2.811
 1719SOL    HW1 1022   2.274   0.846   2.816
 1719SOL    HW2 1023   2.175   0.725   2.863
 1723SOL     OW 1024   1.870   1.326   2.062
 1723SOL    HW1 1025   1.777   1.347   2.031
 1723SOL    HW2 1026   1.880   1.227   2.075
 1724SOL     OW 1027   1.950   1.801   2.789
 1724SOL    HW1 1028   1.908   1.715   2.762
 1724SOL    HW2 1029   2.044   1.804   2.755
 1725SOL     OW 1030   2.366   1.568   2.772
 1725SOL    HW1 1031   2.432   1.642   2.781
 1725SOL    HW2 1032   2.410   1.489   2.730
 1732SOL     OW 1033   2.114   1.564   3.606
 1732SOL    HW1 1034   2.084   1.621   3.682
 1732SOL    HW2 1035   2.107   1.467   3.632
 1734SOL     OW 1036   2.792   1.678   3.327
 1734SOL    HW1 1037   2.768   1.660   3.232
 1734SOL    HW2 1038   2.822   1.772   3.337
 1736SOL     OW 1039   2.021   1.137   3.328
 1736SOL    HW1 1040   2.043   1.076   3.404
 1736SOL    HW2 1041   2.031   1.088   3.242
 1737SOL     OW 1042   3.209   1.059   3.096
 1737SOL    HW1 1043   3.233   0.996   3.022
 1737SOL    HW2 1044   3.119   1.099   3.078
 1738SOL     OW 1045   3.164   0.855   2.171
 1738SOL    HW1 1046   3.078   0.824   2.213
 1738SOL    HW2 1047   3.160   0.841   2.072
 1739SOL     OW 1048   3.621   1.747   3.016
 1739SOL    HW1 1049   3.682   1.777   2.943
 1739SOL    HW2 1050   3.583   1.658   2.994
 1740SOL     OW 1051   3.114   1.731   2.990
 1740SOL    HW1 1052   3.198   1.736   2.936
 1740SOL    HW2 1053   3.091   1.635   3.008
 1741SOL     OW 1054   1.945   1.258   2.884
 1741SOL    HW1 1055   1.940   1.257   2.984
 1741SOL    HW2 1056   1.862   1.217   2.846
 1742SOL     OW 1057   2.550   1.662   3.578
 1742SOL    HW1 1058   2.494   1.743   3.587
 1742SOL    HW2 1059   2.602   1.666   3.492
 1744SOL     OW 1060   3.250   1.573   2.339
 1744SOL    HW1 1061   3.317   1.585   2.265
 1744SOL    HW2 1062   3.210   1.662   2.362
 1745SOL     OW 1063   1.992   1.794   3.713
 1745SOL    HW1 1064   1.951   1.720   3.766
 1745SOL    HW2 1065   2.056   1.845   3.771
 1746SOL     OW 1066   3.142   0.927   2.534
 1746SOL    HW1 1067   3.202   0.846   2.536
 1746SOL    HW2 1068   3.182   0.996   2.474
 1747SOL     OW 1069   2.692   1.273   3.284
 1747SOL    HW1 1070   2.687   1.306   3.379
 1747SOL    HW2 1071   2.606   1.292   3.238
 1748SOL     OW 1072   2.534   1.616   2.016
 1748SOL    HW1 1073   2.543   1.626   1.917
 1748SOL    HW2 1074   2.494   1.527   2.037
 1749SOL     OW 1075   3.512   1.720   3.256
 1749SOL    HW1 1076   3.565   1.730   3.172
 1749SOL    HW2 1077   3.485   1.810   3.290
 1752SOL     OW 1078   3.056   1.612   1.893
 1752SOL    HW1 1079   3.062   1.519   1.930
 1752SOL    HW2 1080   2.997   1.612   1.813
 1753SOL     OW 1081   2.684   1.002   3.234
 1753SOL    HW1 1082   2.724   1.001   3.142
 1753SOL    HW2 1083   2.694   1.094   3.274
 1754SOL     OW 1084   2.778   0.910   2.153
 1754SOL    HW1 1085   2.841   0.948   2.085
 1754SOL    HW2 1086   2.818   0.827   2.192
 1755SOL     OW 1087   3.366   1.607   1.906
 1755SOL    HW1 1088   3.274   1.644   1.913
 1755SOL    HW2 1089   3.404   1.627   1.816
 1756SOL     OW 1090   2.234   1.288   3.352
 1756SOL    HW1 1091   2.221   1.381   3.318
 1756SOL    HW2 1092   2.150   1.236   3.339
 1757SOL     OW 1093   3.476   1.292   3.151
 1757SOL    HW1 1094   3.536   1.295   3.231
 1757SOL    HW2 1095   3.401   1.356   3.164
 1758SOL     OW 1096   2.901   1.098   2.558
 1758SOL    HW1 1097   2.831   1.051   2.612
 1758SOL    HW2 1098   2.960   1.030   2.515
 1760SOL     OW 1099   2.452   1.487   2.353
 1760SOL    HW1 1100   2.494   1.429   2.283
 1760SOL    HW2 1101   2.408   1.566   2.309
 1762SOL     OW 1102   2.117   1.348   2.152
 1762SOL    HW1 1103   2.021   1.349   2.125
 1762SOL    HW2 1104   2.129   1.401   2.236
 1768SOL     OW 1105   3.045   1.335   1.981
 1768SOL    HW1 1106   2.946   1.324   1.983
 1768SOL    HW2 1107   3.079   1.350   2.074
 1769SOL     OW 1108   2.475   0.842   3.293
 1769SOL    HW1 1109   2.531   0.923   3.276
 1769SOL    HW2 1110   2.534   0.762   3.296
 1770SOL     OW 1111   3.355   1.767   2.821
 1770SOL    HW1 1112   3.388   1.831   2.752
 1770SOL    HW2 1113   3.421   1.761   2.896
 1773SOL     OW 1114   2.252   1.741   3.422
 1773SOL    HW1 1115   2.161   1.782   3.420
 1773SOL    HW2 1116   2.245   1.647   3.454
 1776SOL     OW 1117   2.456   0.745   2.514
 1776SOL    HW1 1118   2.506   0.830   2.495
 1776SOL    HW2 1119   2.368   0.747   2.466
 1779SOL     OW 1120   2.721   1.374   1.878
 1779SOL    HW1 1121   2.675   1.389   1.966
 1779SOL    HW2 1122   2.765   1.459   1.848
 1780SOL     OW 1123   2.523   1.790   2.815
 1780SOL    HW1 1124   2.477   1.878   2.802
 1780SOL    HW2 1125   2.622   1.802   2.808
 1781SOL     OW 1126   2.721   0.956   2.723
 1781SOL    HW1 1127   2.775   0.887   2.771
 1781SOL    HW2 1128   2.689   1.025   2.789
 1782SOL     OW 1129   2.945   0.984   1.949
 1782SOL    HW1 1130   2.922   1.037   1.867
 1782SOL    HW2 1131   3.026   0.928   1.930
 1783SOL     OW 1132   3.723   1.569   2.713
 1783SOL    HW1 1133   3.652   1.557   2.643
 1783SOL    HW2 1134   3.724   1.490   2.773
 1784SOL     OW 1135   2.083   1.314   3.706
 1784SOL    HW1 1136   2.018   1.241   3.685
 1784SOL    HW2 1137   2.087   1.328   3.804
 1785SOL     OW 1138   1.941   1.240   2.515
 1785SOL    HW1 1139   1.940   1.193   2.603
 1785SOL    HW2 1140   2.023   1.212   2.464
 1786SOL     OW 1141   2.534   1.391   3.486
 1786SOL    HW1 1142   2.456   1.341   3.524
 1786SOL    HW2 1143   2.531   1.486   3.517
 1789SOL     OW 1144   3.567   1.487   2.966
 1789SOL    HW1 1145   3.474   1.462   2.939
 1789SOL    HW2 1146   3.593   1.437   3.048
 1791SOL     OW 1147   2.674   1.586   2.549
 1791SOL    HW1 1148   2.706   1.596   2.455
 1791SOL    HW2 1149   2.595   1.524   2.551
 1794SOL     OW 1150   2.632   1.330   2.163
 1794SOL    HW1 1151   2.586   1.243   2.180
 1794SOL    HW2 1152   2.723   1.327   2.204
 1795SOL     OW 1153   2.480   1.567   3.146
 1795SOL    HW1 1154   2.475   1.649   3.203
 1795SOL    HW2 1155   2.569   1.564   3.101
 1799SOL     OW 1156   1.901   1.077   2.162
 1799SOL    HW1 1157   2.000   1.066   2.153
 1799SOL    HW2 1158   1.861   0.991   2.194
 1800SOL     OW 1159   2.737   1.646   2.199
 1800SOL    HW1 1160   2.660   1.611   2.145
 1800SOL    HW2 1161   2.705   1.717   2.261
 1816SOL     OW 1162   1.889   1.596   3.841
 1816SOL    HW1 1163   1.870   1.500   3.862
 1816SOL    HW2 1164   1.856   1.654   3.916
 1836SOL     OW 1165   2.973   1.776   3.961
 1836SOL    HW1 1166   2.913   1.714   4.011
 1836SOL    HW2 1167   3.004   1.732   3.876
 1838SOL     OW 1168   2.326   1.743   4.047
 1838SOL    HW1 1169   2.359   1.782   4.133
 1838SOL    HW2 1170   2.402   1.736   3.982
 1886SOL     OW 1171   2.534   1.616   3.878
 1886SOL    HW1 1172   2.543   1.626   3.779
 1886SOL    HW2 1173   2.494   1.527   3.899
 1889SOL     OW 1174   3.056   1.612   3.755
 1889SOL    HW1 1175   3.062   1.519   3.792
 1889SOL    HW2 1176   2.997   1.612   3.675
 1902SOL     OW 1177   2.721   1.374   3.740
 1902SOL    HW1 1178   2.675   1.389   3.828
 1902SOL    HW2 1179   2.765   1.459   3.710
 1918SOL     OW 1180   2.087   2.137   0.996
 1918SOL    HW1 1181   2.122   2.120   1.088
 1918SOL    HW2 1182   1.999   2.092   0.984
 1920SOL     OW 1183   2.431   3.137   1.165
 1920SOL    HW1 1184   2.338   3.130   1.128
 1920SOL    HW2 1185   2.442   3.226   1.209
 1922SOL     OW 1186   2.997   2.565   0.717
 1922SOL    HW1 1187   3.054   2.643   0.692
 1922SOL    HW2 1188   2.937   2.591   0.793
 1924SOL     OW 1189   2.630   3.006   1.023
 1924SOL    HW1 1190   2.552   3.023   1.083
 1924SOL    HW2 1191   2.664   3.093   0.987
 1925SOL     OW 1192   2.712   2.660   1.823
 1925SOL    HW1 1193   2.708   2.736   1.888
 1925SOL    HW2 1194   2.734   2.696   1.732
 1926SOL     OW 1195   2.547   2.874   0.665
 1926SOL    HW1 1196   2.616   2.858   0.735
 1926SOL    HW2 1197   2.474   2.931   0.703
 1927SOL     OW 1198   2.548   3.023   1.803
 1927SOL    HW1 1199   2.608   3.102   1.817
 1927SOL    HW2 1200   2.462   3.054   1.762
 1928SOL     OW 1201   2.197   3.297   1.061
 1928SOL    HW1 1202   2.119   3.266   1.008
 1928SOL    HW2 1203   2.255   3.355   1.004
 1929SOL     OW 1204   3.322   3.367   1.339
 1929SOL    HW1 1205   3.346   3.461   1.365
 1929SOL    HW2 1206   3.306   3.313   1.421
 1930SOL     OW 1207   2.300   2.254   1.499
 1930SOL    HW1 1208   2.382   2.198   1.508
 1930SOL    HW2 1209   2.219   2.196   1.503
 1933SOL     OW 1210   2.989   3.203   1.690
 1933SOL    HW1 1211   3.036   3.203   1.778
 1933SOL    HW2 1212   2.941   3.116   1.679
 1935SOL     OW 1213   2.102   2.953   0.886
 1935SOL    HW1 1214   2.116   2.869   0.938
 1935SOL    HW2 1215   2.047   3.017   0.941
 1936SOL     OW 1216   2.482   3.648   1.439
 1936SOL    HW1 1217   2.390   3.631   1.474
 1936SOL    HW2 1218   2.510   3.740   1.465
 1938SOL     OW 1219   3.456   1.976   1.480
 1938SOL    HW1 1220   3.438   2.043   1.408
 1938SOL    HW2 1221   3.453   2.022   1.569
 1944SOL     OW 1222   1.975   2.599   1.597
 1944SOL    HW1 1223   2.063   2.586   1.642
 1944SOL    HW2 1224   1.962   2.696   1.575
 1946SOL     OW 1225   3.155   3.090   1.423
 1946SOL    HW1 1226   3.192   3.017   1.365
 1946SOL    HW2 1227   3.207   3.095   1.508
 1948SOL     OW 1228   2.059   2.838   1.264
 1948SOL    HW1 1229   2.148   2.793   1.250
 1948SOL    HW2 1230   1.986   2.773   1.245
 1950SOL     OW 1231   3.049   3.654   1.616
 1950SOL    HW1 1232   3.073   3.714   1.540
 1950SOL    HW2 1233   3.056   3.559   1.586
 1951SOL     OW 1234   2.179   2.113   1.801
 1951SOL    HW1 1235   2.250   2.184   1.807
 1951SOL    HW2 1236   2.091   2.152   1.829
 1955SOL     OW 1237   3.143   2.207   0.944
 1955SOL    HW1 1238   3.057   2.157   0.931
 1955SOL    HW2 1239   3.205   2.153   1.000
 1957SOL     OW 1240   2.669   2.467   1.465
 1957SOL    HW1 1241   2.622   2.464   1.554
 1957SOL    HW2 1242   2.618   2.412   1.399
 1958SOL     OW 1243   3.256   2.331   1.674
 1958SOL    HW1 1244   3.236   2.374   1.762
 1958SOL    HW2 1245   3.334   2.269   1.683
 1959SOL     OW 1246   2.835   2.752   1.572
 1959SOL    HW1 1247   2.881   2.668   1.543
 1959SOL    HW2 1248   2.779   2.786   1.497
 1960SOL     OW 1249   2.853   2.272   1.242
 1960SOL    HW1 1250   2.776   2.306   1.296
 1960SOL    HW2 1251   2.819   2.221   1.163
 1962SOL     OW 1252   1.938   2.673   0.789
 1962SOL    HW1 1253   2.037   2.661   0.798
 1962SOL    HW2 1254   1.914   2.768   0.810
 1963SOL     OW 1255   1.992   3.683   1.571
 1963SOL    HW1 1256   1.982   3.668   1.670
 1963SOL    HW2 1257   1.906   3.719   1.535
 1965SOL     OW 1258   3.581   2.447   1.831
 1965SOL    HW1 1259   3.555   2.536   1.795
 1965SOL    HW2 1260   3.579   2.379   1.758
 1967SOL     OW 1261   2.412   2.058   0.885
 1967SOL    HW1 1262   2.407   2.053   0.985
 1967SOL    HW2 1263   2.414   2.154   0.856
 1971SOL     OW 1264   3.089   3.412   1.506
 1971SOL    HW1 1265   3.095   3.335   1.570
 1971SOL    HW2 1266   3.037   3.386   1.426
 1974SOL     OW 1267   2.323   3.128   1.727
 1974SOL    HW1 1268   2.273   3.129   1.641
 1974SOL    HW2 1269   2.260   3.110   1.803
 1976SOL     OW 1270   2.064   2.147   1.498
 1976SOL    HW1 1271   1.984   2.207   1.485
 1976SOL    HW2 1272   2.054   2.098   1.584
 1980SOL     OW 1273   2.111   3.647   1.241
 1980SOL    HW1 1274   2.168   3.582   1.291
 1980SOL    HW2 1275   2.095   3.614   1.148
 1983SOL     OW 1276   3.409   2.084   1.729
 1983SOL    HW1 1277   3.404   2.121   1.821
 1983SOL    HW2 1278   3.337   2.015   1.717
 1985SOL     OW 1279   2.643   2.126   1.749
 1985SOL    HW1 1280   2.710   2.065   1.792
 1985SOL    HW2 1281   2.570   2.145   1.814
 1986SOL     OW 1282   2.750   3.376   1.195
 1986SOL    HW1 1283   2.727   3.351   1.101
 1986SOL    HW2 1284   2.811   3.307   1.234
 1987SOL     OW 1285   3.213   2.452   1.433
 1987SOL    HW1 1286   3.241   2.409   1.518
 1987SOL    HW2 1287   3.238   2.548   1.434
 1988SOL     OW 1288   2.665   3.264   0.924
 1988SOL    HW1 1289   2.755   3.278   0.882
 1988SOL    HW2 1290   2.594   3.266   0.853
 1989SOL     OW 1291   2.784   2.365   0.899
 1989SOL    HW1 1292   2.759   2.356   0.803
 1989SOL    HW2 1293   2.832   2.283   0.930
 1993SOL     OW 1294   2.938   2.545   1.464
 1993SOL    HW1 1295   2.858   2.484   1.467
 1993SOL    HW2 1296   3.019   2.492   1.440
 1995SOL     OW 1297   2.321   3.014   0.741
 1995SOL    HW1 1298   2.250   2.987   0.806
 1995SOL    HW2 1299   2.295   2.986   0.648
 1998SOL     OW 1300   1.940   2.418   1.386
 1998SOL    HW1 1301   2.032   2.417   1.345
 1998SOL    HW2 1302   1.934   2.492   1.453
 1999SOL     OW 1303   2.423   2.084   1.147
 1999SOL    HW1 1304   2.461   2.000   1.184
 1999SOL    HW2 1305   2.335   2.103   1.191
 2000SOL     OW 1306   2.728   2.316   0.642
 2000SOL    HW1 1307   2.696   2.388   0.580
 2000SOL    HW2 1308   2.752   2.235   0.589
 2001SOL     OW 1309   2.879   1.901   0.753
 2001SOL    HW1 1310   2.807   1.906   0.684
 2001SOL    HW2 1311   2.855   1.832   0.822
 2003SOL     OW 1312   3.328   2.452   0.992
 2003SOL    HW1 1313   3.298   2.357   0.999
 2003SOL    HW2 1314   3.401   2.468   1.058
 2009SOL     OW 1315   3.616   3.085   1.588
 2009SOL    HW1 1316   3.707   3.046   1.575
 2009SOL    HW2 1317   3.624   3.181   1.612
 2010SOL     OW 1318   2.926   3.209   1.340
 2010SOL    HW1 1319   2.846   3.186   1.395
 2010SOL    HW2 1320   3.009   3.183   1.389
 2011SOL     OW 1321   3.454   3.491   1.625
 2011SOL    HW1 1322   3.481   3.525   1.535
 2011SOL    HW2 1323   3.533   3.453   1.671
 2012SOL     OW 1324   2.973   3.057   1.100
 2012SOL    HW1 1325   2.933   3.101   1.181
 2012SOL    HW2 1326   2.932   3.094   1.017
 2014SOL     OW 1327   2.777   1.951   1.402
 2014SOL    HW1 1328   2.802   1.931   1.307
 2014SOL    HW2 1329   2.849   2.007   1.444
 2015SOL     OW 1330   2.842   2.978   1.719
 2015SOL    HW1 1331   2.743   2.984   1.729
 2015SOL    HW2 1332   2.865   2.898   1.663
 2017SOL     OW 1333   2.272   2.675   1.251
 2017SOL    HW1 1334   2.358   2.687   1.301
 2017SOL    HW2 1335   2.230   2.588   1.278
 2018SOL     OW 1336   3.136   2.248   1.262
 2018SOL    HW1 1337   3.157   2.322   1.326
 2018SOL    HW2 1338   3.047   2.265   1.219
 2019SOL     OW 1339   1.926   3.426   1.331
 2019SOL    HW1 1340   1.880   3.508   1.297
 2019SOL    HW2 1341   2.024   3.445   1.340
 2021SOL     OW 1342   2.428   2.399   0.865
 2021SOL    HW1 1343   2.440   2.465   0.791
 2021SOL    HW2 1344   2.474   2.433   0.948
 2023SOL     OW 1345   3.134   3.307   1.142
 2023SOL    HW1 1346   3.181   3.320   1.229
 2023SOL    HW2 1347   3.068   3.233   1.151
 2025SOL     OW 1348   2.216   3.372   1.329
 2025SOL    HW1 1349   2.195   3.328   1.242
 2025SOL    HW2 1350   2.313   3.398   1.332
 2026SOL     OW 1351   2.264   2.613   1.598
 2026SOL    HW1 1352   2.332   2.668   1.551
 2026SOL    HW2 1353   2.304   2.525   1.625
 2027SOL     OW 1354   3.449   2.641   1.670
 2027SOL    HW1 1355   3.357   2.679   1.665
 2027SOL    HW2 1356   3.509   2.688   1.605
 2028SOL     OW 1357   2.875   1.967   1.770
 2028SOL    HW1 1358   2.881   2.052   1.718
 2028SOL    HW2 1359   2.907   1.891   1.713
 2029SOL     OW 1360   2.366   1.912   1.740
 2029SOL    HW1 1361   2.324   1.855   1.670
 2029SOL    HW2 1362   2.300   1.981   1.772
 2030SOL     OW 1363   2.435   2.732   1.029
 2030SOL    HW1 1364   2.479   2.821   1.020
 2030SOL    HW2 1365   2.372   2.732   1.106
 2031SOL     OW 1366   3.222   2.724   1.045
 2031SOL    HW1 1367   3.147   2.724   0.979
 2031SOL    HW2 1368   3.259   2.632   1.054
 2033SOL     OW 1369   2.169   2.075   1.231
 2033SOL    HW1 1370   2.146   2.112   1.321
 2033SOL    HW2 1371   2.139   1.980   1.225
 2034SOL     OW 1372   1.899   3.172   1.282
 2034SOL    HW1 1373   1.952   3.123   1.350
 2034SOL    HW2 1374   1.921   3.270   1.287
 2035SOL     OW 1375   2.594   2.496   1.064
 2035SOL    HW1 1376   2.653   2.470   0.988
 2035SOL    HW2 1377   2.566   2.592   1.053
 2036SOL     OW 1378   3.590   2.797   1.854
 2036SOL    HW1 1379   3.544   2.790   1.765
 2036SOL    HW2 1380   3.528   2.841   1.920
 2039SOL     OW 1381   2.885   2.628   0.966
 2039SOL    HW1 1382   2.900   2.649   1.062
 2039SOL    HW2 1383   2.855   2.533   0.957
 2040SOL     OW 1384   2.842   3.435   1.700
 2040SOL    HW1 1385   2.822   3.479   1.612
 2040SOL    HW2 1386   2.881   3.344   1.684
 2042SOL     OW 1387   2.212   2.760   1.804
 2042SOL    HW1 1388   2.288   2.804   1.852
 2042SOL    HW2 1389   2.247   2.713   1.722
 2046SOL     OW 1390   2.181   2.672   0.949
 2046SOL    HW1 1391   2.274   2.708   0.954
 2046SOL    HW2 1392   2.175   2.587   1.001
 2047SOL     OW 1393   2.201   2.371   1.006
 2047SOL    HW1 1394   2.149   2.288   0.989
 2047SOL    HW2 1395   2.278   2.376   0.942
 2048SOL     OW 1396   3.000   2.242   1.678
 2048SOL    HW1 1397   2.955   2.305   1.742
 2048SOL    HW2 1398   3.093   2.273   1.661
 2049SOL     OW 1399   3.022   2.069   1.477
 2049SOL    HW1 1400   3.022   2.133   1.554
 2049SOL    HW2 1401   3.050   2.117   1.394
 2053SOL     OW 1402   2.864   2.658   1.238
 2053SOL    HW1 1403   2.905   2.626   1.324
 2053SOL    HW2 1404   2.768   2.631   1.235
 2054SOL     OW 1405   1.902   2.406   1.114
 2054SOL    HW1 1406   1.987   2.373   1.073
 2054SOL    HW2 1407   1.915   2.421   1.212
 2055SOL     OW 1408   2.051   2.382   1.722
 2055SOL    HW1 1409   2.110   2.342   1.652
 2055SOL    HW2 1410   1.993   2.453   1.681
 2056SOL     OW 1411   3.231   2.812   1.660
 2056SOL    HW1 1412   3.270   2.901   1.680
 2056SOL    HW2 1413   3.241   2.792   1.563
 2058SOL     OW 1414   3.519   2.466   1.206
 2058SOL    HW1 1415   3.481   2.397   1.268
 2058SOL    HW2 1416   3.601   2.430   1.162
 2059SOL     OW 1417   2.114   3.426   1.744
 2059SOL    HW1 1418   2.084   3.483   1.820
 2059SOL    HW2 1419   2.107   3.329   1.770
 2060SOL     OW 1420   2.533   2.326   1.269
 2060SOL    HW1 1421   2.499   2.237   1.239
 2060SOL    HW2 1422   2.559   2.380   1.189
 2061SOL     OW 1423   2.792   3.540   1.465
 2061SOL    HW1 1424   2.768   3.522   1.370
 2061SOL    HW2 1425   2.822   3.634   1.475
 2063SOL     OW 1426   2.021   2.999   1.466
 2063SOL    HW1 1427   2.043   2.938   1.542
 2063SOL    HW2 1428   2.031   2.950   1.380
 2064SOL     OW 1429   3.209   2.921   1.234
 2064SOL    HW1 1430   3.233   2.858   1.160
 2064SOL    HW2 1431   3.119   2.961   1.216
 2068SOL     OW 1432   1.945   3.120   1.022
 2068SOL    HW1 1433   1.940   3.119   1.122
 2068SOL    HW2 1434   1.862   3.079   0.984
 2069SOL     OW 1435   2.550   3.524   1.716
 2069SOL    HW1 1436   2.494   3.605   1.725
 2069SOL    HW2 1437   2.602   3.528   1.630
 2073SOL     OW 1438   1.992   3.656   1.851
 2073SOL    HW1 1439   1.951   3.582   1.904
 2073SOL    HW2 1440   2.056   3.707   1.909
 2075SOL     OW 1441   2.692   3.135   1.422
 2075SOL    HW1 1442   2.687   3.168   1.517
 2075SOL    HW2 1443   2.606   3.154   1.376
 2079SOL     OW 1444   2.125   2.188   0.720
 2079SOL    HW1 1445   2.046   2.239   0.686
 2079SOL    HW2 1446   2.116   2.173   0.818
 2081SOL     OW 1447   2.684   2.864   1.372
 2081SOL    HW1 1448   2.724   2.863   1.280
 2081SOL    HW2 1449   2.694   2.956   1.412
 2084SOL     OW 1450   2.234   3.150   1.490
 2084SOL    HW1 1451   2.221   3.243   1.456
 2084SOL    HW2 1452   2.150   3.098   1.477
 2085SOL     OW 1453   3.476   3.154   1.289
 2085SOL    HW1 1454   3.536   3.157   1.369
 2085SOL    HW2 1455   3.401   3.218   1.302
 2087SOL     OW 1456   2.876   2.098   0.971
 2087SOL    HW1 1457   2.868   2.062   0.878
 2087SOL    HW2 1458   2.874   2.022   1.036
 2089SOL     OW 1459   3.571   2.247   1.381
 2089SOL    HW1 1460   3.644   2.316   1.385
 2089SOL    HW2 1461   3.599   2.172   1.322
 2091SOL     OW 1462   1.967   2.875   1.726
 2091SOL    HW1 1463   1.890   2.842   1.780
 2091SOL    HW2 1464   2.052   2.845   1.768
 2092SOL     OW 1465   2.534   2.065   1.489
 2092SOL    HW1 1466   2.624   2.049   1.449
 2092SOL    HW2 1467   2.542   2.070   1.588
 2094SOL     OW 1468   3.302   2.718   1.398
 2094SOL    HW1 1469   3.245   2.770   1.335
 2094SOL    HW2 1470   3.398   2.730   1.374
 2096SOL     OW 1471   2.475   2.704   1.431
 2096SOL    HW1 1472   2.531   2.785   1.414
 2096SOL    HW2 1473   2.534   2.624   1.434
 2098SOL     OW 1474   2.578   2.427   1.708
 2098SOL    HW1 1475   2.597   2.492   1.782
 2098SOL    HW2 1476   2.638   2.347   1.717
 2099SOL     OW 1477   3.312   3.082   1.633
 2099SOL    HW1 1478   3.303   3.072   1.732
 2099SOL    HW2 1479   3.408   3.075   1.607
 2100SOL     OW 1480   2.252   3.603   1.560
 2100SOL    HW1 1481   2.161   3.644   1.558
 2100SOL    HW2 1482   2.245   3.509   1.592
 2101SOL     OW 1483   3.536   2.745   1.254
 2101SOL    HW1 1484   3.509   2.656   1.217
 2101SOL    HW2 1485   3.537   2.813   1.181
 2103SOL     OW 1486   2.456   2.607   0.652
 2103SOL    HW1 1487   2.506   2.692   0.633
 2103SOL    HW2 1488   2.368   2.609   0.604
 2104SOL     OW 1489   3.639   2.204   1.642
 2104SOL    HW1 1490   3.622   2.235   1.548
 2104SOL    HW2 1491   3.555   2.167   1.680
 2105SOL     OW 1492   3.592   2.796   1.517
 2105SOL    HW1 1493   3.630   2.887   1.532
 2105SOL    HW2 1494   3.584   2.779   1.418
 2108SOL     OW 1495   2.721   2.818   0.861
 2108SOL    HW1 1496   2.775   2.749   0.909
 2108SOL    HW2 1497   2.689   2.887   0.927
 2111SOL     OW 1498   2.083   3.176   1.844
 2111SOL    HW1 1499   2.018   3.103   1.823
 2111SOL    HW2 1500   2.087   3.190   1.942
 2113SOL     OW 1501   2.534   3.253   1.624
 2113SOL    HW1 1502   2.456   3.203   1.662
 2113SOL    HW2 1503   2.531   3.348   1.655
 2114SOL     OW 1504   3.686   2.054   1.227
 2114SOL    HW1 1505   3.682   1.964   1.271
 2114SOL    HW2 1506   3.689   2.043   1.128
 2117SOL     OW 1507   2.179   2.409   1.280
 2117SOL    HW1 1508   2.217   2.350   1.352
 2117SOL    HW2 1509   2.219   2.383   1.192
 2119SOL     OW 1510   3.286   2.076   1.112
 2119SOL    HW1 1511   3.338   2.011   1.167
 2119SOL    HW2 1512   3.237   2.139   1.173
 2120SOL     OW 1513   2.863   1.896   1.154
 2120SOL    HW1 1514   2.800   1.824   1.123
 2120SOL    HW2 1515   2.956   1.860   1.154
 2122SOL     OW 1516   2.480   3.429   1.284
 2122SOL    HW1 1517   2.475   3.511   1.341
 2122SOL    HW2 1518   2.569   3.426   1.239
 2128SOL     OW 1519   2.092   2.490   1.975
 2128SOL    HW1 1520   1.999   2.488   2.012
 2128SOL    HW2 1521   2.093   2.451   1.883
 2129SOL     OW 1522   2.087   2.137   2.858
 2129SOL    HW1 1523   2.122   2.120   2.950
 2129SOL    HW2 1524   1.999   2.092   2.846
 2130SOL     OW 1525   1.881   2.230   2.509
 2130SOL    HW1 1526   1.799   2.273   2.548
 2130SOL    HW2 1527   1.853   2.157   2.446
 2131SOL     OW 1528   2.431   3.137   3.027
 2131SOL    HW1 1529   2.338   3.130   2.990
 2131SOL    HW2 1530   2.442   3.226   3.071
 2132SOL     OW 1531   3.417   3.373   2.565
 2132SOL    HW1 1532   3.360   3.357   2.646
 2132SOL    HW2 1533   3.358   3.383   2.485
 2133SOL     OW 1534   2.997   2.565   2.579
 2133SOL    HW1 1535   3.054   2.643   2.554
 2133SOL    HW2 1536   2.937   2.591   2.655
 2134SOL     OW 1537   3.617   2.469   2.093
 2134SOL    HW1 1538   3.605   2.456   1.994
 2134SOL    HW2 1539   3.587   2.388   2.142
 2135SOL     OW 1540   2.630   3.006   2.885
 2135SOL    HW1 1541   2.552   3.023   2.945
 2135SOL    HW2 1542   2.664   3.093   2.849
 2136SOL     OW 1543   2.712   2.660   3.685
 2136SOL    HW1 1544   2.708   2.736   3.750
 2136SOL    HW2 1545   2.734   2.696   3.594
 2137SOL     OW 1546   2.547   2.874   2.527
 2137SOL    HW1 1547   2.616   2.858   2.597
 2137SOL    HW2 1548   2.474   2.931   2.565
 2138SOL     OW 1549   2.548   3.023   3.665
 2138SOL    HW1 1550   2.608   3.102   3.679
 2138SOL    HW2 1551   2.462   3.054   3.624
 2139SOL     OW 1552   2.197   3.297   2.923
 2139SOL    HW1 1553   2.119   3.266   2.870
 2139SOL    HW2 1554   2.255   3.355   2.866
 2140SOL     OW 1555   3.322   3.367   3.201
 2140SOL    HW1 1556   3.346   3.461   3.227
 2140SOL    HW2 1557   3.306   3.313   3.283
 2141SOL     OW 1558   2.300   2.254   3.361
 2141SOL    HW1 1559   2.382   2.198   3.370
 2141SOL    HW2 1560   2.219   2.196   3.365
 2142SOL     OW 1561   3.465   2.309   2.599
 2142SOL    HW1 1562   3.391   2.355   2.549
 2142SOL    HW2 1563   3.516   2.377   2.652
 2143SOL     OW 1564   2.093   3.575   2.345
 2143SOL    HW1 1565   2.127   3.652   2.399
 2143SOL    HW2 1566   2.137   3.575   2.255
 2144SOL     OW 1567   2.989   3.203   3.552
 2144SOL    HW1 1568   3.036   3.203   3.640
 2144SOL    HW2 1569   2.941   3.116   3.541
 2145SOL     OW 1570   2.092   3.296   2.400
 2145SOL    HW1 1571   2.066   3.392   2.400
 2145SOL    HW2 1572   2.021   3.242   2.445
 2146SOL     OW 1573   2.102   2.953   2.748
 2146SOL    HW1 1574   2.116   2.869   2.800
 2146SOL    HW2 1575   2.047   3.017   2.803
 2147SOL     OW 1576   2.482   3.648   3.301
 2147SOL    HW1 1577   2.390   3.631   3.336
 2147SOL    HW2 1578   2.510   3.740   3.327
 2148SOL     OW 1579   2.468   2.826   1.985
 2148SOL    HW1 1580   2.475   2.910   1.931
 2148SOL    HW2 1581   2.514   2.839   2.073
 2149SOL     OW 1582   3.456   1.976   3.342
 2149SOL    HW1 1583   3.438   2.043   3.270
 2149SOL    HW2 1584   3.453   2.022   3.431
 2150SOL     OW 1585   1.984   2.505   2.425
 2150SOL    HW1 1586   1.939   2.417   2.442
 2150SOL    HW2 1587   1.983   2.559   2.509
 2152SOL     OW 1588   1.889   3.458   1.979
 2152SOL    HW1 1589   1.870   3.362   2.000
 2152SOL    HW2 1590   1.856   3.516   2.054
 2153SOL     OW 1591   3.551   2.784   2.474
 2153SOL    HW1 1592   3.646   2.755   2.482
 2153SOL    HW2 1593   3.543   2.849   2.399
 2154SOL     OW 1594   3.503   2.970   2.294
 2154SOL    HW1 1595   3.589   2.972   2.242
 2154SOL    HW2 1596   3.517   3.017   2.382
 2155SOL     OW 1597   1.975   2.599   3.459
 2155SOL    HW1 1598   2.063   2.586   3.504
 2155SOL    HW2 1599   1.962   2.696   3.437
 2156SOL     OW 1600   2.475   3.227   2.588
 2156SOL    HW1 1601   2.426   3.140   2.597
 2156SOL    HW2 1602   2.452   3.270   2.501
 2157SOL     OW 1603   3.155   3.090   3.285
 2157SOL    HW1 1604   3.192   3.017   3.227
 2157SOL    HW2 1605   3.207   3.095   3.370
 2158SOL     OW 1606   2.671   1.866   2.364
 2158SOL    HW1 1607   2.711   1.957   2.355
 2158SOL    HW2 1608   2.571   1.874   2.370
 2159SOL     OW 1609   2.059   2.838   3.126
 2159SOL    HW1 1610   2.148   2.793   3.112
 2159SOL    HW2 1611   1.986   2.773   3.107
 2160SOL     OW 1612   3.387   2.861   2.052
 2160SOL    HW1 1613   3.324   2.785   2.065
 2160SOL    HW2 1614   3.435   2.879   2.138
 2162SOL     OW 1615   2.179   2.113   3.663
 2162SOL    HW1 1616   2.250   2.184   3.669
 2162SOL    HW2 1617   2.091   2.152   3.691
 2163SOL     OW 1618   3.328   3.279   2.815
 2163SOL    HW1 1619   3.269   3.285   2.895
 2163SOL    HW2 1620   3.313   3.191   2.769
 2164SOL     OW 1621   3.529   3.576   2.434
 2164SOL    HW1 1622   3.488   3.553   2.346
 2164SOL    HW2 1623   3.511   3.502   2.499
 2165SOL     OW 1624   2.460   2.591   2.132
 2165SOL    HW1 1625   2.484   2.660   2.064
 2165SOL    HW2 1626   2.382   2.624   2.186
 2166SOL     OW 1627   3.143   2.207   2.806
 2166SOL    HW1 1628   3.057   2.157   2.793
 2166SOL    HW2 1629   3.205   2.153   2.862
 2167SOL     OW 1630   3.438   3.524   2.169
 2167SOL    HW1 1631   3.527   3.570   2.172
 2167SOL    HW2 1632   3.417   3.500   2.074
 2168SOL     OW 1633   2.669   2.467   3.327
 2168SOL    HW1 1634   2.622   2.464   3.416
 2168SOL    HW2 1635   2.618   2.412   3.261
 2169SOL     OW 1636   3.256   2.331   3.536
 2169SOL    HW1 1637   3.236   2.374   3.624
 2169SOL    HW2 1638   3.334   2.269   3.545
 2170SOL     OW 1639   2.835   2.752   3.434
 2170SOL    HW1 1640   2.881   2.668   3.405
 2170SOL    HW2 1641   2.779   2.786   3.359
 2171SOL     OW 1642   2.853   2.272   3.104
 2171SOL    HW1 1643   2.776   2.306   3.158
 2171SOL    HW2 1644   2.819   2.221   3.025
 2172SOL     OW 1645   2.903   2.563   2.291
 2172SOL    HW1 1646   2.929   2.559   2.387
 2172SOL    HW2 1647   2.818   2.512   2.277
 2173SOL     OW 1648   1.938   2.673   2.651
 2173SOL    HW1 1649   2.037   2.661   2.660
 2173SOL    HW2 1650   1.914   2.768   2.672
 2174SOL     OW 1651   1.992   3.683   3.433
 2174SOL    HW1 1652   1.982   3.668   3.532
 2174SOL    HW2 1653   1.906   3.719   3.397
 2175SOL     OW 1654   2.727   2.210   2.057
 2175SOL    HW1 1655   2.786   2.273   2.008
 2175SOL    HW2 1656   2.746   2.116   2.028
 2176SOL     OW 1657   3.581   2.447   3.693
 2176SOL    HW1 1658   3.555   2.536   3.657
 2176SOL    HW2 1659   3.579   2.379   3.620
 2177SOL     OW 1660   3.224   3.006   2.407
 2177SOL    HW1 1661   3.307   2.977   2.359
 2177SOL    HW2 1662   3.175   3.073   2.351
 2178SOL     OW 1663   2.412   2.058   2.747
 2178SOL    HW1 1664   2.407   2.053   2.847
 2178SOL    HW2 1665   2.414   2.154   2.718
 2179SOL     OW 1666   2.870   3.318   2.339
 2179SOL    HW1 1667   2.824   3.390   2.287
 2179SOL    HW2 1668   2.866   3.338   2.437
 2180SOL     OW 1669   2.213   3.663   2.715
 2180SOL    HW1 1670   2.263   3.577   2.721
 2180SOL    HW2 1671   2.278   3.740   2.712
 2181SOL     OW 1672   3.657   2.928   2.735
 2181SOL    HW1 1673   3.595   2.913   2.659
 2181SOL    HW2 1674   3.605   2.939   2.820
 2182SOL     OW 1675   3.089   3.412   3.368
 2182SOL    HW1 1676   3.095   3.335   3.432
 2182SOL    HW2 1677   3.037   3.386   3.288
 2183SOL     OW 1678   2.183   2.805   2.104
 2183SOL    HW1 1679   2.265   2.844   2.062
 2183SOL    HW2 1680   2.156   2.723   2.055
 2184SOL     OW 1681   3.320   2.597   2.590
 2184SOL    HW1 1682   3.315   2.532   2.665
 2184SOL    HW2 1683   3.400   2.656   2.603
 2185SOL     OW 1684   2.323   3.128   3.589
 2185SOL    HW1 1685   2.273   3.129   3.503
 2185SOL    HW2 1686   2.260   3.110   3.665
 2186SOL     OW 1687   2.973   3.638   2.099
 2186SOL    HW1 1688   2.913   3.576   2.149
 2186SOL    HW2 1689   3.004   3.594   2.014
 2187SOL     OW 1690   2.064   2.147   3.360
 2187SOL    HW1 1691   1.984   2.207   3.347
 2187SOL    HW2 1692   2.054   2.098   3.446
 2188SOL     OW 1693   3.494   3.239   1.943
 2188SOL    HW1 1694   3.462   3.333   1.933
 2188SOL    HW2 1695   3.418   3.176   1.931
 2189SOL     OW 1696   2.326   3.605   2.185
 2189SOL    HW1 1697   2.359   3.644   2.271
 2189SOL    HW2 1698   2.402   3.598   2.120
 2190SOL     OW 1699   3.262   1.969   2.288
 2190SOL    HW1 1700   3.238   1.932   2.198
 2190SOL    HW2 1701   3.361   1.985   2.292
 2191SOL     OW 1702   2.111   3.647   3.103
 2191SOL    HW1 1703   2.168   3.582   3.153
 2191SOL    HW2 1704   2.095   3.614   3.010
 2192SOL     OW 1705   2.802   3.560   2.766
 2192SOL    HW1 1706   2.882   3.503   2.787
 2192SOL    HW2 1707   2.753   3.520   2.689
 2193SOL     OW 1708   3.409   2.084   3.591
 2193SOL    HW1 1709   3.404   2.121   3.683
 2193SOL    HW2 1710   3.337   2.015   3.579
 2194SOL     OW 1711   2.476   1.984   1.979
 2194SOL    HW1 1712   2.574   1.962   1.986
 2194SOL    HW2 1713   2.445   1.967   1.886
 2195SOL     OW 1714   2.643   2.126   3.611
 2195SOL    HW1 1715   2.710   2.065   3.654
 2195SOL    HW2 1716   2.570   2.145   3.676
 2196SOL     OW 1717   2.750   3.376   3.057
 2196SOL    HW1 1718   2.727   3.351   2.963
 2196SOL    HW2 1719   2.811   3.307   3.096
 2197SOL     OW 1720   3.213   2.452   3.295
 2197SOL    HW1 1721   3.241   2.409   3.380
 2197SOL    HW2 1722   3.238   2.548   3.296
 2198SOL     OW 1723   2.665   3.264   2.786
 2198SOL    HW1 1724   2.755   3.278   2.744
 2198SOL    HW2 1725   2.594   3.266   2.715
 2199SOL     OW 1726   2.784   2.365   2.761
 2199SOL    HW1 1727   2.759   2.356   2.665
 2199SOL    HW2 1728   2.832   2.283   2.792
 2200SOL     OW 1729   2.401   1.926   2.374
 2200SOL    HW1 1730   2.320   1.927   2.432
 2200SOL    HW2 1731   2.404   2.009   2.319
 2201SOL     OW 1732   3.296   3.050   1.903
 2201SOL    HW1 1733   3.328   2.974   1.960
 2201SOL    HW2 1734   3.204   3.077   1.933
 2202SOL     OW 1735   2.159   1.897   2.033
 2202SOL    HW1 1736   2.208   1.981   2.012
 2202SOL    HW2 1737   2.221   1.832   2.078
 2203SOL     OW 1738   2.797   2.098   2.342
 2203SOL    HW1 1739   2.749   2.139   2.264
 2203SOL    HW2 1740   2.896   2.096   2.323
 2204SOL     OW 1741   2.938   2.545   3.326
 2204SOL    HW1 1742   2.858   2.484   3.329
 2204SOL    HW2 1743   3.019   2.492   3.302
 2205SOL     OW 1744   3.089   3.432   2.655
 2205SOL    HW1 1745   3.110   3.506   2.590
 2205SOL    HW2 1746   3.157   3.432   2.728
 2206SOL     OW 1747   2.321   3.014   2.603
 2206SOL    HW1 1748   2.250   2.987   2.668
 2206SOL    HW2 1749   2.295   2.986   2.510
 2207SOL     OW 1750   3.133   3.659   2.453
 2207SOL    HW1 1751   3.177   3.723   2.389
 2207SOL    HW2 1752   3.083   3.711   2.523
 2208SOL     OW 1753   2.894   2.411   1.878
 2208SOL    HW1 1754   2.853   2.493   1.839
 2208SOL    HW2 1755   2.958   2.437   1.951
 2209SOL     OW 1756   1.940   2.418   3.248
 2209SOL    HW1 1757   2.032   2.417   3.207
 2209SOL    HW2 1758   1.934   2.492   3.315
 2210SOL     OW 1759   2.423   2.084   3.009
 2210SOL    HW1 1760   2.461   2.000   3.046
 2210SOL    HW2 1761   2.335   2.103   3.053
 2211SOL     OW 1762   2.728   2.316   2.504
 2211SOL    HW1 1763   2.696   2.388   2.442
 2211SOL    HW2 1764   2.752   2.235   2.451
 2212SOL     OW 1765   2.879   1.901   2.615
 2212SOL    HW1 1766   2.807   1.906   2.546
 2212SOL    HW2 1767   2.855   1.832   2.684
 2213SOL     OW 1768   3.291   3.035   2.729
 2213SOL    HW1 1769   3.236   2.951   2.722
 2213SOL    HW2 1770   3.317   3.064   2.637
 2214SOL     OW 1771   3.328   2.452   2.854
 2214SOL    HW1 1772   3.298   2.357   2.861
 2214SOL    HW2 1773   3.401   2.468   2.920
 2215SOL     OW 1774   3.719   2.695   2.239
 2215SOL    HW1 1775   3.761   2.631   2.303
 2215SOL    HW2 1776   3.681   2.644   2.161
 2216SOL     OW 1777   2.350   3.247   2.036
 2216SOL    HW1 1778   2.263   3.232   2.083
 2216SOL    HW2 1779   2.333   3.273   1.941
 2217SOL     OW 1780   3.526   3.142   2.519
 2217SOL    HW1 1781   3.625   3.150   2.533
 2217SOL    HW2 1782   3.481   3.226   2.550
 2218SOL     OW 1783   3.252   2.437   1.940
 2218SOL    HW1 1784   3.198   2.416   2.021
 2218SOL    HW2 1785   3.343   2.396   1.949
 2219SOL     OW 1786   3.616   3.085   3.450
 2219SOL    HW1 1787   3.707   3.046   3.437
 2219SOL    HW2 1788   3.624   3.181   3.474
 2220SOL     OW 1789   2.926   3.209   3.202
 2220SOL    HW1 1790   2.846   3.186   3.257
 2220SOL    HW2 1791   3.009   3.183   3.251
 2222SOL     OW 1792   2.973   3.057   2.962
 2222SOL    HW1 1793   2.933   3.101   3.043
 2222SOL    HW2 1794   2.932   3.094   2.879
 2223SOL     OW 1795   3.500   2.961   2.941
 2223SOL    HW1 1796   3.505   3.042   3.000
 2223SOL    HW2 1797   3.414   2.963   2.890
 2224SOL     OW 1798   2.777   1.951   3.264
 2224SOL    HW1 1799   2.802   1.931   3.169
 2224SOL    HW2 1800   2.849   2.007   3.306
 2225SOL     OW 1801   2.842   2.978   3.581
 2225SOL    HW1 1802   2.743   2.984   3.591
 2225SOL    HW2 1803   2.865   2.898   3.525
 2226SOL     OW 1804   2.567   2.912   2.230
 2226SOL    HW1 1805   2.553   2.919   2.329
 2226SOL    HW2 1806   2.651   2.861   2.212
 2227SOL     OW 1807   2.272   2.675   3.113
 2227SOL    HW1 1808   2.358   2.687   3.163
 2227SOL    HW2 1809   2.230   2.588   3.140
 2228SOL     OW 1810   3.136   2.248   3.124
 2228SOL    HW1 1811   3.157   2.322   3.188
 2228SOL    HW2 1812   3.047   2.265   3.081
 2229SOL     OW 1813   1.926   3.426   3.193
 2229SOL    HW1 1814   1.880   3.508   3.159
 2229SOL    HW2 1815   2.024   3.445   3.202
 2230SOL     OW 1816   2.229   2.962   2.363
 2230SOL    HW1 1817   2.222   3.045   2.307
 2230SOL    HW2 1818   2.233   2.882   2.303
 2231SOL     OW 1819   3.114   3.210   2.250
 2231SOL    HW1 1820   3.164   3.287   2.290
 2231SOL    HW2 1821   3.019   3.212   2.282
 2232SOL     OW 1822   3.134   3.307   3.004
 2232SOL    HW1 1823   3.181   3.320   3.091
 2232SOL    HW2 1824   3.068   3.233   3.013
 2233SOL     OW 1825   3.444   2.501   2.334
 2233SOL    HW1 1826   3.413   2.562   2.407
 2233SOL    HW2 1827   3.494   2.553   2.265
 2234SOL     OW 1828   2.216   3.372   3.191
 2234SOL    HW1 1829   2.195   3.328   3.104
 2234SOL    HW2 1830   2.313   3.398   3.194
 2235SOL     OW 1831   2.264   2.613   3.460
 2235SOL    HW1 1832   2.332   2.668   3.413
 2235SOL    HW2 1833   2.304   2.525   3.487
 2236SOL     OW 1834   3.449   2.641   3.532
 2236SOL    HW1 1835   3.357   2.679   3.527
 2236SOL    HW2 1836   3.509   2.688   3.467
 2237SOL     OW 1837   2.875   1.967   3.632
 2237SOL    HW1 1838   2.881   2.052   3.580
 2237SOL    HW2 1839   2.907   1.891   3.575
 2238SOL     OW 1840   2.366   1.912   3.602
 2238SOL    HW1 1841   2.324   1.855   3.532
 2238SOL    HW2 1842   2.300   1.981   3.634
 2239SOL     OW 1843   2.435   2.732   2.891
 2239SOL    HW1 1844   2.479   2.821   2.882
 2239SOL    HW2 1845   2.372   2.732   2.968
 2240SOL     OW 1846   3.222   2.724   2.907
 2240SOL    HW1 1847   3.147   2.724   2.841
 2240SOL    HW2 1848   3.259   2.632   2.916
 2241SOL     OW 1849   3.071   2.387   2.137
 2241SOL    HW1 1850   3.084   2.303   2.191
 2241SOL    HW2 1851   3.042   2.461   2.197
 2242SOL     OW 1852   2.169   2.075   3.093
 2242SOL    HW1 1853   2.146   2.112   3.183
 2242SOL    HW2 1854   2.139   1.980   3.087
 2243SOL     OW 1855   1.899   3.172   3.144
 2243SOL    HW1 1856   1.952   3.123   3.212
 2243SOL    HW2 1857   1.921   3.270   3.149
 2244SOL     OW 1858   2.594   2.496   2.926
 2244SOL    HW1 1859   2.653   2.470   2.850
 2244SOL    HW2 1860   2.566   2.592   2.915
 2246SOL     OW 1861   2.169   1.925   2.480
 2246SOL    HW1 1862   2.158   2.019   2.513
 2246SOL    HW2 1863   2.164   1.862   2.557
 2247SOL     OW 1864   3.484   2.229   2.236
 2247SOL    HW1 1865   3.486   2.153   2.300
 2247SOL    HW2 1866   3.436   2.306   2.276
 2248SOL     OW 1867   2.885   2.628   2.828
 2248SOL    HW1 1868   2.900   2.649   2.924
 2248SOL    HW2 1869   2.855   2.533   2.819
 2249SOL     OW 1870   2.842   3.435   3.562
 2249SOL    HW1 1871   2.822   3.479   3.474
 2249SOL    HW2 1872   2.881   3.344   3.546
 2251SOL     OW 1873   2.212   2.760   3.666
 2251SOL    HW1 1874   2.288   2.804   3.714
 2251SOL    HW2 1875   2.247   2.713   3.584
 2252SOL     OW 1876   3.402   2.136   1.987
 2252SOL    HW1 1877   3.341   2.061   2.010
 2252SOL    HW2 1878   3.424   2.188   2.070
 2253SOL     OW 1879   3.165   2.700   1.904
 2253SOL    HW1 1880   3.199   2.607   1.919
 2253SOL    HW2 1881   3.183   2.727   1.809
 2254SOL     OW 1882   2.930   3.195   2.711
 2254SOL    HW1 1883   2.937   3.111   2.656
 2254SOL    HW2 1884   2.992   3.264   2.675
 2255SOL     OW 1885   2.181   2.672   2.811
 2255SOL    HW1 1886   2.274   2.708   2.816
 2255SOL    HW2 1887   2.175   2.587   2.863
 2256SOL     OW 1888   2.201   2.371   2.868
 2256SOL    HW1 1889   2.149   2.288   2.851
 2256SOL    HW2 1890   2.278   2.376   2.804
 2257SOL     OW 1891   3.000   2.242   3.540
 2257SOL    HW1 1892   2.955   2.305   3.604
 2257SOL    HW2 1893   3.093   2.273   3.523
 2258SOL     OW 1894   3.022   2.069   3.339
 2258SOL    HW1 1895   3.022   2.133   3.416
 2258SOL    HW2 1896   3.050   2.117   3.256
 2259SOL     OW 1897   1.870   3.188   2.062
 2259SOL    HW1 1898   1.777   3.209   2.031
 2259SOL    HW2 1899   1.880   3.089   2.075
 2260SOL     OW 1900   1.950   3.663   2.789
 2260SOL    HW1 1901   1.908   3.577   2.762
 2260SOL    HW2 1902   2.044   3.666   2.755
 2261SOL     OW 1903   2.366   3.430   2.772
 2261SOL    HW1 1904   2.432   3.504   2.781
 2261SOL    HW2 1905   2.410   3.351   2.730
 2262SOL     OW 1906   2.864   2.658   3.100
 2262SOL    HW1 1907   2.905   2.626   3.186
 2262SOL    HW2 1908   2.768   2.631   3.097
 2263SOL     OW 1909   1.902   2.406   2.976
 2263SOL    HW1 1910   1.987   2.373   2.935
 2263SOL    HW2 1911   1.915   2.421   3.074
 2264SOL     OW 1912   2.051   2.382   3.584
 2264SOL    HW1 1913   2.110   2.342   3.514
 2264SOL    HW2 1914   1.993   2.453   3.543
 2265SOL     OW 1915   3.231   2.812   3.522
 2265SOL    HW1 1916   3.270   2.901   3.542
 2265SOL    HW2 1917   3.241   2.792   3.425
 2266SOL     OW 1918   3.519   2.466   3.068
 2266SOL    HW1 1919   3.481   2.397   3.130
 2266SOL    HW2 1920   3.601   2.430   3.024
 2267SOL     OW 1921   2.114   3.426   3.606
 2267SOL    HW1 1922   2.084   3.483   3.682
 2267SOL    HW2 1923   2.107   3.329   3.632
 2268SOL     OW 1924   2.533   2.326   3.131
 2268SOL    HW1 1925   2.499   2.237   3.101
 2268SOL    HW2 1926   2.559   2.380   3.051
 2269SOL     OW 1927   2.792   3.540   3.327
 2269SOL    HW1 1928   2.768   3.522   3.232
 2269SOL    HW2 1929   2.822   3.634   3.337
 2270SOL     OW 1930   2.021   2.999   3.328
 2270SOL    HW1 1931   2.043   2.938   3.404
 2270SOL    HW2 1932   2.031   2.950   3.242
 2271SOL     OW 1933   3.209   2.921   3.096
 2271SOL    HW1 1934   3.233   2.858   3.022
 2271SOL    HW2 1935   3.119   2.961   3.078
 2272SOL     OW 1936   3.164   2.717   2.171
 2272SOL    HW1 1937   3.078   2.686   2.213
 2272SOL    HW2 1938   3.160   2.703   2.072
 2274SOL     OW 1939   3.114   3.593   2.990
 2274SOL    HW1 1940   3.198   3.598   2.936
 2274SOL    HW2 1941   3.091   3.497   3.008
 2275SOL     OW 1942   1.945   3.120   2.884
 2275SOL    HW1 1943   1.940   3.119   2.984
 2275SOL    HW2 1944   1.862   3.079   2.846
 2276SOL     OW 1945   2.550   3.524   3.578
 2276SOL    HW1 1946   2.494   3.605   3.587
 2276SOL    HW2 1947   2.602   3.528   3.492
 2277SOL     OW 1948   3.588   1.997   2.385
 2277SOL    HW1 1949   3.661   1.980   2.318
 2277SOL    HW2 1950   3.557   1.910   2.423
 2278SOL     OW 1951   3.250   3.435   2.339
 2278SOL    HW1 1952   3.317   3.447   2.265
 2278SOL    HW2 1953   3.210   3.524   2.362
 2280SOL     OW 1954   3.142   2.789   2.534
 2280SOL    HW1 1955   3.202   2.708   2.536
 2280SOL    HW2 1956   3.182   2.858   2.474
 2281SOL     OW 1957   2.692   3.135   3.284
 2281SOL    HW1 1958   2.687   3.168   3.379
 2281SOL    HW2 1959   2.606   3.154   3.238
 2282SOL     OW 1960   2.534   3.478   2.016
 2282SOL    HW1 1961   2.543   3.488   1.917
 2282SOL    HW2 1962   2.494   3.389   2.037
 2284SOL     OW 1963   3.703   2.037   2.825
 2284SOL    HW1 1964   3.742   1.952   2.789
 2284SOL    HW2 1965   3.605   2.039   2.806
 2285SOL     OW 1966   2.125   2.188   2.582
 2285SOL    HW1 1967   2.046   2.239   2.548
 2285SOL    HW2 1968   2.116   2.173   2.680
 2286SOL     OW 1969   3.056   3.474   1.893
 2286SOL    HW1 1970   3.062   3.381   1.930
 2286SOL    HW2 1971   2.997   3.474   1.813
 2287SOL     OW 1972   2.684   2.864   3.234
 2287SOL    HW1 1973   2.724   2.863   3.142
 2287SOL    HW2 1974   2.694   2.956   3.274
 2288SOL     OW 1975   2.778   2.772   2.153
 2288SOL    HW1 1976   2.841   2.810   2.085
 2288SOL    HW2 1977   2.818   2.689   2.192
 2289SOL     OW 1978   3.366   3.469   1.906
 2289SOL    HW1 1979   3.274   3.506   1.913
 2289SOL    HW2 1980   3.404   3.489   1.816
 2290SOL     OW 1981   2.234   3.150   3.352
 2290SOL    HW1 1982   2.221   3.243   3.318
 2290SOL    HW2 1983   2.150   3.098   3.339
 2291SOL     OW 1984   3.476   3.154   3.151
 2291SOL    HW1 1985   3.536   3.157   3.231
 2291SOL    HW2 1986   3.401   3.218   3.164
 2292SOL     OW 1987   2.901   2.960   2.558
 2292SOL    HW1 1988   2.831   2.913   2.612
 2292SOL    HW2 1989   2.960   2.892   2.515
 2293SOL     OW 1990   2.876   2.098   2.833
 2293SOL    HW1 1991   2.868   2.062   2.740
 2293SOL    HW2 1992   2.874   2.022   2.898
 2294SOL     OW 1993   2.452   3.349   2.353
 2294SOL    HW1 1994   2.494   3.291   2.283
 2294SOL    HW2 1995   2.408   3.428   2.309
 2295SOL     OW 1996   3.571   2.247   3.243
 2295SOL    HW1 1997   3.644   2.316   3.247
 2295SOL    HW2 1998   3.599   2.172   3.184
 2296SOL     OW 1999   2.117   3.210   2.152
 2296SOL    HW1 2000   2.021   3.211   2.125
 2296SOL    HW2 2001   2.129   3.263   2.236
 2297SOL     OW 2002   1.967   2.875   3.588
 2297SOL    HW1 2003   1.890   2.842   3.642
 2297SOL    HW2 2004   2.052   2.845   3.630
 2298SOL     OW 2005   2.534   2.065   3.351
 2298SOL    HW1 2006   2.624   2.049   3.311
 2298SOL    HW2 2007   2.542   2.070   3.450
 2299SOL     OW 2008   1.937   2.207   1.895
 2299SOL    HW1 2009   1.845   2.179   1.866
 2299SOL    HW2 2010   1.968   2.284   1.839
 2300SOL     OW 2011   3.302   2.718   3.260
 2300SOL    HW1 2012   3.245   2.770   3.197
 2300SOL    HW2 2013   3.398   2.730   3.236
 2301SOL     OW 2014   1.934   2.028   2.180
 2301SOL    HW1 2015   1.917   2.111   2.126
 2301SOL    HW2 2016   2.024   1.991   2.158
 2302SOL     OW 2017   3.045   3.197   1.981
 2302SOL    HW1 2018   2.946   3.186   1.983
 2302SOL    HW2 2019   3.079   3.212   2.074
 2303SOL     OW 2020   2.475   2.704   3.293
 2303SOL    HW1 2021   2.531   2.785   3.276
 2303SOL    HW2 2022   2.534   2.624   3.296
 2304SOL     OW 2023   3.355   3.629   2.821
 2304SOL    HW1 2024   3.388   3.693   2.752
 2304SOL    HW2 2025   3.421   3.623   2.896
 2305SOL     OW 2026   2.578   2.427   3.570
 2305SOL    HW1 2027   2.597   2.492   3.644
 2305SOL    HW2 2028   2.638   2.347   3.579
 2306SOL     OW 2029   3.312   3.082   3.495
 2306SOL    HW1 2030   3.303   3.072   3.594
 2306SOL    HW2 2031   3.408   3.075   3.469
 2307SOL     OW 2032   2.252   3.603   3.422
 2307SOL    HW1 2033   2.161   3.644   3.420
 2307SOL    HW2 2034   2.245   3.509   3.454
 2308SOL     OW 2035   3.536   2.745   3.116
 2308SOL    HW1 2036   3.509   2.656   3.079
 2308SOL    HW2 2037   3.537   2.813   3.043
 2309SOL     OW 2038   3.087   2.187   2.311
 2309SOL    HW1 2039   3.152   2.113   2.300
 2309SOL    HW2 2040   3.107   2.237   2.395
 2310SOL     OW 2041   2.456   2.607   2.514
 2310SOL    HW1 2042   2.506   2.692   2.495
 2310SOL    HW2 2043   2.368   2.609   2.466
 2311SOL     OW 2044   3.639   2.204   3.504
 2311SOL    HW1 2045   3.622   2.235   3.410
 2311SOL    HW2 2046   3.555   2.167   3.542
 2312SOL     OW 2047   3.592   2.796   3.379
 2312SOL    HW1 2048   3.630   2.887   3.394
 2312SOL    HW2 2049   3.584   2.779   3.280
 2313SOL     OW 2050   2.721   3.236   1.878
 2313SOL    HW1 2051   2.675   3.251   1.966
 2313SOL    HW2 2052   2.765   3.321   1.848
 2314SOL     OW 2053   2.523   3.652   2.815
 2314SOL    HW1 2054   2.477   3.740   2.802
 2314SOL    HW2 2055   2.622   3.664   2.808
 2315SOL     OW 2056   2.721   2.818   2.723
 2315SOL    HW1 2057   2.775   2.749   2.771
 2315SOL    HW2 2058   2.689   2.887   2.789
 2316SOL     OW 2059   2.945   2.846   1.949
 2316SOL    HW1 2060   2.922   2.899   1.867
 2316SOL    HW2 2061   3.026   2.790   1.930
 2317SOL     OW 2062   3.723   3.431   2.713
 2317SOL    HW1 2063   3.652   3.419   2.643
 2317SOL    HW2 2064   3.724   3.352   2.773
 2318SOL     OW 2065   2.083   3.176   3.706
 2318SOL    HW1 2066   2.018   3.103   3.685
 2318SOL    HW2 2067   2.087   3.190   3.804
 2319SOL     OW 2068   1.941   3.102   2.515
 2319SOL    HW1 2069   1.940   3.055   2.603
 2319SOL    HW2 2070   2.023   3.074   2.464
 2320SOL     OW 2071   2.534   3.253   3.486
 2320SOL    HW1 2072   2.456   3.203   3.524
 2320SOL    HW2 2073   2.531   3.348   3.517
 2321SOL     OW 2074   3.686   2.054   3.089
 2321SOL    HW1 2075   3.682   1.964   3.133
 2321SOL    HW2 2076   3.689   2.043   2.990
 2322SOL     OW 2077   3.567   3.349   2.966
 2322SOL    HW1 2078   3.474   3.324   2.939
 2322SOL    HW2 2079   3.593   3.299   3.048
 2323SOL     OW 2080   2.179   2.409   3.142
 2323SOL    HW1 2081   2.217   2.350   3.214
 2323SOL    HW2 2082   2.219   2.383   3.054
 2324SOL     OW 2083   2.674   3.448   2.549
 2324SOL    HW1 2084   2.706   3.458   2.455
 2324SOL    HW2 2085   2.595   3.386   2.551
 2325SOL     OW 2086   3.286   2.076   2.974
 2325SOL    HW1 2087   3.338   2.011   3.029
 2325SOL    HW2 2088   3.237   2.139   3.035
 2326SOL     OW 2089   2.863   1.896   3.016
 2326SOL    HW1 2090   2.800   1.824   2.985
 2326SOL    HW2 2091   2.956   1.860   3.016
 2327SOL     OW 2092   2.632   3.192   2.163
 2327SOL    HW1 2093   2.586   3.105   2.180
 2327SOL    HW2 2094   2.723   3.189   2.204
 2328SOL     OW 2095   2.480   3.429   3.146
 2328SOL    HW1 2096   2.475   3.511   3.203
 2328SOL    HW2 2097   2.569   3.426   3.101
 2329SOL     OW 2098   3.214   1.914   2.030
 2329SOL    HW1 2099   3.249   1.873   1.946
 2329SOL    HW2 2100   3.124   1.876   2.050
 2330SOL     OW 2101   3.162   2.315   2.553
 2330SOL    HW1 2102   3.103   2.395   2.557
 2330SOL    HW2 2103   3.177   2.280   2.646
 2331SOL     OW 2104   3.455   2.083   2.744
 2331SOL    HW1 2105   3.371   2.082   2.798
 2331SOL    HW2 2106   3.457   2.166   2.688
 2332SOL     OW 2107   1.901   2.939   2.162
 2332SOL    HW1 2108   2.000   2.928   2.153
 2332SOL    HW2 2109   1.861   2.853   2.194
 2333SOL     OW 2110   2.737   3.508   2.199
 2333SOL    HW1 2111   2.660   3.473   2.145
 2333SOL    HW2 2112   2.705   3.579   2.261
 2334SOL     OW 2113   2.092   2.490   3.837
 2334SOL    HW1 2114   1.999   2.488   3.874
 2334SOL    HW2 2115   2.093   2.451   3.745
 2346SOL     OW 2116   2.468   2.826   3.847
 2346SOL    HW1 2117   2.475   2.910   3.793
 2346SOL    HW2 2118   2.514   2.839   3.935
 2357SOL     OW 2119   2.460   2.591   3.994
 2357SOL    HW1 2120   2.484   2.660   3.926
 2357SOL    HW2 2121   2.382   2.624   4.048
 2362SOL     OW 2122   2.727   2.210   3.919
 2362SOL    HW1 2123   2.786   2.273   3.870
 2362SOL    HW2 2124   2.746   2.116   3.890
 2367SOL     OW 2125   2.183   2.805   3.966
 2367SOL    HW1 2126   2.265   2.844   3.924
 2367SOL    HW2 2127   2.156   2.723   3.917
 2375SOL     OW 2128   2.476   1.984   3.841
 2375SOL    HW1 2129   2.574   1.962   3.848
 2375SOL    HW2 2130   2.445   1.967   3.748
 2378SOL     OW 2131   3.296   3.050   3.765
 2378SOL    HW1 2132   3.328   2.974   3.822
 2378SOL    HW2 2133   3.204   3.077   3.795
 2379SOL     OW 2134   2.159   1.897   3.895
 2379SOL    HW1 2135   2.208   1.981   3.874
 2379SOL    HW2 2136   2.221   1.832   3.940
 2384SOL     OW 2137   2.894   2.411   3.740
 2384SOL    HW1 2138   2.853   2.493   3.701
 2384SOL    HW2 2139   2.958   2.437   3.813
 2389SOL     OW 2140   2.350   3.247   3.898
 2389SOL    HW1 2141   2.263   3.232   3.945
 2389SOL    HW2 2142   2.333   3.273   3.803
 2391SOL     OW 2143   3.252   2.437   3.802
 2391SOL    HW1 2144   3.198   2.416   3.883
 2391SOL    HW2 2145   3.343   2.396   3.811
 2392SOL     OW 2146   2.389   2.118   4.052
 2392SOL    HW1 2147   2.416   2.059   3.977
 2392SOL    HW2 2148   2.389   2.213   4.021
 2394SOL     OW 2149   2.567   2.912   4.092
 2394SOL    HW1 2150   2.553   2.919   4.191
 2394SOL    HW2 2151   2.651   2.861   4.074
 2399SOL     OW 2152   3.071   2.387   3.999
 2399SOL    HW1 2153   3.084   2.303   4.053
 2399SOL    HW2 2154   3.042   2.461   4.059
 2405SOL     OW 2155   3.165   2.700   3.766
 2405SOL    HW1 2156   3.199   2.607   3.781
 2405SOL    HW2 2157   3.183   2.727   3.671
 2411SOL     OW 2158   2.677   2.434   4.049
 2411SOL    HW1 2159   2.684   2.345   4.003
 2411SOL    HW2 2160   2.583   2.468   4.041
 2413SOL     OW 2161   2.335   2.362   3.915
 2413SOL    HW1 2162   2.396   2.442   3.919
 2413SOL    HW2 2163   2.240   2.393   3.922
 2424SOL     OW 2164   2.778   2.772   4.015
 2424SOL    HW1 2165   2.841   2.810   3.947
 2424SOL    HW2 2166   2.818   2.689   4.054
 2430SOL     OW 2167   1.937   2.207   3.757
 2430SOL    HW1 2168   1.845   2.179   3.728
 2430SOL    HW2 2169   1.968   2.284   3.701
 2431SOL     OW 2170   1.934   2.028   4.042
 2431SOL    HW1 2171   1.917   2.111   3.988
 2431SOL    HW2 2172   2.024   1.991   4.020
 2432SOL     OW 2173   3.045   3.197   3.843
 2432SOL    HW1 2174   2.946   3.186   3.845
 2432SOL    HW2 2175   3.079   3.212   3.936
 2436SOL     OW 2176   2.721   3.236   3.740
 2436SOL    HW1 2177   2.675   3.251   3.828
 2436SOL    HW2 2178   2.765   3.321   3.710
 2439SOL     OW 2179   2.945   2.846   3.811
 2439SOL    HW1 2180   2.922   2.899   3.729
 2439SOL    HW2 2181   3.026   2.790   3.792
 2446SOL     OW 2182   3.214   1.914   3.892
 2446SOL    HW1 2183   3.249   1.873   3.808
 2446SOL    HW2 2184   3.124   1.876   3.912
 2449SOL     OW 2185   1.901   2.939   4.024
 2449SOL    HW1 2186   2.000   2.928   4.015
 2449SOL    HW2 2187   1.861   2.853   4.056
 2467SOL     OW 2188   2.179   3.975   1.801
 2467SOL    HW1 2189   2.250   4.046   1.807
 2467SOL    HW2 2190   2.091   4.014   1.829
 2485SOL     OW 2191   2.643   3.988   1.749
 2485SOL    HW1 2192   2.710   3.927   1.792
 2485SOL    HW2 2193   2.570   4.007   1.814
 2501SOL     OW 2194   2.777   3.813   1.402
 2501SOL    HW1 2195   2.802   3.793   1.307
 2501SOL    HW2 2196   2.849   3.869   1.444
 2508SOL     OW 2197   2.875   3.829   1.770
 2508SOL    HW1 2198   2.881   3.914   1.718
 2508SOL    HW2 2199   2.907   3.753   1.713
 2509SOL     OW 2200   2.366   3.774   1.740
 2509SOL    HW1 2201   2.324   3.717   1.670
 2509SOL    HW2 2202   2.300   3.843   1.772
 2546SOL     OW 2203   2.534   3.927   1.489
 2546SOL    HW1 2204   2.624   3.911   1.449
 2546SOL    HW2 2205   2.542   3.932   1.588
 2566SOL     OW 2206   2.087   3.999   2.858
 2566SOL    HW1 2207   2.122   3.982   2.950
 2566SOL    HW2 2208   1.999   3.954   2.846
 2567SOL     OW 2209   1.881   4.092   2.509
 2567SOL    HW1 2210   1.799   4.135   2.548
 2567SOL    HW2 2211   1.853   4.019   2.446
 2578SOL     OW 2212   2.671   3.728   2.364
 2578SOL    HW1 2213   2.711   3.819   2.355
 2578SOL    HW2 2214   2.571   3.736   2.370
 2590SOL     OW 2215   2.727   4.072   2.057
 2590SOL    HW1 2216   2.786   4.135   2.008
 2590SOL    HW2 2217   2.746   3.978   2.028
 2592SOL     OW 2218   2.412   3.920   2.747
 2592SOL    HW1 2219   2.407   3.915   2.847
 2592SOL    HW2 2220   2.414   4.016   2.718
 2595SOL     OW 2221   3.262   3.831   2.288
 2595SOL    HW1 2222   3.238   3.794   2.198
 2595SOL    HW2 2223   3.361   3.847   2.292
 2598SOL     OW 2224   2.476   3.846   1.979
 2598SOL    HW1 2225   2.574   3.824   1.986
 2598SOL    HW2 2226   2.445   3.829   1.886
 2602SOL     OW 2227   2.401   3.788   2.374
 2602SOL    HW1 2228   2.320   3.789   2.432
 2602SOL    HW2 2229   2.404   3.871   2.319
 2603SOL     OW 2230   2.159   3.759   2.033
 2603SOL    HW1 2231   2.208   3.843   2.012
 2603SOL    HW2 2232   2.221   3.694   2.078
 2604SOL     OW 2233   2.797   3.960   2.342
 2604SOL    HW1 2234   2.749   4.001   2.264
 2604SOL    HW2 2235   2.896   3.958   2.323
 2608SOL     OW 2236   2.423   3.946   3.009
 2608SOL    HW1 2237   2.461   3.862   3.046
 2608SOL    HW2 2238   2.335   3.965   3.053
 2610SOL     OW 2239   2.879   3.763   2.615
 2610SOL    HW1 2240   2.807   3.768   2.546
 2610SOL    HW2 2241   2.855   3.694   2.684
 2614SOL     OW 2242   2.389   3.980   2.190
 2614SOL    HW1 2243   2.416   3.921   2.115
 2614SOL    HW2 2244   2.389   4.075   2.159
 2616SOL     OW 2245   2.777   3.813   3.264
 2616SOL    HW1 2246   2.802   3.793   3.169
 2616SOL    HW2 2247   2.849   3.869   3.306
 2628SOL     OW 2248   2.169   3.937   3.093
 2628SOL    HW1 2249   2.146   3.974   3.183
 2628SOL    HW2 2250   2.139   3.842   3.087
 2631SOL     OW 2251   2.169   3.787   2.480
 2631SOL    HW1 2252   2.158   3.881   2.513
 2631SOL    HW2 2253   2.164   3.724   2.557
 2655SOL     OW 2254   2.125   4.050   2.582
 2655SOL    HW1 2255   2.046   4.101   2.548
 2655SOL    HW2 2256   2.116   4.035   2.680
 2657SOL     OW 2257   2.876   3.960   2.833
 2657SOL    HW1 2258   2.868   3.924   2.740
 2657SOL    HW2 2259   2.874   3.884   2.898
 2663SOL     OW 2260   1.934   3.890   2.180
 2663SOL    HW1 2261   1.917   3.973   2.126
 2663SOL    HW2 2262   2.024   3.853   2.158
 2672SOL     OW 2263   2.290   4.148   2.382
 2672SOL    HW1 2264   2.320   4.076   2.320
 2672SOL    HW2 2265   2.251   4.108   2.465
 2675SOL     OW 2266   2.863   3.758   3.016
 2675SOL    HW1 2267   2.800   3.686   2.985
 2675SOL    HW2 2268   2.956   3.722   3.016
 2676SOL     OW 2269   3.214   3.776   2.030
 2676SOL    HW1 2270   3.249   3.735   1.946
 2676SOL    HW2 2271   3.124   3.738   2.050
 2766SOL     OW 2272   3.854   1.821   1.571
 2766SOL    HW1 2273   3.844   1.806   1.670
 2766SOL    HW2 2274   3.768   1.857   1.535
 2827SOL     OW 2275   3.854   1.794   1.851
 2827SOL    HW1 2276   3.813   1.720   1.904
 2827SOL    HW2 2277   3.918   1.845   1.909
 2870SOL     OW 2278   3.955   1.713   2.345
 2870SOL    HW1 2279   3.989   1.790   2.399
 2870SOL    HW2 2280   3.999   1.713   2.255
 2876SOL     OW 2281   3.751   1.596   1.979
 2876SOL    HW1 2282   3.732   1.500   2.000
 2876SOL    HW2 2283   3.718   1.654   2.054
 2931SOL     OW 2284   3.732   1.326   2.062
 2931SOL    HW1 2285   3.639   1.347   2.031
 2931SOL    HW2 2286   3.742   1.227   2.075
 2932SOL     OW 2287   3.812   1.801   2.789
 2932SOL    HW1 2288   3.770   1.715   2.762
 2932SOL    HW2 2289   3.906   1.804   2.755
 3061SOL     OW 2290   3.837   2.599   1.597
 3061SOL    HW1 2291   3.925   2.586   1.642
 3061SOL    HW2 2292   3.824   2.696   1.575
 3065SOL     OW 2293   4.041   2.113   1.801
 3065SOL    HW1 2294   4.112   2.184   1.807
 3065SOL    HW2 2295   3.953   2.152   1.829
 3077SOL     OW 2296   3.926   2.147   1.498
 3077SOL    HW1 2297   3.846   2.207   1.485
 3077SOL    HW2 2298   3.916   2.098   1.584
 3089SOL     OW 2299   3.802   2.418   1.386
 3089SOL    HW1 2300   3.894   2.417   1.345
 3089SOL    HW2 2301   3.796   2.492   1.453
 3121SOL     OW 2302   3.913   2.382   1.722
 3121SOL    HW1 2303   3.972   2.342   1.652
 3121SOL    HW2 2304   3.855   2.453   1.681
 3141SOL     OW 2305   3.829   2.875   1.726
 3141SOL    HW1 2306   3.752   2.842   1.780
 3141SOL    HW2 2307   3.914   2.845   1.768
 3164SOL     OW 2308   3.954   2.490   1.975
 3164SOL    HW1 2309   3.861   2.488   2.012
 3164SOL    HW2 2310   3.955   2.451   1.883
 3165SOL     OW 2311   3.949   2.137   2.858
 3165SOL    HW1 2312   3.984   2.120   2.950
 3165SOL    HW2 2313   3.861   2.092   2.846
 3166SOL     OW 2314   3.743   2.230   2.509
 3166SOL    HW1 2315   3.661   2.273   2.548
 3166SOL    HW2 2316   3.715   2.157   2.446
 3176SOL     OW 2317   3.964   2.953   2.748
 3176SOL    HW1 2318   3.978   2.869   2.800
 3176SOL    HW2 2319   3.909   3.017   2.803
 3179SOL     OW 2320   3.846   2.505   2.425
 3179SOL    HW1 2321   3.801   2.417   2.442
 3179SOL    HW2 2322   3.845   2.559   2.509
 3180SOL     OW 2323   3.751   3.458   1.979
 3180SOL    HW1 2324   3.732   3.362   2.000
 3180SOL    HW2 2325   3.718   3.516   2.054
 3184SOL     OW 2326   3.921   2.838   3.126
 3184SOL    HW1 2327   4.010   2.793   3.112
 3184SOL    HW2 2328   3.848   2.773   3.107
 3189SOL     OW 2329   3.800   2.673   2.651
 3189SOL    HW1 2330   3.899   2.661   2.660
 3189SOL    HW2 2331   3.776   2.768   2.672
 3195SOL     OW 2332   4.045   2.805   2.104
 3195SOL    HW1 2333   4.127   2.844   2.062
 3195SOL    HW2 2334   4.018   2.723   2.055
 3200SOL     OW 2335   4.106   2.562   2.342
 3200SOL    HW1 2336   4.151   2.472   2.339
 3200SOL    HW2 2337   4.012   2.551   2.375
 3207SOL     OW 2338   4.021   1.897   2.033
 3207SOL    HW1 2339   4.070   1.981   2.012
 3207SOL    HW2 2340   4.083   1.832   2.078
 3210SOL     OW 2341   3.802   2.418   3.248
 3210SOL    HW1 2342   3.894   2.417   3.207
 3210SOL    HW2 2343   3.796   2.492   3.315
 3229SOL     OW 2344   3.761   3.172   3.144
 3229SOL    HW1 2345   3.814   3.123   3.212
 3229SOL    HW2 2346   3.783   3.270   3.149
 3231SOL     OW 2347   4.031   1.925   2.480
 3231SOL    HW1 2348   4.020   2.019   2.513
 3231SOL    HW2 2349   4.026   1.862   2.557
 3235SOL     OW 2350   4.043   2.672   2.811
 3235SOL    HW1 2351   4.136   2.708   2.816
 3235SOL    HW2 2352   4.037   2.587   2.863
 3236SOL     OW 2353   4.063   2.371   2.868
 3236SOL    HW1 2354   4.011   2.288   2.851
 3236SOL    HW2 2355   4.140   2.376   2.804
 3237SOL     OW 2356   3.732   3.188   2.062
 3237SOL    HW1 2357   3.639   3.209   2.031
 3237SOL    HW2 2358   3.742   3.089   2.075
 3241SOL     OW 2359   3.764   2.406   2.976
 3241SOL    HW1 2360   3.849   2.373   2.935
 3241SOL    HW2 2361   3.777   2.421   3.074
 3249SOL     OW 2362   3.807   3.120   2.884
 3249SOL    HW1 2363   3.802   3.119   2.984
 3249SOL    HW2 2364   3.724   3.079   2.846
 3255SOL     OW 2365   3.987   2.188   2.582
 3255SOL    HW1 2366   3.908   2.239   2.548
 3255SOL    HW2 2367   3.978   2.173   2.680
 3263SOL     OW 2368   3.799   2.207   1.895
 3263SOL    HW1 2369   3.707   2.179   1.866
 3263SOL    HW2 2370   3.830   2.284   1.839
 3264SOL     OW 2371   3.796   2.028   2.180
 3264SOL    HW1 2372   3.779   2.111   2.126
 3264SOL    HW2 2373   3.886   1.991   2.158
 3274SOL     OW 2374   3.803   3.102   2.515
 3274SOL    HW1 2375   3.802   3.055   2.603
 3274SOL    HW2 2376   3.885   3.074   2.464
 3276SOL     OW 2377   4.152   2.286   2.382
 3276SOL    HW1 2378   4.182   2.214   2.320
 3276SOL    HW2 2379   4.113   2.246   2.465
 3282SOL     OW 2380   3.763   2.939   2.162
 3282SOL    HW1 2381   3.862   2.928   2.153
 3282SOL    HW2 2382   3.723   2.853   2.194
   4.76359   4.76359   4.76359
