; mobley_1717215_GMX.itp created by acpype (v: 2023.10.27) on Thu May 21 00:20:33 2026

[ atomtypes ]
;name   bond_type     mass     charge   ptype   sigma         epsilon       Amb
 c        c           0.00000  0.00000   A     3.31521e-01   4.13379e-01 ; 1.86  0.0988
 c3       c3          0.00000  0.00000   A     3.39771e-01   4.51035e-01 ; 1.91  0.1078
 o        o           0.00000  0.00000   A     3.04812e-01   6.12119e-01 ; 1.71  0.1463
 os       os          0.00000  0.00000   A     3.15610e-01   3.03758e-01 ; 1.77  0.0726
 h5       h5          0.00000  0.00000   A     2.44730e-01   6.73624e-02 ; 1.37  0.0161
 h1       h1          0.00000  0.00000   A     2.42200e-01   8.70272e-02 ; 1.36  0.0208

[ moleculetype ]
;name            nrexcl
 mobley_1717215   3

[ atoms ]
;   nr  type  resi  res  atom  cgnr     charge      mass       ; qtot   bond_type
     1    c     1   MOL    C1    1     0.626900     12.01000 ; qtot 0.627
     2   c3     1   MOL    C2    2     0.121700     12.01000 ; qtot 0.749
     3    o     1   MOL    O1    3    -0.537000     16.00000 ; qtot 0.212
     4   os     1   MOL    O2    4    -0.447900     16.00000 ; qtot -0.236
     5   h5     1   MOL    H1    5     0.081200      1.00800 ; qtot -0.155
     6   h1     1   MOL    H2    6     0.051700      1.00800 ; qtot -0.103
     7   h1     1   MOL    H3    7     0.051700      1.00800 ; qtot -0.052
     8   h1     1   MOL    H4    8     0.051700      1.00800 ; qtot 0.000

[ bonds ]
;   ai     aj funct   r             k
     1      3   1    1.2190e-01    4.9421e+05 ;     C1 - O1    
     1      4   1    1.3621e-01    2.9398e+05 ;     C1 - O2    
     1      5   1    1.1053e-01    2.7793e+05 ;     C1 - H1    
     2      4   1    1.4273e-01    2.3620e+05 ;     C2 - O2    
     2      6   1    1.0969e-01    2.8804e+05 ;     C2 - H2    
     2      7   1    1.0969e-01    2.8804e+05 ;     C2 - H3    
     2      8   1    1.0969e-01    2.8804e+05 ;     C2 - H4    

[ pairs ]
;   ai     aj    funct
     1      6      1 ;     C1 - H2    
     1      7      1 ;     C1 - H3    
     1      8      1 ;     C1 - H4    
     3      2      1 ;     O1 - C2    
     5      2      1 ;     H1 - C2    

[ angles ]
;   ai     aj     ak    funct   theta         cth
     1      4      2      1    1.1582e+02    7.4835e+02 ;     C1 - O2     - C2    
     3      1      4      1    1.2320e+02    8.4734e+02 ;     O1 - C1     - O2    
     3      1      5      1    1.2378e+02    4.9664e+02 ;     O1 - C1     - H1    
     4      1      5      1    1.1309e+02    4.8124e+02 ;     O2 - C1     - H1    
     4      2      6      1    1.1034e+02    4.7028e+02 ;     O2 - C2     - H2    
     4      2      7      1    1.1034e+02    4.7028e+02 ;     O2 - C2     - H3    
     4      2      8      1    1.1034e+02    4.7028e+02 ;     O2 - C2     - H4    
     6      2      7      1    1.0855e+02    2.9824e+02 ;     H2 - C2     - H3    
     6      2      8      1    1.0855e+02    2.9824e+02 ;     H2 - C2     - H4    
     7      2      8      1    1.0855e+02    2.9824e+02 ;     H3 - C2     - H4    

[ dihedrals ] ; propers
; for gromacs 4.5 or higher, using funct 9
;    i      j      k      l   func   phase     kd      pn
     1      4      2      6      9     0.00   1.60387   3 ;     C1-    O2-    C2-    H2
     1      4      2      7      9     0.00   1.60387   3 ;     C1-    O2-    C2-    H3
     1      4      2      8      9     0.00   1.60387   3 ;     C1-    O2-    C2-    H4
     3      1      4      2      9   180.00   5.85760   1 ;     O1-    C1-    O2-    C2
     3      1      4      2      9   180.00  11.29680   2 ;     O1-    C1-    O2-    C2
     5      1      4      2      9   180.00  11.29680   2 ;     H1-    C1-    O2-    C2

[ dihedrals ] ; impropers
; treated as propers in GROMACS to use correct AMBER analytical function
;    i      j      k      l   func   phase     kd      pn
     4      1      3      5      4   180.00   4.60240   2 ;     O2-    C1-    O1-    H1
