; mobley_6456034_GMX.itp created by acpype (v: 2023.10.27) on Thu May 21 00:02:32 2026

[ atomtypes ]
;name   bond_type     mass     charge   ptype   sigma         epsilon       Amb
 c        c           0.00000  0.00000   A     3.31521e-01   4.13379e-01 ; 1.86  0.0988
 c3       c3          0.00000  0.00000   A     3.39771e-01   4.51035e-01 ; 1.91  0.1078
 o        o           0.00000  0.00000   A     3.04812e-01   6.12119e-01 ; 1.71  0.1463
 os       os          0.00000  0.00000   A     3.15610e-01   3.03758e-01 ; 1.77  0.0726
 hc       hc          0.00000  0.00000   A     2.60018e-01   8.70272e-02 ; 1.46  0.0208
 h1       h1          0.00000  0.00000   A     2.42200e-01   8.70272e-02 ; 1.36  0.0208

[ moleculetype ]
;name            nrexcl
 mobley_6456034   3

[ atoms ]
;   nr  type  resi  res  atom  cgnr     charge      mass       ; qtot   bond_type
     1    c     1   MOL    C1    1     0.633098     12.01000 ; qtot 0.633
     2   c3     1   MOL    C2    2    -0.093100     12.01000 ; qtot 0.540
     3   c3     1   MOL    C3    3    -0.093100     12.01000 ; qtot 0.447
     4   c3     1   MOL    C4    4    -0.091100     12.01000 ; qtot 0.356
     5   c3     1   MOL    C5    5    -0.091100     12.01000 ; qtot 0.265
     6   c3     1   MOL    C6    6     0.139400     12.01000 ; qtot 0.404
     7   c3     1   MOL    C7    7    -0.107700     12.01000 ; qtot 0.296
     8   c3     1   MOL    C8    8    -0.071700     12.01000 ; qtot 0.225
     9    o     1   MOL    O1    9    -0.543000     16.00000 ; qtot -0.318
    10   os     1   MOL    O2   10    -0.442900     16.00000 ; qtot -0.761
    11   hc     1   MOL    H1   11     0.047867      1.00800 ; qtot -0.713
    12   hc     1   MOL    H2   12     0.047867      1.00800 ; qtot -0.665
    13   hc     1   MOL    H3   13     0.047867      1.00800 ; qtot -0.618
    14   hc     1   MOL    H4   14     0.047867      1.00800 ; qtot -0.570
    15   hc     1   MOL    H5   15     0.047867      1.00800 ; qtot -0.522
    16   hc     1   MOL    H6   16     0.047867      1.00800 ; qtot -0.474
    17   hc     1   MOL    H7   17     0.037700      1.00800 ; qtot -0.436
    18   hc     1   MOL    H8   18     0.037700      1.00800 ; qtot -0.399
    19   hc     1   MOL    H9   19     0.037700      1.00800 ; qtot -0.361
    20   hc     1   MOL   H10   20     0.037700      1.00800 ; qtot -0.323
    21   hc     1   MOL   H11   21     0.037700      1.00800 ; qtot -0.285
    22   hc     1   MOL   H12   22     0.037700      1.00800 ; qtot -0.248
    23   h1     1   MOL   H13   23     0.052700      1.00800 ; qtot -0.195
    24   h1     1   MOL   H14   24     0.052700      1.00800 ; qtot -0.142
    25   hc     1   MOL   H15   25     0.079700      1.00800 ; qtot -0.063
    26   hc     1   MOL   H16   26     0.062700      1.00800 ; qtot 0.000

[ bonds ]
;   ai     aj funct   r             k
     1      7   1    1.5270e-01    1.9652e+05 ;     C1 - C7    
     1      9   1    1.2190e-01    4.9421e+05 ;     C1 - O1    
     1     10   1    1.3621e-01    2.9398e+05 ;     C1 - O2    
     2      7   1    1.5354e-01    1.9154e+05 ;     C2 - C7    
     2     11   1    1.0962e-01    2.8891e+05 ;     C2 - H1    
     2     12   1    1.0962e-01    2.8891e+05 ;     C2 - H2    
     2     13   1    1.0962e-01    2.8891e+05 ;     C2 - H3    
     3      7   1    1.5354e-01    1.9154e+05 ;     C3 - C7    
     3     14   1    1.0962e-01    2.8891e+05 ;     C3 - H4    
     3     15   1    1.0962e-01    2.8891e+05 ;     C3 - H5    
     3     16   1    1.0962e-01    2.8891e+05 ;     C3 - H6    
     4      8   1    1.5354e-01    1.9154e+05 ;     C4 - C8    
     4     17   1    1.0962e-01    2.8891e+05 ;     C4 - H7    
     4     18   1    1.0962e-01    2.8891e+05 ;     C4 - H8    
     4     19   1    1.0962e-01    2.8891e+05 ;     C4 - H9    
     5      8   1    1.5354e-01    1.9154e+05 ;     C5 - C8    
     5     20   1    1.0962e-01    2.8891e+05 ;     C5 - H10   
     5     21   1    1.0962e-01    2.8891e+05 ;     C5 - H11   
     5     22   1    1.0962e-01    2.8891e+05 ;     C5 - H12   
     6      8   1    1.5354e-01    1.9154e+05 ;     C6 - C8    
     6     10   1    1.4273e-01    2.3620e+05 ;     C6 - O2    
     6     23   1    1.0969e-01    2.8804e+05 ;     C6 - H13   
     6     24   1    1.0969e-01    2.8804e+05 ;     C6 - H14   
     7     25   1    1.0962e-01    2.8891e+05 ;     C7 - H15   
     8     26   1    1.0962e-01    2.8891e+05 ;     C8 - H16   

[ pairs ]
;   ai     aj    funct
     1      8      1 ;     C1 - C8    
     1     11      1 ;     C1 - H1    
     1     12      1 ;     C1 - H2    
     1     13      1 ;     C1 - H3    
     1     14      1 ;     C1 - H4    
     1     15      1 ;     C1 - H5    
     1     16      1 ;     C1 - H6    
     1     23      1 ;     C1 - H13   
     1     24      1 ;     C1 - H14   
     2     14      1 ;     C2 - H4    
     2     15      1 ;     C2 - H5    
     2     16      1 ;     C2 - H6    
     3     11      1 ;     C3 - H1    
     3     12      1 ;     C3 - H2    
     3     13      1 ;     C3 - H3    
     4     10      1 ;     C4 - O2    
     4     20      1 ;     C4 - H10   
     4     21      1 ;     C4 - H11   
     4     22      1 ;     C4 - H12   
     4     23      1 ;     C4 - H13   
     4     24      1 ;     C4 - H14   
     5     10      1 ;     C5 - O2    
     5     17      1 ;     C5 - H7    
     5     18      1 ;     C5 - H8    
     5     19      1 ;     C5 - H9    
     5     23      1 ;     C5 - H13   
     5     24      1 ;     C5 - H14   
     6     17      1 ;     C6 - H7    
     6     18      1 ;     C6 - H8    
     6     19      1 ;     C6 - H9    
     6     20      1 ;     C6 - H10   
     6     21      1 ;     C6 - H11   
     6     22      1 ;     C6 - H12   
     7      6      1 ;     C7 - C6    
     9      2      1 ;     O1 - C2    
     9      3      1 ;     O1 - C3    
     9      6      1 ;     O1 - C6    
     9     25      1 ;     O1 - H15   
    10      2      1 ;     O2 - C2    
    10      3      1 ;     O2 - C3    
    10     25      1 ;     O2 - H15   
    10     26      1 ;     O2 - H16   
    11     25      1 ;     H1 - H15   
    12     25      1 ;     H2 - H15   
    13     25      1 ;     H3 - H15   
    14     25      1 ;     H4 - H15   
    15     25      1 ;     H5 - H15   
    16     25      1 ;     H6 - H15   
    17     26      1 ;     H7 - H16   
    18     26      1 ;     H8 - H16   
    19     26      1 ;     H9 - H16   
    20     26      1 ;    H10 - H16   
    21     26      1 ;    H11 - H16   
    22     26      1 ;    H12 - H16   
    23     26      1 ;    H13 - H16   
    24     26      1 ;    H14 - H16   

[ angles ]
;   ai     aj     ak    funct   theta         cth
     1      7      2      1    1.1143e+02    5.0509e+02 ;     C1 - C7     - C2    
     1      7      3      1    1.1143e+02    5.0509e+02 ;     C1 - C7     - C3    
     1      7     25      1    1.0895e+02    3.6510e+02 ;     C1 - C7     - H15   
     1     10      6      1    1.1582e+02    7.4835e+02 ;     C1 - O2     - C6    
     2      7      3      1    1.1263e+02    5.0099e+02 ;     C2 - C7     - C3    
     2      7     25      1    1.0968e+02    3.6208e+02 ;     C2 - C7     - H15   
     3      7     25      1    1.0968e+02    3.6208e+02 ;     C3 - C7     - H15   
     4      8      5      1    1.1263e+02    5.0099e+02 ;     C4 - C8     - C5    
     4      8      6      1    1.1263e+02    5.0099e+02 ;     C4 - C8     - C6    
     4      8     26      1    1.0968e+02    3.6208e+02 ;     C4 - C8     - H16   
     5      8      6      1    1.1263e+02    5.0099e+02 ;     C5 - C8     - C6    
     5      8     26      1    1.0968e+02    3.6208e+02 ;     C5 - C8     - H16   
     6      8     26      1    1.0968e+02    3.6208e+02 ;     C6 - C8     - H16   
     7      1      9      1    1.2290e+02    6.3973e+02 ;     C7 - C1     - O1    
     7      1     10      1    1.1080e+02    6.5245e+02 ;     C7 - C1     - O2    
     7      2     11      1    1.0968e+02    3.6208e+02 ;     C7 - C2     - H1    
     7      2     12      1    1.0968e+02    3.6208e+02 ;     C7 - C2     - H2    
     7      2     13      1    1.0968e+02    3.6208e+02 ;     C7 - C2     - H3    
     7      3     14      1    1.0968e+02    3.6208e+02 ;     C7 - C3     - H4    
     7      3     15      1    1.0968e+02    3.6208e+02 ;     C7 - C3     - H5    
     7      3     16      1    1.0968e+02    3.6208e+02 ;     C7 - C3     - H6    
     8      4     17      1    1.0968e+02    3.6208e+02 ;     C8 - C4     - H7    
     8      4     18      1    1.0968e+02    3.6208e+02 ;     C8 - C4     - H8    
     8      4     19      1    1.0968e+02    3.6208e+02 ;     C8 - C4     - H9    
     8      5     20      1    1.0968e+02    3.6208e+02 ;     C8 - C5     - H10   
     8      5     21      1    1.0968e+02    3.6208e+02 ;     C8 - C5     - H11   
     8      5     22      1    1.0968e+02    3.6208e+02 ;     C8 - C5     - H12   
     8      6     10      1    1.0762e+02    6.4802e+02 ;     C8 - C6     - O2    
     8      6     23      1    1.0959e+02    3.6217e+02 ;     C8 - C6     - H13   
     8      6     24      1    1.0959e+02    3.6217e+02 ;     C8 - C6     - H14   
     9      1     10      1    1.2320e+02    8.4734e+02 ;     O1 - C1     - O2    
    10      6     23      1    1.1034e+02    4.7028e+02 ;     O2 - C6     - H13   
    10      6     24      1    1.1034e+02    4.7028e+02 ;     O2 - C6     - H14   
    11      2     12      1    1.0773e+02    2.9957e+02 ;     H1 - C2     - H2    
    11      2     13      1    1.0773e+02    2.9957e+02 ;     H1 - C2     - H3    
    12      2     13      1    1.0773e+02    2.9957e+02 ;     H2 - C2     - H3    
    14      3     15      1    1.0773e+02    2.9957e+02 ;     H4 - C3     - H5    
    14      3     16      1    1.0773e+02    2.9957e+02 ;     H4 - C3     - H6    
    15      3     16      1    1.0773e+02    2.9957e+02 ;     H5 - C3     - H6    
    17      4     18      1    1.0773e+02    2.9957e+02 ;     H7 - C4     - H8    
    17      4     19      1    1.0773e+02    2.9957e+02 ;     H7 - C4     - H9    
    18      4     19      1    1.0773e+02    2.9957e+02 ;     H8 - C4     - H9    
    20      5     21      1    1.0773e+02    2.9957e+02 ;    H10 - C5     - H11   
    20      5     22      1    1.0773e+02    2.9957e+02 ;    H10 - C5     - H12   
    21      5     22      1    1.0773e+02    2.9957e+02 ;    H11 - C5     - H12   
    23      6     24      1    1.0855e+02    2.9824e+02 ;    H13 - C6     - H14   

[ dihedrals ] ; propers
; for gromacs 4.5 or higher, using funct 9
;    i      j      k      l   func   phase     kd      pn
     1      7      2     11      9     0.00   0.65084   3 ;     C1-    C7-    C2-    H1
     1      7      2     12      9     0.00   0.65084   3 ;     C1-    C7-    C2-    H2
     1      7      2     13      9     0.00   0.65084   3 ;     C1-    C7-    C2-    H3
     1      7      3     14      9     0.00   0.65084   3 ;     C1-    C7-    C3-    H4
     1      7      3     15      9     0.00   0.65084   3 ;     C1-    C7-    C3-    H5
     1      7      3     16      9     0.00   0.65084   3 ;     C1-    C7-    C3-    H6
     1     10      6      8      9     0.00   1.60247   3 ;     C1-    O2-    C6-    C8
     1     10      6      8      9   180.00   3.34720   1 ;     C1-    O2-    C6-    C8
     1     10      6     23      9     0.00   1.60387   3 ;     C1-    O2-    C6-   H13
     1     10      6     24      9     0.00   1.60387   3 ;     C1-    O2-    C6-   H14
     2      7      3     14      9     0.00   0.54392   3 ;     C2-    C7-    C3-    H4
     2      7      3     15      9     0.00   0.54392   3 ;     C2-    C7-    C3-    H5
     2      7      3     16      9     0.00   0.54392   3 ;     C2-    C7-    C3-    H6
     3      7      2     11      9     0.00   0.54392   3 ;     C3-    C7-    C2-    H1
     3      7      2     12      9     0.00   0.54392   3 ;     C3-    C7-    C2-    H2
     3      7      2     13      9     0.00   0.54392   3 ;     C3-    C7-    C2-    H3
     4      8      5     20      9     0.00   0.54392   3 ;     C4-    C8-    C5-   H10
     4      8      5     21      9     0.00   0.54392   3 ;     C4-    C8-    C5-   H11
     4      8      5     22      9     0.00   0.54392   3 ;     C4-    C8-    C5-   H12
     4      8      6     10      9     0.00   0.65084   3 ;     C4-    C8-    C6-    O2
     4      8      6     23      9     0.00   0.65084   3 ;     C4-    C8-    C6-   H13
     4      8      6     24      9     0.00   0.65084   3 ;     C4-    C8-    C6-   H14
     5      8      4     17      9     0.00   0.54392   3 ;     C5-    C8-    C4-    H7
     5      8      4     18      9     0.00   0.54392   3 ;     C5-    C8-    C4-    H8
     5      8      4     19      9     0.00   0.54392   3 ;     C5-    C8-    C4-    H9
     5      8      6     10      9     0.00   0.65084   3 ;     C5-    C8-    C6-    O2
     5      8      6     23      9     0.00   0.65084   3 ;     C5-    C8-    C6-   H13
     5      8      6     24      9     0.00   0.65084   3 ;     C5-    C8-    C6-   H14
     6      8      4     17      9     0.00   0.54392   3 ;     C6-    C8-    C4-    H7
     6      8      4     18      9     0.00   0.54392   3 ;     C6-    C8-    C4-    H8
     6      8      4     19      9     0.00   0.54392   3 ;     C6-    C8-    C4-    H9
     6      8      5     20      9     0.00   0.54392   3 ;     C6-    C8-    C5-   H10
     6      8      5     21      9     0.00   0.54392   3 ;     C6-    C8-    C5-   H11
     6      8      5     22      9     0.00   0.54392   3 ;     C6-    C8-    C5-   H12
     7      1     10      6      9     0.00   3.13800   3 ;     C7-    C1-    O2-    C6
     7      1     10      6      9   180.00   7.90776   1 ;     C7-    C1-    O2-    C6
     7      1     10      6      9   180.00  13.76536   2 ;     C7-    C1-    O2-    C6
     9      1      7      2      9     0.00   2.84512   1 ;     O1-    C1-    C7-    C2
     9      1      7      2      9   180.00   0.83680   2 ;     O1-    C1-    C7-    C2
     9      1      7      2      9   180.00   1.84096   3 ;     O1-    C1-    C7-    C2
     9      1      7      3      9     0.00   2.84512   1 ;     O1-    C1-    C7-    C3
     9      1      7      3      9   180.00   0.83680   2 ;     O1-    C1-    C7-    C3
     9      1      7      3      9   180.00   1.84096   3 ;     O1-    C1-    C7-    C3
     9      1      7     25      9     0.00  16.86152   1 ;     O1-    C1-    C7-   H15
     9      1      7     25      9   180.00  15.31344   2 ;     O1-    C1-    C7-   H15
     9      1     10      6      9   180.00   5.85760   1 ;     O1-    C1-    O2-    C6
     9      1     10      6      9   180.00  11.29680   2 ;     O1-    C1-    O2-    C6
    10      1      7      2      9   180.00   0.00000   2 ;     O2-    C1-    C7-    C2
    10      1      7      3      9   180.00   0.00000   2 ;     O2-    C1-    C7-    C3
    10      1      7     25      9   180.00   0.00000   2 ;     O2-    C1-    C7-   H15
    10      6      8     26      9     0.00   0.00000   0 ;     O2-    C6-    C8-   H16
    10      6      8     26      9     0.00   1.04600   1 ;     O2-    C6-    C8-   H16
    11      2      7     25      9     0.00   0.50208   3 ;     H1-    C2-    C7-   H15
    12      2      7     25      9     0.00   0.50208   3 ;     H2-    C2-    C7-   H15
    13      2      7     25      9     0.00   0.50208   3 ;     H3-    C2-    C7-   H15
    14      3      7     25      9     0.00   0.50208   3 ;     H4-    C3-    C7-   H15
    15      3      7     25      9     0.00   0.50208   3 ;     H5-    C3-    C7-   H15
    16      3      7     25      9     0.00   0.50208   3 ;     H6-    C3-    C7-   H15
    17      4      8     26      9     0.00   0.50208   3 ;     H7-    C4-    C8-   H16
    18      4      8     26      9     0.00   0.50208   3 ;     H8-    C4-    C8-   H16
    19      4      8     26      9     0.00   0.50208   3 ;     H9-    C4-    C8-   H16
    20      5      8     26      9     0.00   0.50208   3 ;    H10-    C5-    C8-   H16
    21      5      8     26      9     0.00   0.50208   3 ;    H11-    C5-    C8-   H16
    22      5      8     26      9     0.00   0.50208   3 ;    H12-    C5-    C8-   H16
    23      6      8     26      9     0.00   0.65084   3 ;    H13-    C6-    C8-   H16
    24      6      8     26      9     0.00   0.65084   3 ;    H14-    C6-    C8-   H16

[ dihedrals ] ; impropers
; treated as propers in GROMACS to use correct AMBER analytical function
;    i      j      k      l   func   phase     kd      pn
    10      1      9      7      4   180.00   4.60240   2 ;     O2-    C1-    O1-    C7
