; mobley_1139153_GMX.itp created by acpype (v: 2023.10.27) on Thu May 21 00:07:06 2026

[ atomtypes ]
;name   bond_type     mass     charge   ptype   sigma         epsilon       Amb
 c3       c3          0.00000  0.00000   A     3.39771e-01   4.51035e-01 ; 1.91  0.1078
 hc       hc          0.00000  0.00000   A     2.60018e-01   8.70272e-02 ; 1.46  0.0208

[ moleculetype ]
;name            nrexcl
 mobley_1139153   3

[ atoms ]
;   nr  type  resi  res  atom  cgnr     charge      mass       ; qtot   bond_type
     1   c3     1   MOL    C1    1    -0.090100     12.01000 ; qtot -0.090
     2   c3     1   MOL    C2    2    -0.090100     12.01000 ; qtot -0.180
     3   c3     1   MOL    C3    3    -0.086767     12.01000 ; qtot -0.267
     4   c3     1   MOL    C4    4    -0.086767     12.01000 ; qtot -0.354
     5   c3     1   MOL    C5    5    -0.086767     12.01000 ; qtot -0.441
     6   c3     1   MOL    C6    6    -0.066400     12.01000 ; qtot -0.507
     7   c3     1   MOL    C7    7    -0.065700     12.01000 ; qtot -0.573
     8   c3     1   MOL    C8    8    -0.052000     12.01000 ; qtot -0.625
     9   hc     1   MOL    H1    9     0.032700      1.00800 ; qtot -0.592
    10   hc     1   MOL    H2   10     0.032700      1.00800 ; qtot -0.559
    11   hc     1   MOL    H3   11     0.032700      1.00800 ; qtot -0.527
    12   hc     1   MOL    H4   12     0.032700      1.00800 ; qtot -0.494
    13   hc     1   MOL    H5   13     0.032700      1.00800 ; qtot -0.461
    14   hc     1   MOL    H6   14     0.032700      1.00800 ; qtot -0.428
    15   hc     1   MOL    H7   15     0.033589      1.00800 ; qtot -0.395
    16   hc     1   MOL    H8   16     0.033589      1.00800 ; qtot -0.361
    17   hc     1   MOL    H9   17     0.033589      1.00800 ; qtot -0.328
    18   hc     1   MOL   H10   18     0.033589      1.00800 ; qtot -0.294
    19   hc     1   MOL   H11   19     0.033589      1.00800 ; qtot -0.260
    20   hc     1   MOL   H12   20     0.033589      1.00800 ; qtot -0.227
    21   hc     1   MOL   H13   21     0.033589      1.00800 ; qtot -0.193
    22   hc     1   MOL   H14   22     0.033589      1.00800 ; qtot -0.160
    23   hc     1   MOL   H15   23     0.033589      1.00800 ; qtot -0.126
    24   hc     1   MOL   H16   24     0.038700      1.00800 ; qtot -0.087
    25   hc     1   MOL   H17   25     0.038700      1.00800 ; qtot -0.049
    26   hc     1   MOL   H18   26     0.048700      1.00800 ; qtot 0.000

[ bonds ]
;   ai     aj funct   r             k
     1      7   1    1.5354e-01    1.9154e+05 ;     C1 - C7    
     1      9   1    1.0962e-01    2.8891e+05 ;     C1 - H1    
     1     10   1    1.0962e-01    2.8891e+05 ;     C1 - H2    
     1     11   1    1.0962e-01    2.8891e+05 ;     C1 - H3    
     2      7   1    1.5354e-01    1.9154e+05 ;     C2 - C7    
     2     12   1    1.0962e-01    2.8891e+05 ;     C2 - H4    
     2     13   1    1.0962e-01    2.8891e+05 ;     C2 - H5    
     2     14   1    1.0962e-01    2.8891e+05 ;     C2 - H6    
     3      8   1    1.5354e-01    1.9154e+05 ;     C3 - C8    
     3     15   1    1.0962e-01    2.8891e+05 ;     C3 - H7    
     3     16   1    1.0962e-01    2.8891e+05 ;     C3 - H8    
     3     17   1    1.0962e-01    2.8891e+05 ;     C3 - H9    
     4      8   1    1.5354e-01    1.9154e+05 ;     C4 - C8    
     4     18   1    1.0962e-01    2.8891e+05 ;     C4 - H10   
     4     19   1    1.0962e-01    2.8891e+05 ;     C4 - H11   
     4     20   1    1.0962e-01    2.8891e+05 ;     C4 - H12   
     5      8   1    1.5354e-01    1.9154e+05 ;     C5 - C8    
     5     21   1    1.0962e-01    2.8891e+05 ;     C5 - H13   
     5     22   1    1.0962e-01    2.8891e+05 ;     C5 - H14   
     5     23   1    1.0962e-01    2.8891e+05 ;     C5 - H15   
     6      7   1    1.5354e-01    1.9154e+05 ;     C6 - C7    
     6      8   1    1.5354e-01    1.9154e+05 ;     C6 - C8    
     6     24   1    1.0962e-01    2.8891e+05 ;     C6 - H16   
     6     25   1    1.0962e-01    2.8891e+05 ;     C6 - H17   
     7     26   1    1.0962e-01    2.8891e+05 ;     C7 - H18   

[ pairs ]
;   ai     aj    funct
     1      8      1 ;     C1 - C8    
     1     12      1 ;     C1 - H4    
     1     13      1 ;     C1 - H5    
     1     14      1 ;     C1 - H6    
     1     24      1 ;     C1 - H16   
     1     25      1 ;     C1 - H17   
     2      8      1 ;     C2 - C8    
     2     24      1 ;     C2 - H16   
     2     25      1 ;     C2 - H17   
     3      7      1 ;     C3 - C7    
     3     18      1 ;     C3 - H10   
     3     19      1 ;     C3 - H11   
     3     20      1 ;     C3 - H12   
     3     21      1 ;     C3 - H13   
     3     22      1 ;     C3 - H14   
     3     23      1 ;     C3 - H15   
     3     24      1 ;     C3 - H16   
     3     25      1 ;     C3 - H17   
     4      7      1 ;     C4 - C7    
     4     15      1 ;     C4 - H7    
     4     16      1 ;     C4 - H8    
     4     17      1 ;     C4 - H9    
     4     21      1 ;     C4 - H13   
     4     22      1 ;     C4 - H14   
     4     23      1 ;     C4 - H15   
     4     24      1 ;     C4 - H16   
     4     25      1 ;     C4 - H17   
     5      7      1 ;     C5 - C7    
     5     15      1 ;     C5 - H7    
     5     16      1 ;     C5 - H8    
     5     17      1 ;     C5 - H9    
     5     18      1 ;     C5 - H10   
     5     19      1 ;     C5 - H11   
     5     20      1 ;     C5 - H12   
     5     24      1 ;     C5 - H16   
     5     25      1 ;     C5 - H17   
     6     12      1 ;     C6 - H4    
     6     13      1 ;     C6 - H5    
     6     14      1 ;     C6 - H6    
     6     15      1 ;     C6 - H7    
     6     16      1 ;     C6 - H8    
     6     17      1 ;     C6 - H9    
     6     18      1 ;     C6 - H10   
     6     19      1 ;     C6 - H11   
     6     20      1 ;     C6 - H12   
     6     21      1 ;     C6 - H13   
     6     22      1 ;     C6 - H14   
     6     23      1 ;     C6 - H15   
     8     26      1 ;     C8 - H18   
     9      2      1 ;     H1 - C2    
     9      6      1 ;     H1 - C6    
     9     26      1 ;     H1 - H18   
    10      2      1 ;     H2 - C2    
    10      6      1 ;     H2 - C6    
    10     26      1 ;     H2 - H18   
    11      2      1 ;     H3 - C2    
    11      6      1 ;     H3 - C6    
    11     26      1 ;     H3 - H18   
    12     26      1 ;     H4 - H18   
    13     26      1 ;     H5 - H18   
    14     26      1 ;     H6 - H18   
    24     26      1 ;    H16 - H18   
    25     26      1 ;    H17 - H18   

[ angles ]
;   ai     aj     ak    funct   theta         cth
     1      7      2      1    1.1263e+02    5.0099e+02 ;     C1 - C7     - C2    
     1      7      6      1    1.1263e+02    5.0099e+02 ;     C1 - C7     - C6    
     1      7     26      1    1.0968e+02    3.6208e+02 ;     C1 - C7     - H18   
     2      7      6      1    1.1263e+02    5.0099e+02 ;     C2 - C7     - C6    
     2      7     26      1    1.0968e+02    3.6208e+02 ;     C2 - C7     - H18   
     3      8      4      1    1.1263e+02    5.0099e+02 ;     C3 - C8     - C4    
     3      8      5      1    1.1263e+02    5.0099e+02 ;     C3 - C8     - C5    
     3      8      6      1    1.1263e+02    5.0099e+02 ;     C3 - C8     - C6    
     4      8      5      1    1.1263e+02    5.0099e+02 ;     C4 - C8     - C5    
     4      8      6      1    1.1263e+02    5.0099e+02 ;     C4 - C8     - C6    
     5      8      6      1    1.1263e+02    5.0099e+02 ;     C5 - C8     - C6    
     6      7     26      1    1.0968e+02    3.6208e+02 ;     C6 - C7     - H18   
     7      1      9      1    1.0968e+02    3.6208e+02 ;     C7 - C1     - H1    
     7      1     10      1    1.0968e+02    3.6208e+02 ;     C7 - C1     - H2    
     7      1     11      1    1.0968e+02    3.6208e+02 ;     C7 - C1     - H3    
     7      2     12      1    1.0968e+02    3.6208e+02 ;     C7 - C2     - H4    
     7      2     13      1    1.0968e+02    3.6208e+02 ;     C7 - C2     - H5    
     7      2     14      1    1.0968e+02    3.6208e+02 ;     C7 - C2     - H6    
     7      6      8      1    1.1263e+02    5.0099e+02 ;     C7 - C6     - C8    
     7      6     24      1    1.0968e+02    3.6208e+02 ;     C7 - C6     - H16   
     7      6     25      1    1.0968e+02    3.6208e+02 ;     C7 - C6     - H17   
     8      3     15      1    1.0968e+02    3.6208e+02 ;     C8 - C3     - H7    
     8      3     16      1    1.0968e+02    3.6208e+02 ;     C8 - C3     - H8    
     8      3     17      1    1.0968e+02    3.6208e+02 ;     C8 - C3     - H9    
     8      4     18      1    1.0968e+02    3.6208e+02 ;     C8 - C4     - H10   
     8      4     19      1    1.0968e+02    3.6208e+02 ;     C8 - C4     - H11   
     8      4     20      1    1.0968e+02    3.6208e+02 ;     C8 - C4     - H12   
     8      5     21      1    1.0968e+02    3.6208e+02 ;     C8 - C5     - H13   
     8      5     22      1    1.0968e+02    3.6208e+02 ;     C8 - C5     - H14   
     8      5     23      1    1.0968e+02    3.6208e+02 ;     C8 - C5     - H15   
     8      6     24      1    1.0968e+02    3.6208e+02 ;     C8 - C6     - H16   
     8      6     25      1    1.0968e+02    3.6208e+02 ;     C8 - C6     - H17   
     9      1     10      1    1.0773e+02    2.9957e+02 ;     H1 - C1     - H2    
     9      1     11      1    1.0773e+02    2.9957e+02 ;     H1 - C1     - H3    
    10      1     11      1    1.0773e+02    2.9957e+02 ;     H2 - C1     - H3    
    12      2     13      1    1.0773e+02    2.9957e+02 ;     H4 - C2     - H5    
    12      2     14      1    1.0773e+02    2.9957e+02 ;     H4 - C2     - H6    
    13      2     14      1    1.0773e+02    2.9957e+02 ;     H5 - C2     - H6    
    15      3     16      1    1.0773e+02    2.9957e+02 ;     H7 - C3     - H8    
    15      3     17      1    1.0773e+02    2.9957e+02 ;     H7 - C3     - H9    
    16      3     17      1    1.0773e+02    2.9957e+02 ;     H8 - C3     - H9    
    18      4     19      1    1.0773e+02    2.9957e+02 ;    H10 - C4     - H11   
    18      4     20      1    1.0773e+02    2.9957e+02 ;    H10 - C4     - H12   
    19      4     20      1    1.0773e+02    2.9957e+02 ;    H11 - C4     - H12   
    21      5     22      1    1.0773e+02    2.9957e+02 ;    H13 - C5     - H14   
    21      5     23      1    1.0773e+02    2.9957e+02 ;    H13 - C5     - H15   
    22      5     23      1    1.0773e+02    2.9957e+02 ;    H14 - C5     - H15   
    24      6     25      1    1.0773e+02    2.9957e+02 ;    H16 - C6     - H17   

[ dihedrals ] ; propers
; for gromacs 4.5 or higher, using funct 9
;    i      j      k      l   func   phase     kd      pn
     1      7      2     12      9     0.00   0.54392   3 ;     C1-    C7-    C2-    H4
     1      7      2     13      9     0.00   0.54392   3 ;     C1-    C7-    C2-    H5
     1      7      2     14      9     0.00   0.54392   3 ;     C1-    C7-    C2-    H6
     1      7      6      8      9     0.00   2.17568   3 ;     C1-    C7-    C6-    C8
     1      7      6     24      9     0.00   0.54392   3 ;     C1-    C7-    C6-   H16
     1      7      6     25      9     0.00   0.54392   3 ;     C1-    C7-    C6-   H17
     2      7      6      8      9     0.00   2.17568   3 ;     C2-    C7-    C6-    C8
     2      7      6     24      9     0.00   0.54392   3 ;     C2-    C7-    C6-   H16
     2      7      6     25      9     0.00   0.54392   3 ;     C2-    C7-    C6-   H17
     3      8      4     18      9     0.00   0.54392   3 ;     C3-    C8-    C4-   H10
     3      8      4     19      9     0.00   0.54392   3 ;     C3-    C8-    C4-   H11
     3      8      4     20      9     0.00   0.54392   3 ;     C3-    C8-    C4-   H12
     3      8      5     21      9     0.00   0.54392   3 ;     C3-    C8-    C5-   H13
     3      8      5     22      9     0.00   0.54392   3 ;     C3-    C8-    C5-   H14
     3      8      5     23      9     0.00   0.54392   3 ;     C3-    C8-    C5-   H15
     3      8      6      7      9     0.00   2.17568   3 ;     C3-    C8-    C6-    C7
     3      8      6     24      9     0.00   0.54392   3 ;     C3-    C8-    C6-   H16
     3      8      6     25      9     0.00   0.54392   3 ;     C3-    C8-    C6-   H17
     4      8      3     15      9     0.00   0.54392   3 ;     C4-    C8-    C3-    H7
     4      8      3     16      9     0.00   0.54392   3 ;     C4-    C8-    C3-    H8
     4      8      3     17      9     0.00   0.54392   3 ;     C4-    C8-    C3-    H9
     4      8      5     21      9     0.00   0.54392   3 ;     C4-    C8-    C5-   H13
     4      8      5     22      9     0.00   0.54392   3 ;     C4-    C8-    C5-   H14
     4      8      5     23      9     0.00   0.54392   3 ;     C4-    C8-    C5-   H15
     4      8      6      7      9     0.00   2.17568   3 ;     C4-    C8-    C6-    C7
     4      8      6     24      9     0.00   0.54392   3 ;     C4-    C8-    C6-   H16
     4      8      6     25      9     0.00   0.54392   3 ;     C4-    C8-    C6-   H17
     5      8      3     15      9     0.00   0.54392   3 ;     C5-    C8-    C3-    H7
     5      8      3     16      9     0.00   0.54392   3 ;     C5-    C8-    C3-    H8
     5      8      3     17      9     0.00   0.54392   3 ;     C5-    C8-    C3-    H9
     5      8      4     18      9     0.00   0.54392   3 ;     C5-    C8-    C4-   H10
     5      8      4     19      9     0.00   0.54392   3 ;     C5-    C8-    C4-   H11
     5      8      4     20      9     0.00   0.54392   3 ;     C5-    C8-    C4-   H12
     5      8      6      7      9     0.00   2.17568   3 ;     C5-    C8-    C6-    C7
     5      8      6     24      9     0.00   0.54392   3 ;     C5-    C8-    C6-   H16
     5      8      6     25      9     0.00   0.54392   3 ;     C5-    C8-    C6-   H17
     6      7      2     12      9     0.00   0.54392   3 ;     C6-    C7-    C2-    H4
     6      7      2     13      9     0.00   0.54392   3 ;     C6-    C7-    C2-    H5
     6      7      2     14      9     0.00   0.54392   3 ;     C6-    C7-    C2-    H6
     6      8      3     15      9     0.00   0.54392   3 ;     C6-    C8-    C3-    H7
     6      8      3     16      9     0.00   0.54392   3 ;     C6-    C8-    C3-    H8
     6      8      3     17      9     0.00   0.54392   3 ;     C6-    C8-    C3-    H9
     6      8      4     18      9     0.00   0.54392   3 ;     C6-    C8-    C4-   H10
     6      8      4     19      9     0.00   0.54392   3 ;     C6-    C8-    C4-   H11
     6      8      4     20      9     0.00   0.54392   3 ;     C6-    C8-    C4-   H12
     6      8      5     21      9     0.00   0.54392   3 ;     C6-    C8-    C5-   H13
     6      8      5     22      9     0.00   0.54392   3 ;     C6-    C8-    C5-   H14
     6      8      5     23      9     0.00   0.54392   3 ;     C6-    C8-    C5-   H15
     8      6      7     26      9     0.00   0.54392   3 ;     C8-    C6-    C7-   H18
     9      1      7      2      9     0.00   0.54392   3 ;     H1-    C1-    C7-    C2
     9      1      7      6      9     0.00   0.54392   3 ;     H1-    C1-    C7-    C6
     9      1      7     26      9     0.00   0.50208   3 ;     H1-    C1-    C7-   H18
    10      1      7      2      9     0.00   0.54392   3 ;     H2-    C1-    C7-    C2
    10      1      7      6      9     0.00   0.54392   3 ;     H2-    C1-    C7-    C6
    10      1      7     26      9     0.00   0.50208   3 ;     H2-    C1-    C7-   H18
    11      1      7      2      9     0.00   0.54392   3 ;     H3-    C1-    C7-    C2
    11      1      7      6      9     0.00   0.54392   3 ;     H3-    C1-    C7-    C6
    11      1      7     26      9     0.00   0.50208   3 ;     H3-    C1-    C7-   H18
    12      2      7     26      9     0.00   0.50208   3 ;     H4-    C2-    C7-   H18
    13      2      7     26      9     0.00   0.50208   3 ;     H5-    C2-    C7-   H18
    14      2      7     26      9     0.00   0.50208   3 ;     H6-    C2-    C7-   H18
    24      6      7     26      9     0.00   0.50208   3 ;    H16-    C6-    C7-   H18
    25      6      7     26      9     0.00   0.50208   3 ;    H17-    C6-    C7-   H18
