; mobley_8311321_GMX.itp created by acpype (v: 2023.10.27) on Thu May 21 00:27:25 2026

[ atomtypes ]
;name   bond_type     mass     charge   ptype   sigma         epsilon       Amb
 c3       c3          0.00000  0.00000   A     3.39771e-01   4.51035e-01 ; 1.91  0.1078
 f        f           0.00000  0.00000   A     3.03422e-01   3.48109e-01 ; 1.70  0.0832
 cl       cl          0.00000  0.00000   A     3.46595e-01   1.10374e+00 ; 1.95  0.2638
 h3       h3          0.00000  0.00000   A     2.06564e-01   8.70272e-02 ; 1.16  0.0208

[ moleculetype ]
;name            nrexcl
 mobley_8311321   3

[ atoms ]
;   nr  type  resi  res  atom  cgnr     charge      mass       ; qtot   bond_type
     1   c3     1   MOL    C1    1     0.511300     12.01000 ; qtot 0.511
     2    f     1   MOL    F1    2    -0.213300     19.00000 ; qtot 0.298
     3    f     1   MOL    F2    3    -0.213300     19.00000 ; qtot 0.085
     4   cl     1   MOL   CL1    4    -0.191400     35.45000 ; qtot -0.107
     5   h3     1   MOL    H1    5     0.106700      1.00800 ; qtot 0.000

[ bonds ]
;   ai     aj funct   r             k
     1      2   1    1.3512e-01    2.7973e+05 ;     C1 - F1    
     1      3   1    1.3512e-01    2.7973e+05 ;     C1 - F2    
     1      4   1    1.8092e-01    1.3724e+05 ;     C1 - CL1   
     1      5   1    1.0938e-01    2.9188e+05 ;     C1 - H1    

[ angles ]
;   ai     aj     ak    funct   theta         cth
     2      1      3      1    1.0737e+02    8.9437e+02 ;     F1 - C1     - F2    
     2      1      4      1    1.0914e+02    6.8216e+02 ;     F1 - C1     - CL1   
     2      1      5      1    1.1013e+02    4.9806e+02 ;     F1 - C1     - H1    
     3      1      4      1    1.0914e+02    6.8216e+02 ;     F2 - C1     - CL1   
     3      1      5      1    1.1013e+02    4.9806e+02 ;     F2 - C1     - H1    
     4      1      5      1    1.0765e+02    3.6033e+02 ;    CL1 - C1     - H1    
