; mobley_6688723_GMX.top created by acpype (v: 2023.10.27) on Thu May 21 00:26:56 2026

[ defaults ]
; nbfunc        comb-rule       gen-pairs       fudgeLJ fudgeQQ
1               2               yes             0.5     0.8333333333

; Include mobley_6688723_GMX.itp topology
#include "mobley_6688723_GMX.itp"

; Ligand position restraints
#ifdef POSRES_LIG
#include "posre_mobley_6688723.itp"
#endif


#include "/home/carla/github/Solvation-openMM/DADES/common/SOL.TIP3P.itp"

[ system ]
mobley_6688723 in water

[ molecules ]
; Compound        nmols
 mobley_6688723   1     
SOL 786
