; mobley_3259411_GMX.itp created by acpype (v: 2023.10.27) on Thu May 21 00:26:58 2026

[ atomtypes ]
;name   bond_type     mass     charge   ptype   sigma         epsilon       Amb
 c3       c3          0.00000  0.00000   A     3.39771e-01   4.51035e-01 ; 1.91  0.1078
 oh       oh          0.00000  0.00000   A     3.24287e-01   3.89112e-01 ; 1.82  0.0930
 h1       h1          0.00000  0.00000   A     2.42200e-01   8.70272e-02 ; 1.36  0.0208
 ho       ho          0.00000  0.00000   A     5.37925e-02   1.96648e-02 ; 0.30  0.0047

[ moleculetype ]
;name            nrexcl
 mobley_3259411   3

[ atoms ]
;   nr  type  resi  res  atom  cgnr     charge      mass       ; qtot   bond_type
     1   c3     1   MOL    C1    1     0.110900     12.01000 ; qtot 0.111
     2   c3     1   MOL    C2    2     0.110900     12.01000 ; qtot 0.222
     3   c3     1   MOL    C3    3     0.143100     12.01000 ; qtot 0.365
     4   oh     1   MOL    O1    4    -0.611300     16.00000 ; qtot -0.246
     5   oh     1   MOL    O2    5    -0.611300     16.00000 ; qtot -0.858
     6   oh     1   MOL    O3    6    -0.605800     16.00000 ; qtot -1.463
     7   h1     1   MOL    H1    7     0.040950      1.00800 ; qtot -1.423
     8   h1     1   MOL    H2    8     0.040950      1.00800 ; qtot -1.382
     9   h1     1   MOL    H3    9     0.040950      1.00800 ; qtot -1.341
    10   h1     1   MOL    H4   10     0.040950      1.00800 ; qtot -1.300
    11   h1     1   MOL    H5   11     0.062700      1.00800 ; qtot -1.237
    12   ho     1   MOL    H6   12     0.407000      1.00800 ; qtot -0.830
    13   ho     1   MOL    H7   13     0.407000      1.00800 ; qtot -0.423
    14   ho     1   MOL    H8   14     0.423000      1.00800 ; qtot 0.000

[ bonds ]
;   ai     aj funct   r             k
     1      3   1    1.5354e-01    1.9154e+05 ;     C1 - C3    
     1      4   1    1.4242e-01    2.3861e+05 ;     C1 - O1    
     1      7   1    1.0969e-01    2.8804e+05 ;     C1 - H1    
     1      8   1    1.0969e-01    2.8804e+05 ;     C1 - H2    
     2      3   1    1.5354e-01    1.9154e+05 ;     C2 - C3    
     2      5   1    1.4242e-01    2.3861e+05 ;     C2 - O2    
     2      9   1    1.0969e-01    2.8804e+05 ;     C2 - H3    
     2     10   1    1.0969e-01    2.8804e+05 ;     C2 - H4    
     3      6   1    1.4242e-01    2.3861e+05 ;     C3 - O3    
     3     11   1    1.0969e-01    2.8804e+05 ;     C3 - H5    
     4     12   1    9.7250e-02    4.4811e+05 ;     O1 - H6    
     5     13   1    9.7250e-02    4.4811e+05 ;     O2 - H7    
     6     14   1    9.7250e-02    4.4811e+05 ;     O3 - H8    

[ pairs ]
;   ai     aj    funct
     1      5      1 ;     C1 - O2    
     1      9      1 ;     C1 - H3    
     1     10      1 ;     C1 - H4    
     1     14      1 ;     C1 - H8    
     2     14      1 ;     C2 - H8    
     3     12      1 ;     C3 - H6    
     3     13      1 ;     C3 - H7    
     4      2      1 ;     O1 - C2    
     4      6      1 ;     O1 - O3    
     4     11      1 ;     O1 - H5    
     5      6      1 ;     O2 - O3    
     5     11      1 ;     O2 - H5    
     6      9      1 ;     O3 - H3    
     6     10      1 ;     O3 - H4    
     7      2      1 ;     H1 - C2    
     7      6      1 ;     H1 - O3    
     7     11      1 ;     H1 - H5    
     7     12      1 ;     H1 - H6    
     8      2      1 ;     H2 - C2    
     8      6      1 ;     H2 - O3    
     8     11      1 ;     H2 - H5    
     8     12      1 ;     H2 - H6    
     9     11      1 ;     H3 - H5    
     9     13      1 ;     H3 - H7    
    10     11      1 ;     H4 - H5    
    10     13      1 ;     H4 - H7    
    11     14      1 ;     H5 - H8    

[ angles ]
;   ai     aj     ak    funct   theta         cth
     1      3      2      1    1.1263e+02    5.0099e+02 ;     C1 - C3     - C2    
     1      3      6      1    1.0966e+02    6.4258e+02 ;     C1 - C3     - O3    
     1      3     11      1    1.0959e+02    3.6217e+02 ;     C1 - C3     - H5    
     1      4     12      1    1.0739e+02    5.4501e+02 ;     C1 - O1     - H6    
     2      3      6      1    1.0966e+02    6.4258e+02 ;     C2 - C3     - O3    
     2      3     11      1    1.0959e+02    3.6217e+02 ;     C2 - C3     - H5    
     2      5     13      1    1.0739e+02    5.4501e+02 ;     C2 - O2     - H7    
     3      1      4      1    1.0966e+02    6.4258e+02 ;     C3 - C1     - O1    
     3      1      7      1    1.0959e+02    3.6217e+02 ;     C3 - C1     - H1    
     3      1      8      1    1.0959e+02    3.6217e+02 ;     C3 - C1     - H2    
     3      2      5      1    1.0966e+02    6.4258e+02 ;     C3 - C2     - O2    
     3      2      9      1    1.0959e+02    3.6217e+02 ;     C3 - C2     - H3    
     3      2     10      1    1.0959e+02    3.6217e+02 ;     C3 - C2     - H4    
     3      6     14      1    1.0739e+02    5.4501e+02 ;     C3 - O3     - H8    
     4      1      7      1    1.1038e+02    4.7103e+02 ;     O1 - C1     - H1    
     4      1      8      1    1.1038e+02    4.7103e+02 ;     O1 - C1     - H2    
     5      2      9      1    1.1038e+02    4.7103e+02 ;     O2 - C2     - H3    
     5      2     10      1    1.1038e+02    4.7103e+02 ;     O2 - C2     - H4    
     6      3     11      1    1.1038e+02    4.7103e+02 ;     O3 - C3     - H5    
     7      1      8      1    1.0855e+02    2.9824e+02 ;     H1 - C1     - H2    
     9      2     10      1    1.0855e+02    2.9824e+02 ;     H3 - C2     - H4    

[ dihedrals ] ; propers
; for gromacs 4.5 or higher, using funct 9
;    i      j      k      l   func   phase     kd      pn
     1      3      2      5      9     0.00   0.75312   3 ;     C1-    C3-    C2-    O2
     1      3      2      9      9     0.00   0.65084   3 ;     C1-    C3-    C2-    H3
     1      3      2     10      9     0.00   0.65084   3 ;     C1-    C3-    C2-    H4
     1      3      6     14      9     0.00   0.25104   3 ;     C1-    C3-    O3-    H8
     2      3      6     14      9     0.00   0.25104   3 ;     C2-    C3-    O3-    H8
     3      1      4     12      9     0.00   0.25104   3 ;     C3-    C1-    O1-    H6
     3      2      5     13      9     0.00   0.25104   3 ;     C3-    C2-    O2-    H7
     4      1      3      2      9     0.00   0.75312   3 ;     O1-    C1-    C3-    C2
     4      1      3      6      9     0.00   4.18400   1 ;     O1-    C1-    C3-    O3
     4      1      3      6      9     0.00   6.02496   3 ;     O1-    C1-    C3-    O3
     4      1      3     11      9     0.00   0.00000   0 ;     O1-    C1-    C3-    H5
     4      1      3     11      9     0.00   1.04600   1 ;     O1-    C1-    C3-    H5
     5      2      3      6      9     0.00   4.18400   1 ;     O2-    C2-    C3-    O3
     5      2      3      6      9     0.00   6.02496   3 ;     O2-    C2-    C3-    O3
     5      2      3     11      9     0.00   0.00000   0 ;     O2-    C2-    C3-    H5
     5      2      3     11      9     0.00   1.04600   1 ;     O2-    C2-    C3-    H5
     6      3      2      9      9     0.00   0.00000   0 ;     O3-    C3-    C2-    H3
     6      3      2      9      9     0.00   1.04600   1 ;     O3-    C3-    C2-    H3
     6      3      2     10      9     0.00   0.00000   0 ;     O3-    C3-    C2-    H4
     6      3      2     10      9     0.00   1.04600   1 ;     O3-    C3-    C2-    H4
     7      1      3      2      9     0.00   0.65084   3 ;     H1-    C1-    C3-    C2
     7      1      3      6      9     0.00   0.00000   0 ;     H1-    C1-    C3-    O3
     7      1      3      6      9     0.00   1.04600   1 ;     H1-    C1-    C3-    O3
     7      1      3     11      9     0.00   0.65084   3 ;     H1-    C1-    C3-    H5
     7      1      4     12      9     0.00   0.51463   3 ;     H1-    C1-    O1-    H6
     8      1      3      2      9     0.00   0.65084   3 ;     H2-    C1-    C3-    C2
     8      1      3      6      9     0.00   0.00000   0 ;     H2-    C1-    C3-    O3
     8      1      3      6      9     0.00   1.04600   1 ;     H2-    C1-    C3-    O3
     8      1      3     11      9     0.00   0.65084   3 ;     H2-    C1-    C3-    H5
     8      1      4     12      9     0.00   0.51463   3 ;     H2-    C1-    O1-    H6
     9      2      3     11      9     0.00   0.65084   3 ;     H3-    C2-    C3-    H5
     9      2      5     13      9     0.00   0.51463   3 ;     H3-    C2-    O2-    H7
    10      2      3     11      9     0.00   0.65084   3 ;     H4-    C2-    C3-    H5
    10      2      5     13      9     0.00   0.51463   3 ;     H4-    C2-    O2-    H7
    11      3      6     14      9     0.00   0.51463   3 ;     H5-    C3-    O3-    H8
