mobley_6571751_GMX.gro created by acpype (v: 2023.10.27) on Tue May 19 12:56:29 2026
 2410
    1MOL     C1    1   2.347   2.238   2.401
    1MOL     C2    2   2.392   2.321   2.305
    1MOL     C3    3   2.206   2.185   2.406
    1MOL     C4    4   2.303   2.367   2.192
    1MOL     C5    5   2.110   2.261   2.314
    1MOL     C6    6   2.174   2.286   2.178
    1MOL     C7    7   2.532   2.374   2.305
    1MOL     H1    8   2.414   2.205   2.479
    1MOL     H2    9   2.208   2.079   2.379
    1MOL     H3   10   2.169   2.192   2.509
    1MOL     H4   11   2.279   2.473   2.208
    1MOL     H5   12   2.358   2.361   2.097
    1MOL     H6   13   2.018   2.203   2.302
    1MOL     H7   14   2.082   2.356   2.360
    1MOL     H8   15   2.104   2.340   2.113
    1MOL     H9   16   2.196   2.190   2.129
    1MOL    H10   17   2.586   2.332   2.390
    1MOL    H11   18   2.530   2.482   2.313
    1MOL    H12   19   2.582   2.345   2.213
   14SOL     OW   20   1.460   1.505   1.339
   14SOL    HW1   21   1.484   1.599   1.365
   14SOL    HW2   22   1.444   1.451   1.421
   18SOL     OW   23   1.127   1.341   1.690
   18SOL    HW1   24   1.174   1.341   1.778
   18SOL    HW2   25   1.079   1.254   1.679
   31SOL     OW   26   1.293   1.228   1.423
   31SOL    HW1   27   1.330   1.155   1.365
   31SOL    HW2   28   1.345   1.233   1.508
   35SOL     OW   29   1.187   1.792   1.616
   35SOL    HW1   30   1.211   1.852   1.540
   35SOL    HW2   31   1.194   1.697   1.586
   56SOL     OW   32   1.227   1.550   1.506
   56SOL    HW1   33   1.233   1.473   1.570
   56SOL    HW2   34   1.175   1.524   1.426
   95SOL     OW   35   1.754   1.223   1.588
   95SOL    HW1   36   1.845   1.184   1.575
   95SOL    HW2   37   1.762   1.319   1.612
   97SOL     OW   38   1.592   1.629   1.625
   97SOL    HW1   39   1.619   1.663   1.535
   97SOL    HW2   40   1.671   1.591   1.671
  109SOL     OW   41   1.272   1.445   1.142
  109SOL    HW1   42   1.319   1.458   1.229
  109SOL    HW2   43   1.206   1.371   1.151
  113SOL     OW   44   1.587   0.779   1.670
  113SOL    HW1   45   1.495   0.817   1.665
  113SOL    HW2   46   1.647   0.826   1.605
  122SOL     OW   47   1.728   0.935   1.854
  122SOL    HW1   48   1.682   0.928   1.765
  122SOL    HW2   49   1.666   0.979   1.920
  126SOL     OW   50   0.980   1.573   1.700
  126SOL    HW1   51   0.960   1.617   1.612
  126SOL    HW2   52   1.019   1.482   1.684
  127SOL     OW   53   1.859   1.518   1.605
  127SOL    HW1   54   1.873   1.545   1.510
  127SOL    HW2   55   1.942   1.540   1.658
  142SOL     OW   56   1.369   0.950   1.660
  142SOL    HW1   57   1.408   1.039   1.680
  142SOL    HW2   58   1.379   0.930   1.563
  147SOL     OW   59   0.930   1.678   1.465
  147SOL    HW1   60   0.906   1.660   1.370
  147SOL    HW2   61   0.960   1.772   1.475
  152SOL     OW   62   1.759   1.747   1.154
  152SOL    HW1   63   1.820   1.777   1.081
  152SOL    HW2   64   1.721   1.658   1.132
  153SOL     OW   65   1.252   1.731   1.128
  153SOL    HW1   66   1.336   1.736   1.074
  153SOL    HW2   67   1.229   1.635   1.146
  163SOL     OW   68   1.650   1.720   1.394
  163SOL    HW1   69   1.703   1.730   1.310
  163SOL    HW2   70   1.623   1.810   1.428
  171SOL     OW   71   1.614   1.292   1.289
  171SOL    HW1   72   1.674   1.295   1.369
  171SOL    HW2   73   1.539   1.356   1.302
  184SOL     OW   74   1.493   1.767   0.959
  184SOL    HW1   75   1.526   1.831   0.890
  184SOL    HW2   76   1.559   1.761   1.034
  186SOL     OW   77   1.450   1.220   1.633
  186SOL    HW1   78   1.441   1.210   1.732
  186SOL    HW2   79   1.546   1.213   1.607
  192SOL     OW   80   1.730   0.934   1.517
  192SOL    HW1   81   1.768   1.025   1.532
  192SOL    HW2   82   1.722   0.917   1.418
  197SOL     OW   83   1.861   1.569   0.851
  197SOL    HW1   84   1.790   1.557   0.781
  197SOL    HW2   85   1.862   1.490   0.911
  203SOL     OW   86   1.705   1.487   1.104
  203SOL    HW1   87   1.612   1.462   1.077
  203SOL    HW2   88   1.731   1.437   1.186
  219SOL     OW   89   1.555   1.511   2.565
  219SOL    HW1   90   1.498   1.495   2.646
  219SOL    HW2   91   1.496   1.521   2.485
  221SOL     OW   92   1.755   0.607   2.093
  221SOL    HW1   93   1.743   0.594   1.994
  221SOL    HW2   94   1.725   0.526   2.142
  227SOL     OW   95   1.460   1.505   3.201
  227SOL    HW1   96   1.484   1.599   3.227
  227SOL    HW2   97   1.444   1.451   3.283
  238SOL     OW   98   1.842   1.767   2.221
  238SOL    HW1   99   1.896   1.738   2.301
  238SOL    HW2  100   1.872   1.857   2.192
  240SOL     OW  101   1.689   0.922   2.474
  240SOL    HW1  102   1.784   0.893   2.482
  240SOL    HW2  103   1.681   0.987   2.399
  241SOL     OW  104   1.641   1.108   2.294
  241SOL    HW1  105   1.727   1.110   2.242
  241SOL    HW2  106   1.655   1.155   2.382
  244SOL     OW  107   1.293   1.228   3.285
  244SOL    HW1  108   1.330   1.155   3.227
  244SOL    HW2  109   1.345   1.233   3.370
  247SOL     OW  110   1.525   0.999   2.052
  247SOL    HW1  111   1.462   0.923   2.065
  247SOL    HW2  112   1.573   1.017   2.138
  248SOL     OW  113   1.187   1.792   3.478
  248SOL    HW1  114   1.211   1.852   3.402
  248SOL    HW2  115   1.194   1.697   3.448
  250SOL     OW  116   1.466   1.417   2.815
  250SOL    HW1  117   1.407   1.423   2.895
  250SOL    HW2  118   1.451   1.329   2.769
  251SOL     OW  119   1.667   1.714   2.434
  251SOL    HW1  120   1.626   1.691   2.346
  251SOL    HW2  121   1.649   1.640   2.499
  254SOL     OW  122   1.576   1.662   2.169
  254SOL    HW1  123   1.665   1.708   2.172
  254SOL    HW2  124   1.555   1.638   2.074
  264SOL     OW  125   1.362   1.144   2.407
  264SOL    HW1  126   1.445   1.115   2.359
  264SOL    HW2  127   1.313   1.211   2.351
  266SOL     OW  128   1.008   1.456   2.339
  266SOL    HW1  129   0.962   1.528   2.287
  266SOL    HW2  130   1.004   1.476   2.437
  268SOL     OW  131   1.795   1.066   2.735
  268SOL    HW1  132   1.733   1.051   2.659
  268SOL    HW2  133   1.743   1.077   2.820
  269SOL     OW  134   1.227   1.550   3.368
  269SOL    HW1  135   1.233   1.473   3.432
  269SOL    HW2  136   1.175   1.524   3.288
  271SOL     OW  137   1.458   0.735   2.590
  271SOL    HW1  138   1.453   0.670   2.665
  271SOL    HW2  139   1.538   0.794   2.603
  273SOL     OW  140   1.111   1.776   2.099
  273SOL    HW1  141   1.051   1.714   2.149
  273SOL    HW2  142   1.142   1.732   2.014
  275SOL     OW  143   1.632   1.377   1.943
  275SOL    HW1  144   1.600   1.471   1.933
  275SOL    HW2  145   1.556   1.314   1.931
  279SOL     OW  146   0.940   1.698   2.766
  279SOL    HW1  147   1.020   1.641   2.787
  279SOL    HW2  148   0.891   1.658   2.689
  284SOL     OW  149   0.888   1.514   3.057
  284SOL    HW1  150   0.865   1.489   2.963
  284SOL    HW2  151   0.949   1.445   3.096
  289SOL     OW  152   1.434   1.188   1.903
  289SOL    HW1  153   1.466   1.112   1.960
  289SOL    HW2  154   1.342   1.215   1.933
  293SOL     OW  155   1.227   1.570   2.655
  293SOL    HW1  156   1.248   1.644   2.590
  293SOL    HW2  157   1.295   1.570   2.728
  295SOL     OW  158   1.271   1.797   2.453
  295SOL    HW1  159   1.315   1.861   2.389
  295SOL    HW2  160   1.221   1.849   2.523
  301SOL     OW  161   1.429   1.173   2.729
  301SOL    HW1  162   1.374   1.089   2.722
  301SOL    HW2  163   1.455   1.202   2.637
  303SOL     OW  164   1.857   0.833   2.239
  303SOL    HW1  165   1.899   0.769   2.303
  303SOL    HW2  166   1.819   0.782   2.161
  305SOL     OW  167   1.664   1.280   2.519
  305SOL    HW1  168   1.763   1.288   2.533
  305SOL    HW2  169   1.619   1.364   2.550
  308SOL     OW  170   1.754   1.223   3.450
  308SOL    HW1  171   1.845   1.184   3.437
  308SOL    HW2  172   1.762   1.319   3.474
  309SOL     OW  173   1.064   1.347   3.202
  309SOL    HW1  174   0.984   1.324   3.257
  309SOL    HW2  175   1.147   1.321   3.251
  310SOL     OW  176   1.592   1.629   3.487
  310SOL    HW1  177   1.619   1.663   3.397
  310SOL    HW2  178   1.671   1.591   3.533
  311SOL     OW  179   1.111   1.195   2.962
  311SOL    HW1  180   1.071   1.239   3.043
  311SOL    HW2  181   1.070   1.232   2.879
  312SOL     OW  182   1.638   1.099   2.941
  312SOL    HW1  183   1.643   1.180   3.000
  312SOL    HW2  184   1.552   1.101   2.890
  321SOL     OW  185   1.252   1.348   2.250
  321SOL    HW1  186   1.302   1.425   2.290
  321SOL    HW2  187   1.157   1.350   2.282
  322SOL     OW  188   1.272   1.445   3.004
  322SOL    HW1  189   1.319   1.458   3.091
  322SOL    HW2  190   1.206   1.371   3.013
  340SOL     OW  191   1.859   1.518   3.467
  340SOL    HW1  192   1.873   1.545   3.372
  340SOL    HW2  193   1.942   1.540   3.520
  344SOL     OW  194   1.068   1.333   2.711
  344SOL    HW1  195   1.075   1.249   2.656
  344SOL    HW2  196   1.130   1.402   2.675
  363SOL     OW  197   1.347   1.059   3.096
  363SOL    HW1  198   1.371   0.996   3.022
  363SOL    HW2  199   1.257   1.099   3.078
  364SOL     OW  200   1.302   0.855   2.171
  364SOL    HW1  201   1.216   0.824   2.213
  364SOL    HW2  202   1.298   0.841   2.072
  365SOL     OW  203   1.759   1.747   3.016
  365SOL    HW1  204   1.820   1.777   2.943
  365SOL    HW2  205   1.721   1.658   2.994
  366SOL     OW  206   1.252   1.731   2.990
  366SOL    HW1  207   1.336   1.736   2.936
  366SOL    HW2  208   1.229   1.635   3.008
  370SOL     OW  209   1.388   1.573   2.339
  370SOL    HW1  210   1.455   1.585   2.265
  370SOL    HW2  211   1.348   1.662   2.362
  372SOL     OW  212   1.280   0.927   2.534
  372SOL    HW1  213   1.340   0.846   2.536
  372SOL    HW2  214   1.320   0.996   2.474
  374SOL     OW  215   0.672   1.616   2.016
  374SOL    HW1  216   0.681   1.626   1.917
  374SOL    HW2  217   0.632   1.527   2.037
  375SOL     OW  218   1.650   1.720   3.256
  375SOL    HW1  219   1.703   1.730   3.172
  375SOL    HW2  220   1.623   1.810   3.290
  378SOL     OW  221   1.194   1.612   1.893
  378SOL    HW1  222   1.200   1.519   1.930
  378SOL    HW2  223   1.135   1.612   1.813
  381SOL     OW  224   1.504   1.607   1.906
  381SOL    HW1  225   1.412   1.644   1.913
  381SOL    HW2  226   1.542   1.627   1.816
  383SOL     OW  227   1.614   1.292   3.151
  383SOL    HW1  228   1.674   1.295   3.231
  383SOL    HW2  229   1.539   1.356   3.164
  384SOL     OW  230   1.039   1.098   2.558
  384SOL    HW1  231   0.969   1.051   2.612
  384SOL    HW2  232   1.098   1.030   2.515
  394SOL     OW  233   1.183   1.335   1.981
  394SOL    HW1  234   1.084   1.324   1.983
  394SOL    HW2  235   1.217   1.350   2.074
  396SOL     OW  236   1.493   1.767   2.821
  396SOL    HW1  237   1.526   1.831   2.752
  396SOL    HW2  238   1.559   1.761   2.896
  400SOL     OW  239   1.674   0.883   3.116
  400SOL    HW1  240   1.647   0.794   3.079
  400SOL    HW2  241   1.675   0.951   3.043
  405SOL     OW  242   0.859   1.374   1.878
  405SOL    HW1  243   0.813   1.389   1.966
  405SOL    HW2  244   0.903   1.459   1.848
  406SOL     OW  245   0.661   1.790   2.815
  406SOL    HW1  246   0.615   1.878   2.802
  406SOL    HW2  247   0.760   1.802   2.808
  409SOL     OW  248   1.861   1.569   2.713
  409SOL    HW1  249   1.790   1.557   2.643
  409SOL    HW2  250   1.862   1.490   2.773
  415SOL     OW  251   1.705   1.487   2.966
  415SOL    HW1  252   1.612   1.462   2.939
  415SOL    HW2  253   1.731   1.437   3.048
  417SOL     OW  254   0.812   1.586   2.549
  417SOL    HW1  255   0.844   1.596   2.455
  417SOL    HW2  256   0.733   1.524   2.551
  426SOL     OW  257   0.875   1.646   2.199
  426SOL    HW1  258   0.798   1.611   2.145
  426SOL    HW2  259   0.843   1.717   2.261
  532SOL     OW  260   0.850   2.660   1.823
  532SOL    HW1  261   0.846   2.736   1.888
  532SOL    HW2  262   0.872   2.696   1.732
  536SOL     OW  263   1.460   3.367   1.339
  536SOL    HW1  264   1.484   3.461   1.365
  536SOL    HW2  265   1.444   3.313   1.421
  538SOL     OW  266   1.603   2.309   0.737
  538SOL    HW1  267   1.529   2.355   0.687
  538SOL    HW2  268   1.654   2.377   0.790
  540SOL     OW  269   1.127   3.203   1.690
  540SOL    HW1  270   1.174   3.203   1.778
  540SOL    HW2  271   1.079   3.116   1.679
  545SOL     OW  272   1.594   1.976   1.480
  545SOL    HW1  273   1.576   2.043   1.408
  545SOL    HW2  274   1.591   2.022   1.569
  553SOL     OW  275   1.293   3.090   1.423
  553SOL    HW1  276   1.330   3.017   1.365
  553SOL    HW2  277   1.345   3.095   1.508
  562SOL     OW  278   1.281   2.207   0.944
  562SOL    HW1  279   1.195   2.157   0.931
  562SOL    HW2  280   1.343   2.153   1.000
  564SOL     OW  281   0.807   2.467   1.465
  564SOL    HW1  282   0.760   2.464   1.554
  564SOL    HW2  283   0.756   2.412   1.399
  565SOL     OW  284   1.394   2.331   1.674
  565SOL    HW1  285   1.374   2.374   1.762
  565SOL    HW2  286   1.472   2.269   1.683
  566SOL     OW  287   0.973   2.752   1.572
  566SOL    HW1  288   1.019   2.668   1.543
  566SOL    HW2  289   0.917   2.786   1.497
  567SOL     OW  290   0.991   2.272   1.242
  567SOL    HW1  291   0.914   2.306   1.296
  567SOL    HW2  292   0.957   2.221   1.163
  572SOL     OW  293   1.719   2.447   1.831
  572SOL    HW1  294   1.693   2.536   1.795
  572SOL    HW2  295   1.717   2.379   1.758
  577SOL     OW  296   1.795   2.928   0.873
  577SOL    HW1  297   1.733   2.913   0.797
  577SOL    HW2  298   1.743   2.939   0.958
  578SOL     OW  299   1.227   3.412   1.506
  578SOL    HW1  300   1.233   3.335   1.570
  578SOL    HW2  301   1.175   3.386   1.426
  590SOL     OW  302   1.547   2.084   1.729
  590SOL    HW1  303   1.542   2.121   1.821
  590SOL    HW2  304   1.475   2.015   1.717
  591SOL     OW  305   0.781   2.126   1.749
  591SOL    HW1  306   0.848   2.065   1.792
  591SOL    HW2  307   0.708   2.145   1.814
  593SOL     OW  308   1.351   2.452   1.433
  593SOL    HW1  309   1.379   2.409   1.518
  593SOL    HW2  310   1.376   2.548   1.434
  600SOL     OW  311   1.076   2.545   1.464
  600SOL    HW1  312   0.996   2.484   1.467
  600SOL    HW2  313   1.157   2.492   1.440
  610SOL     OW  314   1.466   2.452   0.992
  610SOL    HW1  315   1.436   2.357   0.999
  610SOL    HW2  316   1.539   2.468   1.058
  616SOL     OW  317   1.754   3.085   1.588
  616SOL    HW1  318   1.845   3.046   1.575
  616SOL    HW2  319   1.762   3.181   1.612
  618SOL     OW  320   1.592   3.491   1.625
  618SOL    HW1  321   1.619   3.525   1.535
  618SOL    HW2  322   1.671   3.453   1.671
  620SOL     OW  323   1.638   2.961   1.079
  620SOL    HW1  324   1.643   3.042   1.138
  620SOL    HW2  325   1.552   2.963   1.028
  621SOL     OW  326   0.915   1.951   1.402
  621SOL    HW1  327   0.940   1.931   1.307
  621SOL    HW2  328   0.987   2.007   1.444
  622SOL     OW  329   0.980   2.978   1.719
  622SOL    HW1  330   0.881   2.984   1.729
  622SOL    HW2  331   1.003   2.898   1.663
  625SOL     OW  332   1.274   2.248   1.262
  625SOL    HW1  333   1.295   2.322   1.326
  625SOL    HW2  334   1.185   2.265   1.219
  634SOL     OW  335   1.587   2.641   1.670
  634SOL    HW1  336   1.495   2.679   1.665
  634SOL    HW2  337   1.647   2.688   1.605
  635SOL     OW  338   1.013   1.967   1.770
  635SOL    HW1  339   1.019   2.052   1.718
  635SOL    HW2  340   1.045   1.891   1.713
  638SOL     OW  341   1.360   2.724   1.045
  638SOL    HW1  342   1.285   2.724   0.979
  638SOL    HW2  343   1.397   2.632   1.054
  643SOL     OW  344   1.728   2.797   1.854
  643SOL    HW1  345   1.682   2.790   1.765
  643SOL    HW2  346   1.666   2.841   1.920
  648SOL     OW  347   1.859   3.380   1.605
  648SOL    HW1  348   1.873   3.407   1.510
  648SOL    HW2  349   1.942   3.402   1.658
  655SOL     OW  350   1.138   2.242   1.678
  655SOL    HW1  351   1.093   2.305   1.742
  655SOL    HW2  352   1.231   2.273   1.661
  656SOL     OW  353   1.160   2.069   1.477
  656SOL    HW1  354   1.160   2.133   1.554
  656SOL    HW2  355   1.188   2.117   1.394
  660SOL     OW  356   1.002   2.658   1.238
  660SOL    HW1  357   1.043   2.626   1.324
  660SOL    HW2  358   0.906   2.631   1.235
  663SOL     OW  359   1.369   2.812   1.660
  663SOL    HW1  360   1.408   2.901   1.680
  663SOL    HW2  361   1.379   2.792   1.563
  665SOL     OW  362   1.657   2.466   1.206
  665SOL    HW1  363   1.619   2.397   1.268
  665SOL    HW2  364   1.739   2.430   1.162
  671SOL     OW  365   1.347   2.921   1.234
  671SOL    HW1  366   1.371   2.858   1.160
  671SOL    HW2  367   1.257   2.961   1.216
  684SOL     OW  368   1.650   3.582   1.394
  684SOL    HW1  369   1.703   3.592   1.310
  684SOL    HW2  370   1.623   3.672   1.428
  685SOL     OW  371   1.841   2.037   0.963
  685SOL    HW1  372   1.880   1.952   0.927
  685SOL    HW2  373   1.743   2.039   0.944
  692SOL     OW  374   1.614   3.154   1.289
  692SOL    HW1  375   1.674   3.157   1.369
  692SOL    HW2  376   1.539   3.218   1.302
  696SOL     OW  377   1.709   2.247   1.381
  696SOL    HW1  378   1.782   2.316   1.385
  696SOL    HW2  379   1.737   2.172   1.322
  701SOL     OW  380   1.440   2.718   1.398
  701SOL    HW1  381   1.383   2.770   1.335
  701SOL    HW2  382   1.536   2.730   1.374
  706SOL     OW  383   0.716   2.427   1.708
  706SOL    HW1  384   0.735   2.492   1.782
  706SOL    HW2  385   0.776   2.347   1.717
  707SOL     OW  386   1.450   3.082   1.633
  707SOL    HW1  387   1.441   3.072   1.732
  707SOL    HW2  388   1.546   3.075   1.607
  709SOL     OW  389   1.674   2.745   1.254
  709SOL    HW1  390   1.647   2.656   1.217
  709SOL    HW2  391   1.675   2.813   1.181
  712SOL     OW  392   1.777   2.204   1.642
  712SOL    HW1  393   1.760   2.235   1.548
  712SOL    HW2  394   1.693   2.167   1.680
  713SOL     OW  395   1.730   2.796   1.517
  713SOL    HW1  396   1.768   2.887   1.532
  713SOL    HW2  397   1.722   2.779   1.418
  722SOL     OW  398   1.824   2.054   1.227
  722SOL    HW1  399   1.820   1.964   1.271
  722SOL    HW2  400   1.827   2.043   1.128
  724SOL     OW  401   1.705   3.349   1.104
  724SOL    HW1  402   1.612   3.324   1.077
  724SOL    HW2  403   1.731   3.299   1.186
  727SOL     OW  404   1.424   2.076   1.112
  727SOL    HW1  405   1.476   2.011   1.167
  727SOL    HW2  406   1.375   2.139   1.173
  728SOL     OW  407   1.001   1.896   1.154
  728SOL    HW1  408   0.938   1.824   1.123
  728SOL    HW2  409   1.094   1.860   1.154
  733SOL     OW  410   1.593   2.083   0.882
  733SOL    HW1  411   1.509   2.082   0.936
  733SOL    HW2  412   1.595   2.166   0.826
  740SOL     OW  413   1.555   3.373   2.565
  740SOL    HW1  414   1.498   3.357   2.646
  740SOL    HW2  415   1.496   3.383   2.485
  741SOL     OW  416   1.135   2.565   2.579
  741SOL    HW1  417   1.192   2.643   2.554
  741SOL    HW2  418   1.075   2.591   2.655
  742SOL     OW  419   1.755   2.469   2.093
  742SOL    HW1  420   1.743   2.456   1.994
  742SOL    HW2  421   1.725   2.388   2.142
  743SOL     OW  422   0.768   3.006   2.885
  743SOL    HW1  423   0.690   3.023   2.945
  743SOL    HW2  424   0.802   3.093   2.849
  745SOL     OW  425   0.685   2.874   2.527
  745SOL    HW1  426   0.754   2.858   2.597
  745SOL    HW2  427   0.612   2.931   2.565
  748SOL     OW  428   1.460   3.367   3.201
  748SOL    HW1  429   1.484   3.461   3.227
  748SOL    HW2  430   1.444   3.313   3.283
  750SOL     OW  431   1.603   2.309   2.599
  750SOL    HW1  432   1.529   2.355   2.549
  750SOL    HW2  433   1.654   2.377   2.652
  756SOL     OW  434   0.606   2.826   1.985
  756SOL    HW1  435   0.613   2.910   1.931
  756SOL    HW2  436   0.652   2.839   2.073
  757SOL     OW  437   1.594   1.976   3.342
  757SOL    HW1  438   1.576   2.043   3.270
  757SOL    HW2  439   1.591   2.022   3.431
  759SOL     OW  440   1.842   3.629   2.221
  759SOL    HW1  441   1.896   3.600   2.301
  759SOL    HW2  442   1.872   3.719   2.192
  761SOL     OW  443   1.689   2.784   2.474
  761SOL    HW1  444   1.784   2.755   2.482
  761SOL    HW2  445   1.681   2.849   2.399
  762SOL     OW  446   1.641   2.970   2.294
  762SOL    HW1  447   1.727   2.972   2.242
  762SOL    HW2  448   1.655   3.017   2.382
  765SOL     OW  449   1.293   3.090   3.285
  765SOL    HW1  450   1.330   3.017   3.227
  765SOL    HW2  451   1.345   3.095   3.370
  766SOL     OW  452   0.809   1.866   2.364
  766SOL    HW1  453   0.849   1.957   2.355
  766SOL    HW2  454   0.709   1.874   2.370
  768SOL     OW  455   1.525   2.861   2.052
  768SOL    HW1  456   1.462   2.785   2.065
  768SOL    HW2  457   1.573   2.879   2.138
  771SOL     OW  458   1.466   3.279   2.815
  771SOL    HW1  459   1.407   3.285   2.895
  771SOL    HW2  460   1.451   3.191   2.769
  772SOL     OW  461   1.667   3.576   2.434
  772SOL    HW1  462   1.626   3.553   2.346
  772SOL    HW2  463   1.649   3.502   2.499
  773SOL     OW  464   0.598   2.591   2.132
  773SOL    HW1  465   0.622   2.660   2.064
  773SOL    HW2  466   0.520   2.624   2.186
  774SOL     OW  467   1.281   2.207   2.806
  774SOL    HW1  468   1.195   2.157   2.793
  774SOL    HW2  469   1.343   2.153   2.862
  775SOL     OW  470   1.576   3.524   2.169
  775SOL    HW1  471   1.665   3.570   2.172
  775SOL    HW2  472   1.555   3.500   2.074
  777SOL     OW  473   1.394   2.331   3.536
  777SOL    HW1  474   1.374   2.374   3.624
  777SOL    HW2  475   1.472   2.269   3.545
  779SOL     OW  476   0.991   2.272   3.104
  779SOL    HW1  477   0.914   2.306   3.158
  779SOL    HW2  478   0.957   2.221   3.025
  780SOL     OW  479   1.041   2.563   2.291
  780SOL    HW1  480   1.067   2.559   2.387
  780SOL    HW2  481   0.956   2.512   2.277
  783SOL     OW  482   0.865   2.210   2.057
  783SOL    HW1  483   0.924   2.273   2.008
  783SOL    HW2  484   0.884   2.116   2.028
  784SOL     OW  485   1.719   2.447   3.693
  784SOL    HW1  486   1.693   2.536   3.657
  784SOL    HW2  487   1.717   2.379   3.620
  785SOL     OW  488   1.362   3.006   2.407
  785SOL    HW1  489   1.445   2.977   2.359
  785SOL    HW2  490   1.313   3.073   2.351
  787SOL     OW  491   1.008   3.318   2.339
  787SOL    HW1  492   0.962   3.390   2.287
  787SOL    HW2  493   1.004   3.338   2.437
  789SOL     OW  494   1.795   2.928   2.735
  789SOL    HW1  495   1.733   2.913   2.659
  789SOL    HW2  496   1.743   2.939   2.820
  792SOL     OW  497   1.458   2.597   2.590
  792SOL    HW1  498   1.453   2.532   2.665
  792SOL    HW2  499   1.538   2.656   2.603
  796SOL     OW  500   1.632   3.239   1.943
  796SOL    HW1  501   1.600   3.333   1.933
  796SOL    HW2  502   1.556   3.176   1.931
  798SOL     OW  503   1.400   1.969   2.288
  798SOL    HW1  504   1.376   1.932   2.198
  798SOL    HW2  505   1.499   1.985   2.292
  802SOL     OW  506   1.547   2.084   3.591
  802SOL    HW1  507   1.542   2.121   3.683
  802SOL    HW2  508   1.475   2.015   3.579
  803SOL     OW  509   0.614   1.984   1.979
  803SOL    HW1  510   0.712   1.962   1.986
  803SOL    HW2  511   0.583   1.967   1.886
  806SOL     OW  512   1.351   2.452   3.295
  806SOL    HW1  513   1.379   2.409   3.380
  806SOL    HW2  514   1.376   2.548   3.296
  808SOL     OW  515   0.922   2.365   2.761
  808SOL    HW1  516   0.897   2.356   2.665
  808SOL    HW2  517   0.970   2.283   2.792
  809SOL     OW  518   0.539   1.926   2.374
  809SOL    HW1  519   0.458   1.927   2.432
  809SOL    HW2  520   0.542   2.009   2.319
  810SOL     OW  521   1.434   3.050   1.903
  810SOL    HW1  522   1.466   2.974   1.960
  810SOL    HW2  523   1.342   3.077   1.933
  812SOL     OW  524   0.935   2.098   2.342
  812SOL    HW1  525   0.887   2.139   2.264
  812SOL    HW2  526   1.034   2.096   2.323
  813SOL     OW  527   1.076   2.545   3.326
  813SOL    HW1  528   0.996   2.484   3.329
  813SOL    HW2  529   1.157   2.492   3.302
  814SOL     OW  530   1.227   3.432   2.655
  814SOL    HW1  531   1.248   3.506   2.590
  814SOL    HW2  532   1.295   3.432   2.728
  816SOL     OW  533   1.271   3.659   2.453
  816SOL    HW1  534   1.315   3.723   2.389
  816SOL    HW2  535   1.221   3.711   2.523
  817SOL     OW  536   1.032   2.411   1.878
  817SOL    HW1  537   0.991   2.493   1.839
  817SOL    HW2  538   1.096   2.437   1.951
  820SOL     OW  539   0.866   2.316   2.504
  820SOL    HW1  540   0.834   2.388   2.442
  820SOL    HW2  541   0.890   2.235   2.451
  821SOL     OW  542   1.017   1.901   2.615
  821SOL    HW1  543   0.945   1.906   2.546
  821SOL    HW2  544   0.993   1.832   2.684
  822SOL     OW  545   1.429   3.035   2.729
  822SOL    HW1  546   1.374   2.951   2.722
  822SOL    HW2  547   1.455   3.064   2.637
  823SOL     OW  548   1.466   2.452   2.854
  823SOL    HW1  549   1.436   2.357   2.861
  823SOL    HW2  550   1.539   2.468   2.920
  824SOL     OW  551   1.857   2.695   2.239
  824SOL    HW1  552   1.899   2.631   2.303
  824SOL    HW2  553   1.819   2.644   2.161
  826SOL     OW  554   1.664   3.142   2.519
  826SOL    HW1  555   1.763   3.150   2.533
  826SOL    HW2  556   1.619   3.226   2.550
  827SOL     OW  557   1.390   2.437   1.940
  827SOL    HW1  558   1.336   2.416   2.021
  827SOL    HW2  559   1.481   2.396   1.949
  828SOL     OW  560   0.527   2.118   2.190
  828SOL    HW1  561   0.554   2.059   2.115
  828SOL    HW2  562   0.527   2.213   2.159
  829SOL     OW  563   1.754   3.085   3.450
  829SOL    HW1  564   1.845   3.046   3.437
  829SOL    HW2  565   1.762   3.181   3.474
  830SOL     OW  566   1.064   3.209   3.202
  830SOL    HW1  567   0.984   3.186   3.257
  830SOL    HW2  568   1.147   3.183   3.251
  832SOL     OW  569   1.111   3.057   2.962
  832SOL    HW1  570   1.071   3.101   3.043
  832SOL    HW2  571   1.070   3.094   2.879
  833SOL     OW  572   1.638   2.961   2.941
  833SOL    HW1  573   1.643   3.042   3.000
  833SOL    HW2  574   1.552   2.963   2.890
  834SOL     OW  575   0.915   1.951   3.264
  834SOL    HW1  576   0.940   1.931   3.169
  834SOL    HW2  577   0.987   2.007   3.306
  836SOL     OW  578   0.705   2.912   2.230
  836SOL    HW1  579   0.691   2.919   2.329
  836SOL    HW2  580   0.789   2.861   2.212
  838SOL     OW  581   1.274   2.248   3.124
  838SOL    HW1  582   1.295   2.322   3.188
  838SOL    HW2  583   1.185   2.265   3.081
  841SOL     OW  584   0.566   2.399   2.727
  841SOL    HW1  585   0.578   2.465   2.653
  841SOL    HW2  586   0.612   2.433   2.810
  842SOL     OW  587   1.252   3.210   2.250
  842SOL    HW1  588   1.302   3.287   2.290
  842SOL    HW2  589   1.157   3.212   2.282
  843SOL     OW  590   1.272   3.307   3.004
  843SOL    HW1  591   1.319   3.320   3.091
  843SOL    HW2  592   1.206   3.233   3.013
  844SOL     OW  593   1.582   2.501   2.334
  844SOL    HW1  594   1.551   2.562   2.407
  844SOL    HW2  595   1.632   2.553   2.265
  847SOL     OW  596   1.587   2.641   3.532
  847SOL    HW1  597   1.495   2.679   3.527
  847SOL    HW2  598   1.647   2.688   3.467
  851SOL     OW  599   1.360   2.724   2.907
  851SOL    HW1  600   1.285   2.724   2.841
  851SOL    HW2  601   1.397   2.632   2.916
  852SOL     OW  602   1.209   2.387   2.137
  852SOL    HW1  603   1.222   2.303   2.191
  852SOL    HW2  604   1.180   2.461   2.197
  855SOL     OW  605   0.732   2.496   2.926
  855SOL    HW1  606   0.791   2.470   2.850
  855SOL    HW2  607   0.704   2.592   2.915
  856SOL     OW  608   1.728   2.797   3.716
  856SOL    HW1  609   1.682   2.790   3.627
  856SOL    HW2  610   1.666   2.841   3.782
  858SOL     OW  611   1.622   2.229   2.236
  858SOL    HW1  612   1.624   2.153   2.300
  858SOL    HW2  613   1.574   2.306   2.276
  859SOL     OW  614   1.023   2.628   2.828
  859SOL    HW1  615   1.038   2.649   2.924
  859SOL    HW2  616   0.993   2.533   2.819
  861SOL     OW  617   1.859   3.380   3.467
  861SOL    HW1  618   1.873   3.407   3.372
  861SOL    HW2  619   1.942   3.402   3.520
  863SOL     OW  620   1.540   2.136   1.987
  863SOL    HW1  621   1.479   2.061   2.010
  863SOL    HW2  622   1.562   2.188   2.070
  864SOL     OW  623   1.303   2.700   1.904
  864SOL    HW1  624   1.337   2.607   1.919
  864SOL    HW2  625   1.321   2.727   1.809
  865SOL     OW  626   1.068   3.195   2.711
  865SOL    HW1  627   1.075   3.111   2.656
  865SOL    HW2  628   1.130   3.264   2.675
  868SOL     OW  629   1.138   2.242   3.540
  868SOL    HW1  630   1.093   2.305   3.604
  868SOL    HW2  631   1.231   2.273   3.523
  869SOL     OW  632   1.160   2.069   3.339
  869SOL    HW1  633   1.160   2.133   3.416
  869SOL    HW2  634   1.188   2.117   3.256
  873SOL     OW  635   1.002   2.658   3.100
  873SOL    HW1  636   1.043   2.626   3.186
  873SOL    HW2  637   0.906   2.631   3.097
  876SOL     OW  638   1.369   2.812   3.522
  876SOL    HW1  639   1.408   2.901   3.542
  876SOL    HW2  640   1.379   2.792   3.425
  877SOL     OW  641   0.815   2.434   2.187
  877SOL    HW1  642   0.822   2.345   2.141
  877SOL    HW2  643   0.721   2.468   2.179
  878SOL     OW  644   1.657   2.466   3.068
  878SOL    HW1  645   1.619   2.397   3.130
  878SOL    HW2  646   1.739   2.430   3.024
  884SOL     OW  647   1.347   2.921   3.096
  884SOL    HW1  648   1.371   2.858   3.022
  884SOL    HW2  649   1.257   2.961   3.078
  885SOL     OW  650   1.302   2.717   2.171
  885SOL    HW1  651   1.216   2.686   2.213
  885SOL    HW2  652   1.298   2.703   2.072
  886SOL     OW  653   1.759   3.609   3.016
  886SOL    HW1  654   1.820   3.639   2.943
  886SOL    HW2  655   1.721   3.520   2.994
  890SOL     OW  656   1.726   1.997   2.385
  890SOL    HW1  657   1.799   1.980   2.318
  890SOL    HW2  658   1.695   1.910   2.423
  891SOL     OW  659   1.388   3.435   2.339
  891SOL    HW1  660   1.455   3.447   2.265
  891SOL    HW2  661   1.348   3.524   2.362
  893SOL     OW  662   1.280   2.789   2.534
  893SOL    HW1  663   1.340   2.708   2.536
  893SOL    HW2  664   1.320   2.858   2.474
  896SOL     OW  665   1.650   3.582   3.256
  896SOL    HW1  666   1.703   3.592   3.172
  896SOL    HW2  667   1.623   3.672   3.290
  897SOL     OW  668   1.841   2.037   2.825
  897SOL    HW1  669   1.880   1.952   2.789
  897SOL    HW2  670   1.743   2.039   2.806
  899SOL     OW  671   1.194   3.474   1.893
  899SOL    HW1  672   1.200   3.381   1.930
  899SOL    HW2  673   1.135   3.474   1.813
  901SOL     OW  674   0.916   2.772   2.153
  901SOL    HW1  675   0.979   2.810   2.085
  901SOL    HW2  676   0.956   2.689   2.192
  902SOL     OW  677   1.504   3.469   1.906
  902SOL    HW1  678   1.412   3.506   1.913
  902SOL    HW2  679   1.542   3.489   1.816
  904SOL     OW  680   1.614   3.154   3.151
  904SOL    HW1  681   1.674   3.157   3.231
  904SOL    HW2  682   1.539   3.218   3.164
  905SOL     OW  683   1.039   2.960   2.558
  905SOL    HW1  684   0.969   2.913   2.612
  905SOL    HW2  685   1.098   2.892   2.515
  906SOL     OW  686   1.014   2.098   2.833
  906SOL    HW1  687   1.006   2.062   2.740
  906SOL    HW2  688   1.012   2.022   2.898
  908SOL     OW  689   1.709   2.247   3.243
  908SOL    HW1  690   1.782   2.316   3.247
  908SOL    HW2  691   1.737   2.172   3.184
  913SOL     OW  692   1.440   2.718   3.260
  913SOL    HW1  693   1.383   2.770   3.197
  913SOL    HW2  694   1.536   2.730   3.236
  915SOL     OW  695   1.183   3.197   1.981
  915SOL    HW1  696   1.084   3.186   1.983
  915SOL    HW2  697   1.217   3.212   2.074
  917SOL     OW  698   1.493   3.629   2.821
  917SOL    HW1  699   1.526   3.693   2.752
  917SOL    HW2  700   1.559   3.623   2.896
  919SOL     OW  701   1.450   3.082   3.495
  919SOL    HW1  702   1.441   3.072   3.594
  919SOL    HW2  703   1.546   3.075   3.469
  921SOL     OW  704   1.674   2.745   3.116
  921SOL    HW1  705   1.647   2.656   3.079
  921SOL    HW2  706   1.675   2.813   3.043
  922SOL     OW  707   1.225   2.187   2.311
  922SOL    HW1  708   1.290   2.113   2.300
  922SOL    HW2  709   1.245   2.237   2.395
  923SOL     OW  710   0.594   2.607   2.514
  923SOL    HW1  711   0.644   2.692   2.495
  923SOL    HW2  712   0.506   2.609   2.466
  924SOL     OW  713   1.777   2.204   3.504
  924SOL    HW1  714   1.760   2.235   3.410
  924SOL    HW2  715   1.693   2.167   3.542
  925SOL     OW  716   1.730   2.796   3.379
  925SOL    HW1  717   1.768   2.887   3.394
  925SOL    HW2  718   1.722   2.779   3.280
  926SOL     OW  719   0.859   3.236   1.878
  926SOL    HW1  720   0.813   3.251   1.966
  926SOL    HW2  721   0.903   3.321   1.848
  928SOL     OW  722   0.859   2.818   2.723
  928SOL    HW1  723   0.913   2.749   2.771
  928SOL    HW2  724   0.827   2.887   2.789
  929SOL     OW  725   1.083   2.846   1.949
  929SOL    HW1  726   1.060   2.899   1.867
  929SOL    HW2  727   1.164   2.790   1.930
  930SOL     OW  728   1.861   3.431   2.713
  930SOL    HW1  729   1.790   3.419   2.643
  930SOL    HW2  730   1.862   3.352   2.773
  934SOL     OW  731   1.824   2.054   3.089
  934SOL    HW1  732   1.820   1.964   3.133
  934SOL    HW2  733   1.827   2.043   2.990
  936SOL     OW  734   1.705   3.349   2.966
  936SOL    HW1  735   1.612   3.324   2.939
  936SOL    HW2  736   1.731   3.299   3.048
  939SOL     OW  737   1.424   2.076   2.974
  939SOL    HW1  738   1.476   2.011   3.029
  939SOL    HW2  739   1.375   2.139   3.035
  940SOL     OW  740   1.001   1.896   3.016
  940SOL    HW1  741   0.938   1.824   2.985
  940SOL    HW2  742   1.094   1.860   3.016
  941SOL     OW  743   0.770   3.192   2.163
  941SOL    HW1  744   0.724   3.105   2.180
  941SOL    HW2  745   0.861   3.189   2.204
  943SOL     OW  746   1.352   1.914   2.030
  943SOL    HW1  747   1.387   1.873   1.946
  943SOL    HW2  748   1.262   1.876   2.050
  944SOL     OW  749   1.300   2.315   2.553
  944SOL    HW1  750   1.241   2.395   2.557
  944SOL    HW2  751   1.315   2.280   2.646
  945SOL     OW  752   1.593   2.083   2.744
  945SOL    HW1  753   1.509   2.082   2.798
  945SOL    HW2  754   1.595   2.166   2.688
  953SOL     OW  755   1.755   2.469   3.955
  953SOL    HW1  756   1.743   2.456   3.856
  953SOL    HW2  757   1.725   2.388   4.004
 1000SOL     OW  758   1.390   2.437   3.802
 1000SOL    HW1  759   1.336   2.416   3.883
 1000SOL    HW2  760   1.481   2.396   3.811
 1009SOL     OW  761   1.540   2.136   3.849
 1009SOL    HW1  762   1.479   2.061   3.872
 1009SOL    HW2  763   1.562   2.188   3.932
 1169SOL     OW  764   1.400   3.831   2.288
 1169SOL    HW1  765   1.376   3.794   2.198
 1169SOL    HW2  766   1.499   3.847   2.292
 1216SOL     OW  767   1.726   3.859   2.385
 1216SOL    HW1  768   1.799   3.842   2.318
 1216SOL    HW2  769   1.695   3.772   2.423
 1218SOL     OW  770   1.841   3.899   2.825
 1218SOL    HW1  771   1.880   3.814   2.789
 1218SOL    HW2  772   1.743   3.901   2.806
 1239SOL     OW  773   1.352   3.776   2.030
 1239SOL    HW1  774   1.387   3.735   1.946
 1239SOL    HW2  775   1.262   3.738   2.050
 1293SOL     OW  776   2.431   1.275   1.165
 1293SOL    HW1  777   2.338   1.268   1.128
 1293SOL    HW2  778   2.442   1.364   1.209
 1297SOL     OW  779   2.630   1.144   1.023
 1297SOL    HW1  780   2.552   1.161   1.083
 1297SOL    HW2  781   2.664   1.231   0.987
 1298SOL     OW  782   2.712   0.798   1.823
 1298SOL    HW1  783   2.708   0.874   1.888
 1298SOL    HW2  784   2.734   0.834   1.732
 1300SOL     OW  785   2.548   1.161   1.803
 1300SOL    HW1  786   2.608   1.240   1.817
 1300SOL    HW2  787   2.462   1.192   1.762
 1301SOL     OW  788   2.197   1.435   1.061
 1301SOL    HW1  789   2.119   1.404   1.008
 1301SOL    HW2  790   2.255   1.493   1.004
 1302SOL     OW  791   3.322   1.505   1.339
 1302SOL    HW1  792   3.346   1.599   1.365
 1302SOL    HW2  793   3.306   1.451   1.421
 1306SOL     OW  794   2.989   1.341   1.690
 1306SOL    HW1  795   3.036   1.341   1.778
 1306SOL    HW2  796   2.941   1.254   1.679
 1309SOL     OW  797   2.482   1.786   1.439
 1309SOL    HW1  798   2.390   1.769   1.474
 1309SOL    HW2  799   2.510   1.878   1.465
 1317SOL     OW  800   1.975   0.737   1.597
 1317SOL    HW1  801   2.063   0.724   1.642
 1317SOL    HW2  802   1.962   0.834   1.575
 1319SOL     OW  803   3.155   1.228   1.423
 1319SOL    HW1  804   3.192   1.155   1.365
 1319SOL    HW2  805   3.207   1.233   1.508
 1321SOL     OW  806   2.059   0.976   1.264
 1321SOL    HW1  807   2.148   0.931   1.250
 1321SOL    HW2  808   1.986   0.911   1.245
 1323SOL     OW  809   3.049   1.792   1.616
 1323SOL    HW1  810   3.073   1.852   1.540
 1323SOL    HW2  811   3.056   1.697   1.586
 1332SOL     OW  812   2.835   0.890   1.572
 1332SOL    HW1  813   2.881   0.806   1.543
 1332SOL    HW2  814   2.779   0.924   1.497
 1336SOL     OW  815   1.992   1.821   1.571
 1336SOL    HW1  816   1.982   1.806   1.670
 1336SOL    HW2  817   1.906   1.857   1.535
 1342SOL     OW  818   2.213   1.801   0.853
 1342SOL    HW1  819   2.263   1.715   0.859
 1342SOL    HW2  820   2.278   1.878   0.850
 1344SOL     OW  821   3.089   1.550   1.506
 1344SOL    HW1  822   3.095   1.473   1.570
 1344SOL    HW2  823   3.037   1.524   1.426
 1347SOL     OW  824   2.323   1.266   1.727
 1347SOL    HW1  825   2.273   1.267   1.641
 1347SOL    HW2  826   2.260   1.248   1.803
 1353SOL     OW  827   2.111   1.785   1.241
 1353SOL    HW1  828   2.168   1.720   1.291
 1353SOL    HW2  829   2.095   1.752   1.148
 1354SOL     OW  830   2.802   1.698   0.904
 1354SOL    HW1  831   2.882   1.641   0.925
 1354SOL    HW2  832   2.753   1.658   0.827
 1359SOL     OW  833   2.750   1.514   1.195
 1359SOL    HW1  834   2.727   1.489   1.101
 1359SOL    HW2  835   2.811   1.445   1.234
 1361SOL     OW  836   2.665   1.402   0.924
 1361SOL    HW1  837   2.755   1.416   0.882
 1361SOL    HW2  838   2.594   1.404   0.853
 1384SOL     OW  839   2.926   1.347   1.340
 1384SOL    HW1  840   2.846   1.324   1.395
 1384SOL    HW2  841   3.009   1.321   1.389
 1385SOL     OW  842   3.454   1.629   1.625
 1385SOL    HW1  843   3.481   1.663   1.535
 1385SOL    HW2  844   3.533   1.591   1.671
 1386SOL     OW  845   2.973   1.195   1.100
 1386SOL    HW1  846   2.933   1.239   1.181
 1386SOL    HW2  847   2.932   1.232   1.017
 1389SOL     OW  848   2.842   1.116   1.719
 1389SOL    HW1  849   2.743   1.122   1.729
 1389SOL    HW2  850   2.865   1.036   1.663
 1393SOL     OW  851   1.926   1.564   1.331
 1393SOL    HW1  852   1.880   1.646   1.297
 1393SOL    HW2  853   2.024   1.583   1.340
 1397SOL     OW  854   3.134   1.445   1.142
 1397SOL    HW1  855   3.181   1.458   1.229
 1397SOL    HW2  856   3.068   1.371   1.151
 1399SOL     OW  857   2.216   1.510   1.329
 1399SOL    HW1  858   2.195   1.466   1.242
 1399SOL    HW2  859   2.313   1.536   1.332
 1400SOL     OW  860   2.264   0.751   1.598
 1400SOL    HW1  861   2.332   0.806   1.551
 1400SOL    HW2  862   2.304   0.663   1.625
 1408SOL     OW  863   1.899   1.310   1.282
 1408SOL    HW1  864   1.952   1.261   1.350
 1408SOL    HW2  865   1.921   1.408   1.287
 1414SOL     OW  866   2.842   1.573   1.700
 1414SOL    HW1  867   2.822   1.617   1.612
 1414SOL    HW2  868   2.881   1.482   1.684
 1415SOL     OW  869   3.721   1.518   1.605
 1415SOL    HW1  870   3.735   1.545   1.510
 1415SOL    HW2  871   3.804   1.540   1.658
 1416SOL     OW  872   2.212   0.898   1.804
 1416SOL    HW1  873   2.288   0.942   1.852
 1416SOL    HW2  874   2.247   0.851   1.722
 1425SOL     OW  875   1.950   1.801   0.927
 1425SOL    HW1  876   1.908   1.715   0.900
 1425SOL    HW2  877   2.044   1.804   0.893
 1426SOL     OW  878   2.366   1.568   0.910
 1426SOL    HW1  879   2.432   1.642   0.919
 1426SOL    HW2  880   2.410   1.489   0.868
 1430SOL     OW  881   3.231   0.950   1.660
 1430SOL    HW1  882   3.270   1.039   1.680
 1430SOL    HW2  883   3.241   0.930   1.563
 1433SOL     OW  884   2.114   1.564   1.744
 1433SOL    HW1  885   2.084   1.621   1.820
 1433SOL    HW2  886   2.107   1.467   1.770
 1435SOL     OW  887   2.792   1.678   1.465
 1435SOL    HW1  888   2.768   1.660   1.370
 1435SOL    HW2  889   2.822   1.772   1.475
 1437SOL     OW  890   2.021   1.137   1.466
 1437SOL    HW1  891   2.043   1.076   1.542
 1437SOL    HW2  892   2.031   1.088   1.380
 1441SOL     OW  893   3.114   1.731   1.128
 1441SOL    HW1  894   3.198   1.736   1.074
 1441SOL    HW2  895   3.091   1.635   1.146
 1442SOL     OW  896   1.945   1.258   1.022
 1442SOL    HW1  897   1.940   1.257   1.122
 1442SOL    HW2  898   1.862   1.217   0.984
 1443SOL     OW  899   2.550   1.662   1.716
 1443SOL    HW1  900   2.494   1.743   1.725
 1443SOL    HW2  901   2.602   1.666   1.630
 1447SOL     OW  902   1.992   1.794   1.851
 1447SOL    HW1  903   1.951   1.720   1.904
 1447SOL    HW2  904   2.056   1.845   1.909
 1449SOL     OW  905   2.692   1.273   1.422
 1449SOL    HW1  906   2.687   1.306   1.517
 1449SOL    HW2  907   2.606   1.292   1.376
 1451SOL     OW  908   3.512   1.720   1.394
 1451SOL    HW1  909   3.565   1.730   1.310
 1451SOL    HW2  910   3.485   1.810   1.428
 1455SOL     OW  911   2.684   1.002   1.372
 1455SOL    HW1  912   2.724   1.001   1.280
 1455SOL    HW2  913   2.694   1.094   1.412
 1458SOL     OW  914   2.234   1.288   1.490
 1458SOL    HW1  915   2.221   1.381   1.456
 1458SOL    HW2  916   2.150   1.236   1.477
 1465SOL     OW  917   1.967   1.013   1.726
 1465SOL    HW1  918   1.890   0.980   1.780
 1465SOL    HW2  919   2.052   0.983   1.768
 1471SOL     OW  920   2.475   0.842   1.431
 1471SOL    HW1  921   2.531   0.923   1.414
 1471SOL    HW2  922   2.534   0.762   1.434
 1472SOL     OW  923   3.355   1.767   0.959
 1472SOL    HW1  924   3.388   1.831   0.890
 1472SOL    HW2  925   3.421   1.761   1.034
 1474SOL     OW  926   3.312   1.220   1.633
 1474SOL    HW1  927   3.303   1.210   1.732
 1474SOL    HW2  928   3.408   1.213   1.607
 1475SOL     OW  929   2.252   1.741   1.560
 1475SOL    HW1  930   2.161   1.782   1.558
 1475SOL    HW2  931   2.245   1.647   1.592
 1482SOL     OW  932   2.523   1.790   0.953
 1482SOL    HW1  933   2.477   1.878   0.940
 1482SOL    HW2  934   2.622   1.802   0.946
 1486SOL     OW  935   2.083   1.314   1.844
 1486SOL    HW1  936   2.018   1.241   1.823
 1486SOL    HW2  937   2.087   1.328   1.942
 1488SOL     OW  938   2.534   1.391   1.624
 1488SOL    HW1  939   2.456   1.341   1.662
 1488SOL    HW2  940   2.531   1.486   1.655
 1493SOL     OW  941   2.674   1.586   0.687
 1493SOL    HW1  942   2.706   1.596   0.593
 1493SOL    HW2  943   2.595   1.524   0.689
 1497SOL     OW  944   2.480   1.567   1.284
 1497SOL    HW1  945   2.475   1.649   1.341
 1497SOL    HW2  946   2.569   1.564   1.239
 1503SOL     OW  947   2.092   0.628   1.975
 1503SOL    HW1  948   1.999   0.626   2.012
 1503SOL    HW2  949   2.093   0.589   1.883
 1506SOL     OW  950   2.431   1.275   3.027
 1506SOL    HW1  951   2.338   1.268   2.990
 1506SOL    HW2  952   2.442   1.364   3.071
 1507SOL     OW  953   3.417   1.511   2.565
 1507SOL    HW1  954   3.360   1.495   2.646
 1507SOL    HW2  955   3.358   1.521   2.485
 1508SOL     OW  956   2.997   0.703   2.579
 1508SOL    HW1  957   3.054   0.781   2.554
 1508SOL    HW2  958   2.937   0.729   2.655
 1510SOL     OW  959   2.630   1.144   2.885
 1510SOL    HW1  960   2.552   1.161   2.945
 1510SOL    HW2  961   2.664   1.231   2.849
 1512SOL     OW  962   2.547   1.012   2.527
 1512SOL    HW1  963   2.616   0.996   2.597
 1512SOL    HW2  964   2.474   1.069   2.565
 1513SOL     OW  965   2.548   1.161   3.665
 1513SOL    HW1  966   2.608   1.240   3.679
 1513SOL    HW2  967   2.462   1.192   3.624
 1514SOL     OW  968   2.197   1.435   2.923
 1514SOL    HW1  969   2.119   1.404   2.870
 1514SOL    HW2  970   2.255   1.493   2.866
 1515SOL     OW  971   3.322   1.505   3.201
 1515SOL    HW1  972   3.346   1.599   3.227
 1515SOL    HW2  973   3.306   1.451   3.283
 1518SOL     OW  974   2.093   1.713   2.345
 1518SOL    HW1  975   2.127   1.790   2.399
 1518SOL    HW2  976   2.137   1.713   2.255
 1519SOL     OW  977   2.989   1.341   3.552
 1519SOL    HW1  978   3.036   1.341   3.640
 1519SOL    HW2  979   2.941   1.254   3.541
 1520SOL     OW  980   2.092   1.434   2.400
 1520SOL    HW1  981   2.066   1.530   2.400
 1520SOL    HW2  982   2.021   1.380   2.445
 1521SOL     OW  983   2.102   1.091   2.748
 1521SOL    HW1  984   2.116   1.007   2.800
 1521SOL    HW2  985   2.047   1.155   2.803
 1522SOL     OW  986   2.482   1.786   3.301
 1522SOL    HW1  987   2.390   1.769   3.336
 1522SOL    HW2  988   2.510   1.878   3.327
 1523SOL     OW  989   2.468   0.964   1.985
 1523SOL    HW1  990   2.475   1.048   1.931
 1523SOL    HW2  991   2.514   0.977   2.073
 1525SOL     OW  992   1.984   0.643   2.425
 1525SOL    HW1  993   1.939   0.555   2.442
 1525SOL    HW2  994   1.983   0.697   2.509
 1526SOL     OW  995   3.704   1.767   2.221
 1526SOL    HW1  996   3.758   1.738   2.301
 1526SOL    HW2  997   3.734   1.857   2.192
 1527SOL     OW  998   1.889   1.596   1.979
 1527SOL    HW1  999   1.870   1.500   2.000
 1527SOL    HW2 1000   1.856   1.654   2.054
 1529SOL     OW 1001   3.503   1.108   2.294
 1529SOL    HW1 1002   3.589   1.110   2.242
 1529SOL    HW2 1003   3.517   1.155   2.382
 1531SOL     OW 1004   2.475   1.365   2.588
 1531SOL    HW1 1005   2.426   1.278   2.597
 1531SOL    HW2 1006   2.452   1.408   2.501
 1532SOL     OW 1007   3.155   1.228   3.285
 1532SOL    HW1 1008   3.192   1.155   3.227
 1532SOL    HW2 1009   3.207   1.233   3.370
 1534SOL     OW 1010   2.059   0.976   3.126
 1534SOL    HW1 1011   2.148   0.931   3.112
 1534SOL    HW2 1012   1.986   0.911   3.107
 1535SOL     OW 1013   3.387   0.999   2.052
 1535SOL    HW1 1014   3.324   0.923   2.065
 1535SOL    HW2 1015   3.435   1.017   2.138
 1536SOL     OW 1016   3.049   1.792   3.478
 1536SOL    HW1 1017   3.073   1.852   3.402
 1536SOL    HW2 1018   3.056   1.697   3.448
 1538SOL     OW 1019   3.328   1.417   2.815
 1538SOL    HW1 1020   3.269   1.423   2.895
 1538SOL    HW2 1021   3.313   1.329   2.769
 1539SOL     OW 1022   3.529   1.714   2.434
 1539SOL    HW1 1023   3.488   1.691   2.346
 1539SOL    HW2 1024   3.511   1.640   2.499
 1540SOL     OW 1025   2.460   0.729   2.132
 1540SOL    HW1 1026   2.484   0.798   2.064
 1540SOL    HW2 1027   2.382   0.762   2.186
 1542SOL     OW 1028   3.438   1.662   2.169
 1542SOL    HW1 1029   3.527   1.708   2.172
 1542SOL    HW2 1030   3.417   1.638   2.074
 1547SOL     OW 1031   2.903   0.701   2.291
 1547SOL    HW1 1032   2.929   0.697   2.387
 1547SOL    HW2 1033   2.818   0.650   2.277
 1548SOL     OW 1034   1.938   0.811   2.651
 1548SOL    HW1 1035   2.037   0.799   2.660
 1548SOL    HW2 1036   1.914   0.906   2.672
 1549SOL     OW 1037   1.992   1.821   3.433
 1549SOL    HW1 1038   1.982   1.806   3.532
 1549SOL    HW2 1039   1.906   1.857   3.397
 1552SOL     OW 1040   3.224   1.144   2.407
 1552SOL    HW1 1041   3.307   1.115   2.359
 1552SOL    HW2 1042   3.175   1.211   2.351
 1554SOL     OW 1043   2.870   1.456   2.339
 1554SOL    HW1 1044   2.824   1.528   2.287
 1554SOL    HW2 1045   2.866   1.476   2.437
 1555SOL     OW 1046   2.213   1.801   2.715
 1555SOL    HW1 1047   2.263   1.715   2.721
 1555SOL    HW2 1048   2.278   1.878   2.712
 1557SOL     OW 1049   3.089   1.550   3.368
 1557SOL    HW1 1050   3.095   1.473   3.432
 1557SOL    HW2 1051   3.037   1.524   3.288
 1558SOL     OW 1052   2.183   0.943   2.104
 1558SOL    HW1 1053   2.265   0.982   2.062
 1558SOL    HW2 1054   2.156   0.861   2.055
 1560SOL     OW 1055   2.323   1.266   3.589
 1560SOL    HW1 1056   2.273   1.267   3.503
 1560SOL    HW2 1057   2.260   1.248   3.665
 1561SOL     OW 1058   2.973   1.776   2.099
 1561SOL    HW1 1059   2.913   1.714   2.149
 1561SOL    HW2 1060   3.004   1.732   2.014
 1563SOL     OW 1061   3.494   1.377   1.943
 1563SOL    HW1 1062   3.462   1.471   1.933
 1563SOL    HW2 1063   3.418   1.314   1.931
 1564SOL     OW 1064   2.326   1.743   2.185
 1564SOL    HW1 1065   2.359   1.782   2.271
 1564SOL    HW2 1066   2.402   1.736   2.120
 1566SOL     OW 1067   2.111   1.785   3.103
 1566SOL    HW1 1068   2.168   1.720   3.153
 1566SOL    HW2 1069   2.095   1.752   3.010
 1567SOL     OW 1070   2.802   1.698   2.766
 1567SOL    HW1 1071   2.882   1.641   2.787
 1567SOL    HW2 1072   2.753   1.658   2.689
 1568SOL     OW 1073   2.244   0.700   2.342
 1568SOL    HW1 1074   2.289   0.610   2.339
 1568SOL    HW2 1075   2.150   0.689   2.375
 1572SOL     OW 1076   2.750   1.514   3.057
 1572SOL    HW1 1077   2.727   1.489   2.963
 1572SOL    HW2 1078   2.811   1.445   3.096
 1574SOL     OW 1079   2.665   1.402   2.786
 1574SOL    HW1 1080   2.755   1.416   2.744
 1574SOL    HW2 1081   2.594   1.404   2.715
 1577SOL     OW 1082   3.296   1.188   1.903
 1577SOL    HW1 1083   3.328   1.112   1.960
 1577SOL    HW2 1084   3.204   1.215   1.933
 1581SOL     OW 1085   3.089   1.570   2.655
 1581SOL    HW1 1086   3.110   1.644   2.590
 1581SOL    HW2 1087   3.157   1.570   2.728
 1582SOL     OW 1088   2.321   1.152   2.603
 1582SOL    HW1 1089   2.250   1.125   2.668
 1582SOL    HW2 1090   2.295   1.124   2.510
 1583SOL     OW 1091   3.133   1.797   2.453
 1583SOL    HW1 1092   3.177   1.861   2.389
 1583SOL    HW2 1093   3.083   1.849   2.523
 1589SOL     OW 1094   3.291   1.173   2.729
 1589SOL    HW1 1095   3.236   1.089   2.722
 1589SOL    HW2 1096   3.317   1.202   2.637
 1592SOL     OW 1097   2.350   1.385   2.036
 1592SOL    HW1 1098   2.263   1.370   2.083
 1592SOL    HW2 1099   2.333   1.411   1.941
 1593SOL     OW 1100   3.526   1.280   2.519
 1593SOL    HW1 1101   3.625   1.288   2.533
 1593SOL    HW2 1102   3.481   1.364   2.550
 1597SOL     OW 1103   2.926   1.347   3.202
 1597SOL    HW1 1104   2.846   1.324   3.257
 1597SOL    HW2 1105   3.009   1.321   3.251
 1598SOL     OW 1106   3.454   1.629   3.487
 1598SOL    HW1 1107   3.481   1.663   3.397
 1598SOL    HW2 1108   3.533   1.591   3.533
 1599SOL     OW 1109   2.973   1.195   2.962
 1599SOL    HW1 1110   2.933   1.239   3.043
 1599SOL    HW2 1111   2.932   1.232   2.879
 1603SOL     OW 1112   2.567   1.050   2.230
 1603SOL    HW1 1113   2.553   1.057   2.329
 1603SOL    HW2 1114   2.651   0.999   2.212
 1604SOL     OW 1115   2.272   0.813   3.113
 1604SOL    HW1 1116   2.358   0.825   3.163
 1604SOL    HW2 1117   2.230   0.726   3.140
 1606SOL     OW 1118   1.926   1.564   3.193
 1606SOL    HW1 1119   1.880   1.646   3.159
 1606SOL    HW2 1120   2.024   1.583   3.202
 1607SOL     OW 1121   2.229   1.100   2.363
 1607SOL    HW1 1122   2.222   1.183   2.307
 1607SOL    HW2 1123   2.233   1.020   2.303
 1609SOL     OW 1124   3.114   1.348   2.250
 1609SOL    HW1 1125   3.164   1.425   2.290
 1609SOL    HW2 1126   3.019   1.350   2.282
 1610SOL     OW 1127   3.134   1.445   3.004
 1610SOL    HW1 1128   3.181   1.458   3.091
 1610SOL    HW2 1129   3.068   1.371   3.013
 1612SOL     OW 1130   2.216   1.510   3.191
 1612SOL    HW1 1131   2.195   1.466   3.104
 1612SOL    HW2 1132   2.313   1.536   3.194
 1617SOL     OW 1133   2.435   0.870   2.891
 1617SOL    HW1 1134   2.479   0.959   2.882
 1617SOL    HW2 1135   2.372   0.870   2.968
 1621SOL     OW 1136   1.899   1.310   3.144
 1621SOL    HW1 1137   1.952   1.261   3.212
 1621SOL    HW2 1138   1.921   1.408   3.149
 1626SOL     OW 1139   2.885   0.766   2.828
 1626SOL    HW1 1140   2.900   0.787   2.924
 1626SOL    HW2 1141   2.855   0.671   2.819
 1627SOL     OW 1142   2.842   1.573   3.562
 1627SOL    HW1 1143   2.822   1.617   3.474
 1627SOL    HW2 1144   2.881   1.482   3.546
 1631SOL     OW 1145   3.165   0.838   1.904
 1631SOL    HW1 1146   3.199   0.745   1.919
 1631SOL    HW2 1147   3.183   0.865   1.809
 1632SOL     OW 1148   2.930   1.333   2.711
 1632SOL    HW1 1149   2.937   1.249   2.656
 1632SOL    HW2 1150   2.992   1.402   2.675
 1633SOL     OW 1151   2.181   0.810   2.811
 1633SOL    HW1 1152   2.274   0.846   2.816
 1633SOL    HW2 1153   2.175   0.725   2.863
 1637SOL     OW 1154   1.870   1.326   2.062
 1637SOL    HW1 1155   1.777   1.347   2.031
 1637SOL    HW2 1156   1.880   1.227   2.075
 1638SOL     OW 1157   1.950   1.801   2.789
 1638SOL    HW1 1158   1.908   1.715   2.762
 1638SOL    HW2 1159   2.044   1.804   2.755
 1639SOL     OW 1160   2.366   1.568   2.772
 1639SOL    HW1 1161   2.432   1.642   2.781
 1639SOL    HW2 1162   2.410   1.489   2.730
 1640SOL     OW 1163   2.864   0.796   3.100
 1640SOL    HW1 1164   2.905   0.764   3.186
 1640SOL    HW2 1165   2.768   0.769   3.097
 1644SOL     OW 1166   2.677   0.572   2.187
 1644SOL    HW1 1167   2.684   0.483   2.141
 1644SOL    HW2 1168   2.583   0.606   2.179
 1646SOL     OW 1169   2.114   1.564   3.606
 1646SOL    HW1 1170   2.084   1.621   3.682
 1646SOL    HW2 1171   2.107   1.467   3.632
 1648SOL     OW 1172   2.792   1.678   3.327
 1648SOL    HW1 1173   2.768   1.660   3.232
 1648SOL    HW2 1174   2.822   1.772   3.337
 1650SOL     OW 1175   2.021   1.137   3.328
 1650SOL    HW1 1176   2.043   1.076   3.404
 1650SOL    HW2 1177   2.031   1.088   3.242
 1651SOL     OW 1178   3.209   1.059   3.096
 1651SOL    HW1 1179   3.233   0.996   3.022
 1651SOL    HW2 1180   3.119   1.099   3.078
 1652SOL     OW 1181   3.164   0.855   2.171
 1652SOL    HW1 1182   3.078   0.824   2.213
 1652SOL    HW2 1183   3.160   0.841   2.072
 1653SOL     OW 1184   3.621   1.747   3.016
 1653SOL    HW1 1185   3.682   1.777   2.943
 1653SOL    HW2 1186   3.583   1.658   2.994
 1654SOL     OW 1187   3.114   1.731   2.990
 1654SOL    HW1 1188   3.198   1.736   2.936
 1654SOL    HW2 1189   3.091   1.635   3.008
 1655SOL     OW 1190   1.945   1.258   2.884
 1655SOL    HW1 1191   1.940   1.257   2.984
 1655SOL    HW2 1192   1.862   1.217   2.846
 1656SOL     OW 1193   2.550   1.662   3.578
 1656SOL    HW1 1194   2.494   1.743   3.587
 1656SOL    HW2 1195   2.602   1.666   3.492
 1658SOL     OW 1196   3.250   1.573   2.339
 1658SOL    HW1 1197   3.317   1.585   2.265
 1658SOL    HW2 1198   3.210   1.662   2.362
 1659SOL     OW 1199   1.992   1.794   3.713
 1659SOL    HW1 1200   1.951   1.720   3.766
 1659SOL    HW2 1201   2.056   1.845   3.771
 1660SOL     OW 1202   3.142   0.927   2.534
 1660SOL    HW1 1203   3.202   0.846   2.536
 1660SOL    HW2 1204   3.182   0.996   2.474
 1661SOL     OW 1205   2.692   1.273   3.284
 1661SOL    HW1 1206   2.687   1.306   3.379
 1661SOL    HW2 1207   2.606   1.292   3.238
 1662SOL     OW 1208   2.534   1.616   2.016
 1662SOL    HW1 1209   2.543   1.626   1.917
 1662SOL    HW2 1210   2.494   1.527   2.037
 1663SOL     OW 1211   3.512   1.720   3.256
 1663SOL    HW1 1212   3.565   1.730   3.172
 1663SOL    HW2 1213   3.485   1.810   3.290
 1666SOL     OW 1214   3.056   1.612   1.893
 1666SOL    HW1 1215   3.062   1.519   1.930
 1666SOL    HW2 1216   2.997   1.612   1.813
 1667SOL     OW 1217   2.684   1.002   3.234
 1667SOL    HW1 1218   2.724   1.001   3.142
 1667SOL    HW2 1219   2.694   1.094   3.274
 1668SOL     OW 1220   2.778   0.910   2.153
 1668SOL    HW1 1221   2.841   0.948   2.085
 1668SOL    HW2 1222   2.818   0.827   2.192
 1669SOL     OW 1223   3.366   1.607   1.906
 1669SOL    HW1 1224   3.274   1.644   1.913
 1669SOL    HW2 1225   3.404   1.627   1.816
 1670SOL     OW 1226   2.234   1.288   3.352
 1670SOL    HW1 1227   2.221   1.381   3.318
 1670SOL    HW2 1228   2.150   1.236   3.339
 1671SOL     OW 1229   3.476   1.292   3.151
 1671SOL    HW1 1230   3.536   1.295   3.231
 1671SOL    HW2 1231   3.401   1.356   3.164
 1672SOL     OW 1232   2.901   1.098   2.558
 1672SOL    HW1 1233   2.831   1.051   2.612
 1672SOL    HW2 1234   2.960   1.030   2.515
 1674SOL     OW 1235   2.452   1.487   2.353
 1674SOL    HW1 1236   2.494   1.429   2.283
 1674SOL    HW2 1237   2.408   1.566   2.309
 1676SOL     OW 1238   2.117   1.348   2.152
 1676SOL    HW1 1239   2.021   1.349   2.125
 1676SOL    HW2 1240   2.129   1.401   2.236
 1682SOL     OW 1241   3.045   1.335   1.981
 1682SOL    HW1 1242   2.946   1.324   1.983
 1682SOL    HW2 1243   3.079   1.350   2.074
 1683SOL     OW 1244   2.475   0.842   3.293
 1683SOL    HW1 1245   2.531   0.923   3.276
 1683SOL    HW2 1246   2.534   0.762   3.296
 1684SOL     OW 1247   3.355   1.767   2.821
 1684SOL    HW1 1248   3.388   1.831   2.752
 1684SOL    HW2 1249   3.421   1.761   2.896
 1687SOL     OW 1250   2.252   1.741   3.422
 1687SOL    HW1 1251   2.161   1.782   3.420
 1687SOL    HW2 1252   2.245   1.647   3.454
 1690SOL     OW 1253   2.456   0.745   2.514
 1690SOL    HW1 1254   2.506   0.830   2.495
 1690SOL    HW2 1255   2.368   0.747   2.466
 1693SOL     OW 1256   2.721   1.374   1.878
 1693SOL    HW1 1257   2.675   1.389   1.966
 1693SOL    HW2 1258   2.765   1.459   1.848
 1694SOL     OW 1259   2.523   1.790   2.815
 1694SOL    HW1 1260   2.477   1.878   2.802
 1694SOL    HW2 1261   2.622   1.802   2.808
 1695SOL     OW 1262   2.721   0.956   2.723
 1695SOL    HW1 1263   2.775   0.887   2.771
 1695SOL    HW2 1264   2.689   1.025   2.789
 1696SOL     OW 1265   2.945   0.984   1.949
 1696SOL    HW1 1266   2.922   1.037   1.867
 1696SOL    HW2 1267   3.026   0.928   1.930
 1697SOL     OW 1268   3.723   1.569   2.713
 1697SOL    HW1 1269   3.652   1.557   2.643
 1697SOL    HW2 1270   3.724   1.490   2.773
 1698SOL     OW 1271   2.083   1.314   3.706
 1698SOL    HW1 1272   2.018   1.241   3.685
 1698SOL    HW2 1273   2.087   1.328   3.804
 1699SOL     OW 1274   1.941   1.240   2.515
 1699SOL    HW1 1275   1.940   1.193   2.603
 1699SOL    HW2 1276   2.023   1.212   2.464
 1700SOL     OW 1277   2.534   1.391   3.486
 1700SOL    HW1 1278   2.456   1.341   3.524
 1700SOL    HW2 1279   2.531   1.486   3.517
 1703SOL     OW 1280   3.567   1.487   2.966
 1703SOL    HW1 1281   3.474   1.462   2.939
 1703SOL    HW2 1282   3.593   1.437   3.048
 1705SOL     OW 1283   2.674   1.586   2.549
 1705SOL    HW1 1284   2.706   1.596   2.455
 1705SOL    HW2 1285   2.595   1.524   2.551
 1708SOL     OW 1286   2.632   1.330   2.163
 1708SOL    HW1 1287   2.586   1.243   2.180
 1708SOL    HW2 1288   2.723   1.327   2.204
 1709SOL     OW 1289   2.480   1.567   3.146
 1709SOL    HW1 1290   2.475   1.649   3.203
 1709SOL    HW2 1291   2.569   1.564   3.101
 1713SOL     OW 1292   1.901   1.077   2.162
 1713SOL    HW1 1293   2.000   1.066   2.153
 1713SOL    HW2 1294   1.861   0.991   2.194
 1714SOL     OW 1295   2.737   1.646   2.199
 1714SOL    HW1 1296   2.660   1.611   2.145
 1714SOL    HW2 1297   2.705   1.717   2.261
 1729SOL     OW 1298   1.889   1.596   3.841
 1729SOL    HW1 1299   1.870   1.500   3.862
 1729SOL    HW2 1300   1.856   1.654   3.916
 1785SOL     OW 1301   2.534   1.616   3.878
 1785SOL    HW1 1302   2.543   1.626   3.779
 1785SOL    HW2 1303   2.494   1.527   3.899
 1788SOL     OW 1304   3.056   1.612   3.755
 1788SOL    HW1 1305   3.062   1.519   3.792
 1788SOL    HW2 1306   2.997   1.612   3.675
 1799SOL     OW 1307   2.721   1.374   3.740
 1799SOL    HW1 1308   2.675   1.389   3.828
 1799SOL    HW2 1309   2.765   1.459   3.710
 1813SOL     OW 1310   2.087   2.137   0.996
 1813SOL    HW1 1311   2.122   2.120   1.088
 1813SOL    HW2 1312   1.999   2.092   0.984
 1814SOL     OW 1313   1.881   2.230   0.647
 1814SOL    HW1 1314   1.799   2.273   0.686
 1814SOL    HW2 1315   1.853   2.157   0.584
 1815SOL     OW 1316   2.431   3.137   1.165
 1815SOL    HW1 1317   2.338   3.130   1.128
 1815SOL    HW2 1318   2.442   3.226   1.209
 1817SOL     OW 1319   2.997   2.565   0.717
 1817SOL    HW1 1320   3.054   2.643   0.692
 1817SOL    HW2 1321   2.937   2.591   0.793
 1819SOL     OW 1322   2.630   3.006   1.023
 1819SOL    HW1 1323   2.552   3.023   1.083
 1819SOL    HW2 1324   2.664   3.093   0.987
 1820SOL     OW 1325   2.712   2.660   1.823
 1820SOL    HW1 1326   2.708   2.736   1.888
 1820SOL    HW2 1327   2.734   2.696   1.732
 1821SOL     OW 1328   2.547   2.874   0.665
 1821SOL    HW1 1329   2.616   2.858   0.735
 1821SOL    HW2 1330   2.474   2.931   0.703
 1822SOL     OW 1331   2.548   3.023   1.803
 1822SOL    HW1 1332   2.608   3.102   1.817
 1822SOL    HW2 1333   2.462   3.054   1.762
 1823SOL     OW 1334   2.197   3.297   1.061
 1823SOL    HW1 1335   2.119   3.266   1.008
 1823SOL    HW2 1336   2.255   3.355   1.004
 1824SOL     OW 1337   3.322   3.367   1.339
 1824SOL    HW1 1338   3.346   3.461   1.365
 1824SOL    HW2 1339   3.306   3.313   1.421
 1825SOL     OW 1340   2.300   2.254   1.499
 1825SOL    HW1 1341   2.382   2.198   1.508
 1825SOL    HW2 1342   2.219   2.196   1.503
 1828SOL     OW 1343   2.989   3.203   1.690
 1828SOL    HW1 1344   3.036   3.203   1.778
 1828SOL    HW2 1345   2.941   3.116   1.679
 1830SOL     OW 1346   2.102   2.953   0.886
 1830SOL    HW1 1347   2.116   2.869   0.938
 1830SOL    HW2 1348   2.047   3.017   0.941
 1831SOL     OW 1349   2.482   3.648   1.439
 1831SOL    HW1 1350   2.390   3.631   1.474
 1831SOL    HW2 1351   2.510   3.740   1.465
 1833SOL     OW 1352   3.456   1.976   1.480
 1833SOL    HW1 1353   3.438   2.043   1.408
 1833SOL    HW2 1354   3.453   2.022   1.569
 1834SOL     OW 1355   1.984   2.505   0.563
 1834SOL    HW1 1356   1.939   2.417   0.580
 1834SOL    HW2 1357   1.983   2.559   0.647
 1839SOL     OW 1358   1.975   2.599   1.597
 1839SOL    HW1 1359   2.063   2.586   1.642
 1839SOL    HW2 1360   1.962   2.696   1.575
 1841SOL     OW 1361   3.155   3.090   1.423
 1841SOL    HW1 1362   3.192   3.017   1.365
 1841SOL    HW2 1363   3.207   3.095   1.508
 1843SOL     OW 1364   2.059   2.838   1.264
 1843SOL    HW1 1365   2.148   2.793   1.250
 1843SOL    HW2 1366   1.986   2.773   1.245
 1845SOL     OW 1367   3.049   3.654   1.616
 1845SOL    HW1 1368   3.073   3.714   1.540
 1845SOL    HW2 1369   3.056   3.559   1.586
 1846SOL     OW 1370   2.179   2.113   1.801
 1846SOL    HW1 1371   2.250   2.184   1.807
 1846SOL    HW2 1372   2.091   2.152   1.829
 1850SOL     OW 1373   3.143   2.207   0.944
 1850SOL    HW1 1374   3.057   2.157   0.931
 1850SOL    HW2 1375   3.205   2.153   1.000
 1852SOL     OW 1376   2.669   2.467   1.465
 1852SOL    HW1 1377   2.622   2.464   1.554
 1852SOL    HW2 1378   2.618   2.412   1.399
 1853SOL     OW 1379   3.256   2.331   1.674
 1853SOL    HW1 1380   3.236   2.374   1.762
 1853SOL    HW2 1381   3.334   2.269   1.683
 1854SOL     OW 1382   2.835   2.752   1.572
 1854SOL    HW1 1383   2.881   2.668   1.543
 1854SOL    HW2 1384   2.779   2.786   1.497
 1855SOL     OW 1385   2.853   2.272   1.242
 1855SOL    HW1 1386   2.776   2.306   1.296
 1855SOL    HW2 1387   2.819   2.221   1.163
 1857SOL     OW 1388   1.938   2.673   0.789
 1857SOL    HW1 1389   2.037   2.661   0.798
 1857SOL    HW2 1390   1.914   2.768   0.810
 1858SOL     OW 1391   1.992   3.683   1.571
 1858SOL    HW1 1392   1.982   3.668   1.670
 1858SOL    HW2 1393   1.906   3.719   1.535
 1860SOL     OW 1394   3.581   2.447   1.831
 1860SOL    HW1 1395   3.555   2.536   1.795
 1860SOL    HW2 1396   3.579   2.379   1.758
 1862SOL     OW 1397   2.412   2.058   0.885
 1862SOL    HW1 1398   2.407   2.053   0.985
 1862SOL    HW2 1399   2.414   2.154   0.856
 1866SOL     OW 1400   3.089   3.412   1.506
 1866SOL    HW1 1401   3.095   3.335   1.570
 1866SOL    HW2 1402   3.037   3.386   1.426
 1869SOL     OW 1403   2.323   3.128   1.727
 1869SOL    HW1 1404   2.273   3.129   1.641
 1869SOL    HW2 1405   2.260   3.110   1.803
 1871SOL     OW 1406   2.064   2.147   1.498
 1871SOL    HW1 1407   1.984   2.207   1.485
 1871SOL    HW2 1408   2.054   2.098   1.584
 1875SOL     OW 1409   2.111   3.647   1.241
 1875SOL    HW1 1410   2.168   3.582   1.291
 1875SOL    HW2 1411   2.095   3.614   1.148
 1878SOL     OW 1412   3.409   2.084   1.729
 1878SOL    HW1 1413   3.404   2.121   1.821
 1878SOL    HW2 1414   3.337   2.015   1.717
 1879SOL     OW 1415   2.643   2.126   1.749
 1879SOL    HW1 1416   2.710   2.065   1.792
 1879SOL    HW2 1417   2.570   2.145   1.814
 1880SOL     OW 1418   2.750   3.376   1.195
 1880SOL    HW1 1419   2.727   3.351   1.101
 1880SOL    HW2 1420   2.811   3.307   1.234
 1881SOL     OW 1421   3.213   2.452   1.433
 1881SOL    HW1 1422   3.241   2.409   1.518
 1881SOL    HW2 1423   3.238   2.548   1.434
 1882SOL     OW 1424   2.665   3.264   0.924
 1882SOL    HW1 1425   2.755   3.278   0.882
 1882SOL    HW2 1426   2.594   3.266   0.853
 1883SOL     OW 1427   2.784   2.365   0.899
 1883SOL    HW1 1428   2.759   2.356   0.803
 1883SOL    HW2 1429   2.832   2.283   0.930
 1888SOL     OW 1430   2.938   2.545   1.464
 1888SOL    HW1 1431   2.858   2.484   1.467
 1888SOL    HW2 1432   3.019   2.492   1.440
 1890SOL     OW 1433   2.321   3.014   0.741
 1890SOL    HW1 1434   2.250   2.987   0.806
 1890SOL    HW2 1435   2.295   2.986   0.648
 1893SOL     OW 1436   1.940   2.418   1.386
 1893SOL    HW1 1437   2.032   2.417   1.345
 1893SOL    HW2 1438   1.934   2.492   1.453
 1894SOL     OW 1439   2.423   2.084   1.147
 1894SOL    HW1 1440   2.461   2.000   1.184
 1894SOL    HW2 1441   2.335   2.103   1.191
 1895SOL     OW 1442   2.728   2.316   0.642
 1895SOL    HW1 1443   2.696   2.388   0.580
 1895SOL    HW2 1444   2.752   2.235   0.589
 1896SOL     OW 1445   2.879   1.901   0.753
 1896SOL    HW1 1446   2.807   1.906   0.684
 1896SOL    HW2 1447   2.855   1.832   0.822
 1898SOL     OW 1448   3.328   2.452   0.992
 1898SOL    HW1 1449   3.298   2.357   0.999
 1898SOL    HW2 1450   3.401   2.468   1.058
 1904SOL     OW 1451   3.616   3.085   1.588
 1904SOL    HW1 1452   3.707   3.046   1.575
 1904SOL    HW2 1453   3.624   3.181   1.612
 1905SOL     OW 1454   2.926   3.209   1.340
 1905SOL    HW1 1455   2.846   3.186   1.395
 1905SOL    HW2 1456   3.009   3.183   1.389
 1906SOL     OW 1457   3.454   3.491   1.625
 1906SOL    HW1 1458   3.481   3.525   1.535
 1906SOL    HW2 1459   3.533   3.453   1.671
 1907SOL     OW 1460   2.973   3.057   1.100
 1907SOL    HW1 1461   2.933   3.101   1.181
 1907SOL    HW2 1462   2.932   3.094   1.017
 1909SOL     OW 1463   2.777   1.951   1.402
 1909SOL    HW1 1464   2.802   1.931   1.307
 1909SOL    HW2 1465   2.849   2.007   1.444
 1910SOL     OW 1466   2.842   2.978   1.719
 1910SOL    HW1 1467   2.743   2.984   1.729
 1910SOL    HW2 1468   2.865   2.898   1.663
 1912SOL     OW 1469   2.272   2.675   1.251
 1912SOL    HW1 1470   2.358   2.687   1.301
 1912SOL    HW2 1471   2.230   2.588   1.278
 1913SOL     OW 1472   3.136   2.248   1.262
 1913SOL    HW1 1473   3.157   2.322   1.326
 1913SOL    HW2 1474   3.047   2.265   1.219
 1914SOL     OW 1475   1.926   3.426   1.331
 1914SOL    HW1 1476   1.880   3.508   1.297
 1914SOL    HW2 1477   2.024   3.445   1.340
 1916SOL     OW 1478   2.428   2.399   0.865
 1916SOL    HW1 1479   2.440   2.465   0.791
 1916SOL    HW2 1480   2.474   2.433   0.948
 1918SOL     OW 1481   3.134   3.307   1.142
 1918SOL    HW1 1482   3.181   3.320   1.229
 1918SOL    HW2 1483   3.068   3.233   1.151
 1920SOL     OW 1484   2.216   3.372   1.329
 1920SOL    HW1 1485   2.195   3.328   1.242
 1920SOL    HW2 1486   2.313   3.398   1.332
 1921SOL     OW 1487   2.264   2.613   1.598
 1921SOL    HW1 1488   2.332   2.668   1.551
 1921SOL    HW2 1489   2.304   2.525   1.625
 1922SOL     OW 1490   3.449   2.641   1.670
 1922SOL    HW1 1491   3.357   2.679   1.665
 1922SOL    HW2 1492   3.509   2.688   1.605
 1923SOL     OW 1493   2.875   1.967   1.770
 1923SOL    HW1 1494   2.881   2.052   1.718
 1923SOL    HW2 1495   2.907   1.891   1.713
 1924SOL     OW 1496   2.366   1.912   1.740
 1924SOL    HW1 1497   2.324   1.855   1.670
 1924SOL    HW2 1498   2.300   1.981   1.772
 1925SOL     OW 1499   2.435   2.732   1.029
 1925SOL    HW1 1500   2.479   2.821   1.020
 1925SOL    HW2 1501   2.372   2.732   1.106
 1926SOL     OW 1502   3.222   2.724   1.045
 1926SOL    HW1 1503   3.147   2.724   0.979
 1926SOL    HW2 1504   3.259   2.632   1.054
 1928SOL     OW 1505   2.169   2.075   1.231
 1928SOL    HW1 1506   2.146   2.112   1.321
 1928SOL    HW2 1507   2.139   1.980   1.225
 1929SOL     OW 1508   1.899   3.172   1.282
 1929SOL    HW1 1509   1.952   3.123   1.350
 1929SOL    HW2 1510   1.921   3.270   1.287
 1930SOL     OW 1511   2.594   2.496   1.064
 1930SOL    HW1 1512   2.653   2.470   0.988
 1930SOL    HW2 1513   2.566   2.592   1.053
 1931SOL     OW 1514   3.590   2.797   1.854
 1931SOL    HW1 1515   3.544   2.790   1.765
 1931SOL    HW2 1516   3.528   2.841   1.920
 1932SOL     OW 1517   2.169   1.925   0.618
 1932SOL    HW1 1518   2.158   2.019   0.651
 1932SOL    HW2 1519   2.164   1.862   0.695
 1934SOL     OW 1520   2.885   2.628   0.966
 1934SOL    HW1 1521   2.900   2.649   1.062
 1934SOL    HW2 1522   2.855   2.533   0.957
 1935SOL     OW 1523   2.842   3.435   1.700
 1935SOL    HW1 1524   2.822   3.479   1.612
 1935SOL    HW2 1525   2.881   3.344   1.684
 1937SOL     OW 1526   2.212   2.760   1.804
 1937SOL    HW1 1527   2.288   2.804   1.852
 1937SOL    HW2 1528   2.247   2.713   1.722
 1941SOL     OW 1529   2.181   2.672   0.949
 1941SOL    HW1 1530   2.274   2.708   0.954
 1941SOL    HW2 1531   2.175   2.587   1.001
 1942SOL     OW 1532   2.201   2.371   1.006
 1942SOL    HW1 1533   2.149   2.288   0.989
 1942SOL    HW2 1534   2.278   2.376   0.942
 1943SOL     OW 1535   3.000   2.242   1.678
 1943SOL    HW1 1536   2.955   2.305   1.742
 1943SOL    HW2 1537   3.093   2.273   1.661
 1944SOL     OW 1538   3.022   2.069   1.477
 1944SOL    HW1 1539   3.022   2.133   1.554
 1944SOL    HW2 1540   3.050   2.117   1.394
 1947SOL     OW 1541   2.366   3.430   0.910
 1947SOL    HW1 1542   2.432   3.504   0.919
 1947SOL    HW2 1543   2.410   3.351   0.868
 1948SOL     OW 1544   2.864   2.658   1.238
 1948SOL    HW1 1545   2.905   2.626   1.324
 1948SOL    HW2 1546   2.768   2.631   1.235
 1949SOL     OW 1547   1.902   2.406   1.114
 1949SOL    HW1 1548   1.987   2.373   1.073
 1949SOL    HW2 1549   1.915   2.421   1.212
 1950SOL     OW 1550   2.051   2.382   1.722
 1950SOL    HW1 1551   2.110   2.342   1.652
 1950SOL    HW2 1552   1.993   2.453   1.681
 1951SOL     OW 1553   3.231   2.812   1.660
 1951SOL    HW1 1554   3.270   2.901   1.680
 1951SOL    HW2 1555   3.241   2.792   1.563
 1953SOL     OW 1556   3.519   2.466   1.206
 1953SOL    HW1 1557   3.481   2.397   1.268
 1953SOL    HW2 1558   3.601   2.430   1.162
 1954SOL     OW 1559   2.114   3.426   1.744
 1954SOL    HW1 1560   2.084   3.483   1.820
 1954SOL    HW2 1561   2.107   3.329   1.770
 1955SOL     OW 1562   2.533   2.326   1.269
 1955SOL    HW1 1563   2.499   2.237   1.239
 1955SOL    HW2 1564   2.559   2.380   1.189
 1956SOL     OW 1565   2.792   3.540   1.465
 1956SOL    HW1 1566   2.768   3.522   1.370
 1956SOL    HW2 1567   2.822   3.634   1.475
 1958SOL     OW 1568   2.021   2.999   1.466
 1958SOL    HW1 1569   2.043   2.938   1.542
 1958SOL    HW2 1570   2.031   2.950   1.380
 1959SOL     OW 1571   3.209   2.921   1.234
 1959SOL    HW1 1572   3.233   2.858   1.160
 1959SOL    HW2 1573   3.119   2.961   1.216
 1963SOL     OW 1574   1.945   3.120   1.022
 1963SOL    HW1 1575   1.940   3.119   1.122
 1963SOL    HW2 1576   1.862   3.079   0.984
 1964SOL     OW 1577   2.550   3.524   1.716
 1964SOL    HW1 1578   2.494   3.605   1.725
 1964SOL    HW2 1579   2.602   3.528   1.630
 1968SOL     OW 1580   1.992   3.656   1.851
 1968SOL    HW1 1581   1.951   3.582   1.904
 1968SOL    HW2 1582   2.056   3.707   1.909
 1970SOL     OW 1583   2.692   3.135   1.422
 1970SOL    HW1 1584   2.687   3.168   1.517
 1970SOL    HW2 1585   2.606   3.154   1.376
 1974SOL     OW 1586   2.125   2.188   0.720
 1974SOL    HW1 1587   2.046   2.239   0.686
 1974SOL    HW2 1588   2.116   2.173   0.818
 1976SOL     OW 1589   2.684   2.864   1.372
 1976SOL    HW1 1590   2.724   2.863   1.280
 1976SOL    HW2 1591   2.694   2.956   1.412
 1979SOL     OW 1592   2.234   3.150   1.490
 1979SOL    HW1 1593   2.221   3.243   1.456
 1979SOL    HW2 1594   2.150   3.098   1.477
 1980SOL     OW 1595   3.476   3.154   1.289
 1980SOL    HW1 1596   3.536   3.157   1.369
 1980SOL    HW2 1597   3.401   3.218   1.302
 1982SOL     OW 1598   2.876   2.098   0.971
 1982SOL    HW1 1599   2.868   2.062   0.878
 1982SOL    HW2 1600   2.874   2.022   1.036
 1984SOL     OW 1601   3.571   2.247   1.381
 1984SOL    HW1 1602   3.644   2.316   1.385
 1984SOL    HW2 1603   3.599   2.172   1.322
 1986SOL     OW 1604   1.967   2.875   1.726
 1986SOL    HW1 1605   1.890   2.842   1.780
 1986SOL    HW2 1606   2.052   2.845   1.768
 1987SOL     OW 1607   2.534   2.065   1.489
 1987SOL    HW1 1608   2.624   2.049   1.449
 1987SOL    HW2 1609   2.542   2.070   1.588
 1989SOL     OW 1610   3.302   2.718   1.398
 1989SOL    HW1 1611   3.245   2.770   1.335
 1989SOL    HW2 1612   3.398   2.730   1.374
 1992SOL     OW 1613   2.475   2.704   1.431
 1992SOL    HW1 1614   2.531   2.785   1.414
 1992SOL    HW2 1615   2.534   2.624   1.434
 1994SOL     OW 1616   2.578   2.427   1.708
 1994SOL    HW1 1617   2.597   2.492   1.782
 1994SOL    HW2 1618   2.638   2.347   1.717
 1995SOL     OW 1619   3.312   3.082   1.633
 1995SOL    HW1 1620   3.303   3.072   1.732
 1995SOL    HW2 1621   3.408   3.075   1.607
 1996SOL     OW 1622   2.252   3.603   1.560
 1996SOL    HW1 1623   2.161   3.644   1.558
 1996SOL    HW2 1624   2.245   3.509   1.592
 1997SOL     OW 1625   3.536   2.745   1.254
 1997SOL    HW1 1626   3.509   2.656   1.217
 1997SOL    HW2 1627   3.537   2.813   1.181
 1999SOL     OW 1628   2.456   2.607   0.652
 1999SOL    HW1 1629   2.506   2.692   0.633
 1999SOL    HW2 1630   2.368   2.609   0.604
 2000SOL     OW 1631   3.639   2.204   1.642
 2000SOL    HW1 1632   3.622   2.235   1.548
 2000SOL    HW2 1633   3.555   2.167   1.680
 2001SOL     OW 1634   3.592   2.796   1.517
 2001SOL    HW1 1635   3.630   2.887   1.532
 2001SOL    HW2 1636   3.584   2.779   1.418
 2004SOL     OW 1637   2.721   2.818   0.861
 2004SOL    HW1 1638   2.775   2.749   0.909
 2004SOL    HW2 1639   2.689   2.887   0.927
 2007SOL     OW 1640   2.083   3.176   1.844
 2007SOL    HW1 1641   2.018   3.103   1.823
 2007SOL    HW2 1642   2.087   3.190   1.942
 2009SOL     OW 1643   2.534   3.253   1.624
 2009SOL    HW1 1644   2.456   3.203   1.662
 2009SOL    HW2 1645   2.531   3.348   1.655
 2010SOL     OW 1646   3.686   2.054   1.227
 2010SOL    HW1 1647   3.682   1.964   1.271
 2010SOL    HW2 1648   3.689   2.043   1.128
 2011SOL     OW 1649   2.290   2.286   0.520
 2011SOL    HW1 1650   2.320   2.214   0.458
 2011SOL    HW2 1651   2.251   2.246   0.603
 2013SOL     OW 1652   2.179   2.409   1.280
 2013SOL    HW1 1653   2.217   2.350   1.352
 2013SOL    HW2 1654   2.219   2.383   1.192
 2015SOL     OW 1655   3.286   2.076   1.112
 2015SOL    HW1 1656   3.338   2.011   1.167
 2015SOL    HW2 1657   3.237   2.139   1.173
 2016SOL     OW 1658   2.863   1.896   1.154
 2016SOL    HW1 1659   2.800   1.824   1.123
 2016SOL    HW2 1660   2.956   1.860   1.154
 2018SOL     OW 1661   2.480   3.429   1.284
 2018SOL    HW1 1662   2.475   3.511   1.341
 2018SOL    HW2 1663   2.569   3.426   1.239
 2024SOL     OW 1664   2.092   2.490   1.975
 2024SOL    HW1 1665   1.999   2.488   2.012
 2024SOL    HW2 1666   2.093   2.451   1.883
 2025SOL     OW 1667   2.087   2.137   2.858
 2025SOL    HW1 1668   2.122   2.120   2.950
 2025SOL    HW2 1669   1.999   2.092   2.846
 2026SOL     OW 1670   1.881   2.230   2.509
 2026SOL    HW1 1671   1.799   2.273   2.548
 2026SOL    HW2 1672   1.853   2.157   2.446
 2027SOL     OW 1673   2.431   3.137   3.027
 2027SOL    HW1 1674   2.338   3.130   2.990
 2027SOL    HW2 1675   2.442   3.226   3.071
 2028SOL     OW 1676   3.417   3.373   2.565
 2028SOL    HW1 1677   3.360   3.357   2.646
 2028SOL    HW2 1678   3.358   3.383   2.485
 2029SOL     OW 1679   2.997   2.565   2.579
 2029SOL    HW1 1680   3.054   2.643   2.554
 2029SOL    HW2 1681   2.937   2.591   2.655
 2030SOL     OW 1682   3.617   2.469   2.093
 2030SOL    HW1 1683   3.605   2.456   1.994
 2030SOL    HW2 1684   3.587   2.388   2.142
 2031SOL     OW 1685   2.630   3.006   2.885
 2031SOL    HW1 1686   2.552   3.023   2.945
 2031SOL    HW2 1687   2.664   3.093   2.849
 2032SOL     OW 1688   2.712   2.660   3.685
 2032SOL    HW1 1689   2.708   2.736   3.750
 2032SOL    HW2 1690   2.734   2.696   3.594
 2033SOL     OW 1691   2.547   2.874   2.527
 2033SOL    HW1 1692   2.616   2.858   2.597
 2033SOL    HW2 1693   2.474   2.931   2.565
 2034SOL     OW 1694   2.548   3.023   3.665
 2034SOL    HW1 1695   2.608   3.102   3.679
 2034SOL    HW2 1696   2.462   3.054   3.624
 2035SOL     OW 1697   2.197   3.297   2.923
 2035SOL    HW1 1698   2.119   3.266   2.870
 2035SOL    HW2 1699   2.255   3.355   2.866
 2036SOL     OW 1700   3.322   3.367   3.201
 2036SOL    HW1 1701   3.346   3.461   3.227
 2036SOL    HW2 1702   3.306   3.313   3.283
 2037SOL     OW 1703   2.300   2.254   3.361
 2037SOL    HW1 1704   2.382   2.198   3.370
 2037SOL    HW2 1705   2.219   2.196   3.365
 2038SOL     OW 1706   3.465   2.309   2.599
 2038SOL    HW1 1707   3.391   2.355   2.549
 2038SOL    HW2 1708   3.516   2.377   2.652
 2039SOL     OW 1709   2.093   3.575   2.345
 2039SOL    HW1 1710   2.127   3.652   2.399
 2039SOL    HW2 1711   2.137   3.575   2.255
 2040SOL     OW 1712   2.989   3.203   3.552
 2040SOL    HW1 1713   3.036   3.203   3.640
 2040SOL    HW2 1714   2.941   3.116   3.541
 2041SOL     OW 1715   2.092   3.296   2.400
 2041SOL    HW1 1716   2.066   3.392   2.400
 2041SOL    HW2 1717   2.021   3.242   2.445
 2042SOL     OW 1718   2.102   2.953   2.748
 2042SOL    HW1 1719   2.116   2.869   2.800
 2042SOL    HW2 1720   2.047   3.017   2.803
 2043SOL     OW 1721   2.482   3.648   3.301
 2043SOL    HW1 1722   2.390   3.631   3.336
 2043SOL    HW2 1723   2.510   3.740   3.327
 2044SOL     OW 1724   2.468   2.826   1.985
 2044SOL    HW1 1725   2.475   2.910   1.931
 2044SOL    HW2 1726   2.514   2.839   2.073
 2045SOL     OW 1727   3.456   1.976   3.342
 2045SOL    HW1 1728   3.438   2.043   3.270
 2045SOL    HW2 1729   3.453   2.022   3.431
 2046SOL     OW 1730   1.984   2.505   2.425
 2046SOL    HW1 1731   1.939   2.417   2.442
 2046SOL    HW2 1732   1.983   2.559   2.509
 2048SOL     OW 1733   1.889   3.458   1.979
 2048SOL    HW1 1734   1.870   3.362   2.000
 2048SOL    HW2 1735   1.856   3.516   2.054
 2049SOL     OW 1736   3.551   2.784   2.474
 2049SOL    HW1 1737   3.646   2.755   2.482
 2049SOL    HW2 1738   3.543   2.849   2.399
 2050SOL     OW 1739   3.503   2.970   2.294
 2050SOL    HW1 1740   3.589   2.972   2.242
 2050SOL    HW2 1741   3.517   3.017   2.382
 2051SOL     OW 1742   1.975   2.599   3.459
 2051SOL    HW1 1743   2.063   2.586   3.504
 2051SOL    HW2 1744   1.962   2.696   3.437
 2052SOL     OW 1745   2.475   3.227   2.588
 2052SOL    HW1 1746   2.426   3.140   2.597
 2052SOL    HW2 1747   2.452   3.270   2.501
 2053SOL     OW 1748   3.155   3.090   3.285
 2053SOL    HW1 1749   3.192   3.017   3.227
 2053SOL    HW2 1750   3.207   3.095   3.370
 2054SOL     OW 1751   2.671   1.866   2.364
 2054SOL    HW1 1752   2.711   1.957   2.355
 2054SOL    HW2 1753   2.571   1.874   2.370
 2055SOL     OW 1754   2.059   2.838   3.126
 2055SOL    HW1 1755   2.148   2.793   3.112
 2055SOL    HW2 1756   1.986   2.773   3.107
 2056SOL     OW 1757   3.387   2.861   2.052
 2056SOL    HW1 1758   3.324   2.785   2.065
 2056SOL    HW2 1759   3.435   2.879   2.138
 2058SOL     OW 1760   2.179   2.113   3.663
 2058SOL    HW1 1761   2.250   2.184   3.669
 2058SOL    HW2 1762   2.091   2.152   3.691
 2059SOL     OW 1763   3.328   3.279   2.815
 2059SOL    HW1 1764   3.269   3.285   2.895
 2059SOL    HW2 1765   3.313   3.191   2.769
 2060SOL     OW 1766   3.529   3.576   2.434
 2060SOL    HW1 1767   3.488   3.553   2.346
 2060SOL    HW2 1768   3.511   3.502   2.499
 2061SOL     OW 1769   2.460   2.591   2.132
 2061SOL    HW1 1770   2.484   2.660   2.064
 2061SOL    HW2 1771   2.382   2.624   2.186
 2062SOL     OW 1772   3.143   2.207   2.806
 2062SOL    HW1 1773   3.057   2.157   2.793
 2062SOL    HW2 1774   3.205   2.153   2.862
 2063SOL     OW 1775   3.438   3.524   2.169
 2063SOL    HW1 1776   3.527   3.570   2.172
 2063SOL    HW2 1777   3.417   3.500   2.074
 2064SOL     OW 1778   2.669   2.467   3.327
 2064SOL    HW1 1779   2.622   2.464   3.416
 2064SOL    HW2 1780   2.618   2.412   3.261
 2065SOL     OW 1781   3.256   2.331   3.536
 2065SOL    HW1 1782   3.236   2.374   3.624
 2065SOL    HW2 1783   3.334   2.269   3.545
 2066SOL     OW 1784   2.835   2.752   3.434
 2066SOL    HW1 1785   2.881   2.668   3.405
 2066SOL    HW2 1786   2.779   2.786   3.359
 2067SOL     OW 1787   2.853   2.272   3.104
 2067SOL    HW1 1788   2.776   2.306   3.158
 2067SOL    HW2 1789   2.819   2.221   3.025
 2068SOL     OW 1790   2.903   2.563   2.291
 2068SOL    HW1 1791   2.929   2.559   2.387
 2068SOL    HW2 1792   2.818   2.512   2.277
 2069SOL     OW 1793   1.938   2.673   2.651
 2069SOL    HW1 1794   2.037   2.661   2.660
 2069SOL    HW2 1795   1.914   2.768   2.672
 2071SOL     OW 1796   2.727   2.210   2.057
 2071SOL    HW1 1797   2.786   2.273   2.008
 2071SOL    HW2 1798   2.746   2.116   2.028
 2073SOL     OW 1799   3.224   3.006   2.407
 2073SOL    HW1 1800   3.307   2.977   2.359
 2073SOL    HW2 1801   3.175   3.073   2.351
 2074SOL     OW 1802   2.412   2.058   2.747
 2074SOL    HW1 1803   2.407   2.053   2.847
 2074SOL    HW2 1804   2.414   2.154   2.718
 2075SOL     OW 1805   2.870   3.318   2.339
 2075SOL    HW1 1806   2.824   3.390   2.287
 2075SOL    HW2 1807   2.866   3.338   2.437
 2076SOL     OW 1808   2.213   3.663   2.715
 2076SOL    HW1 1809   2.263   3.577   2.721
 2076SOL    HW2 1810   2.278   3.740   2.712
 2077SOL     OW 1811   3.657   2.928   2.735
 2077SOL    HW1 1812   3.595   2.913   2.659
 2077SOL    HW2 1813   3.605   2.939   2.820
 2078SOL     OW 1814   3.089   3.412   3.368
 2078SOL    HW1 1815   3.095   3.335   3.432
 2078SOL    HW2 1816   3.037   3.386   3.288
 2079SOL     OW 1817   2.183   2.805   2.104
 2079SOL    HW1 1818   2.265   2.844   2.062
 2079SOL    HW2 1819   2.156   2.723   2.055
 2080SOL     OW 1820   3.320   2.597   2.590
 2080SOL    HW1 1821   3.315   2.532   2.665
 2080SOL    HW2 1822   3.400   2.656   2.603
 2081SOL     OW 1823   2.323   3.128   3.589
 2081SOL    HW1 1824   2.273   3.129   3.503
 2081SOL    HW2 1825   2.260   3.110   3.665
 2082SOL     OW 1826   2.973   3.638   2.099
 2082SOL    HW1 1827   2.913   3.576   2.149
 2082SOL    HW2 1828   3.004   3.594   2.014
 2083SOL     OW 1829   2.064   2.147   3.360
 2083SOL    HW1 1830   1.984   2.207   3.347
 2083SOL    HW2 1831   2.054   2.098   3.446
 2084SOL     OW 1832   3.494   3.239   1.943
 2084SOL    HW1 1833   3.462   3.333   1.933
 2084SOL    HW2 1834   3.418   3.176   1.931
 2085SOL     OW 1835   2.326   3.605   2.185
 2085SOL    HW1 1836   2.359   3.644   2.271
 2085SOL    HW2 1837   2.402   3.598   2.120
 2086SOL     OW 1838   3.262   1.969   2.288
 2086SOL    HW1 1839   3.238   1.932   2.198
 2086SOL    HW2 1840   3.361   1.985   2.292
 2087SOL     OW 1841   2.111   3.647   3.103
 2087SOL    HW1 1842   2.168   3.582   3.153
 2087SOL    HW2 1843   2.095   3.614   3.010
 2088SOL     OW 1844   2.802   3.560   2.766
 2088SOL    HW1 1845   2.882   3.503   2.787
 2088SOL    HW2 1846   2.753   3.520   2.689
 2089SOL     OW 1847   3.409   2.084   3.591
 2089SOL    HW1 1848   3.404   2.121   3.683
 2089SOL    HW2 1849   3.337   2.015   3.579
 2090SOL     OW 1850   2.476   1.984   1.979
 2090SOL    HW1 1851   2.574   1.962   1.986
 2090SOL    HW2 1852   2.445   1.967   1.886
 2091SOL     OW 1853   2.643   2.126   3.611
 2091SOL    HW1 1854   2.710   2.065   3.654
 2091SOL    HW2 1855   2.570   2.145   3.676
 2092SOL     OW 1856   2.750   3.376   3.057
 2092SOL    HW1 1857   2.727   3.351   2.963
 2092SOL    HW2 1858   2.811   3.307   3.096
 2093SOL     OW 1859   3.213   2.452   3.295
 2093SOL    HW1 1860   3.241   2.409   3.380
 2093SOL    HW2 1861   3.238   2.548   3.296
 2094SOL     OW 1862   2.665   3.264   2.786
 2094SOL    HW1 1863   2.755   3.278   2.744
 2094SOL    HW2 1864   2.594   3.266   2.715
 2095SOL     OW 1865   2.784   2.365   2.761
 2095SOL    HW1 1866   2.759   2.356   2.665
 2095SOL    HW2 1867   2.832   2.283   2.792
 2096SOL     OW 1868   2.401   1.926   2.374
 2096SOL    HW1 1869   2.320   1.927   2.432
 2096SOL    HW2 1870   2.404   2.009   2.319
 2097SOL     OW 1871   3.296   3.050   1.903
 2097SOL    HW1 1872   3.328   2.974   1.960
 2097SOL    HW2 1873   3.204   3.077   1.933
 2098SOL     OW 1874   2.159   1.897   2.033
 2098SOL    HW1 1875   2.208   1.981   2.012
 2098SOL    HW2 1876   2.221   1.832   2.078
 2099SOL     OW 1877   2.797   2.098   2.342
 2099SOL    HW1 1878   2.749   2.139   2.264
 2099SOL    HW2 1879   2.896   2.096   2.323
 2100SOL     OW 1880   2.938   2.545   3.326
 2100SOL    HW1 1881   2.858   2.484   3.329
 2100SOL    HW2 1882   3.019   2.492   3.302
 2101SOL     OW 1883   3.089   3.432   2.655
 2101SOL    HW1 1884   3.110   3.506   2.590
 2101SOL    HW2 1885   3.157   3.432   2.728
 2102SOL     OW 1886   2.321   3.014   2.603
 2102SOL    HW1 1887   2.250   2.987   2.668
 2102SOL    HW2 1888   2.295   2.986   2.510
 2103SOL     OW 1889   3.133   3.659   2.453
 2103SOL    HW1 1890   3.177   3.723   2.389
 2103SOL    HW2 1891   3.083   3.711   2.523
 2104SOL     OW 1892   2.894   2.411   1.878
 2104SOL    HW1 1893   2.853   2.493   1.839
 2104SOL    HW2 1894   2.958   2.437   1.951
 2105SOL     OW 1895   1.940   2.418   3.248
 2105SOL    HW1 1896   2.032   2.417   3.207
 2105SOL    HW2 1897   1.934   2.492   3.315
 2106SOL     OW 1898   2.423   2.084   3.009
 2106SOL    HW1 1899   2.461   2.000   3.046
 2106SOL    HW2 1900   2.335   2.103   3.053
 2107SOL     OW 1901   2.879   1.901   2.615
 2107SOL    HW1 1902   2.807   1.906   2.546
 2107SOL    HW2 1903   2.855   1.832   2.684
 2108SOL     OW 1904   3.291   3.035   2.729
 2108SOL    HW1 1905   3.236   2.951   2.722
 2108SOL    HW2 1906   3.317   3.064   2.637
 2109SOL     OW 1907   3.328   2.452   2.854
 2109SOL    HW1 1908   3.298   2.357   2.861
 2109SOL    HW2 1909   3.401   2.468   2.920
 2110SOL     OW 1910   3.719   2.695   2.239
 2110SOL    HW1 1911   3.761   2.631   2.303
 2110SOL    HW2 1912   3.681   2.644   2.161
 2111SOL     OW 1913   2.350   3.247   2.036
 2111SOL    HW1 1914   2.263   3.232   2.083
 2111SOL    HW2 1915   2.333   3.273   1.941
 2112SOL     OW 1916   3.526   3.142   2.519
 2112SOL    HW1 1917   3.625   3.150   2.533
 2112SOL    HW2 1918   3.481   3.226   2.550
 2113SOL     OW 1919   3.252   2.437   1.940
 2113SOL    HW1 1920   3.198   2.416   2.021
 2113SOL    HW2 1921   3.343   2.396   1.949
 2114SOL     OW 1922   2.389   2.118   2.190
 2114SOL    HW1 1923   2.416   2.059   2.115
 2114SOL    HW2 1924   2.389   2.213   2.159
 2116SOL     OW 1925   2.926   3.209   3.202
 2116SOL    HW1 1926   2.846   3.186   3.257
 2116SOL    HW2 1927   3.009   3.183   3.251
 2118SOL     OW 1928   2.973   3.057   2.962
 2118SOL    HW1 1929   2.933   3.101   3.043
 2118SOL    HW2 1930   2.932   3.094   2.879
 2119SOL     OW 1931   3.500   2.961   2.941
 2119SOL    HW1 1932   3.505   3.042   3.000
 2119SOL    HW2 1933   3.414   2.963   2.890
 2120SOL     OW 1934   2.777   1.951   3.264
 2120SOL    HW1 1935   2.802   1.931   3.169
 2120SOL    HW2 1936   2.849   2.007   3.306
 2121SOL     OW 1937   2.842   2.978   3.581
 2121SOL    HW1 1938   2.743   2.984   3.591
 2121SOL    HW2 1939   2.865   2.898   3.525
 2122SOL     OW 1940   2.567   2.912   2.230
 2122SOL    HW1 1941   2.553   2.919   2.329
 2122SOL    HW2 1942   2.651   2.861   2.212
 2123SOL     OW 1943   2.272   2.675   3.113
 2123SOL    HW1 1944   2.358   2.687   3.163
 2123SOL    HW2 1945   2.230   2.588   3.140
 2124SOL     OW 1946   3.136   2.248   3.124
 2124SOL    HW1 1947   3.157   2.322   3.188
 2124SOL    HW2 1948   3.047   2.265   3.081
 2125SOL     OW 1949   1.926   3.426   3.193
 2125SOL    HW1 1950   1.880   3.508   3.159
 2125SOL    HW2 1951   2.024   3.445   3.202
 2126SOL     OW 1952   2.229   2.962   2.363
 2126SOL    HW1 1953   2.222   3.045   2.307
 2126SOL    HW2 1954   2.233   2.882   2.303
 2127SOL     OW 1955   2.428   2.399   2.727
 2127SOL    HW1 1956   2.440   2.465   2.653
 2127SOL    HW2 1957   2.474   2.433   2.810
 2128SOL     OW 1958   3.114   3.210   2.250
 2128SOL    HW1 1959   3.164   3.287   2.290
 2128SOL    HW2 1960   3.019   3.212   2.282
 2129SOL     OW 1961   3.134   3.307   3.004
 2129SOL    HW1 1962   3.181   3.320   3.091
 2129SOL    HW2 1963   3.068   3.233   3.013
 2130SOL     OW 1964   3.444   2.501   2.334
 2130SOL    HW1 1965   3.413   2.562   2.407
 2130SOL    HW2 1966   3.494   2.553   2.265
 2131SOL     OW 1967   2.216   3.372   3.191
 2131SOL    HW1 1968   2.195   3.328   3.104
 2131SOL    HW2 1969   2.313   3.398   3.194
 2132SOL     OW 1970   2.264   2.613   3.460
 2132SOL    HW1 1971   2.332   2.668   3.413
 2132SOL    HW2 1972   2.304   2.525   3.487
 2133SOL     OW 1973   3.449   2.641   3.532
 2133SOL    HW1 1974   3.357   2.679   3.527
 2133SOL    HW2 1975   3.509   2.688   3.467
 2134SOL     OW 1976   2.875   1.967   3.632
 2134SOL    HW1 1977   2.881   2.052   3.580
 2134SOL    HW2 1978   2.907   1.891   3.575
 2135SOL     OW 1979   2.366   1.912   3.602
 2135SOL    HW1 1980   2.324   1.855   3.532
 2135SOL    HW2 1981   2.300   1.981   3.634
 2136SOL     OW 1982   2.435   2.732   2.891
 2136SOL    HW1 1983   2.479   2.821   2.882
 2136SOL    HW2 1984   2.372   2.732   2.968
 2137SOL     OW 1985   3.222   2.724   2.907
 2137SOL    HW1 1986   3.147   2.724   2.841
 2137SOL    HW2 1987   3.259   2.632   2.916
 2138SOL     OW 1988   3.071   2.387   2.137
 2138SOL    HW1 1989   3.084   2.303   2.191
 2138SOL    HW2 1990   3.042   2.461   2.197
 2139SOL     OW 1991   2.169   2.075   3.093
 2139SOL    HW1 1992   2.146   2.112   3.183
 2139SOL    HW2 1993   2.139   1.980   3.087
 2140SOL     OW 1994   1.899   3.172   3.144
 2140SOL    HW1 1995   1.952   3.123   3.212
 2140SOL    HW2 1996   1.921   3.270   3.149
 2141SOL     OW 1997   2.594   2.496   2.926
 2141SOL    HW1 1998   2.653   2.470   2.850
 2141SOL    HW2 1999   2.566   2.592   2.915
 2143SOL     OW 2000   2.169   1.925   2.480
 2143SOL    HW1 2001   2.158   2.019   2.513
 2143SOL    HW2 2002   2.164   1.862   2.557
 2144SOL     OW 2003   3.484   2.229   2.236
 2144SOL    HW1 2004   3.486   2.153   2.300
 2144SOL    HW2 2005   3.436   2.306   2.276
 2145SOL     OW 2006   2.885   2.628   2.828
 2145SOL    HW1 2007   2.900   2.649   2.924
 2145SOL    HW2 2008   2.855   2.533   2.819
 2146SOL     OW 2009   2.842   3.435   3.562
 2146SOL    HW1 2010   2.822   3.479   3.474
 2146SOL    HW2 2011   2.881   3.344   3.546
 2148SOL     OW 2012   2.212   2.760   3.666
 2148SOL    HW1 2013   2.288   2.804   3.714
 2148SOL    HW2 2014   2.247   2.713   3.584
 2149SOL     OW 2015   3.402   2.136   1.987
 2149SOL    HW1 2016   3.341   2.061   2.010
 2149SOL    HW2 2017   3.424   2.188   2.070
 2150SOL     OW 2018   3.165   2.700   1.904
 2150SOL    HW1 2019   3.199   2.607   1.919
 2150SOL    HW2 2020   3.183   2.727   1.809
 2151SOL     OW 2021   2.930   3.195   2.711
 2151SOL    HW1 2022   2.937   3.111   2.656
 2151SOL    HW2 2023   2.992   3.264   2.675
 2152SOL     OW 2024   2.181   2.672   2.811
 2152SOL    HW1 2025   2.274   2.708   2.816
 2152SOL    HW2 2026   2.175   2.587   2.863
 2153SOL     OW 2027   2.201   2.371   2.868
 2153SOL    HW1 2028   2.149   2.288   2.851
 2153SOL    HW2 2029   2.278   2.376   2.804
 2154SOL     OW 2030   3.000   2.242   3.540
 2154SOL    HW1 2031   2.955   2.305   3.604
 2154SOL    HW2 2032   3.093   2.273   3.523
 2155SOL     OW 2033   3.022   2.069   3.339
 2155SOL    HW1 2034   3.022   2.133   3.416
 2155SOL    HW2 2035   3.050   2.117   3.256
 2156SOL     OW 2036   1.870   3.188   2.062
 2156SOL    HW1 2037   1.777   3.209   2.031
 2156SOL    HW2 2038   1.880   3.089   2.075
 2157SOL     OW 2039   1.950   3.663   2.789
 2157SOL    HW1 2040   1.908   3.577   2.762
 2157SOL    HW2 2041   2.044   3.666   2.755
 2158SOL     OW 2042   2.366   3.430   2.772
 2158SOL    HW1 2043   2.432   3.504   2.781
 2158SOL    HW2 2044   2.410   3.351   2.730
 2159SOL     OW 2045   2.864   2.658   3.100
 2159SOL    HW1 2046   2.905   2.626   3.186
 2159SOL    HW2 2047   2.768   2.631   3.097
 2160SOL     OW 2048   1.902   2.406   2.976
 2160SOL    HW1 2049   1.987   2.373   2.935
 2160SOL    HW2 2050   1.915   2.421   3.074
 2161SOL     OW 2051   2.051   2.382   3.584
 2161SOL    HW1 2052   2.110   2.342   3.514
 2161SOL    HW2 2053   1.993   2.453   3.543
 2162SOL     OW 2054   3.231   2.812   3.522
 2162SOL    HW1 2055   3.270   2.901   3.542
 2162SOL    HW2 2056   3.241   2.792   3.425
 2163SOL     OW 2057   3.519   2.466   3.068
 2163SOL    HW1 2058   3.481   2.397   3.130
 2163SOL    HW2 2059   3.601   2.430   3.024
 2164SOL     OW 2060   2.114   3.426   3.606
 2164SOL    HW1 2061   2.084   3.483   3.682
 2164SOL    HW2 2062   2.107   3.329   3.632
 2165SOL     OW 2063   2.533   2.326   3.131
 2165SOL    HW1 2064   2.499   2.237   3.101
 2165SOL    HW2 2065   2.559   2.380   3.051
 2166SOL     OW 2066   2.792   3.540   3.327
 2166SOL    HW1 2067   2.768   3.522   3.232
 2166SOL    HW2 2068   2.822   3.634   3.337
 2167SOL     OW 2069   2.021   2.999   3.328
 2167SOL    HW1 2070   2.043   2.938   3.404
 2167SOL    HW2 2071   2.031   2.950   3.242
 2168SOL     OW 2072   3.209   2.921   3.096
 2168SOL    HW1 2073   3.233   2.858   3.022
 2168SOL    HW2 2074   3.119   2.961   3.078
 2169SOL     OW 2075   3.164   2.717   2.171
 2169SOL    HW1 2076   3.078   2.686   2.213
 2169SOL    HW2 2077   3.160   2.703   2.072
 2171SOL     OW 2078   3.114   3.593   2.990
 2171SOL    HW1 2079   3.198   3.598   2.936
 2171SOL    HW2 2080   3.091   3.497   3.008
 2172SOL     OW 2081   1.945   3.120   2.884
 2172SOL    HW1 2082   1.940   3.119   2.984
 2172SOL    HW2 2083   1.862   3.079   2.846
 2173SOL     OW 2084   2.550   3.524   3.578
 2173SOL    HW1 2085   2.494   3.605   3.587
 2173SOL    HW2 2086   2.602   3.528   3.492
 2174SOL     OW 2087   3.588   1.997   2.385
 2174SOL    HW1 2088   3.661   1.980   2.318
 2174SOL    HW2 2089   3.557   1.910   2.423
 2175SOL     OW 2090   3.250   3.435   2.339
 2175SOL    HW1 2091   3.317   3.447   2.265
 2175SOL    HW2 2092   3.210   3.524   2.362
 2177SOL     OW 2093   3.142   2.789   2.534
 2177SOL    HW1 2094   3.202   2.708   2.536
 2177SOL    HW2 2095   3.182   2.858   2.474
 2178SOL     OW 2096   2.692   3.135   3.284
 2178SOL    HW1 2097   2.687   3.168   3.379
 2178SOL    HW2 2098   2.606   3.154   3.238
 2179SOL     OW 2099   2.534   3.478   2.016
 2179SOL    HW1 2100   2.543   3.488   1.917
 2179SOL    HW2 2101   2.494   3.389   2.037
 2181SOL     OW 2102   3.703   2.037   2.825
 2181SOL    HW1 2103   3.742   1.952   2.789
 2181SOL    HW2 2104   3.605   2.039   2.806
 2182SOL     OW 2105   3.056   3.474   1.893
 2182SOL    HW1 2106   3.062   3.381   1.930
 2182SOL    HW2 2107   2.997   3.474   1.813
 2183SOL     OW 2108   2.684   2.864   3.234
 2183SOL    HW1 2109   2.724   2.863   3.142
 2183SOL    HW2 2110   2.694   2.956   3.274
 2184SOL     OW 2111   2.778   2.772   2.153
 2184SOL    HW1 2112   2.841   2.810   2.085
 2184SOL    HW2 2113   2.818   2.689   2.192
 2185SOL     OW 2114   3.366   3.469   1.906
 2185SOL    HW1 2115   3.274   3.506   1.913
 2185SOL    HW2 2116   3.404   3.489   1.816
 2186SOL     OW 2117   2.234   3.150   3.352
 2186SOL    HW1 2118   2.221   3.243   3.318
 2186SOL    HW2 2119   2.150   3.098   3.339
 2187SOL     OW 2120   3.476   3.154   3.151
 2187SOL    HW1 2121   3.536   3.157   3.231
 2187SOL    HW2 2122   3.401   3.218   3.164
 2188SOL     OW 2123   2.901   2.960   2.558
 2188SOL    HW1 2124   2.831   2.913   2.612
 2188SOL    HW2 2125   2.960   2.892   2.515
 2189SOL     OW 2126   2.876   2.098   2.833
 2189SOL    HW1 2127   2.868   2.062   2.740
 2189SOL    HW2 2128   2.874   2.022   2.898
 2190SOL     OW 2129   2.452   3.349   2.353
 2190SOL    HW1 2130   2.494   3.291   2.283
 2190SOL    HW2 2131   2.408   3.428   2.309
 2191SOL     OW 2132   3.571   2.247   3.243
 2191SOL    HW1 2133   3.644   2.316   3.247
 2191SOL    HW2 2134   3.599   2.172   3.184
 2192SOL     OW 2135   2.117   3.210   2.152
 2192SOL    HW1 2136   2.021   3.211   2.125
 2192SOL    HW2 2137   2.129   3.263   2.236
 2193SOL     OW 2138   1.967   2.875   3.588
 2193SOL    HW1 2139   1.890   2.842   3.642
 2193SOL    HW2 2140   2.052   2.845   3.630
 2194SOL     OW 2141   2.534   2.065   3.351
 2194SOL    HW1 2142   2.624   2.049   3.311
 2194SOL    HW2 2143   2.542   2.070   3.450
 2195SOL     OW 2144   1.937   2.207   1.895
 2195SOL    HW1 2145   1.845   2.179   1.866
 2195SOL    HW2 2146   1.968   2.284   1.839
 2196SOL     OW 2147   3.302   2.718   3.260
 2196SOL    HW1 2148   3.245   2.770   3.197
 2196SOL    HW2 2149   3.398   2.730   3.236
 2197SOL     OW 2150   1.934   2.028   2.180
 2197SOL    HW1 2151   1.917   2.111   2.126
 2197SOL    HW2 2152   2.024   1.991   2.158
 2198SOL     OW 2153   3.045   3.197   1.981
 2198SOL    HW1 2154   2.946   3.186   1.983
 2198SOL    HW2 2155   3.079   3.212   2.074
 2199SOL     OW 2156   2.475   2.704   3.293
 2199SOL    HW1 2157   2.531   2.785   3.276
 2199SOL    HW2 2158   2.534   2.624   3.296
 2200SOL     OW 2159   3.355   3.629   2.821
 2200SOL    HW1 2160   3.388   3.693   2.752
 2200SOL    HW2 2161   3.421   3.623   2.896
 2201SOL     OW 2162   2.578   2.427   3.570
 2201SOL    HW1 2163   2.597   2.492   3.644
 2201SOL    HW2 2164   2.638   2.347   3.579
 2202SOL     OW 2165   3.312   3.082   3.495
 2202SOL    HW1 2166   3.303   3.072   3.594
 2202SOL    HW2 2167   3.408   3.075   3.469
 2203SOL     OW 2168   2.252   3.603   3.422
 2203SOL    HW1 2169   2.161   3.644   3.420
 2203SOL    HW2 2170   2.245   3.509   3.454
 2204SOL     OW 2171   3.536   2.745   3.116
 2204SOL    HW1 2172   3.509   2.656   3.079
 2204SOL    HW2 2173   3.537   2.813   3.043
 2205SOL     OW 2174   3.087   2.187   2.311
 2205SOL    HW1 2175   3.152   2.113   2.300
 2205SOL    HW2 2176   3.107   2.237   2.395
 2206SOL     OW 2177   2.456   2.607   2.514
 2206SOL    HW1 2178   2.506   2.692   2.495
 2206SOL    HW2 2179   2.368   2.609   2.466
 2208SOL     OW 2180   3.592   2.796   3.379
 2208SOL    HW1 2181   3.630   2.887   3.394
 2208SOL    HW2 2182   3.584   2.779   3.280
 2209SOL     OW 2183   2.721   3.236   1.878
 2209SOL    HW1 2184   2.675   3.251   1.966
 2209SOL    HW2 2185   2.765   3.321   1.848
 2210SOL     OW 2186   2.523   3.652   2.815
 2210SOL    HW1 2187   2.477   3.740   2.802
 2210SOL    HW2 2188   2.622   3.664   2.808
 2211SOL     OW 2189   2.721   2.818   2.723
 2211SOL    HW1 2190   2.775   2.749   2.771
 2211SOL    HW2 2191   2.689   2.887   2.789
 2212SOL     OW 2192   2.945   2.846   1.949
 2212SOL    HW1 2193   2.922   2.899   1.867
 2212SOL    HW2 2194   3.026   2.790   1.930
 2214SOL     OW 2195   2.083   3.176   3.706
 2214SOL    HW1 2196   2.018   3.103   3.685
 2214SOL    HW2 2197   2.087   3.190   3.804
 2215SOL     OW 2198   1.941   3.102   2.515
 2215SOL    HW1 2199   1.940   3.055   2.603
 2215SOL    HW2 2200   2.023   3.074   2.464
 2216SOL     OW 2201   2.534   3.253   3.486
 2216SOL    HW1 2202   2.456   3.203   3.524
 2216SOL    HW2 2203   2.531   3.348   3.517
 2217SOL     OW 2204   3.686   2.054   3.089
 2217SOL    HW1 2205   3.682   1.964   3.133
 2217SOL    HW2 2206   3.689   2.043   2.990
 2218SOL     OW 2207   3.567   3.349   2.966
 2218SOL    HW1 2208   3.474   3.324   2.939
 2218SOL    HW2 2209   3.593   3.299   3.048
 2219SOL     OW 2210   2.179   2.409   3.142
 2219SOL    HW1 2211   2.217   2.350   3.214
 2219SOL    HW2 2212   2.219   2.383   3.054
 2220SOL     OW 2213   2.674   3.448   2.549
 2220SOL    HW1 2214   2.706   3.458   2.455
 2220SOL    HW2 2215   2.595   3.386   2.551
 2221SOL     OW 2216   3.286   2.076   2.974
 2221SOL    HW1 2217   3.338   2.011   3.029
 2221SOL    HW2 2218   3.237   2.139   3.035
 2222SOL     OW 2219   2.863   1.896   3.016
 2222SOL    HW1 2220   2.800   1.824   2.985
 2222SOL    HW2 2221   2.956   1.860   3.016
 2223SOL     OW 2222   2.632   3.192   2.163
 2223SOL    HW1 2223   2.586   3.105   2.180
 2223SOL    HW2 2224   2.723   3.189   2.204
 2224SOL     OW 2225   2.480   3.429   3.146
 2224SOL    HW1 2226   2.475   3.511   3.203
 2224SOL    HW2 2227   2.569   3.426   3.101
 2225SOL     OW 2228   3.214   1.914   2.030
 2225SOL    HW1 2229   3.249   1.873   1.946
 2225SOL    HW2 2230   3.124   1.876   2.050
 2226SOL     OW 2231   3.162   2.315   2.553
 2226SOL    HW1 2232   3.103   2.395   2.557
 2226SOL    HW2 2233   3.177   2.280   2.646
 2227SOL     OW 2234   3.455   2.083   2.744
 2227SOL    HW1 2235   3.371   2.082   2.798
 2227SOL    HW2 2236   3.457   2.166   2.688
 2228SOL     OW 2237   1.901   2.939   2.162
 2228SOL    HW1 2238   2.000   2.928   2.153
 2228SOL    HW2 2239   1.861   2.853   2.194
 2229SOL     OW 2240   2.737   3.508   2.199
 2229SOL    HW1 2241   2.660   3.473   2.145
 2229SOL    HW2 2242   2.705   3.579   2.261
 2230SOL     OW 2243   2.092   2.490   3.837
 2230SOL    HW1 2244   1.999   2.488   3.874
 2230SOL    HW2 2245   2.093   2.451   3.745
 2241SOL     OW 2246   2.468   2.826   3.847
 2241SOL    HW1 2247   2.475   2.910   3.793
 2241SOL    HW2 2248   2.514   2.839   3.935
 2251SOL     OW 2249   2.460   2.591   3.994
 2251SOL    HW1 2250   2.484   2.660   3.926
 2251SOL    HW2 2251   2.382   2.624   4.048
 2256SOL     OW 2252   2.727   2.210   3.919
 2256SOL    HW1 2253   2.786   2.273   3.870
 2256SOL    HW2 2254   2.746   2.116   3.890
 2261SOL     OW 2255   2.183   2.805   3.966
 2261SOL    HW1 2256   2.265   2.844   3.924
 2261SOL    HW2 2257   2.156   2.723   3.917
 2269SOL     OW 2258   2.476   1.984   3.841
 2269SOL    HW1 2259   2.574   1.962   3.848
 2269SOL    HW2 2260   2.445   1.967   3.748
 2272SOL     OW 2261   2.159   1.897   3.895
 2272SOL    HW1 2262   2.208   1.981   3.874
 2272SOL    HW2 2263   2.221   1.832   3.940
 2276SOL     OW 2264   2.894   2.411   3.740
 2276SOL    HW1 2265   2.853   2.493   3.701
 2276SOL    HW2 2266   2.958   2.437   3.813
 2282SOL     OW 2267   3.252   2.437   3.802
 2282SOL    HW1 2268   3.198   2.416   3.883
 2282SOL    HW2 2269   3.343   2.396   3.811
 2283SOL     OW 2270   2.389   2.118   4.052
 2283SOL    HW1 2271   2.416   2.059   3.977
 2283SOL    HW2 2272   2.389   2.213   4.021
 2292SOL     OW 2273   3.165   2.700   3.766
 2292SOL    HW1 2274   3.199   2.607   3.781
 2292SOL    HW2 2275   3.183   2.727   3.671
 2295SOL     OW 2276   2.335   2.362   3.915
 2295SOL    HW1 2277   2.396   2.442   3.919
 2295SOL    HW2 2278   2.240   2.393   3.922
 2309SOL     OW 2279   1.937   2.207   3.757
 2309SOL    HW1 2280   1.845   2.179   3.728
 2309SOL    HW2 2281   1.968   2.284   3.701
 2314SOL     OW 2282   2.721   3.236   3.740
 2314SOL    HW1 2283   2.675   3.251   3.828
 2314SOL    HW2 2284   2.765   3.321   3.710
 2317SOL     OW 2285   2.945   2.846   3.811
 2317SOL    HW1 2286   2.922   2.899   3.729
 2317SOL    HW2 2287   3.026   2.790   3.792
 2340SOL     OW 2288   2.179   3.975   1.801
 2340SOL    HW1 2289   2.250   4.046   1.807
 2340SOL    HW2 2290   2.091   4.014   1.829
 2378SOL     OW 2291   2.875   3.829   1.770
 2378SOL    HW1 2292   2.881   3.914   1.718
 2378SOL    HW2 2293   2.907   3.753   1.713
 2379SOL     OW 2294   2.366   3.774   1.740
 2379SOL    HW1 2295   2.324   3.717   1.670
 2379SOL    HW2 2296   2.300   3.843   1.772
 2436SOL     OW 2297   2.671   3.728   2.364
 2436SOL    HW1 2298   2.711   3.819   2.355
 2436SOL    HW2 2299   2.571   3.736   2.370
 2446SOL     OW 2300   2.412   3.920   2.747
 2446SOL    HW1 2301   2.407   3.915   2.847
 2446SOL    HW2 2302   2.414   4.016   2.718
 2452SOL     OW 2303   2.476   3.846   1.979
 2452SOL    HW1 2304   2.574   3.824   1.986
 2452SOL    HW2 2305   2.445   3.829   1.886
 2456SOL     OW 2306   2.401   3.788   2.374
 2456SOL    HW1 2307   2.320   3.789   2.432
 2456SOL    HW2 2308   2.404   3.871   2.319
 2457SOL     OW 2309   2.159   3.759   2.033
 2457SOL    HW1 2310   2.208   3.843   2.012
 2457SOL    HW2 2311   2.221   3.694   2.078
 2458SOL     OW 2312   2.797   3.960   2.342
 2458SOL    HW1 2313   2.749   4.001   2.264
 2458SOL    HW2 2314   2.896   3.958   2.323
 2464SOL     OW 2315   2.879   3.763   2.615
 2464SOL    HW1 2316   2.807   3.768   2.546
 2464SOL    HW2 2317   2.855   3.694   2.684
 2468SOL     OW 2318   2.389   3.980   2.190
 2468SOL    HW1 2319   2.416   3.921   2.115
 2468SOL    HW2 2320   2.389   4.075   2.159
 2483SOL     OW 2321   2.169   3.787   2.480
 2483SOL    HW1 2322   2.158   3.881   2.513
 2483SOL    HW2 2323   2.164   3.724   2.557
 2499SOL     OW 2324   2.125   4.050   2.582
 2499SOL    HW1 2325   2.046   4.101   2.548
 2499SOL    HW2 2326   2.116   4.035   2.680
 2507SOL     OW 2327   1.934   3.890   2.180
 2507SOL    HW1 2328   1.917   3.973   2.126
 2507SOL    HW2 2329   2.024   3.853   2.158
 2518SOL     OW 2330   2.863   3.758   3.016
 2518SOL    HW1 2331   2.800   3.686   2.985
 2518SOL    HW2 2332   2.956   3.722   3.016
 2519SOL     OW 2333   3.214   3.776   2.030
 2519SOL    HW1 2334   3.249   3.735   1.946
 2519SOL    HW2 2335   3.124   3.738   2.050
 2592SOL     OW 2336   3.854   1.821   1.571
 2592SOL    HW1 2337   3.844   1.806   1.670
 2592SOL    HW2 2338   3.768   1.857   1.535
 2640SOL     OW 2339   3.854   1.794   1.851
 2640SOL    HW1 2340   3.813   1.720   1.904
 2640SOL    HW2 2341   3.918   1.845   1.909
 2674SOL     OW 2342   3.955   1.713   2.345
 2674SOL    HW1 2343   3.989   1.790   2.399
 2674SOL    HW2 2344   3.999   1.713   2.255
 2680SOL     OW 2345   3.751   1.596   1.979
 2680SOL    HW1 2346   3.732   1.500   2.000
 2680SOL    HW2 2347   3.718   1.654   2.054
 2724SOL     OW 2348   3.732   1.326   2.062
 2724SOL    HW1 2349   3.639   1.347   2.031
 2724SOL    HW2 2350   3.742   1.227   2.075
 2725SOL     OW 2351   3.812   1.801   2.789
 2725SOL    HW1 2352   3.770   1.715   2.762
 2725SOL    HW2 2353   3.906   1.804   2.755
 2821SOL     OW 2354   3.837   2.599   1.597
 2821SOL    HW1 2355   3.925   2.586   1.642
 2821SOL    HW2 2356   3.824   2.696   1.575
 2842SOL     OW 2357   3.802   2.418   1.386
 2842SOL    HW1 2358   3.894   2.417   1.345
 2842SOL    HW2 2359   3.796   2.492   1.453
 2867SOL     OW 2360   3.913   2.382   1.722
 2867SOL    HW1 2361   3.972   2.342   1.652
 2867SOL    HW2 2362   3.855   2.453   1.681
 2883SOL     OW 2363   3.829   2.875   1.726
 2883SOL    HW1 2364   3.752   2.842   1.780
 2883SOL    HW2 2365   3.914   2.845   1.768
 2900SOL     OW 2366   3.954   2.490   1.975
 2900SOL    HW1 2367   3.861   2.488   2.012
 2900SOL    HW2 2368   3.955   2.451   1.883
 2901SOL     OW 2369   3.949   2.137   2.858
 2901SOL    HW1 2370   3.984   2.120   2.950
 2901SOL    HW2 2371   3.861   2.092   2.846
 2902SOL     OW 2372   3.743   2.230   2.509
 2902SOL    HW1 2373   3.661   2.273   2.548
 2902SOL    HW2 2374   3.715   2.157   2.446
 2914SOL     OW 2375   3.846   2.505   2.425
 2914SOL    HW1 2376   3.801   2.417   2.442
 2914SOL    HW2 2377   3.845   2.559   2.509
 2922SOL     OW 2378   3.800   2.673   2.651
 2922SOL    HW1 2379   3.899   2.661   2.660
 2922SOL    HW2 2380   3.776   2.768   2.672
 2936SOL     OW 2381   4.021   1.897   2.033
 2936SOL    HW1 2382   4.070   1.981   2.012
 2936SOL    HW2 2383   4.083   1.832   2.078
 2938SOL     OW 2384   3.802   2.418   3.248
 2938SOL    HW1 2385   3.894   2.417   3.207
 2938SOL    HW2 2386   3.796   2.492   3.315
 2954SOL     OW 2387   4.031   1.925   2.480
 2954SOL    HW1 2388   4.020   2.019   2.513
 2954SOL    HW2 2389   4.026   1.862   2.557
 2959SOL     OW 2390   3.732   3.188   2.062
 2959SOL    HW1 2391   3.639   3.209   2.031
 2959SOL    HW2 2392   3.742   3.089   2.075
 2962SOL     OW 2393   3.764   2.406   2.976
 2962SOL    HW1 2394   3.849   2.373   2.935
 2962SOL    HW2 2395   3.777   2.421   3.074
 2974SOL     OW 2396   3.987   2.188   2.582
 2974SOL    HW1 2397   3.908   2.239   2.548
 2974SOL    HW2 2398   3.978   2.173   2.680
 2981SOL     OW 2399   3.799   2.207   1.895
 2981SOL    HW1 2400   3.707   2.179   1.866
 2981SOL    HW2 2401   3.830   2.284   1.839
 2982SOL     OW 2402   3.796   2.028   2.180
 2982SOL    HW1 2403   3.779   2.111   2.126
 2982SOL    HW2 2404   3.886   1.991   2.158
 2989SOL     OW 2405   3.803   3.102   2.515
 2989SOL    HW1 2406   3.802   3.055   2.603
 2989SOL    HW2 2407   3.885   3.074   2.464
 2995SOL     OW 2408   3.763   2.939   2.162
 2995SOL    HW1 2409   3.862   2.928   2.153
 2995SOL    HW2 2410   3.723   2.853   2.194
   4.58907   4.58907   4.58907
