mobley_4371692_GMX.gro created by acpype (v: 2023.10.27) on Thu May 21 00:23:39 2026
 2424
    1MOL     C1    1   2.838   2.458   2.655
    1MOL     C2    2   2.797   2.580   2.708
    1MOL     C3    3   2.754   2.388   2.568
    1MOL     C4    4   2.672   2.633   2.675
    1MOL     C5    5   2.199   2.406   2.287
    1MOL     C6    6   2.158   2.528   2.340
    1MOL     C7    7   2.628   2.441   2.534
    1MOL     C8    8   2.588   2.563   2.588
    1MOL     C9    9   2.408   2.423   2.407
    1MOL    C10   10   2.368   2.545   2.461
    1MOL    C11   11   2.324   2.353   2.320
    1MOL    C12   12   2.242   2.598   2.427
    1MOL    C13   13   2.540   2.366   2.442
    1MOL    C14   14   2.456   2.620   2.553
    1MOL     N1   15   2.358   2.229   2.262
    1MOL     O1   16   2.580   2.260   2.397
    1MOL     O2   17   2.422   2.727   2.602
    1MOL     O3   18   2.196   2.717   2.476
    1MOL     H1   19   2.935   2.417   2.681
    1MOL     H2   20   2.862   2.634   2.776
    1MOL     H3   21   2.788   2.294   2.527
    1MOL     H4   22   2.643   2.728   2.718
    1MOL     H5   23   2.133   2.353   2.219
    1MOL     H6   24   2.061   2.568   2.314
    1MOL     H7   25   2.292   2.183   2.204
    1MOL     H8   26   2.445   2.186   2.287
    1MOL     H9   27   2.262   2.756   2.535
   35SOL     OW   28   1.187   1.792   1.616
   35SOL    HW1   29   1.211   1.852   1.540
   35SOL    HW2   30   1.194   1.697   1.586
   95SOL     OW   31   1.754   1.223   1.588
   95SOL    HW1   32   1.845   1.184   1.575
   95SOL    HW2   33   1.762   1.319   1.612
   97SOL     OW   34   1.592   1.629   1.625
   97SOL    HW1   35   1.619   1.663   1.535
   97SOL    HW2   36   1.671   1.591   1.671
  127SOL     OW   37   1.859   1.518   1.605
  127SOL    HW1   38   1.873   1.545   1.510
  127SOL    HW2   39   1.942   1.540   1.658
  152SOL     OW   40   1.759   1.747   1.154
  152SOL    HW1   41   1.820   1.777   1.081
  152SOL    HW2   42   1.721   1.658   1.132
  163SOL     OW   43   1.650   1.720   1.394
  163SOL    HW1   44   1.703   1.730   1.310
  163SOL    HW2   45   1.623   1.810   1.428
  219SOL     OW   46   1.555   1.511   2.565
  219SOL    HW1   47   1.498   1.495   2.646
  219SOL    HW2   48   1.496   1.521   2.485
  227SOL     OW   49   1.460   1.505   3.201
  227SOL    HW1   50   1.484   1.599   3.227
  227SOL    HW2   51   1.444   1.451   3.283
  238SOL     OW   52   1.842   1.767   2.221
  238SOL    HW1   53   1.896   1.738   2.301
  238SOL    HW2   54   1.872   1.857   2.192
  240SOL     OW   55   1.689   0.922   2.474
  240SOL    HW1   56   1.784   0.893   2.482
  240SOL    HW2   57   1.681   0.987   2.399
  241SOL     OW   58   1.641   1.108   2.294
  241SOL    HW1   59   1.727   1.110   2.242
  241SOL    HW2   60   1.655   1.155   2.382
  248SOL     OW   61   1.187   1.792   3.478
  248SOL    HW1   62   1.211   1.852   3.402
  248SOL    HW2   63   1.194   1.697   3.448
  250SOL     OW   64   1.466   1.417   2.815
  250SOL    HW1   65   1.407   1.423   2.895
  250SOL    HW2   66   1.451   1.329   2.769
  251SOL     OW   67   1.667   1.714   2.434
  251SOL    HW1   68   1.626   1.691   2.346
  251SOL    HW2   69   1.649   1.640   2.499
  254SOL     OW   70   1.576   1.662   2.169
  254SOL    HW1   71   1.665   1.708   2.172
  254SOL    HW2   72   1.555   1.638   2.074
  264SOL     OW   73   1.362   1.144   2.407
  264SOL    HW1   74   1.445   1.115   2.359
  264SOL    HW2   75   1.313   1.211   2.351
  266SOL     OW   76   1.008   1.456   2.339
  266SOL    HW1   77   0.962   1.528   2.287
  266SOL    HW2   78   1.004   1.476   2.437
  268SOL     OW   79   1.795   1.066   2.735
  268SOL    HW1   80   1.733   1.051   2.659
  268SOL    HW2   81   1.743   1.077   2.820
  269SOL     OW   82   1.227   1.550   3.368
  269SOL    HW1   83   1.233   1.473   3.432
  269SOL    HW2   84   1.175   1.524   3.288
  273SOL     OW   85   1.111   1.776   2.099
  273SOL    HW1   86   1.051   1.714   2.149
  273SOL    HW2   87   1.142   1.732   2.014
  275SOL     OW   88   1.632   1.377   1.943
  275SOL    HW1   89   1.600   1.471   1.933
  275SOL    HW2   90   1.556   1.314   1.931
  279SOL     OW   91   0.940   1.698   2.766
  279SOL    HW1   92   1.020   1.641   2.787
  279SOL    HW2   93   0.891   1.658   2.689
  289SOL     OW   94   1.434   1.188   1.903
  289SOL    HW1   95   1.466   1.112   1.960
  289SOL    HW2   96   1.342   1.215   1.933
  293SOL     OW   97   1.227   1.570   2.655
  293SOL    HW1   98   1.248   1.644   2.590
  293SOL    HW2   99   1.295   1.570   2.728
  295SOL     OW  100   1.271   1.797   2.453
  295SOL    HW1  101   1.315   1.861   2.389
  295SOL    HW2  102   1.221   1.849   2.523
  301SOL     OW  103   1.429   1.173   2.729
  301SOL    HW1  104   1.374   1.089   2.722
  301SOL    HW2  105   1.455   1.202   2.637
  303SOL     OW  106   1.857   0.833   2.239
  303SOL    HW1  107   1.899   0.769   2.303
  303SOL    HW2  108   1.819   0.782   2.161
  305SOL     OW  109   1.664   1.280   2.519
  305SOL    HW1  110   1.763   1.288   2.533
  305SOL    HW2  111   1.619   1.364   2.550
  308SOL     OW  112   1.754   1.223   3.450
  308SOL    HW1  113   1.845   1.184   3.437
  308SOL    HW2  114   1.762   1.319   3.474
  310SOL     OW  115   1.592   1.629   3.487
  310SOL    HW1  116   1.619   1.663   3.397
  310SOL    HW2  117   1.671   1.591   3.533
  312SOL     OW  118   1.638   1.099   2.941
  312SOL    HW1  119   1.643   1.180   3.000
  312SOL    HW2  120   1.552   1.101   2.890
  321SOL     OW  121   1.252   1.348   2.250
  321SOL    HW1  122   1.302   1.425   2.290
  321SOL    HW2  123   1.157   1.350   2.282
  322SOL     OW  124   1.272   1.445   3.004
  322SOL    HW1  125   1.319   1.458   3.091
  322SOL    HW2  126   1.206   1.371   3.013
  340SOL     OW  127   1.859   1.518   3.467
  340SOL    HW1  128   1.873   1.545   3.372
  340SOL    HW2  129   1.942   1.540   3.520
  365SOL     OW  130   1.759   1.747   3.016
  365SOL    HW1  131   1.820   1.777   2.943
  365SOL    HW2  132   1.721   1.658   2.994
  366SOL     OW  133   1.252   1.731   2.990
  366SOL    HW1  134   1.336   1.736   2.936
  366SOL    HW2  135   1.229   1.635   3.008
  370SOL     OW  136   1.388   1.573   2.339
  370SOL    HW1  137   1.455   1.585   2.265
  370SOL    HW2  138   1.348   1.662   2.362
  375SOL     OW  139   1.650   1.720   3.256
  375SOL    HW1  140   1.703   1.730   3.172
  375SOL    HW2  141   1.623   1.810   3.290
  378SOL     OW  142   1.194   1.612   1.893
  378SOL    HW1  143   1.200   1.519   1.930
  378SOL    HW2  144   1.135   1.612   1.813
  381SOL     OW  145   1.504   1.607   1.906
  381SOL    HW1  146   1.412   1.644   1.913
  381SOL    HW2  147   1.542   1.627   1.816
  383SOL     OW  148   1.614   1.292   3.151
  383SOL    HW1  149   1.674   1.295   3.231
  383SOL    HW2  150   1.539   1.356   3.164
  396SOL     OW  151   1.493   1.767   2.821
  396SOL    HW1  152   1.526   1.831   2.752
  396SOL    HW2  153   1.559   1.761   2.896
  409SOL     OW  154   1.861   1.569   2.713
  409SOL    HW1  155   1.790   1.557   2.643
  409SOL    HW2  156   1.862   1.490   2.773
  415SOL     OW  157   1.705   1.487   2.966
  415SOL    HW1  158   1.612   1.462   2.939
  415SOL    HW2  159   1.731   1.437   3.048
  574SOL     OW  160   0.850   2.660   1.823
  574SOL    HW1  161   0.846   2.736   1.888
  574SOL    HW2  162   0.872   2.696   1.732
  578SOL     OW  163   1.460   3.367   1.339
  578SOL    HW1  164   1.484   3.461   1.365
  578SOL    HW2  165   1.444   3.313   1.421
  582SOL     OW  166   1.127   3.203   1.690
  582SOL    HW1  167   1.174   3.203   1.778
  582SOL    HW2  168   1.079   3.116   1.679
  587SOL     OW  169   1.594   1.976   1.480
  587SOL    HW1  170   1.576   2.043   1.408
  587SOL    HW2  171   1.591   2.022   1.569
  595SOL     OW  172   1.293   3.090   1.423
  595SOL    HW1  173   1.330   3.017   1.365
  595SOL    HW2  174   1.345   3.095   1.508
  607SOL     OW  175   1.394   2.331   1.674
  607SOL    HW1  176   1.374   2.374   1.762
  607SOL    HW2  177   1.472   2.269   1.683
  608SOL     OW  178   0.973   2.752   1.572
  608SOL    HW1  179   1.019   2.668   1.543
  608SOL    HW2  180   0.917   2.786   1.497
  614SOL     OW  181   1.719   2.447   1.831
  614SOL    HW1  182   1.693   2.536   1.795
  614SOL    HW2  183   1.717   2.379   1.758
  632SOL     OW  184   1.547   2.084   1.729
  632SOL    HW1  185   1.542   2.121   1.821
  632SOL    HW2  186   1.475   2.015   1.717
  636SOL     OW  187   1.351   2.452   1.433
  636SOL    HW1  188   1.379   2.409   1.518
  636SOL    HW2  189   1.376   2.548   1.434
  643SOL     OW  190   1.076   2.545   1.464
  643SOL    HW1  191   0.996   2.484   1.467
  643SOL    HW2  192   1.157   2.492   1.440
  659SOL     OW  193   1.754   3.085   1.588
  659SOL    HW1  194   1.845   3.046   1.575
  659SOL    HW2  195   1.762   3.181   1.612
  661SOL     OW  196   1.592   3.491   1.625
  661SOL    HW1  197   1.619   3.525   1.535
  661SOL    HW2  198   1.671   3.453   1.671
  663SOL     OW  199   1.638   2.961   1.079
  663SOL    HW1  200   1.643   3.042   1.138
  663SOL    HW2  201   1.552   2.963   1.028
  665SOL     OW  202   0.980   2.978   1.719
  665SOL    HW1  203   0.881   2.984   1.729
  665SOL    HW2  204   1.003   2.898   1.663
  668SOL     OW  205   1.274   2.248   1.262
  668SOL    HW1  206   1.295   2.322   1.326
  668SOL    HW2  207   1.185   2.265   1.219
  677SOL     OW  208   1.587   2.641   1.670
  677SOL    HW1  209   1.495   2.679   1.665
  677SOL    HW2  210   1.647   2.688   1.605
  678SOL     OW  211   1.013   1.967   1.770
  678SOL    HW1  212   1.019   2.052   1.718
  678SOL    HW2  213   1.045   1.891   1.713
  686SOL     OW  214   1.728   2.797   1.854
  686SOL    HW1  215   1.682   2.790   1.765
  686SOL    HW2  216   1.666   2.841   1.920
  691SOL     OW  217   1.859   3.380   1.605
  691SOL    HW1  218   1.873   3.407   1.510
  691SOL    HW2  219   1.942   3.402   1.658
  698SOL     OW  220   1.138   2.242   1.678
  698SOL    HW1  221   1.093   2.305   1.742
  698SOL    HW2  222   1.231   2.273   1.661
  699SOL     OW  223   1.160   2.069   1.477
  699SOL    HW1  224   1.160   2.133   1.554
  699SOL    HW2  225   1.188   2.117   1.394
  706SOL     OW  226   1.369   2.812   1.660
  706SOL    HW1  227   1.408   2.901   1.680
  706SOL    HW2  228   1.379   2.792   1.563
  708SOL     OW  229   1.657   2.466   1.206
  708SOL    HW1  230   1.619   2.397   1.268
  708SOL    HW2  231   1.739   2.430   1.162
  714SOL     OW  232   1.347   2.921   1.234
  714SOL    HW1  233   1.371   2.858   1.160
  714SOL    HW2  234   1.257   2.961   1.216
  727SOL     OW  235   1.650   3.582   1.394
  727SOL    HW1  236   1.703   3.592   1.310
  727SOL    HW2  237   1.623   3.672   1.428
  728SOL     OW  238   1.841   2.037   0.963
  728SOL    HW1  239   1.880   1.952   0.927
  728SOL    HW2  240   1.743   2.039   0.944
  735SOL     OW  241   1.614   3.154   1.289
  735SOL    HW1  242   1.674   3.157   1.369
  735SOL    HW2  243   1.539   3.218   1.302
  739SOL     OW  244   1.709   2.247   1.381
  739SOL    HW1  245   1.782   2.316   1.385
  739SOL    HW2  246   1.737   2.172   1.322
  744SOL     OW  247   1.440   2.718   1.398
  744SOL    HW1  248   1.383   2.770   1.335
  744SOL    HW2  249   1.536   2.730   1.374
  750SOL     OW  250   1.450   3.082   1.633
  750SOL    HW1  251   1.441   3.072   1.732
  750SOL    HW2  252   1.546   3.075   1.607
  752SOL     OW  253   1.674   2.745   1.254
  752SOL    HW1  254   1.647   2.656   1.217
  752SOL    HW2  255   1.675   2.813   1.181
  755SOL     OW  256   1.777   2.204   1.642
  755SOL    HW1  257   1.760   2.235   1.548
  755SOL    HW2  258   1.693   2.167   1.680
  756SOL     OW  259   1.730   2.796   1.517
  756SOL    HW1  260   1.768   2.887   1.532
  756SOL    HW2  261   1.722   2.779   1.418
  765SOL     OW  262   1.824   2.054   1.227
  765SOL    HW1  263   1.820   1.964   1.271
  765SOL    HW2  264   1.827   2.043   1.128
  770SOL     OW  265   1.424   2.076   1.112
  770SOL    HW1  266   1.476   2.011   1.167
  770SOL    HW2  267   1.375   2.139   1.173
  783SOL     OW  268   1.555   3.373   2.565
  783SOL    HW1  269   1.498   3.357   2.646
  783SOL    HW2  270   1.496   3.383   2.485
  784SOL     OW  271   1.135   2.565   2.579
  784SOL    HW1  272   1.192   2.643   2.554
  784SOL    HW2  273   1.075   2.591   2.655
  785SOL     OW  274   1.755   2.469   2.093
  785SOL    HW1  275   1.743   2.456   1.994
  785SOL    HW2  276   1.725   2.388   2.142
  791SOL     OW  277   1.460   3.367   3.201
  791SOL    HW1  278   1.484   3.461   3.227
  791SOL    HW2  279   1.444   3.313   3.283
  793SOL     OW  280   1.603   2.309   2.599
  793SOL    HW1  281   1.529   2.355   2.549
  793SOL    HW2  282   1.654   2.377   2.652
  800SOL     OW  283   1.594   1.976   3.342
  800SOL    HW1  284   1.576   2.043   3.270
  800SOL    HW2  285   1.591   2.022   3.431
  802SOL     OW  286   1.842   3.629   2.221
  802SOL    HW1  287   1.896   3.600   2.301
  802SOL    HW2  288   1.872   3.719   2.192
  804SOL     OW  289   1.689   2.784   2.474
  804SOL    HW1  290   1.784   2.755   2.482
  804SOL    HW2  291   1.681   2.849   2.399
  805SOL     OW  292   1.641   2.970   2.294
  805SOL    HW1  293   1.727   2.972   2.242
  805SOL    HW2  294   1.655   3.017   2.382
  808SOL     OW  295   1.293   3.090   3.285
  808SOL    HW1  296   1.330   3.017   3.227
  808SOL    HW2  297   1.345   3.095   3.370
  809SOL     OW  298   0.809   1.866   2.364
  809SOL    HW1  299   0.849   1.957   2.355
  809SOL    HW2  300   0.709   1.874   2.370
  811SOL     OW  301   1.525   2.861   2.052
  811SOL    HW1  302   1.462   2.785   2.065
  811SOL    HW2  303   1.573   2.879   2.138
  814SOL     OW  304   1.466   3.279   2.815
  814SOL    HW1  305   1.407   3.285   2.895
  814SOL    HW2  306   1.451   3.191   2.769
  815SOL     OW  307   1.667   3.576   2.434
  815SOL    HW1  308   1.626   3.553   2.346
  815SOL    HW2  309   1.649   3.502   2.499
  817SOL     OW  310   1.281   2.207   2.806
  817SOL    HW1  311   1.195   2.157   2.793
  817SOL    HW2  312   1.343   2.153   2.862
  818SOL     OW  313   1.576   3.524   2.169
  818SOL    HW1  314   1.665   3.570   2.172
  818SOL    HW2  315   1.555   3.500   2.074
  820SOL     OW  316   1.394   2.331   3.536
  820SOL    HW1  317   1.374   2.374   3.624
  820SOL    HW2  318   1.472   2.269   3.545
  822SOL     OW  319   0.991   2.272   3.104
  822SOL    HW1  320   0.914   2.306   3.158
  822SOL    HW2  321   0.957   2.221   3.025
  823SOL     OW  322   1.041   2.563   2.291
  823SOL    HW1  323   1.067   2.559   2.387
  823SOL    HW2  324   0.956   2.512   2.277
  826SOL     OW  325   0.865   2.210   2.057
  826SOL    HW1  326   0.924   2.273   2.008
  826SOL    HW2  327   0.884   2.116   2.028
  827SOL     OW  328   1.719   2.447   3.693
  827SOL    HW1  329   1.693   2.536   3.657
  827SOL    HW2  330   1.717   2.379   3.620
  828SOL     OW  331   1.362   3.006   2.407
  828SOL    HW1  332   1.445   2.977   2.359
  828SOL    HW2  333   1.313   3.073   2.351
  830SOL     OW  334   1.008   3.318   2.339
  830SOL    HW1  335   0.962   3.390   2.287
  830SOL    HW2  336   1.004   3.338   2.437
  832SOL     OW  337   1.795   2.928   2.735
  832SOL    HW1  338   1.733   2.913   2.659
  832SOL    HW2  339   1.743   2.939   2.820
  833SOL     OW  340   1.227   3.412   3.368
  833SOL    HW1  341   1.233   3.335   3.432
  833SOL    HW2  342   1.175   3.386   3.288
  835SOL     OW  343   1.458   2.597   2.590
  835SOL    HW1  344   1.453   2.532   2.665
  835SOL    HW2  345   1.538   2.656   2.603
  839SOL     OW  346   1.632   3.239   1.943
  839SOL    HW1  347   1.600   3.333   1.933
  839SOL    HW2  348   1.556   3.176   1.931
  841SOL     OW  349   1.400   1.969   2.288
  841SOL    HW1  350   1.376   1.932   2.198
  841SOL    HW2  351   1.499   1.985   2.292
  845SOL     OW  352   1.547   2.084   3.591
  845SOL    HW1  353   1.542   2.121   3.683
  845SOL    HW2  354   1.475   2.015   3.579
  849SOL     OW  355   1.351   2.452   3.295
  849SOL    HW1  356   1.379   2.409   3.380
  849SOL    HW2  357   1.376   2.548   3.296
  851SOL     OW  358   0.922   2.365   2.761
  851SOL    HW1  359   0.897   2.356   2.665
  851SOL    HW2  360   0.970   2.283   2.792
  853SOL     OW  361   1.434   3.050   1.903
  853SOL    HW1  362   1.466   2.974   1.960
  853SOL    HW2  363   1.342   3.077   1.933
  855SOL     OW  364   0.935   2.098   2.342
  855SOL    HW1  365   0.887   2.139   2.264
  855SOL    HW2  366   1.034   2.096   2.323
  856SOL     OW  367   1.076   2.545   3.326
  856SOL    HW1  368   0.996   2.484   3.329
  856SOL    HW2  369   1.157   2.492   3.302
  857SOL     OW  370   1.227   3.432   2.655
  857SOL    HW1  371   1.248   3.506   2.590
  857SOL    HW2  372   1.295   3.432   2.728
  859SOL     OW  373   1.271   3.659   2.453
  859SOL    HW1  374   1.315   3.723   2.389
  859SOL    HW2  375   1.221   3.711   2.523
  860SOL     OW  376   1.032   2.411   1.878
  860SOL    HW1  377   0.991   2.493   1.839
  860SOL    HW2  378   1.096   2.437   1.951
  863SOL     OW  379   0.866   2.316   2.504
  863SOL    HW1  380   0.834   2.388   2.442
  863SOL    HW2  381   0.890   2.235   2.451
  864SOL     OW  382   1.017   1.901   2.615
  864SOL    HW1  383   0.945   1.906   2.546
  864SOL    HW2  384   0.993   1.832   2.684
  865SOL     OW  385   1.429   3.035   2.729
  865SOL    HW1  386   1.374   2.951   2.722
  865SOL    HW2  387   1.455   3.064   2.637
  866SOL     OW  388   1.466   2.452   2.854
  866SOL    HW1  389   1.436   2.357   2.861
  866SOL    HW2  390   1.539   2.468   2.920
  867SOL     OW  391   1.857   2.695   2.239
  867SOL    HW1  392   1.899   2.631   2.303
  867SOL    HW2  393   1.819   2.644   2.161
  869SOL     OW  394   1.664   3.142   2.519
  869SOL    HW1  395   1.763   3.150   2.533
  869SOL    HW2  396   1.619   3.226   2.550
  870SOL     OW  397   1.390   2.437   1.940
  870SOL    HW1  398   1.336   2.416   2.021
  870SOL    HW2  399   1.481   2.396   1.949
  872SOL     OW  400   1.754   3.085   3.450
  872SOL    HW1  401   1.845   3.046   3.437
  872SOL    HW2  402   1.762   3.181   3.474
  873SOL     OW  403   1.064   3.209   3.202
  873SOL    HW1  404   0.984   3.186   3.257
  873SOL    HW2  405   1.147   3.183   3.251
  874SOL     OW  406   1.592   3.491   3.487
  874SOL    HW1  407   1.619   3.525   3.397
  874SOL    HW2  408   1.671   3.453   3.533
  875SOL     OW  409   1.111   3.057   2.962
  875SOL    HW1  410   1.071   3.101   3.043
  875SOL    HW2  411   1.070   3.094   2.879
  876SOL     OW  412   1.638   2.961   2.941
  876SOL    HW1  413   1.643   3.042   3.000
  876SOL    HW2  414   1.552   2.963   2.890
  881SOL     OW  415   1.274   2.248   3.124
  881SOL    HW1  416   1.295   2.322   3.188
  881SOL    HW2  417   1.185   2.265   3.081
  885SOL     OW  418   1.252   3.210   2.250
  885SOL    HW1  419   1.302   3.287   2.290
  885SOL    HW2  420   1.157   3.212   2.282
  886SOL     OW  421   1.272   3.307   3.004
  886SOL    HW1  422   1.319   3.320   3.091
  886SOL    HW2  423   1.206   3.233   3.013
  887SOL     OW  424   1.582   2.501   2.334
  887SOL    HW1  425   1.551   2.562   2.407
  887SOL    HW2  426   1.632   2.553   2.265
  890SOL     OW  427   1.587   2.641   3.532
  890SOL    HW1  428   1.495   2.679   3.527
  890SOL    HW2  429   1.647   2.688   3.467
  894SOL     OW  430   1.360   2.724   2.907
  894SOL    HW1  431   1.285   2.724   2.841
  894SOL    HW2  432   1.397   2.632   2.916
  895SOL     OW  433   1.209   2.387   2.137
  895SOL    HW1  434   1.222   2.303   2.191
  895SOL    HW2  435   1.180   2.461   2.197
  899SOL     OW  436   1.728   2.797   3.716
  899SOL    HW1  437   1.682   2.790   3.627
  899SOL    HW2  438   1.666   2.841   3.782
  901SOL     OW  439   1.622   2.229   2.236
  901SOL    HW1  440   1.624   2.153   2.300
  901SOL    HW2  441   1.574   2.306   2.276
  902SOL     OW  442   1.023   2.628   2.828
  902SOL    HW1  443   1.038   2.649   2.924
  902SOL    HW2  444   0.993   2.533   2.819
  904SOL     OW  445   1.859   3.380   3.467
  904SOL    HW1  446   1.873   3.407   3.372
  904SOL    HW2  447   1.942   3.402   3.520
  906SOL     OW  448   1.540   2.136   1.987
  906SOL    HW1  449   1.479   2.061   2.010
  906SOL    HW2  450   1.562   2.188   2.070
  907SOL     OW  451   1.303   2.700   1.904
  907SOL    HW1  452   1.337   2.607   1.919
  907SOL    HW2  453   1.321   2.727   1.809
  908SOL     OW  454   1.068   3.195   2.711
  908SOL    HW1  455   1.075   3.111   2.656
  908SOL    HW2  456   1.130   3.264   2.675
  911SOL     OW  457   1.138   2.242   3.540
  911SOL    HW1  458   1.093   2.305   3.604
  911SOL    HW2  459   1.231   2.273   3.523
  912SOL     OW  460   1.160   2.069   3.339
  912SOL    HW1  461   1.160   2.133   3.416
  912SOL    HW2  462   1.188   2.117   3.256
  916SOL     OW  463   1.002   2.658   3.100
  916SOL    HW1  464   1.043   2.626   3.186
  916SOL    HW2  465   0.906   2.631   3.097
  919SOL     OW  466   1.369   2.812   3.522
  919SOL    HW1  467   1.408   2.901   3.542
  919SOL    HW2  468   1.379   2.792   3.425
  920SOL     OW  469   0.815   2.434   2.187
  920SOL    HW1  470   0.822   2.345   2.141
  920SOL    HW2  471   0.721   2.468   2.179
  921SOL     OW  472   1.657   2.466   3.068
  921SOL    HW1  473   1.619   2.397   3.130
  921SOL    HW2  474   1.739   2.430   3.024
  927SOL     OW  475   1.347   2.921   3.096
  927SOL    HW1  476   1.371   2.858   3.022
  927SOL    HW2  477   1.257   2.961   3.078
  928SOL     OW  478   1.302   2.717   2.171
  928SOL    HW1  479   1.216   2.686   2.213
  928SOL    HW2  480   1.298   2.703   2.072
  929SOL     OW  481   1.759   3.609   3.016
  929SOL    HW1  482   1.820   3.639   2.943
  929SOL    HW2  483   1.721   3.520   2.994
  930SOL     OW  484   1.252   3.593   2.990
  930SOL    HW1  485   1.336   3.598   2.936
  930SOL    HW2  486   1.229   3.497   3.008
  933SOL     OW  487   1.726   1.997   2.385
  933SOL    HW1  488   1.799   1.980   2.318
  933SOL    HW2  489   1.695   1.910   2.423
  934SOL     OW  490   1.388   3.435   2.339
  934SOL    HW1  491   1.455   3.447   2.265
  934SOL    HW2  492   1.348   3.524   2.362
  936SOL     OW  493   1.280   2.789   2.534
  936SOL    HW1  494   1.340   2.708   2.536
  936SOL    HW2  495   1.320   2.858   2.474
  939SOL     OW  496   1.650   3.582   3.256
  939SOL    HW1  497   1.703   3.592   3.172
  939SOL    HW2  498   1.623   3.672   3.290
  940SOL     OW  499   1.841   2.037   2.825
  940SOL    HW1  500   1.880   1.952   2.789
  940SOL    HW2  501   1.743   2.039   2.806
  942SOL     OW  502   1.194   3.474   1.893
  942SOL    HW1  503   1.200   3.381   1.930
  942SOL    HW2  504   1.135   3.474   1.813
  944SOL     OW  505   0.916   2.772   2.153
  944SOL    HW1  506   0.979   2.810   2.085
  944SOL    HW2  507   0.956   2.689   2.192
  945SOL     OW  508   1.504   3.469   1.906
  945SOL    HW1  509   1.412   3.506   1.913
  945SOL    HW2  510   1.542   3.489   1.816
  947SOL     OW  511   1.614   3.154   3.151
  947SOL    HW1  512   1.674   3.157   3.231
  947SOL    HW2  513   1.539   3.218   3.164
  948SOL     OW  514   1.039   2.960   2.558
  948SOL    HW1  515   0.969   2.913   2.612
  948SOL    HW2  516   1.098   2.892   2.515
  949SOL     OW  517   1.014   2.098   2.833
  949SOL    HW1  518   1.006   2.062   2.740
  949SOL    HW2  519   1.012   2.022   2.898
  951SOL     OW  520   1.709   2.247   3.243
  951SOL    HW1  521   1.782   2.316   3.247
  951SOL    HW2  522   1.737   2.172   3.184
  956SOL     OW  523   1.440   2.718   3.260
  956SOL    HW1  524   1.383   2.770   3.197
  956SOL    HW2  525   1.536   2.730   3.236
  958SOL     OW  526   1.183   3.197   1.981
  958SOL    HW1  527   1.084   3.186   1.983
  958SOL    HW2  528   1.217   3.212   2.074
  960SOL     OW  529   1.493   3.629   2.821
  960SOL    HW1  530   1.526   3.693   2.752
  960SOL    HW2  531   1.559   3.623   2.896
  962SOL     OW  532   1.450   3.082   3.495
  962SOL    HW1  533   1.441   3.072   3.594
  962SOL    HW2  534   1.546   3.075   3.469
  964SOL     OW  535   1.674   2.745   3.116
  964SOL    HW1  536   1.647   2.656   3.079
  964SOL    HW2  537   1.675   2.813   3.043
  965SOL     OW  538   1.225   2.187   2.311
  965SOL    HW1  539   1.290   2.113   2.300
  965SOL    HW2  540   1.245   2.237   2.395
  967SOL     OW  541   1.777   2.204   3.504
  967SOL    HW1  542   1.760   2.235   3.410
  967SOL    HW2  543   1.693   2.167   3.542
  968SOL     OW  544   1.730   2.796   3.379
  968SOL    HW1  545   1.768   2.887   3.394
  968SOL    HW2  546   1.722   2.779   3.280
  971SOL     OW  547   0.859   2.818   2.723
  971SOL    HW1  548   0.913   2.749   2.771
  971SOL    HW2  549   0.827   2.887   2.789
  972SOL     OW  550   1.083   2.846   1.949
  972SOL    HW1  551   1.060   2.899   1.867
  972SOL    HW2  552   1.164   2.790   1.930
  973SOL     OW  553   1.861   3.431   2.713
  973SOL    HW1  554   1.790   3.419   2.643
  973SOL    HW2  555   1.862   3.352   2.773
  977SOL     OW  556   1.824   2.054   3.089
  977SOL    HW1  557   1.820   1.964   3.133
  977SOL    HW2  558   1.827   2.043   2.990
  979SOL     OW  559   1.705   3.349   2.966
  979SOL    HW1  560   1.612   3.324   2.939
  979SOL    HW2  561   1.731   3.299   3.048
  982SOL     OW  562   1.424   2.076   2.974
  982SOL    HW1  563   1.476   2.011   3.029
  982SOL    HW2  564   1.375   2.139   3.035
  983SOL     OW  565   1.001   1.896   3.016
  983SOL    HW1  566   0.938   1.824   2.985
  983SOL    HW2  567   1.094   1.860   3.016
  986SOL     OW  568   1.352   1.914   2.030
  986SOL    HW1  569   1.387   1.873   1.946
  986SOL    HW2  570   1.262   1.876   2.050
  987SOL     OW  571   1.300   2.315   2.553
  987SOL    HW1  572   1.241   2.395   2.557
  987SOL    HW2  573   1.315   2.280   2.646
  988SOL     OW  574   1.593   2.083   2.744
  988SOL    HW1  575   1.509   2.082   2.798
  988SOL    HW2  576   1.595   2.166   2.688
  997SOL     OW  577   1.755   2.469   3.955
  997SOL    HW1  578   1.743   2.456   3.856
  997SOL    HW2  579   1.725   2.388   4.004
 1014SOL     OW  580   1.525   2.861   3.914
 1014SOL    HW1  581   1.462   2.785   3.927
 1014SOL    HW2  582   1.573   2.879   4.000
 1031SOL     OW  583   1.632   3.239   3.805
 1031SOL    HW1  584   1.600   3.333   3.795
 1031SOL    HW2  585   1.556   3.176   3.793
 1041SOL     OW  586   1.434   3.050   3.765
 1041SOL    HW1  587   1.466   2.974   3.822
 1041SOL    HW2  588   1.342   3.077   3.795
 1052SOL     OW  589   1.857   2.695   4.101
 1052SOL    HW1  590   1.899   2.631   4.165
 1052SOL    HW2  591   1.819   2.644   4.023
 1055SOL     OW  592   1.390   2.437   3.802
 1055SOL    HW1  593   1.336   2.416   3.883
 1055SOL    HW2  594   1.481   2.396   3.811
 1073SOL     OW  595   1.540   2.136   3.849
 1073SOL    HW1  596   1.479   2.061   3.872
 1073SOL    HW2  597   1.562   2.188   3.932
 1074SOL     OW  598   1.303   2.700   3.766
 1074SOL    HW1  599   1.337   2.607   3.781
 1074SOL    HW2  600   1.321   2.727   3.671
 1312SOL     OW  601   1.400   3.831   2.288
 1312SOL    HW1  602   1.376   3.794   2.198
 1312SOL    HW2  603   1.499   3.847   2.292
 1377SOL     OW  604   1.726   3.859   2.385
 1377SOL    HW1  605   1.799   3.842   2.318
 1377SOL    HW2  606   1.695   3.772   2.423
 1379SOL     OW  607   1.841   3.899   2.825
 1379SOL    HW1  608   1.880   3.814   2.789
 1379SOL    HW2  609   1.743   3.901   2.806
 1403SOL     OW  610   1.824   3.916   3.089
 1403SOL    HW1  611   1.820   3.826   3.133
 1403SOL    HW2  612   1.827   3.905   2.990
 1409SOL     OW  613   1.352   3.776   2.030
 1409SOL    HW1  614   1.387   3.735   1.946
 1409SOL    HW2  615   1.262   3.738   2.050
 1411SOL     OW  616   1.593   3.945   2.744
 1411SOL    HW1  617   1.509   3.944   2.798
 1411SOL    HW2  618   1.595   4.028   2.688
 1513SOL     OW  619   2.431   1.275   1.165
 1513SOL    HW1  620   2.338   1.268   1.128
 1513SOL    HW2  621   2.442   1.364   1.209
 1520SOL     OW  622   2.548   1.161   1.803
 1520SOL    HW1  623   2.608   1.240   1.817
 1520SOL    HW2  624   2.462   1.192   1.762
 1521SOL     OW  625   2.197   1.435   1.061
 1521SOL    HW1  626   2.119   1.404   1.008
 1521SOL    HW2  627   2.255   1.493   1.004
 1522SOL     OW  628   3.322   1.505   1.339
 1522SOL    HW1  629   3.346   1.599   1.365
 1522SOL    HW2  630   3.306   1.451   1.421
 1526SOL     OW  631   2.989   1.341   1.690
 1526SOL    HW1  632   3.036   1.341   1.778
 1526SOL    HW2  633   2.941   1.254   1.679
 1529SOL     OW  634   2.482   1.786   1.439
 1529SOL    HW1  635   2.390   1.769   1.474
 1529SOL    HW2  636   2.510   1.878   1.465
 1539SOL     OW  637   3.155   1.228   1.423
 1539SOL    HW1  638   3.192   1.155   1.365
 1539SOL    HW2  639   3.207   1.233   1.508
 1543SOL     OW  640   3.049   1.792   1.616
 1543SOL    HW1  641   3.073   1.852   1.540
 1543SOL    HW2  642   3.056   1.697   1.586
 1556SOL     OW  643   1.992   1.821   1.571
 1556SOL    HW1  644   1.982   1.806   1.670
 1556SOL    HW2  645   1.906   1.857   1.535
 1562SOL     OW  646   2.213   1.801   0.853
 1562SOL    HW1  647   2.263   1.715   0.859
 1562SOL    HW2  648   2.278   1.878   0.850
 1564SOL     OW  649   3.089   1.550   1.506
 1564SOL    HW1  650   3.095   1.473   1.570
 1564SOL    HW2  651   3.037   1.524   1.426
 1567SOL     OW  652   2.323   1.266   1.727
 1567SOL    HW1  653   2.273   1.267   1.641
 1567SOL    HW2  654   2.260   1.248   1.803
 1573SOL     OW  655   2.111   1.785   1.241
 1573SOL    HW1  656   2.168   1.720   1.291
 1573SOL    HW2  657   2.095   1.752   1.148
 1574SOL     OW  658   2.802   1.698   0.904
 1574SOL    HW1  659   2.882   1.641   0.925
 1574SOL    HW2  660   2.753   1.658   0.827
 1579SOL     OW  661   2.750   1.514   1.195
 1579SOL    HW1  662   2.727   1.489   1.101
 1579SOL    HW2  663   2.811   1.445   1.234
 1604SOL     OW  664   2.926   1.347   1.340
 1604SOL    HW1  665   2.846   1.324   1.395
 1604SOL    HW2  666   3.009   1.321   1.389
 1605SOL     OW  667   3.454   1.629   1.625
 1605SOL    HW1  668   3.481   1.663   1.535
 1605SOL    HW2  669   3.533   1.591   1.671
 1609SOL     OW  670   2.842   1.116   1.719
 1609SOL    HW1  671   2.743   1.122   1.729
 1609SOL    HW2  672   2.865   1.036   1.663
 1613SOL     OW  673   1.926   1.564   1.331
 1613SOL    HW1  674   1.880   1.646   1.297
 1613SOL    HW2  675   2.024   1.583   1.340
 1619SOL     OW  676   2.216   1.510   1.329
 1619SOL    HW1  677   2.195   1.466   1.242
 1619SOL    HW2  678   2.313   1.536   1.332
 1628SOL     OW  679   1.899   1.310   1.282
 1628SOL    HW1  680   1.952   1.261   1.350
 1628SOL    HW2  681   1.921   1.408   1.287
 1634SOL     OW  682   2.842   1.573   1.700
 1634SOL    HW1  683   2.822   1.617   1.612
 1634SOL    HW2  684   2.881   1.482   1.684
 1635SOL     OW  685   3.721   1.518   1.605
 1635SOL    HW1  686   3.735   1.545   1.510
 1635SOL    HW2  687   3.804   1.540   1.658
 1636SOL     OW  688   2.212   0.898   1.804
 1636SOL    HW1  689   2.288   0.942   1.852
 1636SOL    HW2  690   2.247   0.851   1.722
 1645SOL     OW  691   1.950   1.801   0.927
 1645SOL    HW1  692   1.908   1.715   0.900
 1645SOL    HW2  693   2.044   1.804   0.893
 1653SOL     OW  694   2.114   1.564   1.744
 1653SOL    HW1  695   2.084   1.621   1.820
 1653SOL    HW2  696   2.107   1.467   1.770
 1655SOL     OW  697   2.792   1.678   1.465
 1655SOL    HW1  698   2.768   1.660   1.370
 1655SOL    HW2  699   2.822   1.772   1.475
 1657SOL     OW  700   2.021   1.137   1.466
 1657SOL    HW1  701   2.043   1.076   1.542
 1657SOL    HW2  702   2.031   1.088   1.380
 1661SOL     OW  703   3.114   1.731   1.128
 1661SOL    HW1  704   3.198   1.736   1.074
 1661SOL    HW2  705   3.091   1.635   1.146
 1663SOL     OW  706   2.550   1.662   1.716
 1663SOL    HW1  707   2.494   1.743   1.725
 1663SOL    HW2  708   2.602   1.666   1.630
 1667SOL     OW  709   1.992   1.794   1.851
 1667SOL    HW1  710   1.951   1.720   1.904
 1667SOL    HW2  711   2.056   1.845   1.909
 1669SOL     OW  712   2.692   1.273   1.422
 1669SOL    HW1  713   2.687   1.306   1.517
 1669SOL    HW2  714   2.606   1.292   1.376
 1671SOL     OW  715   3.512   1.720   1.394
 1671SOL    HW1  716   3.565   1.730   1.310
 1671SOL    HW2  717   3.485   1.810   1.428
 1678SOL     OW  718   2.234   1.288   1.490
 1678SOL    HW1  719   2.221   1.381   1.456
 1678SOL    HW2  720   2.150   1.236   1.477
 1685SOL     OW  721   1.967   1.013   1.726
 1685SOL    HW1  722   1.890   0.980   1.780
 1685SOL    HW2  723   2.052   0.983   1.768
 1693SOL     OW  724   3.312   1.220   1.633
 1693SOL    HW1  725   3.303   1.210   1.732
 1693SOL    HW2  726   3.408   1.213   1.607
 1694SOL     OW  727   2.252   1.741   1.560
 1694SOL    HW1  728   2.161   1.782   1.558
 1694SOL    HW2  729   2.245   1.647   1.592
 1701SOL     OW  730   2.523   1.790   0.953
 1701SOL    HW1  731   2.477   1.878   0.940
 1701SOL    HW2  732   2.622   1.802   0.946
 1705SOL     OW  733   2.083   1.314   1.844
 1705SOL    HW1  734   2.018   1.241   1.823
 1705SOL    HW2  735   2.087   1.328   1.942
 1707SOL     OW  736   2.534   1.391   1.624
 1707SOL    HW1  737   2.456   1.341   1.662
 1707SOL    HW2  738   2.531   1.486   1.655
 1716SOL     OW  739   2.480   1.567   1.284
 1716SOL    HW1  740   2.475   1.649   1.341
 1716SOL    HW2  741   2.569   1.564   1.239
 1725SOL     OW  742   2.431   1.275   3.027
 1725SOL    HW1  743   2.338   1.268   2.990
 1725SOL    HW2  744   2.442   1.364   3.071
 1726SOL     OW  745   3.417   1.511   2.565
 1726SOL    HW1  746   3.360   1.495   2.646
 1726SOL    HW2  747   3.358   1.521   2.485
 1729SOL     OW  748   2.630   1.144   2.885
 1729SOL    HW1  749   2.552   1.161   2.945
 1729SOL    HW2  750   2.664   1.231   2.849
 1731SOL     OW  751   2.547   1.012   2.527
 1731SOL    HW1  752   2.616   0.996   2.597
 1731SOL    HW2  753   2.474   1.069   2.565
 1732SOL     OW  754   2.548   1.161   3.665
 1732SOL    HW1  755   2.608   1.240   3.679
 1732SOL    HW2  756   2.462   1.192   3.624
 1733SOL     OW  757   2.197   1.435   2.923
 1733SOL    HW1  758   2.119   1.404   2.870
 1733SOL    HW2  759   2.255   1.493   2.866
 1734SOL     OW  760   3.322   1.505   3.201
 1734SOL    HW1  761   3.346   1.599   3.227
 1734SOL    HW2  762   3.306   1.451   3.283
 1737SOL     OW  763   2.093   1.713   2.345
 1737SOL    HW1  764   2.127   1.790   2.399
 1737SOL    HW2  765   2.137   1.713   2.255
 1738SOL     OW  766   2.989   1.341   3.552
 1738SOL    HW1  767   3.036   1.341   3.640
 1738SOL    HW2  768   2.941   1.254   3.541
 1739SOL     OW  769   2.092   1.434   2.400
 1739SOL    HW1  770   2.066   1.530   2.400
 1739SOL    HW2  771   2.021   1.380   2.445
 1740SOL     OW  772   2.102   1.091   2.748
 1740SOL    HW1  773   2.116   1.007   2.800
 1740SOL    HW2  774   2.047   1.155   2.803
 1741SOL     OW  775   2.482   1.786   3.301
 1741SOL    HW1  776   2.390   1.769   3.336
 1741SOL    HW2  777   2.510   1.878   3.327
 1742SOL     OW  778   2.468   0.964   1.985
 1742SOL    HW1  779   2.475   1.048   1.931
 1742SOL    HW2  780   2.514   0.977   2.073
 1745SOL     OW  781   3.704   1.767   2.221
 1745SOL    HW1  782   3.758   1.738   2.301
 1745SOL    HW2  783   3.734   1.857   2.192
 1746SOL     OW  784   1.889   1.596   1.979
 1746SOL    HW1  785   1.870   1.500   2.000
 1746SOL    HW2  786   1.856   1.654   2.054
 1748SOL     OW  787   3.503   1.108   2.294
 1748SOL    HW1  788   3.589   1.110   2.242
 1748SOL    HW2  789   3.517   1.155   2.382
 1750SOL     OW  790   2.475   1.365   2.588
 1750SOL    HW1  791   2.426   1.278   2.597
 1750SOL    HW2  792   2.452   1.408   2.501
 1751SOL     OW  793   3.155   1.228   3.285
 1751SOL    HW1  794   3.192   1.155   3.227
 1751SOL    HW2  795   3.207   1.233   3.370
 1753SOL     OW  796   2.059   0.976   3.126
 1753SOL    HW1  797   2.148   0.931   3.112
 1753SOL    HW2  798   1.986   0.911   3.107
 1754SOL     OW  799   3.387   0.999   2.052
 1754SOL    HW1  800   3.324   0.923   2.065
 1754SOL    HW2  801   3.435   1.017   2.138
 1755SOL     OW  802   3.049   1.792   3.478
 1755SOL    HW1  803   3.073   1.852   3.402
 1755SOL    HW2  804   3.056   1.697   3.448
 1757SOL     OW  805   3.328   1.417   2.815
 1757SOL    HW1  806   3.269   1.423   2.895
 1757SOL    HW2  807   3.313   1.329   2.769
 1758SOL     OW  808   3.529   1.714   2.434
 1758SOL    HW1  809   3.488   1.691   2.346
 1758SOL    HW2  810   3.511   1.640   2.499
 1759SOL     OW  811   2.460   0.729   2.132
 1759SOL    HW1  812   2.484   0.798   2.064
 1759SOL    HW2  813   2.382   0.762   2.186
 1761SOL     OW  814   3.438   1.662   2.169
 1761SOL    HW1  815   3.527   1.708   2.172
 1761SOL    HW2  816   3.417   1.638   2.074
 1767SOL     OW  817   1.938   0.811   2.651
 1767SOL    HW1  818   2.037   0.799   2.660
 1767SOL    HW2  819   1.914   0.906   2.672
 1768SOL     OW  820   1.992   1.821   3.433
 1768SOL    HW1  821   1.982   1.806   3.532
 1768SOL    HW2  822   1.906   1.857   3.397
 1771SOL     OW  823   3.224   1.144   2.407
 1771SOL    HW1  824   3.307   1.115   2.359
 1771SOL    HW2  825   3.175   1.211   2.351
 1773SOL     OW  826   2.870   1.456   2.339
 1773SOL    HW1  827   2.824   1.528   2.287
 1773SOL    HW2  828   2.866   1.476   2.437
 1774SOL     OW  829   2.213   1.801   2.715
 1774SOL    HW1  830   2.263   1.715   2.721
 1774SOL    HW2  831   2.278   1.878   2.712
 1776SOL     OW  832   3.089   1.550   3.368
 1776SOL    HW1  833   3.095   1.473   3.432
 1776SOL    HW2  834   3.037   1.524   3.288
 1777SOL     OW  835   2.183   0.943   2.104
 1777SOL    HW1  836   2.265   0.982   2.062
 1777SOL    HW2  837   2.156   0.861   2.055
 1779SOL     OW  838   2.323   1.266   3.589
 1779SOL    HW1  839   2.273   1.267   3.503
 1779SOL    HW2  840   2.260   1.248   3.665
 1780SOL     OW  841   2.973   1.776   2.099
 1780SOL    HW1  842   2.913   1.714   2.149
 1780SOL    HW2  843   3.004   1.732   2.014
 1782SOL     OW  844   3.494   1.377   1.943
 1782SOL    HW1  845   3.462   1.471   1.933
 1782SOL    HW2  846   3.418   1.314   1.931
 1783SOL     OW  847   2.326   1.743   2.185
 1783SOL    HW1  848   2.359   1.782   2.271
 1783SOL    HW2  849   2.402   1.736   2.120
 1785SOL     OW  850   2.111   1.785   3.103
 1785SOL    HW1  851   2.168   1.720   3.153
 1785SOL    HW2  852   2.095   1.752   3.010
 1786SOL     OW  853   2.802   1.698   2.766
 1786SOL    HW1  854   2.882   1.641   2.787
 1786SOL    HW2  855   2.753   1.658   2.689
 1791SOL     OW  856   2.750   1.514   3.057
 1791SOL    HW1  857   2.727   1.489   2.963
 1791SOL    HW2  858   2.811   1.445   3.096
 1793SOL     OW  859   2.665   1.402   2.786
 1793SOL    HW1  860   2.755   1.416   2.744
 1793SOL    HW2  861   2.594   1.404   2.715
 1796SOL     OW  862   3.296   1.188   1.903
 1796SOL    HW1  863   3.328   1.112   1.960
 1796SOL    HW2  864   3.204   1.215   1.933
 1800SOL     OW  865   3.089   1.570   2.655
 1800SOL    HW1  866   3.110   1.644   2.590
 1800SOL    HW2  867   3.157   1.570   2.728
 1801SOL     OW  868   2.321   1.152   2.603
 1801SOL    HW1  869   2.250   1.125   2.668
 1801SOL    HW2  870   2.295   1.124   2.510
 1802SOL     OW  871   3.133   1.797   2.453
 1802SOL    HW1  872   3.177   1.861   2.389
 1802SOL    HW2  873   3.083   1.849   2.523
 1808SOL     OW  874   3.291   1.173   2.729
 1808SOL    HW1  875   3.236   1.089   2.722
 1808SOL    HW2  876   3.317   1.202   2.637
 1811SOL     OW  877   2.350   1.385   2.036
 1811SOL    HW1  878   2.263   1.370   2.083
 1811SOL    HW2  879   2.333   1.411   1.941
 1812SOL     OW  880   3.526   1.280   2.519
 1812SOL    HW1  881   3.625   1.288   2.533
 1812SOL    HW2  882   3.481   1.364   2.550
 1816SOL     OW  883   2.926   1.347   3.202
 1816SOL    HW1  884   2.846   1.324   3.257
 1816SOL    HW2  885   3.009   1.321   3.251
 1817SOL     OW  886   3.454   1.629   3.487
 1817SOL    HW1  887   3.481   1.663   3.397
 1817SOL    HW2  888   3.533   1.591   3.533
 1818SOL     OW  889   2.973   1.195   2.962
 1818SOL    HW1  890   2.933   1.239   3.043
 1818SOL    HW2  891   2.932   1.232   2.879
 1819SOL     OW  892   3.500   1.099   2.941
 1819SOL    HW1  893   3.505   1.180   3.000
 1819SOL    HW2  894   3.414   1.101   2.890
 1821SOL     OW  895   2.842   1.116   3.581
 1821SOL    HW1  896   2.743   1.122   3.591
 1821SOL    HW2  897   2.865   1.036   3.525
 1822SOL     OW  898   2.567   1.050   2.230
 1822SOL    HW1  899   2.553   1.057   2.329
 1822SOL    HW2  900   2.651   0.999   2.212
 1823SOL     OW  901   2.272   0.813   3.113
 1823SOL    HW1  902   2.358   0.825   3.163
 1823SOL    HW2  903   2.230   0.726   3.140
 1825SOL     OW  904   1.926   1.564   3.193
 1825SOL    HW1  905   1.880   1.646   3.159
 1825SOL    HW2  906   2.024   1.583   3.202
 1826SOL     OW  907   2.229   1.100   2.363
 1826SOL    HW1  908   2.222   1.183   2.307
 1826SOL    HW2  909   2.233   1.020   2.303
 1828SOL     OW  910   3.114   1.348   2.250
 1828SOL    HW1  911   3.164   1.425   2.290
 1828SOL    HW2  912   3.019   1.350   2.282
 1829SOL     OW  913   3.134   1.445   3.004
 1829SOL    HW1  914   3.181   1.458   3.091
 1829SOL    HW2  915   3.068   1.371   3.013
 1831SOL     OW  916   2.216   1.510   3.191
 1831SOL    HW1  917   2.195   1.466   3.104
 1831SOL    HW2  918   2.313   1.536   3.194
 1836SOL     OW  919   2.435   0.870   2.891
 1836SOL    HW1  920   2.479   0.959   2.882
 1836SOL    HW2  921   2.372   0.870   2.968
 1840SOL     OW  922   1.899   1.310   3.144
 1840SOL    HW1  923   1.952   1.261   3.212
 1840SOL    HW2  924   1.921   1.408   3.149
 1845SOL     OW  925   2.885   0.766   2.828
 1845SOL    HW1  926   2.900   0.787   2.924
 1845SOL    HW2  927   2.855   0.671   2.819
 1846SOL     OW  928   2.842   1.573   3.562
 1846SOL    HW1  929   2.822   1.617   3.474
 1846SOL    HW2  930   2.881   1.482   3.546
 1851SOL     OW  931   2.930   1.333   2.711
 1851SOL    HW1  932   2.937   1.249   2.656
 1851SOL    HW2  933   2.992   1.402   2.675
 1852SOL     OW  934   2.181   0.810   2.811
 1852SOL    HW1  935   2.274   0.846   2.816
 1852SOL    HW2  936   2.175   0.725   2.863
 1856SOL     OW  937   1.870   1.326   2.062
 1856SOL    HW1  938   1.777   1.347   2.031
 1856SOL    HW2  939   1.880   1.227   2.075
 1857SOL     OW  940   1.950   1.801   2.789
 1857SOL    HW1  941   1.908   1.715   2.762
 1857SOL    HW2  942   2.044   1.804   2.755
 1858SOL     OW  943   2.366   1.568   2.772
 1858SOL    HW1  944   2.432   1.642   2.781
 1858SOL    HW2  945   2.410   1.489   2.730
 1865SOL     OW  946   2.114   1.564   3.606
 1865SOL    HW1  947   2.084   1.621   3.682
 1865SOL    HW2  948   2.107   1.467   3.632
 1867SOL     OW  949   2.792   1.678   3.327
 1867SOL    HW1  950   2.768   1.660   3.232
 1867SOL    HW2  951   2.822   1.772   3.337
 1869SOL     OW  952   2.021   1.137   3.328
 1869SOL    HW1  953   2.043   1.076   3.404
 1869SOL    HW2  954   2.031   1.088   3.242
 1870SOL     OW  955   3.209   1.059   3.096
 1870SOL    HW1  956   3.233   0.996   3.022
 1870SOL    HW2  957   3.119   1.099   3.078
 1871SOL     OW  958   3.164   0.855   2.171
 1871SOL    HW1  959   3.078   0.824   2.213
 1871SOL    HW2  960   3.160   0.841   2.072
 1872SOL     OW  961   3.621   1.747   3.016
 1872SOL    HW1  962   3.682   1.777   2.943
 1872SOL    HW2  963   3.583   1.658   2.994
 1873SOL     OW  964   3.114   1.731   2.990
 1873SOL    HW1  965   3.198   1.736   2.936
 1873SOL    HW2  966   3.091   1.635   3.008
 1874SOL     OW  967   1.945   1.258   2.884
 1874SOL    HW1  968   1.940   1.257   2.984
 1874SOL    HW2  969   1.862   1.217   2.846
 1875SOL     OW  970   2.550   1.662   3.578
 1875SOL    HW1  971   2.494   1.743   3.587
 1875SOL    HW2  972   2.602   1.666   3.492
 1877SOL     OW  973   3.250   1.573   2.339
 1877SOL    HW1  974   3.317   1.585   2.265
 1877SOL    HW2  975   3.210   1.662   2.362
 1878SOL     OW  976   1.992   1.794   3.713
 1878SOL    HW1  977   1.951   1.720   3.766
 1878SOL    HW2  978   2.056   1.845   3.771
 1879SOL     OW  979   3.142   0.927   2.534
 1879SOL    HW1  980   3.202   0.846   2.536
 1879SOL    HW2  981   3.182   0.996   2.474
 1880SOL     OW  982   2.692   1.273   3.284
 1880SOL    HW1  983   2.687   1.306   3.379
 1880SOL    HW2  984   2.606   1.292   3.238
 1881SOL     OW  985   2.534   1.616   2.016
 1881SOL    HW1  986   2.543   1.626   1.917
 1881SOL    HW2  987   2.494   1.527   2.037
 1882SOL     OW  988   3.512   1.720   3.256
 1882SOL    HW1  989   3.565   1.730   3.172
 1882SOL    HW2  990   3.485   1.810   3.290
 1885SOL     OW  991   3.056   1.612   1.893
 1885SOL    HW1  992   3.062   1.519   1.930
 1885SOL    HW2  993   2.997   1.612   1.813
 1886SOL     OW  994   2.684   1.002   3.234
 1886SOL    HW1  995   2.724   1.001   3.142
 1886SOL    HW2  996   2.694   1.094   3.274
 1887SOL     OW  997   2.778   0.910   2.153
 1887SOL    HW1  998   2.841   0.948   2.085
 1887SOL    HW2  999   2.818   0.827   2.192
 1888SOL     OW 1000   3.366   1.607   1.906
 1888SOL    HW1 1001   3.274   1.644   1.913
 1888SOL    HW2 1002   3.404   1.627   1.816
 1889SOL     OW 1003   2.234   1.288   3.352
 1889SOL    HW1 1004   2.221   1.381   3.318
 1889SOL    HW2 1005   2.150   1.236   3.339
 1890SOL     OW 1006   3.476   1.292   3.151
 1890SOL    HW1 1007   3.536   1.295   3.231
 1890SOL    HW2 1008   3.401   1.356   3.164
 1891SOL     OW 1009   2.901   1.098   2.558
 1891SOL    HW1 1010   2.831   1.051   2.612
 1891SOL    HW2 1011   2.960   1.030   2.515
 1893SOL     OW 1012   2.452   1.487   2.353
 1893SOL    HW1 1013   2.494   1.429   2.283
 1893SOL    HW2 1014   2.408   1.566   2.309
 1895SOL     OW 1015   2.117   1.348   2.152
 1895SOL    HW1 1016   2.021   1.349   2.125
 1895SOL    HW2 1017   2.129   1.401   2.236
 1901SOL     OW 1018   3.045   1.335   1.981
 1901SOL    HW1 1019   2.946   1.324   1.983
 1901SOL    HW2 1020   3.079   1.350   2.074
 1903SOL     OW 1021   3.355   1.767   2.821
 1903SOL    HW1 1022   3.388   1.831   2.752
 1903SOL    HW2 1023   3.421   1.761   2.896
 1906SOL     OW 1024   2.252   1.741   3.422
 1906SOL    HW1 1025   2.161   1.782   3.420
 1906SOL    HW2 1026   2.245   1.647   3.454
 1909SOL     OW 1027   2.456   0.745   2.514
 1909SOL    HW1 1028   2.506   0.830   2.495
 1909SOL    HW2 1029   2.368   0.747   2.466
 1912SOL     OW 1030   2.721   1.374   1.878
 1912SOL    HW1 1031   2.675   1.389   1.966
 1912SOL    HW2 1032   2.765   1.459   1.848
 1913SOL     OW 1033   2.523   1.790   2.815
 1913SOL    HW1 1034   2.477   1.878   2.802
 1913SOL    HW2 1035   2.622   1.802   2.808
 1914SOL     OW 1036   2.721   0.956   2.723
 1914SOL    HW1 1037   2.775   0.887   2.771
 1914SOL    HW2 1038   2.689   1.025   2.789
 1915SOL     OW 1039   2.945   0.984   1.949
 1915SOL    HW1 1040   2.922   1.037   1.867
 1915SOL    HW2 1041   3.026   0.928   1.930
 1916SOL     OW 1042   3.723   1.569   2.713
 1916SOL    HW1 1043   3.652   1.557   2.643
 1916SOL    HW2 1044   3.724   1.490   2.773
 1917SOL     OW 1045   2.083   1.314   3.706
 1917SOL    HW1 1046   2.018   1.241   3.685
 1917SOL    HW2 1047   2.087   1.328   3.804
 1918SOL     OW 1048   1.941   1.240   2.515
 1918SOL    HW1 1049   1.940   1.193   2.603
 1918SOL    HW2 1050   2.023   1.212   2.464
 1919SOL     OW 1051   2.534   1.391   3.486
 1919SOL    HW1 1052   2.456   1.341   3.524
 1919SOL    HW2 1053   2.531   1.486   3.517
 1922SOL     OW 1054   3.567   1.487   2.966
 1922SOL    HW1 1055   3.474   1.462   2.939
 1922SOL    HW2 1056   3.593   1.437   3.048
 1924SOL     OW 1057   2.674   1.586   2.549
 1924SOL    HW1 1058   2.706   1.596   2.455
 1924SOL    HW2 1059   2.595   1.524   2.551
 1927SOL     OW 1060   2.632   1.330   2.163
 1927SOL    HW1 1061   2.586   1.243   2.180
 1927SOL    HW2 1062   2.723   1.327   2.204
 1928SOL     OW 1063   2.480   1.567   3.146
 1928SOL    HW1 1064   2.475   1.649   3.203
 1928SOL    HW2 1065   2.569   1.564   3.101
 1932SOL     OW 1066   1.901   1.077   2.162
 1932SOL    HW1 1067   2.000   1.066   2.153
 1932SOL    HW2 1068   1.861   0.991   2.194
 1933SOL     OW 1069   2.737   1.646   2.199
 1933SOL    HW1 1070   2.660   1.611   2.145
 1933SOL    HW2 1071   2.705   1.717   2.261
 1951SOL     OW 1072   1.889   1.596   3.841
 1951SOL    HW1 1073   1.870   1.500   3.862
 1951SOL    HW2 1074   1.856   1.654   3.916
 1973SOL     OW 1075   2.973   1.776   3.961
 1973SOL    HW1 1076   2.913   1.714   4.011
 1973SOL    HW2 1077   3.004   1.732   3.876
 1975SOL     OW 1078   2.326   1.743   4.047
 1975SOL    HW1 1079   2.359   1.782   4.133
 1975SOL    HW2 1080   2.402   1.736   3.982
 1996SOL     OW 1081   2.350   1.385   3.898
 1996SOL    HW1 1082   2.263   1.370   3.945
 1996SOL    HW2 1083   2.333   1.411   3.803
 2037SOL     OW 1084   2.534   1.616   3.878
 2037SOL    HW1 1085   2.543   1.626   3.779
 2037SOL    HW2 1086   2.494   1.527   3.899
 2040SOL     OW 1087   3.056   1.612   3.755
 2040SOL    HW1 1088   3.062   1.519   3.792
 2040SOL    HW2 1089   2.997   1.612   3.675
 2043SOL     OW 1090   3.366   1.607   3.768
 2043SOL    HW1 1091   3.274   1.644   3.775
 2043SOL    HW2 1092   3.404   1.627   3.678
 2056SOL     OW 1093   2.721   1.374   3.740
 2056SOL    HW1 1094   2.675   1.389   3.828
 2056SOL    HW2 1095   2.765   1.459   3.710
 2074SOL     OW 1096   2.087   2.137   0.996
 2074SOL    HW1 1097   2.122   2.120   1.088
 2074SOL    HW2 1098   1.999   2.092   0.984
 2076SOL     OW 1099   2.431   3.137   1.165
 2076SOL    HW1 1100   2.338   3.130   1.128
 2076SOL    HW2 1101   2.442   3.226   1.209
 2080SOL     OW 1102   2.630   3.006   1.023
 2080SOL    HW1 1103   2.552   3.023   1.083
 2080SOL    HW2 1104   2.664   3.093   0.987
 2081SOL     OW 1105   2.712   2.660   1.823
 2081SOL    HW1 1106   2.708   2.736   1.888
 2081SOL    HW2 1107   2.734   2.696   1.732
 2083SOL     OW 1108   2.548   3.023   1.803
 2083SOL    HW1 1109   2.608   3.102   1.817
 2083SOL    HW2 1110   2.462   3.054   1.762
 2084SOL     OW 1111   2.197   3.297   1.061
 2084SOL    HW1 1112   2.119   3.266   1.008
 2084SOL    HW2 1113   2.255   3.355   1.004
 2085SOL     OW 1114   3.322   3.367   1.339
 2085SOL    HW1 1115   3.346   3.461   1.365
 2085SOL    HW2 1116   3.306   3.313   1.421
 2086SOL     OW 1117   2.300   2.254   1.499
 2086SOL    HW1 1118   2.382   2.198   1.508
 2086SOL    HW2 1119   2.219   2.196   1.503
 2089SOL     OW 1120   2.989   3.203   1.690
 2089SOL    HW1 1121   3.036   3.203   1.778
 2089SOL    HW2 1122   2.941   3.116   1.679
 2091SOL     OW 1123   2.102   2.953   0.886
 2091SOL    HW1 1124   2.116   2.869   0.938
 2091SOL    HW2 1125   2.047   3.017   0.941
 2092SOL     OW 1126   2.482   3.648   1.439
 2092SOL    HW1 1127   2.390   3.631   1.474
 2092SOL    HW2 1128   2.510   3.740   1.465
 2094SOL     OW 1129   3.456   1.976   1.480
 2094SOL    HW1 1130   3.438   2.043   1.408
 2094SOL    HW2 1131   3.453   2.022   1.569
 2100SOL     OW 1132   1.975   2.599   1.597
 2100SOL    HW1 1133   2.063   2.586   1.642
 2100SOL    HW2 1134   1.962   2.696   1.575
 2102SOL     OW 1135   3.155   3.090   1.423
 2102SOL    HW1 1136   3.192   3.017   1.365
 2102SOL    HW2 1137   3.207   3.095   1.508
 2104SOL     OW 1138   2.059   2.838   1.264
 2104SOL    HW1 1139   2.148   2.793   1.250
 2104SOL    HW2 1140   1.986   2.773   1.245
 2106SOL     OW 1141   3.049   3.654   1.616
 2106SOL    HW1 1142   3.073   3.714   1.540
 2106SOL    HW2 1143   3.056   3.559   1.586
 2107SOL     OW 1144   2.179   2.113   1.801
 2107SOL    HW1 1145   2.250   2.184   1.807
 2107SOL    HW2 1146   2.091   2.152   1.829
 2111SOL     OW 1147   3.143   2.207   0.944
 2111SOL    HW1 1148   3.057   2.157   0.931
 2111SOL    HW2 1149   3.205   2.153   1.000
 2113SOL     OW 1150   2.669   2.467   1.465
 2113SOL    HW1 1151   2.622   2.464   1.554
 2113SOL    HW2 1152   2.618   2.412   1.399
 2114SOL     OW 1153   3.256   2.331   1.674
 2114SOL    HW1 1154   3.236   2.374   1.762
 2114SOL    HW2 1155   3.334   2.269   1.683
 2115SOL     OW 1156   2.835   2.752   1.572
 2115SOL    HW1 1157   2.881   2.668   1.543
 2115SOL    HW2 1158   2.779   2.786   1.497
 2116SOL     OW 1159   2.853   2.272   1.242
 2116SOL    HW1 1160   2.776   2.306   1.296
 2116SOL    HW2 1161   2.819   2.221   1.163
 2118SOL     OW 1162   1.938   2.673   0.789
 2118SOL    HW1 1163   2.037   2.661   0.798
 2118SOL    HW2 1164   1.914   2.768   0.810
 2119SOL     OW 1165   1.992   3.683   1.571
 2119SOL    HW1 1166   1.982   3.668   1.670
 2119SOL    HW2 1167   1.906   3.719   1.535
 2121SOL     OW 1168   3.581   2.447   1.831
 2121SOL    HW1 1169   3.555   2.536   1.795
 2121SOL    HW2 1170   3.579   2.379   1.758
 2123SOL     OW 1171   2.412   2.058   0.885
 2123SOL    HW1 1172   2.407   2.053   0.985
 2123SOL    HW2 1173   2.414   2.154   0.856
 2127SOL     OW 1174   3.089   3.412   1.506
 2127SOL    HW1 1175   3.095   3.335   1.570
 2127SOL    HW2 1176   3.037   3.386   1.426
 2130SOL     OW 1177   2.323   3.128   1.727
 2130SOL    HW1 1178   2.273   3.129   1.641
 2130SOL    HW2 1179   2.260   3.110   1.803
 2132SOL     OW 1180   2.064   2.147   1.498
 2132SOL    HW1 1181   1.984   2.207   1.485
 2132SOL    HW2 1182   2.054   2.098   1.584
 2136SOL     OW 1183   2.111   3.647   1.241
 2136SOL    HW1 1184   2.168   3.582   1.291
 2136SOL    HW2 1185   2.095   3.614   1.148
 2139SOL     OW 1186   3.409   2.084   1.729
 2139SOL    HW1 1187   3.404   2.121   1.821
 2139SOL    HW2 1188   3.337   2.015   1.717
 2141SOL     OW 1189   2.643   2.126   1.749
 2141SOL    HW1 1190   2.710   2.065   1.792
 2141SOL    HW2 1191   2.570   2.145   1.814
 2142SOL     OW 1192   2.750   3.376   1.195
 2142SOL    HW1 1193   2.727   3.351   1.101
 2142SOL    HW2 1194   2.811   3.307   1.234
 2143SOL     OW 1195   3.213   2.452   1.433
 2143SOL    HW1 1196   3.241   2.409   1.518
 2143SOL    HW2 1197   3.238   2.548   1.434
 2144SOL     OW 1198   2.665   3.264   0.924
 2144SOL    HW1 1199   2.755   3.278   0.882
 2144SOL    HW2 1200   2.594   3.266   0.853
 2145SOL     OW 1201   2.784   2.365   0.899
 2145SOL    HW1 1202   2.759   2.356   0.803
 2145SOL    HW2 1203   2.832   2.283   0.930
 2150SOL     OW 1204   2.938   2.545   1.464
 2150SOL    HW1 1205   2.858   2.484   1.467
 2150SOL    HW2 1206   3.019   2.492   1.440
 2155SOL     OW 1207   1.940   2.418   1.386
 2155SOL    HW1 1208   2.032   2.417   1.345
 2155SOL    HW2 1209   1.934   2.492   1.453
 2156SOL     OW 1210   2.423   2.084   1.147
 2156SOL    HW1 1211   2.461   2.000   1.184
 2156SOL    HW2 1212   2.335   2.103   1.191
 2160SOL     OW 1213   3.328   2.452   0.992
 2160SOL    HW1 1214   3.298   2.357   0.999
 2160SOL    HW2 1215   3.401   2.468   1.058
 2166SOL     OW 1216   3.616   3.085   1.588
 2166SOL    HW1 1217   3.707   3.046   1.575
 2166SOL    HW2 1218   3.624   3.181   1.612
 2167SOL     OW 1219   2.926   3.209   1.340
 2167SOL    HW1 1220   2.846   3.186   1.395
 2167SOL    HW2 1221   3.009   3.183   1.389
 2168SOL     OW 1222   3.454   3.491   1.625
 2168SOL    HW1 1223   3.481   3.525   1.535
 2168SOL    HW2 1224   3.533   3.453   1.671
 2169SOL     OW 1225   2.973   3.057   1.100
 2169SOL    HW1 1226   2.933   3.101   1.181
 2169SOL    HW2 1227   2.932   3.094   1.017
 2170SOL     OW 1228   3.500   2.961   1.079
 2170SOL    HW1 1229   3.505   3.042   1.138
 2170SOL    HW2 1230   3.414   2.963   1.028
 2171SOL     OW 1231   2.777   1.951   1.402
 2171SOL    HW1 1232   2.802   1.931   1.307
 2171SOL    HW2 1233   2.849   2.007   1.444
 2172SOL     OW 1234   2.842   2.978   1.719
 2172SOL    HW1 1235   2.743   2.984   1.729
 2172SOL    HW2 1236   2.865   2.898   1.663
 2174SOL     OW 1237   2.272   2.675   1.251
 2174SOL    HW1 1238   2.358   2.687   1.301
 2174SOL    HW2 1239   2.230   2.588   1.278
 2175SOL     OW 1240   3.136   2.248   1.262
 2175SOL    HW1 1241   3.157   2.322   1.326
 2175SOL    HW2 1242   3.047   2.265   1.219
 2176SOL     OW 1243   1.926   3.426   1.331
 2176SOL    HW1 1244   1.880   3.508   1.297
 2176SOL    HW2 1245   2.024   3.445   1.340
 2178SOL     OW 1246   2.428   2.399   0.865
 2178SOL    HW1 1247   2.440   2.465   0.791
 2178SOL    HW2 1248   2.474   2.433   0.948
 2180SOL     OW 1249   3.134   3.307   1.142
 2180SOL    HW1 1250   3.181   3.320   1.229
 2180SOL    HW2 1251   3.068   3.233   1.151
 2182SOL     OW 1252   2.216   3.372   1.329
 2182SOL    HW1 1253   2.195   3.328   1.242
 2182SOL    HW2 1254   2.313   3.398   1.332
 2183SOL     OW 1255   2.264   2.613   1.598
 2183SOL    HW1 1256   2.332   2.668   1.551
 2183SOL    HW2 1257   2.304   2.525   1.625
 2184SOL     OW 1258   3.449   2.641   1.670
 2184SOL    HW1 1259   3.357   2.679   1.665
 2184SOL    HW2 1260   3.509   2.688   1.605
 2185SOL     OW 1261   2.875   1.967   1.770
 2185SOL    HW1 1262   2.881   2.052   1.718
 2185SOL    HW2 1263   2.907   1.891   1.713
 2186SOL     OW 1264   2.366   1.912   1.740
 2186SOL    HW1 1265   2.324   1.855   1.670
 2186SOL    HW2 1266   2.300   1.981   1.772
 2187SOL     OW 1267   2.435   2.732   1.029
 2187SOL    HW1 1268   2.479   2.821   1.020
 2187SOL    HW2 1269   2.372   2.732   1.106
 2188SOL     OW 1270   3.222   2.724   1.045
 2188SOL    HW1 1271   3.147   2.724   0.979
 2188SOL    HW2 1272   3.259   2.632   1.054
 2190SOL     OW 1273   2.169   2.075   1.231
 2190SOL    HW1 1274   2.146   2.112   1.321
 2190SOL    HW2 1275   2.139   1.980   1.225
 2191SOL     OW 1276   1.899   3.172   1.282
 2191SOL    HW1 1277   1.952   3.123   1.350
 2191SOL    HW2 1278   1.921   3.270   1.287
 2192SOL     OW 1279   2.594   2.496   1.064
 2192SOL    HW1 1280   2.653   2.470   0.988
 2192SOL    HW2 1281   2.566   2.592   1.053
 2193SOL     OW 1282   3.590   2.797   1.854
 2193SOL    HW1 1283   3.544   2.790   1.765
 2193SOL    HW2 1284   3.528   2.841   1.920
 2196SOL     OW 1285   2.885   2.628   0.966
 2196SOL    HW1 1286   2.900   2.649   1.062
 2196SOL    HW2 1287   2.855   2.533   0.957
 2197SOL     OW 1288   2.842   3.435   1.700
 2197SOL    HW1 1289   2.822   3.479   1.612
 2197SOL    HW2 1290   2.881   3.344   1.684
 2198SOL     OW 1291   3.721   3.380   1.605
 2198SOL    HW1 1292   3.735   3.407   1.510
 2198SOL    HW2 1293   3.804   3.402   1.658
 2199SOL     OW 1294   2.212   2.760   1.804
 2199SOL    HW1 1295   2.288   2.804   1.852
 2199SOL    HW2 1296   2.247   2.713   1.722
 2203SOL     OW 1297   2.181   2.672   0.949
 2203SOL    HW1 1298   2.274   2.708   0.954
 2203SOL    HW2 1299   2.175   2.587   1.001
 2204SOL     OW 1300   2.201   2.371   1.006
 2204SOL    HW1 1301   2.149   2.288   0.989
 2204SOL    HW2 1302   2.278   2.376   0.942
 2205SOL     OW 1303   3.000   2.242   1.678
 2205SOL    HW1 1304   2.955   2.305   1.742
 2205SOL    HW2 1305   3.093   2.273   1.661
 2206SOL     OW 1306   3.022   2.069   1.477
 2206SOL    HW1 1307   3.022   2.133   1.554
 2206SOL    HW2 1308   3.050   2.117   1.394
 2210SOL     OW 1309   2.864   2.658   1.238
 2210SOL    HW1 1310   2.905   2.626   1.324
 2210SOL    HW2 1311   2.768   2.631   1.235
 2211SOL     OW 1312   1.902   2.406   1.114
 2211SOL    HW1 1313   1.987   2.373   1.073
 2211SOL    HW2 1314   1.915   2.421   1.212
 2212SOL     OW 1315   2.051   2.382   1.722
 2212SOL    HW1 1316   2.110   2.342   1.652
 2212SOL    HW2 1317   1.993   2.453   1.681
 2213SOL     OW 1318   3.231   2.812   1.660
 2213SOL    HW1 1319   3.270   2.901   1.680
 2213SOL    HW2 1320   3.241   2.792   1.563
 2215SOL     OW 1321   3.519   2.466   1.206
 2215SOL    HW1 1322   3.481   2.397   1.268
 2215SOL    HW2 1323   3.601   2.430   1.162
 2216SOL     OW 1324   2.114   3.426   1.744
 2216SOL    HW1 1325   2.084   3.483   1.820
 2216SOL    HW2 1326   2.107   3.329   1.770
 2217SOL     OW 1327   2.533   2.326   1.269
 2217SOL    HW1 1328   2.499   2.237   1.239
 2217SOL    HW2 1329   2.559   2.380   1.189
 2218SOL     OW 1330   2.792   3.540   1.465
 2218SOL    HW1 1331   2.768   3.522   1.370
 2218SOL    HW2 1332   2.822   3.634   1.475
 2220SOL     OW 1333   2.021   2.999   1.466
 2220SOL    HW1 1334   2.043   2.938   1.542
 2220SOL    HW2 1335   2.031   2.950   1.380
 2221SOL     OW 1336   3.209   2.921   1.234
 2221SOL    HW1 1337   3.233   2.858   1.160
 2221SOL    HW2 1338   3.119   2.961   1.216
 2225SOL     OW 1339   1.945   3.120   1.022
 2225SOL    HW1 1340   1.940   3.119   1.122
 2225SOL    HW2 1341   1.862   3.079   0.984
 2226SOL     OW 1342   2.550   3.524   1.716
 2226SOL    HW1 1343   2.494   3.605   1.725
 2226SOL    HW2 1344   2.602   3.528   1.630
 2230SOL     OW 1345   1.992   3.656   1.851
 2230SOL    HW1 1346   1.951   3.582   1.904
 2230SOL    HW2 1347   2.056   3.707   1.909
 2232SOL     OW 1348   2.692   3.135   1.422
 2232SOL    HW1 1349   2.687   3.168   1.517
 2232SOL    HW2 1350   2.606   3.154   1.376
 2238SOL     OW 1351   2.684   2.864   1.372
 2238SOL    HW1 1352   2.724   2.863   1.280
 2238SOL    HW2 1353   2.694   2.956   1.412
 2241SOL     OW 1354   2.234   3.150   1.490
 2241SOL    HW1 1355   2.221   3.243   1.456
 2241SOL    HW2 1356   2.150   3.098   1.477
 2242SOL     OW 1357   3.476   3.154   1.289
 2242SOL    HW1 1358   3.536   3.157   1.369
 2242SOL    HW2 1359   3.401   3.218   1.302
 2244SOL     OW 1360   2.876   2.098   0.971
 2244SOL    HW1 1361   2.868   2.062   0.878
 2244SOL    HW2 1362   2.874   2.022   1.036
 2246SOL     OW 1363   3.571   2.247   1.381
 2246SOL    HW1 1364   3.644   2.316   1.385
 2246SOL    HW2 1365   3.599   2.172   1.322
 2248SOL     OW 1366   1.967   2.875   1.726
 2248SOL    HW1 1367   1.890   2.842   1.780
 2248SOL    HW2 1368   2.052   2.845   1.768
 2249SOL     OW 1369   2.534   2.065   1.489
 2249SOL    HW1 1370   2.624   2.049   1.449
 2249SOL    HW2 1371   2.542   2.070   1.588
 2250SOL     OW 1372   3.302   2.718   1.398
 2250SOL    HW1 1373   3.245   2.770   1.335
 2250SOL    HW2 1374   3.398   2.730   1.374
 2253SOL     OW 1375   2.475   2.704   1.431
 2253SOL    HW1 1376   2.531   2.785   1.414
 2253SOL    HW2 1377   2.534   2.624   1.434
 2255SOL     OW 1378   2.578   2.427   1.708
 2255SOL    HW1 1379   2.597   2.492   1.782
 2255SOL    HW2 1380   2.638   2.347   1.717
 2256SOL     OW 1381   3.312   3.082   1.633
 2256SOL    HW1 1382   3.303   3.072   1.732
 2256SOL    HW2 1383   3.408   3.075   1.607
 2257SOL     OW 1384   2.252   3.603   1.560
 2257SOL    HW1 1385   2.161   3.644   1.558
 2257SOL    HW2 1386   2.245   3.509   1.592
 2258SOL     OW 1387   3.536   2.745   1.254
 2258SOL    HW1 1388   3.509   2.656   1.217
 2258SOL    HW2 1389   3.537   2.813   1.181
 2261SOL     OW 1390   3.639   2.204   1.642
 2261SOL    HW1 1391   3.622   2.235   1.548
 2261SOL    HW2 1392   3.555   2.167   1.680
 2262SOL     OW 1393   3.592   2.796   1.517
 2262SOL    HW1 1394   3.630   2.887   1.532
 2262SOL    HW2 1395   3.584   2.779   1.418
 2265SOL     OW 1396   2.721   2.818   0.861
 2265SOL    HW1 1397   2.775   2.749   0.909
 2265SOL    HW2 1398   2.689   2.887   0.927
 2268SOL     OW 1399   2.083   3.176   1.844
 2268SOL    HW1 1400   2.018   3.103   1.823
 2268SOL    HW2 1401   2.087   3.190   1.942
 2270SOL     OW 1402   2.534   3.253   1.624
 2270SOL    HW1 1403   2.456   3.203   1.662
 2270SOL    HW2 1404   2.531   3.348   1.655
 2271SOL     OW 1405   3.686   2.054   1.227
 2271SOL    HW1 1406   3.682   1.964   1.271
 2271SOL    HW2 1407   3.689   2.043   1.128
 2274SOL     OW 1408   2.179   2.409   1.280
 2274SOL    HW1 1409   2.217   2.350   1.352
 2274SOL    HW2 1410   2.219   2.383   1.192
 2276SOL     OW 1411   3.286   2.076   1.112
 2276SOL    HW1 1412   3.338   2.011   1.167
 2276SOL    HW2 1413   3.237   2.139   1.173
 2277SOL     OW 1414   2.863   1.896   1.154
 2277SOL    HW1 1415   2.800   1.824   1.123
 2277SOL    HW2 1416   2.956   1.860   1.154
 2279SOL     OW 1417   2.480   3.429   1.284
 2279SOL    HW1 1418   2.475   3.511   1.341
 2279SOL    HW2 1419   2.569   3.426   1.239
 2285SOL     OW 1420   2.092   2.490   1.975
 2285SOL    HW1 1421   1.999   2.488   2.012
 2285SOL    HW2 1422   2.093   2.451   1.883
 2286SOL     OW 1423   2.087   2.137   2.858
 2286SOL    HW1 1424   2.122   2.120   2.950
 2286SOL    HW2 1425   1.999   2.092   2.846
 2287SOL     OW 1426   1.881   2.230   2.509
 2287SOL    HW1 1427   1.799   2.273   2.548
 2287SOL    HW2 1428   1.853   2.157   2.446
 2288SOL     OW 1429   2.431   3.137   3.027
 2288SOL    HW1 1430   2.338   3.130   2.990
 2288SOL    HW2 1431   2.442   3.226   3.071
 2289SOL     OW 1432   3.417   3.373   2.565
 2289SOL    HW1 1433   3.360   3.357   2.646
 2289SOL    HW2 1434   3.358   3.383   2.485
 2290SOL     OW 1435   3.617   2.469   2.093
 2290SOL    HW1 1436   3.605   2.456   1.994
 2290SOL    HW2 1437   3.587   2.388   2.142
 2291SOL     OW 1438   2.630   3.006   2.885
 2291SOL    HW1 1439   2.552   3.023   2.945
 2291SOL    HW2 1440   2.664   3.093   2.849
 2292SOL     OW 1441   2.712   2.660   3.685
 2292SOL    HW1 1442   2.708   2.736   3.750
 2292SOL    HW2 1443   2.734   2.696   3.594
 2293SOL     OW 1444   2.547   2.874   2.527
 2293SOL    HW1 1445   2.616   2.858   2.597
 2293SOL    HW2 1446   2.474   2.931   2.565
 2294SOL     OW 1447   2.548   3.023   3.665
 2294SOL    HW1 1448   2.608   3.102   3.679
 2294SOL    HW2 1449   2.462   3.054   3.624
 2295SOL     OW 1450   2.197   3.297   2.923
 2295SOL    HW1 1451   2.119   3.266   2.870
 2295SOL    HW2 1452   2.255   3.355   2.866
 2296SOL     OW 1453   3.322   3.367   3.201
 2296SOL    HW1 1454   3.346   3.461   3.227
 2296SOL    HW2 1455   3.306   3.313   3.283
 2297SOL     OW 1456   2.300   2.254   3.361
 2297SOL    HW1 1457   2.382   2.198   3.370
 2297SOL    HW2 1458   2.219   2.196   3.365
 2298SOL     OW 1459   3.465   2.309   2.599
 2298SOL    HW1 1460   3.391   2.355   2.549
 2298SOL    HW2 1461   3.516   2.377   2.652
 2299SOL     OW 1462   2.093   3.575   2.345
 2299SOL    HW1 1463   2.127   3.652   2.399
 2299SOL    HW2 1464   2.137   3.575   2.255
 2300SOL     OW 1465   2.989   3.203   3.552
 2300SOL    HW1 1466   3.036   3.203   3.640
 2300SOL    HW2 1467   2.941   3.116   3.541
 2301SOL     OW 1468   2.092   3.296   2.400
 2301SOL    HW1 1469   2.066   3.392   2.400
 2301SOL    HW2 1470   2.021   3.242   2.445
 2302SOL     OW 1471   2.102   2.953   2.748
 2302SOL    HW1 1472   2.116   2.869   2.800
 2302SOL    HW2 1473   2.047   3.017   2.803
 2303SOL     OW 1474   2.482   3.648   3.301
 2303SOL    HW1 1475   2.390   3.631   3.336
 2303SOL    HW2 1476   2.510   3.740   3.327
 2304SOL     OW 1477   2.468   2.826   1.985
 2304SOL    HW1 1478   2.475   2.910   1.931
 2304SOL    HW2 1479   2.514   2.839   2.073
 2305SOL     OW 1480   3.456   1.976   3.342
 2305SOL    HW1 1481   3.438   2.043   3.270
 2305SOL    HW2 1482   3.453   2.022   3.431
 2306SOL     OW 1483   3.704   3.629   2.221
 2306SOL    HW1 1484   3.758   3.600   2.301
 2306SOL    HW2 1485   3.734   3.719   2.192
 2307SOL     OW 1486   1.889   3.458   1.979
 2307SOL    HW1 1487   1.870   3.362   2.000
 2307SOL    HW2 1488   1.856   3.516   2.054
 2308SOL     OW 1489   3.551   2.784   2.474
 2308SOL    HW1 1490   3.646   2.755   2.482
 2308SOL    HW2 1491   3.543   2.849   2.399
 2309SOL     OW 1492   3.503   2.970   2.294
 2309SOL    HW1 1493   3.589   2.972   2.242
 2309SOL    HW2 1494   3.517   3.017   2.382
 2310SOL     OW 1495   1.975   2.599   3.459
 2310SOL    HW1 1496   2.063   2.586   3.504
 2310SOL    HW2 1497   1.962   2.696   3.437
 2311SOL     OW 1498   2.475   3.227   2.588
 2311SOL    HW1 1499   2.426   3.140   2.597
 2311SOL    HW2 1500   2.452   3.270   2.501
 2312SOL     OW 1501   3.155   3.090   3.285
 2312SOL    HW1 1502   3.192   3.017   3.227
 2312SOL    HW2 1503   3.207   3.095   3.370
 2313SOL     OW 1504   2.671   1.866   2.364
 2313SOL    HW1 1505   2.711   1.957   2.355
 2313SOL    HW2 1506   2.571   1.874   2.370
 2314SOL     OW 1507   2.059   2.838   3.126
 2314SOL    HW1 1508   2.148   2.793   3.112
 2314SOL    HW2 1509   1.986   2.773   3.107
 2315SOL     OW 1510   3.387   2.861   2.052
 2315SOL    HW1 1511   3.324   2.785   2.065
 2315SOL    HW2 1512   3.435   2.879   2.138
 2316SOL     OW 1513   3.049   3.654   3.478
 2316SOL    HW1 1514   3.073   3.714   3.402
 2316SOL    HW2 1515   3.056   3.559   3.448
 2317SOL     OW 1516   2.179   2.113   3.663
 2317SOL    HW1 1517   2.250   2.184   3.669
 2317SOL    HW2 1518   2.091   2.152   3.691
 2318SOL     OW 1519   3.328   3.279   2.815
 2318SOL    HW1 1520   3.269   3.285   2.895
 2318SOL    HW2 1521   3.313   3.191   2.769
 2319SOL     OW 1522   3.529   3.576   2.434
 2319SOL    HW1 1523   3.488   3.553   2.346
 2319SOL    HW2 1524   3.511   3.502   2.499
 2320SOL     OW 1525   2.460   2.591   2.132
 2320SOL    HW1 1526   2.484   2.660   2.064
 2320SOL    HW2 1527   2.382   2.624   2.186
 2321SOL     OW 1528   3.143   2.207   2.806
 2321SOL    HW1 1529   3.057   2.157   2.793
 2321SOL    HW2 1530   3.205   2.153   2.862
 2322SOL     OW 1531   3.438   3.524   2.169
 2322SOL    HW1 1532   3.527   3.570   2.172
 2322SOL    HW2 1533   3.417   3.500   2.074
 2323SOL     OW 1534   2.669   2.467   3.327
 2323SOL    HW1 1535   2.622   2.464   3.416
 2323SOL    HW2 1536   2.618   2.412   3.261
 2324SOL     OW 1537   3.256   2.331   3.536
 2324SOL    HW1 1538   3.236   2.374   3.624
 2324SOL    HW2 1539   3.334   2.269   3.545
 2325SOL     OW 1540   2.835   2.752   3.434
 2325SOL    HW1 1541   2.881   2.668   3.405
 2325SOL    HW2 1542   2.779   2.786   3.359
 2326SOL     OW 1543   2.853   2.272   3.104
 2326SOL    HW1 1544   2.776   2.306   3.158
 2326SOL    HW2 1545   2.819   2.221   3.025
 2327SOL     OW 1546   2.903   2.563   2.291
 2327SOL    HW1 1547   2.929   2.559   2.387
 2327SOL    HW2 1548   2.818   2.512   2.277
 2328SOL     OW 1549   1.938   2.673   2.651
 2328SOL    HW1 1550   2.037   2.661   2.660
 2328SOL    HW2 1551   1.914   2.768   2.672
 2329SOL     OW 1552   1.992   3.683   3.433
 2329SOL    HW1 1553   1.982   3.668   3.532
 2329SOL    HW2 1554   1.906   3.719   3.397
 2330SOL     OW 1555   2.727   2.210   2.057
 2330SOL    HW1 1556   2.786   2.273   2.008
 2330SOL    HW2 1557   2.746   2.116   2.028
 2331SOL     OW 1558   3.581   2.447   3.693
 2331SOL    HW1 1559   3.555   2.536   3.657
 2331SOL    HW2 1560   3.579   2.379   3.620
 2332SOL     OW 1561   3.224   3.006   2.407
 2332SOL    HW1 1562   3.307   2.977   2.359
 2332SOL    HW2 1563   3.175   3.073   2.351
 2333SOL     OW 1564   2.412   2.058   2.747
 2333SOL    HW1 1565   2.407   2.053   2.847
 2333SOL    HW2 1566   2.414   2.154   2.718
 2334SOL     OW 1567   2.870   3.318   2.339
 2334SOL    HW1 1568   2.824   3.390   2.287
 2334SOL    HW2 1569   2.866   3.338   2.437
 2335SOL     OW 1570   2.213   3.663   2.715
 2335SOL    HW1 1571   2.263   3.577   2.721
 2335SOL    HW2 1572   2.278   3.740   2.712
 2336SOL     OW 1573   3.657   2.928   2.735
 2336SOL    HW1 1574   3.595   2.913   2.659
 2336SOL    HW2 1575   3.605   2.939   2.820
 2337SOL     OW 1576   3.089   3.412   3.368
 2337SOL    HW1 1577   3.095   3.335   3.432
 2337SOL    HW2 1578   3.037   3.386   3.288
 2338SOL     OW 1579   2.183   2.805   2.104
 2338SOL    HW1 1580   2.265   2.844   2.062
 2338SOL    HW2 1581   2.156   2.723   2.055
 2339SOL     OW 1582   3.320   2.597   2.590
 2339SOL    HW1 1583   3.315   2.532   2.665
 2339SOL    HW2 1584   3.400   2.656   2.603
 2340SOL     OW 1585   2.323   3.128   3.589
 2340SOL    HW1 1586   2.273   3.129   3.503
 2340SOL    HW2 1587   2.260   3.110   3.665
 2341SOL     OW 1588   2.973   3.638   2.099
 2341SOL    HW1 1589   2.913   3.576   2.149
 2341SOL    HW2 1590   3.004   3.594   2.014
 2342SOL     OW 1591   2.064   2.147   3.360
 2342SOL    HW1 1592   1.984   2.207   3.347
 2342SOL    HW2 1593   2.054   2.098   3.446
 2343SOL     OW 1594   3.494   3.239   1.943
 2343SOL    HW1 1595   3.462   3.333   1.933
 2343SOL    HW2 1596   3.418   3.176   1.931
 2344SOL     OW 1597   2.326   3.605   2.185
 2344SOL    HW1 1598   2.359   3.644   2.271
 2344SOL    HW2 1599   2.402   3.598   2.120
 2345SOL     OW 1600   3.262   1.969   2.288
 2345SOL    HW1 1601   3.238   1.932   2.198
 2345SOL    HW2 1602   3.361   1.985   2.292
 2346SOL     OW 1603   2.111   3.647   3.103
 2346SOL    HW1 1604   2.168   3.582   3.153
 2346SOL    HW2 1605   2.095   3.614   3.010
 2347SOL     OW 1606   2.802   3.560   2.766
 2347SOL    HW1 1607   2.882   3.503   2.787
 2347SOL    HW2 1608   2.753   3.520   2.689
 2348SOL     OW 1609   3.409   2.084   3.591
 2348SOL    HW1 1610   3.404   2.121   3.683
 2348SOL    HW2 1611   3.337   2.015   3.579
 2349SOL     OW 1612   2.476   1.984   1.979
 2349SOL    HW1 1613   2.574   1.962   1.986
 2349SOL    HW2 1614   2.445   1.967   1.886
 2350SOL     OW 1615   2.643   2.126   3.611
 2350SOL    HW1 1616   2.710   2.065   3.654
 2350SOL    HW2 1617   2.570   2.145   3.676
 2351SOL     OW 1618   2.750   3.376   3.057
 2351SOL    HW1 1619   2.727   3.351   2.963
 2351SOL    HW2 1620   2.811   3.307   3.096
 2352SOL     OW 1621   3.213   2.452   3.295
 2352SOL    HW1 1622   3.241   2.409   3.380
 2352SOL    HW2 1623   3.238   2.548   3.296
 2353SOL     OW 1624   2.665   3.264   2.786
 2353SOL    HW1 1625   2.755   3.278   2.744
 2353SOL    HW2 1626   2.594   3.266   2.715
 2354SOL     OW 1627   2.401   1.926   2.374
 2354SOL    HW1 1628   2.320   1.927   2.432
 2354SOL    HW2 1629   2.404   2.009   2.319
 2355SOL     OW 1630   3.296   3.050   1.903
 2355SOL    HW1 1631   3.328   2.974   1.960
 2355SOL    HW2 1632   3.204   3.077   1.933
 2356SOL     OW 1633   2.159   1.897   2.033
 2356SOL    HW1 1634   2.208   1.981   2.012
 2356SOL    HW2 1635   2.221   1.832   2.078
 2357SOL     OW 1636   2.797   2.098   2.342
 2357SOL    HW1 1637   2.749   2.139   2.264
 2357SOL    HW2 1638   2.896   2.096   2.323
 2358SOL     OW 1639   2.938   2.545   3.326
 2358SOL    HW1 1640   2.858   2.484   3.329
 2358SOL    HW2 1641   3.019   2.492   3.302
 2359SOL     OW 1642   3.089   3.432   2.655
 2359SOL    HW1 1643   3.110   3.506   2.590
 2359SOL    HW2 1644   3.157   3.432   2.728
 2360SOL     OW 1645   2.321   3.014   2.603
 2360SOL    HW1 1646   2.250   2.987   2.668
 2360SOL    HW2 1647   2.295   2.986   2.510
 2361SOL     OW 1648   3.133   3.659   2.453
 2361SOL    HW1 1649   3.177   3.723   2.389
 2361SOL    HW2 1650   3.083   3.711   2.523
 2362SOL     OW 1651   2.894   2.411   1.878
 2362SOL    HW1 1652   2.853   2.493   1.839
 2362SOL    HW2 1653   2.958   2.437   1.951
 2363SOL     OW 1654   1.940   2.418   3.248
 2363SOL    HW1 1655   2.032   2.417   3.207
 2363SOL    HW2 1656   1.934   2.492   3.315
 2364SOL     OW 1657   2.423   2.084   3.009
 2364SOL    HW1 1658   2.461   2.000   3.046
 2364SOL    HW2 1659   2.335   2.103   3.053
 2365SOL     OW 1660   2.879   1.901   2.615
 2365SOL    HW1 1661   2.807   1.906   2.546
 2365SOL    HW2 1662   2.855   1.832   2.684
 2366SOL     OW 1663   3.291   3.035   2.729
 2366SOL    HW1 1664   3.236   2.951   2.722
 2366SOL    HW2 1665   3.317   3.064   2.637
 2367SOL     OW 1666   3.328   2.452   2.854
 2367SOL    HW1 1667   3.298   2.357   2.861
 2367SOL    HW2 1668   3.401   2.468   2.920
 2368SOL     OW 1669   3.719   2.695   2.239
 2368SOL    HW1 1670   3.761   2.631   2.303
 2368SOL    HW2 1671   3.681   2.644   2.161
 2369SOL     OW 1672   2.350   3.247   2.036
 2369SOL    HW1 1673   2.263   3.232   2.083
 2369SOL    HW2 1674   2.333   3.273   1.941
 2370SOL     OW 1675   3.526   3.142   2.519
 2370SOL    HW1 1676   3.625   3.150   2.533
 2370SOL    HW2 1677   3.481   3.226   2.550
 2371SOL     OW 1678   3.252   2.437   1.940
 2371SOL    HW1 1679   3.198   2.416   2.021
 2371SOL    HW2 1680   3.343   2.396   1.949
 2372SOL     OW 1681   3.616   3.085   3.450
 2372SOL    HW1 1682   3.707   3.046   3.437
 2372SOL    HW2 1683   3.624   3.181   3.474
 2373SOL     OW 1684   2.926   3.209   3.202
 2373SOL    HW1 1685   2.846   3.186   3.257
 2373SOL    HW2 1686   3.009   3.183   3.251
 2374SOL     OW 1687   3.454   3.491   3.487
 2374SOL    HW1 1688   3.481   3.525   3.397
 2374SOL    HW2 1689   3.533   3.453   3.533
 2375SOL     OW 1690   2.973   3.057   2.962
 2375SOL    HW1 1691   2.933   3.101   3.043
 2375SOL    HW2 1692   2.932   3.094   2.879
 2376SOL     OW 1693   3.500   2.961   2.941
 2376SOL    HW1 1694   3.505   3.042   3.000
 2376SOL    HW2 1695   3.414   2.963   2.890
 2377SOL     OW 1696   2.777   1.951   3.264
 2377SOL    HW1 1697   2.802   1.931   3.169
 2377SOL    HW2 1698   2.849   2.007   3.306
 2378SOL     OW 1699   2.842   2.978   3.581
 2378SOL    HW1 1700   2.743   2.984   3.591
 2378SOL    HW2 1701   2.865   2.898   3.525
 2379SOL     OW 1702   2.567   2.912   2.230
 2379SOL    HW1 1703   2.553   2.919   2.329
 2379SOL    HW2 1704   2.651   2.861   2.212
 2380SOL     OW 1705   2.272   2.675   3.113
 2380SOL    HW1 1706   2.358   2.687   3.163
 2380SOL    HW2 1707   2.230   2.588   3.140
 2381SOL     OW 1708   3.136   2.248   3.124
 2381SOL    HW1 1709   3.157   2.322   3.188
 2381SOL    HW2 1710   3.047   2.265   3.081
 2382SOL     OW 1711   1.926   3.426   3.193
 2382SOL    HW1 1712   1.880   3.508   3.159
 2382SOL    HW2 1713   2.024   3.445   3.202
 2383SOL     OW 1714   2.229   2.962   2.363
 2383SOL    HW1 1715   2.222   3.045   2.307
 2383SOL    HW2 1716   2.233   2.882   2.303
 2384SOL     OW 1717   2.428   2.399   2.727
 2384SOL    HW1 1718   2.440   2.465   2.653
 2384SOL    HW2 1719   2.474   2.433   2.810
 2385SOL     OW 1720   3.114   3.210   2.250
 2385SOL    HW1 1721   3.164   3.287   2.290
 2385SOL    HW2 1722   3.019   3.212   2.282
 2386SOL     OW 1723   3.134   3.307   3.004
 2386SOL    HW1 1724   3.181   3.320   3.091
 2386SOL    HW2 1725   3.068   3.233   3.013
 2387SOL     OW 1726   3.444   2.501   2.334
 2387SOL    HW1 1727   3.413   2.562   2.407
 2387SOL    HW2 1728   3.494   2.553   2.265
 2388SOL     OW 1729   2.216   3.372   3.191
 2388SOL    HW1 1730   2.195   3.328   3.104
 2388SOL    HW2 1731   2.313   3.398   3.194
 2389SOL     OW 1732   2.264   2.613   3.460
 2389SOL    HW1 1733   2.332   2.668   3.413
 2389SOL    HW2 1734   2.304   2.525   3.487
 2390SOL     OW 1735   3.449   2.641   3.532
 2390SOL    HW1 1736   3.357   2.679   3.527
 2390SOL    HW2 1737   3.509   2.688   3.467
 2391SOL     OW 1738   2.875   1.967   3.632
 2391SOL    HW1 1739   2.881   2.052   3.580
 2391SOL    HW2 1740   2.907   1.891   3.575
 2392SOL     OW 1741   2.366   1.912   3.602
 2392SOL    HW1 1742   2.324   1.855   3.532
 2392SOL    HW2 1743   2.300   1.981   3.634
 2393SOL     OW 1744   2.435   2.732   2.891
 2393SOL    HW1 1745   2.479   2.821   2.882
 2393SOL    HW2 1746   2.372   2.732   2.968
 2394SOL     OW 1747   3.222   2.724   2.907
 2394SOL    HW1 1748   3.147   2.724   2.841
 2394SOL    HW2 1749   3.259   2.632   2.916
 2395SOL     OW 1750   3.071   2.387   2.137
 2395SOL    HW1 1751   3.084   2.303   2.191
 2395SOL    HW2 1752   3.042   2.461   2.197
 2396SOL     OW 1753   2.169   2.075   3.093
 2396SOL    HW1 1754   2.146   2.112   3.183
 2396SOL    HW2 1755   2.139   1.980   3.087
 2397SOL     OW 1756   1.899   3.172   3.144
 2397SOL    HW1 1757   1.952   3.123   3.212
 2397SOL    HW2 1758   1.921   3.270   3.149
 2398SOL     OW 1759   2.594   2.496   2.926
 2398SOL    HW1 1760   2.653   2.470   2.850
 2398SOL    HW2 1761   2.566   2.592   2.915
 2399SOL     OW 1762   3.590   2.797   3.716
 2399SOL    HW1 1763   3.544   2.790   3.627
 2399SOL    HW2 1764   3.528   2.841   3.782
 2400SOL     OW 1765   2.169   1.925   2.480
 2400SOL    HW1 1766   2.158   2.019   2.513
 2400SOL    HW2 1767   2.164   1.862   2.557
 2401SOL     OW 1768   3.484   2.229   2.236
 2401SOL    HW1 1769   3.486   2.153   2.300
 2401SOL    HW2 1770   3.436   2.306   2.276
 2402SOL     OW 1771   2.842   3.435   3.562
 2402SOL    HW1 1772   2.822   3.479   3.474
 2402SOL    HW2 1773   2.881   3.344   3.546
 2404SOL     OW 1774   2.212   2.760   3.666
 2404SOL    HW1 1775   2.288   2.804   3.714
 2404SOL    HW2 1776   2.247   2.713   3.584
 2405SOL     OW 1777   3.402   2.136   1.987
 2405SOL    HW1 1778   3.341   2.061   2.010
 2405SOL    HW2 1779   3.424   2.188   2.070
 2406SOL     OW 1780   3.165   2.700   1.904
 2406SOL    HW1 1781   3.199   2.607   1.919
 2406SOL    HW2 1782   3.183   2.727   1.809
 2407SOL     OW 1783   2.930   3.195   2.711
 2407SOL    HW1 1784   2.937   3.111   2.656
 2407SOL    HW2 1785   2.992   3.264   2.675
 2408SOL     OW 1786   2.181   2.672   2.811
 2408SOL    HW1 1787   2.274   2.708   2.816
 2408SOL    HW2 1788   2.175   2.587   2.863
 2409SOL     OW 1789   2.201   2.371   2.868
 2409SOL    HW1 1790   2.149   2.288   2.851
 2409SOL    HW2 1791   2.278   2.376   2.804
 2410SOL     OW 1792   3.000   2.242   3.540
 2410SOL    HW1 1793   2.955   2.305   3.604
 2410SOL    HW2 1794   3.093   2.273   3.523
 2411SOL     OW 1795   3.022   2.069   3.339
 2411SOL    HW1 1796   3.022   2.133   3.416
 2411SOL    HW2 1797   3.050   2.117   3.256
 2412SOL     OW 1798   1.870   3.188   2.062
 2412SOL    HW1 1799   1.777   3.209   2.031
 2412SOL    HW2 1800   1.880   3.089   2.075
 2413SOL     OW 1801   1.950   3.663   2.789
 2413SOL    HW1 1802   1.908   3.577   2.762
 2413SOL    HW2 1803   2.044   3.666   2.755
 2414SOL     OW 1804   2.366   3.430   2.772
 2414SOL    HW1 1805   2.432   3.504   2.781
 2414SOL    HW2 1806   2.410   3.351   2.730
 2415SOL     OW 1807   2.864   2.658   3.100
 2415SOL    HW1 1808   2.905   2.626   3.186
 2415SOL    HW2 1809   2.768   2.631   3.097
 2416SOL     OW 1810   1.902   2.406   2.976
 2416SOL    HW1 1811   1.987   2.373   2.935
 2416SOL    HW2 1812   1.915   2.421   3.074
 2417SOL     OW 1813   2.051   2.382   3.584
 2417SOL    HW1 1814   2.110   2.342   3.514
 2417SOL    HW2 1815   1.993   2.453   3.543
 2418SOL     OW 1816   3.231   2.812   3.522
 2418SOL    HW1 1817   3.270   2.901   3.542
 2418SOL    HW2 1818   3.241   2.792   3.425
 2419SOL     OW 1819   2.677   2.434   2.187
 2419SOL    HW1 1820   2.684   2.345   2.141
 2419SOL    HW2 1821   2.583   2.468   2.179
 2420SOL     OW 1822   3.519   2.466   3.068
 2420SOL    HW1 1823   3.481   2.397   3.130
 2420SOL    HW2 1824   3.601   2.430   3.024
 2421SOL     OW 1825   2.114   3.426   3.606
 2421SOL    HW1 1826   2.084   3.483   3.682
 2421SOL    HW2 1827   2.107   3.329   3.632
 2422SOL     OW 1828   2.533   2.326   3.131
 2422SOL    HW1 1829   2.499   2.237   3.101
 2422SOL    HW2 1830   2.559   2.380   3.051
 2423SOL     OW 1831   2.792   3.540   3.327
 2423SOL    HW1 1832   2.768   3.522   3.232
 2423SOL    HW2 1833   2.822   3.634   3.337
 2424SOL     OW 1834   2.335   2.362   2.053
 2424SOL    HW1 1835   2.396   2.442   2.057
 2424SOL    HW2 1836   2.240   2.393   2.060
 2425SOL     OW 1837   2.021   2.999   3.328
 2425SOL    HW1 1838   2.043   2.938   3.404
 2425SOL    HW2 1839   2.031   2.950   3.242
 2426SOL     OW 1840   3.209   2.921   3.096
 2426SOL    HW1 1841   3.233   2.858   3.022
 2426SOL    HW2 1842   3.119   2.961   3.078
 2427SOL     OW 1843   3.164   2.717   2.171
 2427SOL    HW1 1844   3.078   2.686   2.213
 2427SOL    HW2 1845   3.160   2.703   2.072
 2428SOL     OW 1846   3.621   3.609   3.016
 2428SOL    HW1 1847   3.682   3.639   2.943
 2428SOL    HW2 1848   3.583   3.520   2.994
 2429SOL     OW 1849   3.114   3.593   2.990
 2429SOL    HW1 1850   3.198   3.598   2.936
 2429SOL    HW2 1851   3.091   3.497   3.008
 2430SOL     OW 1852   1.945   3.120   2.884
 2430SOL    HW1 1853   1.940   3.119   2.984
 2430SOL    HW2 1854   1.862   3.079   2.846
 2431SOL     OW 1855   2.550   3.524   3.578
 2431SOL    HW1 1856   2.494   3.605   3.587
 2431SOL    HW2 1857   2.602   3.528   3.492
 2432SOL     OW 1858   3.588   1.997   2.385
 2432SOL    HW1 1859   3.661   1.980   2.318
 2432SOL    HW2 1860   3.557   1.910   2.423
 2433SOL     OW 1861   3.250   3.435   2.339
 2433SOL    HW1 1862   3.317   3.447   2.265
 2433SOL    HW2 1863   3.210   3.524   2.362
 2434SOL     OW 1864   1.992   3.656   3.713
 2434SOL    HW1 1865   1.951   3.582   3.766
 2434SOL    HW2 1866   2.056   3.707   3.771
 2435SOL     OW 1867   3.142   2.789   2.534
 2435SOL    HW1 1868   3.202   2.708   2.536
 2435SOL    HW2 1869   3.182   2.858   2.474
 2436SOL     OW 1870   2.692   3.135   3.284
 2436SOL    HW1 1871   2.687   3.168   3.379
 2436SOL    HW2 1872   2.606   3.154   3.238
 2437SOL     OW 1873   2.534   3.478   2.016
 2437SOL    HW1 1874   2.543   3.488   1.917
 2437SOL    HW2 1875   2.494   3.389   2.037
 2438SOL     OW 1876   3.512   3.582   3.256
 2438SOL    HW1 1877   3.565   3.592   3.172
 2438SOL    HW2 1878   3.485   3.672   3.290
 2439SOL     OW 1879   3.703   2.037   2.825
 2439SOL    HW1 1880   3.742   1.952   2.789
 2439SOL    HW2 1881   3.605   2.039   2.806
 2440SOL     OW 1882   2.125   2.188   2.582
 2440SOL    HW1 1883   2.046   2.239   2.548
 2440SOL    HW2 1884   2.116   2.173   2.680
 2441SOL     OW 1885   3.056   3.474   1.893
 2441SOL    HW1 1886   3.062   3.381   1.930
 2441SOL    HW2 1887   2.997   3.474   1.813
 2442SOL     OW 1888   2.684   2.864   3.234
 2442SOL    HW1 1889   2.724   2.863   3.142
 2442SOL    HW2 1890   2.694   2.956   3.274
 2443SOL     OW 1891   2.778   2.772   2.153
 2443SOL    HW1 1892   2.841   2.810   2.085
 2443SOL    HW2 1893   2.818   2.689   2.192
 2444SOL     OW 1894   3.366   3.469   1.906
 2444SOL    HW1 1895   3.274   3.506   1.913
 2444SOL    HW2 1896   3.404   3.489   1.816
 2445SOL     OW 1897   2.234   3.150   3.352
 2445SOL    HW1 1898   2.221   3.243   3.318
 2445SOL    HW2 1899   2.150   3.098   3.339
 2446SOL     OW 1900   3.476   3.154   3.151
 2446SOL    HW1 1901   3.536   3.157   3.231
 2446SOL    HW2 1902   3.401   3.218   3.164
 2447SOL     OW 1903   2.901   2.960   2.558
 2447SOL    HW1 1904   2.831   2.913   2.612
 2447SOL    HW2 1905   2.960   2.892   2.515
 2448SOL     OW 1906   2.876   2.098   2.833
 2448SOL    HW1 1907   2.868   2.062   2.740
 2448SOL    HW2 1908   2.874   2.022   2.898
 2449SOL     OW 1909   2.452   3.349   2.353
 2449SOL    HW1 1910   2.494   3.291   2.283
 2449SOL    HW2 1911   2.408   3.428   2.309
 2450SOL     OW 1912   3.571   2.247   3.243
 2450SOL    HW1 1913   3.644   2.316   3.247
 2450SOL    HW2 1914   3.599   2.172   3.184
 2451SOL     OW 1915   2.117   3.210   2.152
 2451SOL    HW1 1916   2.021   3.211   2.125
 2451SOL    HW2 1917   2.129   3.263   2.236
 2452SOL     OW 1918   1.967   2.875   3.588
 2452SOL    HW1 1919   1.890   2.842   3.642
 2452SOL    HW2 1920   2.052   2.845   3.630
 2453SOL     OW 1921   2.534   2.065   3.351
 2453SOL    HW1 1922   2.624   2.049   3.311
 2453SOL    HW2 1923   2.542   2.070   3.450
 2454SOL     OW 1924   1.937   2.207   1.895
 2454SOL    HW1 1925   1.845   2.179   1.866
 2454SOL    HW2 1926   1.968   2.284   1.839
 2455SOL     OW 1927   3.302   2.718   3.260
 2455SOL    HW1 1928   3.245   2.770   3.197
 2455SOL    HW2 1929   3.398   2.730   3.236
 2456SOL     OW 1930   1.934   2.028   2.180
 2456SOL    HW1 1931   1.917   2.111   2.126
 2456SOL    HW2 1932   2.024   1.991   2.158
 2457SOL     OW 1933   3.045   3.197   1.981
 2457SOL    HW1 1934   2.946   3.186   1.983
 2457SOL    HW2 1935   3.079   3.212   2.074
 2458SOL     OW 1936   2.475   2.704   3.293
 2458SOL    HW1 1937   2.531   2.785   3.276
 2458SOL    HW2 1938   2.534   2.624   3.296
 2459SOL     OW 1939   3.355   3.629   2.821
 2459SOL    HW1 1940   3.388   3.693   2.752
 2459SOL    HW2 1941   3.421   3.623   2.896
 2460SOL     OW 1942   2.578   2.427   3.570
 2460SOL    HW1 1943   2.597   2.492   3.644
 2460SOL    HW2 1944   2.638   2.347   3.579
 2461SOL     OW 1945   3.312   3.082   3.495
 2461SOL    HW1 1946   3.303   3.072   3.594
 2461SOL    HW2 1947   3.408   3.075   3.469
 2462SOL     OW 1948   2.252   3.603   3.422
 2462SOL    HW1 1949   2.161   3.644   3.420
 2462SOL    HW2 1950   2.245   3.509   3.454
 2463SOL     OW 1951   3.536   2.745   3.116
 2463SOL    HW1 1952   3.509   2.656   3.079
 2463SOL    HW2 1953   3.537   2.813   3.043
 2464SOL     OW 1954   3.087   2.187   2.311
 2464SOL    HW1 1955   3.152   2.113   2.300
 2464SOL    HW2 1956   3.107   2.237   2.395
 2465SOL     OW 1957   3.639   2.204   3.504
 2465SOL    HW1 1958   3.622   2.235   3.410
 2465SOL    HW2 1959   3.555   2.167   3.542
 2466SOL     OW 1960   3.592   2.796   3.379
 2466SOL    HW1 1961   3.630   2.887   3.394
 2466SOL    HW2 1962   3.584   2.779   3.280
 2467SOL     OW 1963   2.721   3.236   1.878
 2467SOL    HW1 1964   2.675   3.251   1.966
 2467SOL    HW2 1965   2.765   3.321   1.848
 2468SOL     OW 1966   2.523   3.652   2.815
 2468SOL    HW1 1967   2.477   3.740   2.802
 2468SOL    HW2 1968   2.622   3.664   2.808
 2469SOL     OW 1969   2.945   2.846   1.949
 2469SOL    HW1 1970   2.922   2.899   1.867
 2469SOL    HW2 1971   3.026   2.790   1.930
 2470SOL     OW 1972   3.723   3.431   2.713
 2470SOL    HW1 1973   3.652   3.419   2.643
 2470SOL    HW2 1974   3.724   3.352   2.773
 2471SOL     OW 1975   2.083   3.176   3.706
 2471SOL    HW1 1976   2.018   3.103   3.685
 2471SOL    HW2 1977   2.087   3.190   3.804
 2472SOL     OW 1978   1.941   3.102   2.515
 2472SOL    HW1 1979   1.940   3.055   2.603
 2472SOL    HW2 1980   2.023   3.074   2.464
 2473SOL     OW 1981   2.534   3.253   3.486
 2473SOL    HW1 1982   2.456   3.203   3.524
 2473SOL    HW2 1983   2.531   3.348   3.517
 2474SOL     OW 1984   3.686   2.054   3.089
 2474SOL    HW1 1985   3.682   1.964   3.133
 2474SOL    HW2 1986   3.689   2.043   2.990
 2475SOL     OW 1987   3.567   3.349   2.966
 2475SOL    HW1 1988   3.474   3.324   2.939
 2475SOL    HW2 1989   3.593   3.299   3.048
 2476SOL     OW 1990   2.179   2.409   3.142
 2476SOL    HW1 1991   2.217   2.350   3.214
 2476SOL    HW2 1992   2.219   2.383   3.054
 2477SOL     OW 1993   2.674   3.448   2.549
 2477SOL    HW1 1994   2.706   3.458   2.455
 2477SOL    HW2 1995   2.595   3.386   2.551
 2478SOL     OW 1996   3.286   2.076   2.974
 2478SOL    HW1 1997   3.338   2.011   3.029
 2478SOL    HW2 1998   3.237   2.139   3.035
 2479SOL     OW 1999   2.863   1.896   3.016
 2479SOL    HW1 2000   2.800   1.824   2.985
 2479SOL    HW2 2001   2.956   1.860   3.016
 2480SOL     OW 2002   2.632   3.192   2.163
 2480SOL    HW1 2003   2.586   3.105   2.180
 2480SOL    HW2 2004   2.723   3.189   2.204
 2481SOL     OW 2005   2.480   3.429   3.146
 2481SOL    HW1 2006   2.475   3.511   3.203
 2481SOL    HW2 2007   2.569   3.426   3.101
 2482SOL     OW 2008   3.214   1.914   2.030
 2482SOL    HW1 2009   3.249   1.873   1.946
 2482SOL    HW2 2010   3.124   1.876   2.050
 2483SOL     OW 2011   3.162   2.315   2.553
 2483SOL    HW1 2012   3.103   2.395   2.557
 2483SOL    HW2 2013   3.177   2.280   2.646
 2484SOL     OW 2014   3.455   2.083   2.744
 2484SOL    HW1 2015   3.371   2.082   2.798
 2484SOL    HW2 2016   3.457   2.166   2.688
 2485SOL     OW 2017   1.901   2.939   2.162
 2485SOL    HW1 2018   2.000   2.928   2.153
 2485SOL    HW2 2019   1.861   2.853   2.194
 2486SOL     OW 2020   2.737   3.508   2.199
 2486SOL    HW1 2021   2.660   3.473   2.145
 2486SOL    HW2 2022   2.705   3.579   2.261
 2487SOL     OW 2023   2.092   2.490   3.837
 2487SOL    HW1 2024   1.999   2.488   3.874
 2487SOL    HW2 2025   2.093   2.451   3.745
 2501SOL     OW 2026   2.468   2.826   3.847
 2501SOL    HW1 2027   2.475   2.910   3.793
 2501SOL    HW2 2028   2.514   2.839   3.935
 2504SOL     OW 2029   1.889   3.458   3.841
 2504SOL    HW1 2030   1.870   3.362   3.862
 2504SOL    HW2 2031   1.856   3.516   3.916
 2510SOL     OW 2032   3.387   2.861   3.914
 2510SOL    HW1 2033   3.324   2.785   3.927
 2510SOL    HW2 2034   3.435   2.879   4.000
 2513SOL     OW 2035   2.460   2.591   3.994
 2513SOL    HW1 2036   2.484   2.660   3.926
 2513SOL    HW2 2037   2.382   2.624   4.048
 2516SOL     OW 2038   2.903   2.563   4.153
 2516SOL    HW1 2039   2.929   2.559   4.249
 2516SOL    HW2 2040   2.818   2.512   4.139
 2518SOL     OW 2041   2.727   2.210   3.919
 2518SOL    HW1 2042   2.786   2.273   3.870
 2518SOL    HW2 2043   2.746   2.116   3.890
 2524SOL     OW 2044   2.183   2.805   3.966
 2524SOL    HW1 2045   2.265   2.844   3.924
 2524SOL    HW2 2046   2.156   2.723   3.917
 2532SOL     OW 2047   2.244   2.562   4.204
 2532SOL    HW1 2048   2.289   2.472   4.201
 2532SOL    HW2 2049   2.150   2.551   4.237
 2533SOL     OW 2050   2.476   1.984   3.841
 2533SOL    HW1 2051   2.574   1.962   3.848
 2533SOL    HW2 2052   2.445   1.967   3.748
 2537SOL     OW 2053   3.296   3.050   3.765
 2537SOL    HW1 2054   3.328   2.974   3.822
 2537SOL    HW2 2055   3.204   3.077   3.795
 2538SOL     OW 2056   2.159   1.897   3.895
 2538SOL    HW1 2057   2.208   1.981   3.874
 2538SOL    HW2 2058   2.221   1.832   3.940
 2539SOL     OW 2059   2.797   2.098   4.204
 2539SOL    HW1 2060   2.749   2.139   4.126
 2539SOL    HW2 2061   2.896   2.096   4.185
 2543SOL     OW 2062   2.894   2.411   3.740
 2543SOL    HW1 2063   2.853   2.493   3.701
 2543SOL    HW2 2064   2.958   2.437   3.813
 2549SOL     OW 2065   2.350   3.247   3.898
 2549SOL    HW1 2066   2.263   3.232   3.945
 2549SOL    HW2 2067   2.333   3.273   3.803
 2551SOL     OW 2068   3.252   2.437   3.802
 2551SOL    HW1 2069   3.198   2.416   3.883
 2551SOL    HW2 2070   3.343   2.396   3.811
 2552SOL     OW 2071   2.389   2.118   4.052
 2552SOL    HW1 2072   2.416   2.059   3.977
 2552SOL    HW2 2073   2.389   2.213   4.021
 2555SOL     OW 2074   2.567   2.912   4.092
 2555SOL    HW1 2075   2.553   2.919   4.191
 2555SOL    HW2 2076   2.651   2.861   4.074
 2563SOL     OW 2077   3.071   2.387   3.999
 2563SOL    HW1 2078   3.084   2.303   4.053
 2563SOL    HW2 2079   3.042   2.461   4.059
 2569SOL     OW 2080   3.402   2.136   3.849
 2569SOL    HW1 2081   3.341   2.061   3.872
 2569SOL    HW2 2082   3.424   2.188   3.932
 2570SOL     OW 2083   3.165   2.700   3.766
 2570SOL    HW1 2084   3.199   2.607   3.781
 2570SOL    HW2 2085   3.183   2.727   3.671
 2575SOL     OW 2086   1.870   3.188   3.924
 2575SOL    HW1 2087   1.777   3.209   3.893
 2575SOL    HW2 2088   1.880   3.089   3.937
 2580SOL     OW 2089   2.677   2.434   4.049
 2580SOL    HW1 2090   2.684   2.345   4.003
 2580SOL    HW2 2091   2.583   2.468   4.041
 2583SOL     OW 2092   2.335   2.362   3.915
 2583SOL    HW1 2093   2.396   2.442   3.919
 2583SOL    HW2 2094   2.240   2.393   3.922
 2584SOL     OW 2095   3.164   2.717   4.033
 2584SOL    HW1 2096   3.078   2.686   4.075
 2584SOL    HW2 2097   3.160   2.703   3.934
 2590SOL     OW 2098   2.534   3.478   3.878
 2590SOL    HW1 2099   2.543   3.488   3.779
 2590SOL    HW2 2100   2.494   3.389   3.899
 2593SOL     OW 2101   3.056   3.474   3.755
 2593SOL    HW1 2102   3.062   3.381   3.792
 2593SOL    HW2 2103   2.997   3.474   3.675
 2595SOL     OW 2104   2.778   2.772   4.015
 2595SOL    HW1 2105   2.841   2.810   3.947
 2595SOL    HW2 2106   2.818   2.689   4.054
 2601SOL     OW 2107   2.117   3.210   4.014
 2601SOL    HW1 2108   2.021   3.211   3.987
 2601SOL    HW2 2109   2.129   3.263   4.098
 2602SOL     OW 2110   1.937   2.207   3.757
 2602SOL    HW1 2111   1.845   2.179   3.728
 2602SOL    HW2 2112   1.968   2.284   3.701
 2603SOL     OW 2113   1.934   2.028   4.042
 2603SOL    HW1 2114   1.917   2.111   3.988
 2603SOL    HW2 2115   2.024   1.991   4.020
 2604SOL     OW 2116   3.045   3.197   3.843
 2604SOL    HW1 2117   2.946   3.186   3.845
 2604SOL    HW2 2118   3.079   3.212   3.936
 2609SOL     OW 2119   2.721   3.236   3.740
 2609SOL    HW1 2120   2.675   3.251   3.828
 2609SOL    HW2 2121   2.765   3.321   3.710
 2612SOL     OW 2122   2.945   2.846   3.811
 2612SOL    HW1 2123   2.922   2.899   3.729
 2612SOL    HW2 2124   3.026   2.790   3.792
 2616SOL     OW 2125   2.290   2.286   4.244
 2616SOL    HW1 2126   2.320   2.214   4.182
 2616SOL    HW2 2127   2.251   2.246   4.327
 2620SOL     OW 2128   2.632   3.192   4.025
 2620SOL    HW1 2129   2.586   3.105   4.042
 2620SOL    HW2 2130   2.723   3.189   4.066
 2621SOL     OW 2131   3.214   1.914   3.892
 2621SOL    HW1 2132   3.249   1.873   3.808
 2621SOL    HW2 2133   3.124   1.876   3.912
 2624SOL     OW 2134   1.901   2.939   4.024
 2624SOL    HW1 2135   2.000   2.928   4.015
 2624SOL    HW2 2136   1.861   2.853   4.056
 2649SOL     OW 2137   2.179   3.975   1.801
 2649SOL    HW1 2138   2.250   4.046   1.807
 2649SOL    HW2 2139   2.091   4.014   1.829
 2670SOL     OW 2140   2.643   3.988   1.749
 2670SOL    HW1 2141   2.710   3.927   1.792
 2670SOL    HW2 2142   2.570   4.007   1.814
 2690SOL     OW 2143   2.777   3.813   1.402
 2690SOL    HW1 2144   2.802   3.793   1.307
 2690SOL    HW2 2145   2.849   3.869   1.444
 2700SOL     OW 2146   2.875   3.829   1.770
 2700SOL    HW1 2147   2.881   3.914   1.718
 2700SOL    HW2 2148   2.907   3.753   1.713
 2701SOL     OW 2149   2.366   3.774   1.740
 2701SOL    HW1 2150   2.324   3.717   1.670
 2701SOL    HW2 2151   2.300   3.843   1.772
 2741SOL     OW 2152   2.534   3.927   1.489
 2741SOL    HW1 2153   2.624   3.911   1.449
 2741SOL    HW2 2154   2.542   3.932   1.588
 2766SOL     OW 2155   2.087   3.999   2.858
 2766SOL    HW1 2156   2.122   3.982   2.950
 2766SOL    HW2 2157   1.999   3.954   2.846
 2767SOL     OW 2158   1.881   4.092   2.509
 2767SOL    HW1 2159   1.799   4.135   2.548
 2767SOL    HW2 2160   1.853   4.019   2.446
 2785SOL     OW 2161   2.671   3.728   2.364
 2785SOL    HW1 2162   2.711   3.819   2.355
 2785SOL    HW2 2163   2.571   3.736   2.370
 2790SOL     OW 2164   3.143   4.069   2.806
 2790SOL    HW1 2165   3.057   4.019   2.793
 2790SOL    HW2 2166   3.205   4.015   2.862
 2797SOL     OW 2167   2.727   4.072   2.057
 2797SOL    HW1 2168   2.786   4.135   2.008
 2797SOL    HW2 2169   2.746   3.978   2.028
 2800SOL     OW 2170   2.412   3.920   2.747
 2800SOL    HW1 2171   2.407   3.915   2.847
 2800SOL    HW2 2172   2.414   4.016   2.718
 2805SOL     OW 2173   3.262   3.831   2.288
 2805SOL    HW1 2174   3.238   3.794   2.198
 2805SOL    HW2 2175   3.361   3.847   2.292
 2808SOL     OW 2176   2.476   3.846   1.979
 2808SOL    HW1 2177   2.574   3.824   1.986
 2808SOL    HW2 2178   2.445   3.829   1.886
 2811SOL     OW 2179   2.784   4.227   2.761
 2811SOL    HW1 2180   2.759   4.218   2.665
 2811SOL    HW2 2181   2.832   4.145   2.792
 2812SOL     OW 2182   2.401   3.788   2.374
 2812SOL    HW1 2183   2.320   3.789   2.432
 2812SOL    HW2 2184   2.404   3.871   2.319
 2813SOL     OW 2185   2.159   3.759   2.033
 2813SOL    HW1 2186   2.208   3.843   2.012
 2813SOL    HW2 2187   2.221   3.694   2.078
 2814SOL     OW 2188   2.797   3.960   2.342
 2814SOL    HW1 2189   2.749   4.001   2.264
 2814SOL    HW2 2190   2.896   3.958   2.323
 2819SOL     OW 2191   2.423   3.946   3.009
 2819SOL    HW1 2192   2.461   3.862   3.046
 2819SOL    HW2 2193   2.335   3.965   3.053
 2820SOL     OW 2194   2.728   4.178   2.504
 2820SOL    HW1 2195   2.696   4.250   2.442
 2820SOL    HW2 2196   2.752   4.097   2.451
 2821SOL     OW 2197   2.879   3.763   2.615
 2821SOL    HW1 2198   2.807   3.768   2.546
 2821SOL    HW2 2199   2.855   3.694   2.684
 2826SOL     OW 2200   2.389   3.980   2.190
 2826SOL    HW1 2201   2.416   3.921   2.115
 2826SOL    HW2 2202   2.389   4.075   2.159
 2829SOL     OW 2203   2.777   3.813   3.264
 2829SOL    HW1 2204   2.802   3.793   3.169
 2829SOL    HW2 2205   2.849   3.869   3.306
 2835SOL     OW 2206   2.428   4.261   2.727
 2835SOL    HW1 2207   2.440   4.327   2.653
 2835SOL    HW2 2208   2.474   4.295   2.810
 2840SOL     OW 2209   2.366   3.774   3.602
 2840SOL    HW1 2210   2.324   3.717   3.532
 2840SOL    HW2 2211   2.300   3.843   3.634
 2844SOL     OW 2212   2.169   3.937   3.093
 2844SOL    HW1 2213   2.146   3.974   3.183
 2844SOL    HW2 2214   2.139   3.842   3.087
 2847SOL     OW 2215   2.169   3.787   2.480
 2847SOL    HW1 2216   2.158   3.881   2.513
 2847SOL    HW2 2217   2.164   3.724   2.557
 2856SOL     OW 2218   3.022   3.931   3.339
 2856SOL    HW1 2219   3.022   3.995   3.416
 2856SOL    HW2 2220   3.050   3.979   3.256
 2868SOL     OW 2221   3.588   3.859   2.385
 2868SOL    HW1 2222   3.661   3.842   2.318
 2868SOL    HW2 2223   3.557   3.772   2.423
 2871SOL     OW 2224   2.125   4.050   2.582
 2871SOL    HW1 2225   2.046   4.101   2.548
 2871SOL    HW2 2226   2.116   4.035   2.680
 2876SOL     OW 2227   2.876   3.960   2.833
 2876SOL    HW1 2228   2.868   3.924   2.740
 2876SOL    HW2 2229   2.874   3.884   2.898
 2879SOL     OW 2230   2.534   3.927   3.351
 2879SOL    HW1 2231   2.624   3.911   3.311
 2879SOL    HW2 2232   2.542   3.932   3.450
 2880SOL     OW 2233   1.937   4.069   1.895
 2880SOL    HW1 2234   1.845   4.041   1.866
 2880SOL    HW2 2235   1.968   4.146   1.839
 2882SOL     OW 2236   1.934   3.890   2.180
 2882SOL    HW1 2237   1.917   3.973   2.126
 2882SOL    HW2 2238   2.024   3.853   2.158
 2887SOL     OW 2239   3.087   4.049   2.311
 2887SOL    HW1 2240   3.152   3.975   2.300
 2887SOL    HW2 2241   3.107   4.099   2.395
 2895SOL     OW 2242   2.290   4.148   2.382
 2895SOL    HW1 2243   2.320   4.076   2.320
 2895SOL    HW2 2244   2.251   4.108   2.465
 2897SOL     OW 2245   3.286   3.938   2.974
 2897SOL    HW1 2246   3.338   3.873   3.029
 2897SOL    HW2 2247   3.237   4.001   3.035
 2898SOL     OW 2248   2.863   3.758   3.016
 2898SOL    HW1 2249   2.800   3.686   2.985
 2898SOL    HW2 2250   2.956   3.722   3.016
 2900SOL     OW 2251   3.214   3.776   2.030
 2900SOL    HW1 2252   3.249   3.735   1.946
 2900SOL    HW2 2253   3.124   3.738   2.050
 2902SOL     OW 2254   3.455   3.945   2.744
 2902SOL    HW1 2255   3.371   3.944   2.798
 2902SOL    HW2 2256   3.457   4.028   2.688
 3029SOL     OW 2257   3.854   1.821   1.571
 3029SOL    HW1 2258   3.844   1.806   1.670
 3029SOL    HW2 2259   3.768   1.857   1.535
 3107SOL     OW 2260   3.854   1.794   1.851
 3107SOL    HW1 2261   3.813   1.720   1.904
 3107SOL    HW2 2262   3.918   1.845   1.909
 3151SOL     OW 2263   3.955   1.713   2.345
 3151SOL    HW1 2264   3.989   1.790   2.399
 3151SOL    HW2 2265   3.999   1.713   2.255
 3158SOL     OW 2266   3.751   1.596   1.979
 3158SOL    HW1 2267   3.732   1.500   2.000
 3158SOL    HW2 2268   3.718   1.654   2.054
 3170SOL     OW 2269   3.854   1.821   3.433
 3170SOL    HW1 2270   3.844   1.806   3.532
 3170SOL    HW2 2271   3.768   1.857   3.397
 3174SOL     OW 2272   4.075   1.801   2.715
 3174SOL    HW1 2273   4.125   1.715   2.721
 3174SOL    HW2 2274   4.140   1.878   2.712
 3180SOL     OW 2275   3.973   1.785   3.103
 3180SOL    HW1 2276   4.030   1.720   3.153
 3180SOL    HW2 2277   3.957   1.752   3.010
 3208SOL     OW 2278   3.788   1.564   3.193
 3208SOL    HW1 2279   3.742   1.646   3.159
 3208SOL    HW2 2280   3.886   1.583   3.202
 3231SOL     OW 2281   3.732   1.326   2.062
 3231SOL    HW1 2282   3.639   1.347   2.031
 3231SOL    HW2 2283   3.742   1.227   2.075
 3232SOL     OW 2284   3.812   1.801   2.789
 3232SOL    HW1 2285   3.770   1.715   2.762
 3232SOL    HW2 2286   3.906   1.804   2.755
 3392SOL     OW 2287   3.837   2.599   1.597
 3392SOL    HW1 2288   3.925   2.586   1.642
 3392SOL    HW2 2289   3.824   2.696   1.575
 3396SOL     OW 2290   4.041   2.113   1.801
 3396SOL    HW1 2291   4.112   2.184   1.807
 3396SOL    HW2 2292   3.953   2.152   1.829
 3411SOL     OW 2293   3.926   2.147   1.498
 3411SOL    HW1 2294   3.846   2.207   1.485
 3411SOL    HW2 2295   3.916   2.098   1.584
 3430SOL     OW 2296   3.802   2.418   1.386
 3430SOL    HW1 2297   3.894   2.417   1.345
 3430SOL    HW2 2298   3.796   2.492   1.453
 3459SOL     OW 2299   4.074   2.760   1.804
 3459SOL    HW1 2300   4.150   2.804   1.852
 3459SOL    HW2 2301   4.109   2.713   1.722
 3470SOL     OW 2302   3.913   2.382   1.722
 3470SOL    HW1 2303   3.972   2.342   1.652
 3470SOL    HW2 2304   3.855   2.453   1.681
 3492SOL     OW 2305   3.829   2.875   1.726
 3492SOL    HW1 2306   3.752   2.842   1.780
 3492SOL    HW2 2307   3.914   2.845   1.768
 3503SOL     OW 2308   3.945   3.176   1.844
 3503SOL    HW1 2309   3.880   3.103   1.823
 3503SOL    HW2 2310   3.949   3.190   1.942
 3514SOL     OW 2311   3.954   2.490   1.975
 3514SOL    HW1 2312   3.861   2.488   2.012
 3514SOL    HW2 2313   3.955   2.451   1.883
 3515SOL     OW 2314   3.949   2.137   2.858
 3515SOL    HW1 2315   3.984   2.120   2.950
 3515SOL    HW2 2316   3.861   2.092   2.846
 3516SOL     OW 2317   3.743   2.230   2.509
 3516SOL    HW1 2318   3.661   2.273   2.548
 3516SOL    HW2 2319   3.715   2.157   2.446
 3527SOL     OW 2320   3.954   3.296   2.400
 3527SOL    HW1 2321   3.928   3.392   2.400
 3527SOL    HW2 2322   3.883   3.242   2.445
 3528SOL     OW 2323   3.964   2.953   2.748
 3528SOL    HW1 2324   3.978   2.869   2.800
 3528SOL    HW2 2325   3.909   3.017   2.803
 3531SOL     OW 2326   3.846   2.505   2.425
 3531SOL    HW1 2327   3.801   2.417   2.442
 3531SOL    HW2 2328   3.845   2.559   2.509
 3532SOL     OW 2329   3.751   3.458   1.979
 3532SOL    HW1 2330   3.732   3.362   2.000
 3532SOL    HW2 2331   3.718   3.516   2.054
 3533SOL     OW 2332   3.837   2.599   3.459
 3533SOL    HW1 2333   3.925   2.586   3.504
 3533SOL    HW2 2334   3.824   2.696   3.437
 3536SOL     OW 2335   3.921   2.838   3.126
 3536SOL    HW1 2336   4.010   2.793   3.112
 3536SOL    HW2 2337   3.848   2.773   3.107
 3543SOL     OW 2338   3.800   2.673   2.651
 3543SOL    HW1 2339   3.899   2.661   2.660
 3543SOL    HW2 2340   3.776   2.768   2.672
 3550SOL     OW 2341   4.045   2.805   2.104
 3550SOL    HW1 2342   4.127   2.844   2.062
 3550SOL    HW2 2343   4.018   2.723   2.055
 3552SOL     OW 2344   3.926   2.147   3.360
 3552SOL    HW1 2345   3.846   2.207   3.347
 3552SOL    HW2 2346   3.916   2.098   3.446
 3556SOL     OW 2347   4.106   2.562   2.342
 3556SOL    HW1 2348   4.151   2.472   2.339
 3556SOL    HW2 2349   4.012   2.551   2.375
 3563SOL     OW 2350   4.021   1.897   2.033
 3563SOL    HW1 2351   4.070   1.981   2.012
 3563SOL    HW2 2352   4.083   1.832   2.078
 3567SOL     OW 2353   4.183   3.014   2.603
 3567SOL    HW1 2354   4.112   2.987   2.668
 3567SOL    HW2 2355   4.157   2.986   2.510
 3570SOL     OW 2356   3.802   2.418   3.248
 3570SOL    HW1 2357   3.894   2.417   3.207
 3570SOL    HW2 2358   3.796   2.492   3.315
 3581SOL     OW 2359   4.134   2.675   3.113
 3581SOL    HW1 2360   4.220   2.687   3.163
 3581SOL    HW2 2361   4.092   2.588   3.140
 3582SOL     OW 2362   3.788   3.426   3.193
 3582SOL    HW1 2363   3.742   3.508   3.159
 3582SOL    HW2 2364   3.886   3.445   3.202
 3583SOL     OW 2365   4.091   2.962   2.363
 3583SOL    HW1 2366   4.084   3.045   2.307
 3583SOL    HW2 2367   4.095   2.882   2.303
 3593SOL     OW 2368   4.031   2.075   3.093
 3593SOL    HW1 2369   4.008   2.112   3.183
 3593SOL    HW2 2370   4.001   1.980   3.087
 3594SOL     OW 2371   3.761   3.172   3.144
 3594SOL    HW1 2372   3.814   3.123   3.212
 3594SOL    HW2 2373   3.783   3.270   3.149
 3596SOL     OW 2374   4.031   1.925   2.480
 3596SOL    HW1 2375   4.020   2.019   2.513
 3596SOL    HW2 2376   4.026   1.862   2.557
 3601SOL     OW 2377   4.043   2.672   2.811
 3601SOL    HW1 2378   4.136   2.708   2.816
 3601SOL    HW2 2379   4.037   2.587   2.863
 3602SOL     OW 2380   4.063   2.371   2.868
 3602SOL    HW1 2381   4.011   2.288   2.851
 3602SOL    HW2 2382   4.140   2.376   2.804
 3605SOL     OW 2383   3.732   3.188   2.062
 3605SOL    HW1 2384   3.639   3.209   2.031
 3605SOL    HW2 2385   3.742   3.089   2.075
 3609SOL     OW 2386   3.764   2.406   2.976
 3609SOL    HW1 2387   3.849   2.373   2.935
 3609SOL    HW2 2388   3.777   2.421   3.074
 3615SOL     OW 2389   4.197   2.362   2.053
 3615SOL    HW1 2390   4.258   2.442   2.057
 3615SOL    HW2 2391   4.102   2.393   2.060
 3616SOL     OW 2392   3.883   2.999   3.328
 3616SOL    HW1 2393   3.905   2.938   3.404
 3616SOL    HW2 2394   3.893   2.950   3.242
 3618SOL     OW 2395   3.807   3.120   2.884
 3618SOL    HW1 2396   3.802   3.119   2.984
 3618SOL    HW2 2397   3.724   3.079   2.846
 3623SOL     OW 2398   3.987   2.188   2.582
 3623SOL    HW1 2399   3.908   2.239   2.548
 3623SOL    HW2 2400   3.978   2.173   2.680
 3630SOL     OW 2401   3.979   3.210   2.152
 3630SOL    HW1 2402   3.883   3.211   2.125
 3630SOL    HW2 2403   3.991   3.263   2.236
 3631SOL     OW 2404   3.829   2.875   3.588
 3631SOL    HW1 2405   3.752   2.842   3.642
 3631SOL    HW2 2406   3.914   2.845   3.630
 3633SOL     OW 2407   3.799   2.207   1.895
 3633SOL    HW1 2408   3.707   2.179   1.866
 3633SOL    HW2 2409   3.830   2.284   1.839
 3634SOL     OW 2410   3.796   2.028   2.180
 3634SOL    HW1 2411   3.779   2.111   2.126
 3634SOL    HW2 2412   3.886   1.991   2.158
 3644SOL     OW 2413   3.803   3.102   2.515
 3644SOL    HW1 2414   3.802   3.055   2.603
 3644SOL    HW2 2415   3.885   3.074   2.464
 3646SOL     OW 2416   4.152   2.286   2.382
 3646SOL    HW1 2417   4.182   2.214   2.320
 3646SOL    HW2 2418   4.113   2.246   2.465
 3647SOL     OW 2419   4.041   2.409   3.142
 3647SOL    HW1 2420   4.079   2.350   3.214
 3647SOL    HW2 2421   4.081   2.383   3.054
 3652SOL     OW 2422   3.763   2.939   2.162
 3652SOL    HW1 2423   3.862   2.928   2.153
 3652SOL    HW2 2424   3.723   2.853   2.194
   4.95988   4.95988   4.95988
