mobley_7690440_GMX.gro created by acpype (v: 2023.10.27) on Tue May 19 14:04:37 2026
 2407
    1MOL     C1    1   2.147   2.356   2.179
    1MOL     C2    2   2.401   2.186   2.378
    1MOL     S1    3   2.321   2.405   2.189
    1MOL     S2    4   2.365   2.363   2.385
    1MOL     H1    5   2.136   2.250   2.199
    1MOL     H2    6   2.111   2.376   2.077
    1MOL     H3    7   2.087   2.414   2.249
    1MOL     H4    8   2.313   2.130   2.345
    1MOL     H5    9   2.428   2.151   2.478
    1MOL     H6   10   2.485   2.166   2.311
   14SOL     OW   11   1.460   1.505   1.339
   14SOL    HW1   12   1.484   1.599   1.365
   14SOL    HW2   13   1.444   1.451   1.421
   18SOL     OW   14   1.127   1.341   1.690
   18SOL    HW1   15   1.174   1.341   1.778
   18SOL    HW2   16   1.079   1.254   1.679
   31SOL     OW   17   1.293   1.228   1.423
   31SOL    HW1   18   1.330   1.155   1.365
   31SOL    HW2   19   1.345   1.233   1.508
   35SOL     OW   20   1.187   1.792   1.616
   35SOL    HW1   21   1.211   1.852   1.540
   35SOL    HW2   22   1.194   1.697   1.586
   37SOL     OW   23   1.466   1.417   0.953
   37SOL    HW1   24   1.407   1.423   1.033
   37SOL    HW2   25   1.451   1.329   0.907
   56SOL     OW   26   1.227   1.550   1.506
   56SOL    HW1   27   1.233   1.473   1.570
   56SOL    HW2   28   1.175   1.524   1.426
   95SOL     OW   29   1.754   1.223   1.588
   95SOL    HW1   30   1.845   1.184   1.575
   95SOL    HW2   31   1.762   1.319   1.612
   96SOL     OW   32   1.064   1.347   1.340
   96SOL    HW1   33   0.984   1.324   1.395
   96SOL    HW2   34   1.147   1.321   1.389
   97SOL     OW   35   1.592   1.629   1.625
   97SOL    HW1   36   1.619   1.663   1.535
   97SOL    HW2   37   1.671   1.591   1.671
  109SOL     OW   38   1.272   1.445   1.142
  109SOL    HW1   39   1.319   1.458   1.229
  109SOL    HW2   40   1.206   1.371   1.151
  113SOL     OW   41   1.587   0.779   1.670
  113SOL    HW1   42   1.495   0.817   1.665
  113SOL    HW2   43   1.647   0.826   1.605
  122SOL     OW   44   1.728   0.935   1.854
  122SOL    HW1   45   1.682   0.928   1.765
  122SOL    HW2   46   1.666   0.979   1.920
  126SOL     OW   47   0.980   1.573   1.700
  126SOL    HW1   48   0.960   1.617   1.612
  126SOL    HW2   49   1.019   1.482   1.684
  127SOL     OW   50   1.859   1.518   1.605
  127SOL    HW1   51   1.873   1.545   1.510
  127SOL    HW2   52   1.942   1.540   1.658
  142SOL     OW   53   1.369   0.950   1.660
  142SOL    HW1   54   1.408   1.039   1.680
  142SOL    HW2   55   1.379   0.930   1.563
  147SOL     OW   56   0.930   1.678   1.465
  147SOL    HW1   57   0.906   1.660   1.370
  147SOL    HW2   58   0.960   1.772   1.475
  152SOL     OW   59   1.759   1.747   1.154
  152SOL    HW1   60   1.820   1.777   1.081
  152SOL    HW2   61   1.721   1.658   1.132
  153SOL     OW   62   1.252   1.731   1.128
  153SOL    HW1   63   1.336   1.736   1.074
  153SOL    HW2   64   1.229   1.635   1.146
  155SOL     OW   65   0.688   1.662   1.716
  155SOL    HW1   66   0.632   1.743   1.725
  155SOL    HW2   67   0.740   1.666   1.630
  163SOL     OW   68   1.650   1.720   1.394
  163SOL    HW1   69   1.703   1.730   1.310
  163SOL    HW2   70   1.623   1.810   1.428
  171SOL     OW   71   1.614   1.292   1.289
  171SOL    HW1   72   1.674   1.295   1.369
  171SOL    HW2   73   1.539   1.356   1.302
  184SOL     OW   74   1.493   1.767   0.959
  184SOL    HW1   75   1.526   1.831   0.890
  184SOL    HW2   76   1.559   1.761   1.034
  186SOL     OW   77   1.450   1.220   1.633
  186SOL    HW1   78   1.441   1.210   1.732
  186SOL    HW2   79   1.546   1.213   1.607
  192SOL     OW   80   1.730   0.934   1.517
  192SOL    HW1   81   1.768   1.025   1.532
  192SOL    HW2   82   1.722   0.917   1.418
  197SOL     OW   83   1.861   1.569   0.851
  197SOL    HW1   84   1.790   1.557   0.781
  197SOL    HW2   85   1.862   1.490   0.911
  203SOL     OW   86   1.705   1.487   1.104
  203SOL    HW1   87   1.612   1.462   1.077
  203SOL    HW2   88   1.731   1.437   1.186
  219SOL     OW   89   1.555   1.511   2.565
  219SOL    HW1   90   1.498   1.495   2.646
  219SOL    HW2   91   1.496   1.521   2.485
  221SOL     OW   92   1.755   0.607   2.093
  221SOL    HW1   93   1.743   0.594   1.994
  221SOL    HW2   94   1.725   0.526   2.142
  227SOL     OW   95   1.460   1.505   3.201
  227SOL    HW1   96   1.484   1.599   3.227
  227SOL    HW2   97   1.444   1.451   3.283
  238SOL     OW   98   1.842   1.767   2.221
  238SOL    HW1   99   1.896   1.738   2.301
  238SOL    HW2  100   1.872   1.857   2.192
  240SOL     OW  101   1.689   0.922   2.474
  240SOL    HW1  102   1.784   0.893   2.482
  240SOL    HW2  103   1.681   0.987   2.399
  241SOL     OW  104   1.641   1.108   2.294
  241SOL    HW1  105   1.727   1.110   2.242
  241SOL    HW2  106   1.655   1.155   2.382
  244SOL     OW  107   1.293   1.228   3.285
  244SOL    HW1  108   1.330   1.155   3.227
  244SOL    HW2  109   1.345   1.233   3.370
  247SOL     OW  110   1.525   0.999   2.052
  247SOL    HW1  111   1.462   0.923   2.065
  247SOL    HW2  112   1.573   1.017   2.138
  248SOL     OW  113   1.187   1.792   3.478
  248SOL    HW1  114   1.211   1.852   3.402
  248SOL    HW2  115   1.194   1.697   3.448
  250SOL     OW  116   1.466   1.417   2.815
  250SOL    HW1  117   1.407   1.423   2.895
  250SOL    HW2  118   1.451   1.329   2.769
  251SOL     OW  119   1.667   1.714   2.434
  251SOL    HW1  120   1.626   1.691   2.346
  251SOL    HW2  121   1.649   1.640   2.499
  254SOL     OW  122   1.576   1.662   2.169
  254SOL    HW1  123   1.665   1.708   2.172
  254SOL    HW2  124   1.555   1.638   2.074
  264SOL     OW  125   1.362   1.144   2.407
  264SOL    HW1  126   1.445   1.115   2.359
  264SOL    HW2  127   1.313   1.211   2.351
  266SOL     OW  128   1.008   1.456   2.339
  266SOL    HW1  129   0.962   1.528   2.287
  266SOL    HW2  130   1.004   1.476   2.437
  268SOL     OW  131   1.795   1.066   2.735
  268SOL    HW1  132   1.733   1.051   2.659
  268SOL    HW2  133   1.743   1.077   2.820
  269SOL     OW  134   1.227   1.550   3.368
  269SOL    HW1  135   1.233   1.473   3.432
  269SOL    HW2  136   1.175   1.524   3.288
  271SOL     OW  137   1.458   0.735   2.590
  271SOL    HW1  138   1.453   0.670   2.665
  271SOL    HW2  139   1.538   0.794   2.603
  273SOL     OW  140   1.111   1.776   2.099
  273SOL    HW1  141   1.051   1.714   2.149
  273SOL    HW2  142   1.142   1.732   2.014
  275SOL     OW  143   1.632   1.377   1.943
  275SOL    HW1  144   1.600   1.471   1.933
  275SOL    HW2  145   1.556   1.314   1.931
  279SOL     OW  146   0.940   1.698   2.766
  279SOL    HW1  147   1.020   1.641   2.787
  279SOL    HW2  148   0.891   1.658   2.689
  284SOL     OW  149   0.888   1.514   3.057
  284SOL    HW1  150   0.865   1.489   2.963
  284SOL    HW2  151   0.949   1.445   3.096
  286SOL     OW  152   0.803   1.402   2.786
  286SOL    HW1  153   0.893   1.416   2.744
  286SOL    HW2  154   0.732   1.404   2.715
  289SOL     OW  155   1.434   1.188   1.903
  289SOL    HW1  156   1.466   1.112   1.960
  289SOL    HW2  157   1.342   1.215   1.933
  293SOL     OW  158   1.227   1.570   2.655
  293SOL    HW1  159   1.248   1.644   2.590
  293SOL    HW2  160   1.295   1.570   2.728
  295SOL     OW  161   1.271   1.797   2.453
  295SOL    HW1  162   1.315   1.861   2.389
  295SOL    HW2  163   1.221   1.849   2.523
  301SOL     OW  164   1.429   1.173   2.729
  301SOL    HW1  165   1.374   1.089   2.722
  301SOL    HW2  166   1.455   1.202   2.637
  303SOL     OW  167   1.857   0.833   2.239
  303SOL    HW1  168   1.899   0.769   2.303
  303SOL    HW2  169   1.819   0.782   2.161
  305SOL     OW  170   1.664   1.280   2.519
  305SOL    HW1  171   1.763   1.288   2.533
  305SOL    HW2  172   1.619   1.364   2.550
  308SOL     OW  173   1.754   1.223   3.450
  308SOL    HW1  174   1.845   1.184   3.437
  308SOL    HW2  175   1.762   1.319   3.474
  309SOL     OW  176   1.064   1.347   3.202
  309SOL    HW1  177   0.984   1.324   3.257
  309SOL    HW2  178   1.147   1.321   3.251
  310SOL     OW  179   1.592   1.629   3.487
  310SOL    HW1  180   1.619   1.663   3.397
  310SOL    HW2  181   1.671   1.591   3.533
  311SOL     OW  182   1.111   1.195   2.962
  311SOL    HW1  183   1.071   1.239   3.043
  311SOL    HW2  184   1.070   1.232   2.879
  312SOL     OW  185   1.638   1.099   2.941
  312SOL    HW1  186   1.643   1.180   3.000
  312SOL    HW2  187   1.552   1.101   2.890
  321SOL     OW  188   1.252   1.348   2.250
  321SOL    HW1  189   1.302   1.425   2.290
  321SOL    HW2  190   1.157   1.350   2.282
  322SOL     OW  191   1.272   1.445   3.004
  322SOL    HW1  192   1.319   1.458   3.091
  322SOL    HW2  193   1.206   1.371   3.013
  323SOL     OW  194   1.582   0.639   2.334
  323SOL    HW1  195   1.551   0.700   2.407
  323SOL    HW2  196   1.632   0.691   2.265
  340SOL     OW  197   1.859   1.518   3.467
  340SOL    HW1  198   1.873   1.545   3.372
  340SOL    HW2  199   1.942   1.540   3.520
  343SOL     OW  200   1.303   0.838   1.904
  343SOL    HW1  201   1.337   0.745   1.919
  343SOL    HW2  202   1.321   0.865   1.809
  344SOL     OW  203   1.068   1.333   2.711
  344SOL    HW1  204   1.075   1.249   2.656
  344SOL    HW2  205   1.130   1.402   2.675
  363SOL     OW  206   1.347   1.059   3.096
  363SOL    HW1  207   1.371   0.996   3.022
  363SOL    HW2  208   1.257   1.099   3.078
  364SOL     OW  209   1.302   0.855   2.171
  364SOL    HW1  210   1.216   0.824   2.213
  364SOL    HW2  211   1.298   0.841   2.072
  365SOL     OW  212   1.759   1.747   3.016
  365SOL    HW1  213   1.820   1.777   2.943
  365SOL    HW2  214   1.721   1.658   2.994
  366SOL     OW  215   1.252   1.731   2.990
  366SOL    HW1  216   1.336   1.736   2.936
  366SOL    HW2  217   1.229   1.635   3.008
  370SOL     OW  218   1.388   1.573   2.339
  370SOL    HW1  219   1.455   1.585   2.265
  370SOL    HW2  220   1.348   1.662   2.362
  372SOL     OW  221   1.280   0.927   2.534
  372SOL    HW1  222   1.340   0.846   2.536
  372SOL    HW2  223   1.320   0.996   2.474
  374SOL     OW  224   0.672   1.616   2.016
  374SOL    HW1  225   0.681   1.626   1.917
  374SOL    HW2  226   0.632   1.527   2.037
  375SOL     OW  227   1.650   1.720   3.256
  375SOL    HW1  228   1.703   1.730   3.172
  375SOL    HW2  229   1.623   1.810   3.290
  378SOL     OW  230   1.194   1.612   1.893
  378SOL    HW1  231   1.200   1.519   1.930
  378SOL    HW2  232   1.135   1.612   1.813
  381SOL     OW  233   1.504   1.607   1.906
  381SOL    HW1  234   1.412   1.644   1.913
  381SOL    HW2  235   1.542   1.627   1.816
  383SOL     OW  236   1.614   1.292   3.151
  383SOL    HW1  237   1.674   1.295   3.231
  383SOL    HW2  238   1.539   1.356   3.164
  384SOL     OW  239   1.039   1.098   2.558
  384SOL    HW1  240   0.969   1.051   2.612
  384SOL    HW2  241   1.098   1.030   2.515
  394SOL     OW  242   1.183   1.335   1.981
  394SOL    HW1  243   1.084   1.324   1.983
  394SOL    HW2  244   1.217   1.350   2.074
  396SOL     OW  245   1.493   1.767   2.821
  396SOL    HW1  246   1.526   1.831   2.752
  396SOL    HW2  247   1.559   1.761   2.896
  400SOL     OW  248   1.674   0.883   3.116
  400SOL    HW1  249   1.647   0.794   3.079
  400SOL    HW2  250   1.675   0.951   3.043
  405SOL     OW  251   0.859   1.374   1.878
  405SOL    HW1  252   0.813   1.389   1.966
  405SOL    HW2  253   0.903   1.459   1.848
  406SOL     OW  254   0.661   1.790   2.815
  406SOL    HW1  255   0.615   1.878   2.802
  406SOL    HW2  256   0.760   1.802   2.808
  408SOL     OW  257   1.083   0.984   1.949
  408SOL    HW1  258   1.060   1.037   1.867
  408SOL    HW2  259   1.164   0.928   1.930
  409SOL     OW  260   1.861   1.569   2.713
  409SOL    HW1  261   1.790   1.557   2.643
  409SOL    HW2  262   1.862   1.490   2.773
  415SOL     OW  263   1.705   1.487   2.966
  415SOL    HW1  264   1.612   1.462   2.939
  415SOL    HW2  265   1.731   1.437   3.048
  417SOL     OW  266   0.812   1.586   2.549
  417SOL    HW1  267   0.844   1.596   2.455
  417SOL    HW2  268   0.733   1.524   2.551
  420SOL     OW  269   0.770   1.330   2.163
  420SOL    HW1  270   0.724   1.243   2.180
  420SOL    HW2  271   0.861   1.327   2.204
  426SOL     OW  272   0.875   1.646   2.199
  426SOL    HW1  273   0.798   1.611   2.145
  426SOL    HW2  274   0.843   1.717   2.261
  529SOL     OW  275   0.850   2.660   1.823
  529SOL    HW1  276   0.846   2.736   1.888
  529SOL    HW2  277   0.872   2.696   1.732
  533SOL     OW  278   1.460   3.367   1.339
  533SOL    HW1  279   1.484   3.461   1.365
  533SOL    HW2  280   1.444   3.313   1.421
  535SOL     OW  281   1.603   2.309   0.737
  535SOL    HW1  282   1.529   2.355   0.687
  535SOL    HW2  283   1.654   2.377   0.790
  537SOL     OW  284   1.127   3.203   1.690
  537SOL    HW1  285   1.174   3.203   1.778
  537SOL    HW2  286   1.079   3.116   1.679
  542SOL     OW  287   1.594   1.976   1.480
  542SOL    HW1  288   1.576   2.043   1.408
  542SOL    HW2  289   1.591   2.022   1.569
  550SOL     OW  290   1.293   3.090   1.423
  550SOL    HW1  291   1.330   3.017   1.365
  550SOL    HW2  292   1.345   3.095   1.508
  559SOL     OW  293   1.281   2.207   0.944
  559SOL    HW1  294   1.195   2.157   0.931
  559SOL    HW2  295   1.343   2.153   1.000
  561SOL     OW  296   0.807   2.467   1.465
  561SOL    HW1  297   0.760   2.464   1.554
  561SOL    HW2  298   0.756   2.412   1.399
  562SOL     OW  299   1.394   2.331   1.674
  562SOL    HW1  300   1.374   2.374   1.762
  562SOL    HW2  301   1.472   2.269   1.683
  563SOL     OW  302   0.973   2.752   1.572
  563SOL    HW1  303   1.019   2.668   1.543
  563SOL    HW2  304   0.917   2.786   1.497
  564SOL     OW  305   0.991   2.272   1.242
  564SOL    HW1  306   0.914   2.306   1.296
  564SOL    HW2  307   0.957   2.221   1.163
  569SOL     OW  308   1.719   2.447   1.831
  569SOL    HW1  309   1.693   2.536   1.795
  569SOL    HW2  310   1.717   2.379   1.758
  574SOL     OW  311   1.795   2.928   0.873
  574SOL    HW1  312   1.733   2.913   0.797
  574SOL    HW2  313   1.743   2.939   0.958
  575SOL     OW  314   1.227   3.412   1.506
  575SOL    HW1  315   1.233   3.335   1.570
  575SOL    HW2  316   1.175   3.386   1.426
  577SOL     OW  317   1.458   2.597   0.728
  577SOL    HW1  318   1.453   2.532   0.803
  577SOL    HW2  319   1.538   2.656   0.741
  587SOL     OW  320   1.547   2.084   1.729
  587SOL    HW1  321   1.542   2.121   1.821
  587SOL    HW2  322   1.475   2.015   1.717
  588SOL     OW  323   0.781   2.126   1.749
  588SOL    HW1  324   0.848   2.065   1.792
  588SOL    HW2  325   0.708   2.145   1.814
  590SOL     OW  326   1.351   2.452   1.433
  590SOL    HW1  327   1.379   2.409   1.518
  590SOL    HW2  328   1.376   2.548   1.434
  597SOL     OW  329   1.076   2.545   1.464
  597SOL    HW1  330   0.996   2.484   1.467
  597SOL    HW2  331   1.157   2.492   1.440
  607SOL     OW  332   1.466   2.452   0.992
  607SOL    HW1  333   1.436   2.357   0.999
  607SOL    HW2  334   1.539   2.468   1.058
  613SOL     OW  335   1.754   3.085   1.588
  613SOL    HW1  336   1.845   3.046   1.575
  613SOL    HW2  337   1.762   3.181   1.612
  614SOL     OW  338   1.064   3.209   1.340
  614SOL    HW1  339   0.984   3.186   1.395
  614SOL    HW2  340   1.147   3.183   1.389
  615SOL     OW  341   1.592   3.491   1.625
  615SOL    HW1  342   1.619   3.525   1.535
  615SOL    HW2  343   1.671   3.453   1.671
  617SOL     OW  344   1.638   2.961   1.079
  617SOL    HW1  345   1.643   3.042   1.138
  617SOL    HW2  346   1.552   2.963   1.028
  618SOL     OW  347   0.915   1.951   1.402
  618SOL    HW1  348   0.940   1.931   1.307
  618SOL    HW2  349   0.987   2.007   1.444
  619SOL     OW  350   0.980   2.978   1.719
  619SOL    HW1  351   0.881   2.984   1.729
  619SOL    HW2  352   1.003   2.898   1.663
  622SOL     OW  353   1.274   2.248   1.262
  622SOL    HW1  354   1.295   2.322   1.326
  622SOL    HW2  355   1.185   2.265   1.219
  631SOL     OW  356   1.587   2.641   1.670
  631SOL    HW1  357   1.495   2.679   1.665
  631SOL    HW2  358   1.647   2.688   1.605
  632SOL     OW  359   1.013   1.967   1.770
  632SOL    HW1  360   1.019   2.052   1.718
  632SOL    HW2  361   1.045   1.891   1.713
  635SOL     OW  362   1.360   2.724   1.045
  635SOL    HW1  363   1.285   2.724   0.979
  635SOL    HW2  364   1.397   2.632   1.054
  640SOL     OW  365   1.728   2.797   1.854
  640SOL    HW1  366   1.682   2.790   1.765
  640SOL    HW2  367   1.666   2.841   1.920
  645SOL     OW  368   1.859   3.380   1.605
  645SOL    HW1  369   1.873   3.407   1.510
  645SOL    HW2  370   1.942   3.402   1.658
  652SOL     OW  371   1.138   2.242   1.678
  652SOL    HW1  372   1.093   2.305   1.742
  652SOL    HW2  373   1.231   2.273   1.661
  653SOL     OW  374   1.160   2.069   1.477
  653SOL    HW1  375   1.160   2.133   1.554
  653SOL    HW2  376   1.188   2.117   1.394
  657SOL     OW  377   1.002   2.658   1.238
  657SOL    HW1  378   1.043   2.626   1.324
  657SOL    HW2  379   0.906   2.631   1.235
  660SOL     OW  380   1.369   2.812   1.660
  660SOL    HW1  381   1.408   2.901   1.680
  660SOL    HW2  382   1.379   2.792   1.563
  662SOL     OW  383   1.657   2.466   1.206
  662SOL    HW1  384   1.619   2.397   1.268
  662SOL    HW2  385   1.739   2.430   1.162
  668SOL     OW  386   1.347   2.921   1.234
  668SOL    HW1  387   1.371   2.858   1.160
  668SOL    HW2  388   1.257   2.961   1.216
  681SOL     OW  389   1.650   3.582   1.394
  681SOL    HW1  390   1.703   3.592   1.310
  681SOL    HW2  391   1.623   3.672   1.428
  682SOL     OW  392   1.841   2.037   0.963
  682SOL    HW1  393   1.880   1.952   0.927
  682SOL    HW2  394   1.743   2.039   0.944
  689SOL     OW  395   1.614   3.154   1.289
  689SOL    HW1  396   1.674   3.157   1.369
  689SOL    HW2  397   1.539   3.218   1.302
  693SOL     OW  398   1.709   2.247   1.381
  693SOL    HW1  399   1.782   2.316   1.385
  693SOL    HW2  400   1.737   2.172   1.322
  698SOL     OW  401   1.440   2.718   1.398
  698SOL    HW1  402   1.383   2.770   1.335
  698SOL    HW2  403   1.536   2.730   1.374
  703SOL     OW  404   0.716   2.427   1.708
  703SOL    HW1  405   0.735   2.492   1.782
  703SOL    HW2  406   0.776   2.347   1.717
  704SOL     OW  407   1.450   3.082   1.633
  704SOL    HW1  408   1.441   3.072   1.732
  704SOL    HW2  409   1.546   3.075   1.607
  706SOL     OW  410   1.674   2.745   1.254
  706SOL    HW1  411   1.647   2.656   1.217
  706SOL    HW2  412   1.675   2.813   1.181
  709SOL     OW  413   1.777   2.204   1.642
  709SOL    HW1  414   1.760   2.235   1.548
  709SOL    HW2  415   1.693   2.167   1.680
  710SOL     OW  416   1.730   2.796   1.517
  710SOL    HW1  417   1.768   2.887   1.532
  710SOL    HW2  418   1.722   2.779   1.418
  719SOL     OW  419   1.824   2.054   1.227
  719SOL    HW1  420   1.820   1.964   1.271
  719SOL    HW2  421   1.827   2.043   1.128
  721SOL     OW  422   1.705   3.349   1.104
  721SOL    HW1  423   1.612   3.324   1.077
  721SOL    HW2  424   1.731   3.299   1.186
  724SOL     OW  425   1.424   2.076   1.112
  724SOL    HW1  426   1.476   2.011   1.167
  724SOL    HW2  427   1.375   2.139   1.173
  725SOL     OW  428   1.001   1.896   1.154
  725SOL    HW1  429   0.938   1.824   1.123
  725SOL    HW2  430   1.094   1.860   1.154
  730SOL     OW  431   1.593   2.083   0.882
  730SOL    HW1  432   1.509   2.082   0.936
  730SOL    HW2  433   1.595   2.166   0.826
  737SOL     OW  434   1.555   3.373   2.565
  737SOL    HW1  435   1.498   3.357   2.646
  737SOL    HW2  436   1.496   3.383   2.485
  738SOL     OW  437   1.135   2.565   2.579
  738SOL    HW1  438   1.192   2.643   2.554
  738SOL    HW2  439   1.075   2.591   2.655
  739SOL     OW  440   1.755   2.469   2.093
  739SOL    HW1  441   1.743   2.456   1.994
  739SOL    HW2  442   1.725   2.388   2.142
  740SOL     OW  443   0.768   3.006   2.885
  740SOL    HW1  444   0.690   3.023   2.945
  740SOL    HW2  445   0.802   3.093   2.849
  742SOL     OW  446   0.685   2.874   2.527
  742SOL    HW1  447   0.754   2.858   2.597
  742SOL    HW2  448   0.612   2.931   2.565
  745SOL     OW  449   1.460   3.367   3.201
  745SOL    HW1  450   1.484   3.461   3.227
  745SOL    HW2  451   1.444   3.313   3.283
  747SOL     OW  452   1.603   2.309   2.599
  747SOL    HW1  453   1.529   2.355   2.549
  747SOL    HW2  454   1.654   2.377   2.652
  753SOL     OW  455   0.606   2.826   1.985
  753SOL    HW1  456   0.613   2.910   1.931
  753SOL    HW2  457   0.652   2.839   2.073
  754SOL     OW  458   1.594   1.976   3.342
  754SOL    HW1  459   1.576   2.043   3.270
  754SOL    HW2  460   1.591   2.022   3.431
  756SOL     OW  461   1.842   3.629   2.221
  756SOL    HW1  462   1.896   3.600   2.301
  756SOL    HW2  463   1.872   3.719   2.192
  758SOL     OW  464   1.689   2.784   2.474
  758SOL    HW1  465   1.784   2.755   2.482
  758SOL    HW2  466   1.681   2.849   2.399
  759SOL     OW  467   1.641   2.970   2.294
  759SOL    HW1  468   1.727   2.972   2.242
  759SOL    HW2  469   1.655   3.017   2.382
  762SOL     OW  470   1.293   3.090   3.285
  762SOL    HW1  471   1.330   3.017   3.227
  762SOL    HW2  472   1.345   3.095   3.370
  763SOL     OW  473   0.809   1.866   2.364
  763SOL    HW1  474   0.849   1.957   2.355
  763SOL    HW2  475   0.709   1.874   2.370
  765SOL     OW  476   1.525   2.861   2.052
  765SOL    HW1  477   1.462   2.785   2.065
  765SOL    HW2  478   1.573   2.879   2.138
  768SOL     OW  479   1.466   3.279   2.815
  768SOL    HW1  480   1.407   3.285   2.895
  768SOL    HW2  481   1.451   3.191   2.769
  769SOL     OW  482   1.667   3.576   2.434
  769SOL    HW1  483   1.626   3.553   2.346
  769SOL    HW2  484   1.649   3.502   2.499
  770SOL     OW  485   0.598   2.591   2.132
  770SOL    HW1  486   0.622   2.660   2.064
  770SOL    HW2  487   0.520   2.624   2.186
  771SOL     OW  488   1.281   2.207   2.806
  771SOL    HW1  489   1.195   2.157   2.793
  771SOL    HW2  490   1.343   2.153   2.862
  772SOL     OW  491   1.576   3.524   2.169
  772SOL    HW1  492   1.665   3.570   2.172
  772SOL    HW2  493   1.555   3.500   2.074
  774SOL     OW  494   1.394   2.331   3.536
  774SOL    HW1  495   1.374   2.374   3.624
  774SOL    HW2  496   1.472   2.269   3.545
  776SOL     OW  497   0.991   2.272   3.104
  776SOL    HW1  498   0.914   2.306   3.158
  776SOL    HW2  499   0.957   2.221   3.025
  777SOL     OW  500   1.041   2.563   2.291
  777SOL    HW1  501   1.067   2.559   2.387
  777SOL    HW2  502   0.956   2.512   2.277
  780SOL     OW  503   0.865   2.210   2.057
  780SOL    HW1  504   0.924   2.273   2.008
  780SOL    HW2  505   0.884   2.116   2.028
  781SOL     OW  506   1.719   2.447   3.693
  781SOL    HW1  507   1.693   2.536   3.657
  781SOL    HW2  508   1.717   2.379   3.620
  782SOL     OW  509   1.362   3.006   2.407
  782SOL    HW1  510   1.445   2.977   2.359
  782SOL    HW2  511   1.313   3.073   2.351
  784SOL     OW  512   1.008   3.318   2.339
  784SOL    HW1  513   0.962   3.390   2.287
  784SOL    HW2  514   1.004   3.338   2.437
  786SOL     OW  515   1.795   2.928   2.735
  786SOL    HW1  516   1.733   2.913   2.659
  786SOL    HW2  517   1.743   2.939   2.820
  789SOL     OW  518   1.458   2.597   2.590
  789SOL    HW1  519   1.453   2.532   2.665
  789SOL    HW2  520   1.538   2.656   2.603
  793SOL     OW  521   1.632   3.239   1.943
  793SOL    HW1  522   1.600   3.333   1.933
  793SOL    HW2  523   1.556   3.176   1.931
  795SOL     OW  524   1.400   1.969   2.288
  795SOL    HW1  525   1.376   1.932   2.198
  795SOL    HW2  526   1.499   1.985   2.292
  799SOL     OW  527   1.547   2.084   3.591
  799SOL    HW1  528   1.542   2.121   3.683
  799SOL    HW2  529   1.475   2.015   3.579
  800SOL     OW  530   0.614   1.984   1.979
  800SOL    HW1  531   0.712   1.962   1.986
  800SOL    HW2  532   0.583   1.967   1.886
  803SOL     OW  533   1.351   2.452   3.295
  803SOL    HW1  534   1.379   2.409   3.380
  803SOL    HW2  535   1.376   2.548   3.296
  805SOL     OW  536   0.922   2.365   2.761
  805SOL    HW1  537   0.897   2.356   2.665
  805SOL    HW2  538   0.970   2.283   2.792
  806SOL     OW  539   0.539   1.926   2.374
  806SOL    HW1  540   0.458   1.927   2.432
  806SOL    HW2  541   0.542   2.009   2.319
  807SOL     OW  542   1.434   3.050   1.903
  807SOL    HW1  543   1.466   2.974   1.960
  807SOL    HW2  544   1.342   3.077   1.933
  809SOL     OW  545   0.935   2.098   2.342
  809SOL    HW1  546   0.887   2.139   2.264
  809SOL    HW2  547   1.034   2.096   2.323
  810SOL     OW  548   1.076   2.545   3.326
  810SOL    HW1  549   0.996   2.484   3.329
  810SOL    HW2  550   1.157   2.492   3.302
  811SOL     OW  551   1.227   3.432   2.655
  811SOL    HW1  552   1.248   3.506   2.590
  811SOL    HW2  553   1.295   3.432   2.728
  813SOL     OW  554   1.271   3.659   2.453
  813SOL    HW1  555   1.315   3.723   2.389
  813SOL    HW2  556   1.221   3.711   2.523
  814SOL     OW  557   1.032   2.411   1.878
  814SOL    HW1  558   0.991   2.493   1.839
  814SOL    HW2  559   1.096   2.437   1.951
  817SOL     OW  560   0.866   2.316   2.504
  817SOL    HW1  561   0.834   2.388   2.442
  817SOL    HW2  562   0.890   2.235   2.451
  818SOL     OW  563   1.017   1.901   2.615
  818SOL    HW1  564   0.945   1.906   2.546
  818SOL    HW2  565   0.993   1.832   2.684
  819SOL     OW  566   1.429   3.035   2.729
  819SOL    HW1  567   1.374   2.951   2.722
  819SOL    HW2  568   1.455   3.064   2.637
  820SOL     OW  569   1.466   2.452   2.854
  820SOL    HW1  570   1.436   2.357   2.861
  820SOL    HW2  571   1.539   2.468   2.920
  821SOL     OW  572   1.857   2.695   2.239
  821SOL    HW1  573   1.899   2.631   2.303
  821SOL    HW2  574   1.819   2.644   2.161
  823SOL     OW  575   1.664   3.142   2.519
  823SOL    HW1  576   1.763   3.150   2.533
  823SOL    HW2  577   1.619   3.226   2.550
  824SOL     OW  578   1.390   2.437   1.940
  824SOL    HW1  579   1.336   2.416   2.021
  824SOL    HW2  580   1.481   2.396   1.949
  825SOL     OW  581   0.527   2.118   2.190
  825SOL    HW1  582   0.554   2.059   2.115
  825SOL    HW2  583   0.527   2.213   2.159
  826SOL     OW  584   1.754   3.085   3.450
  826SOL    HW1  585   1.845   3.046   3.437
  826SOL    HW2  586   1.762   3.181   3.474
  827SOL     OW  587   1.064   3.209   3.202
  827SOL    HW1  588   0.984   3.186   3.257
  827SOL    HW2  589   1.147   3.183   3.251
  829SOL     OW  590   1.111   3.057   2.962
  829SOL    HW1  591   1.071   3.101   3.043
  829SOL    HW2  592   1.070   3.094   2.879
  830SOL     OW  593   1.638   2.961   2.941
  830SOL    HW1  594   1.643   3.042   3.000
  830SOL    HW2  595   1.552   2.963   2.890
  831SOL     OW  596   0.915   1.951   3.264
  831SOL    HW1  597   0.940   1.931   3.169
  831SOL    HW2  598   0.987   2.007   3.306
  833SOL     OW  599   0.705   2.912   2.230
  833SOL    HW1  600   0.691   2.919   2.329
  833SOL    HW2  601   0.789   2.861   2.212
  835SOL     OW  602   1.274   2.248   3.124
  835SOL    HW1  603   1.295   2.322   3.188
  835SOL    HW2  604   1.185   2.265   3.081
  838SOL     OW  605   0.566   2.399   2.727
  838SOL    HW1  606   0.578   2.465   2.653
  838SOL    HW2  607   0.612   2.433   2.810
  839SOL     OW  608   1.252   3.210   2.250
  839SOL    HW1  609   1.302   3.287   2.290
  839SOL    HW2  610   1.157   3.212   2.282
  840SOL     OW  611   1.272   3.307   3.004
  840SOL    HW1  612   1.319   3.320   3.091
  840SOL    HW2  613   1.206   3.233   3.013
  841SOL     OW  614   1.582   2.501   2.334
  841SOL    HW1  615   1.551   2.562   2.407
  841SOL    HW2  616   1.632   2.553   2.265
  844SOL     OW  617   1.587   2.641   3.532
  844SOL    HW1  618   1.495   2.679   3.527
  844SOL    HW2  619   1.647   2.688   3.467
  848SOL     OW  620   1.360   2.724   2.907
  848SOL    HW1  621   1.285   2.724   2.841
  848SOL    HW2  622   1.397   2.632   2.916
  849SOL     OW  623   1.209   2.387   2.137
  849SOL    HW1  624   1.222   2.303   2.191
  849SOL    HW2  625   1.180   2.461   2.197
  852SOL     OW  626   0.732   2.496   2.926
  852SOL    HW1  627   0.791   2.470   2.850
  852SOL    HW2  628   0.704   2.592   2.915
  853SOL     OW  629   1.728   2.797   3.716
  853SOL    HW1  630   1.682   2.790   3.627
  853SOL    HW2  631   1.666   2.841   3.782
  855SOL     OW  632   1.622   2.229   2.236
  855SOL    HW1  633   1.624   2.153   2.300
  855SOL    HW2  634   1.574   2.306   2.276
  856SOL     OW  635   1.023   2.628   2.828
  856SOL    HW1  636   1.038   2.649   2.924
  856SOL    HW2  637   0.993   2.533   2.819
  858SOL     OW  638   1.859   3.380   3.467
  858SOL    HW1  639   1.873   3.407   3.372
  858SOL    HW2  640   1.942   3.402   3.520
  860SOL     OW  641   1.540   2.136   1.987
  860SOL    HW1  642   1.479   2.061   2.010
  860SOL    HW2  643   1.562   2.188   2.070
  861SOL     OW  644   1.303   2.700   1.904
  861SOL    HW1  645   1.337   2.607   1.919
  861SOL    HW2  646   1.321   2.727   1.809
  862SOL     OW  647   1.068   3.195   2.711
  862SOL    HW1  648   1.075   3.111   2.656
  862SOL    HW2  649   1.130   3.264   2.675
  865SOL     OW  650   1.138   2.242   3.540
  865SOL    HW1  651   1.093   2.305   3.604
  865SOL    HW2  652   1.231   2.273   3.523
  866SOL     OW  653   1.160   2.069   3.339
  866SOL    HW1  654   1.160   2.133   3.416
  866SOL    HW2  655   1.188   2.117   3.256
  870SOL     OW  656   1.002   2.658   3.100
  870SOL    HW1  657   1.043   2.626   3.186
  870SOL    HW2  658   0.906   2.631   3.097
  873SOL     OW  659   1.369   2.812   3.522
  873SOL    HW1  660   1.408   2.901   3.542
  873SOL    HW2  661   1.379   2.792   3.425
  874SOL     OW  662   0.815   2.434   2.187
  874SOL    HW1  663   0.822   2.345   2.141
  874SOL    HW2  664   0.721   2.468   2.179
  875SOL     OW  665   1.657   2.466   3.068
  875SOL    HW1  666   1.619   2.397   3.130
  875SOL    HW2  667   1.739   2.430   3.024
  881SOL     OW  668   1.347   2.921   3.096
  881SOL    HW1  669   1.371   2.858   3.022
  881SOL    HW2  670   1.257   2.961   3.078
  882SOL     OW  671   1.302   2.717   2.171
  882SOL    HW1  672   1.216   2.686   2.213
  882SOL    HW2  673   1.298   2.703   2.072
  883SOL     OW  674   1.759   3.609   3.016
  883SOL    HW1  675   1.820   3.639   2.943
  883SOL    HW2  676   1.721   3.520   2.994
  887SOL     OW  677   1.726   1.997   2.385
  887SOL    HW1  678   1.799   1.980   2.318
  887SOL    HW2  679   1.695   1.910   2.423
  888SOL     OW  680   1.388   3.435   2.339
  888SOL    HW1  681   1.455   3.447   2.265
  888SOL    HW2  682   1.348   3.524   2.362
  890SOL     OW  683   1.280   2.789   2.534
  890SOL    HW1  684   1.340   2.708   2.536
  890SOL    HW2  685   1.320   2.858   2.474
  893SOL     OW  686   1.650   3.582   3.256
  893SOL    HW1  687   1.703   3.592   3.172
  893SOL    HW2  688   1.623   3.672   3.290
  894SOL     OW  689   1.841   2.037   2.825
  894SOL    HW1  690   1.880   1.952   2.789
  894SOL    HW2  691   1.743   2.039   2.806
  896SOL     OW  692   1.194   3.474   1.893
  896SOL    HW1  693   1.200   3.381   1.930
  896SOL    HW2  694   1.135   3.474   1.813
  898SOL     OW  695   0.916   2.772   2.153
  898SOL    HW1  696   0.979   2.810   2.085
  898SOL    HW2  697   0.956   2.689   2.192
  899SOL     OW  698   1.504   3.469   1.906
  899SOL    HW1  699   1.412   3.506   1.913
  899SOL    HW2  700   1.542   3.489   1.816
  901SOL     OW  701   1.614   3.154   3.151
  901SOL    HW1  702   1.674   3.157   3.231
  901SOL    HW2  703   1.539   3.218   3.164
  902SOL     OW  704   1.039   2.960   2.558
  902SOL    HW1  705   0.969   2.913   2.612
  902SOL    HW2  706   1.098   2.892   2.515
  903SOL     OW  707   1.014   2.098   2.833
  903SOL    HW1  708   1.006   2.062   2.740
  903SOL    HW2  709   1.012   2.022   2.898
  905SOL     OW  710   1.709   2.247   3.243
  905SOL    HW1  711   1.782   2.316   3.247
  905SOL    HW2  712   1.737   2.172   3.184
  910SOL     OW  713   1.440   2.718   3.260
  910SOL    HW1  714   1.383   2.770   3.197
  910SOL    HW2  715   1.536   2.730   3.236
  912SOL     OW  716   1.183   3.197   1.981
  912SOL    HW1  717   1.084   3.186   1.983
  912SOL    HW2  718   1.217   3.212   2.074
  914SOL     OW  719   1.493   3.629   2.821
  914SOL    HW1  720   1.526   3.693   2.752
  914SOL    HW2  721   1.559   3.623   2.896
  916SOL     OW  722   1.450   3.082   3.495
  916SOL    HW1  723   1.441   3.072   3.594
  916SOL    HW2  724   1.546   3.075   3.469
  918SOL     OW  725   1.674   2.745   3.116
  918SOL    HW1  726   1.647   2.656   3.079
  918SOL    HW2  727   1.675   2.813   3.043
  919SOL     OW  728   1.225   2.187   2.311
  919SOL    HW1  729   1.290   2.113   2.300
  919SOL    HW2  730   1.245   2.237   2.395
  920SOL     OW  731   0.594   2.607   2.514
  920SOL    HW1  732   0.644   2.692   2.495
  920SOL    HW2  733   0.506   2.609   2.466
  921SOL     OW  734   1.777   2.204   3.504
  921SOL    HW1  735   1.760   2.235   3.410
  921SOL    HW2  736   1.693   2.167   3.542
  922SOL     OW  737   1.730   2.796   3.379
  922SOL    HW1  738   1.768   2.887   3.394
  922SOL    HW2  739   1.722   2.779   3.280
  923SOL     OW  740   0.859   3.236   1.878
  923SOL    HW1  741   0.813   3.251   1.966
  923SOL    HW2  742   0.903   3.321   1.848
  925SOL     OW  743   0.859   2.818   2.723
  925SOL    HW1  744   0.913   2.749   2.771
  925SOL    HW2  745   0.827   2.887   2.789
  926SOL     OW  746   1.083   2.846   1.949
  926SOL    HW1  747   1.060   2.899   1.867
  926SOL    HW2  748   1.164   2.790   1.930
  927SOL     OW  749   1.861   3.431   2.713
  927SOL    HW1  750   1.790   3.419   2.643
  927SOL    HW2  751   1.862   3.352   2.773
  931SOL     OW  752   1.824   2.054   3.089
  931SOL    HW1  753   1.820   1.964   3.133
  931SOL    HW2  754   1.827   2.043   2.990
  933SOL     OW  755   1.705   3.349   2.966
  933SOL    HW1  756   1.612   3.324   2.939
  933SOL    HW2  757   1.731   3.299   3.048
  936SOL     OW  758   1.424   2.076   2.974
  936SOL    HW1  759   1.476   2.011   3.029
  936SOL    HW2  760   1.375   2.139   3.035
  937SOL     OW  761   1.001   1.896   3.016
  937SOL    HW1  762   0.938   1.824   2.985
  937SOL    HW2  763   1.094   1.860   3.016
  938SOL     OW  764   0.770   3.192   2.163
  938SOL    HW1  765   0.724   3.105   2.180
  938SOL    HW2  766   0.861   3.189   2.204
  940SOL     OW  767   1.352   1.914   2.030
  940SOL    HW1  768   1.387   1.873   1.946
  940SOL    HW2  769   1.262   1.876   2.050
  941SOL     OW  770   1.300   2.315   2.553
  941SOL    HW1  771   1.241   2.395   2.557
  941SOL    HW2  772   1.315   2.280   2.646
  942SOL     OW  773   1.593   2.083   2.744
  942SOL    HW1  774   1.509   2.082   2.798
  942SOL    HW2  775   1.595   2.166   2.688
  948SOL     OW  776   1.755   2.469   3.955
  948SOL    HW1  777   1.743   2.456   3.856
  948SOL    HW2  778   1.725   2.388   4.004
  994SOL     OW  779   1.390   2.437   3.802
  994SOL    HW1  780   1.336   2.416   3.883
  994SOL    HW2  781   1.481   2.396   3.811
 1004SOL     OW  782   1.540   2.136   3.849
 1004SOL    HW1  783   1.479   2.061   3.872
 1004SOL    HW2  784   1.562   2.188   3.932
 1159SOL     OW  785   1.400   3.831   2.288
 1159SOL    HW1  786   1.376   3.794   2.198
 1159SOL    HW2  787   1.499   3.847   2.292
 1205SOL     OW  788   1.726   3.859   2.385
 1205SOL    HW1  789   1.799   3.842   2.318
 1205SOL    HW2  790   1.695   3.772   2.423
 1207SOL     OW  791   1.841   3.899   2.825
 1207SOL    HW1  792   1.880   3.814   2.789
 1207SOL    HW2  793   1.743   3.901   2.806
 1227SOL     OW  794   1.352   3.776   2.030
 1227SOL    HW1  795   1.387   3.735   1.946
 1227SOL    HW2  796   1.262   3.738   2.050
 1279SOL     OW  797   2.431   1.275   1.165
 1279SOL    HW1  798   2.338   1.268   1.128
 1279SOL    HW2  799   2.442   1.364   1.209
 1283SOL     OW  800   2.630   1.144   1.023
 1283SOL    HW1  801   2.552   1.161   1.083
 1283SOL    HW2  802   2.664   1.231   0.987
 1284SOL     OW  803   2.712   0.798   1.823
 1284SOL    HW1  804   2.708   0.874   1.888
 1284SOL    HW2  805   2.734   0.834   1.732
 1286SOL     OW  806   2.548   1.161   1.803
 1286SOL    HW1  807   2.608   1.240   1.817
 1286SOL    HW2  808   2.462   1.192   1.762
 1287SOL     OW  809   2.197   1.435   1.061
 1287SOL    HW1  810   2.119   1.404   1.008
 1287SOL    HW2  811   2.255   1.493   1.004
 1288SOL     OW  812   3.322   1.505   1.339
 1288SOL    HW1  813   3.346   1.599   1.365
 1288SOL    HW2  814   3.306   1.451   1.421
 1292SOL     OW  815   2.989   1.341   1.690
 1292SOL    HW1  816   3.036   1.341   1.778
 1292SOL    HW2  817   2.941   1.254   1.679
 1295SOL     OW  818   2.482   1.786   1.439
 1295SOL    HW1  819   2.390   1.769   1.474
 1295SOL    HW2  820   2.510   1.878   1.465
 1303SOL     OW  821   1.975   0.737   1.597
 1303SOL    HW1  822   2.063   0.724   1.642
 1303SOL    HW2  823   1.962   0.834   1.575
 1305SOL     OW  824   3.155   1.228   1.423
 1305SOL    HW1  825   3.192   1.155   1.365
 1305SOL    HW2  826   3.207   1.233   1.508
 1307SOL     OW  827   2.059   0.976   1.264
 1307SOL    HW1  828   2.148   0.931   1.250
 1307SOL    HW2  829   1.986   0.911   1.245
 1309SOL     OW  830   3.049   1.792   1.616
 1309SOL    HW1  831   3.073   1.852   1.540
 1309SOL    HW2  832   3.056   1.697   1.586
 1318SOL     OW  833   2.835   0.890   1.572
 1318SOL    HW1  834   2.881   0.806   1.543
 1318SOL    HW2  835   2.779   0.924   1.497
 1322SOL     OW  836   1.992   1.821   1.571
 1322SOL    HW1  837   1.982   1.806   1.670
 1322SOL    HW2  838   1.906   1.857   1.535
 1328SOL     OW  839   2.213   1.801   0.853
 1328SOL    HW1  840   2.263   1.715   0.859
 1328SOL    HW2  841   2.278   1.878   0.850
 1330SOL     OW  842   3.089   1.550   1.506
 1330SOL    HW1  843   3.095   1.473   1.570
 1330SOL    HW2  844   3.037   1.524   1.426
 1333SOL     OW  845   2.323   1.266   1.727
 1333SOL    HW1  846   2.273   1.267   1.641
 1333SOL    HW2  847   2.260   1.248   1.803
 1339SOL     OW  848   2.111   1.785   1.241
 1339SOL    HW1  849   2.168   1.720   1.291
 1339SOL    HW2  850   2.095   1.752   1.148
 1340SOL     OW  851   2.802   1.698   0.904
 1340SOL    HW1  852   2.882   1.641   0.925
 1340SOL    HW2  853   2.753   1.658   0.827
 1345SOL     OW  854   2.750   1.514   1.195
 1345SOL    HW1  855   2.727   1.489   1.101
 1345SOL    HW2  856   2.811   1.445   1.234
 1347SOL     OW  857   2.665   1.402   0.924
 1347SOL    HW1  858   2.755   1.416   0.882
 1347SOL    HW2  859   2.594   1.404   0.853
 1370SOL     OW  860   2.926   1.347   1.340
 1370SOL    HW1  861   2.846   1.324   1.395
 1370SOL    HW2  862   3.009   1.321   1.389
 1371SOL     OW  863   3.454   1.629   1.625
 1371SOL    HW1  864   3.481   1.663   1.535
 1371SOL    HW2  865   3.533   1.591   1.671
 1372SOL     OW  866   2.973   1.195   1.100
 1372SOL    HW1  867   2.933   1.239   1.181
 1372SOL    HW2  868   2.932   1.232   1.017
 1375SOL     OW  869   2.842   1.116   1.719
 1375SOL    HW1  870   2.743   1.122   1.729
 1375SOL    HW2  871   2.865   1.036   1.663
 1377SOL     OW  872   2.272   0.813   1.251
 1377SOL    HW1  873   2.358   0.825   1.301
 1377SOL    HW2  874   2.230   0.726   1.278
 1379SOL     OW  875   1.926   1.564   1.331
 1379SOL    HW1  876   1.880   1.646   1.297
 1379SOL    HW2  877   2.024   1.583   1.340
 1383SOL     OW  878   3.134   1.445   1.142
 1383SOL    HW1  879   3.181   1.458   1.229
 1383SOL    HW2  880   3.068   1.371   1.151
 1385SOL     OW  881   2.216   1.510   1.329
 1385SOL    HW1  882   2.195   1.466   1.242
 1385SOL    HW2  883   2.313   1.536   1.332
 1386SOL     OW  884   2.264   0.751   1.598
 1386SOL    HW1  885   2.332   0.806   1.551
 1386SOL    HW2  886   2.304   0.663   1.625
 1394SOL     OW  887   1.899   1.310   1.282
 1394SOL    HW1  888   1.952   1.261   1.350
 1394SOL    HW2  889   1.921   1.408   1.287
 1400SOL     OW  890   2.842   1.573   1.700
 1400SOL    HW1  891   2.822   1.617   1.612
 1400SOL    HW2  892   2.881   1.482   1.684
 1401SOL     OW  893   3.721   1.518   1.605
 1401SOL    HW1  894   3.735   1.545   1.510
 1401SOL    HW2  895   3.804   1.540   1.658
 1402SOL     OW  896   2.212   0.898   1.804
 1402SOL    HW1  897   2.288   0.942   1.852
 1402SOL    HW2  898   2.247   0.851   1.722
 1411SOL     OW  899   1.950   1.801   0.927
 1411SOL    HW1  900   1.908   1.715   0.900
 1411SOL    HW2  901   2.044   1.804   0.893
 1412SOL     OW  902   2.366   1.568   0.910
 1412SOL    HW1  903   2.432   1.642   0.919
 1412SOL    HW2  904   2.410   1.489   0.868
 1416SOL     OW  905   3.231   0.950   1.660
 1416SOL    HW1  906   3.270   1.039   1.680
 1416SOL    HW2  907   3.241   0.930   1.563
 1419SOL     OW  908   2.114   1.564   1.744
 1419SOL    HW1  909   2.084   1.621   1.820
 1419SOL    HW2  910   2.107   1.467   1.770
 1421SOL     OW  911   2.792   1.678   1.465
 1421SOL    HW1  912   2.768   1.660   1.370
 1421SOL    HW2  913   2.822   1.772   1.475
 1423SOL     OW  914   2.021   1.137   1.466
 1423SOL    HW1  915   2.043   1.076   1.542
 1423SOL    HW2  916   2.031   1.088   1.380
 1427SOL     OW  917   3.114   1.731   1.128
 1427SOL    HW1  918   3.198   1.736   1.074
 1427SOL    HW2  919   3.091   1.635   1.146
 1428SOL     OW  920   1.945   1.258   1.022
 1428SOL    HW1  921   1.940   1.257   1.122
 1428SOL    HW2  922   1.862   1.217   0.984
 1429SOL     OW  923   2.550   1.662   1.716
 1429SOL    HW1  924   2.494   1.743   1.725
 1429SOL    HW2  925   2.602   1.666   1.630
 1433SOL     OW  926   1.992   1.794   1.851
 1433SOL    HW1  927   1.951   1.720   1.904
 1433SOL    HW2  928   2.056   1.845   1.909
 1435SOL     OW  929   2.692   1.273   1.422
 1435SOL    HW1  930   2.687   1.306   1.517
 1435SOL    HW2  931   2.606   1.292   1.376
 1437SOL     OW  932   3.512   1.720   1.394
 1437SOL    HW1  933   3.565   1.730   1.310
 1437SOL    HW2  934   3.485   1.810   1.428
 1441SOL     OW  935   2.684   1.002   1.372
 1441SOL    HW1  936   2.724   1.001   1.280
 1441SOL    HW2  937   2.694   1.094   1.412
 1444SOL     OW  938   2.234   1.288   1.490
 1444SOL    HW1  939   2.221   1.381   1.456
 1444SOL    HW2  940   2.150   1.236   1.477
 1451SOL     OW  941   1.967   1.013   1.726
 1451SOL    HW1  942   1.890   0.980   1.780
 1451SOL    HW2  943   2.052   0.983   1.768
 1457SOL     OW  944   2.475   0.842   1.431
 1457SOL    HW1  945   2.531   0.923   1.414
 1457SOL    HW2  946   2.534   0.762   1.434
 1458SOL     OW  947   3.355   1.767   0.959
 1458SOL    HW1  948   3.388   1.831   0.890
 1458SOL    HW2  949   3.421   1.761   1.034
 1460SOL     OW  950   3.312   1.220   1.633
 1460SOL    HW1  951   3.303   1.210   1.732
 1460SOL    HW2  952   3.408   1.213   1.607
 1461SOL     OW  953   2.252   1.741   1.560
 1461SOL    HW1  954   2.161   1.782   1.558
 1461SOL    HW2  955   2.245   1.647   1.592
 1468SOL     OW  956   2.523   1.790   0.953
 1468SOL    HW1  957   2.477   1.878   0.940
 1468SOL    HW2  958   2.622   1.802   0.946
 1472SOL     OW  959   2.083   1.314   1.844
 1472SOL    HW1  960   2.018   1.241   1.823
 1472SOL    HW2  961   2.087   1.328   1.942
 1474SOL     OW  962   2.534   1.391   1.624
 1474SOL    HW1  963   2.456   1.341   1.662
 1474SOL    HW2  964   2.531   1.486   1.655
 1479SOL     OW  965   2.674   1.586   0.687
 1479SOL    HW1  966   2.706   1.596   0.593
 1479SOL    HW2  967   2.595   1.524   0.689
 1483SOL     OW  968   2.480   1.567   1.284
 1483SOL    HW1  969   2.475   1.649   1.341
 1483SOL    HW2  970   2.569   1.564   1.239
 1489SOL     OW  971   2.092   0.628   1.975
 1489SOL    HW1  972   1.999   0.626   2.012
 1489SOL    HW2  973   2.093   0.589   1.883
 1492SOL     OW  974   2.431   1.275   3.027
 1492SOL    HW1  975   2.338   1.268   2.990
 1492SOL    HW2  976   2.442   1.364   3.071
 1493SOL     OW  977   3.417   1.511   2.565
 1493SOL    HW1  978   3.360   1.495   2.646
 1493SOL    HW2  979   3.358   1.521   2.485
 1494SOL     OW  980   2.997   0.703   2.579
 1494SOL    HW1  981   3.054   0.781   2.554
 1494SOL    HW2  982   2.937   0.729   2.655
 1496SOL     OW  983   2.630   1.144   2.885
 1496SOL    HW1  984   2.552   1.161   2.945
 1496SOL    HW2  985   2.664   1.231   2.849
 1498SOL     OW  986   2.547   1.012   2.527
 1498SOL    HW1  987   2.616   0.996   2.597
 1498SOL    HW2  988   2.474   1.069   2.565
 1500SOL     OW  989   2.197   1.435   2.923
 1500SOL    HW1  990   2.119   1.404   2.870
 1500SOL    HW2  991   2.255   1.493   2.866
 1501SOL     OW  992   3.322   1.505   3.201
 1501SOL    HW1  993   3.346   1.599   3.227
 1501SOL    HW2  994   3.306   1.451   3.283
 1504SOL     OW  995   2.093   1.713   2.345
 1504SOL    HW1  996   2.127   1.790   2.399
 1504SOL    HW2  997   2.137   1.713   2.255
 1505SOL     OW  998   2.989   1.341   3.552
 1505SOL    HW1  999   3.036   1.341   3.640
 1505SOL    HW2 1000   2.941   1.254   3.541
 1506SOL     OW 1001   2.092   1.434   2.400
 1506SOL    HW1 1002   2.066   1.530   2.400
 1506SOL    HW2 1003   2.021   1.380   2.445
 1507SOL     OW 1004   2.102   1.091   2.748
 1507SOL    HW1 1005   2.116   1.007   2.800
 1507SOL    HW2 1006   2.047   1.155   2.803
 1508SOL     OW 1007   2.482   1.786   3.301
 1508SOL    HW1 1008   2.390   1.769   3.336
 1508SOL    HW2 1009   2.510   1.878   3.327
 1509SOL     OW 1010   2.468   0.964   1.985
 1509SOL    HW1 1011   2.475   1.048   1.931
 1509SOL    HW2 1012   2.514   0.977   2.073
 1511SOL     OW 1013   1.984   0.643   2.425
 1511SOL    HW1 1014   1.939   0.555   2.442
 1511SOL    HW2 1015   1.983   0.697   2.509
 1512SOL     OW 1016   3.704   1.767   2.221
 1512SOL    HW1 1017   3.758   1.738   2.301
 1512SOL    HW2 1018   3.734   1.857   2.192
 1513SOL     OW 1019   1.889   1.596   1.979
 1513SOL    HW1 1020   1.870   1.500   2.000
 1513SOL    HW2 1021   1.856   1.654   2.054
 1515SOL     OW 1022   3.503   1.108   2.294
 1515SOL    HW1 1023   3.589   1.110   2.242
 1515SOL    HW2 1024   3.517   1.155   2.382
 1517SOL     OW 1025   2.475   1.365   2.588
 1517SOL    HW1 1026   2.426   1.278   2.597
 1517SOL    HW2 1027   2.452   1.408   2.501
 1518SOL     OW 1028   3.155   1.228   3.285
 1518SOL    HW1 1029   3.192   1.155   3.227
 1518SOL    HW2 1030   3.207   1.233   3.370
 1520SOL     OW 1031   2.059   0.976   3.126
 1520SOL    HW1 1032   2.148   0.931   3.112
 1520SOL    HW2 1033   1.986   0.911   3.107
 1521SOL     OW 1034   3.387   0.999   2.052
 1521SOL    HW1 1035   3.324   0.923   2.065
 1521SOL    HW2 1036   3.435   1.017   2.138
 1522SOL     OW 1037   3.049   1.792   3.478
 1522SOL    HW1 1038   3.073   1.852   3.402
 1522SOL    HW2 1039   3.056   1.697   3.448
 1524SOL     OW 1040   3.328   1.417   2.815
 1524SOL    HW1 1041   3.269   1.423   2.895
 1524SOL    HW2 1042   3.313   1.329   2.769
 1525SOL     OW 1043   3.529   1.714   2.434
 1525SOL    HW1 1044   3.488   1.691   2.346
 1525SOL    HW2 1045   3.511   1.640   2.499
 1526SOL     OW 1046   2.460   0.729   2.132
 1526SOL    HW1 1047   2.484   0.798   2.064
 1526SOL    HW2 1048   2.382   0.762   2.186
 1528SOL     OW 1049   3.438   1.662   2.169
 1528SOL    HW1 1050   3.527   1.708   2.172
 1528SOL    HW2 1051   3.417   1.638   2.074
 1533SOL     OW 1052   2.903   0.701   2.291
 1533SOL    HW1 1053   2.929   0.697   2.387
 1533SOL    HW2 1054   2.818   0.650   2.277
 1534SOL     OW 1055   1.938   0.811   2.651
 1534SOL    HW1 1056   2.037   0.799   2.660
 1534SOL    HW2 1057   1.914   0.906   2.672
 1535SOL     OW 1058   1.992   1.821   3.433
 1535SOL    HW1 1059   1.982   1.806   3.532
 1535SOL    HW2 1060   1.906   1.857   3.397
 1538SOL     OW 1061   3.224   1.144   2.407
 1538SOL    HW1 1062   3.307   1.115   2.359
 1538SOL    HW2 1063   3.175   1.211   2.351
 1540SOL     OW 1064   2.870   1.456   2.339
 1540SOL    HW1 1065   2.824   1.528   2.287
 1540SOL    HW2 1066   2.866   1.476   2.437
 1541SOL     OW 1067   2.213   1.801   2.715
 1541SOL    HW1 1068   2.263   1.715   2.721
 1541SOL    HW2 1069   2.278   1.878   2.712
 1543SOL     OW 1070   3.089   1.550   3.368
 1543SOL    HW1 1071   3.095   1.473   3.432
 1543SOL    HW2 1072   3.037   1.524   3.288
 1544SOL     OW 1073   2.183   0.943   2.104
 1544SOL    HW1 1074   2.265   0.982   2.062
 1544SOL    HW2 1075   2.156   0.861   2.055
 1546SOL     OW 1076   2.323   1.266   3.589
 1546SOL    HW1 1077   2.273   1.267   3.503
 1546SOL    HW2 1078   2.260   1.248   3.665
 1547SOL     OW 1079   2.973   1.776   2.099
 1547SOL    HW1 1080   2.913   1.714   2.149
 1547SOL    HW2 1081   3.004   1.732   2.014
 1549SOL     OW 1082   3.494   1.377   1.943
 1549SOL    HW1 1083   3.462   1.471   1.933
 1549SOL    HW2 1084   3.418   1.314   1.931
 1550SOL     OW 1085   2.326   1.743   2.185
 1550SOL    HW1 1086   2.359   1.782   2.271
 1550SOL    HW2 1087   2.402   1.736   2.120
 1552SOL     OW 1088   2.111   1.785   3.103
 1552SOL    HW1 1089   2.168   1.720   3.153
 1552SOL    HW2 1090   2.095   1.752   3.010
 1553SOL     OW 1091   2.802   1.698   2.766
 1553SOL    HW1 1092   2.882   1.641   2.787
 1553SOL    HW2 1093   2.753   1.658   2.689
 1554SOL     OW 1094   2.244   0.700   2.342
 1554SOL    HW1 1095   2.289   0.610   2.339
 1554SOL    HW2 1096   2.150   0.689   2.375
 1558SOL     OW 1097   2.750   1.514   3.057
 1558SOL    HW1 1098   2.727   1.489   2.963
 1558SOL    HW2 1099   2.811   1.445   3.096
 1560SOL     OW 1100   2.665   1.402   2.786
 1560SOL    HW1 1101   2.755   1.416   2.744
 1560SOL    HW2 1102   2.594   1.404   2.715
 1563SOL     OW 1103   3.296   1.188   1.903
 1563SOL    HW1 1104   3.328   1.112   1.960
 1563SOL    HW2 1105   3.204   1.215   1.933
 1567SOL     OW 1106   3.089   1.570   2.655
 1567SOL    HW1 1107   3.110   1.644   2.590
 1567SOL    HW2 1108   3.157   1.570   2.728
 1568SOL     OW 1109   2.321   1.152   2.603
 1568SOL    HW1 1110   2.250   1.125   2.668
 1568SOL    HW2 1111   2.295   1.124   2.510
 1569SOL     OW 1112   3.133   1.797   2.453
 1569SOL    HW1 1113   3.177   1.861   2.389
 1569SOL    HW2 1114   3.083   1.849   2.523
 1575SOL     OW 1115   3.291   1.173   2.729
 1575SOL    HW1 1116   3.236   1.089   2.722
 1575SOL    HW2 1117   3.317   1.202   2.637
 1578SOL     OW 1118   2.350   1.385   2.036
 1578SOL    HW1 1119   2.263   1.370   2.083
 1578SOL    HW2 1120   2.333   1.411   1.941
 1579SOL     OW 1121   3.526   1.280   2.519
 1579SOL    HW1 1122   3.625   1.288   2.533
 1579SOL    HW2 1123   3.481   1.364   2.550
 1583SOL     OW 1124   2.926   1.347   3.202
 1583SOL    HW1 1125   2.846   1.324   3.257
 1583SOL    HW2 1126   3.009   1.321   3.251
 1585SOL     OW 1127   2.973   1.195   2.962
 1585SOL    HW1 1128   2.933   1.239   3.043
 1585SOL    HW2 1129   2.932   1.232   2.879
 1589SOL     OW 1130   2.567   1.050   2.230
 1589SOL    HW1 1131   2.553   1.057   2.329
 1589SOL    HW2 1132   2.651   0.999   2.212
 1590SOL     OW 1133   2.272   0.813   3.113
 1590SOL    HW1 1134   2.358   0.825   3.163
 1590SOL    HW2 1135   2.230   0.726   3.140
 1592SOL     OW 1136   1.926   1.564   3.193
 1592SOL    HW1 1137   1.880   1.646   3.159
 1592SOL    HW2 1138   2.024   1.583   3.202
 1593SOL     OW 1139   2.229   1.100   2.363
 1593SOL    HW1 1140   2.222   1.183   2.307
 1593SOL    HW2 1141   2.233   1.020   2.303
 1595SOL     OW 1142   3.114   1.348   2.250
 1595SOL    HW1 1143   3.164   1.425   2.290
 1595SOL    HW2 1144   3.019   1.350   2.282
 1596SOL     OW 1145   3.134   1.445   3.004
 1596SOL    HW1 1146   3.181   1.458   3.091
 1596SOL    HW2 1147   3.068   1.371   3.013
 1598SOL     OW 1148   2.216   1.510   3.191
 1598SOL    HW1 1149   2.195   1.466   3.104
 1598SOL    HW2 1150   2.313   1.536   3.194
 1603SOL     OW 1151   2.435   0.870   2.891
 1603SOL    HW1 1152   2.479   0.959   2.882
 1603SOL    HW2 1153   2.372   0.870   2.968
 1607SOL     OW 1154   1.899   1.310   3.144
 1607SOL    HW1 1155   1.952   1.261   3.212
 1607SOL    HW2 1156   1.921   1.408   3.149
 1608SOL     OW 1157   2.594   0.634   2.926
 1608SOL    HW1 1158   2.653   0.608   2.850
 1608SOL    HW2 1159   2.566   0.730   2.915
 1612SOL     OW 1160   2.885   0.766   2.828
 1612SOL    HW1 1161   2.900   0.787   2.924
 1612SOL    HW2 1162   2.855   0.671   2.819
 1613SOL     OW 1163   2.842   1.573   3.562
 1613SOL    HW1 1164   2.822   1.617   3.474
 1613SOL    HW2 1165   2.881   1.482   3.546
 1617SOL     OW 1166   3.165   0.838   1.904
 1617SOL    HW1 1167   3.199   0.745   1.919
 1617SOL    HW2 1168   3.183   0.865   1.809
 1618SOL     OW 1169   2.930   1.333   2.711
 1618SOL    HW1 1170   2.937   1.249   2.656
 1618SOL    HW2 1171   2.992   1.402   2.675
 1619SOL     OW 1172   2.181   0.810   2.811
 1619SOL    HW1 1173   2.274   0.846   2.816
 1619SOL    HW2 1174   2.175   0.725   2.863
 1623SOL     OW 1175   1.870   1.326   2.062
 1623SOL    HW1 1176   1.777   1.347   2.031
 1623SOL    HW2 1177   1.880   1.227   2.075
 1624SOL     OW 1178   1.950   1.801   2.789
 1624SOL    HW1 1179   1.908   1.715   2.762
 1624SOL    HW2 1180   2.044   1.804   2.755
 1625SOL     OW 1181   2.366   1.568   2.772
 1625SOL    HW1 1182   2.432   1.642   2.781
 1625SOL    HW2 1183   2.410   1.489   2.730
 1626SOL     OW 1184   2.864   0.796   3.100
 1626SOL    HW1 1185   2.905   0.764   3.186
 1626SOL    HW2 1186   2.768   0.769   3.097
 1630SOL     OW 1187   2.677   0.572   2.187
 1630SOL    HW1 1188   2.684   0.483   2.141
 1630SOL    HW2 1189   2.583   0.606   2.179
 1632SOL     OW 1190   2.114   1.564   3.606
 1632SOL    HW1 1191   2.084   1.621   3.682
 1632SOL    HW2 1192   2.107   1.467   3.632
 1634SOL     OW 1193   2.792   1.678   3.327
 1634SOL    HW1 1194   2.768   1.660   3.232
 1634SOL    HW2 1195   2.822   1.772   3.337
 1635SOL     OW 1196   2.335   0.500   2.053
 1635SOL    HW1 1197   2.396   0.580   2.057
 1635SOL    HW2 1198   2.240   0.531   2.060
 1636SOL     OW 1199   2.021   1.137   3.328
 1636SOL    HW1 1200   2.043   1.076   3.404
 1636SOL    HW2 1201   2.031   1.088   3.242
 1637SOL     OW 1202   3.209   1.059   3.096
 1637SOL    HW1 1203   3.233   0.996   3.022
 1637SOL    HW2 1204   3.119   1.099   3.078
 1638SOL     OW 1205   3.164   0.855   2.171
 1638SOL    HW1 1206   3.078   0.824   2.213
 1638SOL    HW2 1207   3.160   0.841   2.072
 1639SOL     OW 1208   3.621   1.747   3.016
 1639SOL    HW1 1209   3.682   1.777   2.943
 1639SOL    HW2 1210   3.583   1.658   2.994
 1640SOL     OW 1211   3.114   1.731   2.990
 1640SOL    HW1 1212   3.198   1.736   2.936
 1640SOL    HW2 1213   3.091   1.635   3.008
 1641SOL     OW 1214   1.945   1.258   2.884
 1641SOL    HW1 1215   1.940   1.257   2.984
 1641SOL    HW2 1216   1.862   1.217   2.846
 1642SOL     OW 1217   2.550   1.662   3.578
 1642SOL    HW1 1218   2.494   1.743   3.587
 1642SOL    HW2 1219   2.602   1.666   3.492
 1644SOL     OW 1220   3.250   1.573   2.339
 1644SOL    HW1 1221   3.317   1.585   2.265
 1644SOL    HW2 1222   3.210   1.662   2.362
 1645SOL     OW 1223   1.992   1.794   3.713
 1645SOL    HW1 1224   1.951   1.720   3.766
 1645SOL    HW2 1225   2.056   1.845   3.771
 1646SOL     OW 1226   3.142   0.927   2.534
 1646SOL    HW1 1227   3.202   0.846   2.536
 1646SOL    HW2 1228   3.182   0.996   2.474
 1647SOL     OW 1229   2.692   1.273   3.284
 1647SOL    HW1 1230   2.687   1.306   3.379
 1647SOL    HW2 1231   2.606   1.292   3.238
 1648SOL     OW 1232   2.534   1.616   2.016
 1648SOL    HW1 1233   2.543   1.626   1.917
 1648SOL    HW2 1234   2.494   1.527   2.037
 1649SOL     OW 1235   3.512   1.720   3.256
 1649SOL    HW1 1236   3.565   1.730   3.172
 1649SOL    HW2 1237   3.485   1.810   3.290
 1652SOL     OW 1238   3.056   1.612   1.893
 1652SOL    HW1 1239   3.062   1.519   1.930
 1652SOL    HW2 1240   2.997   1.612   1.813
 1653SOL     OW 1241   2.684   1.002   3.234
 1653SOL    HW1 1242   2.724   1.001   3.142
 1653SOL    HW2 1243   2.694   1.094   3.274
 1654SOL     OW 1244   2.778   0.910   2.153
 1654SOL    HW1 1245   2.841   0.948   2.085
 1654SOL    HW2 1246   2.818   0.827   2.192
 1655SOL     OW 1247   3.366   1.607   1.906
 1655SOL    HW1 1248   3.274   1.644   1.913
 1655SOL    HW2 1249   3.404   1.627   1.816
 1656SOL     OW 1250   2.234   1.288   3.352
 1656SOL    HW1 1251   2.221   1.381   3.318
 1656SOL    HW2 1252   2.150   1.236   3.339
 1657SOL     OW 1253   3.476   1.292   3.151
 1657SOL    HW1 1254   3.536   1.295   3.231
 1657SOL    HW2 1255   3.401   1.356   3.164
 1658SOL     OW 1256   2.901   1.098   2.558
 1658SOL    HW1 1257   2.831   1.051   2.612
 1658SOL    HW2 1258   2.960   1.030   2.515
 1660SOL     OW 1259   2.452   1.487   2.353
 1660SOL    HW1 1260   2.494   1.429   2.283
 1660SOL    HW2 1261   2.408   1.566   2.309
 1662SOL     OW 1262   2.117   1.348   2.152
 1662SOL    HW1 1263   2.021   1.349   2.125
 1662SOL    HW2 1264   2.129   1.401   2.236
 1668SOL     OW 1265   3.045   1.335   1.981
 1668SOL    HW1 1266   2.946   1.324   1.983
 1668SOL    HW2 1267   3.079   1.350   2.074
 1669SOL     OW 1268   2.475   0.842   3.293
 1669SOL    HW1 1269   2.531   0.923   3.276
 1669SOL    HW2 1270   2.534   0.762   3.296
 1670SOL     OW 1271   3.355   1.767   2.821
 1670SOL    HW1 1272   3.388   1.831   2.752
 1670SOL    HW2 1273   3.421   1.761   2.896
 1673SOL     OW 1274   2.252   1.741   3.422
 1673SOL    HW1 1275   2.161   1.782   3.420
 1673SOL    HW2 1276   2.245   1.647   3.454
 1676SOL     OW 1277   2.456   0.745   2.514
 1676SOL    HW1 1278   2.506   0.830   2.495
 1676SOL    HW2 1279   2.368   0.747   2.466
 1679SOL     OW 1280   2.721   1.374   1.878
 1679SOL    HW1 1281   2.675   1.389   1.966
 1679SOL    HW2 1282   2.765   1.459   1.848
 1680SOL     OW 1283   2.523   1.790   2.815
 1680SOL    HW1 1284   2.477   1.878   2.802
 1680SOL    HW2 1285   2.622   1.802   2.808
 1681SOL     OW 1286   2.721   0.956   2.723
 1681SOL    HW1 1287   2.775   0.887   2.771
 1681SOL    HW2 1288   2.689   1.025   2.789
 1682SOL     OW 1289   2.945   0.984   1.949
 1682SOL    HW1 1290   2.922   1.037   1.867
 1682SOL    HW2 1291   3.026   0.928   1.930
 1683SOL     OW 1292   3.723   1.569   2.713
 1683SOL    HW1 1293   3.652   1.557   2.643
 1683SOL    HW2 1294   3.724   1.490   2.773
 1684SOL     OW 1295   2.083   1.314   3.706
 1684SOL    HW1 1296   2.018   1.241   3.685
 1684SOL    HW2 1297   2.087   1.328   3.804
 1685SOL     OW 1298   1.941   1.240   2.515
 1685SOL    HW1 1299   1.940   1.193   2.603
 1685SOL    HW2 1300   2.023   1.212   2.464
 1686SOL     OW 1301   2.534   1.391   3.486
 1686SOL    HW1 1302   2.456   1.341   3.524
 1686SOL    HW2 1303   2.531   1.486   3.517
 1689SOL     OW 1304   3.567   1.487   2.966
 1689SOL    HW1 1305   3.474   1.462   2.939
 1689SOL    HW2 1306   3.593   1.437   3.048
 1691SOL     OW 1307   2.674   1.586   2.549
 1691SOL    HW1 1308   2.706   1.596   2.455
 1691SOL    HW2 1309   2.595   1.524   2.551
 1694SOL     OW 1310   2.632   1.330   2.163
 1694SOL    HW1 1311   2.586   1.243   2.180
 1694SOL    HW2 1312   2.723   1.327   2.204
 1695SOL     OW 1313   2.480   1.567   3.146
 1695SOL    HW1 1314   2.475   1.649   3.203
 1695SOL    HW2 1315   2.569   1.564   3.101
 1699SOL     OW 1316   1.901   1.077   2.162
 1699SOL    HW1 1317   2.000   1.066   2.153
 1699SOL    HW2 1318   1.861   0.991   2.194
 1700SOL     OW 1319   2.737   1.646   2.199
 1700SOL    HW1 1320   2.660   1.611   2.145
 1700SOL    HW2 1321   2.705   1.717   2.261
 1713SOL     OW 1322   1.889   1.596   3.841
 1713SOL    HW1 1323   1.870   1.500   3.862
 1713SOL    HW2 1324   1.856   1.654   3.916
 1768SOL     OW 1325   2.534   1.616   3.878
 1768SOL    HW1 1326   2.543   1.626   3.779
 1768SOL    HW2 1327   2.494   1.527   3.899
 1771SOL     OW 1328   3.056   1.612   3.755
 1771SOL    HW1 1329   3.062   1.519   3.792
 1771SOL    HW2 1330   2.997   1.612   3.675
 1781SOL     OW 1331   2.721   1.374   3.740
 1781SOL    HW1 1332   2.675   1.389   3.828
 1781SOL    HW2 1333   2.765   1.459   3.710
 1795SOL     OW 1334   2.087   2.137   0.996
 1795SOL    HW1 1335   2.122   2.120   1.088
 1795SOL    HW2 1336   1.999   2.092   0.984
 1796SOL     OW 1337   1.881   2.230   0.647
 1796SOL    HW1 1338   1.799   2.273   0.686
 1796SOL    HW2 1339   1.853   2.157   0.584
 1797SOL     OW 1340   2.431   3.137   1.165
 1797SOL    HW1 1341   2.338   3.130   1.128
 1797SOL    HW2 1342   2.442   3.226   1.209
 1799SOL     OW 1343   2.997   2.565   0.717
 1799SOL    HW1 1344   3.054   2.643   0.692
 1799SOL    HW2 1345   2.937   2.591   0.793
 1801SOL     OW 1346   2.630   3.006   1.023
 1801SOL    HW1 1347   2.552   3.023   1.083
 1801SOL    HW2 1348   2.664   3.093   0.987
 1802SOL     OW 1349   2.712   2.660   1.823
 1802SOL    HW1 1350   2.708   2.736   1.888
 1802SOL    HW2 1351   2.734   2.696   1.732
 1803SOL     OW 1352   2.547   2.874   0.665
 1803SOL    HW1 1353   2.616   2.858   0.735
 1803SOL    HW2 1354   2.474   2.931   0.703
 1804SOL     OW 1355   2.548   3.023   1.803
 1804SOL    HW1 1356   2.608   3.102   1.817
 1804SOL    HW2 1357   2.462   3.054   1.762
 1805SOL     OW 1358   2.197   3.297   1.061
 1805SOL    HW1 1359   2.119   3.266   1.008
 1805SOL    HW2 1360   2.255   3.355   1.004
 1806SOL     OW 1361   3.322   3.367   1.339
 1806SOL    HW1 1362   3.346   3.461   1.365
 1806SOL    HW2 1363   3.306   3.313   1.421
 1807SOL     OW 1364   2.300   2.254   1.499
 1807SOL    HW1 1365   2.382   2.198   1.508
 1807SOL    HW2 1366   2.219   2.196   1.503
 1810SOL     OW 1367   2.989   3.203   1.690
 1810SOL    HW1 1368   3.036   3.203   1.778
 1810SOL    HW2 1369   2.941   3.116   1.679
 1812SOL     OW 1370   2.102   2.953   0.886
 1812SOL    HW1 1371   2.116   2.869   0.938
 1812SOL    HW2 1372   2.047   3.017   0.941
 1813SOL     OW 1373   2.482   3.648   1.439
 1813SOL    HW1 1374   2.390   3.631   1.474
 1813SOL    HW2 1375   2.510   3.740   1.465
 1815SOL     OW 1376   3.456   1.976   1.480
 1815SOL    HW1 1377   3.438   2.043   1.408
 1815SOL    HW2 1378   3.453   2.022   1.569
 1816SOL     OW 1379   1.984   2.505   0.563
 1816SOL    HW1 1380   1.939   2.417   0.580
 1816SOL    HW2 1381   1.983   2.559   0.647
 1821SOL     OW 1382   1.975   2.599   1.597
 1821SOL    HW1 1383   2.063   2.586   1.642
 1821SOL    HW2 1384   1.962   2.696   1.575
 1823SOL     OW 1385   3.155   3.090   1.423
 1823SOL    HW1 1386   3.192   3.017   1.365
 1823SOL    HW2 1387   3.207   3.095   1.508
 1825SOL     OW 1388   2.059   2.838   1.264
 1825SOL    HW1 1389   2.148   2.793   1.250
 1825SOL    HW2 1390   1.986   2.773   1.245
 1827SOL     OW 1391   3.049   3.654   1.616
 1827SOL    HW1 1392   3.073   3.714   1.540
 1827SOL    HW2 1393   3.056   3.559   1.586
 1828SOL     OW 1394   2.179   2.113   1.801
 1828SOL    HW1 1395   2.250   2.184   1.807
 1828SOL    HW2 1396   2.091   2.152   1.829
 1832SOL     OW 1397   3.143   2.207   0.944
 1832SOL    HW1 1398   3.057   2.157   0.931
 1832SOL    HW2 1399   3.205   2.153   1.000
 1834SOL     OW 1400   2.669   2.467   1.465
 1834SOL    HW1 1401   2.622   2.464   1.554
 1834SOL    HW2 1402   2.618   2.412   1.399
 1835SOL     OW 1403   3.256   2.331   1.674
 1835SOL    HW1 1404   3.236   2.374   1.762
 1835SOL    HW2 1405   3.334   2.269   1.683
 1836SOL     OW 1406   2.835   2.752   1.572
 1836SOL    HW1 1407   2.881   2.668   1.543
 1836SOL    HW2 1408   2.779   2.786   1.497
 1837SOL     OW 1409   2.853   2.272   1.242
 1837SOL    HW1 1410   2.776   2.306   1.296
 1837SOL    HW2 1411   2.819   2.221   1.163
 1839SOL     OW 1412   1.938   2.673   0.789
 1839SOL    HW1 1413   2.037   2.661   0.798
 1839SOL    HW2 1414   1.914   2.768   0.810
 1840SOL     OW 1415   1.992   3.683   1.571
 1840SOL    HW1 1416   1.982   3.668   1.670
 1840SOL    HW2 1417   1.906   3.719   1.535
 1842SOL     OW 1418   3.581   2.447   1.831
 1842SOL    HW1 1419   3.555   2.536   1.795
 1842SOL    HW2 1420   3.579   2.379   1.758
 1844SOL     OW 1421   2.412   2.058   0.885
 1844SOL    HW1 1422   2.407   2.053   0.985
 1844SOL    HW2 1423   2.414   2.154   0.856
 1848SOL     OW 1424   3.089   3.412   1.506
 1848SOL    HW1 1425   3.095   3.335   1.570
 1848SOL    HW2 1426   3.037   3.386   1.426
 1851SOL     OW 1427   2.323   3.128   1.727
 1851SOL    HW1 1428   2.273   3.129   1.641
 1851SOL    HW2 1429   2.260   3.110   1.803
 1853SOL     OW 1430   2.064   2.147   1.498
 1853SOL    HW1 1431   1.984   2.207   1.485
 1853SOL    HW2 1432   2.054   2.098   1.584
 1857SOL     OW 1433   2.111   3.647   1.241
 1857SOL    HW1 1434   2.168   3.582   1.291
 1857SOL    HW2 1435   2.095   3.614   1.148
 1860SOL     OW 1436   3.409   2.084   1.729
 1860SOL    HW1 1437   3.404   2.121   1.821
 1860SOL    HW2 1438   3.337   2.015   1.717
 1861SOL     OW 1439   2.643   2.126   1.749
 1861SOL    HW1 1440   2.710   2.065   1.792
 1861SOL    HW2 1441   2.570   2.145   1.814
 1862SOL     OW 1442   2.750   3.376   1.195
 1862SOL    HW1 1443   2.727   3.351   1.101
 1862SOL    HW2 1444   2.811   3.307   1.234
 1863SOL     OW 1445   3.213   2.452   1.433
 1863SOL    HW1 1446   3.241   2.409   1.518
 1863SOL    HW2 1447   3.238   2.548   1.434
 1864SOL     OW 1448   2.665   3.264   0.924
 1864SOL    HW1 1449   2.755   3.278   0.882
 1864SOL    HW2 1450   2.594   3.266   0.853
 1865SOL     OW 1451   2.784   2.365   0.899
 1865SOL    HW1 1452   2.759   2.356   0.803
 1865SOL    HW2 1453   2.832   2.283   0.930
 1870SOL     OW 1454   2.938   2.545   1.464
 1870SOL    HW1 1455   2.858   2.484   1.467
 1870SOL    HW2 1456   3.019   2.492   1.440
 1872SOL     OW 1457   2.321   3.014   0.741
 1872SOL    HW1 1458   2.250   2.987   0.806
 1872SOL    HW2 1459   2.295   2.986   0.648
 1875SOL     OW 1460   1.940   2.418   1.386
 1875SOL    HW1 1461   2.032   2.417   1.345
 1875SOL    HW2 1462   1.934   2.492   1.453
 1876SOL     OW 1463   2.423   2.084   1.147
 1876SOL    HW1 1464   2.461   2.000   1.184
 1876SOL    HW2 1465   2.335   2.103   1.191
 1877SOL     OW 1466   2.728   2.316   0.642
 1877SOL    HW1 1467   2.696   2.388   0.580
 1877SOL    HW2 1468   2.752   2.235   0.589
 1878SOL     OW 1469   2.879   1.901   0.753
 1878SOL    HW1 1470   2.807   1.906   0.684
 1878SOL    HW2 1471   2.855   1.832   0.822
 1880SOL     OW 1472   3.328   2.452   0.992
 1880SOL    HW1 1473   3.298   2.357   0.999
 1880SOL    HW2 1474   3.401   2.468   1.058
 1886SOL     OW 1475   3.616   3.085   1.588
 1886SOL    HW1 1476   3.707   3.046   1.575
 1886SOL    HW2 1477   3.624   3.181   1.612
 1887SOL     OW 1478   2.926   3.209   1.340
 1887SOL    HW1 1479   2.846   3.186   1.395
 1887SOL    HW2 1480   3.009   3.183   1.389
 1889SOL     OW 1481   2.973   3.057   1.100
 1889SOL    HW1 1482   2.933   3.101   1.181
 1889SOL    HW2 1483   2.932   3.094   1.017
 1891SOL     OW 1484   2.777   1.951   1.402
 1891SOL    HW1 1485   2.802   1.931   1.307
 1891SOL    HW2 1486   2.849   2.007   1.444
 1892SOL     OW 1487   2.842   2.978   1.719
 1892SOL    HW1 1488   2.743   2.984   1.729
 1892SOL    HW2 1489   2.865   2.898   1.663
 1894SOL     OW 1490   2.272   2.675   1.251
 1894SOL    HW1 1491   2.358   2.687   1.301
 1894SOL    HW2 1492   2.230   2.588   1.278
 1895SOL     OW 1493   3.136   2.248   1.262
 1895SOL    HW1 1494   3.157   2.322   1.326
 1895SOL    HW2 1495   3.047   2.265   1.219
 1896SOL     OW 1496   1.926   3.426   1.331
 1896SOL    HW1 1497   1.880   3.508   1.297
 1896SOL    HW2 1498   2.024   3.445   1.340
 1898SOL     OW 1499   2.428   2.399   0.865
 1898SOL    HW1 1500   2.440   2.465   0.791
 1898SOL    HW2 1501   2.474   2.433   0.948
 1900SOL     OW 1502   3.134   3.307   1.142
 1900SOL    HW1 1503   3.181   3.320   1.229
 1900SOL    HW2 1504   3.068   3.233   1.151
 1902SOL     OW 1505   2.216   3.372   1.329
 1902SOL    HW1 1506   2.195   3.328   1.242
 1902SOL    HW2 1507   2.313   3.398   1.332
 1903SOL     OW 1508   2.264   2.613   1.598
 1903SOL    HW1 1509   2.332   2.668   1.551
 1903SOL    HW2 1510   2.304   2.525   1.625
 1904SOL     OW 1511   3.449   2.641   1.670
 1904SOL    HW1 1512   3.357   2.679   1.665
 1904SOL    HW2 1513   3.509   2.688   1.605
 1905SOL     OW 1514   2.875   1.967   1.770
 1905SOL    HW1 1515   2.881   2.052   1.718
 1905SOL    HW2 1516   2.907   1.891   1.713
 1906SOL     OW 1517   2.366   1.912   1.740
 1906SOL    HW1 1518   2.324   1.855   1.670
 1906SOL    HW2 1519   2.300   1.981   1.772
 1907SOL     OW 1520   2.435   2.732   1.029
 1907SOL    HW1 1521   2.479   2.821   1.020
 1907SOL    HW2 1522   2.372   2.732   1.106
 1908SOL     OW 1523   3.222   2.724   1.045
 1908SOL    HW1 1524   3.147   2.724   0.979
 1908SOL    HW2 1525   3.259   2.632   1.054
 1910SOL     OW 1526   2.169   2.075   1.231
 1910SOL    HW1 1527   2.146   2.112   1.321
 1910SOL    HW2 1528   2.139   1.980   1.225
 1911SOL     OW 1529   1.899   3.172   1.282
 1911SOL    HW1 1530   1.952   3.123   1.350
 1911SOL    HW2 1531   1.921   3.270   1.287
 1912SOL     OW 1532   2.594   2.496   1.064
 1912SOL    HW1 1533   2.653   2.470   0.988
 1912SOL    HW2 1534   2.566   2.592   1.053
 1913SOL     OW 1535   3.590   2.797   1.854
 1913SOL    HW1 1536   3.544   2.790   1.765
 1913SOL    HW2 1537   3.528   2.841   1.920
 1914SOL     OW 1538   2.169   1.925   0.618
 1914SOL    HW1 1539   2.158   2.019   0.651
 1914SOL    HW2 1540   2.164   1.862   0.695
 1916SOL     OW 1541   2.885   2.628   0.966
 1916SOL    HW1 1542   2.900   2.649   1.062
 1916SOL    HW2 1543   2.855   2.533   0.957
 1917SOL     OW 1544   2.842   3.435   1.700
 1917SOL    HW1 1545   2.822   3.479   1.612
 1917SOL    HW2 1546   2.881   3.344   1.684
 1919SOL     OW 1547   2.212   2.760   1.804
 1919SOL    HW1 1548   2.288   2.804   1.852
 1919SOL    HW2 1549   2.247   2.713   1.722
 1923SOL     OW 1550   2.181   2.672   0.949
 1923SOL    HW1 1551   2.274   2.708   0.954
 1923SOL    HW2 1552   2.175   2.587   1.001
 1924SOL     OW 1553   2.201   2.371   1.006
 1924SOL    HW1 1554   2.149   2.288   0.989
 1924SOL    HW2 1555   2.278   2.376   0.942
 1925SOL     OW 1556   3.000   2.242   1.678
 1925SOL    HW1 1557   2.955   2.305   1.742
 1925SOL    HW2 1558   3.093   2.273   1.661
 1926SOL     OW 1559   3.022   2.069   1.477
 1926SOL    HW1 1560   3.022   2.133   1.554
 1926SOL    HW2 1561   3.050   2.117   1.394
 1929SOL     OW 1562   2.366   3.430   0.910
 1929SOL    HW1 1563   2.432   3.504   0.919
 1929SOL    HW2 1564   2.410   3.351   0.868
 1930SOL     OW 1565   2.864   2.658   1.238
 1930SOL    HW1 1566   2.905   2.626   1.324
 1930SOL    HW2 1567   2.768   2.631   1.235
 1931SOL     OW 1568   1.902   2.406   1.114
 1931SOL    HW1 1569   1.987   2.373   1.073
 1931SOL    HW2 1570   1.915   2.421   1.212
 1932SOL     OW 1571   2.051   2.382   1.722
 1932SOL    HW1 1572   2.110   2.342   1.652
 1932SOL    HW2 1573   1.993   2.453   1.681
 1933SOL     OW 1574   3.231   2.812   1.660
 1933SOL    HW1 1575   3.270   2.901   1.680
 1933SOL    HW2 1576   3.241   2.792   1.563
 1935SOL     OW 1577   3.519   2.466   1.206
 1935SOL    HW1 1578   3.481   2.397   1.268
 1935SOL    HW2 1579   3.601   2.430   1.162
 1936SOL     OW 1580   2.114   3.426   1.744
 1936SOL    HW1 1581   2.084   3.483   1.820
 1936SOL    HW2 1582   2.107   3.329   1.770
 1937SOL     OW 1583   2.533   2.326   1.269
 1937SOL    HW1 1584   2.499   2.237   1.239
 1937SOL    HW2 1585   2.559   2.380   1.189
 1938SOL     OW 1586   2.792   3.540   1.465
 1938SOL    HW1 1587   2.768   3.522   1.370
 1938SOL    HW2 1588   2.822   3.634   1.475
 1940SOL     OW 1589   2.021   2.999   1.466
 1940SOL    HW1 1590   2.043   2.938   1.542
 1940SOL    HW2 1591   2.031   2.950   1.380
 1941SOL     OW 1592   3.209   2.921   1.234
 1941SOL    HW1 1593   3.233   2.858   1.160
 1941SOL    HW2 1594   3.119   2.961   1.216
 1945SOL     OW 1595   1.945   3.120   1.022
 1945SOL    HW1 1596   1.940   3.119   1.122
 1945SOL    HW2 1597   1.862   3.079   0.984
 1946SOL     OW 1598   2.550   3.524   1.716
 1946SOL    HW1 1599   2.494   3.605   1.725
 1946SOL    HW2 1600   2.602   3.528   1.630
 1950SOL     OW 1601   1.992   3.656   1.851
 1950SOL    HW1 1602   1.951   3.582   1.904
 1950SOL    HW2 1603   2.056   3.707   1.909
 1952SOL     OW 1604   2.692   3.135   1.422
 1952SOL    HW1 1605   2.687   3.168   1.517
 1952SOL    HW2 1606   2.606   3.154   1.376
 1956SOL     OW 1607   2.125   2.188   0.720
 1956SOL    HW1 1608   2.046   2.239   0.686
 1956SOL    HW2 1609   2.116   2.173   0.818
 1958SOL     OW 1610   2.684   2.864   1.372
 1958SOL    HW1 1611   2.724   2.863   1.280
 1958SOL    HW2 1612   2.694   2.956   1.412
 1961SOL     OW 1613   2.234   3.150   1.490
 1961SOL    HW1 1614   2.221   3.243   1.456
 1961SOL    HW2 1615   2.150   3.098   1.477
 1962SOL     OW 1616   3.476   3.154   1.289
 1962SOL    HW1 1617   3.536   3.157   1.369
 1962SOL    HW2 1618   3.401   3.218   1.302
 1964SOL     OW 1619   2.876   2.098   0.971
 1964SOL    HW1 1620   2.868   2.062   0.878
 1964SOL    HW2 1621   2.874   2.022   1.036
 1966SOL     OW 1622   3.571   2.247   1.381
 1966SOL    HW1 1623   3.644   2.316   1.385
 1966SOL    HW2 1624   3.599   2.172   1.322
 1968SOL     OW 1625   1.967   2.875   1.726
 1968SOL    HW1 1626   1.890   2.842   1.780
 1968SOL    HW2 1627   2.052   2.845   1.768
 1969SOL     OW 1628   2.534   2.065   1.489
 1969SOL    HW1 1629   2.624   2.049   1.449
 1969SOL    HW2 1630   2.542   2.070   1.588
 1971SOL     OW 1631   3.302   2.718   1.398
 1971SOL    HW1 1632   3.245   2.770   1.335
 1971SOL    HW2 1633   3.398   2.730   1.374
 1974SOL     OW 1634   2.475   2.704   1.431
 1974SOL    HW1 1635   2.531   2.785   1.414
 1974SOL    HW2 1636   2.534   2.624   1.434
 1976SOL     OW 1637   2.578   2.427   1.708
 1976SOL    HW1 1638   2.597   2.492   1.782
 1976SOL    HW2 1639   2.638   2.347   1.717
 1977SOL     OW 1640   3.312   3.082   1.633
 1977SOL    HW1 1641   3.303   3.072   1.732
 1977SOL    HW2 1642   3.408   3.075   1.607
 1978SOL     OW 1643   2.252   3.603   1.560
 1978SOL    HW1 1644   2.161   3.644   1.558
 1978SOL    HW2 1645   2.245   3.509   1.592
 1979SOL     OW 1646   3.536   2.745   1.254
 1979SOL    HW1 1647   3.509   2.656   1.217
 1979SOL    HW2 1648   3.537   2.813   1.181
 1981SOL     OW 1649   2.456   2.607   0.652
 1981SOL    HW1 1650   2.506   2.692   0.633
 1981SOL    HW2 1651   2.368   2.609   0.604
 1982SOL     OW 1652   3.639   2.204   1.642
 1982SOL    HW1 1653   3.622   2.235   1.548
 1982SOL    HW2 1654   3.555   2.167   1.680
 1983SOL     OW 1655   3.592   2.796   1.517
 1983SOL    HW1 1656   3.630   2.887   1.532
 1983SOL    HW2 1657   3.584   2.779   1.418
 1986SOL     OW 1658   2.721   2.818   0.861
 1986SOL    HW1 1659   2.775   2.749   0.909
 1986SOL    HW2 1660   2.689   2.887   0.927
 1989SOL     OW 1661   2.083   3.176   1.844
 1989SOL    HW1 1662   2.018   3.103   1.823
 1989SOL    HW2 1663   2.087   3.190   1.942
 1991SOL     OW 1664   2.534   3.253   1.624
 1991SOL    HW1 1665   2.456   3.203   1.662
 1991SOL    HW2 1666   2.531   3.348   1.655
 1992SOL     OW 1667   3.686   2.054   1.227
 1992SOL    HW1 1668   3.682   1.964   1.271
 1992SOL    HW2 1669   3.689   2.043   1.128
 1993SOL     OW 1670   2.290   2.286   0.520
 1993SOL    HW1 1671   2.320   2.214   0.458
 1993SOL    HW2 1672   2.251   2.246   0.603
 1995SOL     OW 1673   2.179   2.409   1.280
 1995SOL    HW1 1674   2.217   2.350   1.352
 1995SOL    HW2 1675   2.219   2.383   1.192
 1997SOL     OW 1676   3.286   2.076   1.112
 1997SOL    HW1 1677   3.338   2.011   1.167
 1997SOL    HW2 1678   3.237   2.139   1.173
 1998SOL     OW 1679   2.863   1.896   1.154
 1998SOL    HW1 1680   2.800   1.824   1.123
 1998SOL    HW2 1681   2.956   1.860   1.154
 2000SOL     OW 1682   2.480   3.429   1.284
 2000SOL    HW1 1683   2.475   3.511   1.341
 2000SOL    HW2 1684   2.569   3.426   1.239
 2006SOL     OW 1685   2.087   2.137   2.858
 2006SOL    HW1 1686   2.122   2.120   2.950
 2006SOL    HW2 1687   1.999   2.092   2.846
 2007SOL     OW 1688   1.881   2.230   2.509
 2007SOL    HW1 1689   1.799   2.273   2.548
 2007SOL    HW2 1690   1.853   2.157   2.446
 2008SOL     OW 1691   2.431   3.137   3.027
 2008SOL    HW1 1692   2.338   3.130   2.990
 2008SOL    HW2 1693   2.442   3.226   3.071
 2009SOL     OW 1694   3.417   3.373   2.565
 2009SOL    HW1 1695   3.360   3.357   2.646
 2009SOL    HW2 1696   3.358   3.383   2.485
 2010SOL     OW 1697   2.997   2.565   2.579
 2010SOL    HW1 1698   3.054   2.643   2.554
 2010SOL    HW2 1699   2.937   2.591   2.655
 2011SOL     OW 1700   3.617   2.469   2.093
 2011SOL    HW1 1701   3.605   2.456   1.994
 2011SOL    HW2 1702   3.587   2.388   2.142
 2012SOL     OW 1703   2.630   3.006   2.885
 2012SOL    HW1 1704   2.552   3.023   2.945
 2012SOL    HW2 1705   2.664   3.093   2.849
 2013SOL     OW 1706   2.712   2.660   3.685
 2013SOL    HW1 1707   2.708   2.736   3.750
 2013SOL    HW2 1708   2.734   2.696   3.594
 2014SOL     OW 1709   2.547   2.874   2.527
 2014SOL    HW1 1710   2.616   2.858   2.597
 2014SOL    HW2 1711   2.474   2.931   2.565
 2015SOL     OW 1712   2.548   3.023   3.665
 2015SOL    HW1 1713   2.608   3.102   3.679
 2015SOL    HW2 1714   2.462   3.054   3.624
 2016SOL     OW 1715   2.197   3.297   2.923
 2016SOL    HW1 1716   2.119   3.266   2.870
 2016SOL    HW2 1717   2.255   3.355   2.866
 2017SOL     OW 1718   3.322   3.367   3.201
 2017SOL    HW1 1719   3.346   3.461   3.227
 2017SOL    HW2 1720   3.306   3.313   3.283
 2018SOL     OW 1721   2.300   2.254   3.361
 2018SOL    HW1 1722   2.382   2.198   3.370
 2018SOL    HW2 1723   2.219   2.196   3.365
 2019SOL     OW 1724   3.465   2.309   2.599
 2019SOL    HW1 1725   3.391   2.355   2.549
 2019SOL    HW2 1726   3.516   2.377   2.652
 2020SOL     OW 1727   2.093   3.575   2.345
 2020SOL    HW1 1728   2.127   3.652   2.399
 2020SOL    HW2 1729   2.137   3.575   2.255
 2021SOL     OW 1730   2.989   3.203   3.552
 2021SOL    HW1 1731   3.036   3.203   3.640
 2021SOL    HW2 1732   2.941   3.116   3.541
 2022SOL     OW 1733   2.092   3.296   2.400
 2022SOL    HW1 1734   2.066   3.392   2.400
 2022SOL    HW2 1735   2.021   3.242   2.445
 2023SOL     OW 1736   2.102   2.953   2.748
 2023SOL    HW1 1737   2.116   2.869   2.800
 2023SOL    HW2 1738   2.047   3.017   2.803
 2024SOL     OW 1739   2.482   3.648   3.301
 2024SOL    HW1 1740   2.390   3.631   3.336
 2024SOL    HW2 1741   2.510   3.740   3.327
 2025SOL     OW 1742   2.468   2.826   1.985
 2025SOL    HW1 1743   2.475   2.910   1.931
 2025SOL    HW2 1744   2.514   2.839   2.073
 2026SOL     OW 1745   3.456   1.976   3.342
 2026SOL    HW1 1746   3.438   2.043   3.270
 2026SOL    HW2 1747   3.453   2.022   3.431
 2027SOL     OW 1748   1.984   2.505   2.425
 2027SOL    HW1 1749   1.939   2.417   2.442
 2027SOL    HW2 1750   1.983   2.559   2.509
 2029SOL     OW 1751   1.889   3.458   1.979
 2029SOL    HW1 1752   1.870   3.362   2.000
 2029SOL    HW2 1753   1.856   3.516   2.054
 2030SOL     OW 1754   3.551   2.784   2.474
 2030SOL    HW1 1755   3.646   2.755   2.482
 2030SOL    HW2 1756   3.543   2.849   2.399
 2031SOL     OW 1757   3.503   2.970   2.294
 2031SOL    HW1 1758   3.589   2.972   2.242
 2031SOL    HW2 1759   3.517   3.017   2.382
 2032SOL     OW 1760   1.975   2.599   3.459
 2032SOL    HW1 1761   2.063   2.586   3.504
 2032SOL    HW2 1762   1.962   2.696   3.437
 2033SOL     OW 1763   2.475   3.227   2.588
 2033SOL    HW1 1764   2.426   3.140   2.597
 2033SOL    HW2 1765   2.452   3.270   2.501
 2034SOL     OW 1766   3.155   3.090   3.285
 2034SOL    HW1 1767   3.192   3.017   3.227
 2034SOL    HW2 1768   3.207   3.095   3.370
 2035SOL     OW 1769   2.671   1.866   2.364
 2035SOL    HW1 1770   2.711   1.957   2.355
 2035SOL    HW2 1771   2.571   1.874   2.370
 2036SOL     OW 1772   2.059   2.838   3.126
 2036SOL    HW1 1773   2.148   2.793   3.112
 2036SOL    HW2 1774   1.986   2.773   3.107
 2037SOL     OW 1775   3.387   2.861   2.052
 2037SOL    HW1 1776   3.324   2.785   2.065
 2037SOL    HW2 1777   3.435   2.879   2.138
 2039SOL     OW 1778   2.179   2.113   3.663
 2039SOL    HW1 1779   2.250   2.184   3.669
 2039SOL    HW2 1780   2.091   2.152   3.691
 2040SOL     OW 1781   3.328   3.279   2.815
 2040SOL    HW1 1782   3.269   3.285   2.895
 2040SOL    HW2 1783   3.313   3.191   2.769
 2042SOL     OW 1784   2.460   2.591   2.132
 2042SOL    HW1 1785   2.484   2.660   2.064
 2042SOL    HW2 1786   2.382   2.624   2.186
 2043SOL     OW 1787   3.143   2.207   2.806
 2043SOL    HW1 1788   3.057   2.157   2.793
 2043SOL    HW2 1789   3.205   2.153   2.862
 2044SOL     OW 1790   3.438   3.524   2.169
 2044SOL    HW1 1791   3.527   3.570   2.172
 2044SOL    HW2 1792   3.417   3.500   2.074
 2045SOL     OW 1793   2.669   2.467   3.327
 2045SOL    HW1 1794   2.622   2.464   3.416
 2045SOL    HW2 1795   2.618   2.412   3.261
 2046SOL     OW 1796   3.256   2.331   3.536
 2046SOL    HW1 1797   3.236   2.374   3.624
 2046SOL    HW2 1798   3.334   2.269   3.545
 2047SOL     OW 1799   2.835   2.752   3.434
 2047SOL    HW1 1800   2.881   2.668   3.405
 2047SOL    HW2 1801   2.779   2.786   3.359
 2048SOL     OW 1802   2.853   2.272   3.104
 2048SOL    HW1 1803   2.776   2.306   3.158
 2048SOL    HW2 1804   2.819   2.221   3.025
 2049SOL     OW 1805   2.903   2.563   2.291
 2049SOL    HW1 1806   2.929   2.559   2.387
 2049SOL    HW2 1807   2.818   2.512   2.277
 2050SOL     OW 1808   1.938   2.673   2.651
 2050SOL    HW1 1809   2.037   2.661   2.660
 2050SOL    HW2 1810   1.914   2.768   2.672
 2052SOL     OW 1811   2.727   2.210   2.057
 2052SOL    HW1 1812   2.786   2.273   2.008
 2052SOL    HW2 1813   2.746   2.116   2.028
 2054SOL     OW 1814   3.224   3.006   2.407
 2054SOL    HW1 1815   3.307   2.977   2.359
 2054SOL    HW2 1816   3.175   3.073   2.351
 2055SOL     OW 1817   2.412   2.058   2.747
 2055SOL    HW1 1818   2.407   2.053   2.847
 2055SOL    HW2 1819   2.414   2.154   2.718
 2056SOL     OW 1820   2.870   3.318   2.339
 2056SOL    HW1 1821   2.824   3.390   2.287
 2056SOL    HW2 1822   2.866   3.338   2.437
 2057SOL     OW 1823   2.213   3.663   2.715
 2057SOL    HW1 1824   2.263   3.577   2.721
 2057SOL    HW2 1825   2.278   3.740   2.712
 2058SOL     OW 1826   3.657   2.928   2.735
 2058SOL    HW1 1827   3.595   2.913   2.659
 2058SOL    HW2 1828   3.605   2.939   2.820
 2059SOL     OW 1829   3.089   3.412   3.368
 2059SOL    HW1 1830   3.095   3.335   3.432
 2059SOL    HW2 1831   3.037   3.386   3.288
 2060SOL     OW 1832   2.183   2.805   2.104
 2060SOL    HW1 1833   2.265   2.844   2.062
 2060SOL    HW2 1834   2.156   2.723   2.055
 2061SOL     OW 1835   3.320   2.597   2.590
 2061SOL    HW1 1836   3.315   2.532   2.665
 2061SOL    HW2 1837   3.400   2.656   2.603
 2062SOL     OW 1838   2.323   3.128   3.589
 2062SOL    HW1 1839   2.273   3.129   3.503
 2062SOL    HW2 1840   2.260   3.110   3.665
 2063SOL     OW 1841   2.973   3.638   2.099
 2063SOL    HW1 1842   2.913   3.576   2.149
 2063SOL    HW2 1843   3.004   3.594   2.014
 2064SOL     OW 1844   2.064   2.147   3.360
 2064SOL    HW1 1845   1.984   2.207   3.347
 2064SOL    HW2 1846   2.054   2.098   3.446
 2065SOL     OW 1847   3.494   3.239   1.943
 2065SOL    HW1 1848   3.462   3.333   1.933
 2065SOL    HW2 1849   3.418   3.176   1.931
 2066SOL     OW 1850   2.326   3.605   2.185
 2066SOL    HW1 1851   2.359   3.644   2.271
 2066SOL    HW2 1852   2.402   3.598   2.120
 2067SOL     OW 1853   3.262   1.969   2.288
 2067SOL    HW1 1854   3.238   1.932   2.198
 2067SOL    HW2 1855   3.361   1.985   2.292
 2068SOL     OW 1856   2.111   3.647   3.103
 2068SOL    HW1 1857   2.168   3.582   3.153
 2068SOL    HW2 1858   2.095   3.614   3.010
 2069SOL     OW 1859   2.802   3.560   2.766
 2069SOL    HW1 1860   2.882   3.503   2.787
 2069SOL    HW2 1861   2.753   3.520   2.689
 2070SOL     OW 1862   3.409   2.084   3.591
 2070SOL    HW1 1863   3.404   2.121   3.683
 2070SOL    HW2 1864   3.337   2.015   3.579
 2071SOL     OW 1865   2.476   1.984   1.979
 2071SOL    HW1 1866   2.574   1.962   1.986
 2071SOL    HW2 1867   2.445   1.967   1.886
 2072SOL     OW 1868   2.643   2.126   3.611
 2072SOL    HW1 1869   2.710   2.065   3.654
 2072SOL    HW2 1870   2.570   2.145   3.676
 2073SOL     OW 1871   2.750   3.376   3.057
 2073SOL    HW1 1872   2.727   3.351   2.963
 2073SOL    HW2 1873   2.811   3.307   3.096
 2074SOL     OW 1874   3.213   2.452   3.295
 2074SOL    HW1 1875   3.241   2.409   3.380
 2074SOL    HW2 1876   3.238   2.548   3.296
 2075SOL     OW 1877   2.665   3.264   2.786
 2075SOL    HW1 1878   2.755   3.278   2.744
 2075SOL    HW2 1879   2.594   3.266   2.715
 2076SOL     OW 1880   2.784   2.365   2.761
 2076SOL    HW1 1881   2.759   2.356   2.665
 2076SOL    HW2 1882   2.832   2.283   2.792
 2077SOL     OW 1883   2.401   1.926   2.374
 2077SOL    HW1 1884   2.320   1.927   2.432
 2077SOL    HW2 1885   2.404   2.009   2.319
 2078SOL     OW 1886   3.296   3.050   1.903
 2078SOL    HW1 1887   3.328   2.974   1.960
 2078SOL    HW2 1888   3.204   3.077   1.933
 2079SOL     OW 1889   2.159   1.897   2.033
 2079SOL    HW1 1890   2.208   1.981   2.012
 2079SOL    HW2 1891   2.221   1.832   2.078
 2080SOL     OW 1892   2.797   2.098   2.342
 2080SOL    HW1 1893   2.749   2.139   2.264
 2080SOL    HW2 1894   2.896   2.096   2.323
 2081SOL     OW 1895   2.938   2.545   3.326
 2081SOL    HW1 1896   2.858   2.484   3.329
 2081SOL    HW2 1897   3.019   2.492   3.302
 2082SOL     OW 1898   3.089   3.432   2.655
 2082SOL    HW1 1899   3.110   3.506   2.590
 2082SOL    HW2 1900   3.157   3.432   2.728
 2083SOL     OW 1901   2.321   3.014   2.603
 2083SOL    HW1 1902   2.250   2.987   2.668
 2083SOL    HW2 1903   2.295   2.986   2.510
 2084SOL     OW 1904   3.133   3.659   2.453
 2084SOL    HW1 1905   3.177   3.723   2.389
 2084SOL    HW2 1906   3.083   3.711   2.523
 2085SOL     OW 1907   2.894   2.411   1.878
 2085SOL    HW1 1908   2.853   2.493   1.839
 2085SOL    HW2 1909   2.958   2.437   1.951
 2086SOL     OW 1910   1.940   2.418   3.248
 2086SOL    HW1 1911   2.032   2.417   3.207
 2086SOL    HW2 1912   1.934   2.492   3.315
 2087SOL     OW 1913   2.423   2.084   3.009
 2087SOL    HW1 1914   2.461   2.000   3.046
 2087SOL    HW2 1915   2.335   2.103   3.053
 2088SOL     OW 1916   2.728   2.316   2.504
 2088SOL    HW1 1917   2.696   2.388   2.442
 2088SOL    HW2 1918   2.752   2.235   2.451
 2089SOL     OW 1919   2.879   1.901   2.615
 2089SOL    HW1 1920   2.807   1.906   2.546
 2089SOL    HW2 1921   2.855   1.832   2.684
 2090SOL     OW 1922   3.291   3.035   2.729
 2090SOL    HW1 1923   3.236   2.951   2.722
 2090SOL    HW2 1924   3.317   3.064   2.637
 2091SOL     OW 1925   3.328   2.452   2.854
 2091SOL    HW1 1926   3.298   2.357   2.861
 2091SOL    HW2 1927   3.401   2.468   2.920
 2092SOL     OW 1928   3.719   2.695   2.239
 2092SOL    HW1 1929   3.761   2.631   2.303
 2092SOL    HW2 1930   3.681   2.644   2.161
 2093SOL     OW 1931   2.350   3.247   2.036
 2093SOL    HW1 1932   2.263   3.232   2.083
 2093SOL    HW2 1933   2.333   3.273   1.941
 2094SOL     OW 1934   3.526   3.142   2.519
 2094SOL    HW1 1935   3.625   3.150   2.533
 2094SOL    HW2 1936   3.481   3.226   2.550
 2095SOL     OW 1937   3.252   2.437   1.940
 2095SOL    HW1 1938   3.198   2.416   2.021
 2095SOL    HW2 1939   3.343   2.396   1.949
 2096SOL     OW 1940   2.389   2.118   2.190
 2096SOL    HW1 1941   2.416   2.059   2.115
 2096SOL    HW2 1942   2.389   2.213   2.159
 2098SOL     OW 1943   2.926   3.209   3.202
 2098SOL    HW1 1944   2.846   3.186   3.257
 2098SOL    HW2 1945   3.009   3.183   3.251
 2100SOL     OW 1946   2.973   3.057   2.962
 2100SOL    HW1 1947   2.933   3.101   3.043
 2100SOL    HW2 1948   2.932   3.094   2.879
 2101SOL     OW 1949   3.500   2.961   2.941
 2101SOL    HW1 1950   3.505   3.042   3.000
 2101SOL    HW2 1951   3.414   2.963   2.890
 2102SOL     OW 1952   2.777   1.951   3.264
 2102SOL    HW1 1953   2.802   1.931   3.169
 2102SOL    HW2 1954   2.849   2.007   3.306
 2103SOL     OW 1955   2.842   2.978   3.581
 2103SOL    HW1 1956   2.743   2.984   3.591
 2103SOL    HW2 1957   2.865   2.898   3.525
 2104SOL     OW 1958   2.567   2.912   2.230
 2104SOL    HW1 1959   2.553   2.919   2.329
 2104SOL    HW2 1960   2.651   2.861   2.212
 2105SOL     OW 1961   2.272   2.675   3.113
 2105SOL    HW1 1962   2.358   2.687   3.163
 2105SOL    HW2 1963   2.230   2.588   3.140
 2106SOL     OW 1964   3.136   2.248   3.124
 2106SOL    HW1 1965   3.157   2.322   3.188
 2106SOL    HW2 1966   3.047   2.265   3.081
 2107SOL     OW 1967   1.926   3.426   3.193
 2107SOL    HW1 1968   1.880   3.508   3.159
 2107SOL    HW2 1969   2.024   3.445   3.202
 2108SOL     OW 1970   2.229   2.962   2.363
 2108SOL    HW1 1971   2.222   3.045   2.307
 2108SOL    HW2 1972   2.233   2.882   2.303
 2109SOL     OW 1973   2.428   2.399   2.727
 2109SOL    HW1 1974   2.440   2.465   2.653
 2109SOL    HW2 1975   2.474   2.433   2.810
 2110SOL     OW 1976   3.114   3.210   2.250
 2110SOL    HW1 1977   3.164   3.287   2.290
 2110SOL    HW2 1978   3.019   3.212   2.282
 2111SOL     OW 1979   3.134   3.307   3.004
 2111SOL    HW1 1980   3.181   3.320   3.091
 2111SOL    HW2 1981   3.068   3.233   3.013
 2112SOL     OW 1982   3.444   2.501   2.334
 2112SOL    HW1 1983   3.413   2.562   2.407
 2112SOL    HW2 1984   3.494   2.553   2.265
 2113SOL     OW 1985   2.216   3.372   3.191
 2113SOL    HW1 1986   2.195   3.328   3.104
 2113SOL    HW2 1987   2.313   3.398   3.194
 2114SOL     OW 1988   2.264   2.613   3.460
 2114SOL    HW1 1989   2.332   2.668   3.413
 2114SOL    HW2 1990   2.304   2.525   3.487
 2115SOL     OW 1991   3.449   2.641   3.532
 2115SOL    HW1 1992   3.357   2.679   3.527
 2115SOL    HW2 1993   3.509   2.688   3.467
 2116SOL     OW 1994   2.875   1.967   3.632
 2116SOL    HW1 1995   2.881   2.052   3.580
 2116SOL    HW2 1996   2.907   1.891   3.575
 2117SOL     OW 1997   2.366   1.912   3.602
 2117SOL    HW1 1998   2.324   1.855   3.532
 2117SOL    HW2 1999   2.300   1.981   3.634
 2118SOL     OW 2000   2.435   2.732   2.891
 2118SOL    HW1 2001   2.479   2.821   2.882
 2118SOL    HW2 2002   2.372   2.732   2.968
 2119SOL     OW 2003   3.222   2.724   2.907
 2119SOL    HW1 2004   3.147   2.724   2.841
 2119SOL    HW2 2005   3.259   2.632   2.916
 2120SOL     OW 2006   3.071   2.387   2.137
 2120SOL    HW1 2007   3.084   2.303   2.191
 2120SOL    HW2 2008   3.042   2.461   2.197
 2121SOL     OW 2009   2.169   2.075   3.093
 2121SOL    HW1 2010   2.146   2.112   3.183
 2121SOL    HW2 2011   2.139   1.980   3.087
 2122SOL     OW 2012   1.899   3.172   3.144
 2122SOL    HW1 2013   1.952   3.123   3.212
 2122SOL    HW2 2014   1.921   3.270   3.149
 2123SOL     OW 2015   2.594   2.496   2.926
 2123SOL    HW1 2016   2.653   2.470   2.850
 2123SOL    HW2 2017   2.566   2.592   2.915
 2125SOL     OW 2018   2.169   1.925   2.480
 2125SOL    HW1 2019   2.158   2.019   2.513
 2125SOL    HW2 2020   2.164   1.862   2.557
 2126SOL     OW 2021   3.484   2.229   2.236
 2126SOL    HW1 2022   3.486   2.153   2.300
 2126SOL    HW2 2023   3.436   2.306   2.276
 2127SOL     OW 2024   2.885   2.628   2.828
 2127SOL    HW1 2025   2.900   2.649   2.924
 2127SOL    HW2 2026   2.855   2.533   2.819
 2130SOL     OW 2027   2.212   2.760   3.666
 2130SOL    HW1 2028   2.288   2.804   3.714
 2130SOL    HW2 2029   2.247   2.713   3.584
 2131SOL     OW 2030   3.402   2.136   1.987
 2131SOL    HW1 2031   3.341   2.061   2.010
 2131SOL    HW2 2032   3.424   2.188   2.070
 2132SOL     OW 2033   3.165   2.700   1.904
 2132SOL    HW1 2034   3.199   2.607   1.919
 2132SOL    HW2 2035   3.183   2.727   1.809
 2133SOL     OW 2036   2.930   3.195   2.711
 2133SOL    HW1 2037   2.937   3.111   2.656
 2133SOL    HW2 2038   2.992   3.264   2.675
 2134SOL     OW 2039   2.181   2.672   2.811
 2134SOL    HW1 2040   2.274   2.708   2.816
 2134SOL    HW2 2041   2.175   2.587   2.863
 2135SOL     OW 2042   2.201   2.371   2.868
 2135SOL    HW1 2043   2.149   2.288   2.851
 2135SOL    HW2 2044   2.278   2.376   2.804
 2136SOL     OW 2045   3.000   2.242   3.540
 2136SOL    HW1 2046   2.955   2.305   3.604
 2136SOL    HW2 2047   3.093   2.273   3.523
 2137SOL     OW 2048   3.022   2.069   3.339
 2137SOL    HW1 2049   3.022   2.133   3.416
 2137SOL    HW2 2050   3.050   2.117   3.256
 2138SOL     OW 2051   1.870   3.188   2.062
 2138SOL    HW1 2052   1.777   3.209   2.031
 2138SOL    HW2 2053   1.880   3.089   2.075
 2139SOL     OW 2054   1.950   3.663   2.789
 2139SOL    HW1 2055   1.908   3.577   2.762
 2139SOL    HW2 2056   2.044   3.666   2.755
 2140SOL     OW 2057   2.366   3.430   2.772
 2140SOL    HW1 2058   2.432   3.504   2.781
 2140SOL    HW2 2059   2.410   3.351   2.730
 2141SOL     OW 2060   2.864   2.658   3.100
 2141SOL    HW1 2061   2.905   2.626   3.186
 2141SOL    HW2 2062   2.768   2.631   3.097
 2142SOL     OW 2063   1.902   2.406   2.976
 2142SOL    HW1 2064   1.987   2.373   2.935
 2142SOL    HW2 2065   1.915   2.421   3.074
 2143SOL     OW 2066   2.051   2.382   3.584
 2143SOL    HW1 2067   2.110   2.342   3.514
 2143SOL    HW2 2068   1.993   2.453   3.543
 2144SOL     OW 2069   3.231   2.812   3.522
 2144SOL    HW1 2070   3.270   2.901   3.542
 2144SOL    HW2 2071   3.241   2.792   3.425
 2145SOL     OW 2072   2.677   2.434   2.187
 2145SOL    HW1 2073   2.684   2.345   2.141
 2145SOL    HW2 2074   2.583   2.468   2.179
 2146SOL     OW 2075   3.519   2.466   3.068
 2146SOL    HW1 2076   3.481   2.397   3.130
 2146SOL    HW2 2077   3.601   2.430   3.024
 2147SOL     OW 2078   2.114   3.426   3.606
 2147SOL    HW1 2079   2.084   3.483   3.682
 2147SOL    HW2 2080   2.107   3.329   3.632
 2148SOL     OW 2081   2.533   2.326   3.131
 2148SOL    HW1 2082   2.499   2.237   3.101
 2148SOL    HW2 2083   2.559   2.380   3.051
 2149SOL     OW 2084   2.792   3.540   3.327
 2149SOL    HW1 2085   2.768   3.522   3.232
 2149SOL    HW2 2086   2.822   3.634   3.337
 2150SOL     OW 2087   2.021   2.999   3.328
 2150SOL    HW1 2088   2.043   2.938   3.404
 2150SOL    HW2 2089   2.031   2.950   3.242
 2151SOL     OW 2090   3.209   2.921   3.096
 2151SOL    HW1 2091   3.233   2.858   3.022
 2151SOL    HW2 2092   3.119   2.961   3.078
 2152SOL     OW 2093   3.164   2.717   2.171
 2152SOL    HW1 2094   3.078   2.686   2.213
 2152SOL    HW2 2095   3.160   2.703   2.072
 2154SOL     OW 2096   3.114   3.593   2.990
 2154SOL    HW1 2097   3.198   3.598   2.936
 2154SOL    HW2 2098   3.091   3.497   3.008
 2155SOL     OW 2099   1.945   3.120   2.884
 2155SOL    HW1 2100   1.940   3.119   2.984
 2155SOL    HW2 2101   1.862   3.079   2.846
 2157SOL     OW 2102   3.588   1.997   2.385
 2157SOL    HW1 2103   3.661   1.980   2.318
 2157SOL    HW2 2104   3.557   1.910   2.423
 2158SOL     OW 2105   3.250   3.435   2.339
 2158SOL    HW1 2106   3.317   3.447   2.265
 2158SOL    HW2 2107   3.210   3.524   2.362
 2160SOL     OW 2108   3.142   2.789   2.534
 2160SOL    HW1 2109   3.202   2.708   2.536
 2160SOL    HW2 2110   3.182   2.858   2.474
 2161SOL     OW 2111   2.692   3.135   3.284
 2161SOL    HW1 2112   2.687   3.168   3.379
 2161SOL    HW2 2113   2.606   3.154   3.238
 2162SOL     OW 2114   2.534   3.478   2.016
 2162SOL    HW1 2115   2.543   3.488   1.917
 2162SOL    HW2 2116   2.494   3.389   2.037
 2164SOL     OW 2117   3.703   2.037   2.825
 2164SOL    HW1 2118   3.742   1.952   2.789
 2164SOL    HW2 2119   3.605   2.039   2.806
 2165SOL     OW 2120   2.125   2.188   2.582
 2165SOL    HW1 2121   2.046   2.239   2.548
 2165SOL    HW2 2122   2.116   2.173   2.680
 2166SOL     OW 2123   3.056   3.474   1.893
 2166SOL    HW1 2124   3.062   3.381   1.930
 2166SOL    HW2 2125   2.997   3.474   1.813
 2167SOL     OW 2126   2.684   2.864   3.234
 2167SOL    HW1 2127   2.724   2.863   3.142
 2167SOL    HW2 2128   2.694   2.956   3.274
 2168SOL     OW 2129   2.778   2.772   2.153
 2168SOL    HW1 2130   2.841   2.810   2.085
 2168SOL    HW2 2131   2.818   2.689   2.192
 2169SOL     OW 2132   3.366   3.469   1.906
 2169SOL    HW1 2133   3.274   3.506   1.913
 2169SOL    HW2 2134   3.404   3.489   1.816
 2170SOL     OW 2135   2.234   3.150   3.352
 2170SOL    HW1 2136   2.221   3.243   3.318
 2170SOL    HW2 2137   2.150   3.098   3.339
 2171SOL     OW 2138   3.476   3.154   3.151
 2171SOL    HW1 2139   3.536   3.157   3.231
 2171SOL    HW2 2140   3.401   3.218   3.164
 2172SOL     OW 2141   2.901   2.960   2.558
 2172SOL    HW1 2142   2.831   2.913   2.612
 2172SOL    HW2 2143   2.960   2.892   2.515
 2173SOL     OW 2144   2.876   2.098   2.833
 2173SOL    HW1 2145   2.868   2.062   2.740
 2173SOL    HW2 2146   2.874   2.022   2.898
 2174SOL     OW 2147   2.452   3.349   2.353
 2174SOL    HW1 2148   2.494   3.291   2.283
 2174SOL    HW2 2149   2.408   3.428   2.309
 2175SOL     OW 2150   3.571   2.247   3.243
 2175SOL    HW1 2151   3.644   2.316   3.247
 2175SOL    HW2 2152   3.599   2.172   3.184
 2176SOL     OW 2153   2.117   3.210   2.152
 2176SOL    HW1 2154   2.021   3.211   2.125
 2176SOL    HW2 2155   2.129   3.263   2.236
 2177SOL     OW 2156   1.967   2.875   3.588
 2177SOL    HW1 2157   1.890   2.842   3.642
 2177SOL    HW2 2158   2.052   2.845   3.630
 2178SOL     OW 2159   2.534   2.065   3.351
 2178SOL    HW1 2160   2.624   2.049   3.311
 2178SOL    HW2 2161   2.542   2.070   3.450
 2179SOL     OW 2162   1.937   2.207   1.895
 2179SOL    HW1 2163   1.845   2.179   1.866
 2179SOL    HW2 2164   1.968   2.284   1.839
 2180SOL     OW 2165   3.302   2.718   3.260
 2180SOL    HW1 2166   3.245   2.770   3.197
 2180SOL    HW2 2167   3.398   2.730   3.236
 2181SOL     OW 2168   1.934   2.028   2.180
 2181SOL    HW1 2169   1.917   2.111   2.126
 2181SOL    HW2 2170   2.024   1.991   2.158
 2182SOL     OW 2171   3.045   3.197   1.981
 2182SOL    HW1 2172   2.946   3.186   1.983
 2182SOL    HW2 2173   3.079   3.212   2.074
 2183SOL     OW 2174   2.475   2.704   3.293
 2183SOL    HW1 2175   2.531   2.785   3.276
 2183SOL    HW2 2176   2.534   2.624   3.296
 2185SOL     OW 2177   2.578   2.427   3.570
 2185SOL    HW1 2178   2.597   2.492   3.644
 2185SOL    HW2 2179   2.638   2.347   3.579
 2186SOL     OW 2180   3.312   3.082   3.495
 2186SOL    HW1 2181   3.303   3.072   3.594
 2186SOL    HW2 2182   3.408   3.075   3.469
 2187SOL     OW 2183   2.252   3.603   3.422
 2187SOL    HW1 2184   2.161   3.644   3.420
 2187SOL    HW2 2185   2.245   3.509   3.454
 2188SOL     OW 2186   3.536   2.745   3.116
 2188SOL    HW1 2187   3.509   2.656   3.079
 2188SOL    HW2 2188   3.537   2.813   3.043
 2189SOL     OW 2189   3.087   2.187   2.311
 2189SOL    HW1 2190   3.152   2.113   2.300
 2189SOL    HW2 2191   3.107   2.237   2.395
 2190SOL     OW 2192   2.456   2.607   2.514
 2190SOL    HW1 2193   2.506   2.692   2.495
 2190SOL    HW2 2194   2.368   2.609   2.466
 2192SOL     OW 2195   3.592   2.796   3.379
 2192SOL    HW1 2196   3.630   2.887   3.394
 2192SOL    HW2 2197   3.584   2.779   3.280
 2193SOL     OW 2198   2.721   3.236   1.878
 2193SOL    HW1 2199   2.675   3.251   1.966
 2193SOL    HW2 2200   2.765   3.321   1.848
 2194SOL     OW 2201   2.523   3.652   2.815
 2194SOL    HW1 2202   2.477   3.740   2.802
 2194SOL    HW2 2203   2.622   3.664   2.808
 2195SOL     OW 2204   2.721   2.818   2.723
 2195SOL    HW1 2205   2.775   2.749   2.771
 2195SOL    HW2 2206   2.689   2.887   2.789
 2196SOL     OW 2207   2.945   2.846   1.949
 2196SOL    HW1 2208   2.922   2.899   1.867
 2196SOL    HW2 2209   3.026   2.790   1.930
 2198SOL     OW 2210   2.083   3.176   3.706
 2198SOL    HW1 2211   2.018   3.103   3.685
 2198SOL    HW2 2212   2.087   3.190   3.804
 2199SOL     OW 2213   1.941   3.102   2.515
 2199SOL    HW1 2214   1.940   3.055   2.603
 2199SOL    HW2 2215   2.023   3.074   2.464
 2200SOL     OW 2216   2.534   3.253   3.486
 2200SOL    HW1 2217   2.456   3.203   3.524
 2200SOL    HW2 2218   2.531   3.348   3.517
 2201SOL     OW 2219   3.686   2.054   3.089
 2201SOL    HW1 2220   3.682   1.964   3.133
 2201SOL    HW2 2221   3.689   2.043   2.990
 2203SOL     OW 2222   2.179   2.409   3.142
 2203SOL    HW1 2223   2.217   2.350   3.214
 2203SOL    HW2 2224   2.219   2.383   3.054
 2204SOL     OW 2225   2.674   3.448   2.549
 2204SOL    HW1 2226   2.706   3.458   2.455
 2204SOL    HW2 2227   2.595   3.386   2.551
 2205SOL     OW 2228   3.286   2.076   2.974
 2205SOL    HW1 2229   3.338   2.011   3.029
 2205SOL    HW2 2230   3.237   2.139   3.035
 2206SOL     OW 2231   2.863   1.896   3.016
 2206SOL    HW1 2232   2.800   1.824   2.985
 2206SOL    HW2 2233   2.956   1.860   3.016
 2207SOL     OW 2234   2.632   3.192   2.163
 2207SOL    HW1 2235   2.586   3.105   2.180
 2207SOL    HW2 2236   2.723   3.189   2.204
 2208SOL     OW 2237   2.480   3.429   3.146
 2208SOL    HW1 2238   2.475   3.511   3.203
 2208SOL    HW2 2239   2.569   3.426   3.101
 2209SOL     OW 2240   3.214   1.914   2.030
 2209SOL    HW1 2241   3.249   1.873   1.946
 2209SOL    HW2 2242   3.124   1.876   2.050
 2210SOL     OW 2243   3.162   2.315   2.553
 2210SOL    HW1 2244   3.103   2.395   2.557
 2210SOL    HW2 2245   3.177   2.280   2.646
 2211SOL     OW 2246   3.455   2.083   2.744
 2211SOL    HW1 2247   3.371   2.082   2.798
 2211SOL    HW2 2248   3.457   2.166   2.688
 2212SOL     OW 2249   1.901   2.939   2.162
 2212SOL    HW1 2250   2.000   2.928   2.153
 2212SOL    HW2 2251   1.861   2.853   2.194
 2213SOL     OW 2252   2.737   3.508   2.199
 2213SOL    HW1 2253   2.660   3.473   2.145
 2213SOL    HW2 2254   2.705   3.579   2.261
 2214SOL     OW 2255   2.092   2.490   3.837
 2214SOL    HW1 2256   1.999   2.488   3.874
 2214SOL    HW2 2257   2.093   2.451   3.745
 2223SOL     OW 2258   2.468   2.826   3.847
 2223SOL    HW1 2259   2.475   2.910   3.793
 2223SOL    HW2 2260   2.514   2.839   3.935
 2233SOL     OW 2261   2.460   2.591   3.994
 2233SOL    HW1 2262   2.484   2.660   3.926
 2233SOL    HW2 2263   2.382   2.624   4.048
 2238SOL     OW 2264   2.727   2.210   3.919
 2238SOL    HW1 2265   2.786   2.273   3.870
 2238SOL    HW2 2266   2.746   2.116   3.890
 2243SOL     OW 2267   2.183   2.805   3.966
 2243SOL    HW1 2268   2.265   2.844   3.924
 2243SOL    HW2 2269   2.156   2.723   3.917
 2251SOL     OW 2270   2.476   1.984   3.841
 2251SOL    HW1 2271   2.574   1.962   3.848
 2251SOL    HW2 2272   2.445   1.967   3.748
 2254SOL     OW 2273   2.159   1.897   3.895
 2254SOL    HW1 2274   2.208   1.981   3.874
 2254SOL    HW2 2275   2.221   1.832   3.940
 2258SOL     OW 2276   2.894   2.411   3.740
 2258SOL    HW1 2277   2.853   2.493   3.701
 2258SOL    HW2 2278   2.958   2.437   3.813
 2264SOL     OW 2279   2.389   2.118   4.052
 2264SOL    HW1 2280   2.416   2.059   3.977
 2264SOL    HW2 2281   2.389   2.213   4.021
 2274SOL     OW 2282   3.165   2.700   3.766
 2274SOL    HW1 2283   3.199   2.607   3.781
 2274SOL    HW2 2284   3.183   2.727   3.671
 2277SOL     OW 2285   2.335   2.362   3.915
 2277SOL    HW1 2286   2.396   2.442   3.919
 2277SOL    HW2 2287   2.240   2.393   3.922
 2289SOL     OW 2288   1.937   2.207   3.757
 2289SOL    HW1 2289   1.845   2.179   3.728
 2289SOL    HW2 2290   1.968   2.284   3.701
 2297SOL     OW 2291   2.945   2.846   3.811
 2297SOL    HW1 2292   2.922   2.899   3.729
 2297SOL    HW2 2293   3.026   2.790   3.792
 2319SOL     OW 2294   2.179   3.975   1.801
 2319SOL    HW1 2295   2.250   4.046   1.807
 2319SOL    HW2 2296   2.091   4.014   1.829
 2356SOL     OW 2297   2.875   3.829   1.770
 2356SOL    HW1 2298   2.881   3.914   1.718
 2356SOL    HW2 2299   2.907   3.753   1.713
 2357SOL     OW 2300   2.366   3.774   1.740
 2357SOL    HW1 2301   2.324   3.717   1.670
 2357SOL    HW2 2302   2.300   3.843   1.772
 2412SOL     OW 2303   2.671   3.728   2.364
 2412SOL    HW1 2304   2.711   3.819   2.355
 2412SOL    HW2 2305   2.571   3.736   2.370
 2422SOL     OW 2306   2.412   3.920   2.747
 2422SOL    HW1 2307   2.407   3.915   2.847
 2422SOL    HW2 2308   2.414   4.016   2.718
 2428SOL     OW 2309   2.476   3.846   1.979
 2428SOL    HW1 2310   2.574   3.824   1.986
 2428SOL    HW2 2311   2.445   3.829   1.886
 2432SOL     OW 2312   2.401   3.788   2.374
 2432SOL    HW1 2313   2.320   3.789   2.432
 2432SOL    HW2 2314   2.404   3.871   2.319
 2433SOL     OW 2315   2.159   3.759   2.033
 2433SOL    HW1 2316   2.208   3.843   2.012
 2433SOL    HW2 2317   2.221   3.694   2.078
 2434SOL     OW 2318   2.797   3.960   2.342
 2434SOL    HW1 2319   2.749   4.001   2.264
 2434SOL    HW2 2320   2.896   3.958   2.323
 2440SOL     OW 2321   2.879   3.763   2.615
 2440SOL    HW1 2322   2.807   3.768   2.546
 2440SOL    HW2 2323   2.855   3.694   2.684
 2443SOL     OW 2324   2.389   3.980   2.190
 2443SOL    HW1 2325   2.416   3.921   2.115
 2443SOL    HW2 2326   2.389   4.075   2.159
 2458SOL     OW 2327   2.169   3.787   2.480
 2458SOL    HW1 2328   2.158   3.881   2.513
 2458SOL    HW2 2329   2.164   3.724   2.557
 2481SOL     OW 2330   1.934   3.890   2.180
 2481SOL    HW1 2331   1.917   3.973   2.126
 2481SOL    HW2 2332   2.024   3.853   2.158
 2492SOL     OW 2333   2.863   3.758   3.016
 2492SOL    HW1 2334   2.800   3.686   2.985
 2492SOL    HW2 2335   2.956   3.722   3.016
 2493SOL     OW 2336   3.214   3.776   2.030
 2493SOL    HW1 2337   3.249   3.735   1.946
 2493SOL    HW2 2338   3.124   3.738   2.050
 2563SOL     OW 2339   3.854   1.821   1.571
 2563SOL    HW1 2340   3.844   1.806   1.670
 2563SOL    HW2 2341   3.768   1.857   1.535
 2610SOL     OW 2342   3.854   1.794   1.851
 2610SOL    HW1 2343   3.813   1.720   1.904
 2610SOL    HW2 2344   3.918   1.845   1.909
 2643SOL     OW 2345   3.955   1.713   2.345
 2643SOL    HW1 2346   3.989   1.790   2.399
 2643SOL    HW2 2347   3.999   1.713   2.255
 2649SOL     OW 2348   3.751   1.596   1.979
 2649SOL    HW1 2349   3.732   1.500   2.000
 2649SOL    HW2 2350   3.718   1.654   2.054
 2693SOL     OW 2351   3.732   1.326   2.062
 2693SOL    HW1 2352   3.639   1.347   2.031
 2693SOL    HW2 2353   3.742   1.227   2.075
 2694SOL     OW 2354   3.812   1.801   2.789
 2694SOL    HW1 2355   3.770   1.715   2.762
 2694SOL    HW2 2356   3.906   1.804   2.755
 2787SOL     OW 2357   3.837   2.599   1.597
 2787SOL    HW1 2358   3.925   2.586   1.642
 2787SOL    HW2 2359   3.824   2.696   1.575
 2808SOL     OW 2360   3.802   2.418   1.386
 2808SOL    HW1 2361   3.894   2.417   1.345
 2808SOL    HW2 2362   3.796   2.492   1.453
 2833SOL     OW 2363   3.913   2.382   1.722
 2833SOL    HW1 2364   3.972   2.342   1.652
 2833SOL    HW2 2365   3.855   2.453   1.681
 2846SOL     OW 2366   3.829   2.875   1.726
 2846SOL    HW1 2367   3.752   2.842   1.780
 2846SOL    HW2 2368   3.914   2.845   1.768
 2863SOL     OW 2369   3.954   2.490   1.975
 2863SOL    HW1 2370   3.861   2.488   2.012
 2863SOL    HW2 2371   3.955   2.451   1.883
 2864SOL     OW 2372   3.949   2.137   2.858
 2864SOL    HW1 2373   3.984   2.120   2.950
 2864SOL    HW2 2374   3.861   2.092   2.846
 2865SOL     OW 2375   3.743   2.230   2.509
 2865SOL    HW1 2376   3.661   2.273   2.548
 2865SOL    HW2 2377   3.715   2.157   2.446
 2877SOL     OW 2378   3.846   2.505   2.425
 2877SOL    HW1 2379   3.801   2.417   2.442
 2877SOL    HW2 2380   3.845   2.559   2.509
 2885SOL     OW 2381   3.800   2.673   2.651
 2885SOL    HW1 2382   3.899   2.661   2.660
 2885SOL    HW2 2383   3.776   2.768   2.672
 2917SOL     OW 2384   4.031   1.925   2.480
 2917SOL    HW1 2385   4.020   2.019   2.513
 2917SOL    HW2 2386   4.026   1.862   2.557
 2922SOL     OW 2387   3.732   3.188   2.062
 2922SOL    HW1 2388   3.639   3.209   2.031
 2922SOL    HW2 2389   3.742   3.089   2.075
 2925SOL     OW 2390   3.764   2.406   2.976
 2925SOL    HW1 2391   3.849   2.373   2.935
 2925SOL    HW2 2392   3.777   2.421   3.074
 2936SOL     OW 2393   3.987   2.188   2.582
 2936SOL    HW1 2394   3.908   2.239   2.548
 2936SOL    HW2 2395   3.978   2.173   2.680
 2942SOL     OW 2396   3.799   2.207   1.895
 2942SOL    HW1 2397   3.707   2.179   1.866
 2942SOL    HW2 2398   3.830   2.284   1.839
 2943SOL     OW 2399   3.796   2.028   2.180
 2943SOL    HW1 2400   3.779   2.111   2.126
 2943SOL    HW2 2401   3.886   1.991   2.158
 2950SOL     OW 2402   3.803   3.102   2.515
 2950SOL    HW1 2403   3.802   3.055   2.603
 2950SOL    HW2 2404   3.885   3.074   2.464
 2956SOL     OW 2405   3.763   2.939   2.162
 2956SOL    HW1 2406   3.862   2.928   2.153
 2956SOL    HW2 2407   3.723   2.853   2.194
   4.55849   4.55849   4.55849
