; mobley_2294995_GMX.itp created by acpype (v: 2023.10.27) on Thu May 21 00:24:28 2026

[ atomtypes ]
;name   bond_type     mass     charge   ptype   sigma         epsilon       Amb
 c        c           0.00000  0.00000   A     3.31521e-01   4.13379e-01 ; 1.86  0.0988
 c3       c3          0.00000  0.00000   A     3.39771e-01   4.51035e-01 ; 1.91  0.1078
 o        o           0.00000  0.00000   A     3.04812e-01   6.12119e-01 ; 1.71  0.1463
 os       os          0.00000  0.00000   A     3.15610e-01   3.03758e-01 ; 1.77  0.0726
 h5       h5          0.00000  0.00000   A     2.44730e-01   6.73624e-02 ; 1.37  0.0161
 hc       hc          0.00000  0.00000   A     2.60018e-01   8.70272e-02 ; 1.46  0.0208
 h1       h1          0.00000  0.00000   A     2.42200e-01   8.70272e-02 ; 1.36  0.0208

[ moleculetype ]
;name            nrexcl
 mobley_2294995   3

[ atoms ]
;   nr  type  resi  res  atom  cgnr     charge      mass       ; qtot   bond_type
     1    c     1   MOL    C1    1     0.627899     12.01000 ; qtot 0.628
     2   c3     1   MOL    C2    2    -0.100100     12.01000 ; qtot 0.528
     3   c3     1   MOL    C3    3     0.135400     12.01000 ; qtot 0.663
     4    o     1   MOL    O1    4    -0.541000     16.00000 ; qtot 0.122
     5   os     1   MOL    O2    5    -0.449900     16.00000 ; qtot -0.328
     6   h5     1   MOL    H1    6     0.079200      1.00800 ; qtot -0.249
     7   hc     1   MOL    H2    7     0.048367      1.00800 ; qtot -0.200
     8   hc     1   MOL    H3    8     0.048367      1.00800 ; qtot -0.152
     9   hc     1   MOL    H4    9     0.048367      1.00800 ; qtot -0.103
    10   h1     1   MOL    H5   10     0.051700      1.00800 ; qtot -0.052
    11   h1     1   MOL    H6   11     0.051700      1.00800 ; qtot -0.000

[ bonds ]
;   ai     aj funct   r             k
     1      4   1    1.2190e-01    4.9421e+05 ;     C1 - O1    
     1      5   1    1.3621e-01    2.9398e+05 ;     C1 - O2    
     1      6   1    1.1053e-01    2.7793e+05 ;     C1 - H1    
     2      3   1    1.5354e-01    1.9154e+05 ;     C2 - C3    
     2      7   1    1.0962e-01    2.8891e+05 ;     C2 - H2    
     2      8   1    1.0962e-01    2.8891e+05 ;     C2 - H3    
     2      9   1    1.0962e-01    2.8891e+05 ;     C2 - H4    
     3      5   1    1.4273e-01    2.3620e+05 ;     C3 - O2    
     3     10   1    1.0969e-01    2.8804e+05 ;     C3 - H5    
     3     11   1    1.0969e-01    2.8804e+05 ;     C3 - H6    

[ pairs ]
;   ai     aj    funct
     1      2      1 ;     C1 - C2    
     1     10      1 ;     C1 - H5    
     1     11      1 ;     C1 - H6    
     4      3      1 ;     O1 - C3    
     5      7      1 ;     O2 - H2    
     5      8      1 ;     O2 - H3    
     5      9      1 ;     O2 - H4    
     6      3      1 ;     H1 - C3    
     7     10      1 ;     H2 - H5    
     7     11      1 ;     H2 - H6    
     8     10      1 ;     H3 - H5    
     8     11      1 ;     H3 - H6    
     9     10      1 ;     H4 - H5    
     9     11      1 ;     H4 - H6    

[ angles ]
;   ai     aj     ak    funct   theta         cth
     1      5      3      1    1.1582e+02    7.4835e+02 ;     C1 - O2     - C3    
     2      3      5      1    1.0762e+02    6.4802e+02 ;     C2 - C3     - O2    
     2      3     10      1    1.0959e+02    3.6217e+02 ;     C2 - C3     - H5    
     2      3     11      1    1.0959e+02    3.6217e+02 ;     C2 - C3     - H6    
     3      2      7      1    1.0968e+02    3.6208e+02 ;     C3 - C2     - H2    
     3      2      8      1    1.0968e+02    3.6208e+02 ;     C3 - C2     - H3    
     3      2      9      1    1.0968e+02    3.6208e+02 ;     C3 - C2     - H4    
     4      1      5      1    1.2320e+02    8.4734e+02 ;     O1 - C1     - O2    
     4      1      6      1    1.2378e+02    4.9664e+02 ;     O1 - C1     - H1    
     5      1      6      1    1.1309e+02    4.8124e+02 ;     O2 - C1     - H1    
     5      3     10      1    1.1034e+02    4.7028e+02 ;     O2 - C3     - H5    
     5      3     11      1    1.1034e+02    4.7028e+02 ;     O2 - C3     - H6    
     7      2      8      1    1.0773e+02    2.9957e+02 ;     H2 - C2     - H3    
     7      2      9      1    1.0773e+02    2.9957e+02 ;     H2 - C2     - H4    
     8      2      9      1    1.0773e+02    2.9957e+02 ;     H3 - C2     - H4    
    10      3     11      1    1.0855e+02    2.9824e+02 ;     H5 - C3     - H6    

[ dihedrals ] ; propers
; for gromacs 4.5 or higher, using funct 9
;    i      j      k      l   func   phase     kd      pn
     1      5      3      2      9     0.00   1.60247   3 ;     C1-    O2-    C3-    C2
     1      5      3      2      9   180.00   3.34720   1 ;     C1-    O2-    C3-    C2
     1      5      3     10      9     0.00   1.60387   3 ;     C1-    O2-    C3-    H5
     1      5      3     11      9     0.00   1.60387   3 ;     C1-    O2-    C3-    H6
     4      1      5      3      9   180.00   5.85760   1 ;     O1-    C1-    O2-    C3
     4      1      5      3      9   180.00  11.29680   2 ;     O1-    C1-    O2-    C3
     5      3      2      7      9     0.00   0.00000   0 ;     O2-    C3-    C2-    H2
     5      3      2      7      9     0.00   1.04600   1 ;     O2-    C3-    C2-    H2
     5      3      2      8      9     0.00   0.00000   0 ;     O2-    C3-    C2-    H3
     5      3      2      8      9     0.00   1.04600   1 ;     O2-    C3-    C2-    H3
     5      3      2      9      9     0.00   0.00000   0 ;     O2-    C3-    C2-    H4
     5      3      2      9      9     0.00   1.04600   1 ;     O2-    C3-    C2-    H4
     6      1      5      3      9   180.00  11.29680   2 ;     H1-    C1-    O2-    C3
     7      2      3     10      9     0.00   0.65084   3 ;     H2-    C2-    C3-    H5
     7      2      3     11      9     0.00   0.65084   3 ;     H2-    C2-    C3-    H6
     8      2      3     10      9     0.00   0.65084   3 ;     H3-    C2-    C3-    H5
     8      2      3     11      9     0.00   0.65084   3 ;     H3-    C2-    C3-    H6
     9      2      3     10      9     0.00   0.65084   3 ;     H4-    C2-    C3-    H5
     9      2      3     11      9     0.00   0.65084   3 ;     H4-    C2-    C3-    H6

[ dihedrals ] ; impropers
; treated as propers in GROMACS to use correct AMBER analytical function
;    i      j      k      l   func   phase     kd      pn
     5      1      4      6      4   180.00   4.60240   2 ;     O2-    C1-    O1-    H1
