; mobley_994483_GMX.itp created by acpype (v: 2023.10.27) on Thu May 21 00:13:01 2026

[ atomtypes ]
;name   bond_type     mass     charge   ptype   sigma         epsilon       Amb
 c3       c3          0.00000  0.00000   A     3.39771e-01   4.51035e-01 ; 1.91  0.1078
 br       br          0.00000  0.00000   A     3.61259e-01   1.64515e+00 ; 2.03  0.3932
 hc       hc          0.00000  0.00000   A     2.60018e-01   8.70272e-02 ; 1.46  0.0208
 h1       h1          0.00000  0.00000   A     2.42200e-01   8.70272e-02 ; 1.36  0.0208

[ moleculetype ]
;name            nrexcl
 mobley_994483    3

[ atoms ]
;   nr  type  resi  res  atom  cgnr     charge      mass       ; qtot   bond_type
     1   c3     1   MOL    C1    1    -0.097100     12.01000 ; qtot -0.097
     2   c3     1   MOL    C2    2    -0.008000     12.01000 ; qtot -0.105
     3   br     1   MOL   BR1    3    -0.181401     79.90000 ; qtot -0.287
     4   hc     1   MOL    H1    4     0.048367      1.00800 ; qtot -0.238
     5   hc     1   MOL    H2    5     0.048367      1.00800 ; qtot -0.190
     6   hc     1   MOL    H3    6     0.048367      1.00800 ; qtot -0.141
     7   h1     1   MOL    H4    7     0.070700      1.00800 ; qtot -0.071
     8   h1     1   MOL    H5    8     0.070700      1.00800 ; qtot -0.000

[ bonds ]
;   ai     aj funct   r             k
     1      2   1    1.5354e-01    1.9154e+05 ;     C1 - C2    
     1      4   1    1.0962e-01    2.8891e+05 ;     C1 - H1    
     1      5   1    1.0962e-01    2.8891e+05 ;     C1 - H2    
     1      6   1    1.0962e-01    2.8891e+05 ;     C1 - H3    
     2      3   1    1.9805e-01    1.0319e+05 ;     C2 - BR1   
     2      7   1    1.0969e-01    2.8804e+05 ;     C2 - H4    
     2      8   1    1.0969e-01    2.8804e+05 ;     C2 - H5    

[ pairs ]
;   ai     aj    funct
     4      3      1 ;     H1 - BR1   
     4      7      1 ;     H1 - H4    
     4      8      1 ;     H1 - H5    
     5      3      1 ;     H2 - BR1   
     5      7      1 ;     H2 - H4    
     5      8      1 ;     H2 - H5    
     6      3      1 ;     H3 - BR1   
     6      7      1 ;     H3 - H4    
     6      8      1 ;     H3 - H5    

[ angles ]
;   ai     aj     ak    funct   theta         cth
     1      2      3      1    1.1047e+02    5.1020e+02 ;     C1 - C2     - BR1   
     1      2      7      1    1.0959e+02    3.6217e+02 ;     C1 - C2     - H4    
     1      2      8      1    1.0959e+02    3.6217e+02 ;     C1 - C2     - H5    
     2      1      4      1    1.0968e+02    3.6208e+02 ;     C2 - C1     - H1    
     2      1      5      1    1.0968e+02    3.6208e+02 ;     C2 - C1     - H2    
     2      1      6      1    1.0968e+02    3.6208e+02 ;     C2 - C1     - H3    
     3      2      7      1    1.0552e+02    3.3748e+02 ;    BR1 - C2     - H4    
     3      2      8      1    1.0552e+02    3.3748e+02 ;    BR1 - C2     - H5    
     4      1      5      1    1.0773e+02    2.9957e+02 ;     H1 - C1     - H2    
     4      1      6      1    1.0773e+02    2.9957e+02 ;     H1 - C1     - H3    
     5      1      6      1    1.0773e+02    2.9957e+02 ;     H2 - C1     - H3    
     7      2      8      1    1.0855e+02    2.9824e+02 ;     H4 - C2     - H5    

[ dihedrals ] ; propers
; for gromacs 4.5 or higher, using funct 9
;    i      j      k      l   func   phase     kd      pn
     4      1      2      3      9     0.00   0.79496   3 ;     H1-    C1-    C2-   BR1
     4      1      2      7      9     0.00   0.65084   3 ;     H1-    C1-    C2-    H4
     4      1      2      8      9     0.00   0.65084   3 ;     H1-    C1-    C2-    H5
     5      1      2      3      9     0.00   0.79496   3 ;     H2-    C1-    C2-   BR1
     5      1      2      7      9     0.00   0.65084   3 ;     H2-    C1-    C2-    H4
     5      1      2      8      9     0.00   0.65084   3 ;     H2-    C1-    C2-    H5
     6      1      2      3      9     0.00   0.79496   3 ;     H3-    C1-    C2-   BR1
     6      1      2      7      9     0.00   0.65084   3 ;     H3-    C1-    C2-    H4
     6      1      2      8      9     0.00   0.65084   3 ;     H3-    C1-    C2-    H5
