mobley_5310099_GMX.gro created by acpype (v: 2023.10.27) on Tue May 19 12:50:55 2026
 2379
    1MOL     C1    1   2.496   2.234   2.128
    1MOL     C2    2   2.520   2.328   2.221
    1MOL     C3    3   2.294   2.463   2.649
    1MOL     C4    4   2.413   2.413   2.283
    1MOL     C5    5   2.300   2.481   2.498
    1MOL     C6    6   2.411   2.397   2.436
    1MOL     H1    7   2.578   2.176   2.087
    1MOL     H2    8   2.396   2.214   2.092
    1MOL     H3    9   2.622   2.344   2.254
    1MOL     H4   10   2.275   2.358   2.675
    1MOL     H5   11   2.214   2.524   2.692
    1MOL     H6   12   2.389   2.493   2.696
    1MOL     H7   13   2.315   2.388   2.242
    1MOL     H8   14   2.433   2.518   2.257
    1MOL     H9   15   2.203   2.453   2.455
    1MOL    H10   16   2.316   2.587   2.476
    1MOL    H11   17   2.508   2.427   2.478
    1MOL    H12   18   2.396   2.291   2.461
   14SOL     OW   19   1.460   1.505   1.339
   14SOL    HW1   20   1.484   1.599   1.365
   14SOL    HW2   21   1.444   1.451   1.421
   18SOL     OW   22   1.127   1.341   1.690
   18SOL    HW1   23   1.174   1.341   1.778
   18SOL    HW2   24   1.079   1.254   1.679
   35SOL     OW   25   1.187   1.792   1.616
   35SOL    HW1   26   1.211   1.852   1.540
   35SOL    HW2   27   1.194   1.697   1.586
   56SOL     OW   28   1.227   1.550   1.506
   56SOL    HW1   29   1.233   1.473   1.570
   56SOL    HW2   30   1.175   1.524   1.426
   95SOL     OW   31   1.754   1.223   1.588
   95SOL    HW1   32   1.845   1.184   1.575
   95SOL    HW2   33   1.762   1.319   1.612
   97SOL     OW   34   1.592   1.629   1.625
   97SOL    HW1   35   1.619   1.663   1.535
   97SOL    HW2   36   1.671   1.591   1.671
  122SOL     OW   37   1.728   0.935   1.854
  122SOL    HW1   38   1.682   0.928   1.765
  122SOL    HW2   39   1.666   0.979   1.920
  126SOL     OW   40   0.980   1.573   1.700
  126SOL    HW1   41   0.960   1.617   1.612
  126SOL    HW2   42   1.019   1.482   1.684
  127SOL     OW   43   1.859   1.518   1.605
  127SOL    HW1   44   1.873   1.545   1.510
  127SOL    HW2   45   1.942   1.540   1.658
  152SOL     OW   46   1.759   1.747   1.154
  152SOL    HW1   47   1.820   1.777   1.081
  152SOL    HW2   48   1.721   1.658   1.132
  163SOL     OW   49   1.650   1.720   1.394
  163SOL    HW1   50   1.703   1.730   1.310
  163SOL    HW2   51   1.623   1.810   1.428
  171SOL     OW   52   1.614   1.292   1.289
  171SOL    HW1   53   1.674   1.295   1.369
  171SOL    HW2   54   1.539   1.356   1.302
  186SOL     OW   55   1.450   1.220   1.633
  186SOL    HW1   56   1.441   1.210   1.732
  186SOL    HW2   57   1.546   1.213   1.607
  203SOL     OW   58   1.705   1.487   1.104
  203SOL    HW1   59   1.612   1.462   1.077
  203SOL    HW2   60   1.731   1.437   1.186
  219SOL     OW   61   1.555   1.511   2.565
  219SOL    HW1   62   1.498   1.495   2.646
  219SOL    HW2   63   1.496   1.521   2.485
  227SOL     OW   64   1.460   1.505   3.201
  227SOL    HW1   65   1.484   1.599   3.227
  227SOL    HW2   66   1.444   1.451   3.283
  238SOL     OW   67   1.842   1.767   2.221
  238SOL    HW1   68   1.896   1.738   2.301
  238SOL    HW2   69   1.872   1.857   2.192
  240SOL     OW   70   1.689   0.922   2.474
  240SOL    HW1   71   1.784   0.893   2.482
  240SOL    HW2   72   1.681   0.987   2.399
  241SOL     OW   73   1.641   1.108   2.294
  241SOL    HW1   74   1.727   1.110   2.242
  241SOL    HW2   75   1.655   1.155   2.382
  247SOL     OW   76   1.525   0.999   2.052
  247SOL    HW1   77   1.462   0.923   2.065
  247SOL    HW2   78   1.573   1.017   2.138
  248SOL     OW   79   1.187   1.792   3.478
  248SOL    HW1   80   1.211   1.852   3.402
  248SOL    HW2   81   1.194   1.697   3.448
  250SOL     OW   82   1.466   1.417   2.815
  250SOL    HW1   83   1.407   1.423   2.895
  250SOL    HW2   84   1.451   1.329   2.769
  251SOL     OW   85   1.667   1.714   2.434
  251SOL    HW1   86   1.626   1.691   2.346
  251SOL    HW2   87   1.649   1.640   2.499
  254SOL     OW   88   1.576   1.662   2.169
  254SOL    HW1   89   1.665   1.708   2.172
  254SOL    HW2   90   1.555   1.638   2.074
  264SOL     OW   91   1.362   1.144   2.407
  264SOL    HW1   92   1.445   1.115   2.359
  264SOL    HW2   93   1.313   1.211   2.351
  266SOL     OW   94   1.008   1.456   2.339
  266SOL    HW1   95   0.962   1.528   2.287
  266SOL    HW2   96   1.004   1.476   2.437
  268SOL     OW   97   1.795   1.066   2.735
  268SOL    HW1   98   1.733   1.051   2.659
  268SOL    HW2   99   1.743   1.077   2.820
  269SOL     OW  100   1.227   1.550   3.368
  269SOL    HW1  101   1.233   1.473   3.432
  269SOL    HW2  102   1.175   1.524   3.288
  273SOL     OW  103   1.111   1.776   2.099
  273SOL    HW1  104   1.051   1.714   2.149
  273SOL    HW2  105   1.142   1.732   2.014
  275SOL     OW  106   1.632   1.377   1.943
  275SOL    HW1  107   1.600   1.471   1.933
  275SOL    HW2  108   1.556   1.314   1.931
  279SOL     OW  109   0.940   1.698   2.766
  279SOL    HW1  110   1.020   1.641   2.787
  279SOL    HW2  111   0.891   1.658   2.689
  289SOL     OW  112   1.434   1.188   1.903
  289SOL    HW1  113   1.466   1.112   1.960
  289SOL    HW2  114   1.342   1.215   1.933
  293SOL     OW  115   1.227   1.570   2.655
  293SOL    HW1  116   1.248   1.644   2.590
  293SOL    HW2  117   1.295   1.570   2.728
  295SOL     OW  118   1.271   1.797   2.453
  295SOL    HW1  119   1.315   1.861   2.389
  295SOL    HW2  120   1.221   1.849   2.523
  301SOL     OW  121   1.429   1.173   2.729
  301SOL    HW1  122   1.374   1.089   2.722
  301SOL    HW2  123   1.455   1.202   2.637
  303SOL     OW  124   1.857   0.833   2.239
  303SOL    HW1  125   1.899   0.769   2.303
  303SOL    HW2  126   1.819   0.782   2.161
  305SOL     OW  127   1.664   1.280   2.519
  305SOL    HW1  128   1.763   1.288   2.533
  305SOL    HW2  129   1.619   1.364   2.550
  308SOL     OW  130   1.754   1.223   3.450
  308SOL    HW1  131   1.845   1.184   3.437
  308SOL    HW2  132   1.762   1.319   3.474
  310SOL     OW  133   1.592   1.629   3.487
  310SOL    HW1  134   1.619   1.663   3.397
  310SOL    HW2  135   1.671   1.591   3.533
  312SOL     OW  136   1.638   1.099   2.941
  312SOL    HW1  137   1.643   1.180   3.000
  312SOL    HW2  138   1.552   1.101   2.890
  321SOL     OW  139   1.252   1.348   2.250
  321SOL    HW1  140   1.302   1.425   2.290
  321SOL    HW2  141   1.157   1.350   2.282
  322SOL     OW  142   1.272   1.445   3.004
  322SOL    HW1  143   1.319   1.458   3.091
  322SOL    HW2  144   1.206   1.371   3.013
  340SOL     OW  145   1.859   1.518   3.467
  340SOL    HW1  146   1.873   1.545   3.372
  340SOL    HW2  147   1.942   1.540   3.520
  344SOL     OW  148   1.068   1.333   2.711
  344SOL    HW1  149   1.075   1.249   2.656
  344SOL    HW2  150   1.130   1.402   2.675
  365SOL     OW  151   1.759   1.747   3.016
  365SOL    HW1  152   1.820   1.777   2.943
  365SOL    HW2  153   1.721   1.658   2.994
  366SOL     OW  154   1.252   1.731   2.990
  366SOL    HW1  155   1.336   1.736   2.936
  366SOL    HW2  156   1.229   1.635   3.008
  370SOL     OW  157   1.388   1.573   2.339
  370SOL    HW1  158   1.455   1.585   2.265
  370SOL    HW2  159   1.348   1.662   2.362
  375SOL     OW  160   1.650   1.720   3.256
  375SOL    HW1  161   1.703   1.730   3.172
  375SOL    HW2  162   1.623   1.810   3.290
  378SOL     OW  163   1.194   1.612   1.893
  378SOL    HW1  164   1.200   1.519   1.930
  378SOL    HW2  165   1.135   1.612   1.813
  381SOL     OW  166   1.504   1.607   1.906
  381SOL    HW1  167   1.412   1.644   1.913
  381SOL    HW2  168   1.542   1.627   1.816
  383SOL     OW  169   1.614   1.292   3.151
  383SOL    HW1  170   1.674   1.295   3.231
  383SOL    HW2  171   1.539   1.356   3.164
  394SOL     OW  172   1.183   1.335   1.981
  394SOL    HW1  173   1.084   1.324   1.983
  394SOL    HW2  174   1.217   1.350   2.074
  396SOL     OW  175   1.493   1.767   2.821
  396SOL    HW1  176   1.526   1.831   2.752
  396SOL    HW2  177   1.559   1.761   2.896
  409SOL     OW  178   1.861   1.569   2.713
  409SOL    HW1  179   1.790   1.557   2.643
  409SOL    HW2  180   1.862   1.490   2.773
  415SOL     OW  181   1.705   1.487   2.966
  415SOL    HW1  182   1.612   1.462   2.939
  415SOL    HW2  183   1.731   1.437   3.048
  417SOL     OW  184   0.812   1.586   2.549
  417SOL    HW1  185   0.844   1.596   2.455
  417SOL    HW2  186   0.733   1.524   2.551
  426SOL     OW  187   0.875   1.646   2.199
  426SOL    HW1  188   0.798   1.611   2.145
  426SOL    HW2  189   0.843   1.717   2.261
  555SOL     OW  190   0.850   2.660   1.823
  555SOL    HW1  191   0.846   2.736   1.888
  555SOL    HW2  192   0.872   2.696   1.732
  559SOL     OW  193   1.460   3.367   1.339
  559SOL    HW1  194   1.484   3.461   1.365
  559SOL    HW2  195   1.444   3.313   1.421
  563SOL     OW  196   1.127   3.203   1.690
  563SOL    HW1  197   1.174   3.203   1.778
  563SOL    HW2  198   1.079   3.116   1.679
  568SOL     OW  199   1.594   1.976   1.480
  568SOL    HW1  200   1.576   2.043   1.408
  568SOL    HW2  201   1.591   2.022   1.569
  576SOL     OW  202   1.293   3.090   1.423
  576SOL    HW1  203   1.330   3.017   1.365
  576SOL    HW2  204   1.345   3.095   1.508
  588SOL     OW  205   1.394   2.331   1.674
  588SOL    HW1  206   1.374   2.374   1.762
  588SOL    HW2  207   1.472   2.269   1.683
  589SOL     OW  208   0.973   2.752   1.572
  589SOL    HW1  209   1.019   2.668   1.543
  589SOL    HW2  210   0.917   2.786   1.497
  595SOL     OW  211   1.719   2.447   1.831
  595SOL    HW1  212   1.693   2.536   1.795
  595SOL    HW2  213   1.717   2.379   1.758
  600SOL     OW  214   1.795   2.928   0.873
  600SOL    HW1  215   1.733   2.913   0.797
  600SOL    HW2  216   1.743   2.939   0.958
  601SOL     OW  217   1.227   3.412   1.506
  601SOL    HW1  218   1.233   3.335   1.570
  601SOL    HW2  219   1.175   3.386   1.426
  613SOL     OW  220   1.547   2.084   1.729
  613SOL    HW1  221   1.542   2.121   1.821
  613SOL    HW2  222   1.475   2.015   1.717
  615SOL     OW  223   0.781   2.126   1.749
  615SOL    HW1  224   0.848   2.065   1.792
  615SOL    HW2  225   0.708   2.145   1.814
  617SOL     OW  226   1.351   2.452   1.433
  617SOL    HW1  227   1.379   2.409   1.518
  617SOL    HW2  228   1.376   2.548   1.434
  623SOL     OW  229   1.076   2.545   1.464
  623SOL    HW1  230   0.996   2.484   1.467
  623SOL    HW2  231   1.157   2.492   1.440
  633SOL     OW  232   1.466   2.452   0.992
  633SOL    HW1  233   1.436   2.357   0.999
  633SOL    HW2  234   1.539   2.468   1.058
  639SOL     OW  235   1.754   3.085   1.588
  639SOL    HW1  236   1.845   3.046   1.575
  639SOL    HW2  237   1.762   3.181   1.612
  641SOL     OW  238   1.592   3.491   1.625
  641SOL    HW1  239   1.619   3.525   1.535
  641SOL    HW2  240   1.671   3.453   1.671
  643SOL     OW  241   1.638   2.961   1.079
  643SOL    HW1  242   1.643   3.042   1.138
  643SOL    HW2  243   1.552   2.963   1.028
  645SOL     OW  244   0.980   2.978   1.719
  645SOL    HW1  245   0.881   2.984   1.729
  645SOL    HW2  246   1.003   2.898   1.663
  648SOL     OW  247   1.274   2.248   1.262
  648SOL    HW1  248   1.295   2.322   1.326
  648SOL    HW2  249   1.185   2.265   1.219
  657SOL     OW  250   1.587   2.641   1.670
  657SOL    HW1  251   1.495   2.679   1.665
  657SOL    HW2  252   1.647   2.688   1.605
  658SOL     OW  253   1.013   1.967   1.770
  658SOL    HW1  254   1.019   2.052   1.718
  658SOL    HW2  255   1.045   1.891   1.713
  661SOL     OW  256   1.360   2.724   1.045
  661SOL    HW1  257   1.285   2.724   0.979
  661SOL    HW2  258   1.397   2.632   1.054
  666SOL     OW  259   1.728   2.797   1.854
  666SOL    HW1  260   1.682   2.790   1.765
  666SOL    HW2  261   1.666   2.841   1.920
  671SOL     OW  262   1.859   3.380   1.605
  671SOL    HW1  263   1.873   3.407   1.510
  671SOL    HW2  264   1.942   3.402   1.658
  678SOL     OW  265   1.138   2.242   1.678
  678SOL    HW1  266   1.093   2.305   1.742
  678SOL    HW2  267   1.231   2.273   1.661
  679SOL     OW  268   1.160   2.069   1.477
  679SOL    HW1  269   1.160   2.133   1.554
  679SOL    HW2  270   1.188   2.117   1.394
  686SOL     OW  271   1.369   2.812   1.660
  686SOL    HW1  272   1.408   2.901   1.680
  686SOL    HW2  273   1.379   2.792   1.563
  688SOL     OW  274   1.657   2.466   1.206
  688SOL    HW1  275   1.619   2.397   1.268
  688SOL    HW2  276   1.739   2.430   1.162
  694SOL     OW  277   1.347   2.921   1.234
  694SOL    HW1  278   1.371   2.858   1.160
  694SOL    HW2  279   1.257   2.961   1.216
  707SOL     OW  280   1.650   3.582   1.394
  707SOL    HW1  281   1.703   3.592   1.310
  707SOL    HW2  282   1.623   3.672   1.428
  708SOL     OW  283   1.841   2.037   0.963
  708SOL    HW1  284   1.880   1.952   0.927
  708SOL    HW2  285   1.743   2.039   0.944
  715SOL     OW  286   1.614   3.154   1.289
  715SOL    HW1  287   1.674   3.157   1.369
  715SOL    HW2  288   1.539   3.218   1.302
  719SOL     OW  289   1.709   2.247   1.381
  719SOL    HW1  290   1.782   2.316   1.385
  719SOL    HW2  291   1.737   2.172   1.322
  724SOL     OW  292   1.440   2.718   1.398
  724SOL    HW1  293   1.383   2.770   1.335
  724SOL    HW2  294   1.536   2.730   1.374
  730SOL     OW  295   1.450   3.082   1.633
  730SOL    HW1  296   1.441   3.072   1.732
  730SOL    HW2  297   1.546   3.075   1.607
  732SOL     OW  298   1.674   2.745   1.254
  732SOL    HW1  299   1.647   2.656   1.217
  732SOL    HW2  300   1.675   2.813   1.181
  735SOL     OW  301   1.777   2.204   1.642
  735SOL    HW1  302   1.760   2.235   1.548
  735SOL    HW2  303   1.693   2.167   1.680
  736SOL     OW  304   1.730   2.796   1.517
  736SOL    HW1  305   1.768   2.887   1.532
  736SOL    HW2  306   1.722   2.779   1.418
  745SOL     OW  307   1.824   2.054   1.227
  745SOL    HW1  308   1.820   1.964   1.271
  745SOL    HW2  309   1.827   2.043   1.128
  747SOL     OW  310   1.705   3.349   1.104
  747SOL    HW1  311   1.612   3.324   1.077
  747SOL    HW2  312   1.731   3.299   1.186
  750SOL     OW  313   1.424   2.076   1.112
  750SOL    HW1  314   1.476   2.011   1.167
  750SOL    HW2  315   1.375   2.139   1.173
  756SOL     OW  316   1.593   2.083   0.882
  756SOL    HW1  317   1.509   2.082   0.936
  756SOL    HW2  318   1.595   2.166   0.826
  763SOL     OW  319   1.555   3.373   2.565
  763SOL    HW1  320   1.498   3.357   2.646
  763SOL    HW2  321   1.496   3.383   2.485
  764SOL     OW  322   1.135   2.565   2.579
  764SOL    HW1  323   1.192   2.643   2.554
  764SOL    HW2  324   1.075   2.591   2.655
  765SOL     OW  325   1.755   2.469   2.093
  765SOL    HW1  326   1.743   2.456   1.994
  765SOL    HW2  327   1.725   2.388   2.142
  768SOL     OW  328   0.685   2.874   2.527
  768SOL    HW1  329   0.754   2.858   2.597
  768SOL    HW2  330   0.612   2.931   2.565
  771SOL     OW  331   1.460   3.367   3.201
  771SOL    HW1  332   1.484   3.461   3.227
  771SOL    HW2  333   1.444   3.313   3.283
  773SOL     OW  334   1.603   2.309   2.599
  773SOL    HW1  335   1.529   2.355   2.549
  773SOL    HW2  336   1.654   2.377   2.652
  780SOL     OW  337   1.594   1.976   3.342
  780SOL    HW1  338   1.576   2.043   3.270
  780SOL    HW2  339   1.591   2.022   3.431
  782SOL     OW  340   1.842   3.629   2.221
  782SOL    HW1  341   1.896   3.600   2.301
  782SOL    HW2  342   1.872   3.719   2.192
  784SOL     OW  343   1.689   2.784   2.474
  784SOL    HW1  344   1.784   2.755   2.482
  784SOL    HW2  345   1.681   2.849   2.399
  785SOL     OW  346   1.641   2.970   2.294
  785SOL    HW1  347   1.727   2.972   2.242
  785SOL    HW2  348   1.655   3.017   2.382
  788SOL     OW  349   1.293   3.090   3.285
  788SOL    HW1  350   1.330   3.017   3.227
  788SOL    HW2  351   1.345   3.095   3.370
  789SOL     OW  352   0.809   1.866   2.364
  789SOL    HW1  353   0.849   1.957   2.355
  789SOL    HW2  354   0.709   1.874   2.370
  791SOL     OW  355   1.525   2.861   2.052
  791SOL    HW1  356   1.462   2.785   2.065
  791SOL    HW2  357   1.573   2.879   2.138
  794SOL     OW  358   1.466   3.279   2.815
  794SOL    HW1  359   1.407   3.285   2.895
  794SOL    HW2  360   1.451   3.191   2.769
  795SOL     OW  361   1.667   3.576   2.434
  795SOL    HW1  362   1.626   3.553   2.346
  795SOL    HW2  363   1.649   3.502   2.499
  797SOL     OW  364   1.281   2.207   2.806
  797SOL    HW1  365   1.195   2.157   2.793
  797SOL    HW2  366   1.343   2.153   2.862
  798SOL     OW  367   1.576   3.524   2.169
  798SOL    HW1  368   1.665   3.570   2.172
  798SOL    HW2  369   1.555   3.500   2.074
  800SOL     OW  370   1.394   2.331   3.536
  800SOL    HW1  371   1.374   2.374   3.624
  800SOL    HW2  372   1.472   2.269   3.545
  801SOL     OW  373   0.973   2.752   3.434
  801SOL    HW1  374   1.019   2.668   3.405
  801SOL    HW2  375   0.917   2.786   3.359
  802SOL     OW  376   0.991   2.272   3.104
  802SOL    HW1  377   0.914   2.306   3.158
  802SOL    HW2  378   0.957   2.221   3.025
  803SOL     OW  379   1.041   2.563   2.291
  803SOL    HW1  380   1.067   2.559   2.387
  803SOL    HW2  381   0.956   2.512   2.277
  806SOL     OW  382   0.865   2.210   2.057
  806SOL    HW1  383   0.924   2.273   2.008
  806SOL    HW2  384   0.884   2.116   2.028
  807SOL     OW  385   1.719   2.447   3.693
  807SOL    HW1  386   1.693   2.536   3.657
  807SOL    HW2  387   1.717   2.379   3.620
  808SOL     OW  388   1.362   3.006   2.407
  808SOL    HW1  389   1.445   2.977   2.359
  808SOL    HW2  390   1.313   3.073   2.351
  810SOL     OW  391   1.008   3.318   2.339
  810SOL    HW1  392   0.962   3.390   2.287
  810SOL    HW2  393   1.004   3.338   2.437
  812SOL     OW  394   1.795   2.928   2.735
  812SOL    HW1  395   1.733   2.913   2.659
  812SOL    HW2  396   1.743   2.939   2.820
  815SOL     OW  397   1.458   2.597   2.590
  815SOL    HW1  398   1.453   2.532   2.665
  815SOL    HW2  399   1.538   2.656   2.603
  819SOL     OW  400   1.632   3.239   1.943
  819SOL    HW1  401   1.600   3.333   1.933
  819SOL    HW2  402   1.556   3.176   1.931
  821SOL     OW  403   1.400   1.969   2.288
  821SOL    HW1  404   1.376   1.932   2.198
  821SOL    HW2  405   1.499   1.985   2.292
  825SOL     OW  406   1.547   2.084   3.591
  825SOL    HW1  407   1.542   2.121   3.683
  825SOL    HW2  408   1.475   2.015   3.579
  829SOL     OW  409   1.351   2.452   3.295
  829SOL    HW1  410   1.379   2.409   3.380
  829SOL    HW2  411   1.376   2.548   3.296
  831SOL     OW  412   0.922   2.365   2.761
  831SOL    HW1  413   0.897   2.356   2.665
  831SOL    HW2  414   0.970   2.283   2.792
  833SOL     OW  415   1.434   3.050   1.903
  833SOL    HW1  416   1.466   2.974   1.960
  833SOL    HW2  417   1.342   3.077   1.933
  835SOL     OW  418   0.935   2.098   2.342
  835SOL    HW1  419   0.887   2.139   2.264
  835SOL    HW2  420   1.034   2.096   2.323
  836SOL     OW  421   1.076   2.545   3.326
  836SOL    HW1  422   0.996   2.484   3.329
  836SOL    HW2  423   1.157   2.492   3.302
  837SOL     OW  424   1.227   3.432   2.655
  837SOL    HW1  425   1.248   3.506   2.590
  837SOL    HW2  426   1.295   3.432   2.728
  839SOL     OW  427   1.271   3.659   2.453
  839SOL    HW1  428   1.315   3.723   2.389
  839SOL    HW2  429   1.221   3.711   2.523
  840SOL     OW  430   1.032   2.411   1.878
  840SOL    HW1  431   0.991   2.493   1.839
  840SOL    HW2  432   1.096   2.437   1.951
  843SOL     OW  433   0.866   2.316   2.504
  843SOL    HW1  434   0.834   2.388   2.442
  843SOL    HW2  435   0.890   2.235   2.451
  844SOL     OW  436   1.017   1.901   2.615
  844SOL    HW1  437   0.945   1.906   2.546
  844SOL    HW2  438   0.993   1.832   2.684
  845SOL     OW  439   1.429   3.035   2.729
  845SOL    HW1  440   1.374   2.951   2.722
  845SOL    HW2  441   1.455   3.064   2.637
  846SOL     OW  442   1.466   2.452   2.854
  846SOL    HW1  443   1.436   2.357   2.861
  846SOL    HW2  444   1.539   2.468   2.920
  847SOL     OW  445   1.857   2.695   2.239
  847SOL    HW1  446   1.899   2.631   2.303
  847SOL    HW2  447   1.819   2.644   2.161
  849SOL     OW  448   1.664   3.142   2.519
  849SOL    HW1  449   1.763   3.150   2.533
  849SOL    HW2  450   1.619   3.226   2.550
  850SOL     OW  451   1.390   2.437   1.940
  850SOL    HW1  452   1.336   2.416   2.021
  850SOL    HW2  453   1.481   2.396   1.949
  852SOL     OW  454   1.754   3.085   3.450
  852SOL    HW1  455   1.845   3.046   3.437
  852SOL    HW2  456   1.762   3.181   3.474
  853SOL     OW  457   1.064   3.209   3.202
  853SOL    HW1  458   0.984   3.186   3.257
  853SOL    HW2  459   1.147   3.183   3.251
  854SOL     OW  460   1.592   3.491   3.487
  854SOL    HW1  461   1.619   3.525   3.397
  854SOL    HW2  462   1.671   3.453   3.533
  855SOL     OW  463   1.111   3.057   2.962
  855SOL    HW1  464   1.071   3.101   3.043
  855SOL    HW2  465   1.070   3.094   2.879
  856SOL     OW  466   1.638   2.961   2.941
  856SOL    HW1  467   1.643   3.042   3.000
  856SOL    HW2  468   1.552   2.963   2.890
  857SOL     OW  469   0.915   1.951   3.264
  857SOL    HW1  470   0.940   1.931   3.169
  857SOL    HW2  471   0.987   2.007   3.306
  859SOL     OW  472   0.705   2.912   2.230
  859SOL    HW1  473   0.691   2.919   2.329
  859SOL    HW2  474   0.789   2.861   2.212
  861SOL     OW  475   1.274   2.248   3.124
  861SOL    HW1  476   1.295   2.322   3.188
  861SOL    HW2  477   1.185   2.265   3.081
  865SOL     OW  478   1.252   3.210   2.250
  865SOL    HW1  479   1.302   3.287   2.290
  865SOL    HW2  480   1.157   3.212   2.282
  866SOL     OW  481   1.272   3.307   3.004
  866SOL    HW1  482   1.319   3.320   3.091
  866SOL    HW2  483   1.206   3.233   3.013
  867SOL     OW  484   1.582   2.501   2.334
  867SOL    HW1  485   1.551   2.562   2.407
  867SOL    HW2  486   1.632   2.553   2.265
  870SOL     OW  487   1.587   2.641   3.532
  870SOL    HW1  488   1.495   2.679   3.527
  870SOL    HW2  489   1.647   2.688   3.467
  874SOL     OW  490   1.360   2.724   2.907
  874SOL    HW1  491   1.285   2.724   2.841
  874SOL    HW2  492   1.397   2.632   2.916
  875SOL     OW  493   1.209   2.387   2.137
  875SOL    HW1  494   1.222   2.303   2.191
  875SOL    HW2  495   1.180   2.461   2.197
  878SOL     OW  496   0.732   2.496   2.926
  878SOL    HW1  497   0.791   2.470   2.850
  878SOL    HW2  498   0.704   2.592   2.915
  879SOL     OW  499   1.728   2.797   3.716
  879SOL    HW1  500   1.682   2.790   3.627
  879SOL    HW2  501   1.666   2.841   3.782
  881SOL     OW  502   1.622   2.229   2.236
  881SOL    HW1  503   1.624   2.153   2.300
  881SOL    HW2  504   1.574   2.306   2.276
  882SOL     OW  505   1.023   2.628   2.828
  882SOL    HW1  506   1.038   2.649   2.924
  882SOL    HW2  507   0.993   2.533   2.819
  884SOL     OW  508   1.859   3.380   3.467
  884SOL    HW1  509   1.873   3.407   3.372
  884SOL    HW2  510   1.942   3.402   3.520
  886SOL     OW  511   1.540   2.136   1.987
  886SOL    HW1  512   1.479   2.061   2.010
  886SOL    HW2  513   1.562   2.188   2.070
  887SOL     OW  514   1.303   2.700   1.904
  887SOL    HW1  515   1.337   2.607   1.919
  887SOL    HW2  516   1.321   2.727   1.809
  888SOL     OW  517   1.068   3.195   2.711
  888SOL    HW1  518   1.075   3.111   2.656
  888SOL    HW2  519   1.130   3.264   2.675
  891SOL     OW  520   1.138   2.242   3.540
  891SOL    HW1  521   1.093   2.305   3.604
  891SOL    HW2  522   1.231   2.273   3.523
  892SOL     OW  523   1.160   2.069   3.339
  892SOL    HW1  524   1.160   2.133   3.416
  892SOL    HW2  525   1.188   2.117   3.256
  896SOL     OW  526   1.002   2.658   3.100
  896SOL    HW1  527   1.043   2.626   3.186
  896SOL    HW2  528   0.906   2.631   3.097
  899SOL     OW  529   1.369   2.812   3.522
  899SOL    HW1  530   1.408   2.901   3.542
  899SOL    HW2  531   1.379   2.792   3.425
  900SOL     OW  532   0.815   2.434   2.187
  900SOL    HW1  533   0.822   2.345   2.141
  900SOL    HW2  534   0.721   2.468   2.179
  901SOL     OW  535   1.657   2.466   3.068
  901SOL    HW1  536   1.619   2.397   3.130
  901SOL    HW2  537   1.739   2.430   3.024
  907SOL     OW  538   1.347   2.921   3.096
  907SOL    HW1  539   1.371   2.858   3.022
  907SOL    HW2  540   1.257   2.961   3.078
  908SOL     OW  541   1.302   2.717   2.171
  908SOL    HW1  542   1.216   2.686   2.213
  908SOL    HW2  543   1.298   2.703   2.072
  909SOL     OW  544   1.759   3.609   3.016
  909SOL    HW1  545   1.820   3.639   2.943
  909SOL    HW2  546   1.721   3.520   2.994
  910SOL     OW  547   1.252   3.593   2.990
  910SOL    HW1  548   1.336   3.598   2.936
  910SOL    HW2  549   1.229   3.497   3.008
  913SOL     OW  550   1.726   1.997   2.385
  913SOL    HW1  551   1.799   1.980   2.318
  913SOL    HW2  552   1.695   1.910   2.423
  914SOL     OW  553   1.388   3.435   2.339
  914SOL    HW1  554   1.455   3.447   2.265
  914SOL    HW2  555   1.348   3.524   2.362
  916SOL     OW  556   1.280   2.789   2.534
  916SOL    HW1  557   1.340   2.708   2.536
  916SOL    HW2  558   1.320   2.858   2.474
  919SOL     OW  559   1.650   3.582   3.256
  919SOL    HW1  560   1.703   3.592   3.172
  919SOL    HW2  561   1.623   3.672   3.290
  920SOL     OW  562   1.841   2.037   2.825
  920SOL    HW1  563   1.880   1.952   2.789
  920SOL    HW2  564   1.743   2.039   2.806
  922SOL     OW  565   1.194   3.474   1.893
  922SOL    HW1  566   1.200   3.381   1.930
  922SOL    HW2  567   1.135   3.474   1.813
  924SOL     OW  568   0.916   2.772   2.153
  924SOL    HW1  569   0.979   2.810   2.085
  924SOL    HW2  570   0.956   2.689   2.192
  925SOL     OW  571   1.504   3.469   1.906
  925SOL    HW1  572   1.412   3.506   1.913
  925SOL    HW2  573   1.542   3.489   1.816
  927SOL     OW  574   1.614   3.154   3.151
  927SOL    HW1  575   1.674   3.157   3.231
  927SOL    HW2  576   1.539   3.218   3.164
  928SOL     OW  577   1.039   2.960   2.558
  928SOL    HW1  578   0.969   2.913   2.612
  928SOL    HW2  579   1.098   2.892   2.515
  929SOL     OW  580   1.014   2.098   2.833
  929SOL    HW1  581   1.006   2.062   2.740
  929SOL    HW2  582   1.012   2.022   2.898
  931SOL     OW  583   1.709   2.247   3.243
  931SOL    HW1  584   1.782   2.316   3.247
  931SOL    HW2  585   1.737   2.172   3.184
  936SOL     OW  586   1.440   2.718   3.260
  936SOL    HW1  587   1.383   2.770   3.197
  936SOL    HW2  588   1.536   2.730   3.236
  938SOL     OW  589   1.183   3.197   1.981
  938SOL    HW1  590   1.084   3.186   1.983
  938SOL    HW2  591   1.217   3.212   2.074
  940SOL     OW  592   1.493   3.629   2.821
  940SOL    HW1  593   1.526   3.693   2.752
  940SOL    HW2  594   1.559   3.623   2.896
  942SOL     OW  595   1.450   3.082   3.495
  942SOL    HW1  596   1.441   3.072   3.594
  942SOL    HW2  597   1.546   3.075   3.469
  944SOL     OW  598   1.674   2.745   3.116
  944SOL    HW1  599   1.647   2.656   3.079
  944SOL    HW2  600   1.675   2.813   3.043
  945SOL     OW  601   1.225   2.187   2.311
  945SOL    HW1  602   1.290   2.113   2.300
  945SOL    HW2  603   1.245   2.237   2.395
  947SOL     OW  604   1.777   2.204   3.504
  947SOL    HW1  605   1.760   2.235   3.410
  947SOL    HW2  606   1.693   2.167   3.542
  948SOL     OW  607   1.730   2.796   3.379
  948SOL    HW1  608   1.768   2.887   3.394
  948SOL    HW2  609   1.722   2.779   3.280
  951SOL     OW  610   0.859   2.818   2.723
  951SOL    HW1  611   0.913   2.749   2.771
  951SOL    HW2  612   0.827   2.887   2.789
  952SOL     OW  613   1.083   2.846   1.949
  952SOL    HW1  614   1.060   2.899   1.867
  952SOL    HW2  615   1.164   2.790   1.930
  953SOL     OW  616   1.861   3.431   2.713
  953SOL    HW1  617   1.790   3.419   2.643
  953SOL    HW2  618   1.862   3.352   2.773
  957SOL     OW  619   1.824   2.054   3.089
  957SOL    HW1  620   1.820   1.964   3.133
  957SOL    HW2  621   1.827   2.043   2.990
  959SOL     OW  622   1.705   3.349   2.966
  959SOL    HW1  623   1.612   3.324   2.939
  959SOL    HW2  624   1.731   3.299   3.048
  962SOL     OW  625   1.424   2.076   2.974
  962SOL    HW1  626   1.476   2.011   3.029
  962SOL    HW2  627   1.375   2.139   3.035
  963SOL     OW  628   1.001   1.896   3.016
  963SOL    HW1  629   0.938   1.824   2.985
  963SOL    HW2  630   1.094   1.860   3.016
  966SOL     OW  631   1.352   1.914   2.030
  966SOL    HW1  632   1.387   1.873   1.946
  966SOL    HW2  633   1.262   1.876   2.050
  967SOL     OW  634   1.300   2.315   2.553
  967SOL    HW1  635   1.241   2.395   2.557
  967SOL    HW2  636   1.315   2.280   2.646
  968SOL     OW  637   1.593   2.083   2.744
  968SOL    HW1  638   1.509   2.082   2.798
  968SOL    HW2  639   1.595   2.166   2.688
  976SOL     OW  640   1.755   2.469   3.955
  976SOL    HW1  641   1.743   2.456   3.856
  976SOL    HW2  642   1.725   2.388   4.004
 1018SOL     OW  643   1.434   3.050   3.765
 1018SOL    HW1  644   1.466   2.974   3.822
 1018SOL    HW2  645   1.342   3.077   3.795
 1031SOL     OW  646   1.390   2.437   3.802
 1031SOL    HW1  647   1.336   2.416   3.883
 1031SOL    HW2  648   1.481   2.396   3.811
 1045SOL     OW  649   1.540   2.136   3.849
 1045SOL    HW1  650   1.479   2.061   3.872
 1045SOL    HW2  651   1.562   2.188   3.932
 1046SOL     OW  652   1.303   2.700   3.766
 1046SOL    HW1  653   1.337   2.607   3.781
 1046SOL    HW2  654   1.321   2.727   3.671
 1242SOL     OW  655   1.400   3.831   2.288
 1242SOL    HW1  656   1.376   3.794   2.198
 1242SOL    HW2  657   1.499   3.847   2.292
 1300SOL     OW  658   1.726   3.859   2.385
 1300SOL    HW1  659   1.799   3.842   2.318
 1300SOL    HW2  660   1.695   3.772   2.423
 1302SOL     OW  661   1.841   3.899   2.825
 1302SOL    HW1  662   1.880   3.814   2.789
 1302SOL    HW2  663   1.743   3.901   2.806
 1322SOL     OW  664   1.824   3.916   3.089
 1322SOL    HW1  665   1.820   3.826   3.133
 1322SOL    HW2  666   1.827   3.905   2.990
 1327SOL     OW  667   1.352   3.776   2.030
 1327SOL    HW1  668   1.387   3.735   1.946
 1327SOL    HW2  669   1.262   3.738   2.050
 1329SOL     OW  670   1.593   3.945   2.744
 1329SOL    HW1  671   1.509   3.944   2.798
 1329SOL    HW2  672   1.595   4.028   2.688
 1400SOL     OW  673   2.431   1.275   1.165
 1400SOL    HW1  674   2.338   1.268   1.128
 1400SOL    HW2  675   2.442   1.364   1.209
 1405SOL     OW  676   2.712   0.798   1.823
 1405SOL    HW1  677   2.708   0.874   1.888
 1405SOL    HW2  678   2.734   0.834   1.732
 1407SOL     OW  679   2.548   1.161   1.803
 1407SOL    HW1  680   2.608   1.240   1.817
 1407SOL    HW2  681   2.462   1.192   1.762
 1408SOL     OW  682   2.197   1.435   1.061
 1408SOL    HW1  683   2.119   1.404   1.008
 1408SOL    HW2  684   2.255   1.493   1.004
 1409SOL     OW  685   3.322   1.505   1.339
 1409SOL    HW1  686   3.346   1.599   1.365
 1409SOL    HW2  687   3.306   1.451   1.421
 1413SOL     OW  688   2.989   1.341   1.690
 1413SOL    HW1  689   3.036   1.341   1.778
 1413SOL    HW2  690   2.941   1.254   1.679
 1416SOL     OW  691   2.482   1.786   1.439
 1416SOL    HW1  692   2.390   1.769   1.474
 1416SOL    HW2  693   2.510   1.878   1.465
 1426SOL     OW  694   3.155   1.228   1.423
 1426SOL    HW1  695   3.192   1.155   1.365
 1426SOL    HW2  696   3.207   1.233   1.508
 1430SOL     OW  697   3.049   1.792   1.616
 1430SOL    HW1  698   3.073   1.852   1.540
 1430SOL    HW2  699   3.056   1.697   1.586
 1439SOL     OW  700   2.835   0.890   1.572
 1439SOL    HW1  701   2.881   0.806   1.543
 1439SOL    HW2  702   2.779   0.924   1.497
 1443SOL     OW  703   1.992   1.821   1.571
 1443SOL    HW1  704   1.982   1.806   1.670
 1443SOL    HW2  705   1.906   1.857   1.535
 1449SOL     OW  706   2.213   1.801   0.853
 1449SOL    HW1  707   2.263   1.715   0.859
 1449SOL    HW2  708   2.278   1.878   0.850
 1451SOL     OW  709   3.089   1.550   1.506
 1451SOL    HW1  710   3.095   1.473   1.570
 1451SOL    HW2  711   3.037   1.524   1.426
 1454SOL     OW  712   2.323   1.266   1.727
 1454SOL    HW1  713   2.273   1.267   1.641
 1454SOL    HW2  714   2.260   1.248   1.803
 1460SOL     OW  715   2.111   1.785   1.241
 1460SOL    HW1  716   2.168   1.720   1.291
 1460SOL    HW2  717   2.095   1.752   1.148
 1461SOL     OW  718   2.802   1.698   0.904
 1461SOL    HW1  719   2.882   1.641   0.925
 1461SOL    HW2  720   2.753   1.658   0.827
 1466SOL     OW  721   2.750   1.514   1.195
 1466SOL    HW1  722   2.727   1.489   1.101
 1466SOL    HW2  723   2.811   1.445   1.234
 1468SOL     OW  724   2.665   1.402   0.924
 1468SOL    HW1  725   2.755   1.416   0.882
 1468SOL    HW2  726   2.594   1.404   0.853
 1491SOL     OW  727   2.926   1.347   1.340
 1491SOL    HW1  728   2.846   1.324   1.395
 1491SOL    HW2  729   3.009   1.321   1.389
 1492SOL     OW  730   3.454   1.629   1.625
 1492SOL    HW1  731   3.481   1.663   1.535
 1492SOL    HW2  732   3.533   1.591   1.671
 1496SOL     OW  733   2.842   1.116   1.719
 1496SOL    HW1  734   2.743   1.122   1.729
 1496SOL    HW2  735   2.865   1.036   1.663
 1500SOL     OW  736   1.926   1.564   1.331
 1500SOL    HW1  737   1.880   1.646   1.297
 1500SOL    HW2  738   2.024   1.583   1.340
 1504SOL     OW  739   3.134   1.445   1.142
 1504SOL    HW1  740   3.181   1.458   1.229
 1504SOL    HW2  741   3.068   1.371   1.151
 1506SOL     OW  742   2.216   1.510   1.329
 1506SOL    HW1  743   2.195   1.466   1.242
 1506SOL    HW2  744   2.313   1.536   1.332
 1515SOL     OW  745   1.899   1.310   1.282
 1515SOL    HW1  746   1.952   1.261   1.350
 1515SOL    HW2  747   1.921   1.408   1.287
 1521SOL     OW  748   2.842   1.573   1.700
 1521SOL    HW1  749   2.822   1.617   1.612
 1521SOL    HW2  750   2.881   1.482   1.684
 1522SOL     OW  751   3.721   1.518   1.605
 1522SOL    HW1  752   3.735   1.545   1.510
 1522SOL    HW2  753   3.804   1.540   1.658
 1523SOL     OW  754   2.212   0.898   1.804
 1523SOL    HW1  755   2.288   0.942   1.852
 1523SOL    HW2  756   2.247   0.851   1.722
 1532SOL     OW  757   1.950   1.801   0.927
 1532SOL    HW1  758   1.908   1.715   0.900
 1532SOL    HW2  759   2.044   1.804   0.893
 1533SOL     OW  760   2.366   1.568   0.910
 1533SOL    HW1  761   2.432   1.642   0.919
 1533SOL    HW2  762   2.410   1.489   0.868
 1540SOL     OW  763   2.114   1.564   1.744
 1540SOL    HW1  764   2.084   1.621   1.820
 1540SOL    HW2  765   2.107   1.467   1.770
 1542SOL     OW  766   2.792   1.678   1.465
 1542SOL    HW1  767   2.768   1.660   1.370
 1542SOL    HW2  768   2.822   1.772   1.475
 1544SOL     OW  769   2.021   1.137   1.466
 1544SOL    HW1  770   2.043   1.076   1.542
 1544SOL    HW2  771   2.031   1.088   1.380
 1548SOL     OW  772   3.114   1.731   1.128
 1548SOL    HW1  773   3.198   1.736   1.074
 1548SOL    HW2  774   3.091   1.635   1.146
 1550SOL     OW  775   2.550   1.662   1.716
 1550SOL    HW1  776   2.494   1.743   1.725
 1550SOL    HW2  777   2.602   1.666   1.630
 1554SOL     OW  778   1.992   1.794   1.851
 1554SOL    HW1  779   1.951   1.720   1.904
 1554SOL    HW2  780   2.056   1.845   1.909
 1556SOL     OW  781   2.692   1.273   1.422
 1556SOL    HW1  782   2.687   1.306   1.517
 1556SOL    HW2  783   2.606   1.292   1.376
 1558SOL     OW  784   3.512   1.720   1.394
 1558SOL    HW1  785   3.565   1.730   1.310
 1558SOL    HW2  786   3.485   1.810   1.428
 1562SOL     OW  787   2.684   1.002   1.372
 1562SOL    HW1  788   2.724   1.001   1.280
 1562SOL    HW2  789   2.694   1.094   1.412
 1565SOL     OW  790   2.234   1.288   1.490
 1565SOL    HW1  791   2.221   1.381   1.456
 1565SOL    HW2  792   2.150   1.236   1.477
 1572SOL     OW  793   1.967   1.013   1.726
 1572SOL    HW1  794   1.890   0.980   1.780
 1572SOL    HW2  795   2.052   0.983   1.768
 1580SOL     OW  796   3.312   1.220   1.633
 1580SOL    HW1  797   3.303   1.210   1.732
 1580SOL    HW2  798   3.408   1.213   1.607
 1581SOL     OW  799   2.252   1.741   1.560
 1581SOL    HW1  800   2.161   1.782   1.558
 1581SOL    HW2  801   2.245   1.647   1.592
 1588SOL     OW  802   2.523   1.790   0.953
 1588SOL    HW1  803   2.477   1.878   0.940
 1588SOL    HW2  804   2.622   1.802   0.946
 1592SOL     OW  805   2.083   1.314   1.844
 1592SOL    HW1  806   2.018   1.241   1.823
 1592SOL    HW2  807   2.087   1.328   1.942
 1594SOL     OW  808   2.534   1.391   1.624
 1594SOL    HW1  809   2.456   1.341   1.662
 1594SOL    HW2  810   2.531   1.486   1.655
 1603SOL     OW  811   2.480   1.567   1.284
 1603SOL    HW1  812   2.475   1.649   1.341
 1603SOL    HW2  813   2.569   1.564   1.239
 1612SOL     OW  814   2.431   1.275   3.027
 1612SOL    HW1  815   2.338   1.268   2.990
 1612SOL    HW2  816   2.442   1.364   3.071
 1613SOL     OW  817   3.417   1.511   2.565
 1613SOL    HW1  818   3.360   1.495   2.646
 1613SOL    HW2  819   3.358   1.521   2.485
 1616SOL     OW  820   2.630   1.144   2.885
 1616SOL    HW1  821   2.552   1.161   2.945
 1616SOL    HW2  822   2.664   1.231   2.849
 1618SOL     OW  823   2.547   1.012   2.527
 1618SOL    HW1  824   2.616   0.996   2.597
 1618SOL    HW2  825   2.474   1.069   2.565
 1619SOL     OW  826   2.548   1.161   3.665
 1619SOL    HW1  827   2.608   1.240   3.679
 1619SOL    HW2  828   2.462   1.192   3.624
 1620SOL     OW  829   2.197   1.435   2.923
 1620SOL    HW1  830   2.119   1.404   2.870
 1620SOL    HW2  831   2.255   1.493   2.866
 1621SOL     OW  832   3.322   1.505   3.201
 1621SOL    HW1  833   3.346   1.599   3.227
 1621SOL    HW2  834   3.306   1.451   3.283
 1624SOL     OW  835   2.093   1.713   2.345
 1624SOL    HW1  836   2.127   1.790   2.399
 1624SOL    HW2  837   2.137   1.713   2.255
 1625SOL     OW  838   2.989   1.341   3.552
 1625SOL    HW1  839   3.036   1.341   3.640
 1625SOL    HW2  840   2.941   1.254   3.541
 1626SOL     OW  841   2.092   1.434   2.400
 1626SOL    HW1  842   2.066   1.530   2.400
 1626SOL    HW2  843   2.021   1.380   2.445
 1627SOL     OW  844   2.102   1.091   2.748
 1627SOL    HW1  845   2.116   1.007   2.800
 1627SOL    HW2  846   2.047   1.155   2.803
 1628SOL     OW  847   2.482   1.786   3.301
 1628SOL    HW1  848   2.390   1.769   3.336
 1628SOL    HW2  849   2.510   1.878   3.327
 1629SOL     OW  850   2.468   0.964   1.985
 1629SOL    HW1  851   2.475   1.048   1.931
 1629SOL    HW2  852   2.514   0.977   2.073
 1631SOL     OW  853   1.984   0.643   2.425
 1631SOL    HW1  854   1.939   0.555   2.442
 1631SOL    HW2  855   1.983   0.697   2.509
 1632SOL     OW  856   3.704   1.767   2.221
 1632SOL    HW1  857   3.758   1.738   2.301
 1632SOL    HW2  858   3.734   1.857   2.192
 1633SOL     OW  859   1.889   1.596   1.979
 1633SOL    HW1  860   1.870   1.500   2.000
 1633SOL    HW2  861   1.856   1.654   2.054
 1635SOL     OW  862   3.503   1.108   2.294
 1635SOL    HW1  863   3.589   1.110   2.242
 1635SOL    HW2  864   3.517   1.155   2.382
 1637SOL     OW  865   2.475   1.365   2.588
 1637SOL    HW1  866   2.426   1.278   2.597
 1637SOL    HW2  867   2.452   1.408   2.501
 1638SOL     OW  868   3.155   1.228   3.285
 1638SOL    HW1  869   3.192   1.155   3.227
 1638SOL    HW2  870   3.207   1.233   3.370
 1640SOL     OW  871   2.059   0.976   3.126
 1640SOL    HW1  872   2.148   0.931   3.112
 1640SOL    HW2  873   1.986   0.911   3.107
 1641SOL     OW  874   3.387   0.999   2.052
 1641SOL    HW1  875   3.324   0.923   2.065
 1641SOL    HW2  876   3.435   1.017   2.138
 1642SOL     OW  877   3.049   1.792   3.478
 1642SOL    HW1  878   3.073   1.852   3.402
 1642SOL    HW2  879   3.056   1.697   3.448
 1644SOL     OW  880   3.328   1.417   2.815
 1644SOL    HW1  881   3.269   1.423   2.895
 1644SOL    HW2  882   3.313   1.329   2.769
 1645SOL     OW  883   3.529   1.714   2.434
 1645SOL    HW1  884   3.488   1.691   2.346
 1645SOL    HW2  885   3.511   1.640   2.499
 1646SOL     OW  886   2.460   0.729   2.132
 1646SOL    HW1  887   2.484   0.798   2.064
 1646SOL    HW2  888   2.382   0.762   2.186
 1648SOL     OW  889   3.438   1.662   2.169
 1648SOL    HW1  890   3.527   1.708   2.172
 1648SOL    HW2  891   3.417   1.638   2.074
 1653SOL     OW  892   2.903   0.701   2.291
 1653SOL    HW1  893   2.929   0.697   2.387
 1653SOL    HW2  894   2.818   0.650   2.277
 1654SOL     OW  895   1.938   0.811   2.651
 1654SOL    HW1  896   2.037   0.799   2.660
 1654SOL    HW2  897   1.914   0.906   2.672
 1655SOL     OW  898   1.992   1.821   3.433
 1655SOL    HW1  899   1.982   1.806   3.532
 1655SOL    HW2  900   1.906   1.857   3.397
 1658SOL     OW  901   3.224   1.144   2.407
 1658SOL    HW1  902   3.307   1.115   2.359
 1658SOL    HW2  903   3.175   1.211   2.351
 1660SOL     OW  904   2.870   1.456   2.339
 1660SOL    HW1  905   2.824   1.528   2.287
 1660SOL    HW2  906   2.866   1.476   2.437
 1661SOL     OW  907   2.213   1.801   2.715
 1661SOL    HW1  908   2.263   1.715   2.721
 1661SOL    HW2  909   2.278   1.878   2.712
 1663SOL     OW  910   3.089   1.550   3.368
 1663SOL    HW1  911   3.095   1.473   3.432
 1663SOL    HW2  912   3.037   1.524   3.288
 1664SOL     OW  913   2.183   0.943   2.104
 1664SOL    HW1  914   2.265   0.982   2.062
 1664SOL    HW2  915   2.156   0.861   2.055
 1666SOL     OW  916   2.323   1.266   3.589
 1666SOL    HW1  917   2.273   1.267   3.503
 1666SOL    HW2  918   2.260   1.248   3.665
 1667SOL     OW  919   2.973   1.776   2.099
 1667SOL    HW1  920   2.913   1.714   2.149
 1667SOL    HW2  921   3.004   1.732   2.014
 1669SOL     OW  922   3.494   1.377   1.943
 1669SOL    HW1  923   3.462   1.471   1.933
 1669SOL    HW2  924   3.418   1.314   1.931
 1670SOL     OW  925   2.326   1.743   2.185
 1670SOL    HW1  926   2.359   1.782   2.271
 1670SOL    HW2  927   2.402   1.736   2.120
 1672SOL     OW  928   2.111   1.785   3.103
 1672SOL    HW1  929   2.168   1.720   3.153
 1672SOL    HW2  930   2.095   1.752   3.010
 1673SOL     OW  931   2.802   1.698   2.766
 1673SOL    HW1  932   2.882   1.641   2.787
 1673SOL    HW2  933   2.753   1.658   2.689
 1674SOL     OW  934   2.244   0.700   2.342
 1674SOL    HW1  935   2.289   0.610   2.339
 1674SOL    HW2  936   2.150   0.689   2.375
 1678SOL     OW  937   2.750   1.514   3.057
 1678SOL    HW1  938   2.727   1.489   2.963
 1678SOL    HW2  939   2.811   1.445   3.096
 1680SOL     OW  940   2.665   1.402   2.786
 1680SOL    HW1  941   2.755   1.416   2.744
 1680SOL    HW2  942   2.594   1.404   2.715
 1683SOL     OW  943   3.296   1.188   1.903
 1683SOL    HW1  944   3.328   1.112   1.960
 1683SOL    HW2  945   3.204   1.215   1.933
 1687SOL     OW  946   3.089   1.570   2.655
 1687SOL    HW1  947   3.110   1.644   2.590
 1687SOL    HW2  948   3.157   1.570   2.728
 1688SOL     OW  949   2.321   1.152   2.603
 1688SOL    HW1  950   2.250   1.125   2.668
 1688SOL    HW2  951   2.295   1.124   2.510
 1689SOL     OW  952   3.133   1.797   2.453
 1689SOL    HW1  953   3.177   1.861   2.389
 1689SOL    HW2  954   3.083   1.849   2.523
 1695SOL     OW  955   3.291   1.173   2.729
 1695SOL    HW1  956   3.236   1.089   2.722
 1695SOL    HW2  957   3.317   1.202   2.637
 1698SOL     OW  958   2.350   1.385   2.036
 1698SOL    HW1  959   2.263   1.370   2.083
 1698SOL    HW2  960   2.333   1.411   1.941
 1699SOL     OW  961   3.526   1.280   2.519
 1699SOL    HW1  962   3.625   1.288   2.533
 1699SOL    HW2  963   3.481   1.364   2.550
 1703SOL     OW  964   2.926   1.347   3.202
 1703SOL    HW1  965   2.846   1.324   3.257
 1703SOL    HW2  966   3.009   1.321   3.251
 1704SOL     OW  967   3.454   1.629   3.487
 1704SOL    HW1  968   3.481   1.663   3.397
 1704SOL    HW2  969   3.533   1.591   3.533
 1705SOL     OW  970   2.973   1.195   2.962
 1705SOL    HW1  971   2.933   1.239   3.043
 1705SOL    HW2  972   2.932   1.232   2.879
 1706SOL     OW  973   3.500   1.099   2.941
 1706SOL    HW1  974   3.505   1.180   3.000
 1706SOL    HW2  975   3.414   1.101   2.890
 1709SOL     OW  976   2.567   1.050   2.230
 1709SOL    HW1  977   2.553   1.057   2.329
 1709SOL    HW2  978   2.651   0.999   2.212
 1710SOL     OW  979   2.272   0.813   3.113
 1710SOL    HW1  980   2.358   0.825   3.163
 1710SOL    HW2  981   2.230   0.726   3.140
 1712SOL     OW  982   1.926   1.564   3.193
 1712SOL    HW1  983   1.880   1.646   3.159
 1712SOL    HW2  984   2.024   1.583   3.202
 1713SOL     OW  985   2.229   1.100   2.363
 1713SOL    HW1  986   2.222   1.183   2.307
 1713SOL    HW2  987   2.233   1.020   2.303
 1715SOL     OW  988   3.114   1.348   2.250
 1715SOL    HW1  989   3.164   1.425   2.290
 1715SOL    HW2  990   3.019   1.350   2.282
 1716SOL     OW  991   3.134   1.445   3.004
 1716SOL    HW1  992   3.181   1.458   3.091
 1716SOL    HW2  993   3.068   1.371   3.013
 1718SOL     OW  994   2.216   1.510   3.191
 1718SOL    HW1  995   2.195   1.466   3.104
 1718SOL    HW2  996   2.313   1.536   3.194
 1723SOL     OW  997   2.435   0.870   2.891
 1723SOL    HW1  998   2.479   0.959   2.882
 1723SOL    HW2  999   2.372   0.870   2.968
 1727SOL     OW 1000   1.899   1.310   3.144
 1727SOL    HW1 1001   1.952   1.261   3.212
 1727SOL    HW2 1002   1.921   1.408   3.149
 1732SOL     OW 1003   2.885   0.766   2.828
 1732SOL    HW1 1004   2.900   0.787   2.924
 1732SOL    HW2 1005   2.855   0.671   2.819
 1733SOL     OW 1006   2.842   1.573   3.562
 1733SOL    HW1 1007   2.822   1.617   3.474
 1733SOL    HW2 1008   2.881   1.482   3.546
 1738SOL     OW 1009   2.930   1.333   2.711
 1738SOL    HW1 1010   2.937   1.249   2.656
 1738SOL    HW2 1011   2.992   1.402   2.675
 1739SOL     OW 1012   2.181   0.810   2.811
 1739SOL    HW1 1013   2.274   0.846   2.816
 1739SOL    HW2 1014   2.175   0.725   2.863
 1743SOL     OW 1015   1.870   1.326   2.062
 1743SOL    HW1 1016   1.777   1.347   2.031
 1743SOL    HW2 1017   1.880   1.227   2.075
 1744SOL     OW 1018   1.950   1.801   2.789
 1744SOL    HW1 1019   1.908   1.715   2.762
 1744SOL    HW2 1020   2.044   1.804   2.755
 1745SOL     OW 1021   2.366   1.568   2.772
 1745SOL    HW1 1022   2.432   1.642   2.781
 1745SOL    HW2 1023   2.410   1.489   2.730
 1752SOL     OW 1024   2.114   1.564   3.606
 1752SOL    HW1 1025   2.084   1.621   3.682
 1752SOL    HW2 1026   2.107   1.467   3.632
 1754SOL     OW 1027   2.792   1.678   3.327
 1754SOL    HW1 1028   2.768   1.660   3.232
 1754SOL    HW2 1029   2.822   1.772   3.337
 1756SOL     OW 1030   2.021   1.137   3.328
 1756SOL    HW1 1031   2.043   1.076   3.404
 1756SOL    HW2 1032   2.031   1.088   3.242
 1757SOL     OW 1033   3.209   1.059   3.096
 1757SOL    HW1 1034   3.233   0.996   3.022
 1757SOL    HW2 1035   3.119   1.099   3.078
 1758SOL     OW 1036   3.164   0.855   2.171
 1758SOL    HW1 1037   3.078   0.824   2.213
 1758SOL    HW2 1038   3.160   0.841   2.072
 1759SOL     OW 1039   3.621   1.747   3.016
 1759SOL    HW1 1040   3.682   1.777   2.943
 1759SOL    HW2 1041   3.583   1.658   2.994
 1760SOL     OW 1042   3.114   1.731   2.990
 1760SOL    HW1 1043   3.198   1.736   2.936
 1760SOL    HW2 1044   3.091   1.635   3.008
 1761SOL     OW 1045   1.945   1.258   2.884
 1761SOL    HW1 1046   1.940   1.257   2.984
 1761SOL    HW2 1047   1.862   1.217   2.846
 1762SOL     OW 1048   2.550   1.662   3.578
 1762SOL    HW1 1049   2.494   1.743   3.587
 1762SOL    HW2 1050   2.602   1.666   3.492
 1764SOL     OW 1051   3.250   1.573   2.339
 1764SOL    HW1 1052   3.317   1.585   2.265
 1764SOL    HW2 1053   3.210   1.662   2.362
 1765SOL     OW 1054   1.992   1.794   3.713
 1765SOL    HW1 1055   1.951   1.720   3.766
 1765SOL    HW2 1056   2.056   1.845   3.771
 1766SOL     OW 1057   3.142   0.927   2.534
 1766SOL    HW1 1058   3.202   0.846   2.536
 1766SOL    HW2 1059   3.182   0.996   2.474
 1767SOL     OW 1060   2.692   1.273   3.284
 1767SOL    HW1 1061   2.687   1.306   3.379
 1767SOL    HW2 1062   2.606   1.292   3.238
 1768SOL     OW 1063   2.534   1.616   2.016
 1768SOL    HW1 1064   2.543   1.626   1.917
 1768SOL    HW2 1065   2.494   1.527   2.037
 1769SOL     OW 1066   3.512   1.720   3.256
 1769SOL    HW1 1067   3.565   1.730   3.172
 1769SOL    HW2 1068   3.485   1.810   3.290
 1772SOL     OW 1069   3.056   1.612   1.893
 1772SOL    HW1 1070   3.062   1.519   1.930
 1772SOL    HW2 1071   2.997   1.612   1.813
 1773SOL     OW 1072   2.684   1.002   3.234
 1773SOL    HW1 1073   2.724   1.001   3.142
 1773SOL    HW2 1074   2.694   1.094   3.274
 1774SOL     OW 1075   2.778   0.910   2.153
 1774SOL    HW1 1076   2.841   0.948   2.085
 1774SOL    HW2 1077   2.818   0.827   2.192
 1775SOL     OW 1078   3.366   1.607   1.906
 1775SOL    HW1 1079   3.274   1.644   1.913
 1775SOL    HW2 1080   3.404   1.627   1.816
 1776SOL     OW 1081   2.234   1.288   3.352
 1776SOL    HW1 1082   2.221   1.381   3.318
 1776SOL    HW2 1083   2.150   1.236   3.339
 1777SOL     OW 1084   3.476   1.292   3.151
 1777SOL    HW1 1085   3.536   1.295   3.231
 1777SOL    HW2 1086   3.401   1.356   3.164
 1778SOL     OW 1087   2.901   1.098   2.558
 1778SOL    HW1 1088   2.831   1.051   2.612
 1778SOL    HW2 1089   2.960   1.030   2.515
 1780SOL     OW 1090   2.452   1.487   2.353
 1780SOL    HW1 1091   2.494   1.429   2.283
 1780SOL    HW2 1092   2.408   1.566   2.309
 1782SOL     OW 1093   2.117   1.348   2.152
 1782SOL    HW1 1094   2.021   1.349   2.125
 1782SOL    HW2 1095   2.129   1.401   2.236
 1788SOL     OW 1096   3.045   1.335   1.981
 1788SOL    HW1 1097   2.946   1.324   1.983
 1788SOL    HW2 1098   3.079   1.350   2.074
 1789SOL     OW 1099   2.475   0.842   3.293
 1789SOL    HW1 1100   2.531   0.923   3.276
 1789SOL    HW2 1101   2.534   0.762   3.296
 1790SOL     OW 1102   3.355   1.767   2.821
 1790SOL    HW1 1103   3.388   1.831   2.752
 1790SOL    HW2 1104   3.421   1.761   2.896
 1793SOL     OW 1105   2.252   1.741   3.422
 1793SOL    HW1 1106   2.161   1.782   3.420
 1793SOL    HW2 1107   2.245   1.647   3.454
 1796SOL     OW 1108   2.456   0.745   2.514
 1796SOL    HW1 1109   2.506   0.830   2.495
 1796SOL    HW2 1110   2.368   0.747   2.466
 1799SOL     OW 1111   2.721   1.374   1.878
 1799SOL    HW1 1112   2.675   1.389   1.966
 1799SOL    HW2 1113   2.765   1.459   1.848
 1800SOL     OW 1114   2.523   1.790   2.815
 1800SOL    HW1 1115   2.477   1.878   2.802
 1800SOL    HW2 1116   2.622   1.802   2.808
 1801SOL     OW 1117   2.721   0.956   2.723
 1801SOL    HW1 1118   2.775   0.887   2.771
 1801SOL    HW2 1119   2.689   1.025   2.789
 1802SOL     OW 1120   2.945   0.984   1.949
 1802SOL    HW1 1121   2.922   1.037   1.867
 1802SOL    HW2 1122   3.026   0.928   1.930
 1803SOL     OW 1123   3.723   1.569   2.713
 1803SOL    HW1 1124   3.652   1.557   2.643
 1803SOL    HW2 1125   3.724   1.490   2.773
 1804SOL     OW 1126   2.083   1.314   3.706
 1804SOL    HW1 1127   2.018   1.241   3.685
 1804SOL    HW2 1128   2.087   1.328   3.804
 1805SOL     OW 1129   1.941   1.240   2.515
 1805SOL    HW1 1130   1.940   1.193   2.603
 1805SOL    HW2 1131   2.023   1.212   2.464
 1806SOL     OW 1132   2.534   1.391   3.486
 1806SOL    HW1 1133   2.456   1.341   3.524
 1806SOL    HW2 1134   2.531   1.486   3.517
 1809SOL     OW 1135   3.567   1.487   2.966
 1809SOL    HW1 1136   3.474   1.462   2.939
 1809SOL    HW2 1137   3.593   1.437   3.048
 1811SOL     OW 1138   2.674   1.586   2.549
 1811SOL    HW1 1139   2.706   1.596   2.455
 1811SOL    HW2 1140   2.595   1.524   2.551
 1814SOL     OW 1141   2.632   1.330   2.163
 1814SOL    HW1 1142   2.586   1.243   2.180
 1814SOL    HW2 1143   2.723   1.327   2.204
 1815SOL     OW 1144   2.480   1.567   3.146
 1815SOL    HW1 1145   2.475   1.649   3.203
 1815SOL    HW2 1146   2.569   1.564   3.101
 1819SOL     OW 1147   1.901   1.077   2.162
 1819SOL    HW1 1148   2.000   1.066   2.153
 1819SOL    HW2 1149   1.861   0.991   2.194
 1820SOL     OW 1150   2.737   1.646   2.199
 1820SOL    HW1 1151   2.660   1.611   2.145
 1820SOL    HW2 1152   2.705   1.717   2.261
 1837SOL     OW 1153   1.889   1.596   3.841
 1837SOL    HW1 1154   1.870   1.500   3.862
 1837SOL    HW2 1155   1.856   1.654   3.916
 1858SOL     OW 1156   2.973   1.776   3.961
 1858SOL    HW1 1157   2.913   1.714   4.011
 1858SOL    HW2 1158   3.004   1.732   3.876
 1860SOL     OW 1159   2.326   1.743   4.047
 1860SOL    HW1 1160   2.359   1.782   4.133
 1860SOL    HW2 1161   2.402   1.736   3.982
 1911SOL     OW 1162   2.534   1.616   3.878
 1911SOL    HW1 1163   2.543   1.626   3.779
 1911SOL    HW2 1164   2.494   1.527   3.899
 1914SOL     OW 1165   3.056   1.612   3.755
 1914SOL    HW1 1166   3.062   1.519   3.792
 1914SOL    HW2 1167   2.997   1.612   3.675
 1926SOL     OW 1168   2.721   1.374   3.740
 1926SOL    HW1 1169   2.675   1.389   3.828
 1926SOL    HW2 1170   2.765   1.459   3.710
 1942SOL     OW 1171   2.087   2.137   0.996
 1942SOL    HW1 1172   2.122   2.120   1.088
 1942SOL    HW2 1173   1.999   2.092   0.984
 1944SOL     OW 1174   2.431   3.137   1.165
 1944SOL    HW1 1175   2.338   3.130   1.128
 1944SOL    HW2 1176   2.442   3.226   1.209
 1946SOL     OW 1177   2.997   2.565   0.717
 1946SOL    HW1 1178   3.054   2.643   0.692
 1946SOL    HW2 1179   2.937   2.591   0.793
 1948SOL     OW 1180   2.630   3.006   1.023
 1948SOL    HW1 1181   2.552   3.023   1.083
 1948SOL    HW2 1182   2.664   3.093   0.987
 1949SOL     OW 1183   2.712   2.660   1.823
 1949SOL    HW1 1184   2.708   2.736   1.888
 1949SOL    HW2 1185   2.734   2.696   1.732
 1951SOL     OW 1186   2.548   3.023   1.803
 1951SOL    HW1 1187   2.608   3.102   1.817
 1951SOL    HW2 1188   2.462   3.054   1.762
 1952SOL     OW 1189   2.197   3.297   1.061
 1952SOL    HW1 1190   2.119   3.266   1.008
 1952SOL    HW2 1191   2.255   3.355   1.004
 1953SOL     OW 1192   3.322   3.367   1.339
 1953SOL    HW1 1193   3.346   3.461   1.365
 1953SOL    HW2 1194   3.306   3.313   1.421
 1954SOL     OW 1195   2.300   2.254   1.499
 1954SOL    HW1 1196   2.382   2.198   1.508
 1954SOL    HW2 1197   2.219   2.196   1.503
 1957SOL     OW 1198   2.989   3.203   1.690
 1957SOL    HW1 1199   3.036   3.203   1.778
 1957SOL    HW2 1200   2.941   3.116   1.679
 1959SOL     OW 1201   2.102   2.953   0.886
 1959SOL    HW1 1202   2.116   2.869   0.938
 1959SOL    HW2 1203   2.047   3.017   0.941
 1960SOL     OW 1204   2.482   3.648   1.439
 1960SOL    HW1 1205   2.390   3.631   1.474
 1960SOL    HW2 1206   2.510   3.740   1.465
 1962SOL     OW 1207   3.456   1.976   1.480
 1962SOL    HW1 1208   3.438   2.043   1.408
 1962SOL    HW2 1209   3.453   2.022   1.569
 1968SOL     OW 1210   1.975   2.599   1.597
 1968SOL    HW1 1211   2.063   2.586   1.642
 1968SOL    HW2 1212   1.962   2.696   1.575
 1970SOL     OW 1213   3.155   3.090   1.423
 1970SOL    HW1 1214   3.192   3.017   1.365
 1970SOL    HW2 1215   3.207   3.095   1.508
 1972SOL     OW 1216   2.059   2.838   1.264
 1972SOL    HW1 1217   2.148   2.793   1.250
 1972SOL    HW2 1218   1.986   2.773   1.245
 1974SOL     OW 1219   3.049   3.654   1.616
 1974SOL    HW1 1220   3.073   3.714   1.540
 1974SOL    HW2 1221   3.056   3.559   1.586
 1975SOL     OW 1222   2.179   2.113   1.801
 1975SOL    HW1 1223   2.250   2.184   1.807
 1975SOL    HW2 1224   2.091   2.152   1.829
 1979SOL     OW 1225   3.143   2.207   0.944
 1979SOL    HW1 1226   3.057   2.157   0.931
 1979SOL    HW2 1227   3.205   2.153   1.000
 1981SOL     OW 1228   2.669   2.467   1.465
 1981SOL    HW1 1229   2.622   2.464   1.554
 1981SOL    HW2 1230   2.618   2.412   1.399
 1982SOL     OW 1231   3.256   2.331   1.674
 1982SOL    HW1 1232   3.236   2.374   1.762
 1982SOL    HW2 1233   3.334   2.269   1.683
 1983SOL     OW 1234   2.835   2.752   1.572
 1983SOL    HW1 1235   2.881   2.668   1.543
 1983SOL    HW2 1236   2.779   2.786   1.497
 1984SOL     OW 1237   2.853   2.272   1.242
 1984SOL    HW1 1238   2.776   2.306   1.296
 1984SOL    HW2 1239   2.819   2.221   1.163
 1986SOL     OW 1240   1.938   2.673   0.789
 1986SOL    HW1 1241   2.037   2.661   0.798
 1986SOL    HW2 1242   1.914   2.768   0.810
 1987SOL     OW 1243   1.992   3.683   1.571
 1987SOL    HW1 1244   1.982   3.668   1.670
 1987SOL    HW2 1245   1.906   3.719   1.535
 1989SOL     OW 1246   3.581   2.447   1.831
 1989SOL    HW1 1247   3.555   2.536   1.795
 1989SOL    HW2 1248   3.579   2.379   1.758
 1991SOL     OW 1249   2.412   2.058   0.885
 1991SOL    HW1 1250   2.407   2.053   0.985
 1991SOL    HW2 1251   2.414   2.154   0.856
 1995SOL     OW 1252   3.089   3.412   1.506
 1995SOL    HW1 1253   3.095   3.335   1.570
 1995SOL    HW2 1254   3.037   3.386   1.426
 1998SOL     OW 1255   2.323   3.128   1.727
 1998SOL    HW1 1256   2.273   3.129   1.641
 1998SOL    HW2 1257   2.260   3.110   1.803
 2000SOL     OW 1258   2.064   2.147   1.498
 2000SOL    HW1 1259   1.984   2.207   1.485
 2000SOL    HW2 1260   2.054   2.098   1.584
 2004SOL     OW 1261   2.111   3.647   1.241
 2004SOL    HW1 1262   2.168   3.582   1.291
 2004SOL    HW2 1263   2.095   3.614   1.148
 2007SOL     OW 1264   3.409   2.084   1.729
 2007SOL    HW1 1265   3.404   2.121   1.821
 2007SOL    HW2 1266   3.337   2.015   1.717
 2009SOL     OW 1267   2.643   2.126   1.749
 2009SOL    HW1 1268   2.710   2.065   1.792
 2009SOL    HW2 1269   2.570   2.145   1.814
 2010SOL     OW 1270   2.750   3.376   1.195
 2010SOL    HW1 1271   2.727   3.351   1.101
 2010SOL    HW2 1272   2.811   3.307   1.234
 2011SOL     OW 1273   3.213   2.452   1.433
 2011SOL    HW1 1274   3.241   2.409   1.518
 2011SOL    HW2 1275   3.238   2.548   1.434
 2012SOL     OW 1276   2.665   3.264   0.924
 2012SOL    HW1 1277   2.755   3.278   0.882
 2012SOL    HW2 1278   2.594   3.266   0.853
 2013SOL     OW 1279   2.784   2.365   0.899
 2013SOL    HW1 1280   2.759   2.356   0.803
 2013SOL    HW2 1281   2.832   2.283   0.930
 2017SOL     OW 1282   2.938   2.545   1.464
 2017SOL    HW1 1283   2.858   2.484   1.467
 2017SOL    HW2 1284   3.019   2.492   1.440
 2019SOL     OW 1285   2.321   3.014   0.741
 2019SOL    HW1 1286   2.250   2.987   0.806
 2019SOL    HW2 1287   2.295   2.986   0.648
 2022SOL     OW 1288   1.940   2.418   1.386
 2022SOL    HW1 1289   2.032   2.417   1.345
 2022SOL    HW2 1290   1.934   2.492   1.453
 2023SOL     OW 1291   2.423   2.084   1.147
 2023SOL    HW1 1292   2.461   2.000   1.184
 2023SOL    HW2 1293   2.335   2.103   1.191
 2024SOL     OW 1294   2.728   2.316   0.642
 2024SOL    HW1 1295   2.696   2.388   0.580
 2024SOL    HW2 1296   2.752   2.235   0.589
 2025SOL     OW 1297   2.879   1.901   0.753
 2025SOL    HW1 1298   2.807   1.906   0.684
 2025SOL    HW2 1299   2.855   1.832   0.822
 2027SOL     OW 1300   3.328   2.452   0.992
 2027SOL    HW1 1301   3.298   2.357   0.999
 2027SOL    HW2 1302   3.401   2.468   1.058
 2033SOL     OW 1303   3.616   3.085   1.588
 2033SOL    HW1 1304   3.707   3.046   1.575
 2033SOL    HW2 1305   3.624   3.181   1.612
 2034SOL     OW 1306   2.926   3.209   1.340
 2034SOL    HW1 1307   2.846   3.186   1.395
 2034SOL    HW2 1308   3.009   3.183   1.389
 2035SOL     OW 1309   3.454   3.491   1.625
 2035SOL    HW1 1310   3.481   3.525   1.535
 2035SOL    HW2 1311   3.533   3.453   1.671
 2036SOL     OW 1312   2.973   3.057   1.100
 2036SOL    HW1 1313   2.933   3.101   1.181
 2036SOL    HW2 1314   2.932   3.094   1.017
 2038SOL     OW 1315   2.777   1.951   1.402
 2038SOL    HW1 1316   2.802   1.931   1.307
 2038SOL    HW2 1317   2.849   2.007   1.444
 2039SOL     OW 1318   2.842   2.978   1.719
 2039SOL    HW1 1319   2.743   2.984   1.729
 2039SOL    HW2 1320   2.865   2.898   1.663
 2041SOL     OW 1321   2.272   2.675   1.251
 2041SOL    HW1 1322   2.358   2.687   1.301
 2041SOL    HW2 1323   2.230   2.588   1.278
 2042SOL     OW 1324   3.136   2.248   1.262
 2042SOL    HW1 1325   3.157   2.322   1.326
 2042SOL    HW2 1326   3.047   2.265   1.219
 2043SOL     OW 1327   1.926   3.426   1.331
 2043SOL    HW1 1328   1.880   3.508   1.297
 2043SOL    HW2 1329   2.024   3.445   1.340
 2045SOL     OW 1330   2.428   2.399   0.865
 2045SOL    HW1 1331   2.440   2.465   0.791
 2045SOL    HW2 1332   2.474   2.433   0.948
 2047SOL     OW 1333   3.134   3.307   1.142
 2047SOL    HW1 1334   3.181   3.320   1.229
 2047SOL    HW2 1335   3.068   3.233   1.151
 2049SOL     OW 1336   2.216   3.372   1.329
 2049SOL    HW1 1337   2.195   3.328   1.242
 2049SOL    HW2 1338   2.313   3.398   1.332
 2050SOL     OW 1339   2.264   2.613   1.598
 2050SOL    HW1 1340   2.332   2.668   1.551
 2050SOL    HW2 1341   2.304   2.525   1.625
 2051SOL     OW 1342   3.449   2.641   1.670
 2051SOL    HW1 1343   3.357   2.679   1.665
 2051SOL    HW2 1344   3.509   2.688   1.605
 2052SOL     OW 1345   2.875   1.967   1.770
 2052SOL    HW1 1346   2.881   2.052   1.718
 2052SOL    HW2 1347   2.907   1.891   1.713
 2053SOL     OW 1348   2.366   1.912   1.740
 2053SOL    HW1 1349   2.324   1.855   1.670
 2053SOL    HW2 1350   2.300   1.981   1.772
 2054SOL     OW 1351   2.435   2.732   1.029
 2054SOL    HW1 1352   2.479   2.821   1.020
 2054SOL    HW2 1353   2.372   2.732   1.106
 2055SOL     OW 1354   3.222   2.724   1.045
 2055SOL    HW1 1355   3.147   2.724   0.979
 2055SOL    HW2 1356   3.259   2.632   1.054
 2057SOL     OW 1357   2.169   2.075   1.231
 2057SOL    HW1 1358   2.146   2.112   1.321
 2057SOL    HW2 1359   2.139   1.980   1.225
 2058SOL     OW 1360   1.899   3.172   1.282
 2058SOL    HW1 1361   1.952   3.123   1.350
 2058SOL    HW2 1362   1.921   3.270   1.287
 2059SOL     OW 1363   2.594   2.496   1.064
 2059SOL    HW1 1364   2.653   2.470   0.988
 2059SOL    HW2 1365   2.566   2.592   1.053
 2060SOL     OW 1366   3.590   2.797   1.854
 2060SOL    HW1 1367   3.544   2.790   1.765
 2060SOL    HW2 1368   3.528   2.841   1.920
 2063SOL     OW 1369   2.885   2.628   0.966
 2063SOL    HW1 1370   2.900   2.649   1.062
 2063SOL    HW2 1371   2.855   2.533   0.957
 2064SOL     OW 1372   2.842   3.435   1.700
 2064SOL    HW1 1373   2.822   3.479   1.612
 2064SOL    HW2 1374   2.881   3.344   1.684
 2066SOL     OW 1375   2.212   2.760   1.804
 2066SOL    HW1 1376   2.288   2.804   1.852
 2066SOL    HW2 1377   2.247   2.713   1.722
 2070SOL     OW 1378   2.181   2.672   0.949
 2070SOL    HW1 1379   2.274   2.708   0.954
 2070SOL    HW2 1380   2.175   2.587   1.001
 2071SOL     OW 1381   2.201   2.371   1.006
 2071SOL    HW1 1382   2.149   2.288   0.989
 2071SOL    HW2 1383   2.278   2.376   0.942
 2072SOL     OW 1384   3.000   2.242   1.678
 2072SOL    HW1 1385   2.955   2.305   1.742
 2072SOL    HW2 1386   3.093   2.273   1.661
 2073SOL     OW 1387   3.022   2.069   1.477
 2073SOL    HW1 1388   3.022   2.133   1.554
 2073SOL    HW2 1389   3.050   2.117   1.394
 2077SOL     OW 1390   2.864   2.658   1.238
 2077SOL    HW1 1391   2.905   2.626   1.324
 2077SOL    HW2 1392   2.768   2.631   1.235
 2078SOL     OW 1393   1.902   2.406   1.114
 2078SOL    HW1 1394   1.987   2.373   1.073
 2078SOL    HW2 1395   1.915   2.421   1.212
 2079SOL     OW 1396   2.051   2.382   1.722
 2079SOL    HW1 1397   2.110   2.342   1.652
 2079SOL    HW2 1398   1.993   2.453   1.681
 2080SOL     OW 1399   3.231   2.812   1.660
 2080SOL    HW1 1400   3.270   2.901   1.680
 2080SOL    HW2 1401   3.241   2.792   1.563
 2082SOL     OW 1402   3.519   2.466   1.206
 2082SOL    HW1 1403   3.481   2.397   1.268
 2082SOL    HW2 1404   3.601   2.430   1.162
 2083SOL     OW 1405   2.114   3.426   1.744
 2083SOL    HW1 1406   2.084   3.483   1.820
 2083SOL    HW2 1407   2.107   3.329   1.770
 2084SOL     OW 1408   2.533   2.326   1.269
 2084SOL    HW1 1409   2.499   2.237   1.239
 2084SOL    HW2 1410   2.559   2.380   1.189
 2085SOL     OW 1411   2.792   3.540   1.465
 2085SOL    HW1 1412   2.768   3.522   1.370
 2085SOL    HW2 1413   2.822   3.634   1.475
 2087SOL     OW 1414   2.021   2.999   1.466
 2087SOL    HW1 1415   2.043   2.938   1.542
 2087SOL    HW2 1416   2.031   2.950   1.380
 2088SOL     OW 1417   3.209   2.921   1.234
 2088SOL    HW1 1418   3.233   2.858   1.160
 2088SOL    HW2 1419   3.119   2.961   1.216
 2092SOL     OW 1420   1.945   3.120   1.022
 2092SOL    HW1 1421   1.940   3.119   1.122
 2092SOL    HW2 1422   1.862   3.079   0.984
 2093SOL     OW 1423   2.550   3.524   1.716
 2093SOL    HW1 1424   2.494   3.605   1.725
 2093SOL    HW2 1425   2.602   3.528   1.630
 2097SOL     OW 1426   1.992   3.656   1.851
 2097SOL    HW1 1427   1.951   3.582   1.904
 2097SOL    HW2 1428   2.056   3.707   1.909
 2099SOL     OW 1429   2.692   3.135   1.422
 2099SOL    HW1 1430   2.687   3.168   1.517
 2099SOL    HW2 1431   2.606   3.154   1.376
 2103SOL     OW 1432   2.125   2.188   0.720
 2103SOL    HW1 1433   2.046   2.239   0.686
 2103SOL    HW2 1434   2.116   2.173   0.818
 2105SOL     OW 1435   2.684   2.864   1.372
 2105SOL    HW1 1436   2.724   2.863   1.280
 2105SOL    HW2 1437   2.694   2.956   1.412
 2108SOL     OW 1438   2.234   3.150   1.490
 2108SOL    HW1 1439   2.221   3.243   1.456
 2108SOL    HW2 1440   2.150   3.098   1.477
 2109SOL     OW 1441   3.476   3.154   1.289
 2109SOL    HW1 1442   3.536   3.157   1.369
 2109SOL    HW2 1443   3.401   3.218   1.302
 2111SOL     OW 1444   2.876   2.098   0.971
 2111SOL    HW1 1445   2.868   2.062   0.878
 2111SOL    HW2 1446   2.874   2.022   1.036
 2113SOL     OW 1447   3.571   2.247   1.381
 2113SOL    HW1 1448   3.644   2.316   1.385
 2113SOL    HW2 1449   3.599   2.172   1.322
 2115SOL     OW 1450   1.967   2.875   1.726
 2115SOL    HW1 1451   1.890   2.842   1.780
 2115SOL    HW2 1452   2.052   2.845   1.768
 2116SOL     OW 1453   2.534   2.065   1.489
 2116SOL    HW1 1454   2.624   2.049   1.449
 2116SOL    HW2 1455   2.542   2.070   1.588
 2118SOL     OW 1456   3.302   2.718   1.398
 2118SOL    HW1 1457   3.245   2.770   1.335
 2118SOL    HW2 1458   3.398   2.730   1.374
 2120SOL     OW 1459   2.475   2.704   1.431
 2120SOL    HW1 1460   2.531   2.785   1.414
 2120SOL    HW2 1461   2.534   2.624   1.434
 2122SOL     OW 1462   2.578   2.427   1.708
 2122SOL    HW1 1463   2.597   2.492   1.782
 2122SOL    HW2 1464   2.638   2.347   1.717
 2123SOL     OW 1465   3.312   3.082   1.633
 2123SOL    HW1 1466   3.303   3.072   1.732
 2123SOL    HW2 1467   3.408   3.075   1.607
 2124SOL     OW 1468   2.252   3.603   1.560
 2124SOL    HW1 1469   2.161   3.644   1.558
 2124SOL    HW2 1470   2.245   3.509   1.592
 2125SOL     OW 1471   3.536   2.745   1.254
 2125SOL    HW1 1472   3.509   2.656   1.217
 2125SOL    HW2 1473   3.537   2.813   1.181
 2127SOL     OW 1474   2.456   2.607   0.652
 2127SOL    HW1 1475   2.506   2.692   0.633
 2127SOL    HW2 1476   2.368   2.609   0.604
 2128SOL     OW 1477   3.639   2.204   1.642
 2128SOL    HW1 1478   3.622   2.235   1.548
 2128SOL    HW2 1479   3.555   2.167   1.680
 2129SOL     OW 1480   3.592   2.796   1.517
 2129SOL    HW1 1481   3.630   2.887   1.532
 2129SOL    HW2 1482   3.584   2.779   1.418
 2132SOL     OW 1483   2.721   2.818   0.861
 2132SOL    HW1 1484   2.775   2.749   0.909
 2132SOL    HW2 1485   2.689   2.887   0.927
 2135SOL     OW 1486   2.083   3.176   1.844
 2135SOL    HW1 1487   2.018   3.103   1.823
 2135SOL    HW2 1488   2.087   3.190   1.942
 2137SOL     OW 1489   2.534   3.253   1.624
 2137SOL    HW1 1490   2.456   3.203   1.662
 2137SOL    HW2 1491   2.531   3.348   1.655
 2138SOL     OW 1492   3.686   2.054   1.227
 2138SOL    HW1 1493   3.682   1.964   1.271
 2138SOL    HW2 1494   3.689   2.043   1.128
 2141SOL     OW 1495   2.179   2.409   1.280
 2141SOL    HW1 1496   2.217   2.350   1.352
 2141SOL    HW2 1497   2.219   2.383   1.192
 2143SOL     OW 1498   3.286   2.076   1.112
 2143SOL    HW1 1499   3.338   2.011   1.167
 2143SOL    HW2 1500   3.237   2.139   1.173
 2144SOL     OW 1501   2.863   1.896   1.154
 2144SOL    HW1 1502   2.800   1.824   1.123
 2144SOL    HW2 1503   2.956   1.860   1.154
 2146SOL     OW 1504   2.480   3.429   1.284
 2146SOL    HW1 1505   2.475   3.511   1.341
 2146SOL    HW2 1506   2.569   3.426   1.239
 2152SOL     OW 1507   2.092   2.490   1.975
 2152SOL    HW1 1508   1.999   2.488   2.012
 2152SOL    HW2 1509   2.093   2.451   1.883
 2153SOL     OW 1510   2.087   2.137   2.858
 2153SOL    HW1 1511   2.122   2.120   2.950
 2153SOL    HW2 1512   1.999   2.092   2.846
 2154SOL     OW 1513   1.881   2.230   2.509
 2154SOL    HW1 1514   1.799   2.273   2.548
 2154SOL    HW2 1515   1.853   2.157   2.446
 2155SOL     OW 1516   2.431   3.137   3.027
 2155SOL    HW1 1517   2.338   3.130   2.990
 2155SOL    HW2 1518   2.442   3.226   3.071
 2156SOL     OW 1519   3.417   3.373   2.565
 2156SOL    HW1 1520   3.360   3.357   2.646
 2156SOL    HW2 1521   3.358   3.383   2.485
 2157SOL     OW 1522   2.997   2.565   2.579
 2157SOL    HW1 1523   3.054   2.643   2.554
 2157SOL    HW2 1524   2.937   2.591   2.655
 2158SOL     OW 1525   3.617   2.469   2.093
 2158SOL    HW1 1526   3.605   2.456   1.994
 2158SOL    HW2 1527   3.587   2.388   2.142
 2159SOL     OW 1528   2.630   3.006   2.885
 2159SOL    HW1 1529   2.552   3.023   2.945
 2159SOL    HW2 1530   2.664   3.093   2.849
 2160SOL     OW 1531   2.712   2.660   3.685
 2160SOL    HW1 1532   2.708   2.736   3.750
 2160SOL    HW2 1533   2.734   2.696   3.594
 2161SOL     OW 1534   2.547   2.874   2.527
 2161SOL    HW1 1535   2.616   2.858   2.597
 2161SOL    HW2 1536   2.474   2.931   2.565
 2162SOL     OW 1537   2.548   3.023   3.665
 2162SOL    HW1 1538   2.608   3.102   3.679
 2162SOL    HW2 1539   2.462   3.054   3.624
 2163SOL     OW 1540   2.197   3.297   2.923
 2163SOL    HW1 1541   2.119   3.266   2.870
 2163SOL    HW2 1542   2.255   3.355   2.866
 2164SOL     OW 1543   3.322   3.367   3.201
 2164SOL    HW1 1544   3.346   3.461   3.227
 2164SOL    HW2 1545   3.306   3.313   3.283
 2165SOL     OW 1546   2.300   2.254   3.361
 2165SOL    HW1 1547   2.382   2.198   3.370
 2165SOL    HW2 1548   2.219   2.196   3.365
 2166SOL     OW 1549   3.465   2.309   2.599
 2166SOL    HW1 1550   3.391   2.355   2.549
 2166SOL    HW2 1551   3.516   2.377   2.652
 2167SOL     OW 1552   2.093   3.575   2.345
 2167SOL    HW1 1553   2.127   3.652   2.399
 2167SOL    HW2 1554   2.137   3.575   2.255
 2168SOL     OW 1555   2.989   3.203   3.552
 2168SOL    HW1 1556   3.036   3.203   3.640
 2168SOL    HW2 1557   2.941   3.116   3.541
 2169SOL     OW 1558   2.092   3.296   2.400
 2169SOL    HW1 1559   2.066   3.392   2.400
 2169SOL    HW2 1560   2.021   3.242   2.445
 2170SOL     OW 1561   2.102   2.953   2.748
 2170SOL    HW1 1562   2.116   2.869   2.800
 2170SOL    HW2 1563   2.047   3.017   2.803
 2171SOL     OW 1564   2.482   3.648   3.301
 2171SOL    HW1 1565   2.390   3.631   3.336
 2171SOL    HW2 1566   2.510   3.740   3.327
 2172SOL     OW 1567   2.468   2.826   1.985
 2172SOL    HW1 1568   2.475   2.910   1.931
 2172SOL    HW2 1569   2.514   2.839   2.073
 2173SOL     OW 1570   3.456   1.976   3.342
 2173SOL    HW1 1571   3.438   2.043   3.270
 2173SOL    HW2 1572   3.453   2.022   3.431
 2174SOL     OW 1573   1.984   2.505   2.425
 2174SOL    HW1 1574   1.939   2.417   2.442
 2174SOL    HW2 1575   1.983   2.559   2.509
 2176SOL     OW 1576   1.889   3.458   1.979
 2176SOL    HW1 1577   1.870   3.362   2.000
 2176SOL    HW2 1578   1.856   3.516   2.054
 2177SOL     OW 1579   3.551   2.784   2.474
 2177SOL    HW1 1580   3.646   2.755   2.482
 2177SOL    HW2 1581   3.543   2.849   2.399
 2178SOL     OW 1582   3.503   2.970   2.294
 2178SOL    HW1 1583   3.589   2.972   2.242
 2178SOL    HW2 1584   3.517   3.017   2.382
 2179SOL     OW 1585   1.975   2.599   3.459
 2179SOL    HW1 1586   2.063   2.586   3.504
 2179SOL    HW2 1587   1.962   2.696   3.437
 2180SOL     OW 1588   2.475   3.227   2.588
 2180SOL    HW1 1589   2.426   3.140   2.597
 2180SOL    HW2 1590   2.452   3.270   2.501
 2181SOL     OW 1591   3.155   3.090   3.285
 2181SOL    HW1 1592   3.192   3.017   3.227
 2181SOL    HW2 1593   3.207   3.095   3.370
 2182SOL     OW 1594   2.671   1.866   2.364
 2182SOL    HW1 1595   2.711   1.957   2.355
 2182SOL    HW2 1596   2.571   1.874   2.370
 2183SOL     OW 1597   2.059   2.838   3.126
 2183SOL    HW1 1598   2.148   2.793   3.112
 2183SOL    HW2 1599   1.986   2.773   3.107
 2184SOL     OW 1600   3.387   2.861   2.052
 2184SOL    HW1 1601   3.324   2.785   2.065
 2184SOL    HW2 1602   3.435   2.879   2.138
 2185SOL     OW 1603   3.049   3.654   3.478
 2185SOL    HW1 1604   3.073   3.714   3.402
 2185SOL    HW2 1605   3.056   3.559   3.448
 2186SOL     OW 1606   2.179   2.113   3.663
 2186SOL    HW1 1607   2.250   2.184   3.669
 2186SOL    HW2 1608   2.091   2.152   3.691
 2187SOL     OW 1609   3.328   3.279   2.815
 2187SOL    HW1 1610   3.269   3.285   2.895
 2187SOL    HW2 1611   3.313   3.191   2.769
 2188SOL     OW 1612   3.529   3.576   2.434
 2188SOL    HW1 1613   3.488   3.553   2.346
 2188SOL    HW2 1614   3.511   3.502   2.499
 2189SOL     OW 1615   3.143   2.207   2.806
 2189SOL    HW1 1616   3.057   2.157   2.793
 2189SOL    HW2 1617   3.205   2.153   2.862
 2190SOL     OW 1618   3.438   3.524   2.169
 2190SOL    HW1 1619   3.527   3.570   2.172
 2190SOL    HW2 1620   3.417   3.500   2.074
 2191SOL     OW 1621   2.669   2.467   3.327
 2191SOL    HW1 1622   2.622   2.464   3.416
 2191SOL    HW2 1623   2.618   2.412   3.261
 2192SOL     OW 1624   3.256   2.331   3.536
 2192SOL    HW1 1625   3.236   2.374   3.624
 2192SOL    HW2 1626   3.334   2.269   3.545
 2193SOL     OW 1627   2.835   2.752   3.434
 2193SOL    HW1 1628   2.881   2.668   3.405
 2193SOL    HW2 1629   2.779   2.786   3.359
 2194SOL     OW 1630   2.853   2.272   3.104
 2194SOL    HW1 1631   2.776   2.306   3.158
 2194SOL    HW2 1632   2.819   2.221   3.025
 2195SOL     OW 1633   2.903   2.563   2.291
 2195SOL    HW1 1634   2.929   2.559   2.387
 2195SOL    HW2 1635   2.818   2.512   2.277
 2196SOL     OW 1636   1.938   2.673   2.651
 2196SOL    HW1 1637   2.037   2.661   2.660
 2196SOL    HW2 1638   1.914   2.768   2.672
 2197SOL     OW 1639   1.992   3.683   3.433
 2197SOL    HW1 1640   1.982   3.668   3.532
 2197SOL    HW2 1641   1.906   3.719   3.397
 2198SOL     OW 1642   2.727   2.210   2.057
 2198SOL    HW1 1643   2.786   2.273   2.008
 2198SOL    HW2 1644   2.746   2.116   2.028
 2199SOL     OW 1645   3.581   2.447   3.693
 2199SOL    HW1 1646   3.555   2.536   3.657
 2199SOL    HW2 1647   3.579   2.379   3.620
 2200SOL     OW 1648   3.224   3.006   2.407
 2200SOL    HW1 1649   3.307   2.977   2.359
 2200SOL    HW2 1650   3.175   3.073   2.351
 2201SOL     OW 1651   2.412   2.058   2.747
 2201SOL    HW1 1652   2.407   2.053   2.847
 2201SOL    HW2 1653   2.414   2.154   2.718
 2202SOL     OW 1654   2.870   3.318   2.339
 2202SOL    HW1 1655   2.824   3.390   2.287
 2202SOL    HW2 1656   2.866   3.338   2.437
 2203SOL     OW 1657   2.213   3.663   2.715
 2203SOL    HW1 1658   2.263   3.577   2.721
 2203SOL    HW2 1659   2.278   3.740   2.712
 2204SOL     OW 1660   3.657   2.928   2.735
 2204SOL    HW1 1661   3.595   2.913   2.659
 2204SOL    HW2 1662   3.605   2.939   2.820
 2205SOL     OW 1663   3.089   3.412   3.368
 2205SOL    HW1 1664   3.095   3.335   3.432
 2205SOL    HW2 1665   3.037   3.386   3.288
 2206SOL     OW 1666   2.183   2.805   2.104
 2206SOL    HW1 1667   2.265   2.844   2.062
 2206SOL    HW2 1668   2.156   2.723   2.055
 2207SOL     OW 1669   3.320   2.597   2.590
 2207SOL    HW1 1670   3.315   2.532   2.665
 2207SOL    HW2 1671   3.400   2.656   2.603
 2208SOL     OW 1672   2.323   3.128   3.589
 2208SOL    HW1 1673   2.273   3.129   3.503
 2208SOL    HW2 1674   2.260   3.110   3.665
 2209SOL     OW 1675   2.973   3.638   2.099
 2209SOL    HW1 1676   2.913   3.576   2.149
 2209SOL    HW2 1677   3.004   3.594   2.014
 2210SOL     OW 1678   2.064   2.147   3.360
 2210SOL    HW1 1679   1.984   2.207   3.347
 2210SOL    HW2 1680   2.054   2.098   3.446
 2211SOL     OW 1681   3.494   3.239   1.943
 2211SOL    HW1 1682   3.462   3.333   1.933
 2211SOL    HW2 1683   3.418   3.176   1.931
 2212SOL     OW 1684   2.326   3.605   2.185
 2212SOL    HW1 1685   2.359   3.644   2.271
 2212SOL    HW2 1686   2.402   3.598   2.120
 2213SOL     OW 1687   3.262   1.969   2.288
 2213SOL    HW1 1688   3.238   1.932   2.198
 2213SOL    HW2 1689   3.361   1.985   2.292
 2214SOL     OW 1690   2.111   3.647   3.103
 2214SOL    HW1 1691   2.168   3.582   3.153
 2214SOL    HW2 1692   2.095   3.614   3.010
 2215SOL     OW 1693   2.802   3.560   2.766
 2215SOL    HW1 1694   2.882   3.503   2.787
 2215SOL    HW2 1695   2.753   3.520   2.689
 2216SOL     OW 1696   3.409   2.084   3.591
 2216SOL    HW1 1697   3.404   2.121   3.683
 2216SOL    HW2 1698   3.337   2.015   3.579
 2217SOL     OW 1699   2.476   1.984   1.979
 2217SOL    HW1 1700   2.574   1.962   1.986
 2217SOL    HW2 1701   2.445   1.967   1.886
 2218SOL     OW 1702   2.643   2.126   3.611
 2218SOL    HW1 1703   2.710   2.065   3.654
 2218SOL    HW2 1704   2.570   2.145   3.676
 2219SOL     OW 1705   2.750   3.376   3.057
 2219SOL    HW1 1706   2.727   3.351   2.963
 2219SOL    HW2 1707   2.811   3.307   3.096
 2220SOL     OW 1708   3.213   2.452   3.295
 2220SOL    HW1 1709   3.241   2.409   3.380
 2220SOL    HW2 1710   3.238   2.548   3.296
 2221SOL     OW 1711   2.665   3.264   2.786
 2221SOL    HW1 1712   2.755   3.278   2.744
 2221SOL    HW2 1713   2.594   3.266   2.715
 2222SOL     OW 1714   2.784   2.365   2.761
 2222SOL    HW1 1715   2.759   2.356   2.665
 2222SOL    HW2 1716   2.832   2.283   2.792
 2223SOL     OW 1717   2.401   1.926   2.374
 2223SOL    HW1 1718   2.320   1.927   2.432
 2223SOL    HW2 1719   2.404   2.009   2.319
 2224SOL     OW 1720   3.296   3.050   1.903
 2224SOL    HW1 1721   3.328   2.974   1.960
 2224SOL    HW2 1722   3.204   3.077   1.933
 2225SOL     OW 1723   2.159   1.897   2.033
 2225SOL    HW1 1724   2.208   1.981   2.012
 2225SOL    HW2 1725   2.221   1.832   2.078
 2226SOL     OW 1726   2.797   2.098   2.342
 2226SOL    HW1 1727   2.749   2.139   2.264
 2226SOL    HW2 1728   2.896   2.096   2.323
 2227SOL     OW 1729   2.938   2.545   3.326
 2227SOL    HW1 1730   2.858   2.484   3.329
 2227SOL    HW2 1731   3.019   2.492   3.302
 2228SOL     OW 1732   3.089   3.432   2.655
 2228SOL    HW1 1733   3.110   3.506   2.590
 2228SOL    HW2 1734   3.157   3.432   2.728
 2229SOL     OW 1735   2.321   3.014   2.603
 2229SOL    HW1 1736   2.250   2.987   2.668
 2229SOL    HW2 1737   2.295   2.986   2.510
 2230SOL     OW 1738   3.133   3.659   2.453
 2230SOL    HW1 1739   3.177   3.723   2.389
 2230SOL    HW2 1740   3.083   3.711   2.523
 2231SOL     OW 1741   2.894   2.411   1.878
 2231SOL    HW1 1742   2.853   2.493   1.839
 2231SOL    HW2 1743   2.958   2.437   1.951
 2232SOL     OW 1744   1.940   2.418   3.248
 2232SOL    HW1 1745   2.032   2.417   3.207
 2232SOL    HW2 1746   1.934   2.492   3.315
 2233SOL     OW 1747   2.423   2.084   3.009
 2233SOL    HW1 1748   2.461   2.000   3.046
 2233SOL    HW2 1749   2.335   2.103   3.053
 2234SOL     OW 1750   2.728   2.316   2.504
 2234SOL    HW1 1751   2.696   2.388   2.442
 2234SOL    HW2 1752   2.752   2.235   2.451
 2235SOL     OW 1753   2.879   1.901   2.615
 2235SOL    HW1 1754   2.807   1.906   2.546
 2235SOL    HW2 1755   2.855   1.832   2.684
 2236SOL     OW 1756   3.291   3.035   2.729
 2236SOL    HW1 1757   3.236   2.951   2.722
 2236SOL    HW2 1758   3.317   3.064   2.637
 2237SOL     OW 1759   3.328   2.452   2.854
 2237SOL    HW1 1760   3.298   2.357   2.861
 2237SOL    HW2 1761   3.401   2.468   2.920
 2238SOL     OW 1762   3.719   2.695   2.239
 2238SOL    HW1 1763   3.761   2.631   2.303
 2238SOL    HW2 1764   3.681   2.644   2.161
 2239SOL     OW 1765   2.350   3.247   2.036
 2239SOL    HW1 1766   2.263   3.232   2.083
 2239SOL    HW2 1767   2.333   3.273   1.941
 2240SOL     OW 1768   3.526   3.142   2.519
 2240SOL    HW1 1769   3.625   3.150   2.533
 2240SOL    HW2 1770   3.481   3.226   2.550
 2241SOL     OW 1771   3.252   2.437   1.940
 2241SOL    HW1 1772   3.198   2.416   2.021
 2241SOL    HW2 1773   3.343   2.396   1.949
 2242SOL     OW 1774   3.616   3.085   3.450
 2242SOL    HW1 1775   3.707   3.046   3.437
 2242SOL    HW2 1776   3.624   3.181   3.474
 2243SOL     OW 1777   2.926   3.209   3.202
 2243SOL    HW1 1778   2.846   3.186   3.257
 2243SOL    HW2 1779   3.009   3.183   3.251
 2245SOL     OW 1780   2.973   3.057   2.962
 2245SOL    HW1 1781   2.933   3.101   3.043
 2245SOL    HW2 1782   2.932   3.094   2.879
 2246SOL     OW 1783   3.500   2.961   2.941
 2246SOL    HW1 1784   3.505   3.042   3.000
 2246SOL    HW2 1785   3.414   2.963   2.890
 2247SOL     OW 1786   2.777   1.951   3.264
 2247SOL    HW1 1787   2.802   1.931   3.169
 2247SOL    HW2 1788   2.849   2.007   3.306
 2248SOL     OW 1789   2.842   2.978   3.581
 2248SOL    HW1 1790   2.743   2.984   3.591
 2248SOL    HW2 1791   2.865   2.898   3.525
 2249SOL     OW 1792   2.567   2.912   2.230
 2249SOL    HW1 1793   2.553   2.919   2.329
 2249SOL    HW2 1794   2.651   2.861   2.212
 2250SOL     OW 1795   2.272   2.675   3.113
 2250SOL    HW1 1796   2.358   2.687   3.163
 2250SOL    HW2 1797   2.230   2.588   3.140
 2251SOL     OW 1798   3.136   2.248   3.124
 2251SOL    HW1 1799   3.157   2.322   3.188
 2251SOL    HW2 1800   3.047   2.265   3.081
 2252SOL     OW 1801   1.926   3.426   3.193
 2252SOL    HW1 1802   1.880   3.508   3.159
 2252SOL    HW2 1803   2.024   3.445   3.202
 2253SOL     OW 1804   2.229   2.962   2.363
 2253SOL    HW1 1805   2.222   3.045   2.307
 2253SOL    HW2 1806   2.233   2.882   2.303
 2254SOL     OW 1807   3.114   3.210   2.250
 2254SOL    HW1 1808   3.164   3.287   2.290
 2254SOL    HW2 1809   3.019   3.212   2.282
 2255SOL     OW 1810   3.134   3.307   3.004
 2255SOL    HW1 1811   3.181   3.320   3.091
 2255SOL    HW2 1812   3.068   3.233   3.013
 2256SOL     OW 1813   3.444   2.501   2.334
 2256SOL    HW1 1814   3.413   2.562   2.407
 2256SOL    HW2 1815   3.494   2.553   2.265
 2257SOL     OW 1816   2.216   3.372   3.191
 2257SOL    HW1 1817   2.195   3.328   3.104
 2257SOL    HW2 1818   2.313   3.398   3.194
 2258SOL     OW 1819   2.264   2.613   3.460
 2258SOL    HW1 1820   2.332   2.668   3.413
 2258SOL    HW2 1821   2.304   2.525   3.487
 2259SOL     OW 1822   3.449   2.641   3.532
 2259SOL    HW1 1823   3.357   2.679   3.527
 2259SOL    HW2 1824   3.509   2.688   3.467
 2260SOL     OW 1825   2.875   1.967   3.632
 2260SOL    HW1 1826   2.881   2.052   3.580
 2260SOL    HW2 1827   2.907   1.891   3.575
 2261SOL     OW 1828   2.366   1.912   3.602
 2261SOL    HW1 1829   2.324   1.855   3.532
 2261SOL    HW2 1830   2.300   1.981   3.634
 2262SOL     OW 1831   2.435   2.732   2.891
 2262SOL    HW1 1832   2.479   2.821   2.882
 2262SOL    HW2 1833   2.372   2.732   2.968
 2263SOL     OW 1834   3.222   2.724   2.907
 2263SOL    HW1 1835   3.147   2.724   2.841
 2263SOL    HW2 1836   3.259   2.632   2.916
 2264SOL     OW 1837   3.071   2.387   2.137
 2264SOL    HW1 1838   3.084   2.303   2.191
 2264SOL    HW2 1839   3.042   2.461   2.197
 2265SOL     OW 1840   2.169   2.075   3.093
 2265SOL    HW1 1841   2.146   2.112   3.183
 2265SOL    HW2 1842   2.139   1.980   3.087
 2266SOL     OW 1843   1.899   3.172   3.144
 2266SOL    HW1 1844   1.952   3.123   3.212
 2266SOL    HW2 1845   1.921   3.270   3.149
 2267SOL     OW 1846   2.594   2.496   2.926
 2267SOL    HW1 1847   2.653   2.470   2.850
 2267SOL    HW2 1848   2.566   2.592   2.915
 2269SOL     OW 1849   2.169   1.925   2.480
 2269SOL    HW1 1850   2.158   2.019   2.513
 2269SOL    HW2 1851   2.164   1.862   2.557
 2270SOL     OW 1852   3.484   2.229   2.236
 2270SOL    HW1 1853   3.486   2.153   2.300
 2270SOL    HW2 1854   3.436   2.306   2.276
 2271SOL     OW 1855   2.885   2.628   2.828
 2271SOL    HW1 1856   2.900   2.649   2.924
 2271SOL    HW2 1857   2.855   2.533   2.819
 2272SOL     OW 1858   2.842   3.435   3.562
 2272SOL    HW1 1859   2.822   3.479   3.474
 2272SOL    HW2 1860   2.881   3.344   3.546
 2274SOL     OW 1861   2.212   2.760   3.666
 2274SOL    HW1 1862   2.288   2.804   3.714
 2274SOL    HW2 1863   2.247   2.713   3.584
 2275SOL     OW 1864   3.402   2.136   1.987
 2275SOL    HW1 1865   3.341   2.061   2.010
 2275SOL    HW2 1866   3.424   2.188   2.070
 2276SOL     OW 1867   3.165   2.700   1.904
 2276SOL    HW1 1868   3.199   2.607   1.919
 2276SOL    HW2 1869   3.183   2.727   1.809
 2277SOL     OW 1870   2.930   3.195   2.711
 2277SOL    HW1 1871   2.937   3.111   2.656
 2277SOL    HW2 1872   2.992   3.264   2.675
 2278SOL     OW 1873   2.181   2.672   2.811
 2278SOL    HW1 1874   2.274   2.708   2.816
 2278SOL    HW2 1875   2.175   2.587   2.863
 2279SOL     OW 1876   3.000   2.242   3.540
 2279SOL    HW1 1877   2.955   2.305   3.604
 2279SOL    HW2 1878   3.093   2.273   3.523
 2280SOL     OW 1879   3.022   2.069   3.339
 2280SOL    HW1 1880   3.022   2.133   3.416
 2280SOL    HW2 1881   3.050   2.117   3.256
 2281SOL     OW 1882   1.870   3.188   2.062
 2281SOL    HW1 1883   1.777   3.209   2.031
 2281SOL    HW2 1884   1.880   3.089   2.075
 2282SOL     OW 1885   1.950   3.663   2.789
 2282SOL    HW1 1886   1.908   3.577   2.762
 2282SOL    HW2 1887   2.044   3.666   2.755
 2283SOL     OW 1888   2.366   3.430   2.772
 2283SOL    HW1 1889   2.432   3.504   2.781
 2283SOL    HW2 1890   2.410   3.351   2.730
 2284SOL     OW 1891   2.864   2.658   3.100
 2284SOL    HW1 1892   2.905   2.626   3.186
 2284SOL    HW2 1893   2.768   2.631   3.097
 2285SOL     OW 1894   1.902   2.406   2.976
 2285SOL    HW1 1895   1.987   2.373   2.935
 2285SOL    HW2 1896   1.915   2.421   3.074
 2286SOL     OW 1897   2.051   2.382   3.584
 2286SOL    HW1 1898   2.110   2.342   3.514
 2286SOL    HW2 1899   1.993   2.453   3.543
 2287SOL     OW 1900   3.231   2.812   3.522
 2287SOL    HW1 1901   3.270   2.901   3.542
 2287SOL    HW2 1902   3.241   2.792   3.425
 2288SOL     OW 1903   3.519   2.466   3.068
 2288SOL    HW1 1904   3.481   2.397   3.130
 2288SOL    HW2 1905   3.601   2.430   3.024
 2289SOL     OW 1906   2.114   3.426   3.606
 2289SOL    HW1 1907   2.084   3.483   3.682
 2289SOL    HW2 1908   2.107   3.329   3.632
 2290SOL     OW 1909   2.533   2.326   3.131
 2290SOL    HW1 1910   2.499   2.237   3.101
 2290SOL    HW2 1911   2.559   2.380   3.051
 2291SOL     OW 1912   2.792   3.540   3.327
 2291SOL    HW1 1913   2.768   3.522   3.232
 2291SOL    HW2 1914   2.822   3.634   3.337
 2292SOL     OW 1915   2.335   2.362   2.053
 2292SOL    HW1 1916   2.396   2.442   2.057
 2292SOL    HW2 1917   2.240   2.393   2.060
 2293SOL     OW 1918   2.021   2.999   3.328
 2293SOL    HW1 1919   2.043   2.938   3.404
 2293SOL    HW2 1920   2.031   2.950   3.242
 2294SOL     OW 1921   3.209   2.921   3.096
 2294SOL    HW1 1922   3.233   2.858   3.022
 2294SOL    HW2 1923   3.119   2.961   3.078
 2295SOL     OW 1924   3.164   2.717   2.171
 2295SOL    HW1 1925   3.078   2.686   2.213
 2295SOL    HW2 1926   3.160   2.703   2.072
 2297SOL     OW 1927   3.114   3.593   2.990
 2297SOL    HW1 1928   3.198   3.598   2.936
 2297SOL    HW2 1929   3.091   3.497   3.008
 2298SOL     OW 1930   1.945   3.120   2.884
 2298SOL    HW1 1931   1.940   3.119   2.984
 2298SOL    HW2 1932   1.862   3.079   2.846
 2299SOL     OW 1933   2.550   3.524   3.578
 2299SOL    HW1 1934   2.494   3.605   3.587
 2299SOL    HW2 1935   2.602   3.528   3.492
 2300SOL     OW 1936   3.588   1.997   2.385
 2300SOL    HW1 1937   3.661   1.980   2.318
 2300SOL    HW2 1938   3.557   1.910   2.423
 2301SOL     OW 1939   3.250   3.435   2.339
 2301SOL    HW1 1940   3.317   3.447   2.265
 2301SOL    HW2 1941   3.210   3.524   2.362
 2303SOL     OW 1942   3.142   2.789   2.534
 2303SOL    HW1 1943   3.202   2.708   2.536
 2303SOL    HW2 1944   3.182   2.858   2.474
 2304SOL     OW 1945   2.692   3.135   3.284
 2304SOL    HW1 1946   2.687   3.168   3.379
 2304SOL    HW2 1947   2.606   3.154   3.238
 2305SOL     OW 1948   2.534   3.478   2.016
 2305SOL    HW1 1949   2.543   3.488   1.917
 2305SOL    HW2 1950   2.494   3.389   2.037
 2307SOL     OW 1951   3.703   2.037   2.825
 2307SOL    HW1 1952   3.742   1.952   2.789
 2307SOL    HW2 1953   3.605   2.039   2.806
 2308SOL     OW 1954   2.125   2.188   2.582
 2308SOL    HW1 1955   2.046   2.239   2.548
 2308SOL    HW2 1956   2.116   2.173   2.680
 2309SOL     OW 1957   3.056   3.474   1.893
 2309SOL    HW1 1958   3.062   3.381   1.930
 2309SOL    HW2 1959   2.997   3.474   1.813
 2310SOL     OW 1960   2.684   2.864   3.234
 2310SOL    HW1 1961   2.724   2.863   3.142
 2310SOL    HW2 1962   2.694   2.956   3.274
 2311SOL     OW 1963   2.778   2.772   2.153
 2311SOL    HW1 1964   2.841   2.810   2.085
 2311SOL    HW2 1965   2.818   2.689   2.192
 2312SOL     OW 1966   3.366   3.469   1.906
 2312SOL    HW1 1967   3.274   3.506   1.913
 2312SOL    HW2 1968   3.404   3.489   1.816
 2313SOL     OW 1969   2.234   3.150   3.352
 2313SOL    HW1 1970   2.221   3.243   3.318
 2313SOL    HW2 1971   2.150   3.098   3.339
 2314SOL     OW 1972   3.476   3.154   3.151
 2314SOL    HW1 1973   3.536   3.157   3.231
 2314SOL    HW2 1974   3.401   3.218   3.164
 2315SOL     OW 1975   2.901   2.960   2.558
 2315SOL    HW1 1976   2.831   2.913   2.612
 2315SOL    HW2 1977   2.960   2.892   2.515
 2316SOL     OW 1978   2.876   2.098   2.833
 2316SOL    HW1 1979   2.868   2.062   2.740
 2316SOL    HW2 1980   2.874   2.022   2.898
 2317SOL     OW 1981   2.452   3.349   2.353
 2317SOL    HW1 1982   2.494   3.291   2.283
 2317SOL    HW2 1983   2.408   3.428   2.309
 2318SOL     OW 1984   3.571   2.247   3.243
 2318SOL    HW1 1985   3.644   2.316   3.247
 2318SOL    HW2 1986   3.599   2.172   3.184
 2319SOL     OW 1987   2.117   3.210   2.152
 2319SOL    HW1 1988   2.021   3.211   2.125
 2319SOL    HW2 1989   2.129   3.263   2.236
 2320SOL     OW 1990   1.967   2.875   3.588
 2320SOL    HW1 1991   1.890   2.842   3.642
 2320SOL    HW2 1992   2.052   2.845   3.630
 2321SOL     OW 1993   2.534   2.065   3.351
 2321SOL    HW1 1994   2.624   2.049   3.311
 2321SOL    HW2 1995   2.542   2.070   3.450
 2322SOL     OW 1996   1.937   2.207   1.895
 2322SOL    HW1 1997   1.845   2.179   1.866
 2322SOL    HW2 1998   1.968   2.284   1.839
 2323SOL     OW 1999   3.302   2.718   3.260
 2323SOL    HW1 2000   3.245   2.770   3.197
 2323SOL    HW2 2001   3.398   2.730   3.236
 2324SOL     OW 2002   1.934   2.028   2.180
 2324SOL    HW1 2003   1.917   2.111   2.126
 2324SOL    HW2 2004   2.024   1.991   2.158
 2325SOL     OW 2005   3.045   3.197   1.981
 2325SOL    HW1 2006   2.946   3.186   1.983
 2325SOL    HW2 2007   3.079   3.212   2.074
 2326SOL     OW 2008   2.475   2.704   3.293
 2326SOL    HW1 2009   2.531   2.785   3.276
 2326SOL    HW2 2010   2.534   2.624   3.296
 2327SOL     OW 2011   3.355   3.629   2.821
 2327SOL    HW1 2012   3.388   3.693   2.752
 2327SOL    HW2 2013   3.421   3.623   2.896
 2328SOL     OW 2014   2.578   2.427   3.570
 2328SOL    HW1 2015   2.597   2.492   3.644
 2328SOL    HW2 2016   2.638   2.347   3.579
 2329SOL     OW 2017   3.312   3.082   3.495
 2329SOL    HW1 2018   3.303   3.072   3.594
 2329SOL    HW2 2019   3.408   3.075   3.469
 2330SOL     OW 2020   2.252   3.603   3.422
 2330SOL    HW1 2021   2.161   3.644   3.420
 2330SOL    HW2 2022   2.245   3.509   3.454
 2331SOL     OW 2023   3.536   2.745   3.116
 2331SOL    HW1 2024   3.509   2.656   3.079
 2331SOL    HW2 2025   3.537   2.813   3.043
 2332SOL     OW 2026   3.087   2.187   2.311
 2332SOL    HW1 2027   3.152   2.113   2.300
 2332SOL    HW2 2028   3.107   2.237   2.395
 2333SOL     OW 2029   3.639   2.204   3.504
 2333SOL    HW1 2030   3.622   2.235   3.410
 2333SOL    HW2 2031   3.555   2.167   3.542
 2334SOL     OW 2032   3.592   2.796   3.379
 2334SOL    HW1 2033   3.630   2.887   3.394
 2334SOL    HW2 2034   3.584   2.779   3.280
 2335SOL     OW 2035   2.721   3.236   1.878
 2335SOL    HW1 2036   2.675   3.251   1.966
 2335SOL    HW2 2037   2.765   3.321   1.848
 2336SOL     OW 2038   2.523   3.652   2.815
 2336SOL    HW1 2039   2.477   3.740   2.802
 2336SOL    HW2 2040   2.622   3.664   2.808
 2337SOL     OW 2041   2.721   2.818   2.723
 2337SOL    HW1 2042   2.775   2.749   2.771
 2337SOL    HW2 2043   2.689   2.887   2.789
 2338SOL     OW 2044   2.945   2.846   1.949
 2338SOL    HW1 2045   2.922   2.899   1.867
 2338SOL    HW2 2046   3.026   2.790   1.930
 2339SOL     OW 2047   3.723   3.431   2.713
 2339SOL    HW1 2048   3.652   3.419   2.643
 2339SOL    HW2 2049   3.724   3.352   2.773
 2340SOL     OW 2050   2.083   3.176   3.706
 2340SOL    HW1 2051   2.018   3.103   3.685
 2340SOL    HW2 2052   2.087   3.190   3.804
 2341SOL     OW 2053   1.941   3.102   2.515
 2341SOL    HW1 2054   1.940   3.055   2.603
 2341SOL    HW2 2055   2.023   3.074   2.464
 2342SOL     OW 2056   2.534   3.253   3.486
 2342SOL    HW1 2057   2.456   3.203   3.524
 2342SOL    HW2 2058   2.531   3.348   3.517
 2343SOL     OW 2059   3.686   2.054   3.089
 2343SOL    HW1 2060   3.682   1.964   3.133
 2343SOL    HW2 2061   3.689   2.043   2.990
 2344SOL     OW 2062   3.567   3.349   2.966
 2344SOL    HW1 2063   3.474   3.324   2.939
 2344SOL    HW2 2064   3.593   3.299   3.048
 2345SOL     OW 2065   2.179   2.409   3.142
 2345SOL    HW1 2066   2.217   2.350   3.214
 2345SOL    HW2 2067   2.219   2.383   3.054
 2346SOL     OW 2068   2.674   3.448   2.549
 2346SOL    HW1 2069   2.706   3.458   2.455
 2346SOL    HW2 2070   2.595   3.386   2.551
 2347SOL     OW 2071   3.286   2.076   2.974
 2347SOL    HW1 2072   3.338   2.011   3.029
 2347SOL    HW2 2073   3.237   2.139   3.035
 2348SOL     OW 2074   2.863   1.896   3.016
 2348SOL    HW1 2075   2.800   1.824   2.985
 2348SOL    HW2 2076   2.956   1.860   3.016
 2349SOL     OW 2077   2.632   3.192   2.163
 2349SOL    HW1 2078   2.586   3.105   2.180
 2349SOL    HW2 2079   2.723   3.189   2.204
 2350SOL     OW 2080   2.480   3.429   3.146
 2350SOL    HW1 2081   2.475   3.511   3.203
 2350SOL    HW2 2082   2.569   3.426   3.101
 2351SOL     OW 2083   3.214   1.914   2.030
 2351SOL    HW1 2084   3.249   1.873   1.946
 2351SOL    HW2 2085   3.124   1.876   2.050
 2352SOL     OW 2086   3.162   2.315   2.553
 2352SOL    HW1 2087   3.103   2.395   2.557
 2352SOL    HW2 2088   3.177   2.280   2.646
 2353SOL     OW 2089   3.455   2.083   2.744
 2353SOL    HW1 2090   3.371   2.082   2.798
 2353SOL    HW2 2091   3.457   2.166   2.688
 2354SOL     OW 2092   1.901   2.939   2.162
 2354SOL    HW1 2093   2.000   2.928   2.153
 2354SOL    HW2 2094   1.861   2.853   2.194
 2355SOL     OW 2095   2.737   3.508   2.199
 2355SOL    HW1 2096   2.660   3.473   2.145
 2355SOL    HW2 2097   2.705   3.579   2.261
 2356SOL     OW 2098   2.092   2.490   3.837
 2356SOL    HW1 2099   1.999   2.488   3.874
 2356SOL    HW2 2100   2.093   2.451   3.745
 2369SOL     OW 2101   2.468   2.826   3.847
 2369SOL    HW1 2102   2.475   2.910   3.793
 2369SOL    HW2 2103   2.514   2.839   3.935
 2380SOL     OW 2104   2.460   2.591   3.994
 2380SOL    HW1 2105   2.484   2.660   3.926
 2380SOL    HW2 2106   2.382   2.624   4.048
 2385SOL     OW 2107   2.727   2.210   3.919
 2385SOL    HW1 2108   2.786   2.273   3.870
 2385SOL    HW2 2109   2.746   2.116   3.890
 2391SOL     OW 2110   2.183   2.805   3.966
 2391SOL    HW1 2111   2.265   2.844   3.924
 2391SOL    HW2 2112   2.156   2.723   3.917
 2400SOL     OW 2113   2.476   1.984   3.841
 2400SOL    HW1 2114   2.574   1.962   3.848
 2400SOL    HW2 2115   2.445   1.967   3.748
 2403SOL     OW 2116   3.296   3.050   3.765
 2403SOL    HW1 2117   3.328   2.974   3.822
 2403SOL    HW2 2118   3.204   3.077   3.795
 2404SOL     OW 2119   2.159   1.897   3.895
 2404SOL    HW1 2120   2.208   1.981   3.874
 2404SOL    HW2 2121   2.221   1.832   3.940
 2409SOL     OW 2122   2.894   2.411   3.740
 2409SOL    HW1 2123   2.853   2.493   3.701
 2409SOL    HW2 2124   2.958   2.437   3.813
 2414SOL     OW 2125   2.350   3.247   3.898
 2414SOL    HW1 2126   2.263   3.232   3.945
 2414SOL    HW2 2127   2.333   3.273   3.803
 2416SOL     OW 2128   3.252   2.437   3.802
 2416SOL    HW1 2129   3.198   2.416   3.883
 2416SOL    HW2 2130   3.343   2.396   3.811
 2417SOL     OW 2131   2.389   2.118   4.052
 2417SOL    HW1 2132   2.416   2.059   3.977
 2417SOL    HW2 2133   2.389   2.213   4.021
 2419SOL     OW 2134   2.567   2.912   4.092
 2419SOL    HW1 2135   2.553   2.919   4.191
 2419SOL    HW2 2136   2.651   2.861   4.074
 2425SOL     OW 2137   3.071   2.387   3.999
 2425SOL    HW1 2138   3.084   2.303   4.053
 2425SOL    HW2 2139   3.042   2.461   4.059
 2430SOL     OW 2140   3.402   2.136   3.849
 2430SOL    HW1 2141   3.341   2.061   3.872
 2430SOL    HW2 2142   3.424   2.188   3.932
 2431SOL     OW 2143   3.165   2.700   3.766
 2431SOL    HW1 2144   3.199   2.607   3.781
 2431SOL    HW2 2145   3.183   2.727   3.671
 2438SOL     OW 2146   2.677   2.434   4.049
 2438SOL    HW1 2147   2.684   2.345   4.003
 2438SOL    HW2 2148   2.583   2.468   4.041
 2440SOL     OW 2149   2.335   2.362   3.915
 2440SOL    HW1 2150   2.396   2.442   3.919
 2440SOL    HW2 2151   2.240   2.393   3.922
 2451SOL     OW 2152   2.778   2.772   4.015
 2451SOL    HW1 2153   2.841   2.810   3.947
 2451SOL    HW2 2154   2.818   2.689   4.054
 2456SOL     OW 2155   1.937   2.207   3.757
 2456SOL    HW1 2156   1.845   2.179   3.728
 2456SOL    HW2 2157   1.968   2.284   3.701
 2457SOL     OW 2158   1.934   2.028   4.042
 2457SOL    HW1 2159   1.917   2.111   3.988
 2457SOL    HW2 2160   2.024   1.991   4.020
 2458SOL     OW 2161   3.045   3.197   3.843
 2458SOL    HW1 2162   2.946   3.186   3.845
 2458SOL    HW2 2163   3.079   3.212   3.936
 2462SOL     OW 2164   2.721   3.236   3.740
 2462SOL    HW1 2165   2.675   3.251   3.828
 2462SOL    HW2 2166   2.765   3.321   3.710
 2465SOL     OW 2167   2.945   2.846   3.811
 2465SOL    HW1 2168   2.922   2.899   3.729
 2465SOL    HW2 2169   3.026   2.790   3.792
 2472SOL     OW 2170   3.214   1.914   3.892
 2472SOL    HW1 2171   3.249   1.873   3.808
 2472SOL    HW2 2172   3.124   1.876   3.912
 2475SOL     OW 2173   1.901   2.939   4.024
 2475SOL    HW1 2174   2.000   2.928   4.015
 2475SOL    HW2 2175   1.861   2.853   4.056
 2494SOL     OW 2176   2.179   3.975   1.801
 2494SOL    HW1 2177   2.250   4.046   1.807
 2494SOL    HW2 2178   2.091   4.014   1.829
 2512SOL     OW 2179   2.643   3.988   1.749
 2512SOL    HW1 2180   2.710   3.927   1.792
 2512SOL    HW2 2181   2.570   4.007   1.814
 2528SOL     OW 2182   2.777   3.813   1.402
 2528SOL    HW1 2183   2.802   3.793   1.307
 2528SOL    HW2 2184   2.849   3.869   1.444
 2535SOL     OW 2185   2.875   3.829   1.770
 2535SOL    HW1 2186   2.881   3.914   1.718
 2535SOL    HW2 2187   2.907   3.753   1.713
 2536SOL     OW 2188   2.366   3.774   1.740
 2536SOL    HW1 2189   2.324   3.717   1.670
 2536SOL    HW2 2190   2.300   3.843   1.772
 2573SOL     OW 2191   2.534   3.927   1.489
 2573SOL    HW1 2192   2.624   3.911   1.449
 2573SOL    HW2 2193   2.542   3.932   1.588
 2595SOL     OW 2194   2.087   3.999   2.858
 2595SOL    HW1 2195   2.122   3.982   2.950
 2595SOL    HW2 2196   1.999   3.954   2.846
 2596SOL     OW 2197   1.881   4.092   2.509
 2596SOL    HW1 2198   1.799   4.135   2.548
 2596SOL    HW2 2199   1.853   4.019   2.446
 2608SOL     OW 2200   2.671   3.728   2.364
 2608SOL    HW1 2201   2.711   3.819   2.355
 2608SOL    HW2 2202   2.571   3.736   2.370
 2620SOL     OW 2203   2.727   4.072   2.057
 2620SOL    HW1 2204   2.786   4.135   2.008
 2620SOL    HW2 2205   2.746   3.978   2.028
 2622SOL     OW 2206   2.412   3.920   2.747
 2622SOL    HW1 2207   2.407   3.915   2.847
 2622SOL    HW2 2208   2.414   4.016   2.718
 2625SOL     OW 2209   3.262   3.831   2.288
 2625SOL    HW1 2210   3.238   3.794   2.198
 2625SOL    HW2 2211   3.361   3.847   2.292
 2628SOL     OW 2212   2.476   3.846   1.979
 2628SOL    HW1 2213   2.574   3.824   1.986
 2628SOL    HW2 2214   2.445   3.829   1.886
 2632SOL     OW 2215   2.401   3.788   2.374
 2632SOL    HW1 2216   2.320   3.789   2.432
 2632SOL    HW2 2217   2.404   3.871   2.319
 2633SOL     OW 2218   2.159   3.759   2.033
 2633SOL    HW1 2219   2.208   3.843   2.012
 2633SOL    HW2 2220   2.221   3.694   2.078
 2634SOL     OW 2221   2.797   3.960   2.342
 2634SOL    HW1 2222   2.749   4.001   2.264
 2634SOL    HW2 2223   2.896   3.958   2.323
 2638SOL     OW 2224   2.423   3.946   3.009
 2638SOL    HW1 2225   2.461   3.862   3.046
 2638SOL    HW2 2226   2.335   3.965   3.053
 2640SOL     OW 2227   2.879   3.763   2.615
 2640SOL    HW1 2228   2.807   3.768   2.546
 2640SOL    HW2 2229   2.855   3.694   2.684
 2644SOL     OW 2230   2.389   3.980   2.190
 2644SOL    HW1 2231   2.416   3.921   2.115
 2644SOL    HW2 2232   2.389   4.075   2.159
 2646SOL     OW 2233   2.777   3.813   3.264
 2646SOL    HW1 2234   2.802   3.793   3.169
 2646SOL    HW2 2235   2.849   3.869   3.306
 2658SOL     OW 2236   2.169   3.937   3.093
 2658SOL    HW1 2237   2.146   3.974   3.183
 2658SOL    HW2 2238   2.139   3.842   3.087
 2661SOL     OW 2239   2.169   3.787   2.480
 2661SOL    HW1 2240   2.158   3.881   2.513
 2661SOL    HW2 2241   2.164   3.724   2.557
 2685SOL     OW 2242   2.125   4.050   2.582
 2685SOL    HW1 2243   2.046   4.101   2.548
 2685SOL    HW2 2244   2.116   4.035   2.680
 2687SOL     OW 2245   2.876   3.960   2.833
 2687SOL    HW1 2246   2.868   3.924   2.740
 2687SOL    HW2 2247   2.874   3.884   2.898
 2693SOL     OW 2248   1.934   3.890   2.180
 2693SOL    HW1 2249   1.917   3.973   2.126
 2693SOL    HW2 2250   2.024   3.853   2.158
 2697SOL     OW 2251   3.087   4.049   2.311
 2697SOL    HW1 2252   3.152   3.975   2.300
 2697SOL    HW2 2253   3.107   4.099   2.395
 2705SOL     OW 2254   2.290   4.148   2.382
 2705SOL    HW1 2255   2.320   4.076   2.320
 2705SOL    HW2 2256   2.251   4.108   2.465
 2708SOL     OW 2257   2.863   3.758   3.016
 2708SOL    HW1 2258   2.800   3.686   2.985
 2708SOL    HW2 2259   2.956   3.722   3.016
 2709SOL     OW 2260   3.214   3.776   2.030
 2709SOL    HW1 2261   3.249   3.735   1.946
 2709SOL    HW2 2262   3.124   3.738   2.050
 2805SOL     OW 2263   3.854   1.821   1.571
 2805SOL    HW1 2264   3.844   1.806   1.670
 2805SOL    HW2 2265   3.768   1.857   1.535
 2866SOL     OW 2266   3.854   1.794   1.851
 2866SOL    HW1 2267   3.813   1.720   1.904
 2866SOL    HW2 2268   3.918   1.845   1.909
 2910SOL     OW 2269   3.955   1.713   2.345
 2910SOL    HW1 2270   3.989   1.790   2.399
 2910SOL    HW2 2271   3.999   1.713   2.255
 2916SOL     OW 2272   3.751   1.596   1.979
 2916SOL    HW1 2273   3.732   1.500   2.000
 2916SOL    HW2 2274   3.718   1.654   2.054
 2972SOL     OW 2275   3.732   1.326   2.062
 2972SOL    HW1 2276   3.639   1.347   2.031
 2972SOL    HW2 2277   3.742   1.227   2.075
 2973SOL     OW 2278   3.812   1.801   2.789
 2973SOL    HW1 2279   3.770   1.715   2.762
 2973SOL    HW2 2280   3.906   1.804   2.755
 3108SOL     OW 2281   3.837   2.599   1.597
 3108SOL    HW1 2282   3.925   2.586   1.642
 3108SOL    HW2 2283   3.824   2.696   1.575
 3112SOL     OW 2284   4.041   2.113   1.801
 3112SOL    HW1 2285   4.112   2.184   1.807
 3112SOL    HW2 2286   3.953   2.152   1.829
 3125SOL     OW 2287   3.926   2.147   1.498
 3125SOL    HW1 2288   3.846   2.207   1.485
 3125SOL    HW2 2289   3.916   2.098   1.584
 3138SOL     OW 2290   3.802   2.418   1.386
 3138SOL    HW1 2291   3.894   2.417   1.345
 3138SOL    HW2 2292   3.796   2.492   1.453
 3170SOL     OW 2293   3.913   2.382   1.722
 3170SOL    HW1 2294   3.972   2.342   1.652
 3170SOL    HW2 2295   3.855   2.453   1.681
 3191SOL     OW 2296   3.829   2.875   1.726
 3191SOL    HW1 2297   3.752   2.842   1.780
 3191SOL    HW2 2298   3.914   2.845   1.768
 3214SOL     OW 2299   3.954   2.490   1.975
 3214SOL    HW1 2300   3.861   2.488   2.012
 3214SOL    HW2 2301   3.955   2.451   1.883
 3215SOL     OW 2302   3.949   2.137   2.858
 3215SOL    HW1 2303   3.984   2.120   2.950
 3215SOL    HW2 2304   3.861   2.092   2.846
 3216SOL     OW 2305   3.743   2.230   2.509
 3216SOL    HW1 2306   3.661   2.273   2.548
 3216SOL    HW2 2307   3.715   2.157   2.446
 3226SOL     OW 2308   3.964   2.953   2.748
 3226SOL    HW1 2309   3.978   2.869   2.800
 3226SOL    HW2 2310   3.909   3.017   2.803
 3229SOL     OW 2311   3.846   2.505   2.425
 3229SOL    HW1 2312   3.801   2.417   2.442
 3229SOL    HW2 2313   3.845   2.559   2.509
 3230SOL     OW 2314   3.751   3.458   1.979
 3230SOL    HW1 2315   3.732   3.362   2.000
 3230SOL    HW2 2316   3.718   3.516   2.054
 3234SOL     OW 2317   3.921   2.838   3.126
 3234SOL    HW1 2318   4.010   2.793   3.112
 3234SOL    HW2 2319   3.848   2.773   3.107
 3240SOL     OW 2320   3.800   2.673   2.651
 3240SOL    HW1 2321   3.899   2.661   2.660
 3240SOL    HW2 2322   3.776   2.768   2.672
 3246SOL     OW 2323   4.045   2.805   2.104
 3246SOL    HW1 2324   4.127   2.844   2.062
 3246SOL    HW2 2325   4.018   2.723   2.055
 3251SOL     OW 2326   4.106   2.562   2.342
 3251SOL    HW1 2327   4.151   2.472   2.339
 3251SOL    HW2 2328   4.012   2.551   2.375
 3258SOL     OW 2329   4.021   1.897   2.033
 3258SOL    HW1 2330   4.070   1.981   2.012
 3258SOL    HW2 2331   4.083   1.832   2.078
 3262SOL     OW 2332   3.802   2.418   3.248
 3262SOL    HW1 2333   3.894   2.417   3.207
 3262SOL    HW2 2334   3.796   2.492   3.315
 3272SOL     OW 2335   4.091   2.962   2.363
 3272SOL    HW1 2336   4.084   3.045   2.307
 3272SOL    HW2 2337   4.095   2.882   2.303
 3281SOL     OW 2338   3.761   3.172   3.144
 3281SOL    HW1 2339   3.814   3.123   3.212
 3281SOL    HW2 2340   3.783   3.270   3.149
 3283SOL     OW 2341   4.031   1.925   2.480
 3283SOL    HW1 2342   4.020   2.019   2.513
 3283SOL    HW2 2343   4.026   1.862   2.557
 3287SOL     OW 2344   4.043   2.672   2.811
 3287SOL    HW1 2345   4.136   2.708   2.816
 3287SOL    HW2 2346   4.037   2.587   2.863
 3288SOL     OW 2347   4.063   2.371   2.868
 3288SOL    HW1 2348   4.011   2.288   2.851
 3288SOL    HW2 2349   4.140   2.376   2.804
 3289SOL     OW 2350   3.732   3.188   2.062
 3289SOL    HW1 2351   3.639   3.209   2.031
 3289SOL    HW2 2352   3.742   3.089   2.075
 3293SOL     OW 2353   3.764   2.406   2.976
 3293SOL    HW1 2354   3.849   2.373   2.935
 3293SOL    HW2 2355   3.777   2.421   3.074
 3301SOL     OW 2356   3.807   3.120   2.884
 3301SOL    HW1 2357   3.802   3.119   2.984
 3301SOL    HW2 2358   3.724   3.079   2.846
 3307SOL     OW 2359   3.987   2.188   2.582
 3307SOL    HW1 2360   3.908   2.239   2.548
 3307SOL    HW2 2361   3.978   2.173   2.680
 3313SOL     OW 2362   3.979   3.210   2.152
 3313SOL    HW1 2363   3.883   3.211   2.125
 3313SOL    HW2 2364   3.991   3.263   2.236
 3316SOL     OW 2365   3.799   2.207   1.895
 3316SOL    HW1 2366   3.707   2.179   1.866
 3316SOL    HW2 2367   3.830   2.284   1.839
 3317SOL     OW 2368   3.796   2.028   2.180
 3317SOL    HW1 2369   3.779   2.111   2.126
 3317SOL    HW2 2370   3.886   1.991   2.158
 3327SOL     OW 2371   3.803   3.102   2.515
 3327SOL    HW1 2372   3.802   3.055   2.603
 3327SOL    HW2 2373   3.885   3.074   2.464
 3329SOL     OW 2374   4.152   2.286   2.382
 3329SOL    HW1 2375   4.182   2.214   2.320
 3329SOL    HW2 2376   4.113   2.246   2.465
 3335SOL     OW 2377   3.763   2.939   2.162
 3335SOL    HW1 2378   3.862   2.928   2.153
 3335SOL    HW2 2379   3.723   2.853   2.194
   4.78716   4.78716   4.78716
