mobley_8118832_GMX.gro created by acpype (v: 2023.10.27) on Tue May 19 14:07:54 2026
 2395
    1MOL     C1    1   2.321   2.318   2.170
    1MOL     C2    2   2.209   2.277   2.230
    1MOL     C3    3   2.141   2.148   2.199
    1MOL     O1    4   2.137   2.068   2.317
    1MOL     H1    5   2.368   2.413   2.196
    1MOL     H2    6   2.368   2.258   2.093
    1MOL     H3    7   2.164   2.340   2.306
    1MOL     H4    8   2.193   2.091   2.121
    1MOL     H5    9   2.038   2.167   2.167
    1MOL     H6   10   2.220   2.085   2.365
    6SOL     OW   11   1.555   1.511   0.703
    6SOL    HW1   12   1.498   1.495   0.784
    6SOL    HW2   13   1.496   1.521   0.623
   14SOL     OW   14   1.460   1.505   1.339
   14SOL    HW1   15   1.484   1.599   1.365
   14SOL    HW2   16   1.444   1.451   1.421
   18SOL     OW   17   1.127   1.341   1.690
   18SOL    HW1   18   1.174   1.341   1.778
   18SOL    HW2   19   1.079   1.254   1.679
   31SOL     OW   20   1.293   1.228   1.423
   31SOL    HW1   21   1.330   1.155   1.365
   31SOL    HW2   22   1.345   1.233   1.508
   35SOL     OW   23   1.187   1.792   1.616
   35SOL    HW1   24   1.211   1.852   1.540
   35SOL    HW2   25   1.194   1.697   1.586
   37SOL     OW   26   1.466   1.417   0.953
   37SOL    HW1   27   1.407   1.423   1.033
   37SOL    HW2   28   1.451   1.329   0.907
   50SOL     OW   29   1.719   0.585   1.831
   50SOL    HW1   30   1.693   0.674   1.795
   50SOL    HW2   31   1.717   0.517   1.758
   56SOL     OW   32   1.227   1.550   1.506
   56SOL    HW1   33   1.233   1.473   1.570
   56SOL    HW2   34   1.175   1.524   1.426
   95SOL     OW   35   1.754   1.223   1.588
   95SOL    HW1   36   1.845   1.184   1.575
   95SOL    HW2   37   1.762   1.319   1.612
   96SOL     OW   38   1.064   1.347   1.340
   96SOL    HW1   39   0.984   1.324   1.395
   96SOL    HW2   40   1.147   1.321   1.389
   97SOL     OW   41   1.592   1.629   1.625
   97SOL    HW1   42   1.619   1.663   1.535
   97SOL    HW2   43   1.671   1.591   1.671
   99SOL     OW   44   1.638   1.099   1.079
   99SOL    HW1   45   1.643   1.180   1.138
   99SOL    HW2   46   1.552   1.101   1.028
  101SOL     OW   47   0.980   1.116   1.719
  101SOL    HW1   48   0.881   1.122   1.729
  101SOL    HW2   49   1.003   1.036   1.663
  109SOL     OW   50   1.272   1.445   1.142
  109SOL    HW1   51   1.319   1.458   1.229
  109SOL    HW2   52   1.206   1.371   1.151
  113SOL     OW   53   1.587   0.779   1.670
  113SOL    HW1   54   1.495   0.817   1.665
  113SOL    HW2   55   1.647   0.826   1.605
  122SOL     OW   56   1.728   0.935   1.854
  122SOL    HW1   57   1.682   0.928   1.765
  122SOL    HW2   58   1.666   0.979   1.920
  126SOL     OW   59   0.980   1.573   1.700
  126SOL    HW1   60   0.960   1.617   1.612
  126SOL    HW2   61   1.019   1.482   1.684
  127SOL     OW   62   1.859   1.518   1.605
  127SOL    HW1   63   1.873   1.545   1.510
  127SOL    HW2   64   1.942   1.540   1.658
  142SOL     OW   65   1.369   0.950   1.660
  142SOL    HW1   66   1.408   1.039   1.680
  142SOL    HW2   67   1.379   0.930   1.563
  147SOL     OW   68   0.930   1.678   1.465
  147SOL    HW1   69   0.906   1.660   1.370
  147SOL    HW2   70   0.960   1.772   1.475
  150SOL     OW   71   1.347   1.059   1.234
  150SOL    HW1   72   1.371   0.996   1.160
  150SOL    HW2   73   1.257   1.099   1.216
  152SOL     OW   74   1.759   1.747   1.154
  152SOL    HW1   75   1.820   1.777   1.081
  152SOL    HW2   76   1.721   1.658   1.132
  153SOL     OW   77   1.252   1.731   1.128
  153SOL    HW1   78   1.336   1.736   1.074
  153SOL    HW2   79   1.229   1.635   1.146
  155SOL     OW   80   0.688   1.662   1.716
  155SOL    HW1   81   0.632   1.743   1.725
  155SOL    HW2   82   0.740   1.666   1.630
  163SOL     OW   83   1.650   1.720   1.394
  163SOL    HW1   84   1.703   1.730   1.310
  163SOL    HW2   85   1.623   1.810   1.428
  171SOL     OW   86   1.614   1.292   1.289
  171SOL    HW1   87   1.674   1.295   1.369
  171SOL    HW2   88   1.539   1.356   1.302
  180SOL     OW   89   1.440   0.856   1.398
  180SOL    HW1   90   1.383   0.908   1.335
  180SOL    HW2   91   1.536   0.868   1.374
  184SOL     OW   92   1.493   1.767   0.959
  184SOL    HW1   93   1.526   1.831   0.890
  184SOL    HW2   94   1.559   1.761   1.034
  186SOL     OW   95   1.450   1.220   1.633
  186SOL    HW1   96   1.441   1.210   1.732
  186SOL    HW2   97   1.546   1.213   1.607
  188SOL     OW   98   1.674   0.883   1.254
  188SOL    HW1   99   1.647   0.794   1.217
  188SOL    HW2  100   1.675   0.951   1.181
  192SOL     OW  101   1.730   0.934   1.517
  192SOL    HW1  102   1.768   1.025   1.532
  192SOL    HW2  103   1.722   0.917   1.418
  197SOL     OW  104   1.861   1.569   0.851
  197SOL    HW1  105   1.790   1.557   0.781
  197SOL    HW2  106   1.862   1.490   0.911
  203SOL     OW  107   1.705   1.487   1.104
  203SOL    HW1  108   1.612   1.462   1.077
  203SOL    HW2  109   1.731   1.437   1.186
  219SOL     OW  110   1.555   1.511   2.565
  219SOL    HW1  111   1.498   1.495   2.646
  219SOL    HW2  112   1.496   1.521   2.485
  221SOL     OW  113   1.755   0.607   2.093
  221SOL    HW1  114   1.743   0.594   1.994
  221SOL    HW2  115   1.725   0.526   2.142
  227SOL     OW  116   1.460   1.505   3.201
  227SOL    HW1  117   1.484   1.599   3.227
  227SOL    HW2  118   1.444   1.451   3.283
  238SOL     OW  119   1.842   1.767   2.221
  238SOL    HW1  120   1.896   1.738   2.301
  238SOL    HW2  121   1.872   1.857   2.192
  240SOL     OW  122   1.689   0.922   2.474
  240SOL    HW1  123   1.784   0.893   2.482
  240SOL    HW2  124   1.681   0.987   2.399
  241SOL     OW  125   1.641   1.108   2.294
  241SOL    HW1  126   1.727   1.110   2.242
  241SOL    HW2  127   1.655   1.155   2.382
  244SOL     OW  128   1.293   1.228   3.285
  244SOL    HW1  129   1.330   1.155   3.227
  244SOL    HW2  130   1.345   1.233   3.370
  247SOL     OW  131   1.525   0.999   2.052
  247SOL    HW1  132   1.462   0.923   2.065
  247SOL    HW2  133   1.573   1.017   2.138
  248SOL     OW  134   1.187   1.792   3.478
  248SOL    HW1  135   1.211   1.852   3.402
  248SOL    HW2  136   1.194   1.697   3.448
  250SOL     OW  137   1.466   1.417   2.815
  250SOL    HW1  138   1.407   1.423   2.895
  250SOL    HW2  139   1.451   1.329   2.769
  251SOL     OW  140   1.667   1.714   2.434
  251SOL    HW1  141   1.626   1.691   2.346
  251SOL    HW2  142   1.649   1.640   2.499
  254SOL     OW  143   1.576   1.662   2.169
  254SOL    HW1  144   1.665   1.708   2.172
  254SOL    HW2  145   1.555   1.638   2.074
  264SOL     OW  146   1.362   1.144   2.407
  264SOL    HW1  147   1.445   1.115   2.359
  264SOL    HW2  148   1.313   1.211   2.351
  266SOL     OW  149   1.008   1.456   2.339
  266SOL    HW1  150   0.962   1.528   2.287
  266SOL    HW2  151   1.004   1.476   2.437
  268SOL     OW  152   1.795   1.066   2.735
  268SOL    HW1  153   1.733   1.051   2.659
  268SOL    HW2  154   1.743   1.077   2.820
  269SOL     OW  155   1.227   1.550   3.368
  269SOL    HW1  156   1.233   1.473   3.432
  269SOL    HW2  157   1.175   1.524   3.288
  271SOL     OW  158   1.458   0.735   2.590
  271SOL    HW1  159   1.453   0.670   2.665
  271SOL    HW2  160   1.538   0.794   2.603
  273SOL     OW  161   1.111   1.776   2.099
  273SOL    HW1  162   1.051   1.714   2.149
  273SOL    HW2  163   1.142   1.732   2.014
  275SOL     OW  164   1.632   1.377   1.943
  275SOL    HW1  165   1.600   1.471   1.933
  275SOL    HW2  166   1.556   1.314   1.931
  279SOL     OW  167   0.940   1.698   2.766
  279SOL    HW1  168   1.020   1.641   2.787
  279SOL    HW2  169   0.891   1.658   2.689
  284SOL     OW  170   0.888   1.514   3.057
  284SOL    HW1  171   0.865   1.489   2.963
  284SOL    HW2  172   0.949   1.445   3.096
  286SOL     OW  173   0.803   1.402   2.786
  286SOL    HW1  174   0.893   1.416   2.744
  286SOL    HW2  175   0.732   1.404   2.715
  289SOL     OW  176   1.434   1.188   1.903
  289SOL    HW1  177   1.466   1.112   1.960
  289SOL    HW2  178   1.342   1.215   1.933
  293SOL     OW  179   1.227   1.570   2.655
  293SOL    HW1  180   1.248   1.644   2.590
  293SOL    HW2  181   1.295   1.570   2.728
  295SOL     OW  182   1.271   1.797   2.453
  295SOL    HW1  183   1.315   1.861   2.389
  295SOL    HW2  184   1.221   1.849   2.523
  301SOL     OW  185   1.429   1.173   2.729
  301SOL    HW1  186   1.374   1.089   2.722
  301SOL    HW2  187   1.455   1.202   2.637
  303SOL     OW  188   1.857   0.833   2.239
  303SOL    HW1  189   1.899   0.769   2.303
  303SOL    HW2  190   1.819   0.782   2.161
  305SOL     OW  191   1.664   1.280   2.519
  305SOL    HW1  192   1.763   1.288   2.533
  305SOL    HW2  193   1.619   1.364   2.550
  308SOL     OW  194   1.754   1.223   3.450
  308SOL    HW1  195   1.845   1.184   3.437
  308SOL    HW2  196   1.762   1.319   3.474
  309SOL     OW  197   1.064   1.347   3.202
  309SOL    HW1  198   0.984   1.324   3.257
  309SOL    HW2  199   1.147   1.321   3.251
  310SOL     OW  200   1.592   1.629   3.487
  310SOL    HW1  201   1.619   1.663   3.397
  310SOL    HW2  202   1.671   1.591   3.533
  311SOL     OW  203   1.111   1.195   2.962
  311SOL    HW1  204   1.071   1.239   3.043
  311SOL    HW2  205   1.070   1.232   2.879
  312SOL     OW  206   1.638   1.099   2.941
  312SOL    HW1  207   1.643   1.180   3.000
  312SOL    HW2  208   1.552   1.101   2.890
  321SOL     OW  209   1.252   1.348   2.250
  321SOL    HW1  210   1.302   1.425   2.290
  321SOL    HW2  211   1.157   1.350   2.282
  322SOL     OW  212   1.272   1.445   3.004
  322SOL    HW1  213   1.319   1.458   3.091
  322SOL    HW2  214   1.206   1.371   3.013
  323SOL     OW  215   1.582   0.639   2.334
  323SOL    HW1  216   1.551   0.700   2.407
  323SOL    HW2  217   1.632   0.691   2.265
  330SOL     OW  218   1.360   0.862   2.907
  330SOL    HW1  219   1.285   0.862   2.841
  330SOL    HW2  220   1.397   0.770   2.916
  340SOL     OW  221   1.859   1.518   3.467
  340SOL    HW1  222   1.873   1.545   3.372
  340SOL    HW2  223   1.942   1.540   3.520
  343SOL     OW  224   1.303   0.838   1.904
  343SOL    HW1  225   1.337   0.745   1.919
  343SOL    HW2  226   1.321   0.865   1.809
  344SOL     OW  227   1.068   1.333   2.711
  344SOL    HW1  228   1.075   1.249   2.656
  344SOL    HW2  229   1.130   1.402   2.675
  360SOL     OW  230   0.930   1.678   3.327
  360SOL    HW1  231   0.906   1.660   3.232
  360SOL    HW2  232   0.960   1.772   3.337
  363SOL     OW  233   1.347   1.059   3.096
  363SOL    HW1  234   1.371   0.996   3.022
  363SOL    HW2  235   1.257   1.099   3.078
  364SOL     OW  236   1.302   0.855   2.171
  364SOL    HW1  237   1.216   0.824   2.213
  364SOL    HW2  238   1.298   0.841   2.072
  365SOL     OW  239   1.759   1.747   3.016
  365SOL    HW1  240   1.820   1.777   2.943
  365SOL    HW2  241   1.721   1.658   2.994
  366SOL     OW  242   1.252   1.731   2.990
  366SOL    HW1  243   1.336   1.736   2.936
  366SOL    HW2  244   1.229   1.635   3.008
  370SOL     OW  245   1.388   1.573   2.339
  370SOL    HW1  246   1.455   1.585   2.265
  370SOL    HW2  247   1.348   1.662   2.362
  372SOL     OW  248   1.280   0.927   2.534
  372SOL    HW1  249   1.340   0.846   2.536
  372SOL    HW2  250   1.320   0.996   2.474
  374SOL     OW  251   0.672   1.616   2.016
  374SOL    HW1  252   0.681   1.626   1.917
  374SOL    HW2  253   0.632   1.527   2.037
  375SOL     OW  254   1.650   1.720   3.256
  375SOL    HW1  255   1.703   1.730   3.172
  375SOL    HW2  256   1.623   1.810   3.290
  378SOL     OW  257   1.194   1.612   1.893
  378SOL    HW1  258   1.200   1.519   1.930
  378SOL    HW2  259   1.135   1.612   1.813
  381SOL     OW  260   1.504   1.607   1.906
  381SOL    HW1  261   1.412   1.644   1.913
  381SOL    HW2  262   1.542   1.627   1.816
  383SOL     OW  263   1.614   1.292   3.151
  383SOL    HW1  264   1.674   1.295   3.231
  383SOL    HW2  265   1.539   1.356   3.164
  384SOL     OW  266   1.039   1.098   2.558
  384SOL    HW1  267   0.969   1.051   2.612
  384SOL    HW2  268   1.098   1.030   2.515
  386SOL     OW  269   0.590   1.487   2.353
  386SOL    HW1  270   0.632   1.429   2.283
  386SOL    HW2  271   0.546   1.566   2.309
  394SOL     OW  272   1.183   1.335   1.981
  394SOL    HW1  273   1.084   1.324   1.983
  394SOL    HW2  274   1.217   1.350   2.074
  396SOL     OW  275   1.493   1.767   2.821
  396SOL    HW1  276   1.526   1.831   2.752
  396SOL    HW2  277   1.559   1.761   2.896
  398SOL     OW  278   1.450   1.220   3.495
  398SOL    HW1  279   1.441   1.210   3.594
  398SOL    HW2  280   1.546   1.213   3.469
  400SOL     OW  281   1.674   0.883   3.116
  400SOL    HW1  282   1.647   0.794   3.079
  400SOL    HW2  283   1.675   0.951   3.043
  404SOL     OW  284   1.730   0.934   3.379
  404SOL    HW1  285   1.768   1.025   3.394
  404SOL    HW2  286   1.722   0.917   3.280
  405SOL     OW  287   0.859   1.374   1.878
  405SOL    HW1  288   0.813   1.389   1.966
  405SOL    HW2  289   0.903   1.459   1.848
  406SOL     OW  290   0.661   1.790   2.815
  406SOL    HW1  291   0.615   1.878   2.802
  406SOL    HW2  292   0.760   1.802   2.808
  408SOL     OW  293   1.083   0.984   1.949
  408SOL    HW1  294   1.060   1.037   1.867
  408SOL    HW2  295   1.164   0.928   1.930
  409SOL     OW  296   1.861   1.569   2.713
  409SOL    HW1  297   1.790   1.557   2.643
  409SOL    HW2  298   1.862   1.490   2.773
  415SOL     OW  299   1.705   1.487   2.966
  415SOL    HW1  300   1.612   1.462   2.939
  415SOL    HW2  301   1.731   1.437   3.048
  417SOL     OW  302   0.812   1.586   2.549
  417SOL    HW1  303   0.844   1.596   2.455
  417SOL    HW2  304   0.733   1.524   2.551
  420SOL     OW  305   0.770   1.330   2.163
  420SOL    HW1  306   0.724   1.243   2.180
  420SOL    HW2  307   0.861   1.327   2.204
  426SOL     OW  308   0.875   1.646   2.199
  426SOL    HW1  309   0.798   1.611   2.145
  426SOL    HW2  310   0.843   1.717   2.261
  512SOL     OW  311   0.850   2.660   1.823
  512SOL    HW1  312   0.846   2.736   1.888
  512SOL    HW2  313   0.872   2.696   1.732
  514SOL     OW  314   0.686   3.023   1.803
  514SOL    HW1  315   0.746   3.102   1.817
  514SOL    HW2  316   0.600   3.054   1.762
  516SOL     OW  317   1.460   3.367   1.339
  516SOL    HW1  318   1.484   3.461   1.365
  516SOL    HW2  319   1.444   3.313   1.421
  518SOL     OW  320   1.603   2.309   0.737
  518SOL    HW1  321   1.529   2.355   0.687
  518SOL    HW2  322   1.654   2.377   0.790
  520SOL     OW  323   1.127   3.203   1.690
  520SOL    HW1  324   1.174   3.203   1.778
  520SOL    HW2  325   1.079   3.116   1.679
  525SOL     OW  326   1.594   1.976   1.480
  525SOL    HW1  327   1.576   2.043   1.408
  525SOL    HW2  328   1.591   2.022   1.569
  529SOL     OW  329   1.689   2.784   0.612
  529SOL    HW1  330   1.784   2.755   0.620
  529SOL    HW2  331   1.681   2.849   0.537
  533SOL     OW  332   1.293   3.090   1.423
  533SOL    HW1  333   1.330   3.017   1.365
  533SOL    HW2  334   1.345   3.095   1.508
  542SOL     OW  335   1.281   2.207   0.944
  542SOL    HW1  336   1.195   2.157   0.931
  542SOL    HW2  337   1.343   2.153   1.000
  544SOL     OW  338   0.807   2.467   1.465
  544SOL    HW1  339   0.760   2.464   1.554
  544SOL    HW2  340   0.756   2.412   1.399
  545SOL     OW  341   1.394   2.331   1.674
  545SOL    HW1  342   1.374   2.374   1.762
  545SOL    HW2  343   1.472   2.269   1.683
  546SOL     OW  344   0.973   2.752   1.572
  546SOL    HW1  345   1.019   2.668   1.543
  546SOL    HW2  346   0.917   2.786   1.497
  547SOL     OW  347   0.991   2.272   1.242
  547SOL    HW1  348   0.914   2.306   1.296
  547SOL    HW2  349   0.957   2.221   1.163
  552SOL     OW  350   1.719   2.447   1.831
  552SOL    HW1  351   1.693   2.536   1.795
  552SOL    HW2  352   1.717   2.379   1.758
  557SOL     OW  353   1.795   2.928   0.873
  557SOL    HW1  354   1.733   2.913   0.797
  557SOL    HW2  355   1.743   2.939   0.958
  558SOL     OW  356   1.227   3.412   1.506
  558SOL    HW1  357   1.233   3.335   1.570
  558SOL    HW2  358   1.175   3.386   1.426
  560SOL     OW  359   1.458   2.597   0.728
  560SOL    HW1  360   1.453   2.532   0.803
  560SOL    HW2  361   1.538   2.656   0.741
  570SOL     OW  362   1.547   2.084   1.729
  570SOL    HW1  363   1.542   2.121   1.821
  570SOL    HW2  364   1.475   2.015   1.717
  572SOL     OW  365   0.781   2.126   1.749
  572SOL    HW1  366   0.848   2.065   1.792
  572SOL    HW2  367   0.708   2.145   1.814
  574SOL     OW  368   1.351   2.452   1.433
  574SOL    HW1  369   1.379   2.409   1.518
  574SOL    HW2  370   1.376   2.548   1.434
  580SOL     OW  371   1.076   2.545   1.464
  580SOL    HW1  372   0.996   2.484   1.467
  580SOL    HW2  373   1.157   2.492   1.440
  589SOL     OW  374   1.429   3.035   0.867
  589SOL    HW1  375   1.374   2.951   0.860
  589SOL    HW2  376   1.455   3.064   0.775
  590SOL     OW  377   1.466   2.452   0.992
  590SOL    HW1  378   1.436   2.357   0.999
  590SOL    HW2  379   1.539   2.468   1.058
  596SOL     OW  380   1.754   3.085   1.588
  596SOL    HW1  381   1.845   3.046   1.575
  596SOL    HW2  382   1.762   3.181   1.612
  597SOL     OW  383   1.064   3.209   1.340
  597SOL    HW1  384   0.984   3.186   1.395
  597SOL    HW2  385   1.147   3.183   1.389
  598SOL     OW  386   1.592   3.491   1.625
  598SOL    HW1  387   1.619   3.525   1.535
  598SOL    HW2  388   1.671   3.453   1.671
  599SOL     OW  389   1.111   3.057   1.100
  599SOL    HW1  390   1.071   3.101   1.181
  599SOL    HW2  391   1.070   3.094   1.017
  600SOL     OW  392   1.638   2.961   1.079
  600SOL    HW1  393   1.643   3.042   1.138
  600SOL    HW2  394   1.552   2.963   1.028
  601SOL     OW  395   0.915   1.951   1.402
  601SOL    HW1  396   0.940   1.931   1.307
  601SOL    HW2  397   0.987   2.007   1.444
  602SOL     OW  398   0.980   2.978   1.719
  602SOL    HW1  399   0.881   2.984   1.729
  602SOL    HW2  400   1.003   2.898   1.663
  605SOL     OW  401   1.274   2.248   1.262
  605SOL    HW1  402   1.295   2.322   1.326
  605SOL    HW2  403   1.185   2.265   1.219
  610SOL     OW  404   1.272   3.307   1.142
  610SOL    HW1  405   1.319   3.320   1.229
  610SOL    HW2  406   1.206   3.233   1.151
  614SOL     OW  407   1.587   2.641   1.670
  614SOL    HW1  408   1.495   2.679   1.665
  614SOL    HW2  409   1.647   2.688   1.605
  615SOL     OW  410   1.013   1.967   1.770
  615SOL    HW1  411   1.019   2.052   1.718
  615SOL    HW2  412   1.045   1.891   1.713
  618SOL     OW  413   1.360   2.724   1.045
  618SOL    HW1  414   1.285   2.724   0.979
  618SOL    HW2  415   1.397   2.632   1.054
  623SOL     OW  416   1.728   2.797   1.854
  623SOL    HW1  417   1.682   2.790   1.765
  623SOL    HW2  418   1.666   2.841   1.920
  626SOL     OW  419   1.023   2.628   0.966
  626SOL    HW1  420   1.038   2.649   1.062
  626SOL    HW2  421   0.993   2.533   0.957
  628SOL     OW  422   1.859   3.380   1.605
  628SOL    HW1  423   1.873   3.407   1.510
  628SOL    HW2  424   1.942   3.402   1.658
  635SOL     OW  425   1.138   2.242   1.678
  635SOL    HW1  426   1.093   2.305   1.742
  635SOL    HW2  427   1.231   2.273   1.661
  636SOL     OW  428   1.160   2.069   1.477
  636SOL    HW1  429   1.160   2.133   1.554
  636SOL    HW2  430   1.188   2.117   1.394
  640SOL     OW  431   1.002   2.658   1.238
  640SOL    HW1  432   1.043   2.626   1.324
  640SOL    HW2  433   0.906   2.631   1.235
  643SOL     OW  434   1.369   2.812   1.660
  643SOL    HW1  435   1.408   2.901   1.680
  643SOL    HW2  436   1.379   2.792   1.563
  645SOL     OW  437   1.657   2.466   1.206
  645SOL    HW1  438   1.619   2.397   1.268
  645SOL    HW2  439   1.739   2.430   1.162
  651SOL     OW  440   1.347   2.921   1.234
  651SOL    HW1  441   1.371   2.858   1.160
  651SOL    HW2  442   1.257   2.961   1.216
  658SOL     OW  443   1.726   1.997   0.523
  658SOL    HW1  444   1.799   1.980   0.456
  658SOL    HW2  445   1.695   1.910   0.561
  664SOL     OW  446   1.650   3.582   1.394
  664SOL    HW1  447   1.703   3.592   1.310
  664SOL    HW2  448   1.623   3.672   1.428
  665SOL     OW  449   1.841   2.037   0.963
  665SOL    HW1  450   1.880   1.952   0.927
  665SOL    HW2  451   1.743   2.039   0.944
  668SOL     OW  452   0.822   2.864   1.372
  668SOL    HW1  453   0.862   2.863   1.280
  668SOL    HW2  454   0.832   2.956   1.412
  672SOL     OW  455   1.614   3.154   1.289
  672SOL    HW1  456   1.674   3.157   1.369
  672SOL    HW2  457   1.539   3.218   1.302
  674SOL     OW  458   1.014   2.098   0.971
  674SOL    HW1  459   1.006   2.062   0.878
  674SOL    HW2  460   1.012   2.022   1.036
  676SOL     OW  461   1.709   2.247   1.381
  676SOL    HW1  462   1.782   2.316   1.385
  676SOL    HW2  463   1.737   2.172   1.322
  679SOL     OW  464   0.672   2.065   1.489
  679SOL    HW1  465   0.762   2.049   1.449
  679SOL    HW2  466   0.680   2.070   1.588
  681SOL     OW  467   1.440   2.718   1.398
  681SOL    HW1  468   1.383   2.770   1.335
  681SOL    HW2  469   1.536   2.730   1.374
  686SOL     OW  470   0.716   2.427   1.708
  686SOL    HW1  471   0.735   2.492   1.782
  686SOL    HW2  472   0.776   2.347   1.717
  687SOL     OW  473   1.450   3.082   1.633
  687SOL    HW1  474   1.441   3.072   1.732
  687SOL    HW2  475   1.546   3.075   1.607
  689SOL     OW  476   1.674   2.745   1.254
  689SOL    HW1  477   1.647   2.656   1.217
  689SOL    HW2  478   1.675   2.813   1.181
  692SOL     OW  479   1.777   2.204   1.642
  692SOL    HW1  480   1.760   2.235   1.548
  692SOL    HW2  481   1.693   2.167   1.680
  693SOL     OW  482   1.730   2.796   1.517
  693SOL    HW1  483   1.768   2.887   1.532
  693SOL    HW2  484   1.722   2.779   1.418
  702SOL     OW  485   1.824   2.054   1.227
  702SOL    HW1  486   1.820   1.964   1.271
  702SOL    HW2  487   1.827   2.043   1.128
  704SOL     OW  488   1.705   3.349   1.104
  704SOL    HW1  489   1.612   3.324   1.077
  704SOL    HW2  490   1.731   3.299   1.186
  707SOL     OW  491   1.424   2.076   1.112
  707SOL    HW1  492   1.476   2.011   1.167
  707SOL    HW2  493   1.375   2.139   1.173
  708SOL     OW  494   1.001   1.896   1.154
  708SOL    HW1  495   0.938   1.824   1.123
  708SOL    HW2  496   1.094   1.860   1.154
  712SOL     OW  497   1.300   2.315   0.691
  712SOL    HW1  498   1.241   2.395   0.695
  712SOL    HW2  499   1.315   2.280   0.784
  713SOL     OW  500   1.593   2.083   0.882
  713SOL    HW1  501   1.509   2.082   0.936
  713SOL    HW2  502   1.595   2.166   0.826
  720SOL     OW  503   1.555   3.373   2.565
  720SOL    HW1  504   1.498   3.357   2.646
  720SOL    HW2  505   1.496   3.383   2.485
  721SOL     OW  506   1.135   2.565   2.579
  721SOL    HW1  507   1.192   2.643   2.554
  721SOL    HW2  508   1.075   2.591   2.655
  722SOL     OW  509   1.755   2.469   2.093
  722SOL    HW1  510   1.743   2.456   1.994
  722SOL    HW2  511   1.725   2.388   2.142
  723SOL     OW  512   0.768   3.006   2.885
  723SOL    HW1  513   0.690   3.023   2.945
  723SOL    HW2  514   0.802   3.093   2.849
  725SOL     OW  515   0.685   2.874   2.527
  725SOL    HW1  516   0.754   2.858   2.597
  725SOL    HW2  517   0.612   2.931   2.565
  728SOL     OW  518   1.460   3.367   3.201
  728SOL    HW1  519   1.484   3.461   3.227
  728SOL    HW2  520   1.444   3.313   3.283
  730SOL     OW  521   1.603   2.309   2.599
  730SOL    HW1  522   1.529   2.355   2.549
  730SOL    HW2  523   1.654   2.377   2.652
  736SOL     OW  524   0.606   2.826   1.985
  736SOL    HW1  525   0.613   2.910   1.931
  736SOL    HW2  526   0.652   2.839   2.073
  737SOL     OW  527   1.594   1.976   3.342
  737SOL    HW1  528   1.576   2.043   3.270
  737SOL    HW2  529   1.591   2.022   3.431
  739SOL     OW  530   1.842   3.629   2.221
  739SOL    HW1  531   1.896   3.600   2.301
  739SOL    HW2  532   1.872   3.719   2.192
  741SOL     OW  533   1.689   2.784   2.474
  741SOL    HW1  534   1.784   2.755   2.482
  741SOL    HW2  535   1.681   2.849   2.399
  742SOL     OW  536   1.641   2.970   2.294
  742SOL    HW1  537   1.727   2.972   2.242
  742SOL    HW2  538   1.655   3.017   2.382
  745SOL     OW  539   1.293   3.090   3.285
  745SOL    HW1  540   1.330   3.017   3.227
  745SOL    HW2  541   1.345   3.095   3.370
  746SOL     OW  542   0.809   1.866   2.364
  746SOL    HW1  543   0.849   1.957   2.355
  746SOL    HW2  544   0.709   1.874   2.370
  748SOL     OW  545   1.525   2.861   2.052
  748SOL    HW1  546   1.462   2.785   2.065
  748SOL    HW2  547   1.573   2.879   2.138
  751SOL     OW  548   1.466   3.279   2.815
  751SOL    HW1  549   1.407   3.285   2.895
  751SOL    HW2  550   1.451   3.191   2.769
  752SOL     OW  551   1.667   3.576   2.434
  752SOL    HW1  552   1.626   3.553   2.346
  752SOL    HW2  553   1.649   3.502   2.499
  753SOL     OW  554   0.598   2.591   2.132
  753SOL    HW1  555   0.622   2.660   2.064
  753SOL    HW2  556   0.520   2.624   2.186
  754SOL     OW  557   1.281   2.207   2.806
  754SOL    HW1  558   1.195   2.157   2.793
  754SOL    HW2  559   1.343   2.153   2.862
  755SOL     OW  560   1.576   3.524   2.169
  755SOL    HW1  561   1.665   3.570   2.172
  755SOL    HW2  562   1.555   3.500   2.074
  757SOL     OW  563   1.394   2.331   3.536
  757SOL    HW1  564   1.374   2.374   3.624
  757SOL    HW2  565   1.472   2.269   3.545
  759SOL     OW  566   0.991   2.272   3.104
  759SOL    HW1  567   0.914   2.306   3.158
  759SOL    HW2  568   0.957   2.221   3.025
  760SOL     OW  569   1.041   2.563   2.291
  760SOL    HW1  570   1.067   2.559   2.387
  760SOL    HW2  571   0.956   2.512   2.277
  763SOL     OW  572   0.865   2.210   2.057
  763SOL    HW1  573   0.924   2.273   2.008
  763SOL    HW2  574   0.884   2.116   2.028
  764SOL     OW  575   1.719   2.447   3.693
  764SOL    HW1  576   1.693   2.536   3.657
  764SOL    HW2  577   1.717   2.379   3.620
  765SOL     OW  578   1.362   3.006   2.407
  765SOL    HW1  579   1.445   2.977   2.359
  765SOL    HW2  580   1.313   3.073   2.351
  766SOL     OW  581   0.550   2.058   2.747
  766SOL    HW1  582   0.545   2.053   2.847
  766SOL    HW2  583   0.552   2.154   2.718
  767SOL     OW  584   1.008   3.318   2.339
  767SOL    HW1  585   0.962   3.390   2.287
  767SOL    HW2  586   1.004   3.338   2.437
  769SOL     OW  587   1.795   2.928   2.735
  769SOL    HW1  588   1.733   2.913   2.659
  769SOL    HW2  589   1.743   2.939   2.820
  772SOL     OW  590   1.458   2.597   2.590
  772SOL    HW1  591   1.453   2.532   2.665
  772SOL    HW2  592   1.538   2.656   2.603
  776SOL     OW  593   1.632   3.239   1.943
  776SOL    HW1  594   1.600   3.333   1.933
  776SOL    HW2  595   1.556   3.176   1.931
  778SOL     OW  596   1.400   1.969   2.288
  778SOL    HW1  597   1.376   1.932   2.198
  778SOL    HW2  598   1.499   1.985   2.292
  782SOL     OW  599   1.547   2.084   3.591
  782SOL    HW1  600   1.542   2.121   3.683
  782SOL    HW2  601   1.475   2.015   3.579
  783SOL     OW  602   0.614   1.984   1.979
  783SOL    HW1  603   0.712   1.962   1.986
  783SOL    HW2  604   0.583   1.967   1.886
  786SOL     OW  605   1.351   2.452   3.295
  786SOL    HW1  606   1.379   2.409   3.380
  786SOL    HW2  607   1.376   2.548   3.296
  788SOL     OW  608   0.922   2.365   2.761
  788SOL    HW1  609   0.897   2.356   2.665
  788SOL    HW2  610   0.970   2.283   2.792
  789SOL     OW  611   0.539   1.926   2.374
  789SOL    HW1  612   0.458   1.927   2.432
  789SOL    HW2  613   0.542   2.009   2.319
  790SOL     OW  614   1.434   3.050   1.903
  790SOL    HW1  615   1.466   2.974   1.960
  790SOL    HW2  616   1.342   3.077   1.933
  792SOL     OW  617   0.935   2.098   2.342
  792SOL    HW1  618   0.887   2.139   2.264
  792SOL    HW2  619   1.034   2.096   2.323
  793SOL     OW  620   1.076   2.545   3.326
  793SOL    HW1  621   0.996   2.484   3.329
  793SOL    HW2  622   1.157   2.492   3.302
  794SOL     OW  623   1.227   3.432   2.655
  794SOL    HW1  624   1.248   3.506   2.590
  794SOL    HW2  625   1.295   3.432   2.728
  796SOL     OW  626   1.271   3.659   2.453
  796SOL    HW1  627   1.315   3.723   2.389
  796SOL    HW2  628   1.221   3.711   2.523
  797SOL     OW  629   1.032   2.411   1.878
  797SOL    HW1  630   0.991   2.493   1.839
  797SOL    HW2  631   1.096   2.437   1.951
  800SOL     OW  632   0.866   2.316   2.504
  800SOL    HW1  633   0.834   2.388   2.442
  800SOL    HW2  634   0.890   2.235   2.451
  801SOL     OW  635   1.017   1.901   2.615
  801SOL    HW1  636   0.945   1.906   2.546
  801SOL    HW2  637   0.993   1.832   2.684
  802SOL     OW  638   1.429   3.035   2.729
  802SOL    HW1  639   1.374   2.951   2.722
  802SOL    HW2  640   1.455   3.064   2.637
  803SOL     OW  641   1.466   2.452   2.854
  803SOL    HW1  642   1.436   2.357   2.861
  803SOL    HW2  643   1.539   2.468   2.920
  804SOL     OW  644   1.857   2.695   2.239
  804SOL    HW1  645   1.899   2.631   2.303
  804SOL    HW2  646   1.819   2.644   2.161
  806SOL     OW  647   1.664   3.142   2.519
  806SOL    HW1  648   1.763   3.150   2.533
  806SOL    HW2  649   1.619   3.226   2.550
  807SOL     OW  650   1.390   2.437   1.940
  807SOL    HW1  651   1.336   2.416   2.021
  807SOL    HW2  652   1.481   2.396   1.949
  808SOL     OW  653   0.527   2.118   2.190
  808SOL    HW1  654   0.554   2.059   2.115
  808SOL    HW2  655   0.527   2.213   2.159
  809SOL     OW  656   1.754   3.085   3.450
  809SOL    HW1  657   1.845   3.046   3.437
  809SOL    HW2  658   1.762   3.181   3.474
  812SOL     OW  659   1.111   3.057   2.962
  812SOL    HW1  660   1.071   3.101   3.043
  812SOL    HW2  661   1.070   3.094   2.879
  813SOL     OW  662   1.638   2.961   2.941
  813SOL    HW1  663   1.643   3.042   3.000
  813SOL    HW2  664   1.552   2.963   2.890
  814SOL     OW  665   0.915   1.951   3.264
  814SOL    HW1  666   0.940   1.931   3.169
  814SOL    HW2  667   0.987   2.007   3.306
  816SOL     OW  668   0.705   2.912   2.230
  816SOL    HW1  669   0.691   2.919   2.329
  816SOL    HW2  670   0.789   2.861   2.212
  818SOL     OW  671   1.274   2.248   3.124
  818SOL    HW1  672   1.295   2.322   3.188
  818SOL    HW2  673   1.185   2.265   3.081
  821SOL     OW  674   0.566   2.399   2.727
  821SOL    HW1  675   0.578   2.465   2.653
  821SOL    HW2  676   0.612   2.433   2.810
  822SOL     OW  677   1.252   3.210   2.250
  822SOL    HW1  678   1.302   3.287   2.290
  822SOL    HW2  679   1.157   3.212   2.282
  823SOL     OW  680   1.272   3.307   3.004
  823SOL    HW1  681   1.319   3.320   3.091
  823SOL    HW2  682   1.206   3.233   3.013
  824SOL     OW  683   1.582   2.501   2.334
  824SOL    HW1  684   1.551   2.562   2.407
  824SOL    HW2  685   1.632   2.553   2.265
  827SOL     OW  686   1.587   2.641   3.532
  827SOL    HW1  687   1.495   2.679   3.527
  827SOL    HW2  688   1.647   2.688   3.467
  831SOL     OW  689   1.360   2.724   2.907
  831SOL    HW1  690   1.285   2.724   2.841
  831SOL    HW2  691   1.397   2.632   2.916
  832SOL     OW  692   1.209   2.387   2.137
  832SOL    HW1  693   1.222   2.303   2.191
  832SOL    HW2  694   1.180   2.461   2.197
  835SOL     OW  695   0.732   2.496   2.926
  835SOL    HW1  696   0.791   2.470   2.850
  835SOL    HW2  697   0.704   2.592   2.915
  836SOL     OW  698   1.728   2.797   3.716
  836SOL    HW1  699   1.682   2.790   3.627
  836SOL    HW2  700   1.666   2.841   3.782
  838SOL     OW  701   1.622   2.229   2.236
  838SOL    HW1  702   1.624   2.153   2.300
  838SOL    HW2  703   1.574   2.306   2.276
  839SOL     OW  704   1.023   2.628   2.828
  839SOL    HW1  705   1.038   2.649   2.924
  839SOL    HW2  706   0.993   2.533   2.819
  841SOL     OW  707   1.859   3.380   3.467
  841SOL    HW1  708   1.873   3.407   3.372
  841SOL    HW2  709   1.942   3.402   3.520
  843SOL     OW  710   1.540   2.136   1.987
  843SOL    HW1  711   1.479   2.061   2.010
  843SOL    HW2  712   1.562   2.188   2.070
  844SOL     OW  713   1.303   2.700   1.904
  844SOL    HW1  714   1.337   2.607   1.919
  844SOL    HW2  715   1.321   2.727   1.809
  845SOL     OW  716   1.068   3.195   2.711
  845SOL    HW1  717   1.075   3.111   2.656
  845SOL    HW2  718   1.130   3.264   2.675
  848SOL     OW  719   1.138   2.242   3.540
  848SOL    HW1  720   1.093   2.305   3.604
  848SOL    HW2  721   1.231   2.273   3.523
  849SOL     OW  722   1.160   2.069   3.339
  849SOL    HW1  723   1.160   2.133   3.416
  849SOL    HW2  724   1.188   2.117   3.256
  853SOL     OW  725   1.002   2.658   3.100
  853SOL    HW1  726   1.043   2.626   3.186
  853SOL    HW2  727   0.906   2.631   3.097
  856SOL     OW  728   1.369   2.812   3.522
  856SOL    HW1  729   1.408   2.901   3.542
  856SOL    HW2  730   1.379   2.792   3.425
  857SOL     OW  731   0.815   2.434   2.187
  857SOL    HW1  732   0.822   2.345   2.141
  857SOL    HW2  733   0.721   2.468   2.179
  858SOL     OW  734   1.657   2.466   3.068
  858SOL    HW1  735   1.619   2.397   3.130
  858SOL    HW2  736   1.739   2.430   3.024
  860SOL     OW  737   0.671   2.326   3.131
  860SOL    HW1  738   0.637   2.237   3.101
  860SOL    HW2  739   0.697   2.380   3.051
  862SOL     OW  740   0.473   2.362   2.053
  862SOL    HW1  741   0.534   2.442   2.057
  862SOL    HW2  742   0.378   2.393   2.060
  864SOL     OW  743   1.347   2.921   3.096
  864SOL    HW1  744   1.371   2.858   3.022
  864SOL    HW2  745   1.257   2.961   3.078
  865SOL     OW  746   1.302   2.717   2.171
  865SOL    HW1  747   1.216   2.686   2.213
  865SOL    HW2  748   1.298   2.703   2.072
  866SOL     OW  749   1.759   3.609   3.016
  866SOL    HW1  750   1.820   3.639   2.943
  866SOL    HW2  751   1.721   3.520   2.994
  870SOL     OW  752   1.726   1.997   2.385
  870SOL    HW1  753   1.799   1.980   2.318
  870SOL    HW2  754   1.695   1.910   2.423
  871SOL     OW  755   1.388   3.435   2.339
  871SOL    HW1  756   1.455   3.447   2.265
  871SOL    HW2  757   1.348   3.524   2.362
  873SOL     OW  758   1.280   2.789   2.534
  873SOL    HW1  759   1.340   2.708   2.536
  873SOL    HW2  760   1.320   2.858   2.474
  877SOL     OW  761   1.841   2.037   2.825
  877SOL    HW1  762   1.880   1.952   2.789
  877SOL    HW2  763   1.743   2.039   2.806
  879SOL     OW  764   1.194   3.474   1.893
  879SOL    HW1  765   1.200   3.381   1.930
  879SOL    HW2  766   1.135   3.474   1.813
  881SOL     OW  767   0.916   2.772   2.153
  881SOL    HW1  768   0.979   2.810   2.085
  881SOL    HW2  769   0.956   2.689   2.192
  882SOL     OW  770   1.504   3.469   1.906
  882SOL    HW1  771   1.412   3.506   1.913
  882SOL    HW2  772   1.542   3.489   1.816
  884SOL     OW  773   1.614   3.154   3.151
  884SOL    HW1  774   1.674   3.157   3.231
  884SOL    HW2  775   1.539   3.218   3.164
  885SOL     OW  776   1.039   2.960   2.558
  885SOL    HW1  777   0.969   2.913   2.612
  885SOL    HW2  778   1.098   2.892   2.515
  886SOL     OW  779   1.014   2.098   2.833
  886SOL    HW1  780   1.006   2.062   2.740
  886SOL    HW2  781   1.012   2.022   2.898
  888SOL     OW  782   1.709   2.247   3.243
  888SOL    HW1  783   1.782   2.316   3.247
  888SOL    HW2  784   1.737   2.172   3.184
  893SOL     OW  785   1.440   2.718   3.260
  893SOL    HW1  786   1.383   2.770   3.197
  893SOL    HW2  787   1.536   2.730   3.236
  895SOL     OW  788   1.183   3.197   1.981
  895SOL    HW1  789   1.084   3.186   1.983
  895SOL    HW2  790   1.217   3.212   2.074
  897SOL     OW  791   1.493   3.629   2.821
  897SOL    HW1  792   1.526   3.693   2.752
  897SOL    HW2  793   1.559   3.623   2.896
  899SOL     OW  794   1.450   3.082   3.495
  899SOL    HW1  795   1.441   3.072   3.594
  899SOL    HW2  796   1.546   3.075   3.469
  901SOL     OW  797   1.674   2.745   3.116
  901SOL    HW1  798   1.647   2.656   3.079
  901SOL    HW2  799   1.675   2.813   3.043
  902SOL     OW  800   1.225   2.187   2.311
  902SOL    HW1  801   1.290   2.113   2.300
  902SOL    HW2  802   1.245   2.237   2.395
  903SOL     OW  803   0.594   2.607   2.514
  903SOL    HW1  804   0.644   2.692   2.495
  903SOL    HW2  805   0.506   2.609   2.466
  904SOL     OW  806   1.777   2.204   3.504
  904SOL    HW1  807   1.760   2.235   3.410
  904SOL    HW2  808   1.693   2.167   3.542
  905SOL     OW  809   1.730   2.796   3.379
  905SOL    HW1  810   1.768   2.887   3.394
  905SOL    HW2  811   1.722   2.779   3.280
  906SOL     OW  812   0.859   3.236   1.878
  906SOL    HW1  813   0.813   3.251   1.966
  906SOL    HW2  814   0.903   3.321   1.848
  908SOL     OW  815   0.859   2.818   2.723
  908SOL    HW1  816   0.913   2.749   2.771
  908SOL    HW2  817   0.827   2.887   2.789
  909SOL     OW  818   1.083   2.846   1.949
  909SOL    HW1  819   1.060   2.899   1.867
  909SOL    HW2  820   1.164   2.790   1.930
  910SOL     OW  821   1.861   3.431   2.713
  910SOL    HW1  822   1.790   3.419   2.643
  910SOL    HW2  823   1.862   3.352   2.773
  914SOL     OW  824   1.824   2.054   3.089
  914SOL    HW1  825   1.820   1.964   3.133
  914SOL    HW2  826   1.827   2.043   2.990
  915SOL     OW  827   0.428   2.286   2.382
  915SOL    HW1  828   0.458   2.214   2.320
  915SOL    HW2  829   0.389   2.246   2.465
  916SOL     OW  830   1.705   3.349   2.966
  916SOL    HW1  831   1.612   3.324   2.939
  916SOL    HW2  832   1.731   3.299   3.048
  919SOL     OW  833   1.424   2.076   2.974
  919SOL    HW1  834   1.476   2.011   3.029
  919SOL    HW2  835   1.375   2.139   3.035
  920SOL     OW  836   1.001   1.896   3.016
  920SOL    HW1  837   0.938   1.824   2.985
  920SOL    HW2  838   1.094   1.860   3.016
  921SOL     OW  839   0.770   3.192   2.163
  921SOL    HW1  840   0.724   3.105   2.180
  921SOL    HW2  841   0.861   3.189   2.204
  923SOL     OW  842   1.352   1.914   2.030
  923SOL    HW1  843   1.387   1.873   1.946
  923SOL    HW2  844   1.262   1.876   2.050
  924SOL     OW  845   1.300   2.315   2.553
  924SOL    HW1  846   1.241   2.395   2.557
  924SOL    HW2  847   1.315   2.280   2.646
  925SOL     OW  848   1.593   2.083   2.744
  925SOL    HW1  849   1.509   2.082   2.798
  925SOL    HW2  850   1.595   2.166   2.688
  976SOL     OW  851   1.540   2.136   3.849
  976SOL    HW1  852   1.479   2.061   3.872
  976SOL    HW2  853   1.562   2.188   3.932
 1146SOL     OW  854   1.726   3.859   2.385
 1146SOL    HW1  855   1.799   3.842   2.318
 1146SOL    HW2  856   1.695   3.772   2.423
 1164SOL     OW  857   1.352   3.776   2.030
 1164SOL    HW1  858   1.387   3.735   1.946
 1164SOL    HW2  859   1.262   3.738   2.050
 1202SOL     OW  860   2.431   1.275   1.165
 1202SOL    HW1  861   2.338   1.268   1.128
 1202SOL    HW2  862   2.442   1.364   1.209
 1206SOL     OW  863   2.630   1.144   1.023
 1206SOL    HW1  864   2.552   1.161   1.083
 1206SOL    HW2  865   2.664   1.231   0.987
 1207SOL     OW  866   2.712   0.798   1.823
 1207SOL    HW1  867   2.708   0.874   1.888
 1207SOL    HW2  868   2.734   0.834   1.732
 1209SOL     OW  869   2.548   1.161   1.803
 1209SOL    HW1  870   2.608   1.240   1.817
 1209SOL    HW2  871   2.462   1.192   1.762
 1210SOL     OW  872   2.197   1.435   1.061
 1210SOL    HW1  873   2.119   1.404   1.008
 1210SOL    HW2  874   2.255   1.493   1.004
 1211SOL     OW  875   3.322   1.505   1.339
 1211SOL    HW1  876   3.346   1.599   1.365
 1211SOL    HW2  877   3.306   1.451   1.421
 1215SOL     OW  878   2.989   1.341   1.690
 1215SOL    HW1  879   3.036   1.341   1.778
 1215SOL    HW2  880   2.941   1.254   1.679
 1217SOL     OW  881   2.102   1.091   0.886
 1217SOL    HW1  882   2.116   1.007   0.938
 1217SOL    HW2  883   2.047   1.155   0.941
 1218SOL     OW  884   2.482   1.786   1.439
 1218SOL    HW1  885   2.390   1.769   1.474
 1218SOL    HW2  886   2.510   1.878   1.465
 1226SOL     OW  887   1.975   0.737   1.597
 1226SOL    HW1  888   2.063   0.724   1.642
 1226SOL    HW2  889   1.962   0.834   1.575
 1227SOL     OW  890   2.475   1.365   0.726
 1227SOL    HW1  891   2.426   1.278   0.735
 1227SOL    HW2  892   2.452   1.408   0.639
 1228SOL     OW  893   3.155   1.228   1.423
 1228SOL    HW1  894   3.192   1.155   1.365
 1228SOL    HW2  895   3.207   1.233   1.508
 1230SOL     OW  896   2.059   0.976   1.264
 1230SOL    HW1  897   2.148   0.931   1.250
 1230SOL    HW2  898   1.986   0.911   1.245
 1232SOL     OW  899   3.049   1.792   1.616
 1232SOL    HW1  900   3.073   1.852   1.540
 1232SOL    HW2  901   3.056   1.697   1.586
 1241SOL     OW  902   2.835   0.890   1.572
 1241SOL    HW1  903   2.881   0.806   1.543
 1241SOL    HW2  904   2.779   0.924   1.497
 1245SOL     OW  905   1.992   1.821   1.571
 1245SOL    HW1  906   1.982   1.806   1.670
 1245SOL    HW2  907   1.906   1.857   1.535
 1251SOL     OW  908   2.213   1.801   0.853
 1251SOL    HW1  909   2.263   1.715   0.859
 1251SOL    HW2  910   2.278   1.878   0.850
 1253SOL     OW  911   3.089   1.550   1.506
 1253SOL    HW1  912   3.095   1.473   1.570
 1253SOL    HW2  913   3.037   1.524   1.426
 1256SOL     OW  914   2.323   1.266   1.727
 1256SOL    HW1  915   2.273   1.267   1.641
 1256SOL    HW2  916   2.260   1.248   1.803
 1262SOL     OW  917   2.111   1.785   1.241
 1262SOL    HW1  918   2.168   1.720   1.291
 1262SOL    HW2  919   2.095   1.752   1.148
 1263SOL     OW  920   2.802   1.698   0.904
 1263SOL    HW1  921   2.882   1.641   0.925
 1263SOL    HW2  922   2.753   1.658   0.827
 1268SOL     OW  923   2.750   1.514   1.195
 1268SOL    HW1  924   2.727   1.489   1.101
 1268SOL    HW2  925   2.811   1.445   1.234
 1270SOL     OW  926   2.665   1.402   0.924
 1270SOL    HW1  927   2.755   1.416   0.882
 1270SOL    HW2  928   2.594   1.404   0.853
 1277SOL     OW  929   3.089   1.570   0.793
 1277SOL    HW1  930   3.110   1.644   0.728
 1277SOL    HW2  931   3.157   1.570   0.866
 1293SOL     OW  932   2.926   1.347   1.340
 1293SOL    HW1  933   2.846   1.324   1.395
 1293SOL    HW2  934   3.009   1.321   1.389
 1294SOL     OW  935   3.454   1.629   1.625
 1294SOL    HW1  936   3.481   1.663   1.535
 1294SOL    HW2  937   3.533   1.591   1.671
 1295SOL     OW  938   2.973   1.195   1.100
 1295SOL    HW1  939   2.933   1.239   1.181
 1295SOL    HW2  940   2.932   1.232   1.017
 1298SOL     OW  941   2.842   1.116   1.719
 1298SOL    HW1  942   2.743   1.122   1.729
 1298SOL    HW2  943   2.865   1.036   1.663
 1300SOL     OW  944   2.272   0.813   1.251
 1300SOL    HW1  945   2.358   0.825   1.301
 1300SOL    HW2  946   2.230   0.726   1.278
 1302SOL     OW  947   1.926   1.564   1.331
 1302SOL    HW1  948   1.880   1.646   1.297
 1302SOL    HW2  949   2.024   1.583   1.340
 1306SOL     OW  950   3.134   1.445   1.142
 1306SOL    HW1  951   3.181   1.458   1.229
 1306SOL    HW2  952   3.068   1.371   1.151
 1308SOL     OW  953   2.216   1.510   1.329
 1308SOL    HW1  954   2.195   1.466   1.242
 1308SOL    HW2  955   2.313   1.536   1.332
 1309SOL     OW  956   2.264   0.751   1.598
 1309SOL    HW1  957   2.332   0.806   1.551
 1309SOL    HW2  958   2.304   0.663   1.625
 1317SOL     OW  959   1.899   1.310   1.282
 1317SOL    HW1  960   1.952   1.261   1.350
 1317SOL    HW2  961   1.921   1.408   1.287
 1323SOL     OW  962   2.842   1.573   1.700
 1323SOL    HW1  963   2.822   1.617   1.612
 1323SOL    HW2  964   2.881   1.482   1.684
 1324SOL     OW  965   3.721   1.518   1.605
 1324SOL    HW1  966   3.735   1.545   1.510
 1324SOL    HW2  967   3.804   1.540   1.658
 1325SOL     OW  968   2.212   0.898   1.804
 1325SOL    HW1  969   2.288   0.942   1.852
 1325SOL    HW2  970   2.247   0.851   1.722
 1328SOL     OW  971   2.930   1.333   0.849
 1328SOL    HW1  972   2.937   1.249   0.794
 1328SOL    HW2  973   2.992   1.402   0.813
 1334SOL     OW  974   1.950   1.801   0.927
 1334SOL    HW1  975   1.908   1.715   0.900
 1334SOL    HW2  976   2.044   1.804   0.893
 1335SOL     OW  977   2.366   1.568   0.910
 1335SOL    HW1  978   2.432   1.642   0.919
 1335SOL    HW2  979   2.410   1.489   0.868
 1338SOL     OW  980   2.051   0.520   1.722
 1338SOL    HW1  981   2.110   0.480   1.652
 1338SOL    HW2  982   1.993   0.591   1.681
 1339SOL     OW  983   3.231   0.950   1.660
 1339SOL    HW1  984   3.270   1.039   1.680
 1339SOL    HW2  985   3.241   0.930   1.563
 1342SOL     OW  986   2.114   1.564   1.744
 1342SOL    HW1  987   2.084   1.621   1.820
 1342SOL    HW2  988   2.107   1.467   1.770
 1344SOL     OW  989   2.792   1.678   1.465
 1344SOL    HW1  990   2.768   1.660   1.370
 1344SOL    HW2  991   2.822   1.772   1.475
 1346SOL     OW  992   2.021   1.137   1.466
 1346SOL    HW1  993   2.043   1.076   1.542
 1346SOL    HW2  994   2.031   1.088   1.380
 1350SOL     OW  995   3.114   1.731   1.128
 1350SOL    HW1  996   3.198   1.736   1.074
 1350SOL    HW2  997   3.091   1.635   1.146
 1351SOL     OW  998   1.945   1.258   1.022
 1351SOL    HW1  999   1.940   1.257   1.122
 1351SOL    HW2 1000   1.862   1.217   0.984
 1352SOL     OW 1001   2.550   1.662   1.716
 1352SOL    HW1 1002   2.494   1.743   1.725
 1352SOL    HW2 1003   2.602   1.666   1.630
 1356SOL     OW 1004   1.992   1.794   1.851
 1356SOL    HW1 1005   1.951   1.720   1.904
 1356SOL    HW2 1006   2.056   1.845   1.909
 1358SOL     OW 1007   2.692   1.273   1.422
 1358SOL    HW1 1008   2.687   1.306   1.517
 1358SOL    HW2 1009   2.606   1.292   1.376
 1360SOL     OW 1010   3.512   1.720   1.394
 1360SOL    HW1 1011   3.565   1.730   1.310
 1360SOL    HW2 1012   3.485   1.810   1.428
 1364SOL     OW 1013   2.684   1.002   1.372
 1364SOL    HW1 1014   2.724   1.001   1.280
 1364SOL    HW2 1015   2.694   1.094   1.412
 1367SOL     OW 1016   2.234   1.288   1.490
 1367SOL    HW1 1017   2.221   1.381   1.456
 1367SOL    HW2 1018   2.150   1.236   1.477
 1374SOL     OW 1019   1.967   1.013   1.726
 1374SOL    HW1 1020   1.890   0.980   1.780
 1374SOL    HW2 1021   2.052   0.983   1.768
 1379SOL     OW 1022   2.475   0.842   1.431
 1379SOL    HW1 1023   2.531   0.923   1.414
 1379SOL    HW2 1024   2.534   0.762   1.434
 1380SOL     OW 1025   3.355   1.767   0.959
 1380SOL    HW1 1026   3.388   1.831   0.890
 1380SOL    HW2 1027   3.421   1.761   1.034
 1381SOL     OW 1028   2.578   0.565   1.708
 1381SOL    HW1 1029   2.597   0.630   1.782
 1381SOL    HW2 1030   2.638   0.485   1.717
 1382SOL     OW 1031   3.312   1.220   1.633
 1382SOL    HW1 1032   3.303   1.210   1.732
 1382SOL    HW2 1033   3.408   1.213   1.607
 1383SOL     OW 1034   2.252   1.741   1.560
 1383SOL    HW1 1035   2.161   1.782   1.558
 1383SOL    HW2 1036   2.245   1.647   1.592
 1390SOL     OW 1037   2.523   1.790   0.953
 1390SOL    HW1 1038   2.477   1.878   0.940
 1390SOL    HW2 1039   2.622   1.802   0.946
 1394SOL     OW 1040   2.083   1.314   1.844
 1394SOL    HW1 1041   2.018   1.241   1.823
 1394SOL    HW2 1042   2.087   1.328   1.942
 1396SOL     OW 1043   2.534   1.391   1.624
 1396SOL    HW1 1044   2.456   1.341   1.662
 1396SOL    HW2 1045   2.531   1.486   1.655
 1401SOL     OW 1046   2.674   1.586   0.687
 1401SOL    HW1 1047   2.706   1.596   0.593
 1401SOL    HW2 1048   2.595   1.524   0.689
 1405SOL     OW 1049   2.480   1.567   1.284
 1405SOL    HW1 1050   2.475   1.649   1.341
 1405SOL    HW2 1051   2.569   1.564   1.239
 1411SOL     OW 1052   2.092   0.628   1.975
 1411SOL    HW1 1053   1.999   0.626   2.012
 1411SOL    HW2 1054   2.093   0.589   1.883
 1414SOL     OW 1055   2.431   1.275   3.027
 1414SOL    HW1 1056   2.338   1.268   2.990
 1414SOL    HW2 1057   2.442   1.364   3.071
 1415SOL     OW 1058   3.417   1.511   2.565
 1415SOL    HW1 1059   3.360   1.495   2.646
 1415SOL    HW2 1060   3.358   1.521   2.485
 1416SOL     OW 1061   2.997   0.703   2.579
 1416SOL    HW1 1062   3.054   0.781   2.554
 1416SOL    HW2 1063   2.937   0.729   2.655
 1418SOL     OW 1064   2.630   1.144   2.885
 1418SOL    HW1 1065   2.552   1.161   2.945
 1418SOL    HW2 1066   2.664   1.231   2.849
 1420SOL     OW 1067   2.547   1.012   2.527
 1420SOL    HW1 1068   2.616   0.996   2.597
 1420SOL    HW2 1069   2.474   1.069   2.565
 1422SOL     OW 1070   2.197   1.435   2.923
 1422SOL    HW1 1071   2.119   1.404   2.870
 1422SOL    HW2 1072   2.255   1.493   2.866
 1423SOL     OW 1073   3.322   1.505   3.201
 1423SOL    HW1 1074   3.346   1.599   3.227
 1423SOL    HW2 1075   3.306   1.451   3.283
 1426SOL     OW 1076   2.093   1.713   2.345
 1426SOL    HW1 1077   2.127   1.790   2.399
 1426SOL    HW2 1078   2.137   1.713   2.255
 1427SOL     OW 1079   2.989   1.341   3.552
 1427SOL    HW1 1080   3.036   1.341   3.640
 1427SOL    HW2 1081   2.941   1.254   3.541
 1428SOL     OW 1082   2.092   1.434   2.400
 1428SOL    HW1 1083   2.066   1.530   2.400
 1428SOL    HW2 1084   2.021   1.380   2.445
 1429SOL     OW 1085   2.102   1.091   2.748
 1429SOL    HW1 1086   2.116   1.007   2.800
 1429SOL    HW2 1087   2.047   1.155   2.803
 1430SOL     OW 1088   2.482   1.786   3.301
 1430SOL    HW1 1089   2.390   1.769   3.336
 1430SOL    HW2 1090   2.510   1.878   3.327
 1431SOL     OW 1091   2.468   0.964   1.985
 1431SOL    HW1 1092   2.475   1.048   1.931
 1431SOL    HW2 1093   2.514   0.977   2.073
 1433SOL     OW 1094   1.984   0.643   2.425
 1433SOL    HW1 1095   1.939   0.555   2.442
 1433SOL    HW2 1096   1.983   0.697   2.509
 1434SOL     OW 1097   3.704   1.767   2.221
 1434SOL    HW1 1098   3.758   1.738   2.301
 1434SOL    HW2 1099   3.734   1.857   2.192
 1435SOL     OW 1100   1.889   1.596   1.979
 1435SOL    HW1 1101   1.870   1.500   2.000
 1435SOL    HW2 1102   1.856   1.654   2.054
 1437SOL     OW 1103   3.503   1.108   2.294
 1437SOL    HW1 1104   3.589   1.110   2.242
 1437SOL    HW2 1105   3.517   1.155   2.382
 1439SOL     OW 1106   2.475   1.365   2.588
 1439SOL    HW1 1107   2.426   1.278   2.597
 1439SOL    HW2 1108   2.452   1.408   2.501
 1440SOL     OW 1109   3.155   1.228   3.285
 1440SOL    HW1 1110   3.192   1.155   3.227
 1440SOL    HW2 1111   3.207   1.233   3.370
 1442SOL     OW 1112   2.059   0.976   3.126
 1442SOL    HW1 1113   2.148   0.931   3.112
 1442SOL    HW2 1114   1.986   0.911   3.107
 1443SOL     OW 1115   3.387   0.999   2.052
 1443SOL    HW1 1116   3.324   0.923   2.065
 1443SOL    HW2 1117   3.435   1.017   2.138
 1444SOL     OW 1118   3.049   1.792   3.478
 1444SOL    HW1 1119   3.073   1.852   3.402
 1444SOL    HW2 1120   3.056   1.697   3.448
 1446SOL     OW 1121   3.328   1.417   2.815
 1446SOL    HW1 1122   3.269   1.423   2.895
 1446SOL    HW2 1123   3.313   1.329   2.769
 1447SOL     OW 1124   3.529   1.714   2.434
 1447SOL    HW1 1125   3.488   1.691   2.346
 1447SOL    HW2 1126   3.511   1.640   2.499
 1448SOL     OW 1127   2.460   0.729   2.132
 1448SOL    HW1 1128   2.484   0.798   2.064
 1448SOL    HW2 1129   2.382   0.762   2.186
 1450SOL     OW 1130   3.438   1.662   2.169
 1450SOL    HW1 1131   3.527   1.708   2.172
 1450SOL    HW2 1132   3.417   1.638   2.074
 1455SOL     OW 1133   2.903   0.701   2.291
 1455SOL    HW1 1134   2.929   0.697   2.387
 1455SOL    HW2 1135   2.818   0.650   2.277
 1456SOL     OW 1136   1.938   0.811   2.651
 1456SOL    HW1 1137   2.037   0.799   2.660
 1456SOL    HW2 1138   1.914   0.906   2.672
 1457SOL     OW 1139   1.992   1.821   3.433
 1457SOL    HW1 1140   1.982   1.806   3.532
 1457SOL    HW2 1141   1.906   1.857   3.397
 1460SOL     OW 1142   3.224   1.144   2.407
 1460SOL    HW1 1143   3.307   1.115   2.359
 1460SOL    HW2 1144   3.175   1.211   2.351
 1462SOL     OW 1145   2.870   1.456   2.339
 1462SOL    HW1 1146   2.824   1.528   2.287
 1462SOL    HW2 1147   2.866   1.476   2.437
 1463SOL     OW 1148   2.213   1.801   2.715
 1463SOL    HW1 1149   2.263   1.715   2.721
 1463SOL    HW2 1150   2.278   1.878   2.712
 1465SOL     OW 1151   3.089   1.550   3.368
 1465SOL    HW1 1152   3.095   1.473   3.432
 1465SOL    HW2 1153   3.037   1.524   3.288
 1466SOL     OW 1154   2.183   0.943   2.104
 1466SOL    HW1 1155   2.265   0.982   2.062
 1466SOL    HW2 1156   2.156   0.861   2.055
 1468SOL     OW 1157   2.323   1.266   3.589
 1468SOL    HW1 1158   2.273   1.267   3.503
 1468SOL    HW2 1159   2.260   1.248   3.665
 1469SOL     OW 1160   2.973   1.776   2.099
 1469SOL    HW1 1161   2.913   1.714   2.149
 1469SOL    HW2 1162   3.004   1.732   2.014
 1471SOL     OW 1163   3.494   1.377   1.943
 1471SOL    HW1 1164   3.462   1.471   1.933
 1471SOL    HW2 1165   3.418   1.314   1.931
 1472SOL     OW 1166   2.326   1.743   2.185
 1472SOL    HW1 1167   2.359   1.782   2.271
 1472SOL    HW2 1168   2.402   1.736   2.120
 1474SOL     OW 1169   2.111   1.785   3.103
 1474SOL    HW1 1170   2.168   1.720   3.153
 1474SOL    HW2 1171   2.095   1.752   3.010
 1475SOL     OW 1172   2.802   1.698   2.766
 1475SOL    HW1 1173   2.882   1.641   2.787
 1475SOL    HW2 1174   2.753   1.658   2.689
 1476SOL     OW 1175   2.244   0.700   2.342
 1476SOL    HW1 1176   2.289   0.610   2.339
 1476SOL    HW2 1177   2.150   0.689   2.375
 1480SOL     OW 1178   2.750   1.514   3.057
 1480SOL    HW1 1179   2.727   1.489   2.963
 1480SOL    HW2 1180   2.811   1.445   3.096
 1482SOL     OW 1181   2.665   1.402   2.786
 1482SOL    HW1 1182   2.755   1.416   2.744
 1482SOL    HW2 1183   2.594   1.404   2.715
 1485SOL     OW 1184   3.296   1.188   1.903
 1485SOL    HW1 1185   3.328   1.112   1.960
 1485SOL    HW2 1186   3.204   1.215   1.933
 1489SOL     OW 1187   3.089   1.570   2.655
 1489SOL    HW1 1188   3.110   1.644   2.590
 1489SOL    HW2 1189   3.157   1.570   2.728
 1490SOL     OW 1190   2.321   1.152   2.603
 1490SOL    HW1 1191   2.250   1.125   2.668
 1490SOL    HW2 1192   2.295   1.124   2.510
 1491SOL     OW 1193   3.133   1.797   2.453
 1491SOL    HW1 1194   3.177   1.861   2.389
 1491SOL    HW2 1195   3.083   1.849   2.523
 1497SOL     OW 1196   3.291   1.173   2.729
 1497SOL    HW1 1197   3.236   1.089   2.722
 1497SOL    HW2 1198   3.317   1.202   2.637
 1500SOL     OW 1199   2.350   1.385   2.036
 1500SOL    HW1 1200   2.263   1.370   2.083
 1500SOL    HW2 1201   2.333   1.411   1.941
 1501SOL     OW 1202   3.526   1.280   2.519
 1501SOL    HW1 1203   3.625   1.288   2.533
 1501SOL    HW2 1204   3.481   1.364   2.550
 1505SOL     OW 1205   2.926   1.347   3.202
 1505SOL    HW1 1206   2.846   1.324   3.257
 1505SOL    HW2 1207   3.009   1.321   3.251
 1507SOL     OW 1208   2.973   1.195   2.962
 1507SOL    HW1 1209   2.933   1.239   3.043
 1507SOL    HW2 1210   2.932   1.232   2.879
 1511SOL     OW 1211   2.567   1.050   2.230
 1511SOL    HW1 1212   2.553   1.057   2.329
 1511SOL    HW2 1213   2.651   0.999   2.212
 1512SOL     OW 1214   2.272   0.813   3.113
 1512SOL    HW1 1215   2.358   0.825   3.163
 1512SOL    HW2 1216   2.230   0.726   3.140
 1514SOL     OW 1217   1.926   1.564   3.193
 1514SOL    HW1 1218   1.880   1.646   3.159
 1514SOL    HW2 1219   2.024   1.583   3.202
 1515SOL     OW 1220   2.229   1.100   2.363
 1515SOL    HW1 1221   2.222   1.183   2.307
 1515SOL    HW2 1222   2.233   1.020   2.303
 1516SOL     OW 1223   2.428   0.537   2.727
 1516SOL    HW1 1224   2.440   0.603   2.653
 1516SOL    HW2 1225   2.474   0.571   2.810
 1517SOL     OW 1226   3.114   1.348   2.250
 1517SOL    HW1 1227   3.164   1.425   2.290
 1517SOL    HW2 1228   3.019   1.350   2.282
 1518SOL     OW 1229   3.134   1.445   3.004
 1518SOL    HW1 1230   3.181   1.458   3.091
 1518SOL    HW2 1231   3.068   1.371   3.013
 1520SOL     OW 1232   2.216   1.510   3.191
 1520SOL    HW1 1233   2.195   1.466   3.104
 1520SOL    HW2 1234   2.313   1.536   3.194
 1525SOL     OW 1235   2.435   0.870   2.891
 1525SOL    HW1 1236   2.479   0.959   2.882
 1525SOL    HW2 1237   2.372   0.870   2.968
 1529SOL     OW 1238   1.899   1.310   3.144
 1529SOL    HW1 1239   1.952   1.261   3.212
 1529SOL    HW2 1240   1.921   1.408   3.149
 1530SOL     OW 1241   2.594   0.634   2.926
 1530SOL    HW1 1242   2.653   0.608   2.850
 1530SOL    HW2 1243   2.566   0.730   2.915
 1534SOL     OW 1244   2.885   0.766   2.828
 1534SOL    HW1 1245   2.900   0.787   2.924
 1534SOL    HW2 1246   2.855   0.671   2.819
 1535SOL     OW 1247   2.842   1.573   3.562
 1535SOL    HW1 1248   2.822   1.617   3.474
 1535SOL    HW2 1249   2.881   1.482   3.546
 1539SOL     OW 1250   3.165   0.838   1.904
 1539SOL    HW1 1251   3.199   0.745   1.919
 1539SOL    HW2 1252   3.183   0.865   1.809
 1540SOL     OW 1253   2.930   1.333   2.711
 1540SOL    HW1 1254   2.937   1.249   2.656
 1540SOL    HW2 1255   2.992   1.402   2.675
 1541SOL     OW 1256   2.181   0.810   2.811
 1541SOL    HW1 1257   2.274   0.846   2.816
 1541SOL    HW2 1258   2.175   0.725   2.863
 1545SOL     OW 1259   1.870   1.326   2.062
 1545SOL    HW1 1260   1.777   1.347   2.031
 1545SOL    HW2 1261   1.880   1.227   2.075
 1546SOL     OW 1262   1.950   1.801   2.789
 1546SOL    HW1 1263   1.908   1.715   2.762
 1546SOL    HW2 1264   2.044   1.804   2.755
 1547SOL     OW 1265   2.366   1.568   2.772
 1547SOL    HW1 1266   2.432   1.642   2.781
 1547SOL    HW2 1267   2.410   1.489   2.730
 1548SOL     OW 1268   2.864   0.796   3.100
 1548SOL    HW1 1269   2.905   0.764   3.186
 1548SOL    HW2 1270   2.768   0.769   3.097
 1552SOL     OW 1271   2.677   0.572   2.187
 1552SOL    HW1 1272   2.684   0.483   2.141
 1552SOL    HW2 1273   2.583   0.606   2.179
 1554SOL     OW 1274   2.114   1.564   3.606
 1554SOL    HW1 1275   2.084   1.621   3.682
 1554SOL    HW2 1276   2.107   1.467   3.632
 1556SOL     OW 1277   2.792   1.678   3.327
 1556SOL    HW1 1278   2.768   1.660   3.232
 1556SOL    HW2 1279   2.822   1.772   3.337
 1557SOL     OW 1280   2.335   0.500   2.053
 1557SOL    HW1 1281   2.396   0.580   2.057
 1557SOL    HW2 1282   2.240   0.531   2.060
 1558SOL     OW 1283   2.021   1.137   3.328
 1558SOL    HW1 1284   2.043   1.076   3.404
 1558SOL    HW2 1285   2.031   1.088   3.242
 1559SOL     OW 1286   3.209   1.059   3.096
 1559SOL    HW1 1287   3.233   0.996   3.022
 1559SOL    HW2 1288   3.119   1.099   3.078
 1560SOL     OW 1289   3.164   0.855   2.171
 1560SOL    HW1 1290   3.078   0.824   2.213
 1560SOL    HW2 1291   3.160   0.841   2.072
 1561SOL     OW 1292   3.621   1.747   3.016
 1561SOL    HW1 1293   3.682   1.777   2.943
 1561SOL    HW2 1294   3.583   1.658   2.994
 1562SOL     OW 1295   3.114   1.731   2.990
 1562SOL    HW1 1296   3.198   1.736   2.936
 1562SOL    HW2 1297   3.091   1.635   3.008
 1563SOL     OW 1298   1.945   1.258   2.884
 1563SOL    HW1 1299   1.940   1.257   2.984
 1563SOL    HW2 1300   1.862   1.217   2.846
 1564SOL     OW 1301   2.550   1.662   3.578
 1564SOL    HW1 1302   2.494   1.743   3.587
 1564SOL    HW2 1303   2.602   1.666   3.492
 1566SOL     OW 1304   3.250   1.573   2.339
 1566SOL    HW1 1305   3.317   1.585   2.265
 1566SOL    HW2 1306   3.210   1.662   2.362
 1567SOL     OW 1307   1.992   1.794   3.713
 1567SOL    HW1 1308   1.951   1.720   3.766
 1567SOL    HW2 1309   2.056   1.845   3.771
 1568SOL     OW 1310   3.142   0.927   2.534
 1568SOL    HW1 1311   3.202   0.846   2.536
 1568SOL    HW2 1312   3.182   0.996   2.474
 1569SOL     OW 1313   2.692   1.273   3.284
 1569SOL    HW1 1314   2.687   1.306   3.379
 1569SOL    HW2 1315   2.606   1.292   3.238
 1570SOL     OW 1316   2.534   1.616   2.016
 1570SOL    HW1 1317   2.543   1.626   1.917
 1570SOL    HW2 1318   2.494   1.527   2.037
 1571SOL     OW 1319   3.512   1.720   3.256
 1571SOL    HW1 1320   3.565   1.730   3.172
 1571SOL    HW2 1321   3.485   1.810   3.290
 1574SOL     OW 1322   3.056   1.612   1.893
 1574SOL    HW1 1323   3.062   1.519   1.930
 1574SOL    HW2 1324   2.997   1.612   1.813
 1575SOL     OW 1325   2.684   1.002   3.234
 1575SOL    HW1 1326   2.724   1.001   3.142
 1575SOL    HW2 1327   2.694   1.094   3.274
 1576SOL     OW 1328   2.778   0.910   2.153
 1576SOL    HW1 1329   2.841   0.948   2.085
 1576SOL    HW2 1330   2.818   0.827   2.192
 1577SOL     OW 1331   3.366   1.607   1.906
 1577SOL    HW1 1332   3.274   1.644   1.913
 1577SOL    HW2 1333   3.404   1.627   1.816
 1578SOL     OW 1334   2.234   1.288   3.352
 1578SOL    HW1 1335   2.221   1.381   3.318
 1578SOL    HW2 1336   2.150   1.236   3.339
 1580SOL     OW 1337   2.901   1.098   2.558
 1580SOL    HW1 1338   2.831   1.051   2.612
 1580SOL    HW2 1339   2.960   1.030   2.515
 1582SOL     OW 1340   2.452   1.487   2.353
 1582SOL    HW1 1341   2.494   1.429   2.283
 1582SOL    HW2 1342   2.408   1.566   2.309
 1584SOL     OW 1343   2.117   1.348   2.152
 1584SOL    HW1 1344   2.021   1.349   2.125
 1584SOL    HW2 1345   2.129   1.401   2.236
 1590SOL     OW 1346   3.045   1.335   1.981
 1590SOL    HW1 1347   2.946   1.324   1.983
 1590SOL    HW2 1348   3.079   1.350   2.074
 1591SOL     OW 1349   2.475   0.842   3.293
 1591SOL    HW1 1350   2.531   0.923   3.276
 1591SOL    HW2 1351   2.534   0.762   3.296
 1592SOL     OW 1352   3.355   1.767   2.821
 1592SOL    HW1 1353   3.388   1.831   2.752
 1592SOL    HW2 1354   3.421   1.761   2.896
 1595SOL     OW 1355   2.252   1.741   3.422
 1595SOL    HW1 1356   2.161   1.782   3.420
 1595SOL    HW2 1357   2.245   1.647   3.454
 1598SOL     OW 1358   2.456   0.745   2.514
 1598SOL    HW1 1359   2.506   0.830   2.495
 1598SOL    HW2 1360   2.368   0.747   2.466
 1601SOL     OW 1361   2.721   1.374   1.878
 1601SOL    HW1 1362   2.675   1.389   1.966
 1601SOL    HW2 1363   2.765   1.459   1.848
 1602SOL     OW 1364   2.523   1.790   2.815
 1602SOL    HW1 1365   2.477   1.878   2.802
 1602SOL    HW2 1366   2.622   1.802   2.808
 1603SOL     OW 1367   2.721   0.956   2.723
 1603SOL    HW1 1368   2.775   0.887   2.771
 1603SOL    HW2 1369   2.689   1.025   2.789
 1604SOL     OW 1370   2.945   0.984   1.949
 1604SOL    HW1 1371   2.922   1.037   1.867
 1604SOL    HW2 1372   3.026   0.928   1.930
 1605SOL     OW 1373   3.723   1.569   2.713
 1605SOL    HW1 1374   3.652   1.557   2.643
 1605SOL    HW2 1375   3.724   1.490   2.773
 1606SOL     OW 1376   2.083   1.314   3.706
 1606SOL    HW1 1377   2.018   1.241   3.685
 1606SOL    HW2 1378   2.087   1.328   3.804
 1607SOL     OW 1379   1.941   1.240   2.515
 1607SOL    HW1 1380   1.940   1.193   2.603
 1607SOL    HW2 1381   2.023   1.212   2.464
 1608SOL     OW 1382   2.534   1.391   3.486
 1608SOL    HW1 1383   2.456   1.341   3.524
 1608SOL    HW2 1384   2.531   1.486   3.517
 1611SOL     OW 1385   3.567   1.487   2.966
 1611SOL    HW1 1386   3.474   1.462   2.939
 1611SOL    HW2 1387   3.593   1.437   3.048
 1613SOL     OW 1388   2.674   1.586   2.549
 1613SOL    HW1 1389   2.706   1.596   2.455
 1613SOL    HW2 1390   2.595   1.524   2.551
 1616SOL     OW 1391   2.632   1.330   2.163
 1616SOL    HW1 1392   2.586   1.243   2.180
 1616SOL    HW2 1393   2.723   1.327   2.204
 1617SOL     OW 1394   2.480   1.567   3.146
 1617SOL    HW1 1395   2.475   1.649   3.203
 1617SOL    HW2 1396   2.569   1.564   3.101
 1621SOL     OW 1397   1.901   1.077   2.162
 1621SOL    HW1 1398   2.000   1.066   2.153
 1621SOL    HW2 1399   1.861   0.991   2.194
 1622SOL     OW 1400   2.737   1.646   2.199
 1622SOL    HW1 1401   2.660   1.611   2.145
 1622SOL    HW2 1402   2.705   1.717   2.261
 1630SOL     OW 1403   1.889   1.596   3.841
 1630SOL    HW1 1404   1.870   1.500   3.862
 1630SOL    HW2 1405   1.856   1.654   3.916
 1679SOL     OW 1406   2.534   1.616   3.878
 1679SOL    HW1 1407   2.543   1.626   3.779
 1679SOL    HW2 1408   2.494   1.527   3.899
 1701SOL     OW 1409   2.087   2.137   0.996
 1701SOL    HW1 1410   2.122   2.120   1.088
 1701SOL    HW2 1411   1.999   2.092   0.984
 1702SOL     OW 1412   1.881   2.230   0.647
 1702SOL    HW1 1413   1.799   2.273   0.686
 1702SOL    HW2 1414   1.853   2.157   0.584
 1703SOL     OW 1415   2.431   3.137   1.165
 1703SOL    HW1 1416   2.338   3.130   1.128
 1703SOL    HW2 1417   2.442   3.226   1.209
 1705SOL     OW 1418   2.997   2.565   0.717
 1705SOL    HW1 1419   3.054   2.643   0.692
 1705SOL    HW2 1420   2.937   2.591   0.793
 1707SOL     OW 1421   2.630   3.006   1.023
 1707SOL    HW1 1422   2.552   3.023   1.083
 1707SOL    HW2 1423   2.664   3.093   0.987
 1708SOL     OW 1424   2.712   2.660   1.823
 1708SOL    HW1 1425   2.708   2.736   1.888
 1708SOL    HW2 1426   2.734   2.696   1.732
 1709SOL     OW 1427   2.547   2.874   0.665
 1709SOL    HW1 1428   2.616   2.858   0.735
 1709SOL    HW2 1429   2.474   2.931   0.703
 1710SOL     OW 1430   2.548   3.023   1.803
 1710SOL    HW1 1431   2.608   3.102   1.817
 1710SOL    HW2 1432   2.462   3.054   1.762
 1711SOL     OW 1433   2.197   3.297   1.061
 1711SOL    HW1 1434   2.119   3.266   1.008
 1711SOL    HW2 1435   2.255   3.355   1.004
 1713SOL     OW 1436   2.300   2.254   1.499
 1713SOL    HW1 1437   2.382   2.198   1.508
 1713SOL    HW2 1438   2.219   2.196   1.503
 1716SOL     OW 1439   2.989   3.203   1.690
 1716SOL    HW1 1440   3.036   3.203   1.778
 1716SOL    HW2 1441   2.941   3.116   1.679
 1718SOL     OW 1442   2.102   2.953   0.886
 1718SOL    HW1 1443   2.116   2.869   0.938
 1718SOL    HW2 1444   2.047   3.017   0.941
 1719SOL     OW 1445   2.482   3.648   1.439
 1719SOL    HW1 1446   2.390   3.631   1.474
 1719SOL    HW2 1447   2.510   3.740   1.465
 1721SOL     OW 1448   3.456   1.976   1.480
 1721SOL    HW1 1449   3.438   2.043   1.408
 1721SOL    HW2 1450   3.453   2.022   1.569
 1722SOL     OW 1451   1.984   2.505   0.563
 1722SOL    HW1 1452   1.939   2.417   0.580
 1722SOL    HW2 1453   1.983   2.559   0.647
 1727SOL     OW 1454   1.975   2.599   1.597
 1727SOL    HW1 1455   2.063   2.586   1.642
 1727SOL    HW2 1456   1.962   2.696   1.575
 1729SOL     OW 1457   3.155   3.090   1.423
 1729SOL    HW1 1458   3.192   3.017   1.365
 1729SOL    HW2 1459   3.207   3.095   1.508
 1731SOL     OW 1460   2.059   2.838   1.264
 1731SOL    HW1 1461   2.148   2.793   1.250
 1731SOL    HW2 1462   1.986   2.773   1.245
 1733SOL     OW 1463   3.049   3.654   1.616
 1733SOL    HW1 1464   3.073   3.714   1.540
 1733SOL    HW2 1465   3.056   3.559   1.586
 1734SOL     OW 1466   2.179   2.113   1.801
 1734SOL    HW1 1467   2.250   2.184   1.807
 1734SOL    HW2 1468   2.091   2.152   1.829
 1738SOL     OW 1469   3.143   2.207   0.944
 1738SOL    HW1 1470   3.057   2.157   0.931
 1738SOL    HW2 1471   3.205   2.153   1.000
 1740SOL     OW 1472   2.669   2.467   1.465
 1740SOL    HW1 1473   2.622   2.464   1.554
 1740SOL    HW2 1474   2.618   2.412   1.399
 1741SOL     OW 1475   3.256   2.331   1.674
 1741SOL    HW1 1476   3.236   2.374   1.762
 1741SOL    HW2 1477   3.334   2.269   1.683
 1742SOL     OW 1478   2.835   2.752   1.572
 1742SOL    HW1 1479   2.881   2.668   1.543
 1742SOL    HW2 1480   2.779   2.786   1.497
 1743SOL     OW 1481   2.853   2.272   1.242
 1743SOL    HW1 1482   2.776   2.306   1.296
 1743SOL    HW2 1483   2.819   2.221   1.163
 1745SOL     OW 1484   1.938   2.673   0.789
 1745SOL    HW1 1485   2.037   2.661   0.798
 1745SOL    HW2 1486   1.914   2.768   0.810
 1746SOL     OW 1487   1.992   3.683   1.571
 1746SOL    HW1 1488   1.982   3.668   1.670
 1746SOL    HW2 1489   1.906   3.719   1.535
 1748SOL     OW 1490   3.581   2.447   1.831
 1748SOL    HW1 1491   3.555   2.536   1.795
 1748SOL    HW2 1492   3.579   2.379   1.758
 1750SOL     OW 1493   2.412   2.058   0.885
 1750SOL    HW1 1494   2.407   2.053   0.985
 1750SOL    HW2 1495   2.414   2.154   0.856
 1754SOL     OW 1496   3.089   3.412   1.506
 1754SOL    HW1 1497   3.095   3.335   1.570
 1754SOL    HW2 1498   3.037   3.386   1.426
 1757SOL     OW 1499   2.323   3.128   1.727
 1757SOL    HW1 1500   2.273   3.129   1.641
 1757SOL    HW2 1501   2.260   3.110   1.803
 1759SOL     OW 1502   2.064   2.147   1.498
 1759SOL    HW1 1503   1.984   2.207   1.485
 1759SOL    HW2 1504   2.054   2.098   1.584
 1763SOL     OW 1505   2.111   3.647   1.241
 1763SOL    HW1 1506   2.168   3.582   1.291
 1763SOL    HW2 1507   2.095   3.614   1.148
 1765SOL     OW 1508   2.244   2.562   0.480
 1765SOL    HW1 1509   2.289   2.472   0.477
 1765SOL    HW2 1510   2.150   2.551   0.513
 1766SOL     OW 1511   3.409   2.084   1.729
 1766SOL    HW1 1512   3.404   2.121   1.821
 1766SOL    HW2 1513   3.337   2.015   1.717
 1768SOL     OW 1514   2.643   2.126   1.749
 1768SOL    HW1 1515   2.710   2.065   1.792
 1768SOL    HW2 1516   2.570   2.145   1.814
 1769SOL     OW 1517   2.750   3.376   1.195
 1769SOL    HW1 1518   2.727   3.351   1.101
 1769SOL    HW2 1519   2.811   3.307   1.234
 1770SOL     OW 1520   3.213   2.452   1.433
 1770SOL    HW1 1521   3.241   2.409   1.518
 1770SOL    HW2 1522   3.238   2.548   1.434
 1771SOL     OW 1523   2.665   3.264   0.924
 1771SOL    HW1 1524   2.755   3.278   0.882
 1771SOL    HW2 1525   2.594   3.266   0.853
 1772SOL     OW 1526   2.784   2.365   0.899
 1772SOL    HW1 1527   2.759   2.356   0.803
 1772SOL    HW2 1528   2.832   2.283   0.930
 1773SOL     OW 1529   2.401   1.926   0.512
 1773SOL    HW1 1530   2.320   1.927   0.570
 1773SOL    HW2 1531   2.404   2.009   0.457
 1776SOL     OW 1532   2.938   2.545   1.464
 1776SOL    HW1 1533   2.858   2.484   1.467
 1776SOL    HW2 1534   3.019   2.492   1.440
 1778SOL     OW 1535   2.321   3.014   0.741
 1778SOL    HW1 1536   2.250   2.987   0.806
 1778SOL    HW2 1537   2.295   2.986   0.648
 1781SOL     OW 1538   1.940   2.418   1.386
 1781SOL    HW1 1539   2.032   2.417   1.345
 1781SOL    HW2 1540   1.934   2.492   1.453
 1782SOL     OW 1541   2.423   2.084   1.147
 1782SOL    HW1 1542   2.461   2.000   1.184
 1782SOL    HW2 1543   2.335   2.103   1.191
 1783SOL     OW 1544   2.728   2.316   0.642
 1783SOL    HW1 1545   2.696   2.388   0.580
 1783SOL    HW2 1546   2.752   2.235   0.589
 1784SOL     OW 1547   2.879   1.901   0.753
 1784SOL    HW1 1548   2.807   1.906   0.684
 1784SOL    HW2 1549   2.855   1.832   0.822
 1786SOL     OW 1550   3.328   2.452   0.992
 1786SOL    HW1 1551   3.298   2.357   0.999
 1786SOL    HW2 1552   3.401   2.468   1.058
 1792SOL     OW 1553   3.616   3.085   1.588
 1792SOL    HW1 1554   3.707   3.046   1.575
 1792SOL    HW2 1555   3.624   3.181   1.612
 1793SOL     OW 1556   2.926   3.209   1.340
 1793SOL    HW1 1557   2.846   3.186   1.395
 1793SOL    HW2 1558   3.009   3.183   1.389
 1795SOL     OW 1559   2.973   3.057   1.100
 1795SOL    HW1 1560   2.933   3.101   1.181
 1795SOL    HW2 1561   2.932   3.094   1.017
 1797SOL     OW 1562   2.777   1.951   1.402
 1797SOL    HW1 1563   2.802   1.931   1.307
 1797SOL    HW2 1564   2.849   2.007   1.444
 1798SOL     OW 1565   2.842   2.978   1.719
 1798SOL    HW1 1566   2.743   2.984   1.729
 1798SOL    HW2 1567   2.865   2.898   1.663
 1800SOL     OW 1568   2.272   2.675   1.251
 1800SOL    HW1 1569   2.358   2.687   1.301
 1800SOL    HW2 1570   2.230   2.588   1.278
 1801SOL     OW 1571   3.136   2.248   1.262
 1801SOL    HW1 1572   3.157   2.322   1.326
 1801SOL    HW2 1573   3.047   2.265   1.219
 1802SOL     OW 1574   1.926   3.426   1.331
 1802SOL    HW1 1575   1.880   3.508   1.297
 1802SOL    HW2 1576   2.024   3.445   1.340
 1804SOL     OW 1577   2.428   2.399   0.865
 1804SOL    HW1 1578   2.440   2.465   0.791
 1804SOL    HW2 1579   2.474   2.433   0.948
 1806SOL     OW 1580   3.134   3.307   1.142
 1806SOL    HW1 1581   3.181   3.320   1.229
 1806SOL    HW2 1582   3.068   3.233   1.151
 1808SOL     OW 1583   2.216   3.372   1.329
 1808SOL    HW1 1584   2.195   3.328   1.242
 1808SOL    HW2 1585   2.313   3.398   1.332
 1809SOL     OW 1586   2.264   2.613   1.598
 1809SOL    HW1 1587   2.332   2.668   1.551
 1809SOL    HW2 1588   2.304   2.525   1.625
 1810SOL     OW 1589   3.449   2.641   1.670
 1810SOL    HW1 1590   3.357   2.679   1.665
 1810SOL    HW2 1591   3.509   2.688   1.605
 1811SOL     OW 1592   2.875   1.967   1.770
 1811SOL    HW1 1593   2.881   2.052   1.718
 1811SOL    HW2 1594   2.907   1.891   1.713
 1812SOL     OW 1595   2.366   1.912   1.740
 1812SOL    HW1 1596   2.324   1.855   1.670
 1812SOL    HW2 1597   2.300   1.981   1.772
 1813SOL     OW 1598   2.435   2.732   1.029
 1813SOL    HW1 1599   2.479   2.821   1.020
 1813SOL    HW2 1600   2.372   2.732   1.106
 1814SOL     OW 1601   3.222   2.724   1.045
 1814SOL    HW1 1602   3.147   2.724   0.979
 1814SOL    HW2 1603   3.259   2.632   1.054
 1816SOL     OW 1604   2.169   2.075   1.231
 1816SOL    HW1 1605   2.146   2.112   1.321
 1816SOL    HW2 1606   2.139   1.980   1.225
 1817SOL     OW 1607   1.899   3.172   1.282
 1817SOL    HW1 1608   1.952   3.123   1.350
 1817SOL    HW2 1609   1.921   3.270   1.287
 1818SOL     OW 1610   2.594   2.496   1.064
 1818SOL    HW1 1611   2.653   2.470   0.988
 1818SOL    HW2 1612   2.566   2.592   1.053
 1819SOL     OW 1613   3.590   2.797   1.854
 1819SOL    HW1 1614   3.544   2.790   1.765
 1819SOL    HW2 1615   3.528   2.841   1.920
 1820SOL     OW 1616   2.169   1.925   0.618
 1820SOL    HW1 1617   2.158   2.019   0.651
 1820SOL    HW2 1618   2.164   1.862   0.695
 1822SOL     OW 1619   2.885   2.628   0.966
 1822SOL    HW1 1620   2.900   2.649   1.062
 1822SOL    HW2 1621   2.855   2.533   0.957
 1823SOL     OW 1622   2.842   3.435   1.700
 1823SOL    HW1 1623   2.822   3.479   1.612
 1823SOL    HW2 1624   2.881   3.344   1.684
 1825SOL     OW 1625   2.212   2.760   1.804
 1825SOL    HW1 1626   2.288   2.804   1.852
 1825SOL    HW2 1627   2.247   2.713   1.722
 1829SOL     OW 1628   2.181   2.672   0.949
 1829SOL    HW1 1629   2.274   2.708   0.954
 1829SOL    HW2 1630   2.175   2.587   1.001
 1830SOL     OW 1631   2.201   2.371   1.006
 1830SOL    HW1 1632   2.149   2.288   0.989
 1830SOL    HW2 1633   2.278   2.376   0.942
 1831SOL     OW 1634   3.000   2.242   1.678
 1831SOL    HW1 1635   2.955   2.305   1.742
 1831SOL    HW2 1636   3.093   2.273   1.661
 1832SOL     OW 1637   3.022   2.069   1.477
 1832SOL    HW1 1638   3.022   2.133   1.554
 1832SOL    HW2 1639   3.050   2.117   1.394
 1835SOL     OW 1640   2.366   3.430   0.910
 1835SOL    HW1 1641   2.432   3.504   0.919
 1835SOL    HW2 1642   2.410   3.351   0.868
 1836SOL     OW 1643   2.864   2.658   1.238
 1836SOL    HW1 1644   2.905   2.626   1.324
 1836SOL    HW2 1645   2.768   2.631   1.235
 1837SOL     OW 1646   1.902   2.406   1.114
 1837SOL    HW1 1647   1.987   2.373   1.073
 1837SOL    HW2 1648   1.915   2.421   1.212
 1838SOL     OW 1649   2.051   2.382   1.722
 1838SOL    HW1 1650   2.110   2.342   1.652
 1838SOL    HW2 1651   1.993   2.453   1.681
 1839SOL     OW 1652   3.231   2.812   1.660
 1839SOL    HW1 1653   3.270   2.901   1.680
 1839SOL    HW2 1654   3.241   2.792   1.563
 1841SOL     OW 1655   3.519   2.466   1.206
 1841SOL    HW1 1656   3.481   2.397   1.268
 1841SOL    HW2 1657   3.601   2.430   1.162
 1842SOL     OW 1658   2.114   3.426   1.744
 1842SOL    HW1 1659   2.084   3.483   1.820
 1842SOL    HW2 1660   2.107   3.329   1.770
 1843SOL     OW 1661   2.533   2.326   1.269
 1843SOL    HW1 1662   2.499   2.237   1.239
 1843SOL    HW2 1663   2.559   2.380   1.189
 1844SOL     OW 1664   2.792   3.540   1.465
 1844SOL    HW1 1665   2.768   3.522   1.370
 1844SOL    HW2 1666   2.822   3.634   1.475
 1846SOL     OW 1667   2.021   2.999   1.466
 1846SOL    HW1 1668   2.043   2.938   1.542
 1846SOL    HW2 1669   2.031   2.950   1.380
 1847SOL     OW 1670   3.209   2.921   1.234
 1847SOL    HW1 1671   3.233   2.858   1.160
 1847SOL    HW2 1672   3.119   2.961   1.216
 1851SOL     OW 1673   1.945   3.120   1.022
 1851SOL    HW1 1674   1.940   3.119   1.122
 1851SOL    HW2 1675   1.862   3.079   0.984
 1852SOL     OW 1676   2.550   3.524   1.716
 1852SOL    HW1 1677   2.494   3.605   1.725
 1852SOL    HW2 1678   2.602   3.528   1.630
 1856SOL     OW 1679   1.992   3.656   1.851
 1856SOL    HW1 1680   1.951   3.582   1.904
 1856SOL    HW2 1681   2.056   3.707   1.909
 1858SOL     OW 1682   2.692   3.135   1.422
 1858SOL    HW1 1683   2.687   3.168   1.517
 1858SOL    HW2 1684   2.606   3.154   1.376
 1862SOL     OW 1685   2.125   2.188   0.720
 1862SOL    HW1 1686   2.046   2.239   0.686
 1862SOL    HW2 1687   2.116   2.173   0.818
 1864SOL     OW 1688   2.684   2.864   1.372
 1864SOL    HW1 1689   2.724   2.863   1.280
 1864SOL    HW2 1690   2.694   2.956   1.412
 1867SOL     OW 1691   2.234   3.150   1.490
 1867SOL    HW1 1692   2.221   3.243   1.456
 1867SOL    HW2 1693   2.150   3.098   1.477
 1870SOL     OW 1694   2.876   2.098   0.971
 1870SOL    HW1 1695   2.868   2.062   0.878
 1870SOL    HW2 1696   2.874   2.022   1.036
 1872SOL     OW 1697   3.571   2.247   1.381
 1872SOL    HW1 1698   3.644   2.316   1.385
 1872SOL    HW2 1699   3.599   2.172   1.322
 1874SOL     OW 1700   1.967   2.875   1.726
 1874SOL    HW1 1701   1.890   2.842   1.780
 1874SOL    HW2 1702   2.052   2.845   1.768
 1875SOL     OW 1703   2.534   2.065   1.489
 1875SOL    HW1 1704   2.624   2.049   1.449
 1875SOL    HW2 1705   2.542   2.070   1.588
 1877SOL     OW 1706   3.302   2.718   1.398
 1877SOL    HW1 1707   3.245   2.770   1.335
 1877SOL    HW2 1708   3.398   2.730   1.374
 1879SOL     OW 1709   2.475   2.704   1.431
 1879SOL    HW1 1710   2.531   2.785   1.414
 1879SOL    HW2 1711   2.534   2.624   1.434
 1881SOL     OW 1712   2.578   2.427   1.708
 1881SOL    HW1 1713   2.597   2.492   1.782
 1881SOL    HW2 1714   2.638   2.347   1.717
 1882SOL     OW 1715   3.312   3.082   1.633
 1882SOL    HW1 1716   3.303   3.072   1.732
 1882SOL    HW2 1717   3.408   3.075   1.607
 1883SOL     OW 1718   2.252   3.603   1.560
 1883SOL    HW1 1719   2.161   3.644   1.558
 1883SOL    HW2 1720   2.245   3.509   1.592
 1884SOL     OW 1721   3.536   2.745   1.254
 1884SOL    HW1 1722   3.509   2.656   1.217
 1884SOL    HW2 1723   3.537   2.813   1.181
 1886SOL     OW 1724   2.456   2.607   0.652
 1886SOL    HW1 1725   2.506   2.692   0.633
 1886SOL    HW2 1726   2.368   2.609   0.604
 1887SOL     OW 1727   3.639   2.204   1.642
 1887SOL    HW1 1728   3.622   2.235   1.548
 1887SOL    HW2 1729   3.555   2.167   1.680
 1888SOL     OW 1730   3.592   2.796   1.517
 1888SOL    HW1 1731   3.630   2.887   1.532
 1888SOL    HW2 1732   3.584   2.779   1.418
 1891SOL     OW 1733   2.721   2.818   0.861
 1891SOL    HW1 1734   2.775   2.749   0.909
 1891SOL    HW2 1735   2.689   2.887   0.927
 1894SOL     OW 1736   2.083   3.176   1.844
 1894SOL    HW1 1737   2.018   3.103   1.823
 1894SOL    HW2 1738   2.087   3.190   1.942
 1896SOL     OW 1739   2.534   3.253   1.624
 1896SOL    HW1 1740   2.456   3.203   1.662
 1896SOL    HW2 1741   2.531   3.348   1.655
 1897SOL     OW 1742   3.686   2.054   1.227
 1897SOL    HW1 1743   3.682   1.964   1.271
 1897SOL    HW2 1744   3.689   2.043   1.128
 1898SOL     OW 1745   2.290   2.286   0.520
 1898SOL    HW1 1746   2.320   2.214   0.458
 1898SOL    HW2 1747   2.251   2.246   0.603
 1900SOL     OW 1748   2.179   2.409   1.280
 1900SOL    HW1 1749   2.217   2.350   1.352
 1900SOL    HW2 1750   2.219   2.383   1.192
 1902SOL     OW 1751   3.286   2.076   1.112
 1902SOL    HW1 1752   3.338   2.011   1.167
 1902SOL    HW2 1753   3.237   2.139   1.173
 1903SOL     OW 1754   2.863   1.896   1.154
 1903SOL    HW1 1755   2.800   1.824   1.123
 1903SOL    HW2 1756   2.956   1.860   1.154
 1905SOL     OW 1757   2.480   3.429   1.284
 1905SOL    HW1 1758   2.475   3.511   1.341
 1905SOL    HW2 1759   2.569   3.426   1.239
 1907SOL     OW 1760   3.162   2.315   0.691
 1907SOL    HW1 1761   3.103   2.395   0.695
 1907SOL    HW2 1762   3.177   2.280   0.784
 1911SOL     OW 1763   2.092   2.490   1.975
 1911SOL    HW1 1764   1.999   2.488   2.012
 1911SOL    HW2 1765   2.093   2.451   1.883
 1912SOL     OW 1766   2.087   2.137   2.858
 1912SOL    HW1 1767   2.122   2.120   2.950
 1912SOL    HW2 1768   1.999   2.092   2.846
 1913SOL     OW 1769   1.881   2.230   2.509
 1913SOL    HW1 1770   1.799   2.273   2.548
 1913SOL    HW2 1771   1.853   2.157   2.446
 1914SOL     OW 1772   2.431   3.137   3.027
 1914SOL    HW1 1773   2.338   3.130   2.990
 1914SOL    HW2 1774   2.442   3.226   3.071
 1915SOL     OW 1775   3.417   3.373   2.565
 1915SOL    HW1 1776   3.360   3.357   2.646
 1915SOL    HW2 1777   3.358   3.383   2.485
 1916SOL     OW 1778   2.997   2.565   2.579
 1916SOL    HW1 1779   3.054   2.643   2.554
 1916SOL    HW2 1780   2.937   2.591   2.655
 1917SOL     OW 1781   3.617   2.469   2.093
 1917SOL    HW1 1782   3.605   2.456   1.994
 1917SOL    HW2 1783   3.587   2.388   2.142
 1918SOL     OW 1784   2.630   3.006   2.885
 1918SOL    HW1 1785   2.552   3.023   2.945
 1918SOL    HW2 1786   2.664   3.093   2.849
 1919SOL     OW 1787   2.712   2.660   3.685
 1919SOL    HW1 1788   2.708   2.736   3.750
 1919SOL    HW2 1789   2.734   2.696   3.594
 1920SOL     OW 1790   2.547   2.874   2.527
 1920SOL    HW1 1791   2.616   2.858   2.597
 1920SOL    HW2 1792   2.474   2.931   2.565
 1921SOL     OW 1793   2.548   3.023   3.665
 1921SOL    HW1 1794   2.608   3.102   3.679
 1921SOL    HW2 1795   2.462   3.054   3.624
 1922SOL     OW 1796   2.197   3.297   2.923
 1922SOL    HW1 1797   2.119   3.266   2.870
 1922SOL    HW2 1798   2.255   3.355   2.866
 1924SOL     OW 1799   2.300   2.254   3.361
 1924SOL    HW1 1800   2.382   2.198   3.370
 1924SOL    HW2 1801   2.219   2.196   3.365
 1925SOL     OW 1802   3.465   2.309   2.599
 1925SOL    HW1 1803   3.391   2.355   2.549
 1925SOL    HW2 1804   3.516   2.377   2.652
 1926SOL     OW 1805   2.093   3.575   2.345
 1926SOL    HW1 1806   2.127   3.652   2.399
 1926SOL    HW2 1807   2.137   3.575   2.255
 1928SOL     OW 1808   2.092   3.296   2.400
 1928SOL    HW1 1809   2.066   3.392   2.400
 1928SOL    HW2 1810   2.021   3.242   2.445
 1929SOL     OW 1811   2.102   2.953   2.748
 1929SOL    HW1 1812   2.116   2.869   2.800
 1929SOL    HW2 1813   2.047   3.017   2.803
 1931SOL     OW 1814   2.468   2.826   1.985
 1931SOL    HW1 1815   2.475   2.910   1.931
 1931SOL    HW2 1816   2.514   2.839   2.073
 1932SOL     OW 1817   3.456   1.976   3.342
 1932SOL    HW1 1818   3.438   2.043   3.270
 1932SOL    HW2 1819   3.453   2.022   3.431
 1933SOL     OW 1820   1.984   2.505   2.425
 1933SOL    HW1 1821   1.939   2.417   2.442
 1933SOL    HW2 1822   1.983   2.559   2.509
 1935SOL     OW 1823   1.889   3.458   1.979
 1935SOL    HW1 1824   1.870   3.362   2.000
 1935SOL    HW2 1825   1.856   3.516   2.054
 1936SOL     OW 1826   3.551   2.784   2.474
 1936SOL    HW1 1827   3.646   2.755   2.482
 1936SOL    HW2 1828   3.543   2.849   2.399
 1937SOL     OW 1829   3.503   2.970   2.294
 1937SOL    HW1 1830   3.589   2.972   2.242
 1937SOL    HW2 1831   3.517   3.017   2.382
 1938SOL     OW 1832   1.975   2.599   3.459
 1938SOL    HW1 1833   2.063   2.586   3.504
 1938SOL    HW2 1834   1.962   2.696   3.437
 1939SOL     OW 1835   2.475   3.227   2.588
 1939SOL    HW1 1836   2.426   3.140   2.597
 1939SOL    HW2 1837   2.452   3.270   2.501
 1940SOL     OW 1838   3.155   3.090   3.285
 1940SOL    HW1 1839   3.192   3.017   3.227
 1940SOL    HW2 1840   3.207   3.095   3.370
 1941SOL     OW 1841   2.671   1.866   2.364
 1941SOL    HW1 1842   2.711   1.957   2.355
 1941SOL    HW2 1843   2.571   1.874   2.370
 1942SOL     OW 1844   2.059   2.838   3.126
 1942SOL    HW1 1845   2.148   2.793   3.112
 1942SOL    HW2 1846   1.986   2.773   3.107
 1943SOL     OW 1847   3.387   2.861   2.052
 1943SOL    HW1 1848   3.324   2.785   2.065
 1943SOL    HW2 1849   3.435   2.879   2.138
 1945SOL     OW 1850   2.179   2.113   3.663
 1945SOL    HW1 1851   2.250   2.184   3.669
 1945SOL    HW2 1852   2.091   2.152   3.691
 1946SOL     OW 1853   3.328   3.279   2.815
 1946SOL    HW1 1854   3.269   3.285   2.895
 1946SOL    HW2 1855   3.313   3.191   2.769
 1948SOL     OW 1856   2.460   2.591   2.132
 1948SOL    HW1 1857   2.484   2.660   2.064
 1948SOL    HW2 1858   2.382   2.624   2.186
 1949SOL     OW 1859   3.143   2.207   2.806
 1949SOL    HW1 1860   3.057   2.157   2.793
 1949SOL    HW2 1861   3.205   2.153   2.862
 1950SOL     OW 1862   3.438   3.524   2.169
 1950SOL    HW1 1863   3.527   3.570   2.172
 1950SOL    HW2 1864   3.417   3.500   2.074
 1951SOL     OW 1865   2.669   2.467   3.327
 1951SOL    HW1 1866   2.622   2.464   3.416
 1951SOL    HW2 1867   2.618   2.412   3.261
 1952SOL     OW 1868   3.256   2.331   3.536
 1952SOL    HW1 1869   3.236   2.374   3.624
 1952SOL    HW2 1870   3.334   2.269   3.545
 1953SOL     OW 1871   2.835   2.752   3.434
 1953SOL    HW1 1872   2.881   2.668   3.405
 1953SOL    HW2 1873   2.779   2.786   3.359
 1954SOL     OW 1874   2.853   2.272   3.104
 1954SOL    HW1 1875   2.776   2.306   3.158
 1954SOL    HW2 1876   2.819   2.221   3.025
 1955SOL     OW 1877   2.903   2.563   2.291
 1955SOL    HW1 1878   2.929   2.559   2.387
 1955SOL    HW2 1879   2.818   2.512   2.277
 1956SOL     OW 1880   1.938   2.673   2.651
 1956SOL    HW1 1881   2.037   2.661   2.660
 1956SOL    HW2 1882   1.914   2.768   2.672
 1958SOL     OW 1883   2.727   2.210   2.057
 1958SOL    HW1 1884   2.786   2.273   2.008
 1958SOL    HW2 1885   2.746   2.116   2.028
 1960SOL     OW 1886   3.224   3.006   2.407
 1960SOL    HW1 1887   3.307   2.977   2.359
 1960SOL    HW2 1888   3.175   3.073   2.351
 1961SOL     OW 1889   2.412   2.058   2.747
 1961SOL    HW1 1890   2.407   2.053   2.847
 1961SOL    HW2 1891   2.414   2.154   2.718
 1962SOL     OW 1892   2.870   3.318   2.339
 1962SOL    HW1 1893   2.824   3.390   2.287
 1962SOL    HW2 1894   2.866   3.338   2.437
 1963SOL     OW 1895   2.213   3.663   2.715
 1963SOL    HW1 1896   2.263   3.577   2.721
 1963SOL    HW2 1897   2.278   3.740   2.712
 1964SOL     OW 1898   3.657   2.928   2.735
 1964SOL    HW1 1899   3.595   2.913   2.659
 1964SOL    HW2 1900   3.605   2.939   2.820
 1966SOL     OW 1901   2.183   2.805   2.104
 1966SOL    HW1 1902   2.265   2.844   2.062
 1966SOL    HW2 1903   2.156   2.723   2.055
 1967SOL     OW 1904   3.320   2.597   2.590
 1967SOL    HW1 1905   3.315   2.532   2.665
 1967SOL    HW2 1906   3.400   2.656   2.603
 1968SOL     OW 1907   2.323   3.128   3.589
 1968SOL    HW1 1908   2.273   3.129   3.503
 1968SOL    HW2 1909   2.260   3.110   3.665
 1969SOL     OW 1910   2.973   3.638   2.099
 1969SOL    HW1 1911   2.913   3.576   2.149
 1969SOL    HW2 1912   3.004   3.594   2.014
 1970SOL     OW 1913   2.064   2.147   3.360
 1970SOL    HW1 1914   1.984   2.207   3.347
 1970SOL    HW2 1915   2.054   2.098   3.446
 1971SOL     OW 1916   3.494   3.239   1.943
 1971SOL    HW1 1917   3.462   3.333   1.933
 1971SOL    HW2 1918   3.418   3.176   1.931
 1972SOL     OW 1919   2.326   3.605   2.185
 1972SOL    HW1 1920   2.359   3.644   2.271
 1972SOL    HW2 1921   2.402   3.598   2.120
 1973SOL     OW 1922   3.262   1.969   2.288
 1973SOL    HW1 1923   3.238   1.932   2.198
 1973SOL    HW2 1924   3.361   1.985   2.292
 1974SOL     OW 1925   2.111   3.647   3.103
 1974SOL    HW1 1926   2.168   3.582   3.153
 1974SOL    HW2 1927   2.095   3.614   3.010
 1975SOL     OW 1928   2.802   3.560   2.766
 1975SOL    HW1 1929   2.882   3.503   2.787
 1975SOL    HW2 1930   2.753   3.520   2.689
 1976SOL     OW 1931   2.244   2.562   2.342
 1976SOL    HW1 1932   2.289   2.472   2.339
 1976SOL    HW2 1933   2.150   2.551   2.375
 1978SOL     OW 1934   2.476   1.984   1.979
 1978SOL    HW1 1935   2.574   1.962   1.986
 1978SOL    HW2 1936   2.445   1.967   1.886
 1979SOL     OW 1937   2.643   2.126   3.611
 1979SOL    HW1 1938   2.710   2.065   3.654
 1979SOL    HW2 1939   2.570   2.145   3.676
 1980SOL     OW 1940   2.750   3.376   3.057
 1980SOL    HW1 1941   2.727   3.351   2.963
 1980SOL    HW2 1942   2.811   3.307   3.096
 1981SOL     OW 1943   3.213   2.452   3.295
 1981SOL    HW1 1944   3.241   2.409   3.380
 1981SOL    HW2 1945   3.238   2.548   3.296
 1982SOL     OW 1946   2.665   3.264   2.786
 1982SOL    HW1 1947   2.755   3.278   2.744
 1982SOL    HW2 1948   2.594   3.266   2.715
 1983SOL     OW 1949   2.784   2.365   2.761
 1983SOL    HW1 1950   2.759   2.356   2.665
 1983SOL    HW2 1951   2.832   2.283   2.792
 1984SOL     OW 1952   2.401   1.926   2.374
 1984SOL    HW1 1953   2.320   1.927   2.432
 1984SOL    HW2 1954   2.404   2.009   2.319
 1985SOL     OW 1955   3.296   3.050   1.903
 1985SOL    HW1 1956   3.328   2.974   1.960
 1985SOL    HW2 1957   3.204   3.077   1.933
 1986SOL     OW 1958   2.159   1.897   2.033
 1986SOL    HW1 1959   2.208   1.981   2.012
 1986SOL    HW2 1960   2.221   1.832   2.078
 1987SOL     OW 1961   2.797   2.098   2.342
 1987SOL    HW1 1962   2.749   2.139   2.264
 1987SOL    HW2 1963   2.896   2.096   2.323
 1988SOL     OW 1964   2.938   2.545   3.326
 1988SOL    HW1 1965   2.858   2.484   3.329
 1988SOL    HW2 1966   3.019   2.492   3.302
 1989SOL     OW 1967   3.089   3.432   2.655
 1989SOL    HW1 1968   3.110   3.506   2.590
 1989SOL    HW2 1969   3.157   3.432   2.728
 1990SOL     OW 1970   2.321   3.014   2.603
 1990SOL    HW1 1971   2.250   2.987   2.668
 1990SOL    HW2 1972   2.295   2.986   2.510
 1991SOL     OW 1973   3.133   3.659   2.453
 1991SOL    HW1 1974   3.177   3.723   2.389
 1991SOL    HW2 1975   3.083   3.711   2.523
 1992SOL     OW 1976   2.894   2.411   1.878
 1992SOL    HW1 1977   2.853   2.493   1.839
 1992SOL    HW2 1978   2.958   2.437   1.951
 1993SOL     OW 1979   1.940   2.418   3.248
 1993SOL    HW1 1980   2.032   2.417   3.207
 1993SOL    HW2 1981   1.934   2.492   3.315
 1994SOL     OW 1982   2.423   2.084   3.009
 1994SOL    HW1 1983   2.461   2.000   3.046
 1994SOL    HW2 1984   2.335   2.103   3.053
 1995SOL     OW 1985   2.728   2.316   2.504
 1995SOL    HW1 1986   2.696   2.388   2.442
 1995SOL    HW2 1987   2.752   2.235   2.451
 1996SOL     OW 1988   2.879   1.901   2.615
 1996SOL    HW1 1989   2.807   1.906   2.546
 1996SOL    HW2 1990   2.855   1.832   2.684
 1997SOL     OW 1991   3.291   3.035   2.729
 1997SOL    HW1 1992   3.236   2.951   2.722
 1997SOL    HW2 1993   3.317   3.064   2.637
 1998SOL     OW 1994   3.328   2.452   2.854
 1998SOL    HW1 1995   3.298   2.357   2.861
 1998SOL    HW2 1996   3.401   2.468   2.920
 1999SOL     OW 1997   3.719   2.695   2.239
 1999SOL    HW1 1998   3.761   2.631   2.303
 1999SOL    HW2 1999   3.681   2.644   2.161
 2000SOL     OW 2000   2.350   3.247   2.036
 2000SOL    HW1 2001   2.263   3.232   2.083
 2000SOL    HW2 2002   2.333   3.273   1.941
 2001SOL     OW 2003   3.526   3.142   2.519
 2001SOL    HW1 2004   3.625   3.150   2.533
 2001SOL    HW2 2005   3.481   3.226   2.550
 2002SOL     OW 2006   3.252   2.437   1.940
 2002SOL    HW1 2007   3.198   2.416   2.021
 2002SOL    HW2 2008   3.343   2.396   1.949
 2004SOL     OW 2009   2.926   3.209   3.202
 2004SOL    HW1 2010   2.846   3.186   3.257
 2004SOL    HW2 2011   3.009   3.183   3.251
 2006SOL     OW 2012   2.973   3.057   2.962
 2006SOL    HW1 2013   2.933   3.101   3.043
 2006SOL    HW2 2014   2.932   3.094   2.879
 2007SOL     OW 2015   3.500   2.961   2.941
 2007SOL    HW1 2016   3.505   3.042   3.000
 2007SOL    HW2 2017   3.414   2.963   2.890
 2008SOL     OW 2018   2.777   1.951   3.264
 2008SOL    HW1 2019   2.802   1.931   3.169
 2008SOL    HW2 2020   2.849   2.007   3.306
 2009SOL     OW 2021   2.842   2.978   3.581
 2009SOL    HW1 2022   2.743   2.984   3.591
 2009SOL    HW2 2023   2.865   2.898   3.525
 2010SOL     OW 2024   2.567   2.912   2.230
 2010SOL    HW1 2025   2.553   2.919   2.329
 2010SOL    HW2 2026   2.651   2.861   2.212
 2011SOL     OW 2027   2.272   2.675   3.113
 2011SOL    HW1 2028   2.358   2.687   3.163
 2011SOL    HW2 2029   2.230   2.588   3.140
 2012SOL     OW 2030   3.136   2.248   3.124
 2012SOL    HW1 2031   3.157   2.322   3.188
 2012SOL    HW2 2032   3.047   2.265   3.081
 2013SOL     OW 2033   1.926   3.426   3.193
 2013SOL    HW1 2034   1.880   3.508   3.159
 2013SOL    HW2 2035   2.024   3.445   3.202
 2014SOL     OW 2036   2.229   2.962   2.363
 2014SOL    HW1 2037   2.222   3.045   2.307
 2014SOL    HW2 2038   2.233   2.882   2.303
 2015SOL     OW 2039   2.428   2.399   2.727
 2015SOL    HW1 2040   2.440   2.465   2.653
 2015SOL    HW2 2041   2.474   2.433   2.810
 2016SOL     OW 2042   3.114   3.210   2.250
 2016SOL    HW1 2043   3.164   3.287   2.290
 2016SOL    HW2 2044   3.019   3.212   2.282
 2017SOL     OW 2045   3.134   3.307   3.004
 2017SOL    HW1 2046   3.181   3.320   3.091
 2017SOL    HW2 2047   3.068   3.233   3.013
 2018SOL     OW 2048   3.444   2.501   2.334
 2018SOL    HW1 2049   3.413   2.562   2.407
 2018SOL    HW2 2050   3.494   2.553   2.265
 2019SOL     OW 2051   2.216   3.372   3.191
 2019SOL    HW1 2052   2.195   3.328   3.104
 2019SOL    HW2 2053   2.313   3.398   3.194
 2020SOL     OW 2054   2.264   2.613   3.460
 2020SOL    HW1 2055   2.332   2.668   3.413
 2020SOL    HW2 2056   2.304   2.525   3.487
 2022SOL     OW 2057   2.875   1.967   3.632
 2022SOL    HW1 2058   2.881   2.052   3.580
 2022SOL    HW2 2059   2.907   1.891   3.575
 2023SOL     OW 2060   2.366   1.912   3.602
 2023SOL    HW1 2061   2.324   1.855   3.532
 2023SOL    HW2 2062   2.300   1.981   3.634
 2024SOL     OW 2063   2.435   2.732   2.891
 2024SOL    HW1 2064   2.479   2.821   2.882
 2024SOL    HW2 2065   2.372   2.732   2.968
 2025SOL     OW 2066   3.222   2.724   2.907
 2025SOL    HW1 2067   3.147   2.724   2.841
 2025SOL    HW2 2068   3.259   2.632   2.916
 2026SOL     OW 2069   3.071   2.387   2.137
 2026SOL    HW1 2070   3.084   2.303   2.191
 2026SOL    HW2 2071   3.042   2.461   2.197
 2027SOL     OW 2072   2.169   2.075   3.093
 2027SOL    HW1 2073   2.146   2.112   3.183
 2027SOL    HW2 2074   2.139   1.980   3.087
 2028SOL     OW 2075   1.899   3.172   3.144
 2028SOL    HW1 2076   1.952   3.123   3.212
 2028SOL    HW2 2077   1.921   3.270   3.149
 2029SOL     OW 2078   2.594   2.496   2.926
 2029SOL    HW1 2079   2.653   2.470   2.850
 2029SOL    HW2 2080   2.566   2.592   2.915
 2031SOL     OW 2081   2.169   1.925   2.480
 2031SOL    HW1 2082   2.158   2.019   2.513
 2031SOL    HW2 2083   2.164   1.862   2.557
 2032SOL     OW 2084   3.484   2.229   2.236
 2032SOL    HW1 2085   3.486   2.153   2.300
 2032SOL    HW2 2086   3.436   2.306   2.276
 2033SOL     OW 2087   2.885   2.628   2.828
 2033SOL    HW1 2088   2.900   2.649   2.924
 2033SOL    HW2 2089   2.855   2.533   2.819
 2036SOL     OW 2090   2.212   2.760   3.666
 2036SOL    HW1 2091   2.288   2.804   3.714
 2036SOL    HW2 2092   2.247   2.713   3.584
 2037SOL     OW 2093   3.402   2.136   1.987
 2037SOL    HW1 2094   3.341   2.061   2.010
 2037SOL    HW2 2095   3.424   2.188   2.070
 2038SOL     OW 2096   3.165   2.700   1.904
 2038SOL    HW1 2097   3.199   2.607   1.919
 2038SOL    HW2 2098   3.183   2.727   1.809
 2039SOL     OW 2099   2.930   3.195   2.711
 2039SOL    HW1 2100   2.937   3.111   2.656
 2039SOL    HW2 2101   2.992   3.264   2.675
 2040SOL     OW 2102   2.181   2.672   2.811
 2040SOL    HW1 2103   2.274   2.708   2.816
 2040SOL    HW2 2104   2.175   2.587   2.863
 2041SOL     OW 2105   2.201   2.371   2.868
 2041SOL    HW1 2106   2.149   2.288   2.851
 2041SOL    HW2 2107   2.278   2.376   2.804
 2042SOL     OW 2108   3.000   2.242   3.540
 2042SOL    HW1 2109   2.955   2.305   3.604
 2042SOL    HW2 2110   3.093   2.273   3.523
 2043SOL     OW 2111   3.022   2.069   3.339
 2043SOL    HW1 2112   3.022   2.133   3.416
 2043SOL    HW2 2113   3.050   2.117   3.256
 2044SOL     OW 2114   1.870   3.188   2.062
 2044SOL    HW1 2115   1.777   3.209   2.031
 2044SOL    HW2 2116   1.880   3.089   2.075
 2045SOL     OW 2117   1.950   3.663   2.789
 2045SOL    HW1 2118   1.908   3.577   2.762
 2045SOL    HW2 2119   2.044   3.666   2.755
 2046SOL     OW 2120   2.366   3.430   2.772
 2046SOL    HW1 2121   2.432   3.504   2.781
 2046SOL    HW2 2122   2.410   3.351   2.730
 2047SOL     OW 2123   2.864   2.658   3.100
 2047SOL    HW1 2124   2.905   2.626   3.186
 2047SOL    HW2 2125   2.768   2.631   3.097
 2048SOL     OW 2126   1.902   2.406   2.976
 2048SOL    HW1 2127   1.987   2.373   2.935
 2048SOL    HW2 2128   1.915   2.421   3.074
 2049SOL     OW 2129   2.051   2.382   3.584
 2049SOL    HW1 2130   2.110   2.342   3.514
 2049SOL    HW2 2131   1.993   2.453   3.543
 2050SOL     OW 2132   3.231   2.812   3.522
 2050SOL    HW1 2133   3.270   2.901   3.542
 2050SOL    HW2 2134   3.241   2.792   3.425
 2051SOL     OW 2135   2.677   2.434   2.187
 2051SOL    HW1 2136   2.684   2.345   2.141
 2051SOL    HW2 2137   2.583   2.468   2.179
 2052SOL     OW 2138   3.519   2.466   3.068
 2052SOL    HW1 2139   3.481   2.397   3.130
 2052SOL    HW2 2140   3.601   2.430   3.024
 2054SOL     OW 2141   2.533   2.326   3.131
 2054SOL    HW1 2142   2.499   2.237   3.101
 2054SOL    HW2 2143   2.559   2.380   3.051
 2056SOL     OW 2144   2.021   2.999   3.328
 2056SOL    HW1 2145   2.043   2.938   3.404
 2056SOL    HW2 2146   2.031   2.950   3.242
 2057SOL     OW 2147   3.209   2.921   3.096
 2057SOL    HW1 2148   3.233   2.858   3.022
 2057SOL    HW2 2149   3.119   2.961   3.078
 2058SOL     OW 2150   3.164   2.717   2.171
 2058SOL    HW1 2151   3.078   2.686   2.213
 2058SOL    HW2 2152   3.160   2.703   2.072
 2061SOL     OW 2153   1.945   3.120   2.884
 2061SOL    HW1 2154   1.940   3.119   2.984
 2061SOL    HW2 2155   1.862   3.079   2.846
 2063SOL     OW 2156   3.588   1.997   2.385
 2063SOL    HW1 2157   3.661   1.980   2.318
 2063SOL    HW2 2158   3.557   1.910   2.423
 2064SOL     OW 2159   3.250   3.435   2.339
 2064SOL    HW1 2160   3.317   3.447   2.265
 2064SOL    HW2 2161   3.210   3.524   2.362
 2066SOL     OW 2162   3.142   2.789   2.534
 2066SOL    HW1 2163   3.202   2.708   2.536
 2066SOL    HW2 2164   3.182   2.858   2.474
 2067SOL     OW 2165   2.692   3.135   3.284
 2067SOL    HW1 2166   2.687   3.168   3.379
 2067SOL    HW2 2167   2.606   3.154   3.238
 2068SOL     OW 2168   2.534   3.478   2.016
 2068SOL    HW1 2169   2.543   3.488   1.917
 2068SOL    HW2 2170   2.494   3.389   2.037
 2070SOL     OW 2171   3.703   2.037   2.825
 2070SOL    HW1 2172   3.742   1.952   2.789
 2070SOL    HW2 2173   3.605   2.039   2.806
 2071SOL     OW 2174   2.125   2.188   2.582
 2071SOL    HW1 2175   2.046   2.239   2.548
 2071SOL    HW2 2176   2.116   2.173   2.680
 2072SOL     OW 2177   3.056   3.474   1.893
 2072SOL    HW1 2178   3.062   3.381   1.930
 2072SOL    HW2 2179   2.997   3.474   1.813
 2073SOL     OW 2180   2.684   2.864   3.234
 2073SOL    HW1 2181   2.724   2.863   3.142
 2073SOL    HW2 2182   2.694   2.956   3.274
 2074SOL     OW 2183   2.778   2.772   2.153
 2074SOL    HW1 2184   2.841   2.810   2.085
 2074SOL    HW2 2185   2.818   2.689   2.192
 2075SOL     OW 2186   3.366   3.469   1.906
 2075SOL    HW1 2187   3.274   3.506   1.913
 2075SOL    HW2 2188   3.404   3.489   1.816
 2076SOL     OW 2189   2.234   3.150   3.352
 2076SOL    HW1 2190   2.221   3.243   3.318
 2076SOL    HW2 2191   2.150   3.098   3.339
 2078SOL     OW 2192   2.901   2.960   2.558
 2078SOL    HW1 2193   2.831   2.913   2.612
 2078SOL    HW2 2194   2.960   2.892   2.515
 2079SOL     OW 2195   2.876   2.098   2.833
 2079SOL    HW1 2196   2.868   2.062   2.740
 2079SOL    HW2 2197   2.874   2.022   2.898
 2080SOL     OW 2198   2.452   3.349   2.353
 2080SOL    HW1 2199   2.494   3.291   2.283
 2080SOL    HW2 2200   2.408   3.428   2.309
 2081SOL     OW 2201   3.571   2.247   3.243
 2081SOL    HW1 2202   3.644   2.316   3.247
 2081SOL    HW2 2203   3.599   2.172   3.184
 2082SOL     OW 2204   2.117   3.210   2.152
 2082SOL    HW1 2205   2.021   3.211   2.125
 2082SOL    HW2 2206   2.129   3.263   2.236
 2083SOL     OW 2207   1.967   2.875   3.588
 2083SOL    HW1 2208   1.890   2.842   3.642
 2083SOL    HW2 2209   2.052   2.845   3.630
 2084SOL     OW 2210   2.534   2.065   3.351
 2084SOL    HW1 2211   2.624   2.049   3.311
 2084SOL    HW2 2212   2.542   2.070   3.450
 2085SOL     OW 2213   1.937   2.207   1.895
 2085SOL    HW1 2214   1.845   2.179   1.866
 2085SOL    HW2 2215   1.968   2.284   1.839
 2086SOL     OW 2216   3.302   2.718   3.260
 2086SOL    HW1 2217   3.245   2.770   3.197
 2086SOL    HW2 2218   3.398   2.730   3.236
 2087SOL     OW 2219   1.934   2.028   2.180
 2087SOL    HW1 2220   1.917   2.111   2.126
 2087SOL    HW2 2221   2.024   1.991   2.158
 2088SOL     OW 2222   3.045   3.197   1.981
 2088SOL    HW1 2223   2.946   3.186   1.983
 2088SOL    HW2 2224   3.079   3.212   2.074
 2089SOL     OW 2225   2.475   2.704   3.293
 2089SOL    HW1 2226   2.531   2.785   3.276
 2089SOL    HW2 2227   2.534   2.624   3.296
 2091SOL     OW 2228   2.578   2.427   3.570
 2091SOL    HW1 2229   2.597   2.492   3.644
 2091SOL    HW2 2230   2.638   2.347   3.579
 2094SOL     OW 2231   3.536   2.745   3.116
 2094SOL    HW1 2232   3.509   2.656   3.079
 2094SOL    HW2 2233   3.537   2.813   3.043
 2095SOL     OW 2234   3.087   2.187   2.311
 2095SOL    HW1 2235   3.152   2.113   2.300
 2095SOL    HW2 2236   3.107   2.237   2.395
 2096SOL     OW 2237   2.456   2.607   2.514
 2096SOL    HW1 2238   2.506   2.692   2.495
 2096SOL    HW2 2239   2.368   2.609   2.466
 2099SOL     OW 2240   2.721   3.236   1.878
 2099SOL    HW1 2241   2.675   3.251   1.966
 2099SOL    HW2 2242   2.765   3.321   1.848
 2100SOL     OW 2243   2.523   3.652   2.815
 2100SOL    HW1 2244   2.477   3.740   2.802
 2100SOL    HW2 2245   2.622   3.664   2.808
 2101SOL     OW 2246   2.721   2.818   2.723
 2101SOL    HW1 2247   2.775   2.749   2.771
 2101SOL    HW2 2248   2.689   2.887   2.789
 2102SOL     OW 2249   2.945   2.846   1.949
 2102SOL    HW1 2250   2.922   2.899   1.867
 2102SOL    HW2 2251   3.026   2.790   1.930
 2104SOL     OW 2252   2.083   3.176   3.706
 2104SOL    HW1 2253   2.018   3.103   3.685
 2104SOL    HW2 2254   2.087   3.190   3.804
 2105SOL     OW 2255   1.941   3.102   2.515
 2105SOL    HW1 2256   1.940   3.055   2.603
 2105SOL    HW2 2257   2.023   3.074   2.464
 2106SOL     OW 2258   2.534   3.253   3.486
 2106SOL    HW1 2259   2.456   3.203   3.524
 2106SOL    HW2 2260   2.531   3.348   3.517
 2107SOL     OW 2261   3.686   2.054   3.089
 2107SOL    HW1 2262   3.682   1.964   3.133
 2107SOL    HW2 2263   3.689   2.043   2.990
 2109SOL     OW 2264   2.179   2.409   3.142
 2109SOL    HW1 2265   2.217   2.350   3.214
 2109SOL    HW2 2266   2.219   2.383   3.054
 2110SOL     OW 2267   2.674   3.448   2.549
 2110SOL    HW1 2268   2.706   3.458   2.455
 2110SOL    HW2 2269   2.595   3.386   2.551
 2111SOL     OW 2270   3.286   2.076   2.974
 2111SOL    HW1 2271   3.338   2.011   3.029
 2111SOL    HW2 2272   3.237   2.139   3.035
 2112SOL     OW 2273   2.863   1.896   3.016
 2112SOL    HW1 2274   2.800   1.824   2.985
 2112SOL    HW2 2275   2.956   1.860   3.016
 2113SOL     OW 2276   2.632   3.192   2.163
 2113SOL    HW1 2277   2.586   3.105   2.180
 2113SOL    HW2 2278   2.723   3.189   2.204
 2114SOL     OW 2279   2.480   3.429   3.146
 2114SOL    HW1 2280   2.475   3.511   3.203
 2114SOL    HW2 2281   2.569   3.426   3.101
 2115SOL     OW 2282   3.214   1.914   2.030
 2115SOL    HW1 2283   3.249   1.873   1.946
 2115SOL    HW2 2284   3.124   1.876   2.050
 2116SOL     OW 2285   3.162   2.315   2.553
 2116SOL    HW1 2286   3.103   2.395   2.557
 2116SOL    HW2 2287   3.177   2.280   2.646
 2117SOL     OW 2288   3.455   2.083   2.744
 2117SOL    HW1 2289   3.371   2.082   2.798
 2117SOL    HW2 2290   3.457   2.166   2.688
 2118SOL     OW 2291   1.901   2.939   2.162
 2118SOL    HW1 2292   2.000   2.928   2.153
 2118SOL    HW2 2293   1.861   2.853   2.194
 2119SOL     OW 2294   2.737   3.508   2.199
 2119SOL    HW1 2295   2.660   3.473   2.145
 2119SOL    HW2 2296   2.705   3.579   2.261
 2120SOL     OW 2297   2.092   2.490   3.837
 2120SOL    HW1 2298   1.999   2.488   3.874
 2120SOL    HW2 2299   2.093   2.451   3.745
 2124SOL     OW 2300   2.468   2.826   3.847
 2124SOL    HW1 2301   2.475   2.910   3.793
 2124SOL    HW2 2302   2.514   2.839   3.935
 2138SOL     OW 2303   2.727   2.210   3.919
 2138SOL    HW1 2304   2.786   2.273   3.870
 2138SOL    HW2 2305   2.746   2.116   3.890
 2148SOL     OW 2306   2.476   1.984   3.841
 2148SOL    HW1 2307   2.574   1.962   3.848
 2148SOL    HW2 2308   2.445   1.967   3.748
 2151SOL     OW 2309   2.159   1.897   3.895
 2151SOL    HW1 2310   2.208   1.981   3.874
 2151SOL    HW2 2311   2.221   1.832   3.940
 2155SOL     OW 2312   2.894   2.411   3.740
 2155SOL    HW1 2313   2.853   2.493   3.701
 2155SOL    HW2 2314   2.958   2.437   3.813
 2172SOL     OW 2315   2.335   2.362   3.915
 2172SOL    HW1 2316   2.396   2.442   3.919
 2172SOL    HW2 2317   2.240   2.393   3.922
 2183SOL     OW 2318   1.937   2.207   3.757
 2183SOL    HW1 2319   1.845   2.179   3.728
 2183SOL    HW2 2320   1.968   2.284   3.701
 2237SOL     OW 2321   2.875   3.829   1.770
 2237SOL    HW1 2322   2.881   3.914   1.718
 2237SOL    HW2 2323   2.907   3.753   1.713
 2238SOL     OW 2324   2.366   3.774   1.740
 2238SOL    HW1 2325   2.324   3.717   1.670
 2238SOL    HW2 2326   2.300   3.843   1.772
 2284SOL     OW 2327   2.671   3.728   2.364
 2284SOL    HW1 2328   2.711   3.819   2.355
 2284SOL    HW2 2329   2.571   3.736   2.370
 2293SOL     OW 2330   2.412   3.920   2.747
 2293SOL    HW1 2331   2.407   3.915   2.847
 2293SOL    HW2 2332   2.414   4.016   2.718
 2298SOL     OW 2333   2.476   3.846   1.979
 2298SOL    HW1 2334   2.574   3.824   1.986
 2298SOL    HW2 2335   2.445   3.829   1.886
 2302SOL     OW 2336   2.401   3.788   2.374
 2302SOL    HW1 2337   2.320   3.789   2.432
 2302SOL    HW2 2338   2.404   3.871   2.319
 2303SOL     OW 2339   2.159   3.759   2.033
 2303SOL    HW1 2340   2.208   3.843   2.012
 2303SOL    HW2 2341   2.221   3.694   2.078
 2310SOL     OW 2342   2.879   3.763   2.615
 2310SOL    HW1 2343   2.807   3.768   2.546
 2310SOL    HW2 2344   2.855   3.694   2.684
 2312SOL     OW 2345   2.389   3.980   2.190
 2312SOL    HW1 2346   2.416   3.921   2.115
 2312SOL    HW2 2347   2.389   4.075   2.159
 2322SOL     OW 2348   2.169   3.787   2.480
 2322SOL    HW1 2349   2.158   3.881   2.513
 2322SOL    HW2 2350   2.164   3.724   2.557
 2343SOL     OW 2351   1.934   3.890   2.180
 2343SOL    HW1 2352   1.917   3.973   2.126
 2343SOL    HW2 2353   2.024   3.853   2.158
 2448SOL     OW 2354   3.854   1.794   1.851
 2448SOL    HW1 2355   3.813   1.720   1.904
 2448SOL    HW2 2356   3.918   1.845   1.909
 2476SOL     OW 2357   3.751   1.596   1.979
 2476SOL    HW1 2358   3.732   1.500   2.000
 2476SOL    HW2 2359   3.718   1.654   2.054
 2516SOL     OW 2360   3.732   1.326   2.062
 2516SOL    HW1 2361   3.639   1.347   2.031
 2516SOL    HW2 2362   3.742   1.227   2.075
 2517SOL     OW 2363   3.812   1.801   2.789
 2517SOL    HW1 2364   3.770   1.715   2.762
 2517SOL    HW2 2365   3.906   1.804   2.755
 2588SOL     OW 2366   3.837   2.599   1.597
 2588SOL    HW1 2367   3.925   2.586   1.642
 2588SOL    HW2 2368   3.824   2.696   1.575
 2631SOL     OW 2369   3.913   2.382   1.722
 2631SOL    HW1 2370   3.972   2.342   1.652
 2631SOL    HW2 2371   3.855   2.453   1.681
 2655SOL     OW 2372   3.954   2.490   1.975
 2655SOL    HW1 2373   3.861   2.488   2.012
 2655SOL    HW2 2374   3.955   2.451   1.883
 2657SOL     OW 2375   3.743   2.230   2.509
 2657SOL    HW1 2376   3.661   2.273   2.548
 2657SOL    HW2 2377   3.715   2.157   2.446
 2665SOL     OW 2378   3.846   2.505   2.425
 2665SOL    HW1 2379   3.801   2.417   2.442
 2665SOL    HW2 2380   3.845   2.559   2.509
 2673SOL     OW 2381   3.800   2.673   2.651
 2673SOL    HW1 2382   3.899   2.661   2.660
 2673SOL    HW2 2383   3.776   2.768   2.672
 2710SOL     OW 2384   3.764   2.406   2.976
 2710SOL    HW1 2385   3.849   2.373   2.935
 2710SOL    HW2 2386   3.777   2.421   3.074
 2725SOL     OW 2387   3.799   2.207   1.895
 2725SOL    HW1 2388   3.707   2.179   1.866
 2725SOL    HW2 2389   3.830   2.284   1.839
 2726SOL     OW 2390   3.796   2.028   2.180
 2726SOL    HW1 2391   3.779   2.111   2.126
 2726SOL    HW2 2392   3.886   1.991   2.158
 2735SOL     OW 2393   3.763   2.939   2.162
 2735SOL    HW1 2394   3.862   2.928   2.153
 2735SOL    HW2 2395   3.723   2.853   2.194
   4.43247   4.43247   4.43247
