; mobley_627267_GMX.itp created by acpype (v: 2023.10.27) on Wed May 20 23:42:56 2026

[ atomtypes ]
;name   bond_type     mass     charge   ptype   sigma         epsilon       Amb
 c3       c3          0.00000  0.00000   A     3.39771e-01   4.51035e-01 ; 1.91  0.1078
 br       br          0.00000  0.00000   A     3.61259e-01   1.64515e+00 ; 2.03  0.3932
 hc       hc          0.00000  0.00000   A     2.60018e-01   8.70272e-02 ; 1.46  0.0208
 h1       h1          0.00000  0.00000   A     2.42200e-01   8.70272e-02 ; 1.36  0.0208

[ moleculetype ]
;name            nrexcl
 mobley_627267    3

[ atoms ]
;   nr  type  resi  res  atom  cgnr     charge      mass       ; qtot   bond_type
     1   c3     1   MOL    C1    1    -0.096100     12.01000 ; qtot -0.096
     2   c3     1   MOL    C2    2    -0.096100     12.01000 ; qtot -0.192
     3   c3     1   MOL    C3    3    -0.005000     12.01000 ; qtot -0.197
     4   c3     1   MOL    C4    4    -0.062700     12.01000 ; qtot -0.260
     5   br     1   MOL   BR1    5    -0.180398     79.90000 ; qtot -0.440
     6   hc     1   MOL    H1    6     0.041033      1.00800 ; qtot -0.399
     7   hc     1   MOL    H2    7     0.041033      1.00800 ; qtot -0.358
     8   hc     1   MOL    H3    8     0.041033      1.00800 ; qtot -0.317
     9   hc     1   MOL    H4    9     0.041033      1.00800 ; qtot -0.276
    10   hc     1   MOL    H5   10     0.041033      1.00800 ; qtot -0.235
    11   hc     1   MOL    H6   11     0.041033      1.00800 ; qtot -0.194
    12   h1     1   MOL    H7   12     0.070700      1.00800 ; qtot -0.123
    13   h1     1   MOL    H8   13     0.070700      1.00800 ; qtot -0.053
    14   hc     1   MOL    H9   14     0.052700      1.00800 ; qtot 0.000

[ bonds ]
;   ai     aj funct   r             k
     1      4   1    1.5354e-01    1.9154e+05 ;     C1 - C4    
     1      6   1    1.0962e-01    2.8891e+05 ;     C1 - H1    
     1      7   1    1.0962e-01    2.8891e+05 ;     C1 - H2    
     1      8   1    1.0962e-01    2.8891e+05 ;     C1 - H3    
     2      4   1    1.5354e-01    1.9154e+05 ;     C2 - C4    
     2      9   1    1.0962e-01    2.8891e+05 ;     C2 - H4    
     2     10   1    1.0962e-01    2.8891e+05 ;     C2 - H5    
     2     11   1    1.0962e-01    2.8891e+05 ;     C2 - H6    
     3      4   1    1.5354e-01    1.9154e+05 ;     C3 - C4    
     3      5   1    1.9805e-01    1.0319e+05 ;     C3 - BR1   
     3     12   1    1.0969e-01    2.8804e+05 ;     C3 - H7    
     3     13   1    1.0969e-01    2.8804e+05 ;     C3 - H8    
     4     14   1    1.0962e-01    2.8891e+05 ;     C4 - H9    

[ pairs ]
;   ai     aj    funct
     1      5      1 ;     C1 - BR1   
     1      9      1 ;     C1 - H4    
     1     10      1 ;     C1 - H5    
     1     11      1 ;     C1 - H6    
     1     12      1 ;     C1 - H7    
     1     13      1 ;     C1 - H8    
     2      5      1 ;     C2 - BR1   
     2     12      1 ;     C2 - H7    
     2     13      1 ;     C2 - H8    
     3      9      1 ;     C3 - H4    
     3     10      1 ;     C3 - H5    
     3     11      1 ;     C3 - H6    
     5     14      1 ;    BR1 - H9    
     6      2      1 ;     H1 - C2    
     6      3      1 ;     H1 - C3    
     6     14      1 ;     H1 - H9    
     7      2      1 ;     H2 - C2    
     7      3      1 ;     H2 - C3    
     7     14      1 ;     H2 - H9    
     8      2      1 ;     H3 - C2    
     8      3      1 ;     H3 - C3    
     8     14      1 ;     H3 - H9    
     9     14      1 ;     H4 - H9    
    10     14      1 ;     H5 - H9    
    11     14      1 ;     H6 - H9    
    12     14      1 ;     H7 - H9    
    13     14      1 ;     H8 - H9    

[ angles ]
;   ai     aj     ak    funct   theta         cth
     1      4      2      1    1.1263e+02    5.0099e+02 ;     C1 - C4     - C2    
     1      4      3      1    1.1263e+02    5.0099e+02 ;     C1 - C4     - C3    
     1      4     14      1    1.0968e+02    3.6208e+02 ;     C1 - C4     - H9    
     2      4      3      1    1.1263e+02    5.0099e+02 ;     C2 - C4     - C3    
     2      4     14      1    1.0968e+02    3.6208e+02 ;     C2 - C4     - H9    
     3      4     14      1    1.0968e+02    3.6208e+02 ;     C3 - C4     - H9    
     4      1      6      1    1.0968e+02    3.6208e+02 ;     C4 - C1     - H1    
     4      1      7      1    1.0968e+02    3.6208e+02 ;     C4 - C1     - H2    
     4      1      8      1    1.0968e+02    3.6208e+02 ;     C4 - C1     - H3    
     4      2      9      1    1.0968e+02    3.6208e+02 ;     C4 - C2     - H4    
     4      2     10      1    1.0968e+02    3.6208e+02 ;     C4 - C2     - H5    
     4      2     11      1    1.0968e+02    3.6208e+02 ;     C4 - C2     - H6    
     4      3      5      1    1.1047e+02    5.1020e+02 ;     C4 - C3     - BR1   
     4      3     12      1    1.0959e+02    3.6217e+02 ;     C4 - C3     - H7    
     4      3     13      1    1.0959e+02    3.6217e+02 ;     C4 - C3     - H8    
     5      3     12      1    1.0552e+02    3.3748e+02 ;    BR1 - C3     - H7    
     5      3     13      1    1.0552e+02    3.3748e+02 ;    BR1 - C3     - H8    
     6      1      7      1    1.0773e+02    2.9957e+02 ;     H1 - C1     - H2    
     6      1      8      1    1.0773e+02    2.9957e+02 ;     H1 - C1     - H3    
     7      1      8      1    1.0773e+02    2.9957e+02 ;     H2 - C1     - H3    
     9      2     10      1    1.0773e+02    2.9957e+02 ;     H4 - C2     - H5    
     9      2     11      1    1.0773e+02    2.9957e+02 ;     H4 - C2     - H6    
    10      2     11      1    1.0773e+02    2.9957e+02 ;     H5 - C2     - H6    
    12      3     13      1    1.0855e+02    2.9824e+02 ;     H7 - C3     - H8    

[ dihedrals ] ; propers
; for gromacs 4.5 or higher, using funct 9
;    i      j      k      l   func   phase     kd      pn
     1      4      2      9      9     0.00   0.54392   3 ;     C1-    C4-    C2-    H4
     1      4      2     10      9     0.00   0.54392   3 ;     C1-    C4-    C2-    H5
     1      4      2     11      9     0.00   0.54392   3 ;     C1-    C4-    C2-    H6
     1      4      3      5      9     0.00   0.65084   3 ;     C1-    C4-    C3-   BR1
     1      4      3     12      9     0.00   0.65084   3 ;     C1-    C4-    C3-    H7
     1      4      3     13      9     0.00   0.65084   3 ;     C1-    C4-    C3-    H8
     2      4      3      5      9     0.00   0.65084   3 ;     C2-    C4-    C3-   BR1
     2      4      3     12      9     0.00   0.65084   3 ;     C2-    C4-    C3-    H7
     2      4      3     13      9     0.00   0.65084   3 ;     C2-    C4-    C3-    H8
     3      4      2      9      9     0.00   0.54392   3 ;     C3-    C4-    C2-    H4
     3      4      2     10      9     0.00   0.54392   3 ;     C3-    C4-    C2-    H5
     3      4      2     11      9     0.00   0.54392   3 ;     C3-    C4-    C2-    H6
     5      3      4     14      9     0.00   0.79496   3 ;    BR1-    C3-    C4-    H9
     6      1      4      2      9     0.00   0.54392   3 ;     H1-    C1-    C4-    C2
     6      1      4      3      9     0.00   0.54392   3 ;     H1-    C1-    C4-    C3
     6      1      4     14      9     0.00   0.50208   3 ;     H1-    C1-    C4-    H9
     7      1      4      2      9     0.00   0.54392   3 ;     H2-    C1-    C4-    C2
     7      1      4      3      9     0.00   0.54392   3 ;     H2-    C1-    C4-    C3
     7      1      4     14      9     0.00   0.50208   3 ;     H2-    C1-    C4-    H9
     8      1      4      2      9     0.00   0.54392   3 ;     H3-    C1-    C4-    C2
     8      1      4      3      9     0.00   0.54392   3 ;     H3-    C1-    C4-    C3
     8      1      4     14      9     0.00   0.50208   3 ;     H3-    C1-    C4-    H9
     9      2      4     14      9     0.00   0.50208   3 ;     H4-    C2-    C4-    H9
    10      2      4     14      9     0.00   0.50208   3 ;     H5-    C2-    C4-    H9
    11      2      4     14      9     0.00   0.50208   3 ;     H6-    C2-    C4-    H9
    12      3      4     14      9     0.00   0.65084   3 ;     H7-    C3-    C4-    H9
    13      3      4     14      9     0.00   0.65084   3 ;     H8-    C3-    C4-    H9
