mobley_5760563_GMX.gro created by acpype (v: 2023.10.27) on Tue May 19 12:53:04 2026
 2392
    1MOL     C1    1   2.209   2.127   2.209
    1MOL     C2    2   2.407   2.532   2.461
    1MOL     O1    3   2.363   2.392   2.192
    1MOL     O2    4   2.464   2.236   2.362
    1MOL     O3    5   2.220   2.225   2.311
    1MOL     O4    6   2.318   2.425   2.436
    1MOL     S1    7   2.354   2.319   2.317
    1MOL     H1    8   2.306   2.113   2.161
    1MOL     H2    9   2.135   2.160   2.135
    1MOL     H3   10   2.175   2.033   2.253
    1MOL     H4   11   2.379   2.618   2.401
    1MOL     H5   12   2.509   2.501   2.437
    1MOL     H6   13   2.401   2.559   2.567
   14SOL     OW   14   1.460   1.505   1.339
   14SOL    HW1   15   1.484   1.599   1.365
   14SOL    HW2   16   1.444   1.451   1.421
   18SOL     OW   17   1.127   1.341   1.690
   18SOL    HW1   18   1.174   1.341   1.778
   18SOL    HW2   19   1.079   1.254   1.679
   31SOL     OW   20   1.293   1.228   1.423
   31SOL    HW1   21   1.330   1.155   1.365
   31SOL    HW2   22   1.345   1.233   1.508
   35SOL     OW   23   1.187   1.792   1.616
   35SOL    HW1   24   1.211   1.852   1.540
   35SOL    HW2   25   1.194   1.697   1.586
   56SOL     OW   26   1.227   1.550   1.506
   56SOL    HW1   27   1.233   1.473   1.570
   56SOL    HW2   28   1.175   1.524   1.426
   95SOL     OW   29   1.754   1.223   1.588
   95SOL    HW1   30   1.845   1.184   1.575
   95SOL    HW2   31   1.762   1.319   1.612
   97SOL     OW   32   1.592   1.629   1.625
   97SOL    HW1   33   1.619   1.663   1.535
   97SOL    HW2   34   1.671   1.591   1.671
  122SOL     OW   35   1.728   0.935   1.854
  122SOL    HW1   36   1.682   0.928   1.765
  122SOL    HW2   37   1.666   0.979   1.920
  126SOL     OW   38   0.980   1.573   1.700
  126SOL    HW1   39   0.960   1.617   1.612
  126SOL    HW2   40   1.019   1.482   1.684
  127SOL     OW   41   1.859   1.518   1.605
  127SOL    HW1   42   1.873   1.545   1.510
  127SOL    HW2   43   1.942   1.540   1.658
  147SOL     OW   44   0.930   1.678   1.465
  147SOL    HW1   45   0.906   1.660   1.370
  147SOL    HW2   46   0.960   1.772   1.475
  152SOL     OW   47   1.759   1.747   1.154
  152SOL    HW1   48   1.820   1.777   1.081
  152SOL    HW2   49   1.721   1.658   1.132
  153SOL     OW   50   1.252   1.731   1.128
  153SOL    HW1   51   1.336   1.736   1.074
  153SOL    HW2   52   1.229   1.635   1.146
  163SOL     OW   53   1.650   1.720   1.394
  163SOL    HW1   54   1.703   1.730   1.310
  163SOL    HW2   55   1.623   1.810   1.428
  171SOL     OW   56   1.614   1.292   1.289
  171SOL    HW1   57   1.674   1.295   1.369
  171SOL    HW2   58   1.539   1.356   1.302
  184SOL     OW   59   1.493   1.767   0.959
  184SOL    HW1   60   1.526   1.831   0.890
  184SOL    HW2   61   1.559   1.761   1.034
  186SOL     OW   62   1.450   1.220   1.633
  186SOL    HW1   63   1.441   1.210   1.732
  186SOL    HW2   64   1.546   1.213   1.607
  192SOL     OW   65   1.730   0.934   1.517
  192SOL    HW1   66   1.768   1.025   1.532
  192SOL    HW2   67   1.722   0.917   1.418
  197SOL     OW   68   1.861   1.569   0.851
  197SOL    HW1   69   1.790   1.557   0.781
  197SOL    HW2   70   1.862   1.490   0.911
  203SOL     OW   71   1.705   1.487   1.104
  203SOL    HW1   72   1.612   1.462   1.077
  203SOL    HW2   73   1.731   1.437   1.186
  219SOL     OW   74   1.555   1.511   2.565
  219SOL    HW1   75   1.498   1.495   2.646
  219SOL    HW2   76   1.496   1.521   2.485
  227SOL     OW   77   1.460   1.505   3.201
  227SOL    HW1   78   1.484   1.599   3.227
  227SOL    HW2   79   1.444   1.451   3.283
  238SOL     OW   80   1.842   1.767   2.221
  238SOL    HW1   81   1.896   1.738   2.301
  238SOL    HW2   82   1.872   1.857   2.192
  240SOL     OW   83   1.689   0.922   2.474
  240SOL    HW1   84   1.784   0.893   2.482
  240SOL    HW2   85   1.681   0.987   2.399
  241SOL     OW   86   1.641   1.108   2.294
  241SOL    HW1   87   1.727   1.110   2.242
  241SOL    HW2   88   1.655   1.155   2.382
  244SOL     OW   89   1.293   1.228   3.285
  244SOL    HW1   90   1.330   1.155   3.227
  244SOL    HW2   91   1.345   1.233   3.370
  247SOL     OW   92   1.525   0.999   2.052
  247SOL    HW1   93   1.462   0.923   2.065
  247SOL    HW2   94   1.573   1.017   2.138
  248SOL     OW   95   1.187   1.792   3.478
  248SOL    HW1   96   1.211   1.852   3.402
  248SOL    HW2   97   1.194   1.697   3.448
  250SOL     OW   98   1.466   1.417   2.815
  250SOL    HW1   99   1.407   1.423   2.895
  250SOL    HW2  100   1.451   1.329   2.769
  251SOL     OW  101   1.667   1.714   2.434
  251SOL    HW1  102   1.626   1.691   2.346
  251SOL    HW2  103   1.649   1.640   2.499
  254SOL     OW  104   1.576   1.662   2.169
  254SOL    HW1  105   1.665   1.708   2.172
  254SOL    HW2  106   1.555   1.638   2.074
  264SOL     OW  107   1.362   1.144   2.407
  264SOL    HW1  108   1.445   1.115   2.359
  264SOL    HW2  109   1.313   1.211   2.351
  266SOL     OW  110   1.008   1.456   2.339
  266SOL    HW1  111   0.962   1.528   2.287
  266SOL    HW2  112   1.004   1.476   2.437
  268SOL     OW  113   1.795   1.066   2.735
  268SOL    HW1  114   1.733   1.051   2.659
  268SOL    HW2  115   1.743   1.077   2.820
  269SOL     OW  116   1.227   1.550   3.368
  269SOL    HW1  117   1.233   1.473   3.432
  269SOL    HW2  118   1.175   1.524   3.288
  273SOL     OW  119   1.111   1.776   2.099
  273SOL    HW1  120   1.051   1.714   2.149
  273SOL    HW2  121   1.142   1.732   2.014
  275SOL     OW  122   1.632   1.377   1.943
  275SOL    HW1  123   1.600   1.471   1.933
  275SOL    HW2  124   1.556   1.314   1.931
  279SOL     OW  125   0.940   1.698   2.766
  279SOL    HW1  126   1.020   1.641   2.787
  279SOL    HW2  127   0.891   1.658   2.689
  289SOL     OW  128   1.434   1.188   1.903
  289SOL    HW1  129   1.466   1.112   1.960
  289SOL    HW2  130   1.342   1.215   1.933
  293SOL     OW  131   1.227   1.570   2.655
  293SOL    HW1  132   1.248   1.644   2.590
  293SOL    HW2  133   1.295   1.570   2.728
  295SOL     OW  134   1.271   1.797   2.453
  295SOL    HW1  135   1.315   1.861   2.389
  295SOL    HW2  136   1.221   1.849   2.523
  301SOL     OW  137   1.429   1.173   2.729
  301SOL    HW1  138   1.374   1.089   2.722
  301SOL    HW2  139   1.455   1.202   2.637
  303SOL     OW  140   1.857   0.833   2.239
  303SOL    HW1  141   1.899   0.769   2.303
  303SOL    HW2  142   1.819   0.782   2.161
  305SOL     OW  143   1.664   1.280   2.519
  305SOL    HW1  144   1.763   1.288   2.533
  305SOL    HW2  145   1.619   1.364   2.550
  308SOL     OW  146   1.754   1.223   3.450
  308SOL    HW1  147   1.845   1.184   3.437
  308SOL    HW2  148   1.762   1.319   3.474
  310SOL     OW  149   1.592   1.629   3.487
  310SOL    HW1  150   1.619   1.663   3.397
  310SOL    HW2  151   1.671   1.591   3.533
  311SOL     OW  152   1.111   1.195   2.962
  311SOL    HW1  153   1.071   1.239   3.043
  311SOL    HW2  154   1.070   1.232   2.879
  312SOL     OW  155   1.638   1.099   2.941
  312SOL    HW1  156   1.643   1.180   3.000
  312SOL    HW2  157   1.552   1.101   2.890
  321SOL     OW  158   1.252   1.348   2.250
  321SOL    HW1  159   1.302   1.425   2.290
  321SOL    HW2  160   1.157   1.350   2.282
  322SOL     OW  161   1.272   1.445   3.004
  322SOL    HW1  162   1.319   1.458   3.091
  322SOL    HW2  163   1.206   1.371   3.013
  340SOL     OW  164   1.859   1.518   3.467
  340SOL    HW1  165   1.873   1.545   3.372
  340SOL    HW2  166   1.942   1.540   3.520
  344SOL     OW  167   1.068   1.333   2.711
  344SOL    HW1  168   1.075   1.249   2.656
  344SOL    HW2  169   1.130   1.402   2.675
  363SOL     OW  170   1.347   1.059   3.096
  363SOL    HW1  171   1.371   0.996   3.022
  363SOL    HW2  172   1.257   1.099   3.078
  364SOL     OW  173   1.302   0.855   2.171
  364SOL    HW1  174   1.216   0.824   2.213
  364SOL    HW2  175   1.298   0.841   2.072
  365SOL     OW  176   1.759   1.747   3.016
  365SOL    HW1  177   1.820   1.777   2.943
  365SOL    HW2  178   1.721   1.658   2.994
  366SOL     OW  179   1.252   1.731   2.990
  366SOL    HW1  180   1.336   1.736   2.936
  366SOL    HW2  181   1.229   1.635   3.008
  370SOL     OW  182   1.388   1.573   2.339
  370SOL    HW1  183   1.455   1.585   2.265
  370SOL    HW2  184   1.348   1.662   2.362
  372SOL     OW  185   1.280   0.927   2.534
  372SOL    HW1  186   1.340   0.846   2.536
  372SOL    HW2  187   1.320   0.996   2.474
  375SOL     OW  188   1.650   1.720   3.256
  375SOL    HW1  189   1.703   1.730   3.172
  375SOL    HW2  190   1.623   1.810   3.290
  378SOL     OW  191   1.194   1.612   1.893
  378SOL    HW1  192   1.200   1.519   1.930
  378SOL    HW2  193   1.135   1.612   1.813
  381SOL     OW  194   1.504   1.607   1.906
  381SOL    HW1  195   1.412   1.644   1.913
  381SOL    HW2  196   1.542   1.627   1.816
  383SOL     OW  197   1.614   1.292   3.151
  383SOL    HW1  198   1.674   1.295   3.231
  383SOL    HW2  199   1.539   1.356   3.164
  384SOL     OW  200   1.039   1.098   2.558
  384SOL    HW1  201   0.969   1.051   2.612
  384SOL    HW2  202   1.098   1.030   2.515
  394SOL     OW  203   1.183   1.335   1.981
  394SOL    HW1  204   1.084   1.324   1.983
  394SOL    HW2  205   1.217   1.350   2.074
  396SOL     OW  206   1.493   1.767   2.821
  396SOL    HW1  207   1.526   1.831   2.752
  396SOL    HW2  208   1.559   1.761   2.896
  400SOL     OW  209   1.674   0.883   3.116
  400SOL    HW1  210   1.647   0.794   3.079
  400SOL    HW2  211   1.675   0.951   3.043
  409SOL     OW  212   1.861   1.569   2.713
  409SOL    HW1  213   1.790   1.557   2.643
  409SOL    HW2  214   1.862   1.490   2.773
  415SOL     OW  215   1.705   1.487   2.966
  415SOL    HW1  216   1.612   1.462   2.939
  415SOL    HW2  217   1.731   1.437   3.048
  417SOL     OW  218   0.812   1.586   2.549
  417SOL    HW1  219   0.844   1.596   2.455
  417SOL    HW2  220   0.733   1.524   2.551
  426SOL     OW  221   0.875   1.646   2.199
  426SOL    HW1  222   0.798   1.611   2.145
  426SOL    HW2  223   0.843   1.717   2.261
  534SOL     OW  224   0.850   2.660   1.823
  534SOL    HW1  225   0.846   2.736   1.888
  534SOL    HW2  226   0.872   2.696   1.732
  538SOL     OW  227   1.460   3.367   1.339
  538SOL    HW1  228   1.484   3.461   1.365
  538SOL    HW2  229   1.444   3.313   1.421
  540SOL     OW  230   1.603   2.309   0.737
  540SOL    HW1  231   1.529   2.355   0.687
  540SOL    HW2  232   1.654   2.377   0.790
  542SOL     OW  233   1.127   3.203   1.690
  542SOL    HW1  234   1.174   3.203   1.778
  542SOL    HW2  235   1.079   3.116   1.679
  547SOL     OW  236   1.594   1.976   1.480
  547SOL    HW1  237   1.576   2.043   1.408
  547SOL    HW2  238   1.591   2.022   1.569
  555SOL     OW  239   1.293   3.090   1.423
  555SOL    HW1  240   1.330   3.017   1.365
  555SOL    HW2  241   1.345   3.095   1.508
  564SOL     OW  242   1.281   2.207   0.944
  564SOL    HW1  243   1.195   2.157   0.931
  564SOL    HW2  244   1.343   2.153   1.000
  566SOL     OW  245   0.807   2.467   1.465
  566SOL    HW1  246   0.760   2.464   1.554
  566SOL    HW2  247   0.756   2.412   1.399
  567SOL     OW  248   1.394   2.331   1.674
  567SOL    HW1  249   1.374   2.374   1.762
  567SOL    HW2  250   1.472   2.269   1.683
  568SOL     OW  251   0.973   2.752   1.572
  568SOL    HW1  252   1.019   2.668   1.543
  568SOL    HW2  253   0.917   2.786   1.497
  569SOL     OW  254   0.991   2.272   1.242
  569SOL    HW1  255   0.914   2.306   1.296
  569SOL    HW2  256   0.957   2.221   1.163
  574SOL     OW  257   1.719   2.447   1.831
  574SOL    HW1  258   1.693   2.536   1.795
  574SOL    HW2  259   1.717   2.379   1.758
  579SOL     OW  260   1.795   2.928   0.873
  579SOL    HW1  261   1.733   2.913   0.797
  579SOL    HW2  262   1.743   2.939   0.958
  580SOL     OW  263   1.227   3.412   1.506
  580SOL    HW1  264   1.233   3.335   1.570
  580SOL    HW2  265   1.175   3.386   1.426
  592SOL     OW  266   1.547   2.084   1.729
  592SOL    HW1  267   1.542   2.121   1.821
  592SOL    HW2  268   1.475   2.015   1.717
  593SOL     OW  269   0.781   2.126   1.749
  593SOL    HW1  270   0.848   2.065   1.792
  593SOL    HW2  271   0.708   2.145   1.814
  595SOL     OW  272   1.351   2.452   1.433
  595SOL    HW1  273   1.379   2.409   1.518
  595SOL    HW2  274   1.376   2.548   1.434
  602SOL     OW  275   1.076   2.545   1.464
  602SOL    HW1  276   0.996   2.484   1.467
  602SOL    HW2  277   1.157   2.492   1.440
  612SOL     OW  278   1.466   2.452   0.992
  612SOL    HW1  279   1.436   2.357   0.999
  612SOL    HW2  280   1.539   2.468   1.058
  618SOL     OW  281   1.754   3.085   1.588
  618SOL    HW1  282   1.845   3.046   1.575
  618SOL    HW2  283   1.762   3.181   1.612
  620SOL     OW  284   1.592   3.491   1.625
  620SOL    HW1  285   1.619   3.525   1.535
  620SOL    HW2  286   1.671   3.453   1.671
  622SOL     OW  287   1.638   2.961   1.079
  622SOL    HW1  288   1.643   3.042   1.138
  622SOL    HW2  289   1.552   2.963   1.028
  623SOL     OW  290   0.915   1.951   1.402
  623SOL    HW1  291   0.940   1.931   1.307
  623SOL    HW2  292   0.987   2.007   1.444
  624SOL     OW  293   0.980   2.978   1.719
  624SOL    HW1  294   0.881   2.984   1.729
  624SOL    HW2  295   1.003   2.898   1.663
  627SOL     OW  296   1.274   2.248   1.262
  627SOL    HW1  297   1.295   2.322   1.326
  627SOL    HW2  298   1.185   2.265   1.219
  636SOL     OW  299   1.587   2.641   1.670
  636SOL    HW1  300   1.495   2.679   1.665
  636SOL    HW2  301   1.647   2.688   1.605
  637SOL     OW  302   1.013   1.967   1.770
  637SOL    HW1  303   1.019   2.052   1.718
  637SOL    HW2  304   1.045   1.891   1.713
  640SOL     OW  305   1.360   2.724   1.045
  640SOL    HW1  306   1.285   2.724   0.979
  640SOL    HW2  307   1.397   2.632   1.054
  645SOL     OW  308   1.728   2.797   1.854
  645SOL    HW1  309   1.682   2.790   1.765
  645SOL    HW2  310   1.666   2.841   1.920
  650SOL     OW  311   1.859   3.380   1.605
  650SOL    HW1  312   1.873   3.407   1.510
  650SOL    HW2  313   1.942   3.402   1.658
  657SOL     OW  314   1.138   2.242   1.678
  657SOL    HW1  315   1.093   2.305   1.742
  657SOL    HW2  316   1.231   2.273   1.661
  658SOL     OW  317   1.160   2.069   1.477
  658SOL    HW1  318   1.160   2.133   1.554
  658SOL    HW2  319   1.188   2.117   1.394
  662SOL     OW  320   1.002   2.658   1.238
  662SOL    HW1  321   1.043   2.626   1.324
  662SOL    HW2  322   0.906   2.631   1.235
  665SOL     OW  323   1.369   2.812   1.660
  665SOL    HW1  324   1.408   2.901   1.680
  665SOL    HW2  325   1.379   2.792   1.563
  667SOL     OW  326   1.657   2.466   1.206
  667SOL    HW1  327   1.619   2.397   1.268
  667SOL    HW2  328   1.739   2.430   1.162
  673SOL     OW  329   1.347   2.921   1.234
  673SOL    HW1  330   1.371   2.858   1.160
  673SOL    HW2  331   1.257   2.961   1.216
  686SOL     OW  332   1.650   3.582   1.394
  686SOL    HW1  333   1.703   3.592   1.310
  686SOL    HW2  334   1.623   3.672   1.428
  687SOL     OW  335   1.841   2.037   0.963
  687SOL    HW1  336   1.880   1.952   0.927
  687SOL    HW2  337   1.743   2.039   0.944
  694SOL     OW  338   1.614   3.154   1.289
  694SOL    HW1  339   1.674   3.157   1.369
  694SOL    HW2  340   1.539   3.218   1.302
  698SOL     OW  341   1.709   2.247   1.381
  698SOL    HW1  342   1.782   2.316   1.385
  698SOL    HW2  343   1.737   2.172   1.322
  703SOL     OW  344   1.440   2.718   1.398
  703SOL    HW1  345   1.383   2.770   1.335
  703SOL    HW2  346   1.536   2.730   1.374
  708SOL     OW  347   0.716   2.427   1.708
  708SOL    HW1  348   0.735   2.492   1.782
  708SOL    HW2  349   0.776   2.347   1.717
  709SOL     OW  350   1.450   3.082   1.633
  709SOL    HW1  351   1.441   3.072   1.732
  709SOL    HW2  352   1.546   3.075   1.607
  711SOL     OW  353   1.674   2.745   1.254
  711SOL    HW1  354   1.647   2.656   1.217
  711SOL    HW2  355   1.675   2.813   1.181
  714SOL     OW  356   1.777   2.204   1.642
  714SOL    HW1  357   1.760   2.235   1.548
  714SOL    HW2  358   1.693   2.167   1.680
  715SOL     OW  359   1.730   2.796   1.517
  715SOL    HW1  360   1.768   2.887   1.532
  715SOL    HW2  361   1.722   2.779   1.418
  724SOL     OW  362   1.824   2.054   1.227
  724SOL    HW1  363   1.820   1.964   1.271
  724SOL    HW2  364   1.827   2.043   1.128
  726SOL     OW  365   1.705   3.349   1.104
  726SOL    HW1  366   1.612   3.324   1.077
  726SOL    HW2  367   1.731   3.299   1.186
  729SOL     OW  368   1.424   2.076   1.112
  729SOL    HW1  369   1.476   2.011   1.167
  729SOL    HW2  370   1.375   2.139   1.173
  735SOL     OW  371   1.593   2.083   0.882
  735SOL    HW1  372   1.509   2.082   0.936
  735SOL    HW2  373   1.595   2.166   0.826
  742SOL     OW  374   1.555   3.373   2.565
  742SOL    HW1  375   1.498   3.357   2.646
  742SOL    HW2  376   1.496   3.383   2.485
  743SOL     OW  377   1.135   2.565   2.579
  743SOL    HW1  378   1.192   2.643   2.554
  743SOL    HW2  379   1.075   2.591   2.655
  744SOL     OW  380   1.755   2.469   2.093
  744SOL    HW1  381   1.743   2.456   1.994
  744SOL    HW2  382   1.725   2.388   2.142
  745SOL     OW  383   0.768   3.006   2.885
  745SOL    HW1  384   0.690   3.023   2.945
  745SOL    HW2  385   0.802   3.093   2.849
  747SOL     OW  386   0.685   2.874   2.527
  747SOL    HW1  387   0.754   2.858   2.597
  747SOL    HW2  388   0.612   2.931   2.565
  750SOL     OW  389   1.460   3.367   3.201
  750SOL    HW1  390   1.484   3.461   3.227
  750SOL    HW2  391   1.444   3.313   3.283
  752SOL     OW  392   1.603   2.309   2.599
  752SOL    HW1  393   1.529   2.355   2.549
  752SOL    HW2  394   1.654   2.377   2.652
  759SOL     OW  395   1.594   1.976   3.342
  759SOL    HW1  396   1.576   2.043   3.270
  759SOL    HW2  397   1.591   2.022   3.431
  761SOL     OW  398   1.842   3.629   2.221
  761SOL    HW1  399   1.896   3.600   2.301
  761SOL    HW2  400   1.872   3.719   2.192
  763SOL     OW  401   1.689   2.784   2.474
  763SOL    HW1  402   1.784   2.755   2.482
  763SOL    HW2  403   1.681   2.849   2.399
  764SOL     OW  404   1.641   2.970   2.294
  764SOL    HW1  405   1.727   2.972   2.242
  764SOL    HW2  406   1.655   3.017   2.382
  767SOL     OW  407   1.293   3.090   3.285
  767SOL    HW1  408   1.330   3.017   3.227
  767SOL    HW2  409   1.345   3.095   3.370
  768SOL     OW  410   0.809   1.866   2.364
  768SOL    HW1  411   0.849   1.957   2.355
  768SOL    HW2  412   0.709   1.874   2.370
  770SOL     OW  413   1.525   2.861   2.052
  770SOL    HW1  414   1.462   2.785   2.065
  770SOL    HW2  415   1.573   2.879   2.138
  773SOL     OW  416   1.466   3.279   2.815
  773SOL    HW1  417   1.407   3.285   2.895
  773SOL    HW2  418   1.451   3.191   2.769
  774SOL     OW  419   1.667   3.576   2.434
  774SOL    HW1  420   1.626   3.553   2.346
  774SOL    HW2  421   1.649   3.502   2.499
  775SOL     OW  422   0.598   2.591   2.132
  775SOL    HW1  423   0.622   2.660   2.064
  775SOL    HW2  424   0.520   2.624   2.186
  776SOL     OW  425   1.281   2.207   2.806
  776SOL    HW1  426   1.195   2.157   2.793
  776SOL    HW2  427   1.343   2.153   2.862
  777SOL     OW  428   1.576   3.524   2.169
  777SOL    HW1  429   1.665   3.570   2.172
  777SOL    HW2  430   1.555   3.500   2.074
  779SOL     OW  431   1.394   2.331   3.536
  779SOL    HW1  432   1.374   2.374   3.624
  779SOL    HW2  433   1.472   2.269   3.545
  780SOL     OW  434   0.973   2.752   3.434
  780SOL    HW1  435   1.019   2.668   3.405
  780SOL    HW2  436   0.917   2.786   3.359
  781SOL     OW  437   0.991   2.272   3.104
  781SOL    HW1  438   0.914   2.306   3.158
  781SOL    HW2  439   0.957   2.221   3.025
  782SOL     OW  440   1.041   2.563   2.291
  782SOL    HW1  441   1.067   2.559   2.387
  782SOL    HW2  442   0.956   2.512   2.277
  785SOL     OW  443   0.865   2.210   2.057
  785SOL    HW1  444   0.924   2.273   2.008
  785SOL    HW2  445   0.884   2.116   2.028
  786SOL     OW  446   1.719   2.447   3.693
  786SOL    HW1  447   1.693   2.536   3.657
  786SOL    HW2  448   1.717   2.379   3.620
  787SOL     OW  449   1.362   3.006   2.407
  787SOL    HW1  450   1.445   2.977   2.359
  787SOL    HW2  451   1.313   3.073   2.351
  789SOL     OW  452   1.008   3.318   2.339
  789SOL    HW1  453   0.962   3.390   2.287
  789SOL    HW2  454   1.004   3.338   2.437
  791SOL     OW  455   1.795   2.928   2.735
  791SOL    HW1  456   1.733   2.913   2.659
  791SOL    HW2  457   1.743   2.939   2.820
  794SOL     OW  458   1.458   2.597   2.590
  794SOL    HW1  459   1.453   2.532   2.665
  794SOL    HW2  460   1.538   2.656   2.603
  798SOL     OW  461   1.632   3.239   1.943
  798SOL    HW1  462   1.600   3.333   1.933
  798SOL    HW2  463   1.556   3.176   1.931
  800SOL     OW  464   1.400   1.969   2.288
  800SOL    HW1  465   1.376   1.932   2.198
  800SOL    HW2  466   1.499   1.985   2.292
  804SOL     OW  467   1.547   2.084   3.591
  804SOL    HW1  468   1.542   2.121   3.683
  804SOL    HW2  469   1.475   2.015   3.579
  805SOL     OW  470   0.614   1.984   1.979
  805SOL    HW1  471   0.712   1.962   1.986
  805SOL    HW2  472   0.583   1.967   1.886
  808SOL     OW  473   1.351   2.452   3.295
  808SOL    HW1  474   1.379   2.409   3.380
  808SOL    HW2  475   1.376   2.548   3.296
  810SOL     OW  476   0.922   2.365   2.761
  810SOL    HW1  477   0.897   2.356   2.665
  810SOL    HW2  478   0.970   2.283   2.792
  812SOL     OW  479   1.434   3.050   1.903
  812SOL    HW1  480   1.466   2.974   1.960
  812SOL    HW2  481   1.342   3.077   1.933
  814SOL     OW  482   0.935   2.098   2.342
  814SOL    HW1  483   0.887   2.139   2.264
  814SOL    HW2  484   1.034   2.096   2.323
  815SOL     OW  485   1.076   2.545   3.326
  815SOL    HW1  486   0.996   2.484   3.329
  815SOL    HW2  487   1.157   2.492   3.302
  816SOL     OW  488   1.227   3.432   2.655
  816SOL    HW1  489   1.248   3.506   2.590
  816SOL    HW2  490   1.295   3.432   2.728
  818SOL     OW  491   1.271   3.659   2.453
  818SOL    HW1  492   1.315   3.723   2.389
  818SOL    HW2  493   1.221   3.711   2.523
  819SOL     OW  494   1.032   2.411   1.878
  819SOL    HW1  495   0.991   2.493   1.839
  819SOL    HW2  496   1.096   2.437   1.951
  822SOL     OW  497   0.866   2.316   2.504
  822SOL    HW1  498   0.834   2.388   2.442
  822SOL    HW2  499   0.890   2.235   2.451
  823SOL     OW  500   1.017   1.901   2.615
  823SOL    HW1  501   0.945   1.906   2.546
  823SOL    HW2  502   0.993   1.832   2.684
  824SOL     OW  503   1.429   3.035   2.729
  824SOL    HW1  504   1.374   2.951   2.722
  824SOL    HW2  505   1.455   3.064   2.637
  825SOL     OW  506   1.466   2.452   2.854
  825SOL    HW1  507   1.436   2.357   2.861
  825SOL    HW2  508   1.539   2.468   2.920
  826SOL     OW  509   1.857   2.695   2.239
  826SOL    HW1  510   1.899   2.631   2.303
  826SOL    HW2  511   1.819   2.644   2.161
  828SOL     OW  512   1.664   3.142   2.519
  828SOL    HW1  513   1.763   3.150   2.533
  828SOL    HW2  514   1.619   3.226   2.550
  829SOL     OW  515   1.390   2.437   1.940
  829SOL    HW1  516   1.336   2.416   2.021
  829SOL    HW2  517   1.481   2.396   1.949
  831SOL     OW  518   1.754   3.085   3.450
  831SOL    HW1  519   1.845   3.046   3.437
  831SOL    HW2  520   1.762   3.181   3.474
  832SOL     OW  521   1.064   3.209   3.202
  832SOL    HW1  522   0.984   3.186   3.257
  832SOL    HW2  523   1.147   3.183   3.251
  834SOL     OW  524   1.111   3.057   2.962
  834SOL    HW1  525   1.071   3.101   3.043
  834SOL    HW2  526   1.070   3.094   2.879
  835SOL     OW  527   1.638   2.961   2.941
  835SOL    HW1  528   1.643   3.042   3.000
  835SOL    HW2  529   1.552   2.963   2.890
  836SOL     OW  530   0.915   1.951   3.264
  836SOL    HW1  531   0.940   1.931   3.169
  836SOL    HW2  532   0.987   2.007   3.306
  838SOL     OW  533   0.705   2.912   2.230
  838SOL    HW1  534   0.691   2.919   2.329
  838SOL    HW2  535   0.789   2.861   2.212
  840SOL     OW  536   1.274   2.248   3.124
  840SOL    HW1  537   1.295   2.322   3.188
  840SOL    HW2  538   1.185   2.265   3.081
  844SOL     OW  539   1.252   3.210   2.250
  844SOL    HW1  540   1.302   3.287   2.290
  844SOL    HW2  541   1.157   3.212   2.282
  845SOL     OW  542   1.272   3.307   3.004
  845SOL    HW1  543   1.319   3.320   3.091
  845SOL    HW2  544   1.206   3.233   3.013
  846SOL     OW  545   1.582   2.501   2.334
  846SOL    HW1  546   1.551   2.562   2.407
  846SOL    HW2  547   1.632   2.553   2.265
  849SOL     OW  548   1.587   2.641   3.532
  849SOL    HW1  549   1.495   2.679   3.527
  849SOL    HW2  550   1.647   2.688   3.467
  853SOL     OW  551   1.360   2.724   2.907
  853SOL    HW1  552   1.285   2.724   2.841
  853SOL    HW2  553   1.397   2.632   2.916
  854SOL     OW  554   1.209   2.387   2.137
  854SOL    HW1  555   1.222   2.303   2.191
  854SOL    HW2  556   1.180   2.461   2.197
  857SOL     OW  557   0.732   2.496   2.926
  857SOL    HW1  558   0.791   2.470   2.850
  857SOL    HW2  559   0.704   2.592   2.915
  858SOL     OW  560   1.728   2.797   3.716
  858SOL    HW1  561   1.682   2.790   3.627
  858SOL    HW2  562   1.666   2.841   3.782
  860SOL     OW  563   1.622   2.229   2.236
  860SOL    HW1  564   1.624   2.153   2.300
  860SOL    HW2  565   1.574   2.306   2.276
  861SOL     OW  566   1.023   2.628   2.828
  861SOL    HW1  567   1.038   2.649   2.924
  861SOL    HW2  568   0.993   2.533   2.819
  863SOL     OW  569   1.859   3.380   3.467
  863SOL    HW1  570   1.873   3.407   3.372
  863SOL    HW2  571   1.942   3.402   3.520
  865SOL     OW  572   1.540   2.136   1.987
  865SOL    HW1  573   1.479   2.061   2.010
  865SOL    HW2  574   1.562   2.188   2.070
  866SOL     OW  575   1.303   2.700   1.904
  866SOL    HW1  576   1.337   2.607   1.919
  866SOL    HW2  577   1.321   2.727   1.809
  867SOL     OW  578   1.068   3.195   2.711
  867SOL    HW1  579   1.075   3.111   2.656
  867SOL    HW2  580   1.130   3.264   2.675
  870SOL     OW  581   1.138   2.242   3.540
  870SOL    HW1  582   1.093   2.305   3.604
  870SOL    HW2  583   1.231   2.273   3.523
  871SOL     OW  584   1.160   2.069   3.339
  871SOL    HW1  585   1.160   2.133   3.416
  871SOL    HW2  586   1.188   2.117   3.256
  875SOL     OW  587   1.002   2.658   3.100
  875SOL    HW1  588   1.043   2.626   3.186
  875SOL    HW2  589   0.906   2.631   3.097
  878SOL     OW  590   1.369   2.812   3.522
  878SOL    HW1  591   1.408   2.901   3.542
  878SOL    HW2  592   1.379   2.792   3.425
  879SOL     OW  593   0.815   2.434   2.187
  879SOL    HW1  594   0.822   2.345   2.141
  879SOL    HW2  595   0.721   2.468   2.179
  880SOL     OW  596   1.657   2.466   3.068
  880SOL    HW1  597   1.619   2.397   3.130
  880SOL    HW2  598   1.739   2.430   3.024
  886SOL     OW  599   1.347   2.921   3.096
  886SOL    HW1  600   1.371   2.858   3.022
  886SOL    HW2  601   1.257   2.961   3.078
  887SOL     OW  602   1.302   2.717   2.171
  887SOL    HW1  603   1.216   2.686   2.213
  887SOL    HW2  604   1.298   2.703   2.072
  888SOL     OW  605   1.759   3.609   3.016
  888SOL    HW1  606   1.820   3.639   2.943
  888SOL    HW2  607   1.721   3.520   2.994
  889SOL     OW  608   1.252   3.593   2.990
  889SOL    HW1  609   1.336   3.598   2.936
  889SOL    HW2  610   1.229   3.497   3.008
  892SOL     OW  611   1.726   1.997   2.385
  892SOL    HW1  612   1.799   1.980   2.318
  892SOL    HW2  613   1.695   1.910   2.423
  893SOL     OW  614   1.388   3.435   2.339
  893SOL    HW1  615   1.455   3.447   2.265
  893SOL    HW2  616   1.348   3.524   2.362
  895SOL     OW  617   1.280   2.789   2.534
  895SOL    HW1  618   1.340   2.708   2.536
  895SOL    HW2  619   1.320   2.858   2.474
  898SOL     OW  620   1.650   3.582   3.256
  898SOL    HW1  621   1.703   3.592   3.172
  898SOL    HW2  622   1.623   3.672   3.290
  899SOL     OW  623   1.841   2.037   2.825
  899SOL    HW1  624   1.880   1.952   2.789
  899SOL    HW2  625   1.743   2.039   2.806
  901SOL     OW  626   1.194   3.474   1.893
  901SOL    HW1  627   1.200   3.381   1.930
  901SOL    HW2  628   1.135   3.474   1.813
  903SOL     OW  629   0.916   2.772   2.153
  903SOL    HW1  630   0.979   2.810   2.085
  903SOL    HW2  631   0.956   2.689   2.192
  904SOL     OW  632   1.504   3.469   1.906
  904SOL    HW1  633   1.412   3.506   1.913
  904SOL    HW2  634   1.542   3.489   1.816
  906SOL     OW  635   1.614   3.154   3.151
  906SOL    HW1  636   1.674   3.157   3.231
  906SOL    HW2  637   1.539   3.218   3.164
  907SOL     OW  638   1.039   2.960   2.558
  907SOL    HW1  639   0.969   2.913   2.612
  907SOL    HW2  640   1.098   2.892   2.515
  908SOL     OW  641   1.014   2.098   2.833
  908SOL    HW1  642   1.006   2.062   2.740
  908SOL    HW2  643   1.012   2.022   2.898
  910SOL     OW  644   1.709   2.247   3.243
  910SOL    HW1  645   1.782   2.316   3.247
  910SOL    HW2  646   1.737   2.172   3.184
  915SOL     OW  647   1.440   2.718   3.260
  915SOL    HW1  648   1.383   2.770   3.197
  915SOL    HW2  649   1.536   2.730   3.236
  917SOL     OW  650   1.183   3.197   1.981
  917SOL    HW1  651   1.084   3.186   1.983
  917SOL    HW2  652   1.217   3.212   2.074
  919SOL     OW  653   1.493   3.629   2.821
  919SOL    HW1  654   1.526   3.693   2.752
  919SOL    HW2  655   1.559   3.623   2.896
  921SOL     OW  656   1.450   3.082   3.495
  921SOL    HW1  657   1.441   3.072   3.594
  921SOL    HW2  658   1.546   3.075   3.469
  923SOL     OW  659   1.674   2.745   3.116
  923SOL    HW1  660   1.647   2.656   3.079
  923SOL    HW2  661   1.675   2.813   3.043
  924SOL     OW  662   1.225   2.187   2.311
  924SOL    HW1  663   1.290   2.113   2.300
  924SOL    HW2  664   1.245   2.237   2.395
  925SOL     OW  665   0.594   2.607   2.514
  925SOL    HW1  666   0.644   2.692   2.495
  925SOL    HW2  667   0.506   2.609   2.466
  926SOL     OW  668   1.777   2.204   3.504
  926SOL    HW1  669   1.760   2.235   3.410
  926SOL    HW2  670   1.693   2.167   3.542
  927SOL     OW  671   1.730   2.796   3.379
  927SOL    HW1  672   1.768   2.887   3.394
  927SOL    HW2  673   1.722   2.779   3.280
  928SOL     OW  674   0.859   3.236   1.878
  928SOL    HW1  675   0.813   3.251   1.966
  928SOL    HW2  676   0.903   3.321   1.848
  930SOL     OW  677   0.859   2.818   2.723
  930SOL    HW1  678   0.913   2.749   2.771
  930SOL    HW2  679   0.827   2.887   2.789
  931SOL     OW  680   1.083   2.846   1.949
  931SOL    HW1  681   1.060   2.899   1.867
  931SOL    HW2  682   1.164   2.790   1.930
  932SOL     OW  683   1.861   3.431   2.713
  932SOL    HW1  684   1.790   3.419   2.643
  932SOL    HW2  685   1.862   3.352   2.773
  936SOL     OW  686   1.824   2.054   3.089
  936SOL    HW1  687   1.820   1.964   3.133
  936SOL    HW2  688   1.827   2.043   2.990
  938SOL     OW  689   1.705   3.349   2.966
  938SOL    HW1  690   1.612   3.324   2.939
  938SOL    HW2  691   1.731   3.299   3.048
  941SOL     OW  692   1.424   2.076   2.974
  941SOL    HW1  693   1.476   2.011   3.029
  941SOL    HW2  694   1.375   2.139   3.035
  942SOL     OW  695   1.001   1.896   3.016
  942SOL    HW1  696   0.938   1.824   2.985
  942SOL    HW2  697   1.094   1.860   3.016
  943SOL     OW  698   0.770   3.192   2.163
  943SOL    HW1  699   0.724   3.105   2.180
  943SOL    HW2  700   0.861   3.189   2.204
  945SOL     OW  701   1.352   1.914   2.030
  945SOL    HW1  702   1.387   1.873   1.946
  945SOL    HW2  703   1.262   1.876   2.050
  946SOL     OW  704   1.300   2.315   2.553
  946SOL    HW1  705   1.241   2.395   2.557
  946SOL    HW2  706   1.315   2.280   2.646
  947SOL     OW  707   1.593   2.083   2.744
  947SOL    HW1  708   1.509   2.082   2.798
  947SOL    HW2  709   1.595   2.166   2.688
  954SOL     OW  710   1.755   2.469   3.955
  954SOL    HW1  711   1.743   2.456   3.856
  954SOL    HW2  712   1.725   2.388   4.004
 1002SOL     OW  713   1.390   2.437   3.802
 1002SOL    HW1  714   1.336   2.416   3.883
 1002SOL    HW2  715   1.481   2.396   3.811
 1012SOL     OW  716   1.540   2.136   3.849
 1012SOL    HW1  717   1.479   2.061   3.872
 1012SOL    HW2  718   1.562   2.188   3.932
 1178SOL     OW  719   1.400   3.831   2.288
 1178SOL    HW1  720   1.376   3.794   2.198
 1178SOL    HW2  721   1.499   3.847   2.292
 1228SOL     OW  722   1.726   3.859   2.385
 1228SOL    HW1  723   1.799   3.842   2.318
 1228SOL    HW2  724   1.695   3.772   2.423
 1230SOL     OW  725   1.841   3.899   2.825
 1230SOL    HW1  726   1.880   3.814   2.789
 1230SOL    HW2  727   1.743   3.901   2.806
 1252SOL     OW  728   1.352   3.776   2.030
 1252SOL    HW1  729   1.387   3.735   1.946
 1252SOL    HW2  730   1.262   3.738   2.050
 1309SOL     OW  731   2.431   1.275   1.165
 1309SOL    HW1  732   2.338   1.268   1.128
 1309SOL    HW2  733   2.442   1.364   1.209
 1313SOL     OW  734   2.630   1.144   1.023
 1313SOL    HW1  735   2.552   1.161   1.083
 1313SOL    HW2  736   2.664   1.231   0.987
 1314SOL     OW  737   2.712   0.798   1.823
 1314SOL    HW1  738   2.708   0.874   1.888
 1314SOL    HW2  739   2.734   0.834   1.732
 1316SOL     OW  740   2.548   1.161   1.803
 1316SOL    HW1  741   2.608   1.240   1.817
 1316SOL    HW2  742   2.462   1.192   1.762
 1317SOL     OW  743   2.197   1.435   1.061
 1317SOL    HW1  744   2.119   1.404   1.008
 1317SOL    HW2  745   2.255   1.493   1.004
 1318SOL     OW  746   3.322   1.505   1.339
 1318SOL    HW1  747   3.346   1.599   1.365
 1318SOL    HW2  748   3.306   1.451   1.421
 1322SOL     OW  749   2.989   1.341   1.690
 1322SOL    HW1  750   3.036   1.341   1.778
 1322SOL    HW2  751   2.941   1.254   1.679
 1325SOL     OW  752   2.482   1.786   1.439
 1325SOL    HW1  753   2.390   1.769   1.474
 1325SOL    HW2  754   2.510   1.878   1.465
 1333SOL     OW  755   1.975   0.737   1.597
 1333SOL    HW1  756   2.063   0.724   1.642
 1333SOL    HW2  757   1.962   0.834   1.575
 1335SOL     OW  758   3.155   1.228   1.423
 1335SOL    HW1  759   3.192   1.155   1.365
 1335SOL    HW2  760   3.207   1.233   1.508
 1337SOL     OW  761   2.059   0.976   1.264
 1337SOL    HW1  762   2.148   0.931   1.250
 1337SOL    HW2  763   1.986   0.911   1.245
 1339SOL     OW  764   3.049   1.792   1.616
 1339SOL    HW1  765   3.073   1.852   1.540
 1339SOL    HW2  766   3.056   1.697   1.586
 1348SOL     OW  767   2.835   0.890   1.572
 1348SOL    HW1  768   2.881   0.806   1.543
 1348SOL    HW2  769   2.779   0.924   1.497
 1352SOL     OW  770   1.992   1.821   1.571
 1352SOL    HW1  771   1.982   1.806   1.670
 1352SOL    HW2  772   1.906   1.857   1.535
 1358SOL     OW  773   2.213   1.801   0.853
 1358SOL    HW1  774   2.263   1.715   0.859
 1358SOL    HW2  775   2.278   1.878   0.850
 1360SOL     OW  776   3.089   1.550   1.506
 1360SOL    HW1  777   3.095   1.473   1.570
 1360SOL    HW2  778   3.037   1.524   1.426
 1363SOL     OW  779   2.323   1.266   1.727
 1363SOL    HW1  780   2.273   1.267   1.641
 1363SOL    HW2  781   2.260   1.248   1.803
 1369SOL     OW  782   2.111   1.785   1.241
 1369SOL    HW1  783   2.168   1.720   1.291
 1369SOL    HW2  784   2.095   1.752   1.148
 1370SOL     OW  785   2.802   1.698   0.904
 1370SOL    HW1  786   2.882   1.641   0.925
 1370SOL    HW2  787   2.753   1.658   0.827
 1375SOL     OW  788   2.750   1.514   1.195
 1375SOL    HW1  789   2.727   1.489   1.101
 1375SOL    HW2  790   2.811   1.445   1.234
 1377SOL     OW  791   2.665   1.402   0.924
 1377SOL    HW1  792   2.755   1.416   0.882
 1377SOL    HW2  793   2.594   1.404   0.853
 1400SOL     OW  794   2.926   1.347   1.340
 1400SOL    HW1  795   2.846   1.324   1.395
 1400SOL    HW2  796   3.009   1.321   1.389
 1401SOL     OW  797   3.454   1.629   1.625
 1401SOL    HW1  798   3.481   1.663   1.535
 1401SOL    HW2  799   3.533   1.591   1.671
 1402SOL     OW  800   2.973   1.195   1.100
 1402SOL    HW1  801   2.933   1.239   1.181
 1402SOL    HW2  802   2.932   1.232   1.017
 1405SOL     OW  803   2.842   1.116   1.719
 1405SOL    HW1  804   2.743   1.122   1.729
 1405SOL    HW2  805   2.865   1.036   1.663
 1409SOL     OW  806   1.926   1.564   1.331
 1409SOL    HW1  807   1.880   1.646   1.297
 1409SOL    HW2  808   2.024   1.583   1.340
 1413SOL     OW  809   3.134   1.445   1.142
 1413SOL    HW1  810   3.181   1.458   1.229
 1413SOL    HW2  811   3.068   1.371   1.151
 1415SOL     OW  812   2.216   1.510   1.329
 1415SOL    HW1  813   2.195   1.466   1.242
 1415SOL    HW2  814   2.313   1.536   1.332
 1416SOL     OW  815   2.264   0.751   1.598
 1416SOL    HW1  816   2.332   0.806   1.551
 1416SOL    HW2  817   2.304   0.663   1.625
 1424SOL     OW  818   1.899   1.310   1.282
 1424SOL    HW1  819   1.952   1.261   1.350
 1424SOL    HW2  820   1.921   1.408   1.287
 1430SOL     OW  821   2.842   1.573   1.700
 1430SOL    HW1  822   2.822   1.617   1.612
 1430SOL    HW2  823   2.881   1.482   1.684
 1431SOL     OW  824   3.721   1.518   1.605
 1431SOL    HW1  825   3.735   1.545   1.510
 1431SOL    HW2  826   3.804   1.540   1.658
 1432SOL     OW  827   2.212   0.898   1.804
 1432SOL    HW1  828   2.288   0.942   1.852
 1432SOL    HW2  829   2.247   0.851   1.722
 1441SOL     OW  830   1.950   1.801   0.927
 1441SOL    HW1  831   1.908   1.715   0.900
 1441SOL    HW2  832   2.044   1.804   0.893
 1442SOL     OW  833   2.366   1.568   0.910
 1442SOL    HW1  834   2.432   1.642   0.919
 1442SOL    HW2  835   2.410   1.489   0.868
 1446SOL     OW  836   3.231   0.950   1.660
 1446SOL    HW1  837   3.270   1.039   1.680
 1446SOL    HW2  838   3.241   0.930   1.563
 1449SOL     OW  839   2.114   1.564   1.744
 1449SOL    HW1  840   2.084   1.621   1.820
 1449SOL    HW2  841   2.107   1.467   1.770
 1451SOL     OW  842   2.792   1.678   1.465
 1451SOL    HW1  843   2.768   1.660   1.370
 1451SOL    HW2  844   2.822   1.772   1.475
 1453SOL     OW  845   2.021   1.137   1.466
 1453SOL    HW1  846   2.043   1.076   1.542
 1453SOL    HW2  847   2.031   1.088   1.380
 1457SOL     OW  848   3.114   1.731   1.128
 1457SOL    HW1  849   3.198   1.736   1.074
 1457SOL    HW2  850   3.091   1.635   1.146
 1458SOL     OW  851   1.945   1.258   1.022
 1458SOL    HW1  852   1.940   1.257   1.122
 1458SOL    HW2  853   1.862   1.217   0.984
 1459SOL     OW  854   2.550   1.662   1.716
 1459SOL    HW1  855   2.494   1.743   1.725
 1459SOL    HW2  856   2.602   1.666   1.630
 1463SOL     OW  857   1.992   1.794   1.851
 1463SOL    HW1  858   1.951   1.720   1.904
 1463SOL    HW2  859   2.056   1.845   1.909
 1465SOL     OW  860   2.692   1.273   1.422
 1465SOL    HW1  861   2.687   1.306   1.517
 1465SOL    HW2  862   2.606   1.292   1.376
 1467SOL     OW  863   3.512   1.720   1.394
 1467SOL    HW1  864   3.565   1.730   1.310
 1467SOL    HW2  865   3.485   1.810   1.428
 1471SOL     OW  866   2.684   1.002   1.372
 1471SOL    HW1  867   2.724   1.001   1.280
 1471SOL    HW2  868   2.694   1.094   1.412
 1474SOL     OW  869   2.234   1.288   1.490
 1474SOL    HW1  870   2.221   1.381   1.456
 1474SOL    HW2  871   2.150   1.236   1.477
 1481SOL     OW  872   1.967   1.013   1.726
 1481SOL    HW1  873   1.890   0.980   1.780
 1481SOL    HW2  874   2.052   0.983   1.768
 1486SOL     OW  875   2.475   0.842   1.431
 1486SOL    HW1  876   2.531   0.923   1.414
 1486SOL    HW2  877   2.534   0.762   1.434
 1489SOL     OW  878   3.312   1.220   1.633
 1489SOL    HW1  879   3.303   1.210   1.732
 1489SOL    HW2  880   3.408   1.213   1.607
 1490SOL     OW  881   2.252   1.741   1.560
 1490SOL    HW1  882   2.161   1.782   1.558
 1490SOL    HW2  883   2.245   1.647   1.592
 1497SOL     OW  884   2.523   1.790   0.953
 1497SOL    HW1  885   2.477   1.878   0.940
 1497SOL    HW2  886   2.622   1.802   0.946
 1501SOL     OW  887   2.083   1.314   1.844
 1501SOL    HW1  888   2.018   1.241   1.823
 1501SOL    HW2  889   2.087   1.328   1.942
 1503SOL     OW  890   2.534   1.391   1.624
 1503SOL    HW1  891   2.456   1.341   1.662
 1503SOL    HW2  892   2.531   1.486   1.655
 1512SOL     OW  893   2.480   1.567   1.284
 1512SOL    HW1  894   2.475   1.649   1.341
 1512SOL    HW2  895   2.569   1.564   1.239
 1518SOL     OW  896   2.092   0.628   1.975
 1518SOL    HW1  897   1.999   0.626   2.012
 1518SOL    HW2  898   2.093   0.589   1.883
 1521SOL     OW  899   2.431   1.275   3.027
 1521SOL    HW1  900   2.338   1.268   2.990
 1521SOL    HW2  901   2.442   1.364   3.071
 1522SOL     OW  902   3.417   1.511   2.565
 1522SOL    HW1  903   3.360   1.495   2.646
 1522SOL    HW2  904   3.358   1.521   2.485
 1523SOL     OW  905   2.997   0.703   2.579
 1523SOL    HW1  906   3.054   0.781   2.554
 1523SOL    HW2  907   2.937   0.729   2.655
 1525SOL     OW  908   2.630   1.144   2.885
 1525SOL    HW1  909   2.552   1.161   2.945
 1525SOL    HW2  910   2.664   1.231   2.849
 1527SOL     OW  911   2.547   1.012   2.527
 1527SOL    HW1  912   2.616   0.996   2.597
 1527SOL    HW2  913   2.474   1.069   2.565
 1528SOL     OW  914   2.548   1.161   3.665
 1528SOL    HW1  915   2.608   1.240   3.679
 1528SOL    HW2  916   2.462   1.192   3.624
 1529SOL     OW  917   2.197   1.435   2.923
 1529SOL    HW1  918   2.119   1.404   2.870
 1529SOL    HW2  919   2.255   1.493   2.866
 1530SOL     OW  920   3.322   1.505   3.201
 1530SOL    HW1  921   3.346   1.599   3.227
 1530SOL    HW2  922   3.306   1.451   3.283
 1533SOL     OW  923   2.093   1.713   2.345
 1533SOL    HW1  924   2.127   1.790   2.399
 1533SOL    HW2  925   2.137   1.713   2.255
 1534SOL     OW  926   2.989   1.341   3.552
 1534SOL    HW1  927   3.036   1.341   3.640
 1534SOL    HW2  928   2.941   1.254   3.541
 1535SOL     OW  929   2.092   1.434   2.400
 1535SOL    HW1  930   2.066   1.530   2.400
 1535SOL    HW2  931   2.021   1.380   2.445
 1536SOL     OW  932   2.102   1.091   2.748
 1536SOL    HW1  933   2.116   1.007   2.800
 1536SOL    HW2  934   2.047   1.155   2.803
 1537SOL     OW  935   2.482   1.786   3.301
 1537SOL    HW1  936   2.390   1.769   3.336
 1537SOL    HW2  937   2.510   1.878   3.327
 1538SOL     OW  938   2.468   0.964   1.985
 1538SOL    HW1  939   2.475   1.048   1.931
 1538SOL    HW2  940   2.514   0.977   2.073
 1540SOL     OW  941   1.984   0.643   2.425
 1540SOL    HW1  942   1.939   0.555   2.442
 1540SOL    HW2  943   1.983   0.697   2.509
 1541SOL     OW  944   3.704   1.767   2.221
 1541SOL    HW1  945   3.758   1.738   2.301
 1541SOL    HW2  946   3.734   1.857   2.192
 1542SOL     OW  947   1.889   1.596   1.979
 1542SOL    HW1  948   1.870   1.500   2.000
 1542SOL    HW2  949   1.856   1.654   2.054
 1544SOL     OW  950   3.503   1.108   2.294
 1544SOL    HW1  951   3.589   1.110   2.242
 1544SOL    HW2  952   3.517   1.155   2.382
 1546SOL     OW  953   2.475   1.365   2.588
 1546SOL    HW1  954   2.426   1.278   2.597
 1546SOL    HW2  955   2.452   1.408   2.501
 1547SOL     OW  956   3.155   1.228   3.285
 1547SOL    HW1  957   3.192   1.155   3.227
 1547SOL    HW2  958   3.207   1.233   3.370
 1549SOL     OW  959   2.059   0.976   3.126
 1549SOL    HW1  960   2.148   0.931   3.112
 1549SOL    HW2  961   1.986   0.911   3.107
 1550SOL     OW  962   3.387   0.999   2.052
 1550SOL    HW1  963   3.324   0.923   2.065
 1550SOL    HW2  964   3.435   1.017   2.138
 1551SOL     OW  965   3.049   1.792   3.478
 1551SOL    HW1  966   3.073   1.852   3.402
 1551SOL    HW2  967   3.056   1.697   3.448
 1553SOL     OW  968   3.328   1.417   2.815
 1553SOL    HW1  969   3.269   1.423   2.895
 1553SOL    HW2  970   3.313   1.329   2.769
 1554SOL     OW  971   3.529   1.714   2.434
 1554SOL    HW1  972   3.488   1.691   2.346
 1554SOL    HW2  973   3.511   1.640   2.499
 1555SOL     OW  974   2.460   0.729   2.132
 1555SOL    HW1  975   2.484   0.798   2.064
 1555SOL    HW2  976   2.382   0.762   2.186
 1557SOL     OW  977   3.438   1.662   2.169
 1557SOL    HW1  978   3.527   1.708   2.172
 1557SOL    HW2  979   3.417   1.638   2.074
 1562SOL     OW  980   2.903   0.701   2.291
 1562SOL    HW1  981   2.929   0.697   2.387
 1562SOL    HW2  982   2.818   0.650   2.277
 1563SOL     OW  983   1.938   0.811   2.651
 1563SOL    HW1  984   2.037   0.799   2.660
 1563SOL    HW2  985   1.914   0.906   2.672
 1564SOL     OW  986   1.992   1.821   3.433
 1564SOL    HW1  987   1.982   1.806   3.532
 1564SOL    HW2  988   1.906   1.857   3.397
 1567SOL     OW  989   3.224   1.144   2.407
 1567SOL    HW1  990   3.307   1.115   2.359
 1567SOL    HW2  991   3.175   1.211   2.351
 1569SOL     OW  992   2.870   1.456   2.339
 1569SOL    HW1  993   2.824   1.528   2.287
 1569SOL    HW2  994   2.866   1.476   2.437
 1570SOL     OW  995   2.213   1.801   2.715
 1570SOL    HW1  996   2.263   1.715   2.721
 1570SOL    HW2  997   2.278   1.878   2.712
 1572SOL     OW  998   3.089   1.550   3.368
 1572SOL    HW1  999   3.095   1.473   3.432
 1572SOL    HW2 1000   3.037   1.524   3.288
 1573SOL     OW 1001   2.183   0.943   2.104
 1573SOL    HW1 1002   2.265   0.982   2.062
 1573SOL    HW2 1003   2.156   0.861   2.055
 1575SOL     OW 1004   2.323   1.266   3.589
 1575SOL    HW1 1005   2.273   1.267   3.503
 1575SOL    HW2 1006   2.260   1.248   3.665
 1576SOL     OW 1007   2.973   1.776   2.099
 1576SOL    HW1 1008   2.913   1.714   2.149
 1576SOL    HW2 1009   3.004   1.732   2.014
 1578SOL     OW 1010   3.494   1.377   1.943
 1578SOL    HW1 1011   3.462   1.471   1.933
 1578SOL    HW2 1012   3.418   1.314   1.931
 1579SOL     OW 1013   2.326   1.743   2.185
 1579SOL    HW1 1014   2.359   1.782   2.271
 1579SOL    HW2 1015   2.402   1.736   2.120
 1581SOL     OW 1016   2.111   1.785   3.103
 1581SOL    HW1 1017   2.168   1.720   3.153
 1581SOL    HW2 1018   2.095   1.752   3.010
 1582SOL     OW 1019   2.802   1.698   2.766
 1582SOL    HW1 1020   2.882   1.641   2.787
 1582SOL    HW2 1021   2.753   1.658   2.689
 1583SOL     OW 1022   2.244   0.700   2.342
 1583SOL    HW1 1023   2.289   0.610   2.339
 1583SOL    HW2 1024   2.150   0.689   2.375
 1587SOL     OW 1025   2.750   1.514   3.057
 1587SOL    HW1 1026   2.727   1.489   2.963
 1587SOL    HW2 1027   2.811   1.445   3.096
 1589SOL     OW 1028   2.665   1.402   2.786
 1589SOL    HW1 1029   2.755   1.416   2.744
 1589SOL    HW2 1030   2.594   1.404   2.715
 1592SOL     OW 1031   3.296   1.188   1.903
 1592SOL    HW1 1032   3.328   1.112   1.960
 1592SOL    HW2 1033   3.204   1.215   1.933
 1596SOL     OW 1034   3.089   1.570   2.655
 1596SOL    HW1 1035   3.110   1.644   2.590
 1596SOL    HW2 1036   3.157   1.570   2.728
 1597SOL     OW 1037   2.321   1.152   2.603
 1597SOL    HW1 1038   2.250   1.125   2.668
 1597SOL    HW2 1039   2.295   1.124   2.510
 1598SOL     OW 1040   3.133   1.797   2.453
 1598SOL    HW1 1041   3.177   1.861   2.389
 1598SOL    HW2 1042   3.083   1.849   2.523
 1604SOL     OW 1043   3.291   1.173   2.729
 1604SOL    HW1 1044   3.236   1.089   2.722
 1604SOL    HW2 1045   3.317   1.202   2.637
 1607SOL     OW 1046   2.350   1.385   2.036
 1607SOL    HW1 1047   2.263   1.370   2.083
 1607SOL    HW2 1048   2.333   1.411   1.941
 1608SOL     OW 1049   3.526   1.280   2.519
 1608SOL    HW1 1050   3.625   1.288   2.533
 1608SOL    HW2 1051   3.481   1.364   2.550
 1612SOL     OW 1052   2.926   1.347   3.202
 1612SOL    HW1 1053   2.846   1.324   3.257
 1612SOL    HW2 1054   3.009   1.321   3.251
 1613SOL     OW 1055   3.454   1.629   3.487
 1613SOL    HW1 1056   3.481   1.663   3.397
 1613SOL    HW2 1057   3.533   1.591   3.533
 1614SOL     OW 1058   2.973   1.195   2.962
 1614SOL    HW1 1059   2.933   1.239   3.043
 1614SOL    HW2 1060   2.932   1.232   2.879
 1618SOL     OW 1061   2.567   1.050   2.230
 1618SOL    HW1 1062   2.553   1.057   2.329
 1618SOL    HW2 1063   2.651   0.999   2.212
 1619SOL     OW 1064   2.272   0.813   3.113
 1619SOL    HW1 1065   2.358   0.825   3.163
 1619SOL    HW2 1066   2.230   0.726   3.140
 1621SOL     OW 1067   1.926   1.564   3.193
 1621SOL    HW1 1068   1.880   1.646   3.159
 1621SOL    HW2 1069   2.024   1.583   3.202
 1622SOL     OW 1070   2.229   1.100   2.363
 1622SOL    HW1 1071   2.222   1.183   2.307
 1622SOL    HW2 1072   2.233   1.020   2.303
 1624SOL     OW 1073   3.114   1.348   2.250
 1624SOL    HW1 1074   3.164   1.425   2.290
 1624SOL    HW2 1075   3.019   1.350   2.282
 1625SOL     OW 1076   3.134   1.445   3.004
 1625SOL    HW1 1077   3.181   1.458   3.091
 1625SOL    HW2 1078   3.068   1.371   3.013
 1627SOL     OW 1079   2.216   1.510   3.191
 1627SOL    HW1 1080   2.195   1.466   3.104
 1627SOL    HW2 1081   2.313   1.536   3.194
 1632SOL     OW 1082   2.435   0.870   2.891
 1632SOL    HW1 1083   2.479   0.959   2.882
 1632SOL    HW2 1084   2.372   0.870   2.968
 1636SOL     OW 1085   1.899   1.310   3.144
 1636SOL    HW1 1086   1.952   1.261   3.212
 1636SOL    HW2 1087   1.921   1.408   3.149
 1641SOL     OW 1088   2.885   0.766   2.828
 1641SOL    HW1 1089   2.900   0.787   2.924
 1641SOL    HW2 1090   2.855   0.671   2.819
 1642SOL     OW 1091   2.842   1.573   3.562
 1642SOL    HW1 1092   2.822   1.617   3.474
 1642SOL    HW2 1093   2.881   1.482   3.546
 1646SOL     OW 1094   3.165   0.838   1.904
 1646SOL    HW1 1095   3.199   0.745   1.919
 1646SOL    HW2 1096   3.183   0.865   1.809
 1647SOL     OW 1097   2.930   1.333   2.711
 1647SOL    HW1 1098   2.937   1.249   2.656
 1647SOL    HW2 1099   2.992   1.402   2.675
 1648SOL     OW 1100   2.181   0.810   2.811
 1648SOL    HW1 1101   2.274   0.846   2.816
 1648SOL    HW2 1102   2.175   0.725   2.863
 1652SOL     OW 1103   1.870   1.326   2.062
 1652SOL    HW1 1104   1.777   1.347   2.031
 1652SOL    HW2 1105   1.880   1.227   2.075
 1653SOL     OW 1106   1.950   1.801   2.789
 1653SOL    HW1 1107   1.908   1.715   2.762
 1653SOL    HW2 1108   2.044   1.804   2.755
 1654SOL     OW 1109   2.366   1.568   2.772
 1654SOL    HW1 1110   2.432   1.642   2.781
 1654SOL    HW2 1111   2.410   1.489   2.730
 1655SOL     OW 1112   2.864   0.796   3.100
 1655SOL    HW1 1113   2.905   0.764   3.186
 1655SOL    HW2 1114   2.768   0.769   3.097
 1659SOL     OW 1115   2.677   0.572   2.187
 1659SOL    HW1 1116   2.684   0.483   2.141
 1659SOL    HW2 1117   2.583   0.606   2.179
 1661SOL     OW 1118   2.114   1.564   3.606
 1661SOL    HW1 1119   2.084   1.621   3.682
 1661SOL    HW2 1120   2.107   1.467   3.632
 1663SOL     OW 1121   2.792   1.678   3.327
 1663SOL    HW1 1122   2.768   1.660   3.232
 1663SOL    HW2 1123   2.822   1.772   3.337
 1665SOL     OW 1124   2.021   1.137   3.328
 1665SOL    HW1 1125   2.043   1.076   3.404
 1665SOL    HW2 1126   2.031   1.088   3.242
 1666SOL     OW 1127   3.209   1.059   3.096
 1666SOL    HW1 1128   3.233   0.996   3.022
 1666SOL    HW2 1129   3.119   1.099   3.078
 1667SOL     OW 1130   3.164   0.855   2.171
 1667SOL    HW1 1131   3.078   0.824   2.213
 1667SOL    HW2 1132   3.160   0.841   2.072
 1668SOL     OW 1133   3.621   1.747   3.016
 1668SOL    HW1 1134   3.682   1.777   2.943
 1668SOL    HW2 1135   3.583   1.658   2.994
 1669SOL     OW 1136   3.114   1.731   2.990
 1669SOL    HW1 1137   3.198   1.736   2.936
 1669SOL    HW2 1138   3.091   1.635   3.008
 1670SOL     OW 1139   1.945   1.258   2.884
 1670SOL    HW1 1140   1.940   1.257   2.984
 1670SOL    HW2 1141   1.862   1.217   2.846
 1671SOL     OW 1142   2.550   1.662   3.578
 1671SOL    HW1 1143   2.494   1.743   3.587
 1671SOL    HW2 1144   2.602   1.666   3.492
 1673SOL     OW 1145   3.250   1.573   2.339
 1673SOL    HW1 1146   3.317   1.585   2.265
 1673SOL    HW2 1147   3.210   1.662   2.362
 1674SOL     OW 1148   1.992   1.794   3.713
 1674SOL    HW1 1149   1.951   1.720   3.766
 1674SOL    HW2 1150   2.056   1.845   3.771
 1675SOL     OW 1151   3.142   0.927   2.534
 1675SOL    HW1 1152   3.202   0.846   2.536
 1675SOL    HW2 1153   3.182   0.996   2.474
 1676SOL     OW 1154   2.692   1.273   3.284
 1676SOL    HW1 1155   2.687   1.306   3.379
 1676SOL    HW2 1156   2.606   1.292   3.238
 1677SOL     OW 1157   2.534   1.616   2.016
 1677SOL    HW1 1158   2.543   1.626   1.917
 1677SOL    HW2 1159   2.494   1.527   2.037
 1678SOL     OW 1160   3.512   1.720   3.256
 1678SOL    HW1 1161   3.565   1.730   3.172
 1678SOL    HW2 1162   3.485   1.810   3.290
 1681SOL     OW 1163   3.056   1.612   1.893
 1681SOL    HW1 1164   3.062   1.519   1.930
 1681SOL    HW2 1165   2.997   1.612   1.813
 1682SOL     OW 1166   2.684   1.002   3.234
 1682SOL    HW1 1167   2.724   1.001   3.142
 1682SOL    HW2 1168   2.694   1.094   3.274
 1683SOL     OW 1169   2.778   0.910   2.153
 1683SOL    HW1 1170   2.841   0.948   2.085
 1683SOL    HW2 1171   2.818   0.827   2.192
 1684SOL     OW 1172   3.366   1.607   1.906
 1684SOL    HW1 1173   3.274   1.644   1.913
 1684SOL    HW2 1174   3.404   1.627   1.816
 1685SOL     OW 1175   2.234   1.288   3.352
 1685SOL    HW1 1176   2.221   1.381   3.318
 1685SOL    HW2 1177   2.150   1.236   3.339
 1686SOL     OW 1178   3.476   1.292   3.151
 1686SOL    HW1 1179   3.536   1.295   3.231
 1686SOL    HW2 1180   3.401   1.356   3.164
 1687SOL     OW 1181   2.901   1.098   2.558
 1687SOL    HW1 1182   2.831   1.051   2.612
 1687SOL    HW2 1183   2.960   1.030   2.515
 1689SOL     OW 1184   2.452   1.487   2.353
 1689SOL    HW1 1185   2.494   1.429   2.283
 1689SOL    HW2 1186   2.408   1.566   2.309
 1691SOL     OW 1187   2.117   1.348   2.152
 1691SOL    HW1 1188   2.021   1.349   2.125
 1691SOL    HW2 1189   2.129   1.401   2.236
 1697SOL     OW 1190   3.045   1.335   1.981
 1697SOL    HW1 1191   2.946   1.324   1.983
 1697SOL    HW2 1192   3.079   1.350   2.074
 1698SOL     OW 1193   2.475   0.842   3.293
 1698SOL    HW1 1194   2.531   0.923   3.276
 1698SOL    HW2 1195   2.534   0.762   3.296
 1699SOL     OW 1196   3.355   1.767   2.821
 1699SOL    HW1 1197   3.388   1.831   2.752
 1699SOL    HW2 1198   3.421   1.761   2.896
 1702SOL     OW 1199   2.252   1.741   3.422
 1702SOL    HW1 1200   2.161   1.782   3.420
 1702SOL    HW2 1201   2.245   1.647   3.454
 1705SOL     OW 1202   2.456   0.745   2.514
 1705SOL    HW1 1203   2.506   0.830   2.495
 1705SOL    HW2 1204   2.368   0.747   2.466
 1708SOL     OW 1205   2.721   1.374   1.878
 1708SOL    HW1 1206   2.675   1.389   1.966
 1708SOL    HW2 1207   2.765   1.459   1.848
 1709SOL     OW 1208   2.523   1.790   2.815
 1709SOL    HW1 1209   2.477   1.878   2.802
 1709SOL    HW2 1210   2.622   1.802   2.808
 1710SOL     OW 1211   2.721   0.956   2.723
 1710SOL    HW1 1212   2.775   0.887   2.771
 1710SOL    HW2 1213   2.689   1.025   2.789
 1711SOL     OW 1214   2.945   0.984   1.949
 1711SOL    HW1 1215   2.922   1.037   1.867
 1711SOL    HW2 1216   3.026   0.928   1.930
 1712SOL     OW 1217   3.723   1.569   2.713
 1712SOL    HW1 1218   3.652   1.557   2.643
 1712SOL    HW2 1219   3.724   1.490   2.773
 1713SOL     OW 1220   2.083   1.314   3.706
 1713SOL    HW1 1221   2.018   1.241   3.685
 1713SOL    HW2 1222   2.087   1.328   3.804
 1714SOL     OW 1223   1.941   1.240   2.515
 1714SOL    HW1 1224   1.940   1.193   2.603
 1714SOL    HW2 1225   2.023   1.212   2.464
 1715SOL     OW 1226   2.534   1.391   3.486
 1715SOL    HW1 1227   2.456   1.341   3.524
 1715SOL    HW2 1228   2.531   1.486   3.517
 1718SOL     OW 1229   3.567   1.487   2.966
 1718SOL    HW1 1230   3.474   1.462   2.939
 1718SOL    HW2 1231   3.593   1.437   3.048
 1720SOL     OW 1232   2.674   1.586   2.549
 1720SOL    HW1 1233   2.706   1.596   2.455
 1720SOL    HW2 1234   2.595   1.524   2.551
 1723SOL     OW 1235   2.632   1.330   2.163
 1723SOL    HW1 1236   2.586   1.243   2.180
 1723SOL    HW2 1237   2.723   1.327   2.204
 1724SOL     OW 1238   2.480   1.567   3.146
 1724SOL    HW1 1239   2.475   1.649   3.203
 1724SOL    HW2 1240   2.569   1.564   3.101
 1728SOL     OW 1241   1.901   1.077   2.162
 1728SOL    HW1 1242   2.000   1.066   2.153
 1728SOL    HW2 1243   1.861   0.991   2.194
 1729SOL     OW 1244   2.737   1.646   2.199
 1729SOL    HW1 1245   2.660   1.611   2.145
 1729SOL    HW2 1246   2.705   1.717   2.261
 1745SOL     OW 1247   1.889   1.596   3.841
 1745SOL    HW1 1248   1.870   1.500   3.862
 1745SOL    HW2 1249   1.856   1.654   3.916
 1803SOL     OW 1250   2.534   1.616   3.878
 1803SOL    HW1 1251   2.543   1.626   3.779
 1803SOL    HW2 1252   2.494   1.527   3.899
 1806SOL     OW 1253   3.056   1.612   3.755
 1806SOL    HW1 1254   3.062   1.519   3.792
 1806SOL    HW2 1255   2.997   1.612   3.675
 1817SOL     OW 1256   2.721   1.374   3.740
 1817SOL    HW1 1257   2.675   1.389   3.828
 1817SOL    HW2 1258   2.765   1.459   3.710
 1831SOL     OW 1259   2.087   2.137   0.996
 1831SOL    HW1 1260   2.122   2.120   1.088
 1831SOL    HW2 1261   1.999   2.092   0.984
 1832SOL     OW 1262   1.881   2.230   0.647
 1832SOL    HW1 1263   1.799   2.273   0.686
 1832SOL    HW2 1264   1.853   2.157   0.584
 1833SOL     OW 1265   2.431   3.137   1.165
 1833SOL    HW1 1266   2.338   3.130   1.128
 1833SOL    HW2 1267   2.442   3.226   1.209
 1835SOL     OW 1268   2.997   2.565   0.717
 1835SOL    HW1 1269   3.054   2.643   0.692
 1835SOL    HW2 1270   2.937   2.591   0.793
 1837SOL     OW 1271   2.630   3.006   1.023
 1837SOL    HW1 1272   2.552   3.023   1.083
 1837SOL    HW2 1273   2.664   3.093   0.987
 1838SOL     OW 1274   2.712   2.660   1.823
 1838SOL    HW1 1275   2.708   2.736   1.888
 1838SOL    HW2 1276   2.734   2.696   1.732
 1839SOL     OW 1277   2.547   2.874   0.665
 1839SOL    HW1 1278   2.616   2.858   0.735
 1839SOL    HW2 1279   2.474   2.931   0.703
 1840SOL     OW 1280   2.548   3.023   1.803
 1840SOL    HW1 1281   2.608   3.102   1.817
 1840SOL    HW2 1282   2.462   3.054   1.762
 1841SOL     OW 1283   2.197   3.297   1.061
 1841SOL    HW1 1284   2.119   3.266   1.008
 1841SOL    HW2 1285   2.255   3.355   1.004
 1842SOL     OW 1286   3.322   3.367   1.339
 1842SOL    HW1 1287   3.346   3.461   1.365
 1842SOL    HW2 1288   3.306   3.313   1.421
 1843SOL     OW 1289   2.300   2.254   1.499
 1843SOL    HW1 1290   2.382   2.198   1.508
 1843SOL    HW2 1291   2.219   2.196   1.503
 1846SOL     OW 1292   2.989   3.203   1.690
 1846SOL    HW1 1293   3.036   3.203   1.778
 1846SOL    HW2 1294   2.941   3.116   1.679
 1848SOL     OW 1295   2.102   2.953   0.886
 1848SOL    HW1 1296   2.116   2.869   0.938
 1848SOL    HW2 1297   2.047   3.017   0.941
 1849SOL     OW 1298   2.482   3.648   1.439
 1849SOL    HW1 1299   2.390   3.631   1.474
 1849SOL    HW2 1300   2.510   3.740   1.465
 1851SOL     OW 1301   3.456   1.976   1.480
 1851SOL    HW1 1302   3.438   2.043   1.408
 1851SOL    HW2 1303   3.453   2.022   1.569
 1857SOL     OW 1304   1.975   2.599   1.597
 1857SOL    HW1 1305   2.063   2.586   1.642
 1857SOL    HW2 1306   1.962   2.696   1.575
 1859SOL     OW 1307   3.155   3.090   1.423
 1859SOL    HW1 1308   3.192   3.017   1.365
 1859SOL    HW2 1309   3.207   3.095   1.508
 1861SOL     OW 1310   2.059   2.838   1.264
 1861SOL    HW1 1311   2.148   2.793   1.250
 1861SOL    HW2 1312   1.986   2.773   1.245
 1863SOL     OW 1313   3.049   3.654   1.616
 1863SOL    HW1 1314   3.073   3.714   1.540
 1863SOL    HW2 1315   3.056   3.559   1.586
 1864SOL     OW 1316   2.179   2.113   1.801
 1864SOL    HW1 1317   2.250   2.184   1.807
 1864SOL    HW2 1318   2.091   2.152   1.829
 1868SOL     OW 1319   3.143   2.207   0.944
 1868SOL    HW1 1320   3.057   2.157   0.931
 1868SOL    HW2 1321   3.205   2.153   1.000
 1870SOL     OW 1322   2.669   2.467   1.465
 1870SOL    HW1 1323   2.622   2.464   1.554
 1870SOL    HW2 1324   2.618   2.412   1.399
 1871SOL     OW 1325   3.256   2.331   1.674
 1871SOL    HW1 1326   3.236   2.374   1.762
 1871SOL    HW2 1327   3.334   2.269   1.683
 1872SOL     OW 1328   2.835   2.752   1.572
 1872SOL    HW1 1329   2.881   2.668   1.543
 1872SOL    HW2 1330   2.779   2.786   1.497
 1873SOL     OW 1331   2.853   2.272   1.242
 1873SOL    HW1 1332   2.776   2.306   1.296
 1873SOL    HW2 1333   2.819   2.221   1.163
 1875SOL     OW 1334   1.938   2.673   0.789
 1875SOL    HW1 1335   2.037   2.661   0.798
 1875SOL    HW2 1336   1.914   2.768   0.810
 1876SOL     OW 1337   1.992   3.683   1.571
 1876SOL    HW1 1338   1.982   3.668   1.670
 1876SOL    HW2 1339   1.906   3.719   1.535
 1878SOL     OW 1340   3.581   2.447   1.831
 1878SOL    HW1 1341   3.555   2.536   1.795
 1878SOL    HW2 1342   3.579   2.379   1.758
 1880SOL     OW 1343   2.412   2.058   0.885
 1880SOL    HW1 1344   2.407   2.053   0.985
 1880SOL    HW2 1345   2.414   2.154   0.856
 1884SOL     OW 1346   3.089   3.412   1.506
 1884SOL    HW1 1347   3.095   3.335   1.570
 1884SOL    HW2 1348   3.037   3.386   1.426
 1887SOL     OW 1349   2.323   3.128   1.727
 1887SOL    HW1 1350   2.273   3.129   1.641
 1887SOL    HW2 1351   2.260   3.110   1.803
 1889SOL     OW 1352   2.064   2.147   1.498
 1889SOL    HW1 1353   1.984   2.207   1.485
 1889SOL    HW2 1354   2.054   2.098   1.584
 1893SOL     OW 1355   2.111   3.647   1.241
 1893SOL    HW1 1356   2.168   3.582   1.291
 1893SOL    HW2 1357   2.095   3.614   1.148
 1896SOL     OW 1358   3.409   2.084   1.729
 1896SOL    HW1 1359   3.404   2.121   1.821
 1896SOL    HW2 1360   3.337   2.015   1.717
 1897SOL     OW 1361   2.643   2.126   1.749
 1897SOL    HW1 1362   2.710   2.065   1.792
 1897SOL    HW2 1363   2.570   2.145   1.814
 1898SOL     OW 1364   2.750   3.376   1.195
 1898SOL    HW1 1365   2.727   3.351   1.101
 1898SOL    HW2 1366   2.811   3.307   1.234
 1899SOL     OW 1367   3.213   2.452   1.433
 1899SOL    HW1 1368   3.241   2.409   1.518
 1899SOL    HW2 1369   3.238   2.548   1.434
 1900SOL     OW 1370   2.665   3.264   0.924
 1900SOL    HW1 1371   2.755   3.278   0.882
 1900SOL    HW2 1372   2.594   3.266   0.853
 1901SOL     OW 1373   2.784   2.365   0.899
 1901SOL    HW1 1374   2.759   2.356   0.803
 1901SOL    HW2 1375   2.832   2.283   0.930
 1906SOL     OW 1376   2.938   2.545   1.464
 1906SOL    HW1 1377   2.858   2.484   1.467
 1906SOL    HW2 1378   3.019   2.492   1.440
 1908SOL     OW 1379   2.321   3.014   0.741
 1908SOL    HW1 1380   2.250   2.987   0.806
 1908SOL    HW2 1381   2.295   2.986   0.648
 1911SOL     OW 1382   1.940   2.418   1.386
 1911SOL    HW1 1383   2.032   2.417   1.345
 1911SOL    HW2 1384   1.934   2.492   1.453
 1912SOL     OW 1385   2.423   2.084   1.147
 1912SOL    HW1 1386   2.461   2.000   1.184
 1912SOL    HW2 1387   2.335   2.103   1.191
 1913SOL     OW 1388   2.728   2.316   0.642
 1913SOL    HW1 1389   2.696   2.388   0.580
 1913SOL    HW2 1390   2.752   2.235   0.589
 1914SOL     OW 1391   2.879   1.901   0.753
 1914SOL    HW1 1392   2.807   1.906   0.684
 1914SOL    HW2 1393   2.855   1.832   0.822
 1916SOL     OW 1394   3.328   2.452   0.992
 1916SOL    HW1 1395   3.298   2.357   0.999
 1916SOL    HW2 1396   3.401   2.468   1.058
 1922SOL     OW 1397   3.616   3.085   1.588
 1922SOL    HW1 1398   3.707   3.046   1.575
 1922SOL    HW2 1399   3.624   3.181   1.612
 1923SOL     OW 1400   2.926   3.209   1.340
 1923SOL    HW1 1401   2.846   3.186   1.395
 1923SOL    HW2 1402   3.009   3.183   1.389
 1924SOL     OW 1403   3.454   3.491   1.625
 1924SOL    HW1 1404   3.481   3.525   1.535
 1924SOL    HW2 1405   3.533   3.453   1.671
 1925SOL     OW 1406   2.973   3.057   1.100
 1925SOL    HW1 1407   2.933   3.101   1.181
 1925SOL    HW2 1408   2.932   3.094   1.017
 1927SOL     OW 1409   2.777   1.951   1.402
 1927SOL    HW1 1410   2.802   1.931   1.307
 1927SOL    HW2 1411   2.849   2.007   1.444
 1928SOL     OW 1412   2.842   2.978   1.719
 1928SOL    HW1 1413   2.743   2.984   1.729
 1928SOL    HW2 1414   2.865   2.898   1.663
 1930SOL     OW 1415   2.272   2.675   1.251
 1930SOL    HW1 1416   2.358   2.687   1.301
 1930SOL    HW2 1417   2.230   2.588   1.278
 1931SOL     OW 1418   3.136   2.248   1.262
 1931SOL    HW1 1419   3.157   2.322   1.326
 1931SOL    HW2 1420   3.047   2.265   1.219
 1932SOL     OW 1421   1.926   3.426   1.331
 1932SOL    HW1 1422   1.880   3.508   1.297
 1932SOL    HW2 1423   2.024   3.445   1.340
 1934SOL     OW 1424   2.428   2.399   0.865
 1934SOL    HW1 1425   2.440   2.465   0.791
 1934SOL    HW2 1426   2.474   2.433   0.948
 1936SOL     OW 1427   3.134   3.307   1.142
 1936SOL    HW1 1428   3.181   3.320   1.229
 1936SOL    HW2 1429   3.068   3.233   1.151
 1938SOL     OW 1430   2.216   3.372   1.329
 1938SOL    HW1 1431   2.195   3.328   1.242
 1938SOL    HW2 1432   2.313   3.398   1.332
 1939SOL     OW 1433   2.264   2.613   1.598
 1939SOL    HW1 1434   2.332   2.668   1.551
 1939SOL    HW2 1435   2.304   2.525   1.625
 1940SOL     OW 1436   3.449   2.641   1.670
 1940SOL    HW1 1437   3.357   2.679   1.665
 1940SOL    HW2 1438   3.509   2.688   1.605
 1941SOL     OW 1439   2.875   1.967   1.770
 1941SOL    HW1 1440   2.881   2.052   1.718
 1941SOL    HW2 1441   2.907   1.891   1.713
 1942SOL     OW 1442   2.366   1.912   1.740
 1942SOL    HW1 1443   2.324   1.855   1.670
 1942SOL    HW2 1444   2.300   1.981   1.772
 1943SOL     OW 1445   2.435   2.732   1.029
 1943SOL    HW1 1446   2.479   2.821   1.020
 1943SOL    HW2 1447   2.372   2.732   1.106
 1944SOL     OW 1448   3.222   2.724   1.045
 1944SOL    HW1 1449   3.147   2.724   0.979
 1944SOL    HW2 1450   3.259   2.632   1.054
 1946SOL     OW 1451   2.169   2.075   1.231
 1946SOL    HW1 1452   2.146   2.112   1.321
 1946SOL    HW2 1453   2.139   1.980   1.225
 1947SOL     OW 1454   1.899   3.172   1.282
 1947SOL    HW1 1455   1.952   3.123   1.350
 1947SOL    HW2 1456   1.921   3.270   1.287
 1948SOL     OW 1457   2.594   2.496   1.064
 1948SOL    HW1 1458   2.653   2.470   0.988
 1948SOL    HW2 1459   2.566   2.592   1.053
 1949SOL     OW 1460   3.590   2.797   1.854
 1949SOL    HW1 1461   3.544   2.790   1.765
 1949SOL    HW2 1462   3.528   2.841   1.920
 1950SOL     OW 1463   2.169   1.925   0.618
 1950SOL    HW1 1464   2.158   2.019   0.651
 1950SOL    HW2 1465   2.164   1.862   0.695
 1952SOL     OW 1466   2.885   2.628   0.966
 1952SOL    HW1 1467   2.900   2.649   1.062
 1952SOL    HW2 1468   2.855   2.533   0.957
 1953SOL     OW 1469   2.842   3.435   1.700
 1953SOL    HW1 1470   2.822   3.479   1.612
 1953SOL    HW2 1471   2.881   3.344   1.684
 1955SOL     OW 1472   2.212   2.760   1.804
 1955SOL    HW1 1473   2.288   2.804   1.852
 1955SOL    HW2 1474   2.247   2.713   1.722
 1959SOL     OW 1475   2.181   2.672   0.949
 1959SOL    HW1 1476   2.274   2.708   0.954
 1959SOL    HW2 1477   2.175   2.587   1.001
 1960SOL     OW 1478   2.201   2.371   1.006
 1960SOL    HW1 1479   2.149   2.288   0.989
 1960SOL    HW2 1480   2.278   2.376   0.942
 1961SOL     OW 1481   3.000   2.242   1.678
 1961SOL    HW1 1482   2.955   2.305   1.742
 1961SOL    HW2 1483   3.093   2.273   1.661
 1962SOL     OW 1484   3.022   2.069   1.477
 1962SOL    HW1 1485   3.022   2.133   1.554
 1962SOL    HW2 1486   3.050   2.117   1.394
 1965SOL     OW 1487   2.366   3.430   0.910
 1965SOL    HW1 1488   2.432   3.504   0.919
 1965SOL    HW2 1489   2.410   3.351   0.868
 1966SOL     OW 1490   2.864   2.658   1.238
 1966SOL    HW1 1491   2.905   2.626   1.324
 1966SOL    HW2 1492   2.768   2.631   1.235
 1967SOL     OW 1493   1.902   2.406   1.114
 1967SOL    HW1 1494   1.987   2.373   1.073
 1967SOL    HW2 1495   1.915   2.421   1.212
 1968SOL     OW 1496   2.051   2.382   1.722
 1968SOL    HW1 1497   2.110   2.342   1.652
 1968SOL    HW2 1498   1.993   2.453   1.681
 1969SOL     OW 1499   3.231   2.812   1.660
 1969SOL    HW1 1500   3.270   2.901   1.680
 1969SOL    HW2 1501   3.241   2.792   1.563
 1971SOL     OW 1502   3.519   2.466   1.206
 1971SOL    HW1 1503   3.481   2.397   1.268
 1971SOL    HW2 1504   3.601   2.430   1.162
 1972SOL     OW 1505   2.114   3.426   1.744
 1972SOL    HW1 1506   2.084   3.483   1.820
 1972SOL    HW2 1507   2.107   3.329   1.770
 1973SOL     OW 1508   2.533   2.326   1.269
 1973SOL    HW1 1509   2.499   2.237   1.239
 1973SOL    HW2 1510   2.559   2.380   1.189
 1974SOL     OW 1511   2.792   3.540   1.465
 1974SOL    HW1 1512   2.768   3.522   1.370
 1974SOL    HW2 1513   2.822   3.634   1.475
 1976SOL     OW 1514   2.021   2.999   1.466
 1976SOL    HW1 1515   2.043   2.938   1.542
 1976SOL    HW2 1516   2.031   2.950   1.380
 1977SOL     OW 1517   3.209   2.921   1.234
 1977SOL    HW1 1518   3.233   2.858   1.160
 1977SOL    HW2 1519   3.119   2.961   1.216
 1981SOL     OW 1520   1.945   3.120   1.022
 1981SOL    HW1 1521   1.940   3.119   1.122
 1981SOL    HW2 1522   1.862   3.079   0.984
 1982SOL     OW 1523   2.550   3.524   1.716
 1982SOL    HW1 1524   2.494   3.605   1.725
 1982SOL    HW2 1525   2.602   3.528   1.630
 1986SOL     OW 1526   1.992   3.656   1.851
 1986SOL    HW1 1527   1.951   3.582   1.904
 1986SOL    HW2 1528   2.056   3.707   1.909
 1988SOL     OW 1529   2.692   3.135   1.422
 1988SOL    HW1 1530   2.687   3.168   1.517
 1988SOL    HW2 1531   2.606   3.154   1.376
 1992SOL     OW 1532   2.125   2.188   0.720
 1992SOL    HW1 1533   2.046   2.239   0.686
 1992SOL    HW2 1534   2.116   2.173   0.818
 1994SOL     OW 1535   2.684   2.864   1.372
 1994SOL    HW1 1536   2.724   2.863   1.280
 1994SOL    HW2 1537   2.694   2.956   1.412
 1997SOL     OW 1538   2.234   3.150   1.490
 1997SOL    HW1 1539   2.221   3.243   1.456
 1997SOL    HW2 1540   2.150   3.098   1.477
 1998SOL     OW 1541   3.476   3.154   1.289
 1998SOL    HW1 1542   3.536   3.157   1.369
 1998SOL    HW2 1543   3.401   3.218   1.302
 2000SOL     OW 1544   2.876   2.098   0.971
 2000SOL    HW1 1545   2.868   2.062   0.878
 2000SOL    HW2 1546   2.874   2.022   1.036
 2002SOL     OW 1547   3.571   2.247   1.381
 2002SOL    HW1 1548   3.644   2.316   1.385
 2002SOL    HW2 1549   3.599   2.172   1.322
 2004SOL     OW 1550   1.967   2.875   1.726
 2004SOL    HW1 1551   1.890   2.842   1.780
 2004SOL    HW2 1552   2.052   2.845   1.768
 2005SOL     OW 1553   2.534   2.065   1.489
 2005SOL    HW1 1554   2.624   2.049   1.449
 2005SOL    HW2 1555   2.542   2.070   1.588
 2006SOL     OW 1556   3.302   2.718   1.398
 2006SOL    HW1 1557   3.245   2.770   1.335
 2006SOL    HW2 1558   3.398   2.730   1.374
 2009SOL     OW 1559   2.475   2.704   1.431
 2009SOL    HW1 1560   2.531   2.785   1.414
 2009SOL    HW2 1561   2.534   2.624   1.434
 2011SOL     OW 1562   2.578   2.427   1.708
 2011SOL    HW1 1563   2.597   2.492   1.782
 2011SOL    HW2 1564   2.638   2.347   1.717
 2012SOL     OW 1565   3.312   3.082   1.633
 2012SOL    HW1 1566   3.303   3.072   1.732
 2012SOL    HW2 1567   3.408   3.075   1.607
 2013SOL     OW 1568   2.252   3.603   1.560
 2013SOL    HW1 1569   2.161   3.644   1.558
 2013SOL    HW2 1570   2.245   3.509   1.592
 2014SOL     OW 1571   3.536   2.745   1.254
 2014SOL    HW1 1572   3.509   2.656   1.217
 2014SOL    HW2 1573   3.537   2.813   1.181
 2016SOL     OW 1574   2.456   2.607   0.652
 2016SOL    HW1 1575   2.506   2.692   0.633
 2016SOL    HW2 1576   2.368   2.609   0.604
 2017SOL     OW 1577   3.639   2.204   1.642
 2017SOL    HW1 1578   3.622   2.235   1.548
 2017SOL    HW2 1579   3.555   2.167   1.680
 2018SOL     OW 1580   3.592   2.796   1.517
 2018SOL    HW1 1581   3.630   2.887   1.532
 2018SOL    HW2 1582   3.584   2.779   1.418
 2021SOL     OW 1583   2.721   2.818   0.861
 2021SOL    HW1 1584   2.775   2.749   0.909
 2021SOL    HW2 1585   2.689   2.887   0.927
 2024SOL     OW 1586   2.083   3.176   1.844
 2024SOL    HW1 1587   2.018   3.103   1.823
 2024SOL    HW2 1588   2.087   3.190   1.942
 2026SOL     OW 1589   2.534   3.253   1.624
 2026SOL    HW1 1590   2.456   3.203   1.662
 2026SOL    HW2 1591   2.531   3.348   1.655
 2027SOL     OW 1592   3.686   2.054   1.227
 2027SOL    HW1 1593   3.682   1.964   1.271
 2027SOL    HW2 1594   3.689   2.043   1.128
 2030SOL     OW 1595   2.179   2.409   1.280
 2030SOL    HW1 1596   2.217   2.350   1.352
 2030SOL    HW2 1597   2.219   2.383   1.192
 2032SOL     OW 1598   3.286   2.076   1.112
 2032SOL    HW1 1599   3.338   2.011   1.167
 2032SOL    HW2 1600   3.237   2.139   1.173
 2033SOL     OW 1601   2.863   1.896   1.154
 2033SOL    HW1 1602   2.800   1.824   1.123
 2033SOL    HW2 1603   2.956   1.860   1.154
 2035SOL     OW 1604   2.480   3.429   1.284
 2035SOL    HW1 1605   2.475   3.511   1.341
 2035SOL    HW2 1606   2.569   3.426   1.239
 2041SOL     OW 1607   2.092   2.490   1.975
 2041SOL    HW1 1608   1.999   2.488   2.012
 2041SOL    HW2 1609   2.093   2.451   1.883
 2042SOL     OW 1610   2.087   2.137   2.858
 2042SOL    HW1 1611   2.122   2.120   2.950
 2042SOL    HW2 1612   1.999   2.092   2.846
 2043SOL     OW 1613   1.881   2.230   2.509
 2043SOL    HW1 1614   1.799   2.273   2.548
 2043SOL    HW2 1615   1.853   2.157   2.446
 2044SOL     OW 1616   2.431   3.137   3.027
 2044SOL    HW1 1617   2.338   3.130   2.990
 2044SOL    HW2 1618   2.442   3.226   3.071
 2045SOL     OW 1619   3.417   3.373   2.565
 2045SOL    HW1 1620   3.360   3.357   2.646
 2045SOL    HW2 1621   3.358   3.383   2.485
 2046SOL     OW 1622   2.997   2.565   2.579
 2046SOL    HW1 1623   3.054   2.643   2.554
 2046SOL    HW2 1624   2.937   2.591   2.655
 2047SOL     OW 1625   3.617   2.469   2.093
 2047SOL    HW1 1626   3.605   2.456   1.994
 2047SOL    HW2 1627   3.587   2.388   2.142
 2048SOL     OW 1628   2.630   3.006   2.885
 2048SOL    HW1 1629   2.552   3.023   2.945
 2048SOL    HW2 1630   2.664   3.093   2.849
 2049SOL     OW 1631   2.712   2.660   3.685
 2049SOL    HW1 1632   2.708   2.736   3.750
 2049SOL    HW2 1633   2.734   2.696   3.594
 2050SOL     OW 1634   2.547   2.874   2.527
 2050SOL    HW1 1635   2.616   2.858   2.597
 2050SOL    HW2 1636   2.474   2.931   2.565
 2051SOL     OW 1637   2.548   3.023   3.665
 2051SOL    HW1 1638   2.608   3.102   3.679
 2051SOL    HW2 1639   2.462   3.054   3.624
 2052SOL     OW 1640   2.197   3.297   2.923
 2052SOL    HW1 1641   2.119   3.266   2.870
 2052SOL    HW2 1642   2.255   3.355   2.866
 2053SOL     OW 1643   3.322   3.367   3.201
 2053SOL    HW1 1644   3.346   3.461   3.227
 2053SOL    HW2 1645   3.306   3.313   3.283
 2054SOL     OW 1646   2.300   2.254   3.361
 2054SOL    HW1 1647   2.382   2.198   3.370
 2054SOL    HW2 1648   2.219   2.196   3.365
 2055SOL     OW 1649   3.465   2.309   2.599
 2055SOL    HW1 1650   3.391   2.355   2.549
 2055SOL    HW2 1651   3.516   2.377   2.652
 2056SOL     OW 1652   2.093   3.575   2.345
 2056SOL    HW1 1653   2.127   3.652   2.399
 2056SOL    HW2 1654   2.137   3.575   2.255
 2057SOL     OW 1655   2.989   3.203   3.552
 2057SOL    HW1 1656   3.036   3.203   3.640
 2057SOL    HW2 1657   2.941   3.116   3.541
 2058SOL     OW 1658   2.092   3.296   2.400
 2058SOL    HW1 1659   2.066   3.392   2.400
 2058SOL    HW2 1660   2.021   3.242   2.445
 2059SOL     OW 1661   2.102   2.953   2.748
 2059SOL    HW1 1662   2.116   2.869   2.800
 2059SOL    HW2 1663   2.047   3.017   2.803
 2060SOL     OW 1664   2.482   3.648   3.301
 2060SOL    HW1 1665   2.390   3.631   3.336
 2060SOL    HW2 1666   2.510   3.740   3.327
 2061SOL     OW 1667   2.468   2.826   1.985
 2061SOL    HW1 1668   2.475   2.910   1.931
 2061SOL    HW2 1669   2.514   2.839   2.073
 2062SOL     OW 1670   3.456   1.976   3.342
 2062SOL    HW1 1671   3.438   2.043   3.270
 2062SOL    HW2 1672   3.453   2.022   3.431
 2063SOL     OW 1673   1.984   2.505   2.425
 2063SOL    HW1 1674   1.939   2.417   2.442
 2063SOL    HW2 1675   1.983   2.559   2.509
 2065SOL     OW 1676   1.889   3.458   1.979
 2065SOL    HW1 1677   1.870   3.362   2.000
 2065SOL    HW2 1678   1.856   3.516   2.054
 2066SOL     OW 1679   3.551   2.784   2.474
 2066SOL    HW1 1680   3.646   2.755   2.482
 2066SOL    HW2 1681   3.543   2.849   2.399
 2067SOL     OW 1682   3.503   2.970   2.294
 2067SOL    HW1 1683   3.589   2.972   2.242
 2067SOL    HW2 1684   3.517   3.017   2.382
 2068SOL     OW 1685   1.975   2.599   3.459
 2068SOL    HW1 1686   2.063   2.586   3.504
 2068SOL    HW2 1687   1.962   2.696   3.437
 2069SOL     OW 1688   2.475   3.227   2.588
 2069SOL    HW1 1689   2.426   3.140   2.597
 2069SOL    HW2 1690   2.452   3.270   2.501
 2070SOL     OW 1691   3.155   3.090   3.285
 2070SOL    HW1 1692   3.192   3.017   3.227
 2070SOL    HW2 1693   3.207   3.095   3.370
 2071SOL     OW 1694   2.671   1.866   2.364
 2071SOL    HW1 1695   2.711   1.957   2.355
 2071SOL    HW2 1696   2.571   1.874   2.370
 2072SOL     OW 1697   2.059   2.838   3.126
 2072SOL    HW1 1698   2.148   2.793   3.112
 2072SOL    HW2 1699   1.986   2.773   3.107
 2073SOL     OW 1700   3.387   2.861   2.052
 2073SOL    HW1 1701   3.324   2.785   2.065
 2073SOL    HW2 1702   3.435   2.879   2.138
 2075SOL     OW 1703   2.179   2.113   3.663
 2075SOL    HW1 1704   2.250   2.184   3.669
 2075SOL    HW2 1705   2.091   2.152   3.691
 2076SOL     OW 1706   3.328   3.279   2.815
 2076SOL    HW1 1707   3.269   3.285   2.895
 2076SOL    HW2 1708   3.313   3.191   2.769
 2077SOL     OW 1709   3.529   3.576   2.434
 2077SOL    HW1 1710   3.488   3.553   2.346
 2077SOL    HW2 1711   3.511   3.502   2.499
 2078SOL     OW 1712   2.460   2.591   2.132
 2078SOL    HW1 1713   2.484   2.660   2.064
 2078SOL    HW2 1714   2.382   2.624   2.186
 2079SOL     OW 1715   3.143   2.207   2.806
 2079SOL    HW1 1716   3.057   2.157   2.793
 2079SOL    HW2 1717   3.205   2.153   2.862
 2080SOL     OW 1718   3.438   3.524   2.169
 2080SOL    HW1 1719   3.527   3.570   2.172
 2080SOL    HW2 1720   3.417   3.500   2.074
 2081SOL     OW 1721   2.669   2.467   3.327
 2081SOL    HW1 1722   2.622   2.464   3.416
 2081SOL    HW2 1723   2.618   2.412   3.261
 2082SOL     OW 1724   3.256   2.331   3.536
 2082SOL    HW1 1725   3.236   2.374   3.624
 2082SOL    HW2 1726   3.334   2.269   3.545
 2083SOL     OW 1727   2.835   2.752   3.434
 2083SOL    HW1 1728   2.881   2.668   3.405
 2083SOL    HW2 1729   2.779   2.786   3.359
 2084SOL     OW 1730   2.853   2.272   3.104
 2084SOL    HW1 1731   2.776   2.306   3.158
 2084SOL    HW2 1732   2.819   2.221   3.025
 2085SOL     OW 1733   2.903   2.563   2.291
 2085SOL    HW1 1734   2.929   2.559   2.387
 2085SOL    HW2 1735   2.818   2.512   2.277
 2086SOL     OW 1736   1.938   2.673   2.651
 2086SOL    HW1 1737   2.037   2.661   2.660
 2086SOL    HW2 1738   1.914   2.768   2.672
 2087SOL     OW 1739   1.992   3.683   3.433
 2087SOL    HW1 1740   1.982   3.668   3.532
 2087SOL    HW2 1741   1.906   3.719   3.397
 2088SOL     OW 1742   2.727   2.210   2.057
 2088SOL    HW1 1743   2.786   2.273   2.008
 2088SOL    HW2 1744   2.746   2.116   2.028
 2090SOL     OW 1745   3.224   3.006   2.407
 2090SOL    HW1 1746   3.307   2.977   2.359
 2090SOL    HW2 1747   3.175   3.073   2.351
 2091SOL     OW 1748   2.412   2.058   2.747
 2091SOL    HW1 1749   2.407   2.053   2.847
 2091SOL    HW2 1750   2.414   2.154   2.718
 2092SOL     OW 1751   2.870   3.318   2.339
 2092SOL    HW1 1752   2.824   3.390   2.287
 2092SOL    HW2 1753   2.866   3.338   2.437
 2093SOL     OW 1754   2.213   3.663   2.715
 2093SOL    HW1 1755   2.263   3.577   2.721
 2093SOL    HW2 1756   2.278   3.740   2.712
 2094SOL     OW 1757   3.657   2.928   2.735
 2094SOL    HW1 1758   3.595   2.913   2.659
 2094SOL    HW2 1759   3.605   2.939   2.820
 2095SOL     OW 1760   3.089   3.412   3.368
 2095SOL    HW1 1761   3.095   3.335   3.432
 2095SOL    HW2 1762   3.037   3.386   3.288
 2096SOL     OW 1763   2.183   2.805   2.104
 2096SOL    HW1 1764   2.265   2.844   2.062
 2096SOL    HW2 1765   2.156   2.723   2.055
 2097SOL     OW 1766   3.320   2.597   2.590
 2097SOL    HW1 1767   3.315   2.532   2.665
 2097SOL    HW2 1768   3.400   2.656   2.603
 2098SOL     OW 1769   2.323   3.128   3.589
 2098SOL    HW1 1770   2.273   3.129   3.503
 2098SOL    HW2 1771   2.260   3.110   3.665
 2099SOL     OW 1772   2.973   3.638   2.099
 2099SOL    HW1 1773   2.913   3.576   2.149
 2099SOL    HW2 1774   3.004   3.594   2.014
 2100SOL     OW 1775   2.064   2.147   3.360
 2100SOL    HW1 1776   1.984   2.207   3.347
 2100SOL    HW2 1777   2.054   2.098   3.446
 2101SOL     OW 1778   3.494   3.239   1.943
 2101SOL    HW1 1779   3.462   3.333   1.933
 2101SOL    HW2 1780   3.418   3.176   1.931
 2102SOL     OW 1781   2.326   3.605   2.185
 2102SOL    HW1 1782   2.359   3.644   2.271
 2102SOL    HW2 1783   2.402   3.598   2.120
 2103SOL     OW 1784   3.262   1.969   2.288
 2103SOL    HW1 1785   3.238   1.932   2.198
 2103SOL    HW2 1786   3.361   1.985   2.292
 2104SOL     OW 1787   2.111   3.647   3.103
 2104SOL    HW1 1788   2.168   3.582   3.153
 2104SOL    HW2 1789   2.095   3.614   3.010
 2105SOL     OW 1790   2.802   3.560   2.766
 2105SOL    HW1 1791   2.882   3.503   2.787
 2105SOL    HW2 1792   2.753   3.520   2.689
 2106SOL     OW 1793   3.409   2.084   3.591
 2106SOL    HW1 1794   3.404   2.121   3.683
 2106SOL    HW2 1795   3.337   2.015   3.579
 2107SOL     OW 1796   2.476   1.984   1.979
 2107SOL    HW1 1797   2.574   1.962   1.986
 2107SOL    HW2 1798   2.445   1.967   1.886
 2108SOL     OW 1799   2.643   2.126   3.611
 2108SOL    HW1 1800   2.710   2.065   3.654
 2108SOL    HW2 1801   2.570   2.145   3.676
 2109SOL     OW 1802   2.750   3.376   3.057
 2109SOL    HW1 1803   2.727   3.351   2.963
 2109SOL    HW2 1804   2.811   3.307   3.096
 2110SOL     OW 1805   3.213   2.452   3.295
 2110SOL    HW1 1806   3.241   2.409   3.380
 2110SOL    HW2 1807   3.238   2.548   3.296
 2111SOL     OW 1808   2.665   3.264   2.786
 2111SOL    HW1 1809   2.755   3.278   2.744
 2111SOL    HW2 1810   2.594   3.266   2.715
 2112SOL     OW 1811   2.784   2.365   2.761
 2112SOL    HW1 1812   2.759   2.356   2.665
 2112SOL    HW2 1813   2.832   2.283   2.792
 2113SOL     OW 1814   2.401   1.926   2.374
 2113SOL    HW1 1815   2.320   1.927   2.432
 2113SOL    HW2 1816   2.404   2.009   2.319
 2114SOL     OW 1817   3.296   3.050   1.903
 2114SOL    HW1 1818   3.328   2.974   1.960
 2114SOL    HW2 1819   3.204   3.077   1.933
 2115SOL     OW 1820   2.159   1.897   2.033
 2115SOL    HW1 1821   2.208   1.981   2.012
 2115SOL    HW2 1822   2.221   1.832   2.078
 2116SOL     OW 1823   2.797   2.098   2.342
 2116SOL    HW1 1824   2.749   2.139   2.264
 2116SOL    HW2 1825   2.896   2.096   2.323
 2117SOL     OW 1826   2.938   2.545   3.326
 2117SOL    HW1 1827   2.858   2.484   3.329
 2117SOL    HW2 1828   3.019   2.492   3.302
 2118SOL     OW 1829   3.089   3.432   2.655
 2118SOL    HW1 1830   3.110   3.506   2.590
 2118SOL    HW2 1831   3.157   3.432   2.728
 2119SOL     OW 1832   2.321   3.014   2.603
 2119SOL    HW1 1833   2.250   2.987   2.668
 2119SOL    HW2 1834   2.295   2.986   2.510
 2120SOL     OW 1835   3.133   3.659   2.453
 2120SOL    HW1 1836   3.177   3.723   2.389
 2120SOL    HW2 1837   3.083   3.711   2.523
 2121SOL     OW 1838   2.894   2.411   1.878
 2121SOL    HW1 1839   2.853   2.493   1.839
 2121SOL    HW2 1840   2.958   2.437   1.951
 2122SOL     OW 1841   1.940   2.418   3.248
 2122SOL    HW1 1842   2.032   2.417   3.207
 2122SOL    HW2 1843   1.934   2.492   3.315
 2123SOL     OW 1844   2.423   2.084   3.009
 2123SOL    HW1 1845   2.461   2.000   3.046
 2123SOL    HW2 1846   2.335   2.103   3.053
 2124SOL     OW 1847   2.728   2.316   2.504
 2124SOL    HW1 1848   2.696   2.388   2.442
 2124SOL    HW2 1849   2.752   2.235   2.451
 2125SOL     OW 1850   2.879   1.901   2.615
 2125SOL    HW1 1851   2.807   1.906   2.546
 2125SOL    HW2 1852   2.855   1.832   2.684
 2126SOL     OW 1853   3.291   3.035   2.729
 2126SOL    HW1 1854   3.236   2.951   2.722
 2126SOL    HW2 1855   3.317   3.064   2.637
 2127SOL     OW 1856   3.328   2.452   2.854
 2127SOL    HW1 1857   3.298   2.357   2.861
 2127SOL    HW2 1858   3.401   2.468   2.920
 2128SOL     OW 1859   3.719   2.695   2.239
 2128SOL    HW1 1860   3.761   2.631   2.303
 2128SOL    HW2 1861   3.681   2.644   2.161
 2129SOL     OW 1862   2.350   3.247   2.036
 2129SOL    HW1 1863   2.263   3.232   2.083
 2129SOL    HW2 1864   2.333   3.273   1.941
 2130SOL     OW 1865   3.526   3.142   2.519
 2130SOL    HW1 1866   3.625   3.150   2.533
 2130SOL    HW2 1867   3.481   3.226   2.550
 2131SOL     OW 1868   3.252   2.437   1.940
 2131SOL    HW1 1869   3.198   2.416   2.021
 2131SOL    HW2 1870   3.343   2.396   1.949
 2133SOL     OW 1871   2.926   3.209   3.202
 2133SOL    HW1 1872   2.846   3.186   3.257
 2133SOL    HW2 1873   3.009   3.183   3.251
 2135SOL     OW 1874   2.973   3.057   2.962
 2135SOL    HW1 1875   2.933   3.101   3.043
 2135SOL    HW2 1876   2.932   3.094   2.879
 2136SOL     OW 1877   3.500   2.961   2.941
 2136SOL    HW1 1878   3.505   3.042   3.000
 2136SOL    HW2 1879   3.414   2.963   2.890
 2137SOL     OW 1880   2.777   1.951   3.264
 2137SOL    HW1 1881   2.802   1.931   3.169
 2137SOL    HW2 1882   2.849   2.007   3.306
 2138SOL     OW 1883   2.842   2.978   3.581
 2138SOL    HW1 1884   2.743   2.984   3.591
 2138SOL    HW2 1885   2.865   2.898   3.525
 2139SOL     OW 1886   2.567   2.912   2.230
 2139SOL    HW1 1887   2.553   2.919   2.329
 2139SOL    HW2 1888   2.651   2.861   2.212
 2140SOL     OW 1889   2.272   2.675   3.113
 2140SOL    HW1 1890   2.358   2.687   3.163
 2140SOL    HW2 1891   2.230   2.588   3.140
 2141SOL     OW 1892   3.136   2.248   3.124
 2141SOL    HW1 1893   3.157   2.322   3.188
 2141SOL    HW2 1894   3.047   2.265   3.081
 2142SOL     OW 1895   1.926   3.426   3.193
 2142SOL    HW1 1896   1.880   3.508   3.159
 2142SOL    HW2 1897   2.024   3.445   3.202
 2143SOL     OW 1898   2.229   2.962   2.363
 2143SOL    HW1 1899   2.222   3.045   2.307
 2143SOL    HW2 1900   2.233   2.882   2.303
 2144SOL     OW 1901   3.114   3.210   2.250
 2144SOL    HW1 1902   3.164   3.287   2.290
 2144SOL    HW2 1903   3.019   3.212   2.282
 2145SOL     OW 1904   3.134   3.307   3.004
 2145SOL    HW1 1905   3.181   3.320   3.091
 2145SOL    HW2 1906   3.068   3.233   3.013
 2146SOL     OW 1907   3.444   2.501   2.334
 2146SOL    HW1 1908   3.413   2.562   2.407
 2146SOL    HW2 1909   3.494   2.553   2.265
 2147SOL     OW 1910   2.216   3.372   3.191
 2147SOL    HW1 1911   2.195   3.328   3.104
 2147SOL    HW2 1912   2.313   3.398   3.194
 2148SOL     OW 1913   2.264   2.613   3.460
 2148SOL    HW1 1914   2.332   2.668   3.413
 2148SOL    HW2 1915   2.304   2.525   3.487
 2149SOL     OW 1916   3.449   2.641   3.532
 2149SOL    HW1 1917   3.357   2.679   3.527
 2149SOL    HW2 1918   3.509   2.688   3.467
 2150SOL     OW 1919   2.875   1.967   3.632
 2150SOL    HW1 1920   2.881   2.052   3.580
 2150SOL    HW2 1921   2.907   1.891   3.575
 2151SOL     OW 1922   2.366   1.912   3.602
 2151SOL    HW1 1923   2.324   1.855   3.532
 2151SOL    HW2 1924   2.300   1.981   3.634
 2152SOL     OW 1925   2.435   2.732   2.891
 2152SOL    HW1 1926   2.479   2.821   2.882
 2152SOL    HW2 1927   2.372   2.732   2.968
 2153SOL     OW 1928   3.222   2.724   2.907
 2153SOL    HW1 1929   3.147   2.724   2.841
 2153SOL    HW2 1930   3.259   2.632   2.916
 2154SOL     OW 1931   3.071   2.387   2.137
 2154SOL    HW1 1932   3.084   2.303   2.191
 2154SOL    HW2 1933   3.042   2.461   2.197
 2155SOL     OW 1934   2.169   2.075   3.093
 2155SOL    HW1 1935   2.146   2.112   3.183
 2155SOL    HW2 1936   2.139   1.980   3.087
 2156SOL     OW 1937   1.899   3.172   3.144
 2156SOL    HW1 1938   1.952   3.123   3.212
 2156SOL    HW2 1939   1.921   3.270   3.149
 2157SOL     OW 1940   2.594   2.496   2.926
 2157SOL    HW1 1941   2.653   2.470   2.850
 2157SOL    HW2 1942   2.566   2.592   2.915
 2159SOL     OW 1943   2.169   1.925   2.480
 2159SOL    HW1 1944   2.158   2.019   2.513
 2159SOL    HW2 1945   2.164   1.862   2.557
 2160SOL     OW 1946   3.484   2.229   2.236
 2160SOL    HW1 1947   3.486   2.153   2.300
 2160SOL    HW2 1948   3.436   2.306   2.276
 2161SOL     OW 1949   2.885   2.628   2.828
 2161SOL    HW1 1950   2.900   2.649   2.924
 2161SOL    HW2 1951   2.855   2.533   2.819
 2162SOL     OW 1952   2.842   3.435   3.562
 2162SOL    HW1 1953   2.822   3.479   3.474
 2162SOL    HW2 1954   2.881   3.344   3.546
 2164SOL     OW 1955   2.212   2.760   3.666
 2164SOL    HW1 1956   2.288   2.804   3.714
 2164SOL    HW2 1957   2.247   2.713   3.584
 2165SOL     OW 1958   3.402   2.136   1.987
 2165SOL    HW1 1959   3.341   2.061   2.010
 2165SOL    HW2 1960   3.424   2.188   2.070
 2166SOL     OW 1961   3.165   2.700   1.904
 2166SOL    HW1 1962   3.199   2.607   1.919
 2166SOL    HW2 1963   3.183   2.727   1.809
 2167SOL     OW 1964   2.930   3.195   2.711
 2167SOL    HW1 1965   2.937   3.111   2.656
 2167SOL    HW2 1966   2.992   3.264   2.675
 2168SOL     OW 1967   2.181   2.672   2.811
 2168SOL    HW1 1968   2.274   2.708   2.816
 2168SOL    HW2 1969   2.175   2.587   2.863
 2169SOL     OW 1970   2.201   2.371   2.868
 2169SOL    HW1 1971   2.149   2.288   2.851
 2169SOL    HW2 1972   2.278   2.376   2.804
 2170SOL     OW 1973   3.000   2.242   3.540
 2170SOL    HW1 1974   2.955   2.305   3.604
 2170SOL    HW2 1975   3.093   2.273   3.523
 2171SOL     OW 1976   3.022   2.069   3.339
 2171SOL    HW1 1977   3.022   2.133   3.416
 2171SOL    HW2 1978   3.050   2.117   3.256
 2172SOL     OW 1979   1.870   3.188   2.062
 2172SOL    HW1 1980   1.777   3.209   2.031
 2172SOL    HW2 1981   1.880   3.089   2.075
 2173SOL     OW 1982   1.950   3.663   2.789
 2173SOL    HW1 1983   1.908   3.577   2.762
 2173SOL    HW2 1984   2.044   3.666   2.755
 2174SOL     OW 1985   2.366   3.430   2.772
 2174SOL    HW1 1986   2.432   3.504   2.781
 2174SOL    HW2 1987   2.410   3.351   2.730
 2175SOL     OW 1988   2.864   2.658   3.100
 2175SOL    HW1 1989   2.905   2.626   3.186
 2175SOL    HW2 1990   2.768   2.631   3.097
 2176SOL     OW 1991   1.902   2.406   2.976
 2176SOL    HW1 1992   1.987   2.373   2.935
 2176SOL    HW2 1993   1.915   2.421   3.074
 2177SOL     OW 1994   2.051   2.382   3.584
 2177SOL    HW1 1995   2.110   2.342   3.514
 2177SOL    HW2 1996   1.993   2.453   3.543
 2178SOL     OW 1997   3.231   2.812   3.522
 2178SOL    HW1 1998   3.270   2.901   3.542
 2178SOL    HW2 1999   3.241   2.792   3.425
 2179SOL     OW 2000   2.677   2.434   2.187
 2179SOL    HW1 2001   2.684   2.345   2.141
 2179SOL    HW2 2002   2.583   2.468   2.179
 2180SOL     OW 2003   3.519   2.466   3.068
 2180SOL    HW1 2004   3.481   2.397   3.130
 2180SOL    HW2 2005   3.601   2.430   3.024
 2181SOL     OW 2006   2.114   3.426   3.606
 2181SOL    HW1 2007   2.084   3.483   3.682
 2181SOL    HW2 2008   2.107   3.329   3.632
 2182SOL     OW 2009   2.533   2.326   3.131
 2182SOL    HW1 2010   2.499   2.237   3.101
 2182SOL    HW2 2011   2.559   2.380   3.051
 2183SOL     OW 2012   2.792   3.540   3.327
 2183SOL    HW1 2013   2.768   3.522   3.232
 2183SOL    HW2 2014   2.822   3.634   3.337
 2184SOL     OW 2015   2.021   2.999   3.328
 2184SOL    HW1 2016   2.043   2.938   3.404
 2184SOL    HW2 2017   2.031   2.950   3.242
 2185SOL     OW 2018   3.209   2.921   3.096
 2185SOL    HW1 2019   3.233   2.858   3.022
 2185SOL    HW2 2020   3.119   2.961   3.078
 2186SOL     OW 2021   3.164   2.717   2.171
 2186SOL    HW1 2022   3.078   2.686   2.213
 2186SOL    HW2 2023   3.160   2.703   2.072
 2188SOL     OW 2024   3.114   3.593   2.990
 2188SOL    HW1 2025   3.198   3.598   2.936
 2188SOL    HW2 2026   3.091   3.497   3.008
 2189SOL     OW 2027   1.945   3.120   2.884
 2189SOL    HW1 2028   1.940   3.119   2.984
 2189SOL    HW2 2029   1.862   3.079   2.846
 2190SOL     OW 2030   2.550   3.524   3.578
 2190SOL    HW1 2031   2.494   3.605   3.587
 2190SOL    HW2 2032   2.602   3.528   3.492
 2191SOL     OW 2033   3.588   1.997   2.385
 2191SOL    HW1 2034   3.661   1.980   2.318
 2191SOL    HW2 2035   3.557   1.910   2.423
 2192SOL     OW 2036   3.250   3.435   2.339
 2192SOL    HW1 2037   3.317   3.447   2.265
 2192SOL    HW2 2038   3.210   3.524   2.362
 2194SOL     OW 2039   3.142   2.789   2.534
 2194SOL    HW1 2040   3.202   2.708   2.536
 2194SOL    HW2 2041   3.182   2.858   2.474
 2195SOL     OW 2042   2.692   3.135   3.284
 2195SOL    HW1 2043   2.687   3.168   3.379
 2195SOL    HW2 2044   2.606   3.154   3.238
 2196SOL     OW 2045   2.534   3.478   2.016
 2196SOL    HW1 2046   2.543   3.488   1.917
 2196SOL    HW2 2047   2.494   3.389   2.037
 2198SOL     OW 2048   3.703   2.037   2.825
 2198SOL    HW1 2049   3.742   1.952   2.789
 2198SOL    HW2 2050   3.605   2.039   2.806
 2199SOL     OW 2051   2.125   2.188   2.582
 2199SOL    HW1 2052   2.046   2.239   2.548
 2199SOL    HW2 2053   2.116   2.173   2.680
 2200SOL     OW 2054   3.056   3.474   1.893
 2200SOL    HW1 2055   3.062   3.381   1.930
 2200SOL    HW2 2056   2.997   3.474   1.813
 2201SOL     OW 2057   2.684   2.864   3.234
 2201SOL    HW1 2058   2.724   2.863   3.142
 2201SOL    HW2 2059   2.694   2.956   3.274
 2202SOL     OW 2060   2.778   2.772   2.153
 2202SOL    HW1 2061   2.841   2.810   2.085
 2202SOL    HW2 2062   2.818   2.689   2.192
 2203SOL     OW 2063   3.366   3.469   1.906
 2203SOL    HW1 2064   3.274   3.506   1.913
 2203SOL    HW2 2065   3.404   3.489   1.816
 2204SOL     OW 2066   2.234   3.150   3.352
 2204SOL    HW1 2067   2.221   3.243   3.318
 2204SOL    HW2 2068   2.150   3.098   3.339
 2205SOL     OW 2069   3.476   3.154   3.151
 2205SOL    HW1 2070   3.536   3.157   3.231
 2205SOL    HW2 2071   3.401   3.218   3.164
 2206SOL     OW 2072   2.901   2.960   2.558
 2206SOL    HW1 2073   2.831   2.913   2.612
 2206SOL    HW2 2074   2.960   2.892   2.515
 2207SOL     OW 2075   2.876   2.098   2.833
 2207SOL    HW1 2076   2.868   2.062   2.740
 2207SOL    HW2 2077   2.874   2.022   2.898
 2208SOL     OW 2078   2.452   3.349   2.353
 2208SOL    HW1 2079   2.494   3.291   2.283
 2208SOL    HW2 2080   2.408   3.428   2.309
 2209SOL     OW 2081   3.571   2.247   3.243
 2209SOL    HW1 2082   3.644   2.316   3.247
 2209SOL    HW2 2083   3.599   2.172   3.184
 2210SOL     OW 2084   2.117   3.210   2.152
 2210SOL    HW1 2085   2.021   3.211   2.125
 2210SOL    HW2 2086   2.129   3.263   2.236
 2211SOL     OW 2087   1.967   2.875   3.588
 2211SOL    HW1 2088   1.890   2.842   3.642
 2211SOL    HW2 2089   2.052   2.845   3.630
 2212SOL     OW 2090   2.534   2.065   3.351
 2212SOL    HW1 2091   2.624   2.049   3.311
 2212SOL    HW2 2092   2.542   2.070   3.450
 2213SOL     OW 2093   1.937   2.207   1.895
 2213SOL    HW1 2094   1.845   2.179   1.866
 2213SOL    HW2 2095   1.968   2.284   1.839
 2214SOL     OW 2096   3.302   2.718   3.260
 2214SOL    HW1 2097   3.245   2.770   3.197
 2214SOL    HW2 2098   3.398   2.730   3.236
 2215SOL     OW 2099   1.934   2.028   2.180
 2215SOL    HW1 2100   1.917   2.111   2.126
 2215SOL    HW2 2101   2.024   1.991   2.158
 2216SOL     OW 2102   3.045   3.197   1.981
 2216SOL    HW1 2103   2.946   3.186   1.983
 2216SOL    HW2 2104   3.079   3.212   2.074
 2217SOL     OW 2105   2.475   2.704   3.293
 2217SOL    HW1 2106   2.531   2.785   3.276
 2217SOL    HW2 2107   2.534   2.624   3.296
 2218SOL     OW 2108   3.355   3.629   2.821
 2218SOL    HW1 2109   3.388   3.693   2.752
 2218SOL    HW2 2110   3.421   3.623   2.896
 2219SOL     OW 2111   2.578   2.427   3.570
 2219SOL    HW1 2112   2.597   2.492   3.644
 2219SOL    HW2 2113   2.638   2.347   3.579
 2220SOL     OW 2114   3.312   3.082   3.495
 2220SOL    HW1 2115   3.303   3.072   3.594
 2220SOL    HW2 2116   3.408   3.075   3.469
 2221SOL     OW 2117   2.252   3.603   3.422
 2221SOL    HW1 2118   2.161   3.644   3.420
 2221SOL    HW2 2119   2.245   3.509   3.454
 2222SOL     OW 2120   3.536   2.745   3.116
 2222SOL    HW1 2121   3.509   2.656   3.079
 2222SOL    HW2 2122   3.537   2.813   3.043
 2223SOL     OW 2123   3.087   2.187   2.311
 2223SOL    HW1 2124   3.152   2.113   2.300
 2223SOL    HW2 2125   3.107   2.237   2.395
 2224SOL     OW 2126   3.639   2.204   3.504
 2224SOL    HW1 2127   3.622   2.235   3.410
 2224SOL    HW2 2128   3.555   2.167   3.542
 2225SOL     OW 2129   3.592   2.796   3.379
 2225SOL    HW1 2130   3.630   2.887   3.394
 2225SOL    HW2 2131   3.584   2.779   3.280
 2226SOL     OW 2132   2.721   3.236   1.878
 2226SOL    HW1 2133   2.675   3.251   1.966
 2226SOL    HW2 2134   2.765   3.321   1.848
 2227SOL     OW 2135   2.523   3.652   2.815
 2227SOL    HW1 2136   2.477   3.740   2.802
 2227SOL    HW2 2137   2.622   3.664   2.808
 2228SOL     OW 2138   2.721   2.818   2.723
 2228SOL    HW1 2139   2.775   2.749   2.771
 2228SOL    HW2 2140   2.689   2.887   2.789
 2229SOL     OW 2141   2.945   2.846   1.949
 2229SOL    HW1 2142   2.922   2.899   1.867
 2229SOL    HW2 2143   3.026   2.790   1.930
 2231SOL     OW 2144   2.083   3.176   3.706
 2231SOL    HW1 2145   2.018   3.103   3.685
 2231SOL    HW2 2146   2.087   3.190   3.804
 2232SOL     OW 2147   1.941   3.102   2.515
 2232SOL    HW1 2148   1.940   3.055   2.603
 2232SOL    HW2 2149   2.023   3.074   2.464
 2233SOL     OW 2150   2.534   3.253   3.486
 2233SOL    HW1 2151   2.456   3.203   3.524
 2233SOL    HW2 2152   2.531   3.348   3.517
 2234SOL     OW 2153   3.686   2.054   3.089
 2234SOL    HW1 2154   3.682   1.964   3.133
 2234SOL    HW2 2155   3.689   2.043   2.990
 2235SOL     OW 2156   3.567   3.349   2.966
 2235SOL    HW1 2157   3.474   3.324   2.939
 2235SOL    HW2 2158   3.593   3.299   3.048
 2236SOL     OW 2159   2.179   2.409   3.142
 2236SOL    HW1 2160   2.217   2.350   3.214
 2236SOL    HW2 2161   2.219   2.383   3.054
 2237SOL     OW 2162   2.674   3.448   2.549
 2237SOL    HW1 2163   2.706   3.458   2.455
 2237SOL    HW2 2164   2.595   3.386   2.551
 2238SOL     OW 2165   3.286   2.076   2.974
 2238SOL    HW1 2166   3.338   2.011   3.029
 2238SOL    HW2 2167   3.237   2.139   3.035
 2239SOL     OW 2168   2.863   1.896   3.016
 2239SOL    HW1 2169   2.800   1.824   2.985
 2239SOL    HW2 2170   2.956   1.860   3.016
 2240SOL     OW 2171   2.632   3.192   2.163
 2240SOL    HW1 2172   2.586   3.105   2.180
 2240SOL    HW2 2173   2.723   3.189   2.204
 2241SOL     OW 2174   2.480   3.429   3.146
 2241SOL    HW1 2175   2.475   3.511   3.203
 2241SOL    HW2 2176   2.569   3.426   3.101
 2242SOL     OW 2177   3.214   1.914   2.030
 2242SOL    HW1 2178   3.249   1.873   1.946
 2242SOL    HW2 2179   3.124   1.876   2.050
 2243SOL     OW 2180   3.162   2.315   2.553
 2243SOL    HW1 2181   3.103   2.395   2.557
 2243SOL    HW2 2182   3.177   2.280   2.646
 2244SOL     OW 2183   3.455   2.083   2.744
 2244SOL    HW1 2184   3.371   2.082   2.798
 2244SOL    HW2 2185   3.457   2.166   2.688
 2245SOL     OW 2186   1.901   2.939   2.162
 2245SOL    HW1 2187   2.000   2.928   2.153
 2245SOL    HW2 2188   1.861   2.853   2.194
 2246SOL     OW 2189   2.737   3.508   2.199
 2246SOL    HW1 2190   2.660   3.473   2.145
 2246SOL    HW2 2191   2.705   3.579   2.261
 2247SOL     OW 2192   2.092   2.490   3.837
 2247SOL    HW1 2193   1.999   2.488   3.874
 2247SOL    HW2 2194   2.093   2.451   3.745
 2259SOL     OW 2195   2.468   2.826   3.847
 2259SOL    HW1 2196   2.475   2.910   3.793
 2259SOL    HW2 2197   2.514   2.839   3.935
 2269SOL     OW 2198   2.460   2.591   3.994
 2269SOL    HW1 2199   2.484   2.660   3.926
 2269SOL    HW2 2200   2.382   2.624   4.048
 2274SOL     OW 2201   2.727   2.210   3.919
 2274SOL    HW1 2202   2.786   2.273   3.870
 2274SOL    HW2 2203   2.746   2.116   3.890
 2280SOL     OW 2204   2.183   2.805   3.966
 2280SOL    HW1 2205   2.265   2.844   3.924
 2280SOL    HW2 2206   2.156   2.723   3.917
 2287SOL     OW 2207   2.476   1.984   3.841
 2287SOL    HW1 2208   2.574   1.962   3.848
 2287SOL    HW2 2209   2.445   1.967   3.748
 2290SOL     OW 2210   2.159   1.897   3.895
 2290SOL    HW1 2211   2.208   1.981   3.874
 2290SOL    HW2 2212   2.221   1.832   3.940
 2294SOL     OW 2213   2.894   2.411   3.740
 2294SOL    HW1 2214   2.853   2.493   3.701
 2294SOL    HW2 2215   2.958   2.437   3.813
 2300SOL     OW 2216   3.252   2.437   3.802
 2300SOL    HW1 2217   3.198   2.416   3.883
 2300SOL    HW2 2218   3.343   2.396   3.811
 2301SOL     OW 2219   2.389   2.118   4.052
 2301SOL    HW1 2220   2.416   2.059   3.977
 2301SOL    HW2 2221   2.389   2.213   4.021
 2311SOL     OW 2222   3.165   2.700   3.766
 2311SOL    HW1 2223   3.199   2.607   3.781
 2311SOL    HW2 2224   3.183   2.727   3.671
 2315SOL     OW 2225   2.677   2.434   4.049
 2315SOL    HW1 2226   2.684   2.345   4.003
 2315SOL    HW2 2227   2.583   2.468   4.041
 2316SOL     OW 2228   2.335   2.362   3.915
 2316SOL    HW1 2229   2.396   2.442   3.919
 2316SOL    HW2 2230   2.240   2.393   3.922
 2330SOL     OW 2231   1.937   2.207   3.757
 2330SOL    HW1 2232   1.845   2.179   3.728
 2330SOL    HW2 2233   1.968   2.284   3.701
 2331SOL     OW 2234   1.934   2.028   4.042
 2331SOL    HW1 2235   1.917   2.111   3.988
 2331SOL    HW2 2236   2.024   1.991   4.020
 2335SOL     OW 2237   2.721   3.236   3.740
 2335SOL    HW1 2238   2.675   3.251   3.828
 2335SOL    HW2 2239   2.765   3.321   3.710
 2338SOL     OW 2240   2.945   2.846   3.811
 2338SOL    HW1 2241   2.922   2.899   3.729
 2338SOL    HW2 2242   3.026   2.790   3.792
 2361SOL     OW 2243   2.179   3.975   1.801
 2361SOL    HW1 2244   2.250   4.046   1.807
 2361SOL    HW2 2245   2.091   4.014   1.829
 2377SOL     OW 2246   2.643   3.988   1.749
 2377SOL    HW1 2247   2.710   3.927   1.792
 2377SOL    HW2 2248   2.570   4.007   1.814
 2400SOL     OW 2249   2.875   3.829   1.770
 2400SOL    HW1 2250   2.881   3.914   1.718
 2400SOL    HW2 2251   2.907   3.753   1.713
 2401SOL     OW 2252   2.366   3.774   1.740
 2401SOL    HW1 2253   2.324   3.717   1.670
 2401SOL    HW2 2254   2.300   3.843   1.772
 2450SOL     OW 2255   2.087   3.999   2.858
 2450SOL    HW1 2256   2.122   3.982   2.950
 2450SOL    HW2 2257   1.999   3.954   2.846
 2461SOL     OW 2258   2.671   3.728   2.364
 2461SOL    HW1 2259   2.711   3.819   2.355
 2461SOL    HW2 2260   2.571   3.736   2.370
 2472SOL     OW 2261   2.412   3.920   2.747
 2472SOL    HW1 2262   2.407   3.915   2.847
 2472SOL    HW2 2263   2.414   4.016   2.718
 2475SOL     OW 2264   3.262   3.831   2.288
 2475SOL    HW1 2265   3.238   3.794   2.198
 2475SOL    HW2 2266   3.361   3.847   2.292
 2478SOL     OW 2267   2.476   3.846   1.979
 2478SOL    HW1 2268   2.574   3.824   1.986
 2478SOL    HW2 2269   2.445   3.829   1.886
 2482SOL     OW 2270   2.401   3.788   2.374
 2482SOL    HW1 2271   2.320   3.789   2.432
 2482SOL    HW2 2272   2.404   3.871   2.319
 2483SOL     OW 2273   2.159   3.759   2.033
 2483SOL    HW1 2274   2.208   3.843   2.012
 2483SOL    HW2 2275   2.221   3.694   2.078
 2484SOL     OW 2276   2.797   3.960   2.342
 2484SOL    HW1 2277   2.749   4.001   2.264
 2484SOL    HW2 2278   2.896   3.958   2.323
 2488SOL     OW 2279   2.423   3.946   3.009
 2488SOL    HW1 2280   2.461   3.862   3.046
 2488SOL    HW2 2281   2.335   3.965   3.053
 2490SOL     OW 2282   2.879   3.763   2.615
 2490SOL    HW1 2283   2.807   3.768   2.546
 2490SOL    HW2 2284   2.855   3.694   2.684
 2494SOL     OW 2285   2.389   3.980   2.190
 2494SOL    HW1 2286   2.416   3.921   2.115
 2494SOL    HW2 2287   2.389   4.075   2.159
 2507SOL     OW 2288   2.169   3.937   3.093
 2507SOL    HW1 2289   2.146   3.974   3.183
 2507SOL    HW2 2290   2.139   3.842   3.087
 2510SOL     OW 2291   2.169   3.787   2.480
 2510SOL    HW1 2292   2.158   3.881   2.513
 2510SOL    HW2 2293   2.164   3.724   2.557
 2528SOL     OW 2294   2.125   4.050   2.582
 2528SOL    HW1 2295   2.046   4.101   2.548
 2528SOL    HW2 2296   2.116   4.035   2.680
 2530SOL     OW 2297   2.876   3.960   2.833
 2530SOL    HW1 2298   2.868   3.924   2.740
 2530SOL    HW2 2299   2.874   3.884   2.898
 2536SOL     OW 2300   1.934   3.890   2.180
 2536SOL    HW1 2301   1.917   3.973   2.126
 2536SOL    HW2 2302   2.024   3.853   2.158
 2548SOL     OW 2303   2.863   3.758   3.016
 2548SOL    HW1 2304   2.800   3.686   2.985
 2548SOL    HW2 2305   2.956   3.722   3.016
 2549SOL     OW 2306   3.214   3.776   2.030
 2549SOL    HW1 2307   3.249   3.735   1.946
 2549SOL    HW2 2308   3.124   3.738   2.050
 2627SOL     OW 2309   3.854   1.821   1.571
 2627SOL    HW1 2310   3.844   1.806   1.670
 2627SOL    HW2 2311   3.768   1.857   1.535
 2680SOL     OW 2312   3.854   1.794   1.851
 2680SOL    HW1 2313   3.813   1.720   1.904
 2680SOL    HW2 2314   3.918   1.845   1.909
 2715SOL     OW 2315   3.955   1.713   2.345
 2715SOL    HW1 2316   3.989   1.790   2.399
 2715SOL    HW2 2317   3.999   1.713   2.255
 2721SOL     OW 2318   3.751   1.596   1.979
 2721SOL    HW1 2319   3.732   1.500   2.000
 2721SOL    HW2 2320   3.718   1.654   2.054
 2770SOL     OW 2321   3.732   1.326   2.062
 2770SOL    HW1 2322   3.639   1.347   2.031
 2770SOL    HW2 2323   3.742   1.227   2.075
 2771SOL     OW 2324   3.812   1.801   2.789
 2771SOL    HW1 2325   3.770   1.715   2.762
 2771SOL    HW2 2326   3.906   1.804   2.755
 2872SOL     OW 2327   3.837   2.599   1.597
 2872SOL    HW1 2328   3.925   2.586   1.642
 2872SOL    HW2 2329   3.824   2.696   1.575
 2896SOL     OW 2330   3.802   2.418   1.386
 2896SOL    HW1 2331   3.894   2.417   1.345
 2896SOL    HW2 2332   3.796   2.492   1.453
 2923SOL     OW 2333   3.913   2.382   1.722
 2923SOL    HW1 2334   3.972   2.342   1.652
 2923SOL    HW2 2335   3.855   2.453   1.681
 2941SOL     OW 2336   3.829   2.875   1.726
 2941SOL    HW1 2337   3.752   2.842   1.780
 2941SOL    HW2 2338   3.914   2.845   1.768
 2957SOL     OW 2339   3.954   2.490   1.975
 2957SOL    HW1 2340   3.861   2.488   2.012
 2957SOL    HW2 2341   3.955   2.451   1.883
 2958SOL     OW 2342   3.949   2.137   2.858
 2958SOL    HW1 2343   3.984   2.120   2.950
 2958SOL    HW2 2344   3.861   2.092   2.846
 2959SOL     OW 2345   3.743   2.230   2.509
 2959SOL    HW1 2346   3.661   2.273   2.548
 2959SOL    HW2 2347   3.715   2.157   2.446
 2971SOL     OW 2348   3.846   2.505   2.425
 2971SOL    HW1 2349   3.801   2.417   2.442
 2971SOL    HW2 2350   3.845   2.559   2.509
 2980SOL     OW 2351   3.800   2.673   2.651
 2980SOL    HW1 2352   3.899   2.661   2.660
 2980SOL    HW2 2353   3.776   2.768   2.672
 2984SOL     OW 2354   4.045   2.805   2.104
 2984SOL    HW1 2355   4.127   2.844   2.062
 2984SOL    HW2 2356   4.018   2.723   2.055
 2990SOL     OW 2357   4.106   2.562   2.342
 2990SOL    HW1 2358   4.151   2.472   2.339
 2990SOL    HW2 2359   4.012   2.551   2.375
 2996SOL     OW 2360   4.021   1.897   2.033
 2996SOL    HW1 2361   4.070   1.981   2.012
 2996SOL    HW2 2362   4.083   1.832   2.078
 2998SOL     OW 2363   3.802   2.418   3.248
 2998SOL    HW1 2364   3.894   2.417   3.207
 2998SOL    HW2 2365   3.796   2.492   3.315
 3015SOL     OW 2366   4.031   1.925   2.480
 3015SOL    HW1 2367   4.020   2.019   2.513
 3015SOL    HW2 2368   4.026   1.862   2.557
 3021SOL     OW 2369   3.732   3.188   2.062
 3021SOL    HW1 2370   3.639   3.209   2.031
 3021SOL    HW2 2371   3.742   3.089   2.075
 3024SOL     OW 2372   3.764   2.406   2.976
 3024SOL    HW1 2373   3.849   2.373   2.935
 3024SOL    HW2 2374   3.777   2.421   3.074
 3031SOL     OW 2375   3.807   3.120   2.884
 3031SOL    HW1 2376   3.802   3.119   2.984
 3031SOL    HW2 2377   3.724   3.079   2.846
 3037SOL     OW 2378   3.987   2.188   2.582
 3037SOL    HW1 2379   3.908   2.239   2.548
 3037SOL    HW2 2380   3.978   2.173   2.680
 3044SOL     OW 2381   3.799   2.207   1.895
 3044SOL    HW1 2382   3.707   2.179   1.866
 3044SOL    HW2 2383   3.830   2.284   1.839
 3045SOL     OW 2384   3.796   2.028   2.180
 3045SOL    HW1 2385   3.779   2.111   2.126
 3045SOL    HW2 2386   3.886   1.991   2.158
 3052SOL     OW 2387   3.803   3.102   2.515
 3052SOL    HW1 2388   3.802   3.055   2.603
 3052SOL    HW2 2389   3.885   3.074   2.464
 3058SOL     OW 2390   3.763   2.939   2.162
 3058SOL    HW1 2391   3.862   2.928   2.153
 3058SOL    HW2 2392   3.723   2.853   2.194
   4.65295   4.65295   4.65295
