; mobley_1244778_GMX.itp created by acpype (v: 2023.10.27) on Thu May 21 00:26:32 2026

[ atomtypes ]
;name   bond_type     mass     charge   ptype   sigma         epsilon       Amb
 c3       c3          0.00000  0.00000   A     3.39771e-01   4.51035e-01 ; 1.91  0.1078
 oh       oh          0.00000  0.00000   A     3.24287e-01   3.89112e-01 ; 1.82  0.0930
 hc       hc          0.00000  0.00000   A     2.60018e-01   8.70272e-02 ; 1.46  0.0208
 h1       h1          0.00000  0.00000   A     2.42200e-01   8.70272e-02 ; 1.36  0.0208
 ho       ho          0.00000  0.00000   A     5.37925e-02   1.96648e-02 ; 0.30  0.0047

[ moleculetype ]
;name            nrexcl
 mobley_1244778   3

[ atoms ]
;   nr  type  resi  res  atom  cgnr     charge      mass       ; qtot   bond_type
     1   c3     1   MOL    C1    1    -0.074900     12.01000 ; qtot -0.075
     2   c3     1   MOL    C2    2    -0.074900     12.01000 ; qtot -0.150
     3   c3     1   MOL    C3    3    -0.069900     12.01000 ; qtot -0.220
     4   c3     1   MOL    C4    4    -0.069900     12.01000 ; qtot -0.290
     5   c3     1   MOL    C5    5    -0.107900     12.01000 ; qtot -0.398
     6   c3     1   MOL    C6    6    -0.107900     12.01000 ; qtot -0.505
     7   c3     1   MOL    C7    7     0.139100     12.01000 ; qtot -0.366
     8   oh     1   MOL    O1    8    -0.600800     16.00000 ; qtot -0.967
     9   hc     1   MOL    H1    9     0.037200      1.00800 ; qtot -0.930
    10   hc     1   MOL    H2   10     0.037200      1.00800 ; qtot -0.893
    11   hc     1   MOL    H3   11     0.037200      1.00800 ; qtot -0.855
    12   hc     1   MOL    H4   12     0.037200      1.00800 ; qtot -0.818
    13   hc     1   MOL    H5   13     0.040950      1.00800 ; qtot -0.777
    14   hc     1   MOL    H6   14     0.040950      1.00800 ; qtot -0.736
    15   hc     1   MOL    H7   15     0.040950      1.00800 ; qtot -0.695
    16   hc     1   MOL    H8   16     0.040950      1.00800 ; qtot -0.654
    17   hc     1   MOL    H9   17     0.046450      1.00800 ; qtot -0.608
    18   hc     1   MOL   H10   18     0.046450      1.00800 ; qtot -0.562
    19   hc     1   MOL   H11   19     0.046450      1.00800 ; qtot -0.515
    20   hc     1   MOL   H12   20     0.046450      1.00800 ; qtot -0.469
    21   h1     1   MOL   H13   21     0.073700      1.00800 ; qtot -0.395
    22   ho     1   MOL   H14   22     0.395000      1.00800 ; qtot 0.000

[ bonds ]
;   ai     aj funct   r             k
     1      2   1    1.5354e-01    1.9154e+05 ;     C1 - C2    
     1      3   1    1.5354e-01    1.9154e+05 ;     C1 - C3    
     1      9   1    1.0962e-01    2.8891e+05 ;     C1 - H1    
     1     10   1    1.0962e-01    2.8891e+05 ;     C1 - H2    
     2      4   1    1.5354e-01    1.9154e+05 ;     C2 - C4    
     2     11   1    1.0962e-01    2.8891e+05 ;     C2 - H3    
     2     12   1    1.0962e-01    2.8891e+05 ;     C2 - H4    
     3      5   1    1.5354e-01    1.9154e+05 ;     C3 - C5    
     3     13   1    1.0962e-01    2.8891e+05 ;     C3 - H5    
     3     14   1    1.0962e-01    2.8891e+05 ;     C3 - H6    
     4      6   1    1.5354e-01    1.9154e+05 ;     C4 - C6    
     4     15   1    1.0962e-01    2.8891e+05 ;     C4 - H7    
     4     16   1    1.0962e-01    2.8891e+05 ;     C4 - H8    
     5      7   1    1.5354e-01    1.9154e+05 ;     C5 - C7    
     5     17   1    1.0962e-01    2.8891e+05 ;     C5 - H9    
     5     18   1    1.0962e-01    2.8891e+05 ;     C5 - H10   
     6      7   1    1.5354e-01    1.9154e+05 ;     C6 - C7    
     6     19   1    1.0962e-01    2.8891e+05 ;     C6 - H11   
     6     20   1    1.0962e-01    2.8891e+05 ;     C6 - H12   
     7      8   1    1.4242e-01    2.3861e+05 ;     C7 - O1    
     7     21   1    1.0969e-01    2.8804e+05 ;     C7 - H13   
     8     22   1    9.7250e-02    4.4811e+05 ;     O1 - H14   

[ pairs ]
;   ai     aj    funct
     1      6      1 ;     C1 - C6    
     1      7      1 ;     C1 - C7    
     1     15      1 ;     C1 - H7    
     1     16      1 ;     C1 - H8    
     1     17      1 ;     C1 - H9    
     1     18      1 ;     C1 - H10   
     2      5      1 ;     C2 - C5    
     2      7      1 ;     C2 - C7    
     2     13      1 ;     C2 - H5    
     2     14      1 ;     C2 - H6    
     2     19      1 ;     C2 - H11   
     2     20      1 ;     C2 - H12   
     3      4      1 ;     C3 - C4    
     3      6      1 ;     C3 - C6    
     3      8      1 ;     C3 - O1    
     3     11      1 ;     C3 - H3    
     3     12      1 ;     C3 - H4    
     3     21      1 ;     C3 - H13   
     4      5      1 ;     C4 - C5    
     4      8      1 ;     C4 - O1    
     4     21      1 ;     C4 - H13   
     5     19      1 ;     C5 - H11   
     5     20      1 ;     C5 - H12   
     5     22      1 ;     C5 - H14   
     6     11      1 ;     C6 - H3    
     6     12      1 ;     C6 - H4    
     6     17      1 ;     C6 - H9    
     6     18      1 ;     C6 - H10   
     6     22      1 ;     C6 - H14   
     7     13      1 ;     C7 - H5    
     7     14      1 ;     C7 - H6    
     7     15      1 ;     C7 - H7    
     7     16      1 ;     C7 - H8    
     8     17      1 ;     O1 - H9    
     8     18      1 ;     O1 - H10   
     8     19      1 ;     O1 - H11   
     8     20      1 ;     O1 - H12   
     9      4      1 ;     H1 - C4    
     9      5      1 ;     H1 - C5    
     9     11      1 ;     H1 - H3    
     9     12      1 ;     H1 - H4    
     9     13      1 ;     H1 - H5    
     9     14      1 ;     H1 - H6    
    10      4      1 ;     H2 - C4    
    10      5      1 ;     H2 - C5    
    10     11      1 ;     H2 - H3    
    10     12      1 ;     H2 - H4    
    10     13      1 ;     H2 - H5    
    10     14      1 ;     H2 - H6    
    11     15      1 ;     H3 - H7    
    11     16      1 ;     H3 - H8    
    12     15      1 ;     H4 - H7    
    12     16      1 ;     H4 - H8    
    13     17      1 ;     H5 - H9    
    13     18      1 ;     H5 - H10   
    14     17      1 ;     H6 - H9    
    14     18      1 ;     H6 - H10   
    15     19      1 ;     H7 - H11   
    15     20      1 ;     H7 - H12   
    16     19      1 ;     H8 - H11   
    16     20      1 ;     H8 - H12   
    17     21      1 ;     H9 - H13   
    18     21      1 ;    H10 - H13   
    19     21      1 ;    H11 - H13   
    20     21      1 ;    H12 - H13   
    21     22      1 ;    H13 - H14   

[ angles ]
;   ai     aj     ak    funct   theta         cth
     1      2      4      1    1.1263e+02    5.0099e+02 ;     C1 - C2     - C4    
     1      2     11      1    1.0968e+02    3.6208e+02 ;     C1 - C2     - H3    
     1      2     12      1    1.0968e+02    3.6208e+02 ;     C1 - C2     - H4    
     1      3      5      1    1.1263e+02    5.0099e+02 ;     C1 - C3     - C5    
     1      3     13      1    1.0968e+02    3.6208e+02 ;     C1 - C3     - H5    
     1      3     14      1    1.0968e+02    3.6208e+02 ;     C1 - C3     - H6    
     2      1      3      1    1.1263e+02    5.0099e+02 ;     C2 - C1     - C3    
     2      1      9      1    1.0968e+02    3.6208e+02 ;     C2 - C1     - H1    
     2      1     10      1    1.0968e+02    3.6208e+02 ;     C2 - C1     - H2    
     2      4      6      1    1.1263e+02    5.0099e+02 ;     C2 - C4     - C6    
     2      4     15      1    1.0968e+02    3.6208e+02 ;     C2 - C4     - H7    
     2      4     16      1    1.0968e+02    3.6208e+02 ;     C2 - C4     - H8    
     3      1      9      1    1.0968e+02    3.6208e+02 ;     C3 - C1     - H1    
     3      1     10      1    1.0968e+02    3.6208e+02 ;     C3 - C1     - H2    
     3      5      7      1    1.1263e+02    5.0099e+02 ;     C3 - C5     - C7    
     3      5     17      1    1.0968e+02    3.6208e+02 ;     C3 - C5     - H9    
     3      5     18      1    1.0968e+02    3.6208e+02 ;     C3 - C5     - H10   
     4      2     11      1    1.0968e+02    3.6208e+02 ;     C4 - C2     - H3    
     4      2     12      1    1.0968e+02    3.6208e+02 ;     C4 - C2     - H4    
     4      6      7      1    1.1263e+02    5.0099e+02 ;     C4 - C6     - C7    
     4      6     19      1    1.0968e+02    3.6208e+02 ;     C4 - C6     - H11   
     4      6     20      1    1.0968e+02    3.6208e+02 ;     C4 - C6     - H12   
     5      3     13      1    1.0968e+02    3.6208e+02 ;     C5 - C3     - H5    
     5      3     14      1    1.0968e+02    3.6208e+02 ;     C5 - C3     - H6    
     5      7      6      1    1.1263e+02    5.0099e+02 ;     C5 - C7     - C6    
     5      7      8      1    1.0966e+02    6.4258e+02 ;     C5 - C7     - O1    
     5      7     21      1    1.0959e+02    3.6217e+02 ;     C5 - C7     - H13   
     6      4     15      1    1.0968e+02    3.6208e+02 ;     C6 - C4     - H7    
     6      4     16      1    1.0968e+02    3.6208e+02 ;     C6 - C4     - H8    
     6      7      8      1    1.0966e+02    6.4258e+02 ;     C6 - C7     - O1    
     6      7     21      1    1.0959e+02    3.6217e+02 ;     C6 - C7     - H13   
     7      5     17      1    1.0968e+02    3.6208e+02 ;     C7 - C5     - H9    
     7      5     18      1    1.0968e+02    3.6208e+02 ;     C7 - C5     - H10   
     7      6     19      1    1.0968e+02    3.6208e+02 ;     C7 - C6     - H11   
     7      6     20      1    1.0968e+02    3.6208e+02 ;     C7 - C6     - H12   
     7      8     22      1    1.0739e+02    5.4501e+02 ;     C7 - O1     - H14   
     8      7     21      1    1.1038e+02    4.7103e+02 ;     O1 - C7     - H13   
     9      1     10      1    1.0773e+02    2.9957e+02 ;     H1 - C1     - H2    
    11      2     12      1    1.0773e+02    2.9957e+02 ;     H3 - C2     - H4    
    13      3     14      1    1.0773e+02    2.9957e+02 ;     H5 - C3     - H6    
    15      4     16      1    1.0773e+02    2.9957e+02 ;     H7 - C4     - H8    
    17      5     18      1    1.0773e+02    2.9957e+02 ;     H9 - C5     - H10   
    19      6     20      1    1.0773e+02    2.9957e+02 ;    H11 - C6     - H12   

[ dihedrals ] ; propers
; for gromacs 4.5 or higher, using funct 9
;    i      j      k      l   func   phase     kd      pn
     1      2      4      6      9     0.00   2.17568   3 ;     C1-    C2-    C4-    C6
     1      2      4     15      9     0.00   0.54392   3 ;     C1-    C2-    C4-    H7
     1      2      4     16      9     0.00   0.54392   3 ;     C1-    C2-    C4-    H8
     1      3      5      7      9     0.00   2.17568   3 ;     C1-    C3-    C5-    C7
     1      3      5     17      9     0.00   0.54392   3 ;     C1-    C3-    C5-    H9
     1      3      5     18      9     0.00   0.54392   3 ;     C1-    C3-    C5-   H10
     2      1      3      5      9     0.00   2.17568   3 ;     C2-    C1-    C3-    C5
     2      1      3     13      9     0.00   0.54392   3 ;     C2-    C1-    C3-    H5
     2      1      3     14      9     0.00   0.54392   3 ;     C2-    C1-    C3-    H6
     2      4      6      7      9     0.00   2.17568   3 ;     C2-    C4-    C6-    C7
     2      4      6     19      9     0.00   0.54392   3 ;     C2-    C4-    C6-   H11
     2      4      6     20      9     0.00   0.54392   3 ;     C2-    C4-    C6-   H12
     3      1      2      4      9     0.00   2.17568   3 ;     C3-    C1-    C2-    C4
     3      1      2     11      9     0.00   0.54392   3 ;     C3-    C1-    C2-    H3
     3      1      2     12      9     0.00   0.54392   3 ;     C3-    C1-    C2-    H4
     3      5      7      6      9     0.00   2.17568   3 ;     C3-    C5-    C7-    C6
     3      5      7      8      9     0.00   0.75312   3 ;     C3-    C5-    C7-    O1
     3      5      7     21      9     0.00   0.65084   3 ;     C3-    C5-    C7-   H13
     4      6      7      5      9     0.00   2.17568   3 ;     C4-    C6-    C7-    C5
     4      6      7      8      9     0.00   0.75312   3 ;     C4-    C6-    C7-    O1
     4      6      7     21      9     0.00   0.65084   3 ;     C4-    C6-    C7-   H13
     5      7      6     19      9     0.00   0.54392   3 ;     C5-    C7-    C6-   H11
     5      7      6     20      9     0.00   0.54392   3 ;     C5-    C7-    C6-   H12
     5      7      8     22      9     0.00   0.25104   3 ;     C5-    C7-    O1-   H14
     6      4      2     11      9     0.00   0.54392   3 ;     C6-    C4-    C2-    H3
     6      4      2     12      9     0.00   0.54392   3 ;     C6-    C4-    C2-    H4
     6      7      5     17      9     0.00   0.54392   3 ;     C6-    C7-    C5-    H9
     6      7      5     18      9     0.00   0.54392   3 ;     C6-    C7-    C5-   H10
     6      7      8     22      9     0.00   0.25104   3 ;     C6-    C7-    O1-   H14
     7      5      3     13      9     0.00   0.54392   3 ;     C7-    C5-    C3-    H5
     7      5      3     14      9     0.00   0.54392   3 ;     C7-    C5-    C3-    H6
     7      6      4     15      9     0.00   0.54392   3 ;     C7-    C6-    C4-    H7
     7      6      4     16      9     0.00   0.54392   3 ;     C7-    C6-    C4-    H8
     8      7      5     17      9     0.00   0.37656   3 ;     O1-    C7-    C5-    H9
     8      7      5     18      9     0.00   0.37656   3 ;     O1-    C7-    C5-   H10
     8      7      6     19      9     0.00   0.37656   3 ;     O1-    C7-    C6-   H11
     8      7      6     20      9     0.00   0.37656   3 ;     O1-    C7-    C6-   H12
     9      1      2      4      9     0.00   0.54392   3 ;     H1-    C1-    C2-    C4
     9      1      2     11      9     0.00   0.50208   3 ;     H1-    C1-    C2-    H3
     9      1      2     12      9     0.00   0.50208   3 ;     H1-    C1-    C2-    H4
     9      1      3      5      9     0.00   0.54392   3 ;     H1-    C1-    C3-    C5
     9      1      3     13      9     0.00   0.50208   3 ;     H1-    C1-    C3-    H5
     9      1      3     14      9     0.00   0.50208   3 ;     H1-    C1-    C3-    H6
    10      1      2      4      9     0.00   0.54392   3 ;     H2-    C1-    C2-    C4
    10      1      2     11      9     0.00   0.50208   3 ;     H2-    C1-    C2-    H3
    10      1      2     12      9     0.00   0.50208   3 ;     H2-    C1-    C2-    H4
    10      1      3      5      9     0.00   0.54392   3 ;     H2-    C1-    C3-    C5
    10      1      3     13      9     0.00   0.50208   3 ;     H2-    C1-    C3-    H5
    10      1      3     14      9     0.00   0.50208   3 ;     H2-    C1-    C3-    H6
    11      2      4     15      9     0.00   0.50208   3 ;     H3-    C2-    C4-    H7
    11      2      4     16      9     0.00   0.50208   3 ;     H3-    C2-    C4-    H8
    12      2      4     15      9     0.00   0.50208   3 ;     H4-    C2-    C4-    H7
    12      2      4     16      9     0.00   0.50208   3 ;     H4-    C2-    C4-    H8
    13      3      5     17      9     0.00   0.50208   3 ;     H5-    C3-    C5-    H9
    13      3      5     18      9     0.00   0.50208   3 ;     H5-    C3-    C5-   H10
    14      3      5     17      9     0.00   0.50208   3 ;     H6-    C3-    C5-    H9
    14      3      5     18      9     0.00   0.50208   3 ;     H6-    C3-    C5-   H10
    15      4      6     19      9     0.00   0.50208   3 ;     H7-    C4-    C6-   H11
    15      4      6     20      9     0.00   0.50208   3 ;     H7-    C4-    C6-   H12
    16      4      6     19      9     0.00   0.50208   3 ;     H8-    C4-    C6-   H11
    16      4      6     20      9     0.00   0.50208   3 ;     H8-    C4-    C6-   H12
    17      5      7     21      9     0.00   0.65084   3 ;     H9-    C5-    C7-   H13
    18      5      7     21      9     0.00   0.65084   3 ;    H10-    C5-    C7-   H13
    19      6      7     21      9     0.00   0.65084   3 ;    H11-    C6-    C7-   H13
    20      6      7     21      9     0.00   0.65084   3 ;    H12-    C6-    C7-   H13
    21      7      8     22      9     0.00   0.51463   3 ;    H13-    C7-    O1-   H14
