mobley_3151666_GMX.gro created by acpype (v: 2023.10.27) on Tue May 19 12:42:03 2026
 2388
    1MOL     C1    1   2.839   3.063   3.161
    1MOL     C2    2   2.796   3.046   3.016
    1MOL     C3    3   2.796   2.899   2.974
    1MOL     C4    4   2.750   2.882   2.829
    1MOL     C5    5   2.747   2.734   2.789
    1MOL     C6    6   2.695   2.711   2.647
    1MOL     C7    7   2.685   2.563   2.610
    1MOL     C8    8   2.635   2.545   2.466
    1MOL     C9    9   2.622   2.397   2.429
    1MOL    C10   10   2.569   2.377   2.288
    1MOL     O1   11   2.561   2.238   2.258
    1MOL     H1   12   2.940   3.025   3.176
    1MOL     H2   13   2.771   3.009   3.228
    1MOL     H3   14   2.838   3.169   3.188
    1MOL     H4   15   2.696   3.088   3.003
    1MOL     H5   16   2.864   3.103   2.951
    1MOL     H6   17   2.898   2.858   2.985
    1MOL     H7   18   2.731   2.842   3.041
    1MOL     H8   19   2.818   2.937   2.763
    1MOL     H9   20   2.650   2.925   2.817
    1MOL    H10   21   2.848   2.691   2.799
    1MOL    H11   22   2.682   2.679   2.859
    1MOL    H12   23   2.759   2.763   2.575
    1MOL    H13   24   2.595   2.756   2.640
    1MOL    H14   25   2.616   2.512   2.679
    1MOL    H15   26   2.783   2.515   2.620
    1MOL    H16   27   2.704   2.594   2.397
    1MOL    H17   28   2.538   2.595   2.455
    1MOL    H18   29   2.719   2.348   2.438
    1MOL    H19   30   2.554   2.349   2.501
    1MOL    H20   31   2.637   2.423   2.216
    1MOL    H21   32   2.469   2.422   2.276
    1MOL    H22   33   2.483   2.226   2.201
  219SOL     OW   34   1.555   1.511   2.565
  219SOL    HW1   35   1.498   1.495   2.646
  219SOL    HW2   36   1.496   1.521   2.485
  227SOL     OW   37   1.460   1.505   3.201
  227SOL    HW1   38   1.484   1.599   3.227
  227SOL    HW2   39   1.444   1.451   3.283
  238SOL     OW   40   1.842   1.767   2.221
  238SOL    HW1   41   1.896   1.738   2.301
  238SOL    HW2   42   1.872   1.857   2.192
  250SOL     OW   43   1.466   1.417   2.815
  250SOL    HW1   44   1.407   1.423   2.895
  250SOL    HW2   45   1.451   1.329   2.769
  251SOL     OW   46   1.667   1.714   2.434
  251SOL    HW1   47   1.626   1.691   2.346
  251SOL    HW2   48   1.649   1.640   2.499
  254SOL     OW   49   1.576   1.662   2.169
  254SOL    HW1   50   1.665   1.708   2.172
  254SOL    HW2   51   1.555   1.638   2.074
  295SOL     OW   52   1.271   1.797   2.453
  295SOL    HW1   53   1.315   1.861   2.389
  295SOL    HW2   54   1.221   1.849   2.523
  305SOL     OW   55   1.664   1.280   2.519
  305SOL    HW1   56   1.763   1.288   2.533
  305SOL    HW2   57   1.619   1.364   2.550
  310SOL     OW   58   1.592   1.629   3.487
  310SOL    HW1   59   1.619   1.663   3.397
  310SOL    HW2   60   1.671   1.591   3.533
  340SOL     OW   61   1.859   1.518   3.467
  340SOL    HW1   62   1.873   1.545   3.372
  340SOL    HW2   63   1.942   1.540   3.520
  365SOL     OW   64   1.759   1.747   3.016
  365SOL    HW1   65   1.820   1.777   2.943
  365SOL    HW2   66   1.721   1.658   2.994
  366SOL     OW   67   1.252   1.731   2.990
  366SOL    HW1   68   1.336   1.736   2.936
  366SOL    HW2   69   1.229   1.635   3.008
  370SOL     OW   70   1.388   1.573   2.339
  370SOL    HW1   71   1.455   1.585   2.265
  370SOL    HW2   72   1.348   1.662   2.362
  375SOL     OW   73   1.650   1.720   3.256
  375SOL    HW1   74   1.703   1.730   3.172
  375SOL    HW2   75   1.623   1.810   3.290
  396SOL     OW   76   1.493   1.767   2.821
  396SOL    HW1   77   1.526   1.831   2.752
  396SOL    HW2   78   1.559   1.761   2.896
  409SOL     OW   79   1.861   1.569   2.713
  409SOL    HW1   80   1.790   1.557   2.643
  409SOL    HW2   81   1.862   1.490   2.773
  415SOL     OW   82   1.705   1.487   2.966
  415SOL    HW1   83   1.612   1.462   2.939
  415SOL    HW2   84   1.731   1.437   3.048
  655SOL     OW   85   1.394   2.331   1.674
  655SOL    HW1   86   1.374   2.374   1.762
  655SOL    HW2   87   1.472   2.269   1.683
  662SOL     OW   88   1.719   2.447   1.831
  662SOL    HW1   89   1.693   2.536   1.795
  662SOL    HW2   90   1.717   2.379   1.758
  680SOL     OW   91   1.547   2.084   1.729
  680SOL    HW1   92   1.542   2.121   1.821
  680SOL    HW2   93   1.475   2.015   1.717
  707SOL     OW   94   1.754   3.085   1.588
  707SOL    HW1   95   1.845   3.046   1.575
  707SOL    HW2   96   1.762   3.181   1.612
  709SOL     OW   97   1.592   3.491   1.625
  709SOL    HW1   98   1.619   3.525   1.535
  709SOL    HW2   99   1.671   3.453   1.671
  725SOL     OW  100   1.587   2.641   1.670
  725SOL    HW1  101   1.495   2.679   1.665
  725SOL    HW2  102   1.647   2.688   1.605
  734SOL     OW  103   1.728   2.797   1.854
  734SOL    HW1  104   1.682   2.790   1.765
  734SOL    HW2  105   1.666   2.841   1.920
  739SOL     OW  106   1.859   3.380   1.605
  739SOL    HW1  107   1.873   3.407   1.510
  739SOL    HW2  108   1.942   3.402   1.658
  754SOL     OW  109   1.369   2.812   1.660
  754SOL    HW1  110   1.408   2.901   1.680
  754SOL    HW2  111   1.379   2.792   1.563
  787SOL     OW  112   1.709   2.247   1.381
  787SOL    HW1  113   1.782   2.316   1.385
  787SOL    HW2  114   1.737   2.172   1.322
  798SOL     OW  115   1.450   3.082   1.633
  798SOL    HW1  116   1.441   3.072   1.732
  798SOL    HW2  117   1.546   3.075   1.607
  800SOL     OW  118   1.674   2.745   1.254
  800SOL    HW1  119   1.647   2.656   1.217
  800SOL    HW2  120   1.675   2.813   1.181
  803SOL     OW  121   1.777   2.204   1.642
  803SOL    HW1  122   1.760   2.235   1.548
  803SOL    HW2  123   1.693   2.167   1.680
  804SOL     OW  124   1.730   2.796   1.517
  804SOL    HW1  125   1.768   2.887   1.532
  804SOL    HW2  126   1.722   2.779   1.418
  831SOL     OW  127   1.555   3.373   2.565
  831SOL    HW1  128   1.498   3.357   2.646
  831SOL    HW2  129   1.496   3.383   2.485
  832SOL     OW  130   1.135   2.565   2.579
  832SOL    HW1  131   1.192   2.643   2.554
  832SOL    HW2  132   1.075   2.591   2.655
  833SOL     OW  133   1.755   2.469   2.093
  833SOL    HW1  134   1.743   2.456   1.994
  833SOL    HW2  135   1.725   2.388   2.142
  839SOL     OW  136   1.460   3.367   3.201
  839SOL    HW1  137   1.484   3.461   3.227
  839SOL    HW2  138   1.444   3.313   3.283
  841SOL     OW  139   1.603   2.309   2.599
  841SOL    HW1  140   1.529   2.355   2.549
  841SOL    HW2  141   1.654   2.377   2.652
  848SOL     OW  142   1.594   1.976   3.342
  848SOL    HW1  143   1.576   2.043   3.270
  848SOL    HW2  144   1.591   2.022   3.431
  850SOL     OW  145   1.842   3.629   2.221
  850SOL    HW1  146   1.896   3.600   2.301
  850SOL    HW2  147   1.872   3.719   2.192
  852SOL     OW  148   1.689   2.784   2.474
  852SOL    HW1  149   1.784   2.755   2.482
  852SOL    HW2  150   1.681   2.849   2.399
  853SOL     OW  151   1.641   2.970   2.294
  853SOL    HW1  152   1.727   2.972   2.242
  853SOL    HW2  153   1.655   3.017   2.382
  856SOL     OW  154   1.293   3.090   3.285
  856SOL    HW1  155   1.330   3.017   3.227
  856SOL    HW2  156   1.345   3.095   3.370
  859SOL     OW  157   1.525   2.861   2.052
  859SOL    HW1  158   1.462   2.785   2.065
  859SOL    HW2  159   1.573   2.879   2.138
  862SOL     OW  160   1.466   3.279   2.815
  862SOL    HW1  161   1.407   3.285   2.895
  862SOL    HW2  162   1.451   3.191   2.769
  863SOL     OW  163   1.667   3.576   2.434
  863SOL    HW1  164   1.626   3.553   2.346
  863SOL    HW2  165   1.649   3.502   2.499
  865SOL     OW  166   1.281   2.207   2.806
  865SOL    HW1  167   1.195   2.157   2.793
  865SOL    HW2  168   1.343   2.153   2.862
  866SOL     OW  169   1.576   3.524   2.169
  866SOL    HW1  170   1.665   3.570   2.172
  866SOL    HW2  171   1.555   3.500   2.074
  868SOL     OW  172   1.394   2.331   3.536
  868SOL    HW1  173   1.374   2.374   3.624
  868SOL    HW2  174   1.472   2.269   3.545
  871SOL     OW  175   1.041   2.563   2.291
  871SOL    HW1  176   1.067   2.559   2.387
  871SOL    HW2  177   0.956   2.512   2.277
  875SOL     OW  178   1.719   2.447   3.693
  875SOL    HW1  179   1.693   2.536   3.657
  875SOL    HW2  180   1.717   2.379   3.620
  876SOL     OW  181   1.362   3.006   2.407
  876SOL    HW1  182   1.445   2.977   2.359
  876SOL    HW2  183   1.313   3.073   2.351
  880SOL     OW  184   1.795   2.928   2.735
  880SOL    HW1  185   1.733   2.913   2.659
  880SOL    HW2  186   1.743   2.939   2.820
  881SOL     OW  187   1.227   3.412   3.368
  881SOL    HW1  188   1.233   3.335   3.432
  881SOL    HW2  189   1.175   3.386   3.288
  883SOL     OW  190   1.458   2.597   2.590
  883SOL    HW1  191   1.453   2.532   2.665
  883SOL    HW2  192   1.538   2.656   2.603
  887SOL     OW  193   1.632   3.239   1.943
  887SOL    HW1  194   1.600   3.333   1.933
  887SOL    HW2  195   1.556   3.176   1.931
  889SOL     OW  196   1.400   1.969   2.288
  889SOL    HW1  197   1.376   1.932   2.198
  889SOL    HW2  198   1.499   1.985   2.292
  893SOL     OW  199   1.547   2.084   3.591
  893SOL    HW1  200   1.542   2.121   3.683
  893SOL    HW2  201   1.475   2.015   3.579
  897SOL     OW  202   1.351   2.452   3.295
  897SOL    HW1  203   1.379   2.409   3.380
  897SOL    HW2  204   1.376   2.548   3.296
  901SOL     OW  205   1.434   3.050   1.903
  901SOL    HW1  206   1.466   2.974   1.960
  901SOL    HW2  207   1.342   3.077   1.933
  904SOL     OW  208   1.076   2.545   3.326
  904SOL    HW1  209   0.996   2.484   3.329
  904SOL    HW2  210   1.157   2.492   3.302
  905SOL     OW  211   1.227   3.432   2.655
  905SOL    HW1  212   1.248   3.506   2.590
  905SOL    HW2  213   1.295   3.432   2.728
  907SOL     OW  214   1.271   3.659   2.453
  907SOL    HW1  215   1.315   3.723   2.389
  907SOL    HW2  216   1.221   3.711   2.523
  913SOL     OW  217   1.429   3.035   2.729
  913SOL    HW1  218   1.374   2.951   2.722
  913SOL    HW2  219   1.455   3.064   2.637
  914SOL     OW  220   1.466   2.452   2.854
  914SOL    HW1  221   1.436   2.357   2.861
  914SOL    HW2  222   1.539   2.468   2.920
  915SOL     OW  223   1.857   2.695   2.239
  915SOL    HW1  224   1.899   2.631   2.303
  915SOL    HW2  225   1.819   2.644   2.161
  917SOL     OW  226   1.664   3.142   2.519
  917SOL    HW1  227   1.763   3.150   2.533
  917SOL    HW2  228   1.619   3.226   2.550
  918SOL     OW  229   1.390   2.437   1.940
  918SOL    HW1  230   1.336   2.416   2.021
  918SOL    HW2  231   1.481   2.396   1.949
  920SOL     OW  232   1.754   3.085   3.450
  920SOL    HW1  233   1.845   3.046   3.437
  920SOL    HW2  234   1.762   3.181   3.474
  921SOL     OW  235   1.064   3.209   3.202
  921SOL    HW1  236   0.984   3.186   3.257
  921SOL    HW2  237   1.147   3.183   3.251
  922SOL     OW  238   1.592   3.491   3.487
  922SOL    HW1  239   1.619   3.525   3.397
  922SOL    HW2  240   1.671   3.453   3.533
  923SOL     OW  241   1.111   3.057   2.962
  923SOL    HW1  242   1.071   3.101   3.043
  923SOL    HW2  243   1.070   3.094   2.879
  924SOL     OW  244   1.638   2.961   2.941
  924SOL    HW1  245   1.643   3.042   3.000
  924SOL    HW2  246   1.552   2.963   2.890
  929SOL     OW  247   1.274   2.248   3.124
  929SOL    HW1  248   1.295   2.322   3.188
  929SOL    HW2  249   1.185   2.265   3.081
  933SOL     OW  250   1.252   3.210   2.250
  933SOL    HW1  251   1.302   3.287   2.290
  933SOL    HW2  252   1.157   3.212   2.282
  934SOL     OW  253   1.272   3.307   3.004
  934SOL    HW1  254   1.319   3.320   3.091
  934SOL    HW2  255   1.206   3.233   3.013
  935SOL     OW  256   1.582   2.501   2.334
  935SOL    HW1  257   1.551   2.562   2.407
  935SOL    HW2  258   1.632   2.553   2.265
  938SOL     OW  259   1.587   2.641   3.532
  938SOL    HW1  260   1.495   2.679   3.527
  938SOL    HW2  261   1.647   2.688   3.467
  942SOL     OW  262   1.360   2.724   2.907
  942SOL    HW1  263   1.285   2.724   2.841
  942SOL    HW2  264   1.397   2.632   2.916
  943SOL     OW  265   1.209   2.387   2.137
  943SOL    HW1  266   1.222   2.303   2.191
  943SOL    HW2  267   1.180   2.461   2.197
  947SOL     OW  268   1.728   2.797   3.716
  947SOL    HW1  269   1.682   2.790   3.627
  947SOL    HW2  270   1.666   2.841   3.782
  949SOL     OW  271   1.622   2.229   2.236
  949SOL    HW1  272   1.624   2.153   2.300
  949SOL    HW2  273   1.574   2.306   2.276
  950SOL     OW  274   1.023   2.628   2.828
  950SOL    HW1  275   1.038   2.649   2.924
  950SOL    HW2  276   0.993   2.533   2.819
  952SOL     OW  277   1.859   3.380   3.467
  952SOL    HW1  278   1.873   3.407   3.372
  952SOL    HW2  279   1.942   3.402   3.520
  954SOL     OW  280   1.540   2.136   1.987
  954SOL    HW1  281   1.479   2.061   2.010
  954SOL    HW2  282   1.562   2.188   2.070
  955SOL     OW  283   1.303   2.700   1.904
  955SOL    HW1  284   1.337   2.607   1.919
  955SOL    HW2  285   1.321   2.727   1.809
  956SOL     OW  286   1.068   3.195   2.711
  956SOL    HW1  287   1.075   3.111   2.656
  956SOL    HW2  288   1.130   3.264   2.675
  960SOL     OW  289   1.160   2.069   3.339
  960SOL    HW1  290   1.160   2.133   3.416
  960SOL    HW2  291   1.188   2.117   3.256
  964SOL     OW  292   1.002   2.658   3.100
  964SOL    HW1  293   1.043   2.626   3.186
  964SOL    HW2  294   0.906   2.631   3.097
  967SOL     OW  295   1.369   2.812   3.522
  967SOL    HW1  296   1.408   2.901   3.542
  967SOL    HW2  297   1.379   2.792   3.425
  969SOL     OW  298   1.657   2.466   3.068
  969SOL    HW1  299   1.619   2.397   3.130
  969SOL    HW2  300   1.739   2.430   3.024
  975SOL     OW  301   1.347   2.921   3.096
  975SOL    HW1  302   1.371   2.858   3.022
  975SOL    HW2  303   1.257   2.961   3.078
  976SOL     OW  304   1.302   2.717   2.171
  976SOL    HW1  305   1.216   2.686   2.213
  976SOL    HW2  306   1.298   2.703   2.072
  977SOL     OW  307   1.759   3.609   3.016
  977SOL    HW1  308   1.820   3.639   2.943
  977SOL    HW2  309   1.721   3.520   2.994
  978SOL     OW  310   1.252   3.593   2.990
  978SOL    HW1  311   1.336   3.598   2.936
  978SOL    HW2  312   1.229   3.497   3.008
  981SOL     OW  313   1.726   1.997   2.385
  981SOL    HW1  314   1.799   1.980   2.318
  981SOL    HW2  315   1.695   1.910   2.423
  982SOL     OW  316   1.388   3.435   2.339
  982SOL    HW1  317   1.455   3.447   2.265
  982SOL    HW2  318   1.348   3.524   2.362
  984SOL     OW  319   1.280   2.789   2.534
  984SOL    HW1  320   1.340   2.708   2.536
  984SOL    HW2  321   1.320   2.858   2.474
  987SOL     OW  322   1.650   3.582   3.256
  987SOL    HW1  323   1.703   3.592   3.172
  987SOL    HW2  324   1.623   3.672   3.290
  988SOL     OW  325   1.841   2.037   2.825
  988SOL    HW1  326   1.880   1.952   2.789
  988SOL    HW2  327   1.743   2.039   2.806
  993SOL     OW  328   1.504   3.469   1.906
  993SOL    HW1  329   1.412   3.506   1.913
  993SOL    HW2  330   1.542   3.489   1.816
  995SOL     OW  331   1.614   3.154   3.151
  995SOL    HW1  332   1.674   3.157   3.231
  995SOL    HW2  333   1.539   3.218   3.164
  996SOL     OW  334   1.039   2.960   2.558
  996SOL    HW1  335   0.969   2.913   2.612
  996SOL    HW2  336   1.098   2.892   2.515
  999SOL     OW  337   1.709   2.247   3.243
  999SOL    HW1  338   1.782   2.316   3.247
  999SOL    HW2  339   1.737   2.172   3.184
 1004SOL     OW  340   1.440   2.718   3.260
 1004SOL    HW1  341   1.383   2.770   3.197
 1004SOL    HW2  342   1.536   2.730   3.236
 1006SOL     OW  343   1.183   3.197   1.981
 1006SOL    HW1  344   1.084   3.186   1.983
 1006SOL    HW2  345   1.217   3.212   2.074
 1008SOL     OW  346   1.493   3.629   2.821
 1008SOL    HW1  347   1.526   3.693   2.752
 1008SOL    HW2  348   1.559   3.623   2.896
 1010SOL     OW  349   1.450   3.082   3.495
 1010SOL    HW1  350   1.441   3.072   3.594
 1010SOL    HW2  351   1.546   3.075   3.469
 1012SOL     OW  352   1.674   2.745   3.116
 1012SOL    HW1  353   1.647   2.656   3.079
 1012SOL    HW2  354   1.675   2.813   3.043
 1013SOL     OW  355   1.225   2.187   2.311
 1013SOL    HW1  356   1.290   2.113   2.300
 1013SOL    HW2  357   1.245   2.237   2.395
 1015SOL     OW  358   1.777   2.204   3.504
 1015SOL    HW1  359   1.760   2.235   3.410
 1015SOL    HW2  360   1.693   2.167   3.542
 1016SOL     OW  361   1.730   2.796   3.379
 1016SOL    HW1  362   1.768   2.887   3.394
 1016SOL    HW2  363   1.722   2.779   3.280
 1020SOL     OW  364   1.083   2.846   1.949
 1020SOL    HW1  365   1.060   2.899   1.867
 1020SOL    HW2  366   1.164   2.790   1.930
 1021SOL     OW  367   1.861   3.431   2.713
 1021SOL    HW1  368   1.790   3.419   2.643
 1021SOL    HW2  369   1.862   3.352   2.773
 1025SOL     OW  370   1.824   2.054   3.089
 1025SOL    HW1  371   1.820   1.964   3.133
 1025SOL    HW2  372   1.827   2.043   2.990
 1027SOL     OW  373   1.705   3.349   2.966
 1027SOL    HW1  374   1.612   3.324   2.939
 1027SOL    HW2  375   1.731   3.299   3.048
 1030SOL     OW  376   1.424   2.076   2.974
 1030SOL    HW1  377   1.476   2.011   3.029
 1030SOL    HW2  378   1.375   2.139   3.035
 1034SOL     OW  379   1.352   1.914   2.030
 1034SOL    HW1  380   1.387   1.873   1.946
 1034SOL    HW2  381   1.262   1.876   2.050
 1035SOL     OW  382   1.300   2.315   2.553
 1035SOL    HW1  383   1.241   2.395   2.557
 1035SOL    HW2  384   1.315   2.280   2.646
 1036SOL     OW  385   1.593   2.083   2.744
 1036SOL    HW1  386   1.509   2.082   2.798
 1036SOL    HW2  387   1.595   2.166   2.688
 1045SOL     OW  388   1.755   2.469   3.955
 1045SOL    HW1  389   1.743   2.456   3.856
 1045SOL    HW2  390   1.725   2.388   4.004
 1068SOL     OW  391   1.525   2.861   3.914
 1068SOL    HW1  392   1.462   2.785   3.927
 1068SOL    HW2  393   1.573   2.879   4.000
 1091SOL     OW  394   1.632   3.239   3.805
 1091SOL    HW1  395   1.600   3.333   3.795
 1091SOL    HW2  396   1.556   3.176   3.793
 1103SOL     OW  397   1.434   3.050   3.765
 1103SOL    HW1  398   1.466   2.974   3.822
 1103SOL    HW2  399   1.342   3.077   3.795
 1117SOL     OW  400   1.857   2.695   4.101
 1117SOL    HW1  401   1.899   2.631   4.165
 1117SOL    HW2  402   1.819   2.644   4.023
 1120SOL     OW  403   1.390   2.437   3.802
 1120SOL    HW1  404   1.336   2.416   3.883
 1120SOL    HW2  405   1.481   2.396   3.811
 1149SOL     OW  406   1.540   2.136   3.849
 1149SOL    HW1  407   1.479   2.061   3.872
 1149SOL    HW2  408   1.562   2.188   3.932
 1150SOL     OW  409   1.303   2.700   3.766
 1150SOL    HW1  410   1.337   2.607   3.781
 1150SOL    HW2  411   1.321   2.727   3.671
 1183SOL     OW  412   1.504   3.469   3.768
 1183SOL    HW1  413   1.412   3.506   3.775
 1183SOL    HW2  414   1.542   3.489   3.678
 1434SOL     OW  415   1.594   3.838   3.342
 1434SOL    HW1  416   1.576   3.905   3.270
 1434SOL    HW2  417   1.591   3.884   3.431
 1468SOL     OW  418   1.400   3.831   2.288
 1468SOL    HW1  419   1.376   3.794   2.198
 1468SOL    HW2  420   1.499   3.847   2.292
 1552SOL     OW  421   1.726   3.859   2.385
 1552SOL    HW1  422   1.799   3.842   2.318
 1552SOL    HW2  423   1.695   3.772   2.423
 1558SOL     OW  424   1.841   3.899   2.825
 1558SOL    HW1  425   1.880   3.814   2.789
 1558SOL    HW2  426   1.743   3.901   2.806
 1591SOL     OW  427   1.824   3.916   3.089
 1591SOL    HW1  428   1.820   3.826   3.133
 1591SOL    HW2  429   1.827   3.905   2.990
 1595SOL     OW  430   1.424   3.938   2.974
 1595SOL    HW1  431   1.476   3.873   3.029
 1595SOL    HW2  432   1.375   4.001   3.035
 1601SOL     OW  433   1.593   3.945   2.744
 1601SOL    HW1  434   1.509   3.944   2.798
 1601SOL    HW2  435   1.595   4.028   2.688
 1779SOL     OW  436   2.548   1.161   1.803
 1779SOL    HW1  437   2.608   1.240   1.817
 1779SOL    HW2  438   2.462   1.192   1.762
 1785SOL     OW  439   2.989   1.341   1.690
 1785SOL    HW1  440   3.036   1.341   1.778
 1785SOL    HW2  441   2.941   1.254   1.679
 1788SOL     OW  442   2.482   1.786   1.439
 1788SOL    HW1  443   2.390   1.769   1.474
 1788SOL    HW2  444   2.510   1.878   1.465
 1802SOL     OW  445   3.049   1.792   1.616
 1802SOL    HW1  446   3.073   1.852   1.540
 1802SOL    HW2  447   3.056   1.697   1.586
 1815SOL     OW  448   1.992   1.821   1.571
 1815SOL    HW1  449   1.982   1.806   1.670
 1815SOL    HW2  450   1.906   1.857   1.535
 1823SOL     OW  451   3.089   1.550   1.506
 1823SOL    HW1  452   3.095   1.473   1.570
 1823SOL    HW2  453   3.037   1.524   1.426
 1826SOL     OW  454   2.323   1.266   1.727
 1826SOL    HW1  455   2.273   1.267   1.641
 1826SOL    HW2  456   2.260   1.248   1.803
 1864SOL     OW  457   3.454   1.629   1.625
 1864SOL    HW1  458   3.481   1.663   1.535
 1864SOL    HW2  459   3.533   1.591   1.671
 1893SOL     OW  460   2.842   1.573   1.700
 1893SOL    HW1  461   2.822   1.617   1.612
 1893SOL    HW2  462   2.881   1.482   1.684
 1912SOL     OW  463   2.114   1.564   1.744
 1912SOL    HW1  464   2.084   1.621   1.820
 1912SOL    HW2  465   2.107   1.467   1.770
 1914SOL     OW  466   2.792   1.678   1.465
 1914SOL    HW1  467   2.768   1.660   1.370
 1914SOL    HW2  468   2.822   1.772   1.475
 1922SOL     OW  469   2.550   1.662   1.716
 1922SOL    HW1  470   2.494   1.743   1.725
 1922SOL    HW2  471   2.602   1.666   1.630
 1926SOL     OW  472   1.992   1.794   1.851
 1926SOL    HW1  473   1.951   1.720   1.904
 1926SOL    HW2  474   2.056   1.845   1.909
 1954SOL     OW  475   2.252   1.741   1.560
 1954SOL    HW1  476   2.161   1.782   1.558
 1954SOL    HW2  477   2.245   1.647   1.592
 1965SOL     OW  478   2.083   1.314   1.844
 1965SOL    HW1  479   2.018   1.241   1.823
 1965SOL    HW2  480   2.087   1.328   1.942
 1967SOL     OW  481   2.534   1.391   1.624
 1967SOL    HW1  482   2.456   1.341   1.662
 1967SOL    HW2  483   2.531   1.486   1.655
 1985SOL     OW  484   2.431   1.275   3.027
 1985SOL    HW1  485   2.338   1.268   2.990
 1985SOL    HW2  486   2.442   1.364   3.071
 1986SOL     OW  487   3.417   1.511   2.565
 1986SOL    HW1  488   3.360   1.495   2.646
 1986SOL    HW2  489   3.358   1.521   2.485
 1989SOL     OW  490   2.630   1.144   2.885
 1989SOL    HW1  491   2.552   1.161   2.945
 1989SOL    HW2  492   2.664   1.231   2.849
 1991SOL     OW  493   2.547   1.012   2.527
 1991SOL    HW1  494   2.616   0.996   2.597
 1991SOL    HW2  495   2.474   1.069   2.565
 1993SOL     OW  496   2.197   1.435   2.923
 1993SOL    HW1  497   2.119   1.404   2.870
 1993SOL    HW2  498   2.255   1.493   2.866
 1994SOL     OW  499   3.322   1.505   3.201
 1994SOL    HW1  500   3.346   1.599   3.227
 1994SOL    HW2  501   3.306   1.451   3.283
 1997SOL     OW  502   2.093   1.713   2.345
 1997SOL    HW1  503   2.127   1.790   2.399
 1997SOL    HW2  504   2.137   1.713   2.255
 1998SOL     OW  505   2.989   1.341   3.552
 1998SOL    HW1  506   3.036   1.341   3.640
 1998SOL    HW2  507   2.941   1.254   3.541
 1999SOL     OW  508   2.092   1.434   2.400
 1999SOL    HW1  509   2.066   1.530   2.400
 1999SOL    HW2  510   2.021   1.380   2.445
 2000SOL     OW  511   2.102   1.091   2.748
 2000SOL    HW1  512   2.116   1.007   2.800
 2000SOL    HW2  513   2.047   1.155   2.803
 2001SOL     OW  514   2.482   1.786   3.301
 2001SOL    HW1  515   2.390   1.769   3.336
 2001SOL    HW2  516   2.510   1.878   3.327
 2005SOL     OW  517   3.704   1.767   2.221
 2005SOL    HW1  518   3.758   1.738   2.301
 2005SOL    HW2  519   3.734   1.857   2.192
 2006SOL     OW  520   1.889   1.596   1.979
 2006SOL    HW1  521   1.870   1.500   2.000
 2006SOL    HW2  522   1.856   1.654   2.054
 2010SOL     OW  523   2.475   1.365   2.588
 2010SOL    HW1  524   2.426   1.278   2.597
 2010SOL    HW2  525   2.452   1.408   2.501
 2011SOL     OW  526   3.155   1.228   3.285
 2011SOL    HW1  527   3.192   1.155   3.227
 2011SOL    HW2  528   3.207   1.233   3.370
 2015SOL     OW  529   3.049   1.792   3.478
 2015SOL    HW1  530   3.073   1.852   3.402
 2015SOL    HW2  531   3.056   1.697   3.448
 2017SOL     OW  532   3.328   1.417   2.815
 2017SOL    HW1  533   3.269   1.423   2.895
 2017SOL    HW2  534   3.313   1.329   2.769
 2018SOL     OW  535   3.529   1.714   2.434
 2018SOL    HW1  536   3.488   1.691   2.346
 2018SOL    HW2  537   3.511   1.640   2.499
 2021SOL     OW  538   3.438   1.662   2.169
 2021SOL    HW1  539   3.527   1.708   2.172
 2021SOL    HW2  540   3.417   1.638   2.074
 2028SOL     OW  541   1.992   1.821   3.433
 2028SOL    HW1  542   1.982   1.806   3.532
 2028SOL    HW2  543   1.906   1.857   3.397
 2031SOL     OW  544   3.224   1.144   2.407
 2031SOL    HW1  545   3.307   1.115   2.359
 2031SOL    HW2  546   3.175   1.211   2.351
 2033SOL     OW  547   2.870   1.456   2.339
 2033SOL    HW1  548   2.824   1.528   2.287
 2033SOL    HW2  549   2.866   1.476   2.437
 2034SOL     OW  550   2.213   1.801   2.715
 2034SOL    HW1  551   2.263   1.715   2.721
 2034SOL    HW2  552   2.278   1.878   2.712
 2036SOL     OW  553   3.089   1.550   3.368
 2036SOL    HW1  554   3.095   1.473   3.432
 2036SOL    HW2  555   3.037   1.524   3.288
 2039SOL     OW  556   2.323   1.266   3.589
 2039SOL    HW1  557   2.273   1.267   3.503
 2039SOL    HW2  558   2.260   1.248   3.665
 2040SOL     OW  559   2.973   1.776   2.099
 2040SOL    HW1  560   2.913   1.714   2.149
 2040SOL    HW2  561   3.004   1.732   2.014
 2042SOL     OW  562   3.494   1.377   1.943
 2042SOL    HW1  563   3.462   1.471   1.933
 2042SOL    HW2  564   3.418   1.314   1.931
 2043SOL     OW  565   2.326   1.743   2.185
 2043SOL    HW1  566   2.359   1.782   2.271
 2043SOL    HW2  567   2.402   1.736   2.120
 2045SOL     OW  568   2.111   1.785   3.103
 2045SOL    HW1  569   2.168   1.720   3.153
 2045SOL    HW2  570   2.095   1.752   3.010
 2046SOL     OW  571   2.802   1.698   2.766
 2046SOL    HW1  572   2.882   1.641   2.787
 2046SOL    HW2  573   2.753   1.658   2.689
 2051SOL     OW  574   2.750   1.514   3.057
 2051SOL    HW1  575   2.727   1.489   2.963
 2051SOL    HW2  576   2.811   1.445   3.096
 2053SOL     OW  577   2.665   1.402   2.786
 2053SOL    HW1  578   2.755   1.416   2.744
 2053SOL    HW2  579   2.594   1.404   2.715
 2060SOL     OW  580   3.089   1.570   2.655
 2060SOL    HW1  581   3.110   1.644   2.590
 2060SOL    HW2  582   3.157   1.570   2.728
 2061SOL     OW  583   2.321   1.152   2.603
 2061SOL    HW1  584   2.250   1.125   2.668
 2061SOL    HW2  585   2.295   1.124   2.510
 2062SOL     OW  586   3.133   1.797   2.453
 2062SOL    HW1  587   3.177   1.861   2.389
 2062SOL    HW2  588   3.083   1.849   2.523
 2068SOL     OW  589   3.291   1.173   2.729
 2068SOL    HW1  590   3.236   1.089   2.722
 2068SOL    HW2  591   3.317   1.202   2.637
 2071SOL     OW  592   2.350   1.385   2.036
 2071SOL    HW1  593   2.263   1.370   2.083
 2071SOL    HW2  594   2.333   1.411   1.941
 2072SOL     OW  595   3.526   1.280   2.519
 2072SOL    HW1  596   3.625   1.288   2.533
 2072SOL    HW2  597   3.481   1.364   2.550
 2076SOL     OW  598   2.926   1.347   3.202
 2076SOL    HW1  599   2.846   1.324   3.257
 2076SOL    HW2  600   3.009   1.321   3.251
 2077SOL     OW  601   3.454   1.629   3.487
 2077SOL    HW1  602   3.481   1.663   3.397
 2077SOL    HW2  603   3.533   1.591   3.533
 2078SOL     OW  604   2.973   1.195   2.962
 2078SOL    HW1  605   2.933   1.239   3.043
 2078SOL    HW2  606   2.932   1.232   2.879
 2082SOL     OW  607   2.567   1.050   2.230
 2082SOL    HW1  608   2.553   1.057   2.329
 2082SOL    HW2  609   2.651   0.999   2.212
 2085SOL     OW  610   1.926   1.564   3.193
 2085SOL    HW1  611   1.880   1.646   3.159
 2085SOL    HW2  612   2.024   1.583   3.202
 2086SOL     OW  613   2.229   1.100   2.363
 2086SOL    HW1  614   2.222   1.183   2.307
 2086SOL    HW2  615   2.233   1.020   2.303
 2088SOL     OW  616   3.114   1.348   2.250
 2088SOL    HW1  617   3.164   1.425   2.290
 2088SOL    HW2  618   3.019   1.350   2.282
 2089SOL     OW  619   3.134   1.445   3.004
 2089SOL    HW1  620   3.181   1.458   3.091
 2089SOL    HW2  621   3.068   1.371   3.013
 2091SOL     OW  622   2.216   1.510   3.191
 2091SOL    HW1  623   2.195   1.466   3.104
 2091SOL    HW2  624   2.313   1.536   3.194
 2100SOL     OW  625   1.899   1.310   3.144
 2100SOL    HW1  626   1.952   1.261   3.212
 2100SOL    HW2  627   1.921   1.408   3.149
 2106SOL     OW  628   2.842   1.573   3.562
 2106SOL    HW1  629   2.822   1.617   3.474
 2106SOL    HW2  630   2.881   1.482   3.546
 2107SOL     OW  631   3.721   1.518   3.467
 2107SOL    HW1  632   3.735   1.545   3.372
 2107SOL    HW2  633   3.804   1.540   3.520
 2111SOL     OW  634   2.930   1.333   2.711
 2111SOL    HW1  635   2.937   1.249   2.656
 2111SOL    HW2  636   2.992   1.402   2.675
 2116SOL     OW  637   1.870   1.326   2.062
 2116SOL    HW1  638   1.777   1.347   2.031
 2116SOL    HW2  639   1.880   1.227   2.075
 2117SOL     OW  640   1.950   1.801   2.789
 2117SOL    HW1  641   1.908   1.715   2.762
 2117SOL    HW2  642   2.044   1.804   2.755
 2118SOL     OW  643   2.366   1.568   2.772
 2118SOL    HW1  644   2.432   1.642   2.781
 2118SOL    HW2  645   2.410   1.489   2.730
 2125SOL     OW  646   2.114   1.564   3.606
 2125SOL    HW1  647   2.084   1.621   3.682
 2125SOL    HW2  648   2.107   1.467   3.632
 2127SOL     OW  649   2.792   1.678   3.327
 2127SOL    HW1  650   2.768   1.660   3.232
 2127SOL    HW2  651   2.822   1.772   3.337
 2130SOL     OW  652   3.209   1.059   3.096
 2130SOL    HW1  653   3.233   0.996   3.022
 2130SOL    HW2  654   3.119   1.099   3.078
 2132SOL     OW  655   3.621   1.747   3.016
 2132SOL    HW1  656   3.682   1.777   2.943
 2132SOL    HW2  657   3.583   1.658   2.994
 2133SOL     OW  658   3.114   1.731   2.990
 2133SOL    HW1  659   3.198   1.736   2.936
 2133SOL    HW2  660   3.091   1.635   3.008
 2134SOL     OW  661   1.945   1.258   2.884
 2134SOL    HW1  662   1.940   1.257   2.984
 2134SOL    HW2  663   1.862   1.217   2.846
 2135SOL     OW  664   2.550   1.662   3.578
 2135SOL    HW1  665   2.494   1.743   3.587
 2135SOL    HW2  666   2.602   1.666   3.492
 2137SOL     OW  667   3.250   1.573   2.339
 2137SOL    HW1  668   3.317   1.585   2.265
 2137SOL    HW2  669   3.210   1.662   2.362
 2138SOL     OW  670   1.992   1.794   3.713
 2138SOL    HW1  671   1.951   1.720   3.766
 2138SOL    HW2  672   2.056   1.845   3.771
 2140SOL     OW  673   2.692   1.273   3.284
 2140SOL    HW1  674   2.687   1.306   3.379
 2140SOL    HW2  675   2.606   1.292   3.238
 2141SOL     OW  676   2.534   1.616   2.016
 2141SOL    HW1  677   2.543   1.626   1.917
 2141SOL    HW2  678   2.494   1.527   2.037
 2142SOL     OW  679   3.512   1.720   3.256
 2142SOL    HW1  680   3.565   1.730   3.172
 2142SOL    HW2  681   3.485   1.810   3.290
 2145SOL     OW  682   3.056   1.612   1.893
 2145SOL    HW1  683   3.062   1.519   1.930
 2145SOL    HW2  684   2.997   1.612   1.813
 2146SOL     OW  685   2.684   1.002   3.234
 2146SOL    HW1  686   2.724   1.001   3.142
 2146SOL    HW2  687   2.694   1.094   3.274
 2148SOL     OW  688   3.366   1.607   1.906
 2148SOL    HW1  689   3.274   1.644   1.913
 2148SOL    HW2  690   3.404   1.627   1.816
 2149SOL     OW  691   2.234   1.288   3.352
 2149SOL    HW1  692   2.221   1.381   3.318
 2149SOL    HW2  693   2.150   1.236   3.339
 2150SOL     OW  694   3.476   1.292   3.151
 2150SOL    HW1  695   3.536   1.295   3.231
 2150SOL    HW2  696   3.401   1.356   3.164
 2151SOL     OW  697   2.901   1.098   2.558
 2151SOL    HW1  698   2.831   1.051   2.612
 2151SOL    HW2  699   2.960   1.030   2.515
 2153SOL     OW  700   2.452   1.487   2.353
 2153SOL    HW1  701   2.494   1.429   2.283
 2153SOL    HW2  702   2.408   1.566   2.309
 2155SOL     OW  703   2.117   1.348   2.152
 2155SOL    HW1  704   2.021   1.349   2.125
 2155SOL    HW2  705   2.129   1.401   2.236
 2161SOL     OW  706   3.045   1.335   1.981
 2161SOL    HW1  707   2.946   1.324   1.983
 2161SOL    HW2  708   3.079   1.350   2.074
 2163SOL     OW  709   3.355   1.767   2.821
 2163SOL    HW1  710   3.388   1.831   2.752
 2163SOL    HW2  711   3.421   1.761   2.896
 2165SOL     OW  712   3.312   1.220   3.495
 2165SOL    HW1  713   3.303   1.210   3.594
 2165SOL    HW2  714   3.408   1.213   3.469
 2166SOL     OW  715   2.252   1.741   3.422
 2166SOL    HW1  716   2.161   1.782   3.420
 2166SOL    HW2  717   2.245   1.647   3.454
 2172SOL     OW  718   2.721   1.374   1.878
 2172SOL    HW1  719   2.675   1.389   1.966
 2172SOL    HW2  720   2.765   1.459   1.848
 2173SOL     OW  721   2.523   1.790   2.815
 2173SOL    HW1  722   2.477   1.878   2.802
 2173SOL    HW2  723   2.622   1.802   2.808
 2174SOL     OW  724   2.721   0.956   2.723
 2174SOL    HW1  725   2.775   0.887   2.771
 2174SOL    HW2  726   2.689   1.025   2.789
 2176SOL     OW  727   3.723   1.569   2.713
 2176SOL    HW1  728   3.652   1.557   2.643
 2176SOL    HW2  729   3.724   1.490   2.773
 2178SOL     OW  730   1.941   1.240   2.515
 2178SOL    HW1  731   1.940   1.193   2.603
 2178SOL    HW2  732   2.023   1.212   2.464
 2179SOL     OW  733   2.534   1.391   3.486
 2179SOL    HW1  734   2.456   1.341   3.524
 2179SOL    HW2  735   2.531   1.486   3.517
 2182SOL     OW  736   3.567   1.487   2.966
 2182SOL    HW1  737   3.474   1.462   2.939
 2182SOL    HW2  738   3.593   1.437   3.048
 2184SOL     OW  739   2.674   1.586   2.549
 2184SOL    HW1  740   2.706   1.596   2.455
 2184SOL    HW2  741   2.595   1.524   2.551
 2187SOL     OW  742   2.632   1.330   2.163
 2187SOL    HW1  743   2.586   1.243   2.180
 2187SOL    HW2  744   2.723   1.327   2.204
 2188SOL     OW  745   2.480   1.567   3.146
 2188SOL    HW1  746   2.475   1.649   3.203
 2188SOL    HW2  747   2.569   1.564   3.101
 2193SOL     OW  748   2.737   1.646   2.199
 2193SOL    HW1  749   2.660   1.611   2.145
 2193SOL    HW2  750   2.705   1.717   2.261
 2215SOL     OW  751   1.889   1.596   3.841
 2215SOL    HW1  752   1.870   1.500   3.862
 2215SOL    HW2  753   1.856   1.654   3.916
 2244SOL     OW  754   2.973   1.776   3.961
 2244SOL    HW1  755   2.913   1.714   4.011
 2244SOL    HW2  756   3.004   1.732   3.876
 2247SOL     OW  757   2.326   1.743   4.047
 2247SOL    HW1  758   2.359   1.782   4.133
 2247SOL    HW2  759   2.402   1.736   3.982
 2331SOL     OW  760   2.534   1.616   3.878
 2331SOL    HW1  761   2.543   1.626   3.779
 2331SOL    HW2  762   2.494   1.527   3.899
 2335SOL     OW  763   3.056   1.612   3.755
 2335SOL    HW1  764   3.062   1.519   3.792
 2335SOL    HW2  765   2.997   1.612   3.675
 2338SOL     OW  766   3.366   1.607   3.768
 2338SOL    HW1  767   3.274   1.644   3.775
 2338SOL    HW2  768   3.404   1.627   3.678
 2360SOL     OW  769   2.721   1.374   3.740
 2360SOL    HW1  770   2.675   1.389   3.828
 2360SOL    HW2  771   2.765   1.459   3.710
 2380SOL     OW  772   2.737   1.646   4.061
 2380SOL    HW1  773   2.660   1.611   4.007
 2380SOL    HW2  774   2.705   1.717   4.123
 2384SOL     OW  775   2.431   3.137   1.165
 2384SOL    HW1  776   2.338   3.130   1.128
 2384SOL    HW2  777   2.442   3.226   1.209
 2388SOL     OW  778   2.630   3.006   1.023
 2388SOL    HW1  779   2.552   3.023   1.083
 2388SOL    HW2  780   2.664   3.093   0.987
 2389SOL     OW  781   2.712   2.660   1.823
 2389SOL    HW1  782   2.708   2.736   1.888
 2389SOL    HW2  783   2.734   2.696   1.732
 2391SOL     OW  784   2.548   3.023   1.803
 2391SOL    HW1  785   2.608   3.102   1.817
 2391SOL    HW2  786   2.462   3.054   1.762
 2393SOL     OW  787   3.322   3.367   1.339
 2393SOL    HW1  788   3.346   3.461   1.365
 2393SOL    HW2  789   3.306   3.313   1.421
 2394SOL     OW  790   2.300   2.254   1.499
 2394SOL    HW1  791   2.382   2.198   1.508
 2394SOL    HW2  792   2.219   2.196   1.503
 2397SOL     OW  793   2.989   3.203   1.690
 2397SOL    HW1  794   3.036   3.203   1.778
 2397SOL    HW2  795   2.941   3.116   1.679
 2400SOL     OW  796   2.482   3.648   1.439
 2400SOL    HW1  797   2.390   3.631   1.474
 2400SOL    HW2  798   2.510   3.740   1.465
 2402SOL     OW  799   3.456   1.976   1.480
 2402SOL    HW1  800   3.438   2.043   1.408
 2402SOL    HW2  801   3.453   2.022   1.569
 2408SOL     OW  802   1.975   2.599   1.597
 2408SOL    HW1  803   2.063   2.586   1.642
 2408SOL    HW2  804   1.962   2.696   1.575
 2410SOL     OW  805   3.155   3.090   1.423
 2410SOL    HW1  806   3.192   3.017   1.365
 2410SOL    HW2  807   3.207   3.095   1.508
 2412SOL     OW  808   2.059   2.838   1.264
 2412SOL    HW1  809   2.148   2.793   1.250
 2412SOL    HW2  810   1.986   2.773   1.245
 2414SOL     OW  811   3.049   3.654   1.616
 2414SOL    HW1  812   3.073   3.714   1.540
 2414SOL    HW2  813   3.056   3.559   1.586
 2415SOL     OW  814   2.179   2.113   1.801
 2415SOL    HW1  815   2.250   2.184   1.807
 2415SOL    HW2  816   2.091   2.152   1.829
 2421SOL     OW  817   2.669   2.467   1.465
 2421SOL    HW1  818   2.622   2.464   1.554
 2421SOL    HW2  819   2.618   2.412   1.399
 2422SOL     OW  820   3.256   2.331   1.674
 2422SOL    HW1  821   3.236   2.374   1.762
 2422SOL    HW2  822   3.334   2.269   1.683
 2423SOL     OW  823   2.835   2.752   1.572
 2423SOL    HW1  824   2.881   2.668   1.543
 2423SOL    HW2  825   2.779   2.786   1.497
 2424SOL     OW  826   2.853   2.272   1.242
 2424SOL    HW1  827   2.776   2.306   1.296
 2424SOL    HW2  828   2.819   2.221   1.163
 2427SOL     OW  829   1.992   3.683   1.571
 2427SOL    HW1  830   1.982   3.668   1.670
 2427SOL    HW2  831   1.906   3.719   1.535
 2429SOL     OW  832   3.581   2.447   1.831
 2429SOL    HW1  833   3.555   2.536   1.795
 2429SOL    HW2  834   3.579   2.379   1.758
 2435SOL     OW  835   3.089   3.412   1.506
 2435SOL    HW1  836   3.095   3.335   1.570
 2435SOL    HW2  837   3.037   3.386   1.426
 2438SOL     OW  838   2.323   3.128   1.727
 2438SOL    HW1  839   2.273   3.129   1.641
 2438SOL    HW2  840   2.260   3.110   1.803
 2440SOL     OW  841   2.064   2.147   1.498
 2440SOL    HW1  842   1.984   2.207   1.485
 2440SOL    HW2  843   2.054   2.098   1.584
 2447SOL     OW  844   3.409   2.084   1.729
 2447SOL    HW1  845   3.404   2.121   1.821
 2447SOL    HW2  846   3.337   2.015   1.717
 2449SOL     OW  847   2.643   2.126   1.749
 2449SOL    HW1  848   2.710   2.065   1.792
 2449SOL    HW2  849   2.570   2.145   1.814
 2450SOL     OW  850   2.750   3.376   1.195
 2450SOL    HW1  851   2.727   3.351   1.101
 2450SOL    HW2  852   2.811   3.307   1.234
 2451SOL     OW  853   3.213   2.452   1.433
 2451SOL    HW1  854   3.241   2.409   1.518
 2451SOL    HW2  855   3.238   2.548   1.434
 2458SOL     OW  856   2.938   2.545   1.464
 2458SOL    HW1  857   2.858   2.484   1.467
 2458SOL    HW2  858   3.019   2.492   1.440
 2463SOL     OW  859   1.940   2.418   1.386
 2463SOL    HW1  860   2.032   2.417   1.345
 2463SOL    HW2  861   1.934   2.492   1.453
 2464SOL     OW  862   2.423   2.084   1.147
 2464SOL    HW1  863   2.461   2.000   1.184
 2464SOL    HW2  864   2.335   2.103   1.191
 2474SOL     OW  865   3.616   3.085   1.588
 2474SOL    HW1  866   3.707   3.046   1.575
 2474SOL    HW2  867   3.624   3.181   1.612
 2475SOL     OW  868   2.926   3.209   1.340
 2475SOL    HW1  869   2.846   3.186   1.395
 2475SOL    HW2  870   3.009   3.183   1.389
 2476SOL     OW  871   3.454   3.491   1.625
 2476SOL    HW1  872   3.481   3.525   1.535
 2476SOL    HW2  873   3.533   3.453   1.671
 2477SOL     OW  874   2.973   3.057   1.100
 2477SOL    HW1  875   2.933   3.101   1.181
 2477SOL    HW2  876   2.932   3.094   1.017
 2479SOL     OW  877   2.777   1.951   1.402
 2479SOL    HW1  878   2.802   1.931   1.307
 2479SOL    HW2  879   2.849   2.007   1.444
 2480SOL     OW  880   2.842   2.978   1.719
 2480SOL    HW1  881   2.743   2.984   1.729
 2480SOL    HW2  882   2.865   2.898   1.663
 2482SOL     OW  883   2.272   2.675   1.251
 2482SOL    HW1  884   2.358   2.687   1.301
 2482SOL    HW2  885   2.230   2.588   1.278
 2483SOL     OW  886   3.136   2.248   1.262
 2483SOL    HW1  887   3.157   2.322   1.326
 2483SOL    HW2  888   3.047   2.265   1.219
 2484SOL     OW  889   1.926   3.426   1.331
 2484SOL    HW1  890   1.880   3.508   1.297
 2484SOL    HW2  891   2.024   3.445   1.340
 2488SOL     OW  892   3.134   3.307   1.142
 2488SOL    HW1  893   3.181   3.320   1.229
 2488SOL    HW2  894   3.068   3.233   1.151
 2490SOL     OW  895   2.216   3.372   1.329
 2490SOL    HW1  896   2.195   3.328   1.242
 2490SOL    HW2  897   2.313   3.398   1.332
 2491SOL     OW  898   2.264   2.613   1.598
 2491SOL    HW1  899   2.332   2.668   1.551
 2491SOL    HW2  900   2.304   2.525   1.625
 2492SOL     OW  901   3.449   2.641   1.670
 2492SOL    HW1  902   3.357   2.679   1.665
 2492SOL    HW2  903   3.509   2.688   1.605
 2493SOL     OW  904   2.875   1.967   1.770
 2493SOL    HW1  905   2.881   2.052   1.718
 2493SOL    HW2  906   2.907   1.891   1.713
 2494SOL     OW  907   2.366   1.912   1.740
 2494SOL    HW1  908   2.324   1.855   1.670
 2494SOL    HW2  909   2.300   1.981   1.772
 2495SOL     OW  910   2.435   2.732   1.029
 2495SOL    HW1  911   2.479   2.821   1.020
 2495SOL    HW2  912   2.372   2.732   1.106
 2496SOL     OW  913   3.222   2.724   1.045
 2496SOL    HW1  914   3.147   2.724   0.979
 2496SOL    HW2  915   3.259   2.632   1.054
 2498SOL     OW  916   2.169   2.075   1.231
 2498SOL    HW1  917   2.146   2.112   1.321
 2498SOL    HW2  918   2.139   1.980   1.225
 2499SOL     OW  919   1.899   3.172   1.282
 2499SOL    HW1  920   1.952   3.123   1.350
 2499SOL    HW2  921   1.921   3.270   1.287
 2500SOL     OW  922   2.594   2.496   1.064
 2500SOL    HW1  923   2.653   2.470   0.988
 2500SOL    HW2  924   2.566   2.592   1.053
 2501SOL     OW  925   3.590   2.797   1.854
 2501SOL    HW1  926   3.544   2.790   1.765
 2501SOL    HW2  927   3.528   2.841   1.920
 2504SOL     OW  928   2.885   2.628   0.966
 2504SOL    HW1  929   2.900   2.649   1.062
 2504SOL    HW2  930   2.855   2.533   0.957
 2505SOL     OW  931   2.842   3.435   1.700
 2505SOL    HW1  932   2.822   3.479   1.612
 2505SOL    HW2  933   2.881   3.344   1.684
 2506SOL     OW  934   3.721   3.380   1.605
 2506SOL    HW1  935   3.735   3.407   1.510
 2506SOL    HW2  936   3.804   3.402   1.658
 2507SOL     OW  937   2.212   2.760   1.804
 2507SOL    HW1  938   2.288   2.804   1.852
 2507SOL    HW2  939   2.247   2.713   1.722
 2513SOL     OW  940   3.000   2.242   1.678
 2513SOL    HW1  941   2.955   2.305   1.742
 2513SOL    HW2  942   3.093   2.273   1.661
 2514SOL     OW  943   3.022   2.069   1.477
 2514SOL    HW1  944   3.022   2.133   1.554
 2514SOL    HW2  945   3.050   2.117   1.394
 2518SOL     OW  946   2.864   2.658   1.238
 2518SOL    HW1  947   2.905   2.626   1.324
 2518SOL    HW2  948   2.768   2.631   1.235
 2520SOL     OW  949   2.051   2.382   1.722
 2520SOL    HW1  950   2.110   2.342   1.652
 2520SOL    HW2  951   1.993   2.453   1.681
 2521SOL     OW  952   3.231   2.812   1.660
 2521SOL    HW1  953   3.270   2.901   1.680
 2521SOL    HW2  954   3.241   2.792   1.563
 2523SOL     OW  955   3.519   2.466   1.206
 2523SOL    HW1  956   3.481   2.397   1.268
 2523SOL    HW2  957   3.601   2.430   1.162
 2524SOL     OW  958   2.114   3.426   1.744
 2524SOL    HW1  959   2.084   3.483   1.820
 2524SOL    HW2  960   2.107   3.329   1.770
 2525SOL     OW  961   2.533   2.326   1.269
 2525SOL    HW1  962   2.499   2.237   1.239
 2525SOL    HW2  963   2.559   2.380   1.189
 2526SOL     OW  964   2.792   3.540   1.465
 2526SOL    HW1  965   2.768   3.522   1.370
 2526SOL    HW2  966   2.822   3.634   1.475
 2528SOL     OW  967   2.021   2.999   1.466
 2528SOL    HW1  968   2.043   2.938   1.542
 2528SOL    HW2  969   2.031   2.950   1.380
 2529SOL     OW  970   3.209   2.921   1.234
 2529SOL    HW1  971   3.233   2.858   1.160
 2529SOL    HW2  972   3.119   2.961   1.216
 2534SOL     OW  973   2.550   3.524   1.716
 2534SOL    HW1  974   2.494   3.605   1.725
 2534SOL    HW2  975   2.602   3.528   1.630
 2538SOL     OW  976   1.992   3.656   1.851
 2538SOL    HW1  977   1.951   3.582   1.904
 2538SOL    HW2  978   2.056   3.707   1.909
 2540SOL     OW  979   2.692   3.135   1.422
 2540SOL    HW1  980   2.687   3.168   1.517
 2540SOL    HW2  981   2.606   3.154   1.376
 2542SOL     OW  982   3.512   3.582   1.394
 2542SOL    HW1  983   3.565   3.592   1.310
 2542SOL    HW2  984   3.485   3.672   1.428
 2546SOL     OW  985   2.684   2.864   1.372
 2546SOL    HW1  986   2.724   2.863   1.280
 2546SOL    HW2  987   2.694   2.956   1.412
 2549SOL     OW  988   2.234   3.150   1.490
 2549SOL    HW1  989   2.221   3.243   1.456
 2549SOL    HW2  990   2.150   3.098   1.477
 2550SOL     OW  991   3.476   3.154   1.289
 2550SOL    HW1  992   3.536   3.157   1.369
 2550SOL    HW2  993   3.401   3.218   1.302
 2554SOL     OW  994   3.571   2.247   1.381
 2554SOL    HW1  995   3.644   2.316   1.385
 2554SOL    HW2  996   3.599   2.172   1.322
 2556SOL     OW  997   1.967   2.875   1.726
 2556SOL    HW1  998   1.890   2.842   1.780
 2556SOL    HW2  999   2.052   2.845   1.768
 2557SOL     OW 1000   2.534   2.065   1.489
 2557SOL    HW1 1001   2.624   2.049   1.449
 2557SOL    HW2 1002   2.542   2.070   1.588
 2559SOL     OW 1003   3.302   2.718   1.398
 2559SOL    HW1 1004   3.245   2.770   1.335
 2559SOL    HW2 1005   3.398   2.730   1.374
 2562SOL     OW 1006   2.475   2.704   1.431
 2562SOL    HW1 1007   2.531   2.785   1.414
 2562SOL    HW2 1008   2.534   2.624   1.434
 2564SOL     OW 1009   2.578   2.427   1.708
 2564SOL    HW1 1010   2.597   2.492   1.782
 2564SOL    HW2 1011   2.638   2.347   1.717
 2565SOL     OW 1012   3.312   3.082   1.633
 2565SOL    HW1 1013   3.303   3.072   1.732
 2565SOL    HW2 1014   3.408   3.075   1.607
 2566SOL     OW 1015   2.252   3.603   1.560
 2566SOL    HW1 1016   2.161   3.644   1.558
 2566SOL    HW2 1017   2.245   3.509   1.592
 2567SOL     OW 1018   3.536   2.745   1.254
 2567SOL    HW1 1019   3.509   2.656   1.217
 2567SOL    HW2 1020   3.537   2.813   1.181
 2570SOL     OW 1021   3.639   2.204   1.642
 2570SOL    HW1 1022   3.622   2.235   1.548
 2570SOL    HW2 1023   3.555   2.167   1.680
 2571SOL     OW 1024   3.592   2.796   1.517
 2571SOL    HW1 1025   3.630   2.887   1.532
 2571SOL    HW2 1026   3.584   2.779   1.418
 2577SOL     OW 1027   2.083   3.176   1.844
 2577SOL    HW1 1028   2.018   3.103   1.823
 2577SOL    HW2 1029   2.087   3.190   1.942
 2579SOL     OW 1030   2.534   3.253   1.624
 2579SOL    HW1 1031   2.456   3.203   1.662
 2579SOL    HW2 1032   2.531   3.348   1.655
 2583SOL     OW 1033   2.179   2.409   1.280
 2583SOL    HW1 1034   2.217   2.350   1.352
 2583SOL    HW2 1035   2.219   2.383   1.192
 2586SOL     OW 1036   2.863   1.896   1.154
 2586SOL    HW1 1037   2.800   1.824   1.123
 2586SOL    HW2 1038   2.956   1.860   1.154
 2588SOL     OW 1039   2.480   3.429   1.284
 2588SOL    HW1 1040   2.475   3.511   1.341
 2588SOL    HW2 1041   2.569   3.426   1.239
 2594SOL     OW 1042   2.092   2.490   1.975
 2594SOL    HW1 1043   1.999   2.488   2.012
 2594SOL    HW2 1044   2.093   2.451   1.883
 2595SOL     OW 1045   2.087   2.137   2.858
 2595SOL    HW1 1046   2.122   2.120   2.950
 2595SOL    HW2 1047   1.999   2.092   2.846
 2596SOL     OW 1048   1.881   2.230   2.509
 2596SOL    HW1 1049   1.799   2.273   2.548
 2596SOL    HW2 1050   1.853   2.157   2.446
 2597SOL     OW 1051   2.431   3.137   3.027
 2597SOL    HW1 1052   2.338   3.130   2.990
 2597SOL    HW2 1053   2.442   3.226   3.071
 2598SOL     OW 1054   3.417   3.373   2.565
 2598SOL    HW1 1055   3.360   3.357   2.646
 2598SOL    HW2 1056   3.358   3.383   2.485
 2599SOL     OW 1057   2.997   2.565   2.579
 2599SOL    HW1 1058   3.054   2.643   2.554
 2599SOL    HW2 1059   2.937   2.591   2.655
 2600SOL     OW 1060   3.617   2.469   2.093
 2600SOL    HW1 1061   3.605   2.456   1.994
 2600SOL    HW2 1062   3.587   2.388   2.142
 2601SOL     OW 1063   2.712   2.660   3.685
 2601SOL    HW1 1064   2.708   2.736   3.750
 2601SOL    HW2 1065   2.734   2.696   3.594
 2602SOL     OW 1066   2.548   3.023   3.665
 2602SOL    HW1 1067   2.608   3.102   3.679
 2602SOL    HW2 1068   2.462   3.054   3.624
 2603SOL     OW 1069   2.197   3.297   2.923
 2603SOL    HW1 1070   2.119   3.266   2.870
 2603SOL    HW2 1071   2.255   3.355   2.866
 2604SOL     OW 1072   3.322   3.367   3.201
 2604SOL    HW1 1073   3.346   3.461   3.227
 2604SOL    HW2 1074   3.306   3.313   3.283
 2605SOL     OW 1075   2.300   2.254   3.361
 2605SOL    HW1 1076   2.382   2.198   3.370
 2605SOL    HW2 1077   2.219   2.196   3.365
 2606SOL     OW 1078   3.465   2.309   2.599
 2606SOL    HW1 1079   3.391   2.355   2.549
 2606SOL    HW2 1080   3.516   2.377   2.652
 2607SOL     OW 1081   2.093   3.575   2.345
 2607SOL    HW1 1082   2.127   3.652   2.399
 2607SOL    HW2 1083   2.137   3.575   2.255
 2608SOL     OW 1084   2.989   3.203   3.552
 2608SOL    HW1 1085   3.036   3.203   3.640
 2608SOL    HW2 1086   2.941   3.116   3.541
 2609SOL     OW 1087   2.092   3.296   2.400
 2609SOL    HW1 1088   2.066   3.392   2.400
 2609SOL    HW2 1089   2.021   3.242   2.445
 2610SOL     OW 1090   2.102   2.953   2.748
 2610SOL    HW1 1091   2.116   2.869   2.800
 2610SOL    HW2 1092   2.047   3.017   2.803
 2611SOL     OW 1093   2.482   3.648   3.301
 2611SOL    HW1 1094   2.390   3.631   3.336
 2611SOL    HW2 1095   2.510   3.740   3.327
 2612SOL     OW 1096   2.468   2.826   1.985
 2612SOL    HW1 1097   2.475   2.910   1.931
 2612SOL    HW2 1098   2.514   2.839   2.073
 2613SOL     OW 1099   3.456   1.976   3.342
 2613SOL    HW1 1100   3.438   2.043   3.270
 2613SOL    HW2 1101   3.453   2.022   3.431
 2614SOL     OW 1102   1.984   2.505   2.425
 2614SOL    HW1 1103   1.939   2.417   2.442
 2614SOL    HW2 1104   1.983   2.559   2.509
 2615SOL     OW 1105   3.704   3.629   2.221
 2615SOL    HW1 1106   3.758   3.600   2.301
 2615SOL    HW2 1107   3.734   3.719   2.192
 2616SOL     OW 1108   1.889   3.458   1.979
 2616SOL    HW1 1109   1.870   3.362   2.000
 2616SOL    HW2 1110   1.856   3.516   2.054
 2617SOL     OW 1111   3.551   2.784   2.474
 2617SOL    HW1 1112   3.646   2.755   2.482
 2617SOL    HW2 1113   3.543   2.849   2.399
 2618SOL     OW 1114   3.503   2.970   2.294
 2618SOL    HW1 1115   3.589   2.972   2.242
 2618SOL    HW2 1116   3.517   3.017   2.382
 2619SOL     OW 1117   1.975   2.599   3.459
 2619SOL    HW1 1118   2.063   2.586   3.504
 2619SOL    HW2 1119   1.962   2.696   3.437
 2620SOL     OW 1120   2.475   3.227   2.588
 2620SOL    HW1 1121   2.426   3.140   2.597
 2620SOL    HW2 1122   2.452   3.270   2.501
 2621SOL     OW 1123   3.155   3.090   3.285
 2621SOL    HW1 1124   3.192   3.017   3.227
 2621SOL    HW2 1125   3.207   3.095   3.370
 2622SOL     OW 1126   2.671   1.866   2.364
 2622SOL    HW1 1127   2.711   1.957   2.355
 2622SOL    HW2 1128   2.571   1.874   2.370
 2623SOL     OW 1129   2.059   2.838   3.126
 2623SOL    HW1 1130   2.148   2.793   3.112
 2623SOL    HW2 1131   1.986   2.773   3.107
 2624SOL     OW 1132   3.387   2.861   2.052
 2624SOL    HW1 1133   3.324   2.785   2.065
 2624SOL    HW2 1134   3.435   2.879   2.138
 2625SOL     OW 1135   3.049   3.654   3.478
 2625SOL    HW1 1136   3.073   3.714   3.402
 2625SOL    HW2 1137   3.056   3.559   3.448
 2626SOL     OW 1138   2.179   2.113   3.663
 2626SOL    HW1 1139   2.250   2.184   3.669
 2626SOL    HW2 1140   2.091   2.152   3.691
 2627SOL     OW 1141   3.328   3.279   2.815
 2627SOL    HW1 1142   3.269   3.285   2.895
 2627SOL    HW2 1143   3.313   3.191   2.769
 2628SOL     OW 1144   3.529   3.576   2.434
 2628SOL    HW1 1145   3.488   3.553   2.346
 2628SOL    HW2 1146   3.511   3.502   2.499
 2629SOL     OW 1147   2.460   2.591   2.132
 2629SOL    HW1 1148   2.484   2.660   2.064
 2629SOL    HW2 1149   2.382   2.624   2.186
 2630SOL     OW 1150   3.143   2.207   2.806
 2630SOL    HW1 1151   3.057   2.157   2.793
 2630SOL    HW2 1152   3.205   2.153   2.862
 2631SOL     OW 1153   3.438   3.524   2.169
 2631SOL    HW1 1154   3.527   3.570   2.172
 2631SOL    HW2 1155   3.417   3.500   2.074
 2632SOL     OW 1156   2.669   2.467   3.327
 2632SOL    HW1 1157   2.622   2.464   3.416
 2632SOL    HW2 1158   2.618   2.412   3.261
 2633SOL     OW 1159   3.256   2.331   3.536
 2633SOL    HW1 1160   3.236   2.374   3.624
 2633SOL    HW2 1161   3.334   2.269   3.545
 2634SOL     OW 1162   2.835   2.752   3.434
 2634SOL    HW1 1163   2.881   2.668   3.405
 2634SOL    HW2 1164   2.779   2.786   3.359
 2635SOL     OW 1165   2.853   2.272   3.104
 2635SOL    HW1 1166   2.776   2.306   3.158
 2635SOL    HW2 1167   2.819   2.221   3.025
 2636SOL     OW 1168   2.903   2.563   2.291
 2636SOL    HW1 1169   2.929   2.559   2.387
 2636SOL    HW2 1170   2.818   2.512   2.277
 2637SOL     OW 1171   1.938   2.673   2.651
 2637SOL    HW1 1172   2.037   2.661   2.660
 2637SOL    HW2 1173   1.914   2.768   2.672
 2638SOL     OW 1174   1.992   3.683   3.433
 2638SOL    HW1 1175   1.982   3.668   3.532
 2638SOL    HW2 1176   1.906   3.719   3.397
 2639SOL     OW 1177   2.727   2.210   2.057
 2639SOL    HW1 1178   2.786   2.273   2.008
 2639SOL    HW2 1179   2.746   2.116   2.028
 2640SOL     OW 1180   3.581   2.447   3.693
 2640SOL    HW1 1181   3.555   2.536   3.657
 2640SOL    HW2 1182   3.579   2.379   3.620
 2641SOL     OW 1183   3.224   3.006   2.407
 2641SOL    HW1 1184   3.307   2.977   2.359
 2641SOL    HW2 1185   3.175   3.073   2.351
 2642SOL     OW 1186   2.412   2.058   2.747
 2642SOL    HW1 1187   2.407   2.053   2.847
 2642SOL    HW2 1188   2.414   2.154   2.718
 2643SOL     OW 1189   2.870   3.318   2.339
 2643SOL    HW1 1190   2.824   3.390   2.287
 2643SOL    HW2 1191   2.866   3.338   2.437
 2644SOL     OW 1192   2.213   3.663   2.715
 2644SOL    HW1 1193   2.263   3.577   2.721
 2644SOL    HW2 1194   2.278   3.740   2.712
 2645SOL     OW 1195   3.657   2.928   2.735
 2645SOL    HW1 1196   3.595   2.913   2.659
 2645SOL    HW2 1197   3.605   2.939   2.820
 2646SOL     OW 1198   3.089   3.412   3.368
 2646SOL    HW1 1199   3.095   3.335   3.432
 2646SOL    HW2 1200   3.037   3.386   3.288
 2647SOL     OW 1201   2.183   2.805   2.104
 2647SOL    HW1 1202   2.265   2.844   2.062
 2647SOL    HW2 1203   2.156   2.723   2.055
 2648SOL     OW 1204   3.320   2.597   2.590
 2648SOL    HW1 1205   3.315   2.532   2.665
 2648SOL    HW2 1206   3.400   2.656   2.603
 2649SOL     OW 1207   2.323   3.128   3.589
 2649SOL    HW1 1208   2.273   3.129   3.503
 2649SOL    HW2 1209   2.260   3.110   3.665
 2650SOL     OW 1210   2.973   3.638   2.099
 2650SOL    HW1 1211   2.913   3.576   2.149
 2650SOL    HW2 1212   3.004   3.594   2.014
 2651SOL     OW 1213   2.064   2.147   3.360
 2651SOL    HW1 1214   1.984   2.207   3.347
 2651SOL    HW2 1215   2.054   2.098   3.446
 2652SOL     OW 1216   3.494   3.239   1.943
 2652SOL    HW1 1217   3.462   3.333   1.933
 2652SOL    HW2 1218   3.418   3.176   1.931
 2653SOL     OW 1219   2.326   3.605   2.185
 2653SOL    HW1 1220   2.359   3.644   2.271
 2653SOL    HW2 1221   2.402   3.598   2.120
 2654SOL     OW 1222   3.262   1.969   2.288
 2654SOL    HW1 1223   3.238   1.932   2.198
 2654SOL    HW2 1224   3.361   1.985   2.292
 2655SOL     OW 1225   2.111   3.647   3.103
 2655SOL    HW1 1226   2.168   3.582   3.153
 2655SOL    HW2 1227   2.095   3.614   3.010
 2656SOL     OW 1228   2.802   3.560   2.766
 2656SOL    HW1 1229   2.882   3.503   2.787
 2656SOL    HW2 1230   2.753   3.520   2.689
 2657SOL     OW 1231   2.244   2.562   2.342
 2657SOL    HW1 1232   2.289   2.472   2.339
 2657SOL    HW2 1233   2.150   2.551   2.375
 2658SOL     OW 1234   3.409   2.084   3.591
 2658SOL    HW1 1235   3.404   2.121   3.683
 2658SOL    HW2 1236   3.337   2.015   3.579
 2659SOL     OW 1237   2.476   1.984   1.979
 2659SOL    HW1 1238   2.574   1.962   1.986
 2659SOL    HW2 1239   2.445   1.967   1.886
 2660SOL     OW 1240   2.643   2.126   3.611
 2660SOL    HW1 1241   2.710   2.065   3.654
 2660SOL    HW2 1242   2.570   2.145   3.676
 2661SOL     OW 1243   2.750   3.376   3.057
 2661SOL    HW1 1244   2.727   3.351   2.963
 2661SOL    HW2 1245   2.811   3.307   3.096
 2662SOL     OW 1246   3.213   2.452   3.295
 2662SOL    HW1 1247   3.241   2.409   3.380
 2662SOL    HW2 1248   3.238   2.548   3.296
 2663SOL     OW 1249   2.665   3.264   2.786
 2663SOL    HW1 1250   2.755   3.278   2.744
 2663SOL    HW2 1251   2.594   3.266   2.715
 2664SOL     OW 1252   2.784   2.365   2.761
 2664SOL    HW1 1253   2.759   2.356   2.665
 2664SOL    HW2 1254   2.832   2.283   2.792
 2665SOL     OW 1255   2.401   1.926   2.374
 2665SOL    HW1 1256   2.320   1.927   2.432
 2665SOL    HW2 1257   2.404   2.009   2.319
 2666SOL     OW 1258   3.296   3.050   1.903
 2666SOL    HW1 1259   3.328   2.974   1.960
 2666SOL    HW2 1260   3.204   3.077   1.933
 2667SOL     OW 1261   2.159   1.897   2.033
 2667SOL    HW1 1262   2.208   1.981   2.012
 2667SOL    HW2 1263   2.221   1.832   2.078
 2668SOL     OW 1264   2.797   2.098   2.342
 2668SOL    HW1 1265   2.749   2.139   2.264
 2668SOL    HW2 1266   2.896   2.096   2.323
 2669SOL     OW 1267   2.938   2.545   3.326
 2669SOL    HW1 1268   2.858   2.484   3.329
 2669SOL    HW2 1269   3.019   2.492   3.302
 2670SOL     OW 1270   3.089   3.432   2.655
 2670SOL    HW1 1271   3.110   3.506   2.590
 2670SOL    HW2 1272   3.157   3.432   2.728
 2671SOL     OW 1273   2.321   3.014   2.603
 2671SOL    HW1 1274   2.250   2.987   2.668
 2671SOL    HW2 1275   2.295   2.986   2.510
 2672SOL     OW 1276   3.133   3.659   2.453
 2672SOL    HW1 1277   3.177   3.723   2.389
 2672SOL    HW2 1278   3.083   3.711   2.523
 2673SOL     OW 1279   2.894   2.411   1.878
 2673SOL    HW1 1280   2.853   2.493   1.839
 2673SOL    HW2 1281   2.958   2.437   1.951
 2674SOL     OW 1282   1.940   2.418   3.248
 2674SOL    HW1 1283   2.032   2.417   3.207
 2674SOL    HW2 1284   1.934   2.492   3.315
 2675SOL     OW 1285   2.423   2.084   3.009
 2675SOL    HW1 1286   2.461   2.000   3.046
 2675SOL    HW2 1287   2.335   2.103   3.053
 2676SOL     OW 1288   2.879   1.901   2.615
 2676SOL    HW1 1289   2.807   1.906   2.546
 2676SOL    HW2 1290   2.855   1.832   2.684
 2677SOL     OW 1291   3.291   3.035   2.729
 2677SOL    HW1 1292   3.236   2.951   2.722
 2677SOL    HW2 1293   3.317   3.064   2.637
 2678SOL     OW 1294   3.328   2.452   2.854
 2678SOL    HW1 1295   3.298   2.357   2.861
 2678SOL    HW2 1296   3.401   2.468   2.920
 2679SOL     OW 1297   3.719   2.695   2.239
 2679SOL    HW1 1298   3.761   2.631   2.303
 2679SOL    HW2 1299   3.681   2.644   2.161
 2680SOL     OW 1300   2.350   3.247   2.036
 2680SOL    HW1 1301   2.263   3.232   2.083
 2680SOL    HW2 1302   2.333   3.273   1.941
 2681SOL     OW 1303   3.526   3.142   2.519
 2681SOL    HW1 1304   3.625   3.150   2.533
 2681SOL    HW2 1305   3.481   3.226   2.550
 2682SOL     OW 1306   3.252   2.437   1.940
 2682SOL    HW1 1307   3.198   2.416   2.021
 2682SOL    HW2 1308   3.343   2.396   1.949
 2683SOL     OW 1309   3.616   3.085   3.450
 2683SOL    HW1 1310   3.707   3.046   3.437
 2683SOL    HW2 1311   3.624   3.181   3.474
 2684SOL     OW 1312   3.454   3.491   3.487
 2684SOL    HW1 1313   3.481   3.525   3.397
 2684SOL    HW2 1314   3.533   3.453   3.533
 2685SOL     OW 1315   3.500   2.961   2.941
 2685SOL    HW1 1316   3.505   3.042   3.000
 2685SOL    HW2 1317   3.414   2.963   2.890
 2686SOL     OW 1318   2.777   1.951   3.264
 2686SOL    HW1 1319   2.802   1.931   3.169
 2686SOL    HW2 1320   2.849   2.007   3.306
 2687SOL     OW 1321   2.842   2.978   3.581
 2687SOL    HW1 1322   2.743   2.984   3.591
 2687SOL    HW2 1323   2.865   2.898   3.525
 2688SOL     OW 1324   2.567   2.912   2.230
 2688SOL    HW1 1325   2.553   2.919   2.329
 2688SOL    HW2 1326   2.651   2.861   2.212
 2689SOL     OW 1327   2.272   2.675   3.113
 2689SOL    HW1 1328   2.358   2.687   3.163
 2689SOL    HW2 1329   2.230   2.588   3.140
 2690SOL     OW 1330   3.136   2.248   3.124
 2690SOL    HW1 1331   3.157   2.322   3.188
 2690SOL    HW2 1332   3.047   2.265   3.081
 2691SOL     OW 1333   1.926   3.426   3.193
 2691SOL    HW1 1334   1.880   3.508   3.159
 2691SOL    HW2 1335   2.024   3.445   3.202
 2692SOL     OW 1336   2.229   2.962   2.363
 2692SOL    HW1 1337   2.222   3.045   2.307
 2692SOL    HW2 1338   2.233   2.882   2.303
 2693SOL     OW 1339   2.428   2.399   2.727
 2693SOL    HW1 1340   2.440   2.465   2.653
 2693SOL    HW2 1341   2.474   2.433   2.810
 2694SOL     OW 1342   3.114   3.210   2.250
 2694SOL    HW1 1343   3.164   3.287   2.290
 2694SOL    HW2 1344   3.019   3.212   2.282
 2695SOL     OW 1345   3.134   3.307   3.004
 2695SOL    HW1 1346   3.181   3.320   3.091
 2695SOL    HW2 1347   3.068   3.233   3.013
 2696SOL     OW 1348   3.444   2.501   2.334
 2696SOL    HW1 1349   3.413   2.562   2.407
 2696SOL    HW2 1350   3.494   2.553   2.265
 2697SOL     OW 1351   2.216   3.372   3.191
 2697SOL    HW1 1352   2.195   3.328   3.104
 2697SOL    HW2 1353   2.313   3.398   3.194
 2698SOL     OW 1354   2.264   2.613   3.460
 2698SOL    HW1 1355   2.332   2.668   3.413
 2698SOL    HW2 1356   2.304   2.525   3.487
 2699SOL     OW 1357   3.449   2.641   3.532
 2699SOL    HW1 1358   3.357   2.679   3.527
 2699SOL    HW2 1359   3.509   2.688   3.467
 2700SOL     OW 1360   2.875   1.967   3.632
 2700SOL    HW1 1361   2.881   2.052   3.580
 2700SOL    HW2 1362   2.907   1.891   3.575
 2701SOL     OW 1363   2.366   1.912   3.602
 2701SOL    HW1 1364   2.324   1.855   3.532
 2701SOL    HW2 1365   2.300   1.981   3.634
 2702SOL     OW 1366   2.435   2.732   2.891
 2702SOL    HW1 1367   2.479   2.821   2.882
 2702SOL    HW2 1368   2.372   2.732   2.968
 2703SOL     OW 1369   3.222   2.724   2.907
 2703SOL    HW1 1370   3.147   2.724   2.841
 2703SOL    HW2 1371   3.259   2.632   2.916
 2704SOL     OW 1372   3.071   2.387   2.137
 2704SOL    HW1 1373   3.084   2.303   2.191
 2704SOL    HW2 1374   3.042   2.461   2.197
 2705SOL     OW 1375   2.169   2.075   3.093
 2705SOL    HW1 1376   2.146   2.112   3.183
 2705SOL    HW2 1377   2.139   1.980   3.087
 2706SOL     OW 1378   1.899   3.172   3.144
 2706SOL    HW1 1379   1.952   3.123   3.212
 2706SOL    HW2 1380   1.921   3.270   3.149
 2707SOL     OW 1381   2.594   2.496   2.926
 2707SOL    HW1 1382   2.653   2.470   2.850
 2707SOL    HW2 1383   2.566   2.592   2.915
 2708SOL     OW 1384   3.590   2.797   3.716
 2708SOL    HW1 1385   3.544   2.790   3.627
 2708SOL    HW2 1386   3.528   2.841   3.782
 2709SOL     OW 1387   2.169   1.925   2.480
 2709SOL    HW1 1388   2.158   2.019   2.513
 2709SOL    HW2 1389   2.164   1.862   2.557
 2710SOL     OW 1390   3.484   2.229   2.236
 2710SOL    HW1 1391   3.486   2.153   2.300
 2710SOL    HW2 1392   3.436   2.306   2.276
 2711SOL     OW 1393   2.842   3.435   3.562
 2711SOL    HW1 1394   2.822   3.479   3.474
 2711SOL    HW2 1395   2.881   3.344   3.546
 2712SOL     OW 1396   3.721   3.380   3.467
 2712SOL    HW1 1397   3.735   3.407   3.372
 2712SOL    HW2 1398   3.804   3.402   3.520
 2713SOL     OW 1399   2.212   2.760   3.666
 2713SOL    HW1 1400   2.288   2.804   3.714
 2713SOL    HW2 1401   2.247   2.713   3.584
 2714SOL     OW 1402   3.402   2.136   1.987
 2714SOL    HW1 1403   3.341   2.061   2.010
 2714SOL    HW2 1404   3.424   2.188   2.070
 2715SOL     OW 1405   3.165   2.700   1.904
 2715SOL    HW1 1406   3.199   2.607   1.919
 2715SOL    HW2 1407   3.183   2.727   1.809
 2716SOL     OW 1408   2.930   3.195   2.711
 2716SOL    HW1 1409   2.937   3.111   2.656
 2716SOL    HW2 1410   2.992   3.264   2.675
 2717SOL     OW 1411   2.181   2.672   2.811
 2717SOL    HW1 1412   2.274   2.708   2.816
 2717SOL    HW2 1413   2.175   2.587   2.863
 2718SOL     OW 1414   2.201   2.371   2.868
 2718SOL    HW1 1415   2.149   2.288   2.851
 2718SOL    HW2 1416   2.278   2.376   2.804
 2719SOL     OW 1417   3.000   2.242   3.540
 2719SOL    HW1 1418   2.955   2.305   3.604
 2719SOL    HW2 1419   3.093   2.273   3.523
 2720SOL     OW 1420   3.022   2.069   3.339
 2720SOL    HW1 1421   3.022   2.133   3.416
 2720SOL    HW2 1422   3.050   2.117   3.256
 2721SOL     OW 1423   1.870   3.188   2.062
 2721SOL    HW1 1424   1.777   3.209   2.031
 2721SOL    HW2 1425   1.880   3.089   2.075
 2722SOL     OW 1426   1.950   3.663   2.789
 2722SOL    HW1 1427   1.908   3.577   2.762
 2722SOL    HW2 1428   2.044   3.666   2.755
 2723SOL     OW 1429   2.366   3.430   2.772
 2723SOL    HW1 1430   2.432   3.504   2.781
 2723SOL    HW2 1431   2.410   3.351   2.730
 2724SOL     OW 1432   2.864   2.658   3.100
 2724SOL    HW1 1433   2.905   2.626   3.186
 2724SOL    HW2 1434   2.768   2.631   3.097
 2725SOL     OW 1435   1.902   2.406   2.976
 2725SOL    HW1 1436   1.987   2.373   2.935
 2725SOL    HW2 1437   1.915   2.421   3.074
 2726SOL     OW 1438   2.051   2.382   3.584
 2726SOL    HW1 1439   2.110   2.342   3.514
 2726SOL    HW2 1440   1.993   2.453   3.543
 2727SOL     OW 1441   3.231   2.812   3.522
 2727SOL    HW1 1442   3.270   2.901   3.542
 2727SOL    HW2 1443   3.241   2.792   3.425
 2728SOL     OW 1444   3.519   2.466   3.068
 2728SOL    HW1 1445   3.481   2.397   3.130
 2728SOL    HW2 1446   3.601   2.430   3.024
 2729SOL     OW 1447   2.114   3.426   3.606
 2729SOL    HW1 1448   2.084   3.483   3.682
 2729SOL    HW2 1449   2.107   3.329   3.632
 2730SOL     OW 1450   2.533   2.326   3.131
 2730SOL    HW1 1451   2.499   2.237   3.101
 2730SOL    HW2 1452   2.559   2.380   3.051
 2731SOL     OW 1453   2.792   3.540   3.327
 2731SOL    HW1 1454   2.768   3.522   3.232
 2731SOL    HW2 1455   2.822   3.634   3.337
 2732SOL     OW 1456   2.335   2.362   2.053
 2732SOL    HW1 1457   2.396   2.442   2.057
 2732SOL    HW2 1458   2.240   2.393   2.060
 2733SOL     OW 1459   2.021   2.999   3.328
 2733SOL    HW1 1460   2.043   2.938   3.404
 2733SOL    HW2 1461   2.031   2.950   3.242
 2734SOL     OW 1462   3.209   2.921   3.096
 2734SOL    HW1 1463   3.233   2.858   3.022
 2734SOL    HW2 1464   3.119   2.961   3.078
 2735SOL     OW 1465   3.164   2.717   2.171
 2735SOL    HW1 1466   3.078   2.686   2.213
 2735SOL    HW2 1467   3.160   2.703   2.072
 2736SOL     OW 1468   3.621   3.609   3.016
 2736SOL    HW1 1469   3.682   3.639   2.943
 2736SOL    HW2 1470   3.583   3.520   2.994
 2737SOL     OW 1471   3.114   3.593   2.990
 2737SOL    HW1 1472   3.198   3.598   2.936
 2737SOL    HW2 1473   3.091   3.497   3.008
 2738SOL     OW 1474   1.945   3.120   2.884
 2738SOL    HW1 1475   1.940   3.119   2.984
 2738SOL    HW2 1476   1.862   3.079   2.846
 2739SOL     OW 1477   2.550   3.524   3.578
 2739SOL    HW1 1478   2.494   3.605   3.587
 2739SOL    HW2 1479   2.602   3.528   3.492
 2740SOL     OW 1480   3.588   1.997   2.385
 2740SOL    HW1 1481   3.661   1.980   2.318
 2740SOL    HW2 1482   3.557   1.910   2.423
 2741SOL     OW 1483   3.250   3.435   2.339
 2741SOL    HW1 1484   3.317   3.447   2.265
 2741SOL    HW2 1485   3.210   3.524   2.362
 2742SOL     OW 1486   1.992   3.656   3.713
 2742SOL    HW1 1487   1.951   3.582   3.766
 2742SOL    HW2 1488   2.056   3.707   3.771
 2743SOL     OW 1489   3.142   2.789   2.534
 2743SOL    HW1 1490   3.202   2.708   2.536
 2743SOL    HW2 1491   3.182   2.858   2.474
 2744SOL     OW 1492   2.692   3.135   3.284
 2744SOL    HW1 1493   2.687   3.168   3.379
 2744SOL    HW2 1494   2.606   3.154   3.238
 2745SOL     OW 1495   2.534   3.478   2.016
 2745SOL    HW1 1496   2.543   3.488   1.917
 2745SOL    HW2 1497   2.494   3.389   2.037
 2746SOL     OW 1498   3.512   3.582   3.256
 2746SOL    HW1 1499   3.565   3.592   3.172
 2746SOL    HW2 1500   3.485   3.672   3.290
 2747SOL     OW 1501   3.703   2.037   2.825
 2747SOL    HW1 1502   3.742   1.952   2.789
 2747SOL    HW2 1503   3.605   2.039   2.806
 2748SOL     OW 1504   2.125   2.188   2.582
 2748SOL    HW1 1505   2.046   2.239   2.548
 2748SOL    HW2 1506   2.116   2.173   2.680
 2749SOL     OW 1507   3.056   3.474   1.893
 2749SOL    HW1 1508   3.062   3.381   1.930
 2749SOL    HW2 1509   2.997   3.474   1.813
 2750SOL     OW 1510   2.778   2.772   2.153
 2750SOL    HW1 1511   2.841   2.810   2.085
 2750SOL    HW2 1512   2.818   2.689   2.192
 2751SOL     OW 1513   3.366   3.469   1.906
 2751SOL    HW1 1514   3.274   3.506   1.913
 2751SOL    HW2 1515   3.404   3.489   1.816
 2752SOL     OW 1516   2.234   3.150   3.352
 2752SOL    HW1 1517   2.221   3.243   3.318
 2752SOL    HW2 1518   2.150   3.098   3.339
 2753SOL     OW 1519   3.476   3.154   3.151
 2753SOL    HW1 1520   3.536   3.157   3.231
 2753SOL    HW2 1521   3.401   3.218   3.164
 2754SOL     OW 1522   2.901   2.960   2.558
 2754SOL    HW1 1523   2.831   2.913   2.612
 2754SOL    HW2 1524   2.960   2.892   2.515
 2755SOL     OW 1525   2.876   2.098   2.833
 2755SOL    HW1 1526   2.868   2.062   2.740
 2755SOL    HW2 1527   2.874   2.022   2.898
 2756SOL     OW 1528   2.452   3.349   2.353
 2756SOL    HW1 1529   2.494   3.291   2.283
 2756SOL    HW2 1530   2.408   3.428   2.309
 2757SOL     OW 1531   3.571   2.247   3.243
 2757SOL    HW1 1532   3.644   2.316   3.247
 2757SOL    HW2 1533   3.599   2.172   3.184
 2758SOL     OW 1534   2.117   3.210   2.152
 2758SOL    HW1 1535   2.021   3.211   2.125
 2758SOL    HW2 1536   2.129   3.263   2.236
 2759SOL     OW 1537   1.967   2.875   3.588
 2759SOL    HW1 1538   1.890   2.842   3.642
 2759SOL    HW2 1539   2.052   2.845   3.630
 2760SOL     OW 1540   2.534   2.065   3.351
 2760SOL    HW1 1541   2.624   2.049   3.311
 2760SOL    HW2 1542   2.542   2.070   3.450
 2761SOL     OW 1543   1.937   2.207   1.895
 2761SOL    HW1 1544   1.845   2.179   1.866
 2761SOL    HW2 1545   1.968   2.284   1.839
 2762SOL     OW 1546   3.302   2.718   3.260
 2762SOL    HW1 1547   3.245   2.770   3.197
 2762SOL    HW2 1548   3.398   2.730   3.236
 2763SOL     OW 1549   1.934   2.028   2.180
 2763SOL    HW1 1550   1.917   2.111   2.126
 2763SOL    HW2 1551   2.024   1.991   2.158
 2764SOL     OW 1552   3.045   3.197   1.981
 2764SOL    HW1 1553   2.946   3.186   1.983
 2764SOL    HW2 1554   3.079   3.212   2.074
 2765SOL     OW 1555   2.475   2.704   3.293
 2765SOL    HW1 1556   2.531   2.785   3.276
 2765SOL    HW2 1557   2.534   2.624   3.296
 2766SOL     OW 1558   3.355   3.629   2.821
 2766SOL    HW1 1559   3.388   3.693   2.752
 2766SOL    HW2 1560   3.421   3.623   2.896
 2767SOL     OW 1561   2.578   2.427   3.570
 2767SOL    HW1 1562   2.597   2.492   3.644
 2767SOL    HW2 1563   2.638   2.347   3.579
 2768SOL     OW 1564   3.312   3.082   3.495
 2768SOL    HW1 1565   3.303   3.072   3.594
 2768SOL    HW2 1566   3.408   3.075   3.469
 2769SOL     OW 1567   2.252   3.603   3.422
 2769SOL    HW1 1568   2.161   3.644   3.420
 2769SOL    HW2 1569   2.245   3.509   3.454
 2770SOL     OW 1570   3.536   2.745   3.116
 2770SOL    HW1 1571   3.509   2.656   3.079
 2770SOL    HW2 1572   3.537   2.813   3.043
 2771SOL     OW 1573   3.087   2.187   2.311
 2771SOL    HW1 1574   3.152   2.113   2.300
 2771SOL    HW2 1575   3.107   2.237   2.395
 2772SOL     OW 1576   3.639   2.204   3.504
 2772SOL    HW1 1577   3.622   2.235   3.410
 2772SOL    HW2 1578   3.555   2.167   3.542
 2773SOL     OW 1579   3.592   2.796   3.379
 2773SOL    HW1 1580   3.630   2.887   3.394
 2773SOL    HW2 1581   3.584   2.779   3.280
 2774SOL     OW 1582   2.721   3.236   1.878
 2774SOL    HW1 1583   2.675   3.251   1.966
 2774SOL    HW2 1584   2.765   3.321   1.848
 2775SOL     OW 1585   2.523   3.652   2.815
 2775SOL    HW1 1586   2.477   3.740   2.802
 2775SOL    HW2 1587   2.622   3.664   2.808
 2776SOL     OW 1588   2.945   2.846   1.949
 2776SOL    HW1 1589   2.922   2.899   1.867
 2776SOL    HW2 1590   3.026   2.790   1.930
 2777SOL     OW 1591   3.723   3.431   2.713
 2777SOL    HW1 1592   3.652   3.419   2.643
 2777SOL    HW2 1593   3.724   3.352   2.773
 2778SOL     OW 1594   2.083   3.176   3.706
 2778SOL    HW1 1595   2.018   3.103   3.685
 2778SOL    HW2 1596   2.087   3.190   3.804
 2779SOL     OW 1597   1.941   3.102   2.515
 2779SOL    HW1 1598   1.940   3.055   2.603
 2779SOL    HW2 1599   2.023   3.074   2.464
 2780SOL     OW 1600   2.534   3.253   3.486
 2780SOL    HW1 1601   2.456   3.203   3.524
 2780SOL    HW2 1602   2.531   3.348   3.517
 2781SOL     OW 1603   3.686   2.054   3.089
 2781SOL    HW1 1604   3.682   1.964   3.133
 2781SOL    HW2 1605   3.689   2.043   2.990
 2782SOL     OW 1606   2.290   2.286   2.382
 2782SOL    HW1 1607   2.320   2.214   2.320
 2782SOL    HW2 1608   2.251   2.246   2.465
 2783SOL     OW 1609   3.567   3.349   2.966
 2783SOL    HW1 1610   3.474   3.324   2.939
 2783SOL    HW2 1611   3.593   3.299   3.048
 2784SOL     OW 1612   2.179   2.409   3.142
 2784SOL    HW1 1613   2.217   2.350   3.214
 2784SOL    HW2 1614   2.219   2.383   3.054
 2785SOL     OW 1615   2.674   3.448   2.549
 2785SOL    HW1 1616   2.706   3.458   2.455
 2785SOL    HW2 1617   2.595   3.386   2.551
 2786SOL     OW 1618   3.286   2.076   2.974
 2786SOL    HW1 1619   3.338   2.011   3.029
 2786SOL    HW2 1620   3.237   2.139   3.035
 2787SOL     OW 1621   2.863   1.896   3.016
 2787SOL    HW1 1622   2.800   1.824   2.985
 2787SOL    HW2 1623   2.956   1.860   3.016
 2788SOL     OW 1624   2.632   3.192   2.163
 2788SOL    HW1 1625   2.586   3.105   2.180
 2788SOL    HW2 1626   2.723   3.189   2.204
 2789SOL     OW 1627   2.480   3.429   3.146
 2789SOL    HW1 1628   2.475   3.511   3.203
 2789SOL    HW2 1629   2.569   3.426   3.101
 2790SOL     OW 1630   3.214   1.914   2.030
 2790SOL    HW1 1631   3.249   1.873   1.946
 2790SOL    HW2 1632   3.124   1.876   2.050
 2791SOL     OW 1633   3.162   2.315   2.553
 2791SOL    HW1 1634   3.103   2.395   2.557
 2791SOL    HW2 1635   3.177   2.280   2.646
 2792SOL     OW 1636   3.455   2.083   2.744
 2792SOL    HW1 1637   3.371   2.082   2.798
 2792SOL    HW2 1638   3.457   2.166   2.688
 2793SOL     OW 1639   1.901   2.939   2.162
 2793SOL    HW1 1640   2.000   2.928   2.153
 2793SOL    HW2 1641   1.861   2.853   2.194
 2794SOL     OW 1642   2.737   3.508   2.199
 2794SOL    HW1 1643   2.660   3.473   2.145
 2794SOL    HW2 1644   2.705   3.579   2.261
 2795SOL     OW 1645   2.092   2.490   3.837
 2795SOL    HW1 1646   1.999   2.488   3.874
 2795SOL    HW2 1647   2.093   2.451   3.745
 2800SOL     OW 1648   2.997   2.565   4.441
 2800SOL    HW1 1649   3.054   2.643   4.416
 2800SOL    HW2 1650   2.937   2.591   4.517
 2801SOL     OW 1651   3.617   2.469   3.955
 2801SOL    HW1 1652   3.605   2.456   3.856
 2801SOL    HW2 1653   3.587   2.388   4.004
 2803SOL     OW 1654   2.547   2.874   4.389
 2803SOL    HW1 1655   2.616   2.858   4.459
 2803SOL    HW2 1656   2.474   2.931   4.427
 2809SOL     OW 1657   2.092   3.296   4.262
 2809SOL    HW1 1658   2.066   3.392   4.262
 2809SOL    HW2 1659   2.021   3.242   4.307
 2812SOL     OW 1660   2.468   2.826   3.847
 2812SOL    HW1 1661   2.475   2.910   3.793
 2812SOL    HW2 1662   2.514   2.839   3.935
 2814SOL     OW 1663   1.984   2.505   4.287
 2814SOL    HW1 1664   1.939   2.417   4.304
 2814SOL    HW2 1665   1.983   2.559   4.371
 2816SOL     OW 1666   1.889   3.458   3.841
 2816SOL    HW1 1667   1.870   3.362   3.862
 2816SOL    HW2 1668   1.856   3.516   3.916
 2818SOL     OW 1669   3.503   2.970   4.156
 2818SOL    HW1 1670   3.589   2.972   4.104
 2818SOL    HW2 1671   3.517   3.017   4.244
 2822SOL     OW 1672   2.671   1.866   4.226
 2822SOL    HW1 1673   2.711   1.957   4.217
 2822SOL    HW2 1674   2.571   1.874   4.232
 2824SOL     OW 1675   3.387   2.861   3.914
 2824SOL    HW1 1676   3.324   2.785   3.927
 2824SOL    HW2 1677   3.435   2.879   4.000
 2827SOL     OW 1678   2.460   2.591   3.994
 2827SOL    HW1 1679   2.484   2.660   3.926
 2827SOL    HW2 1680   2.382   2.624   4.048
 2829SOL     OW 1681   3.438   3.524   4.031
 2829SOL    HW1 1682   3.527   3.570   4.034
 2829SOL    HW2 1683   3.417   3.500   3.936
 2833SOL     OW 1684   2.903   2.563   4.153
 2833SOL    HW1 1685   2.929   2.559   4.249
 2833SOL    HW2 1686   2.818   2.512   4.139
 2836SOL     OW 1687   2.727   2.210   3.919
 2836SOL    HW1 1688   2.786   2.273   3.870
 2836SOL    HW2 1689   2.746   2.116   3.890
 2837SOL     OW 1690   3.224   3.006   4.269
 2837SOL    HW1 1691   3.307   2.977   4.221
 2837SOL    HW2 1692   3.175   3.073   4.213
 2839SOL     OW 1693   2.870   3.318   4.201
 2839SOL    HW1 1694   2.824   3.390   4.149
 2839SOL    HW2 1695   2.866   3.338   4.299
 2843SOL     OW 1696   2.183   2.805   3.966
 2843SOL    HW1 1697   2.265   2.844   3.924
 2843SOL    HW2 1698   2.156   2.723   3.917
 2845SOL     OW 1699   2.973   3.638   3.961
 2845SOL    HW1 1700   2.913   3.576   4.011
 2845SOL    HW2 1701   3.004   3.594   3.876
 2847SOL     OW 1702   3.494   3.239   3.805
 2847SOL    HW1 1703   3.462   3.333   3.795
 2847SOL    HW2 1704   3.418   3.176   3.793
 2848SOL     OW 1705   2.326   3.605   4.047
 2848SOL    HW1 1706   2.359   3.644   4.133
 2848SOL    HW2 1707   2.402   3.598   3.982
 2849SOL     OW 1708   3.262   1.969   4.150
 2849SOL    HW1 1709   3.238   1.932   4.060
 2849SOL    HW2 1710   3.361   1.985   4.154
 2852SOL     OW 1711   2.244   2.562   4.204
 2852SOL    HW1 1712   2.289   2.472   4.201
 2852SOL    HW2 1713   2.150   2.551   4.237
 2853SOL     OW 1714   2.476   1.984   3.841
 2853SOL    HW1 1715   2.574   1.962   3.848
 2853SOL    HW2 1716   2.445   1.967   3.748
 2858SOL     OW 1717   2.401   1.926   4.236
 2858SOL    HW1 1718   2.320   1.927   4.294
 2858SOL    HW2 1719   2.404   2.009   4.181
 2859SOL     OW 1720   3.296   3.050   3.765
 2859SOL    HW1 1721   3.328   2.974   3.822
 2859SOL    HW2 1722   3.204   3.077   3.795
 2860SOL     OW 1723   2.159   1.897   3.895
 2860SOL    HW1 1724   2.208   1.981   3.874
 2860SOL    HW2 1725   2.221   1.832   3.940
 2861SOL     OW 1726   2.797   2.098   4.204
 2861SOL    HW1 1727   2.749   2.139   4.126
 2861SOL    HW2 1728   2.896   2.096   4.185
 2866SOL     OW 1729   2.894   2.411   3.740
 2866SOL    HW1 1730   2.853   2.493   3.701
 2866SOL    HW2 1731   2.958   2.437   3.813
 2869SOL     OW 1732   2.728   2.316   4.366
 2869SOL    HW1 1733   2.696   2.388   4.304
 2869SOL    HW2 1734   2.752   2.235   4.313
 2873SOL     OW 1735   3.719   2.695   4.101
 2873SOL    HW1 1736   3.761   2.631   4.165
 2873SOL    HW2 1737   3.681   2.644   4.023
 2874SOL     OW 1738   2.350   3.247   3.898
 2874SOL    HW1 1739   2.263   3.232   3.945
 2874SOL    HW2 1740   2.333   3.273   3.803
 2876SOL     OW 1741   3.252   2.437   3.802
 2876SOL    HW1 1742   3.198   2.416   3.883
 2876SOL    HW2 1743   3.343   2.396   3.811
 2877SOL     OW 1744   2.389   2.118   4.052
 2877SOL    HW1 1745   2.416   2.059   3.977
 2877SOL    HW2 1746   2.389   2.213   4.021
 2883SOL     OW 1747   2.567   2.912   4.092
 2883SOL    HW1 1748   2.553   2.919   4.191
 2883SOL    HW2 1749   2.651   2.861   4.074
 2887SOL     OW 1750   2.229   2.962   4.225
 2887SOL    HW1 1751   2.222   3.045   4.169
 2887SOL    HW2 1752   2.233   2.882   4.165
 2889SOL     OW 1753   3.114   3.210   4.112
 2889SOL    HW1 1754   3.164   3.287   4.152
 2889SOL    HW2 1755   3.019   3.212   4.144
 2891SOL     OW 1756   3.444   2.501   4.196
 2891SOL    HW1 1757   3.413   2.562   4.269
 2891SOL    HW2 1758   3.494   2.553   4.127
 2897SOL     OW 1759   3.071   2.387   3.999
 2897SOL    HW1 1760   3.084   2.303   4.053
 2897SOL    HW2 1761   3.042   2.461   4.059
 2902SOL     OW 1762   3.484   2.229   4.098
 2902SOL    HW1 1763   3.486   2.153   4.162
 2902SOL    HW2 1764   3.436   2.306   4.138
 2905SOL     OW 1765   3.402   2.136   3.849
 2905SOL    HW1 1766   3.341   2.061   3.872
 2905SOL    HW2 1767   3.424   2.188   3.932
 2906SOL     OW 1768   3.165   2.700   3.766
 2906SOL    HW1 1769   3.199   2.607   3.781
 2906SOL    HW2 1770   3.183   2.727   3.671
 2911SOL     OW 1771   1.870   3.188   3.924
 2911SOL    HW1 1772   1.777   3.209   3.893
 2911SOL    HW2 1773   1.880   3.089   3.937
 2916SOL     OW 1774   2.677   2.434   4.049
 2916SOL    HW1 1775   2.684   2.345   4.003
 2916SOL    HW2 1776   2.583   2.468   4.041
 2921SOL     OW 1777   2.335   2.362   3.915
 2921SOL    HW1 1778   2.396   2.442   3.919
 2921SOL    HW2 1779   2.240   2.393   3.922
 2924SOL     OW 1780   3.164   2.717   4.033
 2924SOL    HW1 1781   3.078   2.686   4.075
 2924SOL    HW2 1782   3.160   2.703   3.934
 2929SOL     OW 1783   3.250   3.435   4.201
 2929SOL    HW1 1784   3.317   3.447   4.127
 2929SOL    HW2 1785   3.210   3.524   4.224
 2930SOL     OW 1786   3.142   2.789   4.396
 2930SOL    HW1 1787   3.202   2.708   4.398
 2930SOL    HW2 1788   3.182   2.858   4.336
 2932SOL     OW 1789   2.534   3.478   3.878
 2932SOL    HW1 1790   2.543   3.488   3.779
 2932SOL    HW2 1791   2.494   3.389   3.899
 2936SOL     OW 1792   3.056   3.474   3.755
 2936SOL    HW1 1793   3.062   3.381   3.792
 2936SOL    HW2 1794   2.997   3.474   3.675
 2938SOL     OW 1795   2.778   2.772   4.015
 2938SOL    HW1 1796   2.841   2.810   3.947
 2938SOL    HW2 1797   2.818   2.689   4.054
 2939SOL     OW 1798   3.366   3.469   3.768
 2939SOL    HW1 1799   3.274   3.506   3.775
 2939SOL    HW2 1800   3.404   3.489   3.678
 2942SOL     OW 1801   2.901   2.960   4.420
 2942SOL    HW1 1802   2.831   2.913   4.474
 2942SOL    HW2 1803   2.960   2.892   4.377
 2944SOL     OW 1804   2.452   3.349   4.215
 2944SOL    HW1 1805   2.494   3.291   4.145
 2944SOL    HW2 1806   2.408   3.428   4.171
 2946SOL     OW 1807   2.117   3.210   4.014
 2946SOL    HW1 1808   2.021   3.211   3.987
 2946SOL    HW2 1809   2.129   3.263   4.098
 2949SOL     OW 1810   1.937   2.207   3.757
 2949SOL    HW1 1811   1.845   2.179   3.728
 2949SOL    HW2 1812   1.968   2.284   3.701
 2951SOL     OW 1813   1.934   2.028   4.042
 2951SOL    HW1 1814   1.917   2.111   3.988
 2951SOL    HW2 1815   2.024   1.991   4.020
 2952SOL     OW 1816   3.045   3.197   3.843
 2952SOL    HW1 1817   2.946   3.186   3.845
 2952SOL    HW2 1818   3.079   3.212   3.936
 2958SOL     OW 1819   3.087   2.187   4.173
 2958SOL    HW1 1820   3.152   2.113   4.162
 2958SOL    HW2 1821   3.107   2.237   4.257
 2959SOL     OW 1822   2.456   2.607   4.376
 2959SOL    HW1 1823   2.506   2.692   4.357
 2959SOL    HW2 1824   2.368   2.609   4.328
 2961SOL     OW 1825   2.721   3.236   3.740
 2961SOL    HW1 1826   2.675   3.251   3.828
 2961SOL    HW2 1827   2.765   3.321   3.710
 2964SOL     OW 1828   2.945   2.846   3.811
 2964SOL    HW1 1829   2.922   2.899   3.729
 2964SOL    HW2 1830   3.026   2.790   3.792
 2969SOL     OW 1831   2.290   2.286   4.244
 2969SOL    HW1 1832   2.320   2.214   4.182
 2969SOL    HW2 1833   2.251   2.246   4.327
 2975SOL     OW 1834   2.632   3.192   4.025
 2975SOL    HW1 1835   2.586   3.105   4.042
 2975SOL    HW2 1836   2.723   3.189   4.066
 2977SOL     OW 1837   3.214   1.914   3.892
 2977SOL    HW1 1838   3.249   1.873   3.808
 2977SOL    HW2 1839   3.124   1.876   3.912
 2980SOL     OW 1840   1.901   2.939   4.024
 2980SOL    HW1 1841   2.000   2.928   4.015
 2980SOL    HW2 1842   1.861   2.853   4.056
 2981SOL     OW 1843   2.737   3.508   4.061
 2981SOL    HW1 1844   2.660   3.473   4.007
 2981SOL    HW2 1845   2.705   3.579   4.123
 3012SOL     OW 1846   2.179   3.975   1.801
 3012SOL    HW1 1847   2.250   4.046   1.807
 3012SOL    HW2 1848   2.091   4.014   1.829
 3037SOL     OW 1849   3.409   3.946   1.729
 3037SOL    HW1 1850   3.404   3.983   1.821
 3037SOL    HW2 1851   3.337   3.877   1.717
 3039SOL     OW 1852   2.643   3.988   1.749
 3039SOL    HW1 1853   2.710   3.927   1.792
 3039SOL    HW2 1854   2.570   4.007   1.814
 3067SOL     OW 1855   2.777   3.813   1.402
 3067SOL    HW1 1856   2.802   3.793   1.307
 3067SOL    HW2 1857   2.849   3.869   1.444
 3081SOL     OW 1858   2.875   3.829   1.770
 3081SOL    HW1 1859   2.881   3.914   1.718
 3081SOL    HW2 1860   2.907   3.753   1.713
 3082SOL     OW 1861   2.366   3.774   1.740
 3082SOL    HW1 1862   2.324   3.717   1.670
 3082SOL    HW2 1863   2.300   3.843   1.772
 3101SOL     OW 1864   3.000   4.104   1.678
 3101SOL    HW1 1865   2.955   4.167   1.742
 3101SOL    HW2 1866   3.093   4.135   1.661
 3102SOL     OW 1867   3.022   3.931   1.477
 3102SOL    HW1 1868   3.022   3.995   1.554
 3102SOL    HW2 1869   3.050   3.979   1.394
 3139SOL     OW 1870   2.534   3.927   1.489
 3139SOL    HW1 1871   2.624   3.911   1.449
 3139SOL    HW2 1872   2.542   3.932   1.588
 3172SOL     OW 1873   2.087   3.999   2.858
 3172SOL    HW1 1874   2.122   3.982   2.950
 3172SOL    HW2 1875   1.999   3.954   2.846
 3173SOL     OW 1876   1.881   4.092   2.509
 3173SOL    HW1 1877   1.799   4.135   2.548
 3173SOL    HW2 1878   1.853   4.019   2.446
 3176SOL     OW 1879   2.997   4.427   2.579
 3176SOL    HW1 1880   3.054   4.505   2.554
 3176SOL    HW2 1881   2.937   4.453   2.655
 3184SOL     OW 1882   2.300   4.116   3.361
 3184SOL    HW1 1883   2.382   4.060   3.370
 3184SOL    HW2 1884   2.219   4.058   3.365
 3185SOL     OW 1885   3.465   4.171   2.599
 3185SOL    HW1 1886   3.391   4.217   2.549
 3185SOL    HW2 1887   3.516   4.239   2.652
 3190SOL     OW 1888   3.456   3.838   3.342
 3190SOL    HW1 1889   3.438   3.905   3.270
 3190SOL    HW2 1890   3.453   3.884   3.431
 3198SOL     OW 1891   2.671   3.728   2.364
 3198SOL    HW1 1892   2.711   3.819   2.355
 3198SOL    HW2 1893   2.571   3.736   2.370
 3201SOL     OW 1894   2.179   3.975   3.663
 3201SOL    HW1 1895   2.250   4.046   3.669
 3201SOL    HW2 1896   2.091   4.014   3.691
 3204SOL     OW 1897   3.143   4.069   2.806
 3204SOL    HW1 1898   3.057   4.019   2.793
 3204SOL    HW2 1899   3.205   4.015   2.862
 3206SOL     OW 1900   2.669   4.329   3.327
 3206SOL    HW1 1901   2.622   4.326   3.416
 3206SOL    HW2 1902   2.618   4.274   3.261
 3207SOL     OW 1903   3.256   4.193   3.536
 3207SOL    HW1 1904   3.236   4.236   3.624
 3207SOL    HW2 1905   3.334   4.131   3.545
 3209SOL     OW 1906   2.853   4.134   3.104
 3209SOL    HW1 1907   2.776   4.168   3.158
 3209SOL    HW2 1908   2.819   4.083   3.025
 3210SOL     OW 1909   2.903   4.425   2.291
 3210SOL    HW1 1910   2.929   4.421   2.387
 3210SOL    HW2 1911   2.818   4.374   2.277
 3212SOL     OW 1912   2.727   4.072   2.057
 3212SOL    HW1 1913   2.786   4.135   2.008
 3212SOL    HW2 1914   2.746   3.978   2.028
 3215SOL     OW 1915   2.412   3.920   2.747
 3215SOL    HW1 1916   2.407   3.915   2.847
 3215SOL    HW2 1917   2.414   4.016   2.718
 3222SOL     OW 1918   2.064   4.009   3.360
 3222SOL    HW1 1919   1.984   4.069   3.347
 3222SOL    HW2 1920   2.054   3.960   3.446
 3224SOL     OW 1921   3.262   3.831   2.288
 3224SOL    HW1 1922   3.238   3.794   2.198
 3224SOL    HW2 1923   3.361   3.847   2.292
 3226SOL     OW 1924   3.409   3.946   3.591
 3226SOL    HW1 1925   3.404   3.983   3.683
 3226SOL    HW2 1926   3.337   3.877   3.579
 3227SOL     OW 1927   2.476   3.846   1.979
 3227SOL    HW1 1928   2.574   3.824   1.986
 3227SOL    HW2 1929   2.445   3.829   1.886
 3228SOL     OW 1930   2.643   3.988   3.611
 3228SOL    HW1 1931   2.710   3.927   3.654
 3228SOL    HW2 1932   2.570   4.007   3.676
 3230SOL     OW 1933   3.213   4.314   3.295
 3230SOL    HW1 1934   3.241   4.271   3.380
 3230SOL    HW2 1935   3.238   4.410   3.296
 3232SOL     OW 1936   2.784   4.227   2.761
 3232SOL    HW1 1937   2.759   4.218   2.665
 3232SOL    HW2 1938   2.832   4.145   2.792
 3233SOL     OW 1939   2.401   3.788   2.374
 3233SOL    HW1 1940   2.320   3.789   2.432
 3233SOL    HW2 1941   2.404   3.871   2.319
 3235SOL     OW 1942   2.159   3.759   2.033
 3235SOL    HW1 1943   2.208   3.843   2.012
 3235SOL    HW2 1944   2.221   3.694   2.078
 3236SOL     OW 1945   2.797   3.960   2.342
 3236SOL    HW1 1946   2.749   4.001   2.264
 3236SOL    HW2 1947   2.896   3.958   2.323
 3240SOL     OW 1948   2.894   4.273   1.878
 3240SOL    HW1 1949   2.853   4.355   1.839
 3240SOL    HW2 1950   2.958   4.299   1.951
 3242SOL     OW 1951   2.423   3.946   3.009
 3242SOL    HW1 1952   2.461   3.862   3.046
 3242SOL    HW2 1953   2.335   3.965   3.053
 3243SOL     OW 1954   2.728   4.178   2.504
 3243SOL    HW1 1955   2.696   4.250   2.442
 3243SOL    HW2 1956   2.752   4.097   2.451
 3244SOL     OW 1957   2.879   3.763   2.615
 3244SOL    HW1 1958   2.807   3.768   2.546
 3244SOL    HW2 1959   2.855   3.694   2.684
 3246SOL     OW 1960   3.328   4.314   2.854
 3246SOL    HW1 1961   3.298   4.219   2.861
 3246SOL    HW2 1962   3.401   4.330   2.920
 3251SOL     OW 1963   2.389   3.980   2.190
 3251SOL    HW1 1964   2.416   3.921   2.115
 3251SOL    HW2 1965   2.389   4.075   2.159
 3256SOL     OW 1966   2.777   3.813   3.264
 3256SOL    HW1 1967   2.802   3.793   3.169
 3256SOL    HW2 1968   2.849   3.869   3.306
 3260SOL     OW 1969   3.136   4.110   3.124
 3260SOL    HW1 1970   3.157   4.184   3.188
 3260SOL    HW2 1971   3.047   4.127   3.081
 3263SOL     OW 1972   2.428   4.261   2.727
 3263SOL    HW1 1973   2.440   4.327   2.653
 3263SOL    HW2 1974   2.474   4.295   2.810
 3270SOL     OW 1975   2.875   3.829   3.632
 3270SOL    HW1 1976   2.881   3.914   3.580
 3270SOL    HW2 1977   2.907   3.753   3.575
 3271SOL     OW 1978   2.366   3.774   3.602
 3271SOL    HW1 1979   2.324   3.717   3.532
 3271SOL    HW2 1980   2.300   3.843   3.634
 3274SOL     OW 1981   3.071   4.249   2.137
 3274SOL    HW1 1982   3.084   4.165   2.191
 3274SOL    HW2 1983   3.042   4.323   2.197
 3275SOL     OW 1984   2.169   3.937   3.093
 3275SOL    HW1 1985   2.146   3.974   3.183
 3275SOL    HW2 1986   2.139   3.842   3.087
 3277SOL     OW 1987   2.594   4.358   2.926
 3277SOL    HW1 1988   2.653   4.332   2.850
 3277SOL    HW2 1989   2.566   4.454   2.915
 3279SOL     OW 1990   2.169   3.787   2.480
 3279SOL    HW1 1991   2.158   3.881   2.513
 3279SOL    HW2 1992   2.164   3.724   2.557
 3280SOL     OW 1993   3.484   4.091   2.236
 3280SOL    HW1 1994   3.486   4.015   2.300
 3280SOL    HW2 1995   3.436   4.168   2.276
 3281SOL     OW 1996   2.885   4.490   2.828
 3281SOL    HW1 1997   2.900   4.511   2.924
 3281SOL    HW2 1998   2.855   4.395   2.819
 3285SOL     OW 1999   3.402   3.998   1.987
 3285SOL    HW1 2000   3.341   3.923   2.010
 3285SOL    HW2 2001   3.424   4.050   2.070
 3289SOL     OW 2002   2.201   4.233   2.868
 3289SOL    HW1 2003   2.149   4.150   2.851
 3289SOL    HW2 2004   2.278   4.238   2.804
 3290SOL     OW 2005   3.000   4.104   3.540
 3290SOL    HW1 2006   2.955   4.167   3.604
 3290SOL    HW2 2007   3.093   4.135   3.523
 3291SOL     OW 2008   3.022   3.931   3.339
 3291SOL    HW1 2009   3.022   3.995   3.416
 3291SOL    HW2 2010   3.050   3.979   3.256
 3295SOL     OW 2011   1.902   4.268   2.976
 3295SOL    HW1 2012   1.987   4.235   2.935
 3295SOL    HW2 2013   1.915   4.283   3.074
 3298SOL     OW 2014   2.677   4.296   2.187
 3298SOL    HW1 2015   2.684   4.207   2.141
 3298SOL    HW2 2016   2.583   4.330   2.179
 3301SOL     OW 2017   2.533   4.188   3.131
 3301SOL    HW1 2018   2.499   4.099   3.101
 3301SOL    HW2 2019   2.559   4.242   3.051
 3302SOL     OW 2020   2.335   4.224   2.053
 3302SOL    HW1 2021   2.396   4.304   2.057
 3302SOL    HW2 2022   2.240   4.255   2.060
 3308SOL     OW 2023   3.588   3.859   2.385
 3308SOL    HW1 2024   3.661   3.842   2.318
 3308SOL    HW2 2025   3.557   3.772   2.423
 3314SOL     OW 2026   3.703   3.899   2.825
 3314SOL    HW1 2027   3.742   3.814   2.789
 3314SOL    HW2 2028   3.605   3.901   2.806
 3315SOL     OW 2029   2.125   4.050   2.582
 3315SOL    HW1 2030   2.046   4.101   2.548
 3315SOL    HW2 2031   2.116   4.035   2.680
 3322SOL     OW 2032   2.876   3.960   2.833
 3322SOL    HW1 2033   2.868   3.924   2.740
 3322SOL    HW2 2034   2.874   3.884   2.898
 3324SOL     OW 2035   3.571   4.109   3.243
 3324SOL    HW1 2036   3.644   4.178   3.247
 3324SOL    HW2 2037   3.599   4.034   3.184
 3327SOL     OW 2038   2.534   3.927   3.351
 3327SOL    HW1 2039   2.624   3.911   3.311
 3327SOL    HW2 2040   2.542   3.932   3.450
 3328SOL     OW 2041   1.937   4.069   1.895
 3328SOL    HW1 2042   1.845   4.041   1.866
 3328SOL    HW2 2043   1.968   4.146   1.839
 3330SOL     OW 2044   1.934   3.890   2.180
 3330SOL    HW1 2045   1.917   3.973   2.126
 3330SOL    HW2 2046   2.024   3.853   2.158
 3336SOL     OW 2047   3.087   4.049   2.311
 3336SOL    HW1 2048   3.152   3.975   2.300
 3336SOL    HW2 2049   3.107   4.099   2.395
 3337SOL     OW 2050   2.456   4.469   2.514
 3337SOL    HW1 2051   2.506   4.554   2.495
 3337SOL    HW2 2052   2.368   4.471   2.466
 3347SOL     OW 2053   3.686   3.916   3.089
 3347SOL    HW1 2054   3.682   3.826   3.133
 3347SOL    HW2 2055   3.689   3.905   2.990
 3348SOL     OW 2056   2.290   4.148   2.382
 3348SOL    HW1 2057   2.320   4.076   2.320
 3348SOL    HW2 2058   2.251   4.108   2.465
 3350SOL     OW 2059   2.179   4.271   3.142
 3350SOL    HW1 2060   2.217   4.212   3.214
 3350SOL    HW2 2061   2.219   4.245   3.054
 3351SOL     OW 2062   3.286   3.938   2.974
 3351SOL    HW1 2063   3.338   3.873   3.029
 3351SOL    HW2 2064   3.237   4.001   3.035
 3352SOL     OW 2065   2.863   3.758   3.016
 3352SOL    HW1 2066   2.800   3.686   2.985
 3352SOL    HW2 2067   2.956   3.722   3.016
 3355SOL     OW 2068   3.214   3.776   2.030
 3355SOL    HW1 2069   3.249   3.735   1.946
 3355SOL    HW2 2070   3.124   3.738   2.050
 3356SOL     OW 2071   3.162   4.177   2.553
 3356SOL    HW1 2072   3.103   4.257   2.557
 3356SOL    HW2 2073   3.177   4.142   2.646
 3357SOL     OW 2074   3.455   3.945   2.744
 3357SOL    HW1 2075   3.371   3.944   2.798
 3357SOL    HW2 2076   3.457   4.028   2.688
 3407SOL     OW 2077   2.476   3.846   3.841
 3407SOL    HW1 2078   2.574   3.824   3.848
 3407SOL    HW2 2079   2.445   3.829   3.748
 3414SOL     OW 2080   2.159   3.759   3.895
 3414SOL    HW1 2081   2.208   3.843   3.874
 3414SOL    HW2 2082   2.221   3.694   3.940
 3521SOL     OW 2083   3.214   3.776   3.892
 3521SOL    HW1 2084   3.249   3.735   3.808
 3521SOL    HW2 2085   3.124   3.738   3.912
 3666SOL     OW 2086   3.854   1.794   1.851
 3666SOL    HW1 2087   3.813   1.720   1.904
 3666SOL    HW2 2088   3.918   1.845   1.909
 3726SOL     OW 2089   3.955   1.713   2.345
 3726SOL    HW1 2090   3.989   1.790   2.399
 3726SOL    HW2 2091   3.999   1.713   2.255
 3734SOL     OW 2092   3.751   1.596   1.979
 3734SOL    HW1 2093   3.732   1.500   2.000
 3734SOL    HW2 2094   3.718   1.654   2.054
 3753SOL     OW 2095   3.854   1.821   3.433
 3753SOL    HW1 2096   3.844   1.806   3.532
 3753SOL    HW2 2097   3.768   1.857   3.397
 3759SOL     OW 2098   4.075   1.801   2.715
 3759SOL    HW1 2099   4.125   1.715   2.721
 3759SOL    HW2 2100   4.140   1.878   2.712
 3768SOL     OW 2101   3.973   1.785   3.103
 3768SOL    HW1 2102   4.030   1.720   3.153
 3768SOL    HW2 2103   3.957   1.752   3.010
 3805SOL     OW 2104   3.788   1.564   3.193
 3805SOL    HW1 2105   3.742   1.646   3.159
 3805SOL    HW2 2106   3.886   1.583   3.202
 3835SOL     OW 2107   3.812   1.801   2.789
 3835SOL    HW1 2108   3.770   1.715   2.762
 3835SOL    HW2 2109   3.906   1.804   2.755
 3853SOL     OW 2110   3.854   1.794   3.713
 3853SOL    HW1 2111   3.813   1.720   3.766
 3853SOL    HW2 2112   3.918   1.845   3.771
 4087SOL     OW 2113   3.837   2.599   1.597
 4087SOL    HW1 2114   3.925   2.586   1.642
 4087SOL    HW2 2115   3.824   2.696   1.575
 4093SOL     OW 2116   4.041   2.113   1.801
 4093SOL    HW1 2117   4.112   2.184   1.807
 4093SOL    HW2 2118   3.953   2.152   1.829
 4138SOL     OW 2119   3.802   2.418   1.386
 4138SOL    HW1 2120   3.894   2.417   1.345
 4138SOL    HW2 2121   3.796   2.492   1.453
 4177SOL     OW 2122   4.074   2.760   1.804
 4177SOL    HW1 2123   4.150   2.804   1.852
 4177SOL    HW2 2124   4.109   2.713   1.722
 4190SOL     OW 2125   3.913   2.382   1.722
 4190SOL    HW1 2126   3.972   2.342   1.652
 4190SOL    HW2 2127   3.855   2.453   1.681
 4193SOL     OW 2128   3.976   3.426   1.744
 4193SOL    HW1 2129   3.946   3.483   1.820
 4193SOL    HW2 2130   3.969   3.329   1.770
 4197SOL     OW 2131   3.883   2.999   1.466
 4197SOL    HW1 2132   3.905   2.938   1.542
 4197SOL    HW2 2133   3.893   2.950   1.380
 4205SOL     OW 2134   3.854   3.656   1.851
 4205SOL    HW1 2135   3.813   3.582   1.904
 4205SOL    HW2 2136   3.918   3.707   1.909
 4219SOL     OW 2137   3.829   2.875   1.726
 4219SOL    HW1 2138   3.752   2.842   1.780
 4219SOL    HW2 2139   3.914   2.845   1.768
 4237SOL     OW 2140   3.945   3.176   1.844
 4237SOL    HW1 2141   3.880   3.103   1.823
 4237SOL    HW2 2142   3.949   3.190   1.942
 4252SOL     OW 2143   3.954   2.490   1.975
 4252SOL    HW1 2144   3.861   2.488   2.012
 4252SOL    HW2 2145   3.955   2.451   1.883
 4253SOL     OW 2146   3.949   2.137   2.858
 4253SOL    HW1 2147   3.984   2.120   2.950
 4253SOL    HW2 2148   3.861   2.092   2.846
 4254SOL     OW 2149   3.743   2.230   2.509
 4254SOL    HW1 2150   3.661   2.273   2.548
 4254SOL    HW2 2151   3.715   2.157   2.446
 4255SOL     OW 2152   4.293   3.137   3.027
 4255SOL    HW1 2153   4.200   3.130   2.990
 4255SOL    HW2 2154   4.304   3.226   3.071
 4260SOL     OW 2155   4.409   2.874   2.527
 4260SOL    HW1 2156   4.478   2.858   2.597
 4260SOL    HW2 2157   4.336   2.931   2.565
 4262SOL     OW 2158   4.059   3.297   2.923
 4262SOL    HW1 2159   3.981   3.266   2.870
 4262SOL    HW2 2160   4.117   3.355   2.866
 4264SOL     OW 2161   4.162   2.254   3.361
 4264SOL    HW1 2162   4.244   2.198   3.370
 4264SOL    HW2 2163   4.081   2.196   3.365
 4265SOL     OW 2164   3.955   3.575   2.345
 4265SOL    HW1 2165   3.989   3.652   2.399
 4265SOL    HW2 2166   3.999   3.575   2.255
 4267SOL     OW 2167   3.954   3.296   2.400
 4267SOL    HW1 2168   3.928   3.392   2.400
 4267SOL    HW2 2169   3.883   3.242   2.445
 4268SOL     OW 2170   3.964   2.953   2.748
 4268SOL    HW1 2171   3.978   2.869   2.800
 4268SOL    HW2 2172   3.909   3.017   2.803
 4270SOL     OW 2173   4.330   2.826   1.985
 4270SOL    HW1 2174   4.337   2.910   1.931
 4270SOL    HW2 2175   4.376   2.839   2.073
 4272SOL     OW 2176   3.846   2.505   2.425
 4272SOL    HW1 2177   3.801   2.417   2.442
 4272SOL    HW2 2178   3.845   2.559   2.509
 4273SOL     OW 2179   3.751   3.458   1.979
 4273SOL    HW1 2180   3.732   3.362   2.000
 4273SOL    HW2 2181   3.718   3.516   2.054
 4275SOL     OW 2182   3.837   2.599   3.459
 4275SOL    HW1 2183   3.925   2.586   3.504
 4275SOL    HW2 2184   3.824   2.696   3.437
 4276SOL     OW 2185   4.337   3.227   2.588
 4276SOL    HW1 2186   4.288   3.140   2.597
 4276SOL    HW2 2187   4.314   3.270   2.501
 4279SOL     OW 2188   3.921   2.838   3.126
 4279SOL    HW1 2189   4.010   2.793   3.112
 4279SOL    HW2 2190   3.848   2.773   3.107
 4281SOL     OW 2191   4.041   2.113   3.663
 4281SOL    HW1 2192   4.112   2.184   3.669
 4281SOL    HW2 2193   3.953   2.152   3.691
 4284SOL     OW 2194   4.322   2.591   2.132
 4284SOL    HW1 2195   4.346   2.660   2.064
 4284SOL    HW2 2196   4.244   2.624   2.186
 4291SOL     OW 2197   3.800   2.673   2.651
 4291SOL    HW1 2198   3.899   2.661   2.660
 4291SOL    HW2 2199   3.776   2.768   2.672
 4292SOL     OW 2200   3.854   3.683   3.433
 4292SOL    HW1 2201   3.844   3.668   3.532
 4292SOL    HW2 2202   3.768   3.719   3.397
 4296SOL     OW 2203   4.274   2.058   2.747
 4296SOL    HW1 2204   4.269   2.053   2.847
 4296SOL    HW2 2205   4.276   2.154   2.718
 4298SOL     OW 2206   4.075   3.663   2.715
 4298SOL    HW1 2207   4.125   3.577   2.721
 4298SOL    HW2 2208   4.140   3.740   2.712
 4300SOL     OW 2209   4.045   2.805   2.104
 4300SOL    HW1 2210   4.127   2.844   2.062
 4300SOL    HW2 2211   4.018   2.723   2.055
 4302SOL     OW 2212   4.185   3.128   3.589
 4302SOL    HW1 2213   4.135   3.129   3.503
 4302SOL    HW2 2214   4.122   3.110   3.665
 4304SOL     OW 2215   3.926   2.147   3.360
 4304SOL    HW1 2216   3.846   2.207   3.347
 4304SOL    HW2 2217   3.916   2.098   3.446
 4307SOL     OW 2218   3.973   3.647   3.103
 4307SOL    HW1 2219   4.030   3.582   3.153
 4307SOL    HW2 2220   3.957   3.614   3.010
 4309SOL     OW 2221   4.106   2.562   2.342
 4309SOL    HW1 2222   4.151   2.472   2.339
 4309SOL    HW2 2223   4.012   2.551   2.375
 4317SOL     OW 2224   4.263   1.926   2.374
 4317SOL    HW1 2225   4.182   1.927   2.432
 4317SOL    HW2 2226   4.266   2.009   2.319
 4319SOL     OW 2227   4.021   1.897   2.033
 4319SOL    HW1 2228   4.070   1.981   2.012
 4319SOL    HW2 2229   4.083   1.832   2.078
 4323SOL     OW 2230   4.183   3.014   2.603
 4323SOL    HW1 2231   4.112   2.987   2.668
 4323SOL    HW2 2232   4.157   2.986   2.510
 4326SOL     OW 2233   3.802   2.418   3.248
 4326SOL    HW1 2234   3.894   2.417   3.207
 4326SOL    HW2 2235   3.796   2.492   3.315
 4327SOL     OW 2236   4.285   2.084   3.009
 4327SOL    HW1 2237   4.323   2.000   3.046
 4327SOL    HW2 2238   4.197   2.103   3.053
 4332SOL     OW 2239   4.212   3.247   2.036
 4332SOL    HW1 2240   4.125   3.232   2.083
 4332SOL    HW2 2241   4.195   3.273   1.941
 4334SOL     OW 2242   4.251   2.118   2.190
 4334SOL    HW1 2243   4.278   2.059   2.115
 4334SOL    HW2 2244   4.251   2.213   2.159
 4341SOL     OW 2245   4.429   2.912   2.230
 4341SOL    HW1 2246   4.415   2.919   2.329
 4341SOL    HW2 2247   4.513   2.861   2.212
 4342SOL     OW 2248   4.134   2.675   3.113
 4342SOL    HW1 2249   4.220   2.687   3.163
 4342SOL    HW2 2250   4.092   2.588   3.140
 4344SOL     OW 2251   3.788   3.426   3.193
 4344SOL    HW1 2252   3.742   3.508   3.159
 4344SOL    HW2 2253   3.886   3.445   3.202
 4345SOL     OW 2254   4.091   2.962   2.363
 4345SOL    HW1 2255   4.084   3.045   2.307
 4345SOL    HW2 2256   4.095   2.882   2.303
 4346SOL     OW 2257   4.290   2.399   2.727
 4346SOL    HW1 2258   4.302   2.465   2.653
 4346SOL    HW2 2259   4.336   2.433   2.810
 4350SOL     OW 2260   4.078   3.372   3.191
 4350SOL    HW1 2261   4.057   3.328   3.104
 4350SOL    HW2 2262   4.175   3.398   3.194
 4351SOL     OW 2263   4.126   2.613   3.460
 4351SOL    HW1 2264   4.194   2.668   3.413
 4351SOL    HW2 2265   4.166   2.525   3.487
 4355SOL     OW 2266   4.297   2.732   2.891
 4355SOL    HW1 2267   4.341   2.821   2.882
 4355SOL    HW2 2268   4.234   2.732   2.968
 4358SOL     OW 2269   4.031   2.075   3.093
 4358SOL    HW1 2270   4.008   2.112   3.183
 4358SOL    HW2 2271   4.001   1.980   3.087
 4359SOL     OW 2272   3.761   3.172   3.144
 4359SOL    HW1 2273   3.814   3.123   3.212
 4359SOL    HW2 2274   3.783   3.270   3.149
 4360SOL     OW 2275   4.456   2.496   2.926
 4360SOL    HW1 2276   4.515   2.470   2.850
 4360SOL    HW2 2277   4.428   2.592   2.915
 4361SOL     OW 2278   4.031   1.925   2.480
 4361SOL    HW1 2279   4.020   2.019   2.513
 4361SOL    HW2 2280   4.026   1.862   2.557
 4365SOL     OW 2281   4.074   2.760   3.666
 4365SOL    HW1 2282   4.150   2.804   3.714
 4365SOL    HW2 2283   4.109   2.713   3.584
 4369SOL     OW 2284   4.043   2.672   2.811
 4369SOL    HW1 2285   4.136   2.708   2.816
 4369SOL    HW2 2286   4.037   2.587   2.863
 4370SOL     OW 2287   4.063   2.371   2.868
 4370SOL    HW1 2288   4.011   2.288   2.851
 4370SOL    HW2 2289   4.140   2.376   2.804
 4373SOL     OW 2290   3.732   3.188   2.062
 4373SOL    HW1 2291   3.639   3.209   2.031
 4373SOL    HW2 2292   3.742   3.089   2.075
 4374SOL     OW 2293   3.812   3.663   2.789
 4374SOL    HW1 2294   3.770   3.577   2.762
 4374SOL    HW2 2295   3.906   3.666   2.755
 4375SOL     OW 2296   4.228   3.430   2.772
 4375SOL    HW1 2297   4.294   3.504   2.781
 4375SOL    HW2 2298   4.272   3.351   2.730
 4377SOL     OW 2299   3.764   2.406   2.976
 4377SOL    HW1 2300   3.849   2.373   2.935
 4377SOL    HW2 2301   3.777   2.421   3.074
 4378SOL     OW 2302   3.913   2.382   3.584
 4378SOL    HW1 2303   3.972   2.342   3.514
 4378SOL    HW2 2304   3.855   2.453   3.543
 4381SOL     OW 2305   3.976   3.426   3.606
 4381SOL    HW1 2306   3.946   3.483   3.682
 4381SOL    HW2 2307   3.969   3.329   3.632
 4382SOL     OW 2308   4.395   2.326   3.131
 4382SOL    HW1 2309   4.361   2.237   3.101
 4382SOL    HW2 2310   4.421   2.380   3.051
 4384SOL     OW 2311   4.197   2.362   2.053
 4384SOL    HW1 2312   4.258   2.442   2.057
 4384SOL    HW2 2313   4.102   2.393   2.060
 4385SOL     OW 2314   3.883   2.999   3.328
 4385SOL    HW1 2315   3.905   2.938   3.404
 4385SOL    HW2 2316   3.893   2.950   3.242
 4389SOL     OW 2317   3.807   3.120   2.884
 4389SOL    HW1 2318   3.802   3.119   2.984
 4389SOL    HW2 2319   3.724   3.079   2.846
 4392SOL     OW 2320   3.854   3.656   3.713
 4392SOL    HW1 2321   3.813   3.582   3.766
 4392SOL    HW2 2322   3.918   3.707   3.771
 4396SOL     OW 2323   3.987   2.188   2.582
 4396SOL    HW1 2324   3.908   2.239   2.548
 4396SOL    HW2 2325   3.978   2.173   2.680
 4401SOL     OW 2326   4.096   3.150   3.352
 4401SOL    HW1 2327   4.083   3.243   3.318
 4401SOL    HW2 2328   4.012   3.098   3.339
 4404SOL     OW 2329   4.314   3.349   2.353
 4404SOL    HW1 2330   4.356   3.291   2.283
 4404SOL    HW2 2331   4.270   3.428   2.309
 4405SOL     OW 2332   3.979   3.210   2.152
 4405SOL    HW1 2333   3.883   3.211   2.125
 4405SOL    HW2 2334   3.991   3.263   2.236
 4406SOL     OW 2335   3.829   2.875   3.588
 4406SOL    HW1 2336   3.752   2.842   3.642
 4406SOL    HW2 2337   3.914   2.845   3.630
 4408SOL     OW 2338   3.799   2.207   1.895
 4408SOL    HW1 2339   3.707   2.179   1.866
 4408SOL    HW2 2340   3.830   2.284   1.839
 4410SOL     OW 2341   3.796   2.028   2.180
 4410SOL    HW1 2342   3.779   2.111   2.126
 4410SOL    HW2 2343   3.886   1.991   2.158
 4412SOL     OW 2344   4.337   2.704   3.293
 4412SOL    HW1 2345   4.393   2.785   3.276
 4412SOL    HW2 2346   4.396   2.624   3.296
 4418SOL     OW 2347   4.318   2.607   2.514
 4418SOL    HW1 2348   4.368   2.692   2.495
 4418SOL    HW2 2349   4.230   2.609   2.466
 4424SOL     OW 2350   3.945   3.176   3.706
 4424SOL    HW1 2351   3.880   3.103   3.685
 4424SOL    HW2 2352   3.949   3.190   3.804
 4425SOL     OW 2353   3.803   3.102   2.515
 4425SOL    HW1 2354   3.802   3.055   2.603
 4425SOL    HW2 2355   3.885   3.074   2.464
 4427SOL     OW 2356   4.152   2.286   2.382
 4427SOL    HW1 2357   4.182   2.214   2.320
 4427SOL    HW2 2358   4.113   2.246   2.465
 4428SOL     OW 2359   4.041   2.409   3.142
 4428SOL    HW1 2360   4.079   2.350   3.214
 4428SOL    HW2 2361   4.081   2.383   3.054
 4437SOL     OW 2362   3.763   2.939   2.162
 4437SOL    HW1 2363   3.862   2.928   2.153
 4437SOL    HW2 2364   3.723   2.853   2.194
 4439SOL     OW 2365   3.954   2.490   3.837
 4439SOL    HW1 2366   3.861   2.488   3.874
 4439SOL    HW2 2367   3.955   2.451   3.745
 4457SOL     OW 2368   3.751   3.458   3.841
 4457SOL    HW1 2369   3.732   3.362   3.862
 4457SOL    HW2 2370   3.718   3.516   3.916
 4543SOL     OW 2371   3.732   3.188   3.924
 4543SOL    HW1 2372   3.639   3.209   3.893
 4543SOL    HW2 2373   3.742   3.089   3.937
 4574SOL     OW 2374   3.799   2.207   3.757
 4574SOL    HW1 2375   3.707   2.179   3.728
 4574SOL    HW2 2376   3.830   2.284   3.701
 4601SOL     OW 2377   3.763   2.939   4.024
 4601SOL    HW1 2378   3.862   2.928   4.015
 4601SOL    HW2 2379   3.723   2.853   4.056
 4774SOL     OW 2380   3.743   4.092   2.509
 4774SOL    HW1 2381   3.661   4.135   2.548
 4774SOL    HW2 2382   3.715   4.019   2.446
 4870SOL     OW 2383   4.031   3.787   2.480
 4870SOL    HW1 2384   4.020   3.881   2.513
 4870SOL    HW2 2385   4.026   3.724   2.557
 4916SOL     OW 2386   3.796   3.890   2.180
 4916SOL    HW1 2387   3.779   3.973   2.126
 4916SOL    HW2 2388   3.886   3.853   2.158
   5.41048   5.41048   5.41048
