mobley_6102880_GMX.gro created by acpype (v: 2023.10.27) on Tue May 19 12:54:16 2026
 2414
    1MOL     C1    1   2.369   2.544   2.113
    1MOL     C2    2   2.624   2.287   2.726
    1MOL     C3    3   2.373   2.422   2.181
    1MOL     C4    4   2.361   2.664   2.184
    1MOL     C5    5   2.669   2.366   2.621
    1MOL     C6    6   2.491   2.291   2.766
    1MOL     C7    7   2.369   2.420   2.320
    1MOL     C8    8   2.357   2.662   2.324
    1MOL     C9    9   2.579   2.450   2.554
    1MOL    C10   10   2.401   2.375   2.699
    1MOL    C11   11   2.361   2.540   2.392
    1MOL    C12   12   2.446   2.455   2.593
    1MOL     O1   13   2.357   2.538   2.528
    1MOL     H1   14   2.372   2.546   2.004
    1MOL     H2   15   2.694   2.221   2.778
    1MOL     H3   16   2.379   2.329   2.125
    1MOL     H4   17   2.358   2.759   2.131
    1MOL     H5   18   2.773   2.362   2.590
    1MOL     H6   19   2.456   2.229   2.848
    1MOL     H7   20   2.371   2.325   2.373
    1MOL     H8   21   2.351   2.755   2.379
    1MOL     H9   22   2.615   2.512   2.472
    1MOL    H10   23   2.297   2.379   2.730
   14SOL     OW   24   1.460   1.505   1.339
   14SOL    HW1   25   1.484   1.599   1.365
   14SOL    HW2   26   1.444   1.451   1.421
   35SOL     OW   27   1.187   1.792   1.616
   35SOL    HW1   28   1.211   1.852   1.540
   35SOL    HW2   29   1.194   1.697   1.586
   56SOL     OW   30   1.227   1.550   1.506
   56SOL    HW1   31   1.233   1.473   1.570
   56SOL    HW2   32   1.175   1.524   1.426
   95SOL     OW   33   1.754   1.223   1.588
   95SOL    HW1   34   1.845   1.184   1.575
   95SOL    HW2   35   1.762   1.319   1.612
   97SOL     OW   36   1.592   1.629   1.625
   97SOL    HW1   37   1.619   1.663   1.535
   97SOL    HW2   38   1.671   1.591   1.671
  122SOL     OW   39   1.728   0.935   1.854
  122SOL    HW1   40   1.682   0.928   1.765
  122SOL    HW2   41   1.666   0.979   1.920
  127SOL     OW   42   1.859   1.518   1.605
  127SOL    HW1   43   1.873   1.545   1.510
  127SOL    HW2   44   1.942   1.540   1.658
  152SOL     OW   45   1.759   1.747   1.154
  152SOL    HW1   46   1.820   1.777   1.081
  152SOL    HW2   47   1.721   1.658   1.132
  163SOL     OW   48   1.650   1.720   1.394
  163SOL    HW1   49   1.703   1.730   1.310
  163SOL    HW2   50   1.623   1.810   1.428
  186SOL     OW   51   1.450   1.220   1.633
  186SOL    HW1   52   1.441   1.210   1.732
  186SOL    HW2   53   1.546   1.213   1.607
  219SOL     OW   54   1.555   1.511   2.565
  219SOL    HW1   55   1.498   1.495   2.646
  219SOL    HW2   56   1.496   1.521   2.485
  227SOL     OW   57   1.460   1.505   3.201
  227SOL    HW1   58   1.484   1.599   3.227
  227SOL    HW2   59   1.444   1.451   3.283
  238SOL     OW   60   1.842   1.767   2.221
  238SOL    HW1   61   1.896   1.738   2.301
  238SOL    HW2   62   1.872   1.857   2.192
  240SOL     OW   63   1.689   0.922   2.474
  240SOL    HW1   64   1.784   0.893   2.482
  240SOL    HW2   65   1.681   0.987   2.399
  241SOL     OW   66   1.641   1.108   2.294
  241SOL    HW1   67   1.727   1.110   2.242
  241SOL    HW2   68   1.655   1.155   2.382
  247SOL     OW   69   1.525   0.999   2.052
  247SOL    HW1   70   1.462   0.923   2.065
  247SOL    HW2   71   1.573   1.017   2.138
  248SOL     OW   72   1.187   1.792   3.478
  248SOL    HW1   73   1.211   1.852   3.402
  248SOL    HW2   74   1.194   1.697   3.448
  250SOL     OW   75   1.466   1.417   2.815
  250SOL    HW1   76   1.407   1.423   2.895
  250SOL    HW2   77   1.451   1.329   2.769
  251SOL     OW   78   1.667   1.714   2.434
  251SOL    HW1   79   1.626   1.691   2.346
  251SOL    HW2   80   1.649   1.640   2.499
  254SOL     OW   81   1.576   1.662   2.169
  254SOL    HW1   82   1.665   1.708   2.172
  254SOL    HW2   83   1.555   1.638   2.074
  264SOL     OW   84   1.362   1.144   2.407
  264SOL    HW1   85   1.445   1.115   2.359
  264SOL    HW2   86   1.313   1.211   2.351
  266SOL     OW   87   1.008   1.456   2.339
  266SOL    HW1   88   0.962   1.528   2.287
  266SOL    HW2   89   1.004   1.476   2.437
  268SOL     OW   90   1.795   1.066   2.735
  268SOL    HW1   91   1.733   1.051   2.659
  268SOL    HW2   92   1.743   1.077   2.820
  269SOL     OW   93   1.227   1.550   3.368
  269SOL    HW1   94   1.233   1.473   3.432
  269SOL    HW2   95   1.175   1.524   3.288
  273SOL     OW   96   1.111   1.776   2.099
  273SOL    HW1   97   1.051   1.714   2.149
  273SOL    HW2   98   1.142   1.732   2.014
  275SOL     OW   99   1.632   1.377   1.943
  275SOL    HW1  100   1.600   1.471   1.933
  275SOL    HW2  101   1.556   1.314   1.931
  279SOL     OW  102   0.940   1.698   2.766
  279SOL    HW1  103   1.020   1.641   2.787
  279SOL    HW2  104   0.891   1.658   2.689
  289SOL     OW  105   1.434   1.188   1.903
  289SOL    HW1  106   1.466   1.112   1.960
  289SOL    HW2  107   1.342   1.215   1.933
  293SOL     OW  108   1.227   1.570   2.655
  293SOL    HW1  109   1.248   1.644   2.590
  293SOL    HW2  110   1.295   1.570   2.728
  295SOL     OW  111   1.271   1.797   2.453
  295SOL    HW1  112   1.315   1.861   2.389
  295SOL    HW2  113   1.221   1.849   2.523
  301SOL     OW  114   1.429   1.173   2.729
  301SOL    HW1  115   1.374   1.089   2.722
  301SOL    HW2  116   1.455   1.202   2.637
  303SOL     OW  117   1.857   0.833   2.239
  303SOL    HW1  118   1.899   0.769   2.303
  303SOL    HW2  119   1.819   0.782   2.161
  305SOL     OW  120   1.664   1.280   2.519
  305SOL    HW1  121   1.763   1.288   2.533
  305SOL    HW2  122   1.619   1.364   2.550
  308SOL     OW  123   1.754   1.223   3.450
  308SOL    HW1  124   1.845   1.184   3.437
  308SOL    HW2  125   1.762   1.319   3.474
  310SOL     OW  126   1.592   1.629   3.487
  310SOL    HW1  127   1.619   1.663   3.397
  310SOL    HW2  128   1.671   1.591   3.533
  312SOL     OW  129   1.638   1.099   2.941
  312SOL    HW1  130   1.643   1.180   3.000
  312SOL    HW2  131   1.552   1.101   2.890
  321SOL     OW  132   1.252   1.348   2.250
  321SOL    HW1  133   1.302   1.425   2.290
  321SOL    HW2  134   1.157   1.350   2.282
  322SOL     OW  135   1.272   1.445   3.004
  322SOL    HW1  136   1.319   1.458   3.091
  322SOL    HW2  137   1.206   1.371   3.013
  340SOL     OW  138   1.859   1.518   3.467
  340SOL    HW1  139   1.873   1.545   3.372
  340SOL    HW2  140   1.942   1.540   3.520
  365SOL     OW  141   1.759   1.747   3.016
  365SOL    HW1  142   1.820   1.777   2.943
  365SOL    HW2  143   1.721   1.658   2.994
  366SOL     OW  144   1.252   1.731   2.990
  366SOL    HW1  145   1.336   1.736   2.936
  366SOL    HW2  146   1.229   1.635   3.008
  370SOL     OW  147   1.388   1.573   2.339
  370SOL    HW1  148   1.455   1.585   2.265
  370SOL    HW2  149   1.348   1.662   2.362
  375SOL     OW  150   1.650   1.720   3.256
  375SOL    HW1  151   1.703   1.730   3.172
  375SOL    HW2  152   1.623   1.810   3.290
  378SOL     OW  153   1.194   1.612   1.893
  378SOL    HW1  154   1.200   1.519   1.930
  378SOL    HW2  155   1.135   1.612   1.813
  381SOL     OW  156   1.504   1.607   1.906
  381SOL    HW1  157   1.412   1.644   1.913
  381SOL    HW2  158   1.542   1.627   1.816
  383SOL     OW  159   1.614   1.292   3.151
  383SOL    HW1  160   1.674   1.295   3.231
  383SOL    HW2  161   1.539   1.356   3.164
  394SOL     OW  162   1.183   1.335   1.981
  394SOL    HW1  163   1.084   1.324   1.983
  394SOL    HW2  164   1.217   1.350   2.074
  396SOL     OW  165   1.493   1.767   2.821
  396SOL    HW1  166   1.526   1.831   2.752
  396SOL    HW2  167   1.559   1.761   2.896
  409SOL     OW  168   1.861   1.569   2.713
  409SOL    HW1  169   1.790   1.557   2.643
  409SOL    HW2  170   1.862   1.490   2.773
  415SOL     OW  171   1.705   1.487   2.966
  415SOL    HW1  172   1.612   1.462   2.939
  415SOL    HW2  173   1.731   1.437   3.048
  426SOL     OW  174   0.875   1.646   2.199
  426SOL    HW1  175   0.798   1.611   2.145
  426SOL    HW2  176   0.843   1.717   2.261
  566SOL     OW  177   0.850   2.660   1.823
  566SOL    HW1  178   0.846   2.736   1.888
  566SOL    HW2  179   0.872   2.696   1.732
  570SOL     OW  180   1.460   3.367   1.339
  570SOL    HW1  181   1.484   3.461   1.365
  570SOL    HW2  182   1.444   3.313   1.421
  574SOL     OW  183   1.127   3.203   1.690
  574SOL    HW1  184   1.174   3.203   1.778
  574SOL    HW2  185   1.079   3.116   1.679
  579SOL     OW  186   1.594   1.976   1.480
  579SOL    HW1  187   1.576   2.043   1.408
  579SOL    HW2  188   1.591   2.022   1.569
  587SOL     OW  189   1.293   3.090   1.423
  587SOL    HW1  190   1.330   3.017   1.365
  587SOL    HW2  191   1.345   3.095   1.508
  599SOL     OW  192   1.394   2.331   1.674
  599SOL    HW1  193   1.374   2.374   1.762
  599SOL    HW2  194   1.472   2.269   1.683
  600SOL     OW  195   0.973   2.752   1.572
  600SOL    HW1  196   1.019   2.668   1.543
  600SOL    HW2  197   0.917   2.786   1.497
  606SOL     OW  198   1.719   2.447   1.831
  606SOL    HW1  199   1.693   2.536   1.795
  606SOL    HW2  200   1.717   2.379   1.758
  611SOL     OW  201   1.795   2.928   0.873
  611SOL    HW1  202   1.733   2.913   0.797
  611SOL    HW2  203   1.743   2.939   0.958
  624SOL     OW  204   1.547   2.084   1.729
  624SOL    HW1  205   1.542   2.121   1.821
  624SOL    HW2  206   1.475   2.015   1.717
  628SOL     OW  207   1.351   2.452   1.433
  628SOL    HW1  208   1.379   2.409   1.518
  628SOL    HW2  209   1.376   2.548   1.434
  634SOL     OW  210   1.076   2.545   1.464
  634SOL    HW1  211   0.996   2.484   1.467
  634SOL    HW2  212   1.157   2.492   1.440
  644SOL     OW  213   1.466   2.452   0.992
  644SOL    HW1  214   1.436   2.357   0.999
  644SOL    HW2  215   1.539   2.468   1.058
  650SOL     OW  216   1.754   3.085   1.588
  650SOL    HW1  217   1.845   3.046   1.575
  650SOL    HW2  218   1.762   3.181   1.612
  652SOL     OW  219   1.592   3.491   1.625
  652SOL    HW1  220   1.619   3.525   1.535
  652SOL    HW2  221   1.671   3.453   1.671
  654SOL     OW  222   1.638   2.961   1.079
  654SOL    HW1  223   1.643   3.042   1.138
  654SOL    HW2  224   1.552   2.963   1.028
  656SOL     OW  225   0.980   2.978   1.719
  656SOL    HW1  226   0.881   2.984   1.729
  656SOL    HW2  227   1.003   2.898   1.663
  659SOL     OW  228   1.274   2.248   1.262
  659SOL    HW1  229   1.295   2.322   1.326
  659SOL    HW2  230   1.185   2.265   1.219
  668SOL     OW  231   1.587   2.641   1.670
  668SOL    HW1  232   1.495   2.679   1.665
  668SOL    HW2  233   1.647   2.688   1.605
  669SOL     OW  234   1.013   1.967   1.770
  669SOL    HW1  235   1.019   2.052   1.718
  669SOL    HW2  236   1.045   1.891   1.713
  677SOL     OW  237   1.728   2.797   1.854
  677SOL    HW1  238   1.682   2.790   1.765
  677SOL    HW2  239   1.666   2.841   1.920
  682SOL     OW  240   1.859   3.380   1.605
  682SOL    HW1  241   1.873   3.407   1.510
  682SOL    HW2  242   1.942   3.402   1.658
  689SOL     OW  243   1.138   2.242   1.678
  689SOL    HW1  244   1.093   2.305   1.742
  689SOL    HW2  245   1.231   2.273   1.661
  690SOL     OW  246   1.160   2.069   1.477
  690SOL    HW1  247   1.160   2.133   1.554
  690SOL    HW2  248   1.188   2.117   1.394
  697SOL     OW  249   1.369   2.812   1.660
  697SOL    HW1  250   1.408   2.901   1.680
  697SOL    HW2  251   1.379   2.792   1.563
  699SOL     OW  252   1.657   2.466   1.206
  699SOL    HW1  253   1.619   2.397   1.268
  699SOL    HW2  254   1.739   2.430   1.162
  705SOL     OW  255   1.347   2.921   1.234
  705SOL    HW1  256   1.371   2.858   1.160
  705SOL    HW2  257   1.257   2.961   1.216
  718SOL     OW  258   1.650   3.582   1.394
  718SOL    HW1  259   1.703   3.592   1.310
  718SOL    HW2  260   1.623   3.672   1.428
  719SOL     OW  261   1.841   2.037   0.963
  719SOL    HW1  262   1.880   1.952   0.927
  719SOL    HW2  263   1.743   2.039   0.944
  726SOL     OW  264   1.614   3.154   1.289
  726SOL    HW1  265   1.674   3.157   1.369
  726SOL    HW2  266   1.539   3.218   1.302
  730SOL     OW  267   1.709   2.247   1.381
  730SOL    HW1  268   1.782   2.316   1.385
  730SOL    HW2  269   1.737   2.172   1.322
  735SOL     OW  270   1.440   2.718   1.398
  735SOL    HW1  271   1.383   2.770   1.335
  735SOL    HW2  272   1.536   2.730   1.374
  741SOL     OW  273   1.450   3.082   1.633
  741SOL    HW1  274   1.441   3.072   1.732
  741SOL    HW2  275   1.546   3.075   1.607
  743SOL     OW  276   1.674   2.745   1.254
  743SOL    HW1  277   1.647   2.656   1.217
  743SOL    HW2  278   1.675   2.813   1.181
  746SOL     OW  279   1.777   2.204   1.642
  746SOL    HW1  280   1.760   2.235   1.548
  746SOL    HW2  281   1.693   2.167   1.680
  747SOL     OW  282   1.730   2.796   1.517
  747SOL    HW1  283   1.768   2.887   1.532
  747SOL    HW2  284   1.722   2.779   1.418
  756SOL     OW  285   1.824   2.054   1.227
  756SOL    HW1  286   1.820   1.964   1.271
  756SOL    HW2  287   1.827   2.043   1.128
  758SOL     OW  288   1.705   3.349   1.104
  758SOL    HW1  289   1.612   3.324   1.077
  758SOL    HW2  290   1.731   3.299   1.186
  761SOL     OW  291   1.424   2.076   1.112
  761SOL    HW1  292   1.476   2.011   1.167
  761SOL    HW2  293   1.375   2.139   1.173
  774SOL     OW  294   1.555   3.373   2.565
  774SOL    HW1  295   1.498   3.357   2.646
  774SOL    HW2  296   1.496   3.383   2.485
  775SOL     OW  297   1.135   2.565   2.579
  775SOL    HW1  298   1.192   2.643   2.554
  775SOL    HW2  299   1.075   2.591   2.655
  776SOL     OW  300   1.755   2.469   2.093
  776SOL    HW1  301   1.743   2.456   1.994
  776SOL    HW2  302   1.725   2.388   2.142
  782SOL     OW  303   1.460   3.367   3.201
  782SOL    HW1  304   1.484   3.461   3.227
  782SOL    HW2  305   1.444   3.313   3.283
  784SOL     OW  306   1.603   2.309   2.599
  784SOL    HW1  307   1.529   2.355   2.549
  784SOL    HW2  308   1.654   2.377   2.652
  791SOL     OW  309   1.594   1.976   3.342
  791SOL    HW1  310   1.576   2.043   3.270
  791SOL    HW2  311   1.591   2.022   3.431
  793SOL     OW  312   1.842   3.629   2.221
  793SOL    HW1  313   1.896   3.600   2.301
  793SOL    HW2  314   1.872   3.719   2.192
  795SOL     OW  315   1.689   2.784   2.474
  795SOL    HW1  316   1.784   2.755   2.482
  795SOL    HW2  317   1.681   2.849   2.399
  796SOL     OW  318   1.641   2.970   2.294
  796SOL    HW1  319   1.727   2.972   2.242
  796SOL    HW2  320   1.655   3.017   2.382
  799SOL     OW  321   1.293   3.090   3.285
  799SOL    HW1  322   1.330   3.017   3.227
  799SOL    HW2  323   1.345   3.095   3.370
  800SOL     OW  324   0.809   1.866   2.364
  800SOL    HW1  325   0.849   1.957   2.355
  800SOL    HW2  326   0.709   1.874   2.370
  802SOL     OW  327   1.525   2.861   2.052
  802SOL    HW1  328   1.462   2.785   2.065
  802SOL    HW2  329   1.573   2.879   2.138
  805SOL     OW  330   1.466   3.279   2.815
  805SOL    HW1  331   1.407   3.285   2.895
  805SOL    HW2  332   1.451   3.191   2.769
  806SOL     OW  333   1.667   3.576   2.434
  806SOL    HW1  334   1.626   3.553   2.346
  806SOL    HW2  335   1.649   3.502   2.499
  808SOL     OW  336   1.281   2.207   2.806
  808SOL    HW1  337   1.195   2.157   2.793
  808SOL    HW2  338   1.343   2.153   2.862
  809SOL     OW  339   1.576   3.524   2.169
  809SOL    HW1  340   1.665   3.570   2.172
  809SOL    HW2  341   1.555   3.500   2.074
  811SOL     OW  342   1.394   2.331   3.536
  811SOL    HW1  343   1.374   2.374   3.624
  811SOL    HW2  344   1.472   2.269   3.545
  813SOL     OW  345   0.991   2.272   3.104
  813SOL    HW1  346   0.914   2.306   3.158
  813SOL    HW2  347   0.957   2.221   3.025
  814SOL     OW  348   1.041   2.563   2.291
  814SOL    HW1  349   1.067   2.559   2.387
  814SOL    HW2  350   0.956   2.512   2.277
  817SOL     OW  351   0.865   2.210   2.057
  817SOL    HW1  352   0.924   2.273   2.008
  817SOL    HW2  353   0.884   2.116   2.028
  818SOL     OW  354   1.719   2.447   3.693
  818SOL    HW1  355   1.693   2.536   3.657
  818SOL    HW2  356   1.717   2.379   3.620
  819SOL     OW  357   1.362   3.006   2.407
  819SOL    HW1  358   1.445   2.977   2.359
  819SOL    HW2  359   1.313   3.073   2.351
  821SOL     OW  360   1.008   3.318   2.339
  821SOL    HW1  361   0.962   3.390   2.287
  821SOL    HW2  362   1.004   3.338   2.437
  823SOL     OW  363   1.795   2.928   2.735
  823SOL    HW1  364   1.733   2.913   2.659
  823SOL    HW2  365   1.743   2.939   2.820
  826SOL     OW  366   1.458   2.597   2.590
  826SOL    HW1  367   1.453   2.532   2.665
  826SOL    HW2  368   1.538   2.656   2.603
  830SOL     OW  369   1.632   3.239   1.943
  830SOL    HW1  370   1.600   3.333   1.933
  830SOL    HW2  371   1.556   3.176   1.931
  832SOL     OW  372   1.400   1.969   2.288
  832SOL    HW1  373   1.376   1.932   2.198
  832SOL    HW2  374   1.499   1.985   2.292
  836SOL     OW  375   1.547   2.084   3.591
  836SOL    HW1  376   1.542   2.121   3.683
  836SOL    HW2  377   1.475   2.015   3.579
  840SOL     OW  378   1.351   2.452   3.295
  840SOL    HW1  379   1.379   2.409   3.380
  840SOL    HW2  380   1.376   2.548   3.296
  842SOL     OW  381   0.922   2.365   2.761
  842SOL    HW1  382   0.897   2.356   2.665
  842SOL    HW2  383   0.970   2.283   2.792
  844SOL     OW  384   1.434   3.050   1.903
  844SOL    HW1  385   1.466   2.974   1.960
  844SOL    HW2  386   1.342   3.077   1.933
  846SOL     OW  387   0.935   2.098   2.342
  846SOL    HW1  388   0.887   2.139   2.264
  846SOL    HW2  389   1.034   2.096   2.323
  847SOL     OW  390   1.076   2.545   3.326
  847SOL    HW1  391   0.996   2.484   3.329
  847SOL    HW2  392   1.157   2.492   3.302
  848SOL     OW  393   1.227   3.432   2.655
  848SOL    HW1  394   1.248   3.506   2.590
  848SOL    HW2  395   1.295   3.432   2.728
  850SOL     OW  396   1.271   3.659   2.453
  850SOL    HW1  397   1.315   3.723   2.389
  850SOL    HW2  398   1.221   3.711   2.523
  851SOL     OW  399   1.032   2.411   1.878
  851SOL    HW1  400   0.991   2.493   1.839
  851SOL    HW2  401   1.096   2.437   1.951
  854SOL     OW  402   0.866   2.316   2.504
  854SOL    HW1  403   0.834   2.388   2.442
  854SOL    HW2  404   0.890   2.235   2.451
  855SOL     OW  405   1.017   1.901   2.615
  855SOL    HW1  406   0.945   1.906   2.546
  855SOL    HW2  407   0.993   1.832   2.684
  856SOL     OW  408   1.429   3.035   2.729
  856SOL    HW1  409   1.374   2.951   2.722
  856SOL    HW2  410   1.455   3.064   2.637
  857SOL     OW  411   1.466   2.452   2.854
  857SOL    HW1  412   1.436   2.357   2.861
  857SOL    HW2  413   1.539   2.468   2.920
  858SOL     OW  414   1.857   2.695   2.239
  858SOL    HW1  415   1.899   2.631   2.303
  858SOL    HW2  416   1.819   2.644   2.161
  860SOL     OW  417   1.664   3.142   2.519
  860SOL    HW1  418   1.763   3.150   2.533
  860SOL    HW2  419   1.619   3.226   2.550
  861SOL     OW  420   1.390   2.437   1.940
  861SOL    HW1  421   1.336   2.416   2.021
  861SOL    HW2  422   1.481   2.396   1.949
  863SOL     OW  423   1.754   3.085   3.450
  863SOL    HW1  424   1.845   3.046   3.437
  863SOL    HW2  425   1.762   3.181   3.474
  864SOL     OW  426   1.064   3.209   3.202
  864SOL    HW1  427   0.984   3.186   3.257
  864SOL    HW2  428   1.147   3.183   3.251
  865SOL     OW  429   1.592   3.491   3.487
  865SOL    HW1  430   1.619   3.525   3.397
  865SOL    HW2  431   1.671   3.453   3.533
  866SOL     OW  432   1.111   3.057   2.962
  866SOL    HW1  433   1.071   3.101   3.043
  866SOL    HW2  434   1.070   3.094   2.879
  867SOL     OW  435   1.638   2.961   2.941
  867SOL    HW1  436   1.643   3.042   3.000
  867SOL    HW2  437   1.552   2.963   2.890
  872SOL     OW  438   1.274   2.248   3.124
  872SOL    HW1  439   1.295   2.322   3.188
  872SOL    HW2  440   1.185   2.265   3.081
  876SOL     OW  441   1.252   3.210   2.250
  876SOL    HW1  442   1.302   3.287   2.290
  876SOL    HW2  443   1.157   3.212   2.282
  877SOL     OW  444   1.272   3.307   3.004
  877SOL    HW1  445   1.319   3.320   3.091
  877SOL    HW2  446   1.206   3.233   3.013
  878SOL     OW  447   1.582   2.501   2.334
  878SOL    HW1  448   1.551   2.562   2.407
  878SOL    HW2  449   1.632   2.553   2.265
  881SOL     OW  450   1.587   2.641   3.532
  881SOL    HW1  451   1.495   2.679   3.527
  881SOL    HW2  452   1.647   2.688   3.467
  885SOL     OW  453   1.360   2.724   2.907
  885SOL    HW1  454   1.285   2.724   2.841
  885SOL    HW2  455   1.397   2.632   2.916
  886SOL     OW  456   1.209   2.387   2.137
  886SOL    HW1  457   1.222   2.303   2.191
  886SOL    HW2  458   1.180   2.461   2.197
  889SOL     OW  459   0.732   2.496   2.926
  889SOL    HW1  460   0.791   2.470   2.850
  889SOL    HW2  461   0.704   2.592   2.915
  890SOL     OW  462   1.728   2.797   3.716
  890SOL    HW1  463   1.682   2.790   3.627
  890SOL    HW2  464   1.666   2.841   3.782
  892SOL     OW  465   1.622   2.229   2.236
  892SOL    HW1  466   1.624   2.153   2.300
  892SOL    HW2  467   1.574   2.306   2.276
  893SOL     OW  468   1.023   2.628   2.828
  893SOL    HW1  469   1.038   2.649   2.924
  893SOL    HW2  470   0.993   2.533   2.819
  895SOL     OW  471   1.859   3.380   3.467
  895SOL    HW1  472   1.873   3.407   3.372
  895SOL    HW2  473   1.942   3.402   3.520
  897SOL     OW  474   1.540   2.136   1.987
  897SOL    HW1  475   1.479   2.061   2.010
  897SOL    HW2  476   1.562   2.188   2.070
  898SOL     OW  477   1.303   2.700   1.904
  898SOL    HW1  478   1.337   2.607   1.919
  898SOL    HW2  479   1.321   2.727   1.809
  899SOL     OW  480   1.068   3.195   2.711
  899SOL    HW1  481   1.075   3.111   2.656
  899SOL    HW2  482   1.130   3.264   2.675
  902SOL     OW  483   1.138   2.242   3.540
  902SOL    HW1  484   1.093   2.305   3.604
  902SOL    HW2  485   1.231   2.273   3.523
  903SOL     OW  486   1.160   2.069   3.339
  903SOL    HW1  487   1.160   2.133   3.416
  903SOL    HW2  488   1.188   2.117   3.256
  907SOL     OW  489   1.002   2.658   3.100
  907SOL    HW1  490   1.043   2.626   3.186
  907SOL    HW2  491   0.906   2.631   3.097
  910SOL     OW  492   1.369   2.812   3.522
  910SOL    HW1  493   1.408   2.901   3.542
  910SOL    HW2  494   1.379   2.792   3.425
  911SOL     OW  495   0.815   2.434   2.187
  911SOL    HW1  496   0.822   2.345   2.141
  911SOL    HW2  497   0.721   2.468   2.179
  912SOL     OW  498   1.657   2.466   3.068
  912SOL    HW1  499   1.619   2.397   3.130
  912SOL    HW2  500   1.739   2.430   3.024
  918SOL     OW  501   1.347   2.921   3.096
  918SOL    HW1  502   1.371   2.858   3.022
  918SOL    HW2  503   1.257   2.961   3.078
  919SOL     OW  504   1.302   2.717   2.171
  919SOL    HW1  505   1.216   2.686   2.213
  919SOL    HW2  506   1.298   2.703   2.072
  920SOL     OW  507   1.759   3.609   3.016
  920SOL    HW1  508   1.820   3.639   2.943
  920SOL    HW2  509   1.721   3.520   2.994
  921SOL     OW  510   1.252   3.593   2.990
  921SOL    HW1  511   1.336   3.598   2.936
  921SOL    HW2  512   1.229   3.497   3.008
  924SOL     OW  513   1.726   1.997   2.385
  924SOL    HW1  514   1.799   1.980   2.318
  924SOL    HW2  515   1.695   1.910   2.423
  925SOL     OW  516   1.388   3.435   2.339
  925SOL    HW1  517   1.455   3.447   2.265
  925SOL    HW2  518   1.348   3.524   2.362
  927SOL     OW  519   1.280   2.789   2.534
  927SOL    HW1  520   1.340   2.708   2.536
  927SOL    HW2  521   1.320   2.858   2.474
  930SOL     OW  522   1.650   3.582   3.256
  930SOL    HW1  523   1.703   3.592   3.172
  930SOL    HW2  524   1.623   3.672   3.290
  931SOL     OW  525   1.841   2.037   2.825
  931SOL    HW1  526   1.880   1.952   2.789
  931SOL    HW2  527   1.743   2.039   2.806
  933SOL     OW  528   1.194   3.474   1.893
  933SOL    HW1  529   1.200   3.381   1.930
  933SOL    HW2  530   1.135   3.474   1.813
  935SOL     OW  531   0.916   2.772   2.153
  935SOL    HW1  532   0.979   2.810   2.085
  935SOL    HW2  533   0.956   2.689   2.192
  936SOL     OW  534   1.504   3.469   1.906
  936SOL    HW1  535   1.412   3.506   1.913
  936SOL    HW2  536   1.542   3.489   1.816
  938SOL     OW  537   1.614   3.154   3.151
  938SOL    HW1  538   1.674   3.157   3.231
  938SOL    HW2  539   1.539   3.218   3.164
  939SOL     OW  540   1.039   2.960   2.558
  939SOL    HW1  541   0.969   2.913   2.612
  939SOL    HW2  542   1.098   2.892   2.515
  940SOL     OW  543   1.014   2.098   2.833
  940SOL    HW1  544   1.006   2.062   2.740
  940SOL    HW2  545   1.012   2.022   2.898
  942SOL     OW  546   1.709   2.247   3.243
  942SOL    HW1  547   1.782   2.316   3.247
  942SOL    HW2  548   1.737   2.172   3.184
  947SOL     OW  549   1.440   2.718   3.260
  947SOL    HW1  550   1.383   2.770   3.197
  947SOL    HW2  551   1.536   2.730   3.236
  949SOL     OW  552   1.183   3.197   1.981
  949SOL    HW1  553   1.084   3.186   1.983
  949SOL    HW2  554   1.217   3.212   2.074
  951SOL     OW  555   1.493   3.629   2.821
  951SOL    HW1  556   1.526   3.693   2.752
  951SOL    HW2  557   1.559   3.623   2.896
  953SOL     OW  558   1.450   3.082   3.495
  953SOL    HW1  559   1.441   3.072   3.594
  953SOL    HW2  560   1.546   3.075   3.469
  955SOL     OW  561   1.674   2.745   3.116
  955SOL    HW1  562   1.647   2.656   3.079
  955SOL    HW2  563   1.675   2.813   3.043
  956SOL     OW  564   1.225   2.187   2.311
  956SOL    HW1  565   1.290   2.113   2.300
  956SOL    HW2  566   1.245   2.237   2.395
  958SOL     OW  567   1.777   2.204   3.504
  958SOL    HW1  568   1.760   2.235   3.410
  958SOL    HW2  569   1.693   2.167   3.542
  959SOL     OW  570   1.730   2.796   3.379
  959SOL    HW1  571   1.768   2.887   3.394
  959SOL    HW2  572   1.722   2.779   3.280
  962SOL     OW  573   0.859   2.818   2.723
  962SOL    HW1  574   0.913   2.749   2.771
  962SOL    HW2  575   0.827   2.887   2.789
  963SOL     OW  576   1.083   2.846   1.949
  963SOL    HW1  577   1.060   2.899   1.867
  963SOL    HW2  578   1.164   2.790   1.930
  964SOL     OW  579   1.861   3.431   2.713
  964SOL    HW1  580   1.790   3.419   2.643
  964SOL    HW2  581   1.862   3.352   2.773
  968SOL     OW  582   1.824   2.054   3.089
  968SOL    HW1  583   1.820   1.964   3.133
  968SOL    HW2  584   1.827   2.043   2.990
  970SOL     OW  585   1.705   3.349   2.966
  970SOL    HW1  586   1.612   3.324   2.939
  970SOL    HW2  587   1.731   3.299   3.048
  973SOL     OW  588   1.424   2.076   2.974
  973SOL    HW1  589   1.476   2.011   3.029
  973SOL    HW2  590   1.375   2.139   3.035
  974SOL     OW  591   1.001   1.896   3.016
  974SOL    HW1  592   0.938   1.824   2.985
  974SOL    HW2  593   1.094   1.860   3.016
  977SOL     OW  594   1.352   1.914   2.030
  977SOL    HW1  595   1.387   1.873   1.946
  977SOL    HW2  596   1.262   1.876   2.050
  978SOL     OW  597   1.300   2.315   2.553
  978SOL    HW1  598   1.241   2.395   2.557
  978SOL    HW2  599   1.315   2.280   2.646
  979SOL     OW  600   1.593   2.083   2.744
  979SOL    HW1  601   1.509   2.082   2.798
  979SOL    HW2  602   1.595   2.166   2.688
  987SOL     OW  603   1.755   2.469   3.955
  987SOL    HW1  604   1.743   2.456   3.856
  987SOL    HW2  605   1.725   2.388   4.004
 1004SOL     OW  606   1.525   2.861   3.914
 1004SOL    HW1  607   1.462   2.785   3.927
 1004SOL    HW2  608   1.573   2.879   4.000
 1021SOL     OW  609   1.632   3.239   3.805
 1021SOL    HW1  610   1.600   3.333   3.795
 1021SOL    HW2  611   1.556   3.176   3.793
 1031SOL     OW  612   1.434   3.050   3.765
 1031SOL    HW1  613   1.466   2.974   3.822
 1031SOL    HW2  614   1.342   3.077   3.795
 1042SOL     OW  615   1.857   2.695   4.101
 1042SOL    HW1  616   1.899   2.631   4.165
 1042SOL    HW2  617   1.819   2.644   4.023
 1045SOL     OW  618   1.390   2.437   3.802
 1045SOL    HW1  619   1.336   2.416   3.883
 1045SOL    HW2  620   1.481   2.396   3.811
 1063SOL     OW  621   1.540   2.136   3.849
 1063SOL    HW1  622   1.479   2.061   3.872
 1063SOL    HW2  623   1.562   2.188   3.932
 1064SOL     OW  624   1.303   2.700   3.766
 1064SOL    HW1  625   1.337   2.607   3.781
 1064SOL    HW2  626   1.321   2.727   3.671
 1286SOL     OW  627   1.400   3.831   2.288
 1286SOL    HW1  628   1.376   3.794   2.198
 1286SOL    HW2  629   1.499   3.847   2.292
 1350SOL     OW  630   1.726   3.859   2.385
 1350SOL    HW1  631   1.799   3.842   2.318
 1350SOL    HW2  632   1.695   3.772   2.423
 1352SOL     OW  633   1.841   3.899   2.825
 1352SOL    HW1  634   1.880   3.814   2.789
 1352SOL    HW2  635   1.743   3.901   2.806
 1374SOL     OW  636   1.824   3.916   3.089
 1374SOL    HW1  637   1.820   3.826   3.133
 1374SOL    HW2  638   1.827   3.905   2.990
 1380SOL     OW  639   1.352   3.776   2.030
 1380SOL    HW1  640   1.387   3.735   1.946
 1380SOL    HW2  641   1.262   3.738   2.050
 1382SOL     OW  642   1.593   3.945   2.744
 1382SOL    HW1  643   1.509   3.944   2.798
 1382SOL    HW2  644   1.595   4.028   2.688
 1473SOL     OW  645   2.431   1.275   1.165
 1473SOL    HW1  646   2.338   1.268   1.128
 1473SOL    HW2  647   2.442   1.364   1.209
 1478SOL     OW  648   2.712   0.798   1.823
 1478SOL    HW1  649   2.708   0.874   1.888
 1478SOL    HW2  650   2.734   0.834   1.732
 1480SOL     OW  651   2.548   1.161   1.803
 1480SOL    HW1  652   2.608   1.240   1.817
 1480SOL    HW2  653   2.462   1.192   1.762
 1481SOL     OW  654   2.197   1.435   1.061
 1481SOL    HW1  655   2.119   1.404   1.008
 1481SOL    HW2  656   2.255   1.493   1.004
 1482SOL     OW  657   3.322   1.505   1.339
 1482SOL    HW1  658   3.346   1.599   1.365
 1482SOL    HW2  659   3.306   1.451   1.421
 1486SOL     OW  660   2.989   1.341   1.690
 1486SOL    HW1  661   3.036   1.341   1.778
 1486SOL    HW2  662   2.941   1.254   1.679
 1489SOL     OW  663   2.482   1.786   1.439
 1489SOL    HW1  664   2.390   1.769   1.474
 1489SOL    HW2  665   2.510   1.878   1.465
 1499SOL     OW  666   3.155   1.228   1.423
 1499SOL    HW1  667   3.192   1.155   1.365
 1499SOL    HW2  668   3.207   1.233   1.508
 1503SOL     OW  669   3.049   1.792   1.616
 1503SOL    HW1  670   3.073   1.852   1.540
 1503SOL    HW2  671   3.056   1.697   1.586
 1516SOL     OW  672   1.992   1.821   1.571
 1516SOL    HW1  673   1.982   1.806   1.670
 1516SOL    HW2  674   1.906   1.857   1.535
 1522SOL     OW  675   2.213   1.801   0.853
 1522SOL    HW1  676   2.263   1.715   0.859
 1522SOL    HW2  677   2.278   1.878   0.850
 1524SOL     OW  678   3.089   1.550   1.506
 1524SOL    HW1  679   3.095   1.473   1.570
 1524SOL    HW2  680   3.037   1.524   1.426
 1527SOL     OW  681   2.323   1.266   1.727
 1527SOL    HW1  682   2.273   1.267   1.641
 1527SOL    HW2  683   2.260   1.248   1.803
 1533SOL     OW  684   2.111   1.785   1.241
 1533SOL    HW1  685   2.168   1.720   1.291
 1533SOL    HW2  686   2.095   1.752   1.148
 1534SOL     OW  687   2.802   1.698   0.904
 1534SOL    HW1  688   2.882   1.641   0.925
 1534SOL    HW2  689   2.753   1.658   0.827
 1539SOL     OW  690   2.750   1.514   1.195
 1539SOL    HW1  691   2.727   1.489   1.101
 1539SOL    HW2  692   2.811   1.445   1.234
 1564SOL     OW  693   2.926   1.347   1.340
 1564SOL    HW1  694   2.846   1.324   1.395
 1564SOL    HW2  695   3.009   1.321   1.389
 1565SOL     OW  696   3.454   1.629   1.625
 1565SOL    HW1  697   3.481   1.663   1.535
 1565SOL    HW2  698   3.533   1.591   1.671
 1569SOL     OW  699   2.842   1.116   1.719
 1569SOL    HW1  700   2.743   1.122   1.729
 1569SOL    HW2  701   2.865   1.036   1.663
 1573SOL     OW  702   1.926   1.564   1.331
 1573SOL    HW1  703   1.880   1.646   1.297
 1573SOL    HW2  704   2.024   1.583   1.340
 1577SOL     OW  705   3.134   1.445   1.142
 1577SOL    HW1  706   3.181   1.458   1.229
 1577SOL    HW2  707   3.068   1.371   1.151
 1579SOL     OW  708   2.216   1.510   1.329
 1579SOL    HW1  709   2.195   1.466   1.242
 1579SOL    HW2  710   2.313   1.536   1.332
 1588SOL     OW  711   1.899   1.310   1.282
 1588SOL    HW1  712   1.952   1.261   1.350
 1588SOL    HW2  713   1.921   1.408   1.287
 1594SOL     OW  714   2.842   1.573   1.700
 1594SOL    HW1  715   2.822   1.617   1.612
 1594SOL    HW2  716   2.881   1.482   1.684
 1595SOL     OW  717   3.721   1.518   1.605
 1595SOL    HW1  718   3.735   1.545   1.510
 1595SOL    HW2  719   3.804   1.540   1.658
 1596SOL     OW  720   2.212   0.898   1.804
 1596SOL    HW1  721   2.288   0.942   1.852
 1596SOL    HW2  722   2.247   0.851   1.722
 1605SOL     OW  723   1.950   1.801   0.927
 1605SOL    HW1  724   1.908   1.715   0.900
 1605SOL    HW2  725   2.044   1.804   0.893
 1606SOL     OW  726   2.366   1.568   0.910
 1606SOL    HW1  727   2.432   1.642   0.919
 1606SOL    HW2  728   2.410   1.489   0.868
 1613SOL     OW  729   2.114   1.564   1.744
 1613SOL    HW1  730   2.084   1.621   1.820
 1613SOL    HW2  731   2.107   1.467   1.770
 1615SOL     OW  732   2.792   1.678   1.465
 1615SOL    HW1  733   2.768   1.660   1.370
 1615SOL    HW2  734   2.822   1.772   1.475
 1617SOL     OW  735   2.021   1.137   1.466
 1617SOL    HW1  736   2.043   1.076   1.542
 1617SOL    HW2  737   2.031   1.088   1.380
 1621SOL     OW  738   3.114   1.731   1.128
 1621SOL    HW1  739   3.198   1.736   1.074
 1621SOL    HW2  740   3.091   1.635   1.146
 1623SOL     OW  741   2.550   1.662   1.716
 1623SOL    HW1  742   2.494   1.743   1.725
 1623SOL    HW2  743   2.602   1.666   1.630
 1627SOL     OW  744   1.992   1.794   1.851
 1627SOL    HW1  745   1.951   1.720   1.904
 1627SOL    HW2  746   2.056   1.845   1.909
 1629SOL     OW  747   2.692   1.273   1.422
 1629SOL    HW1  748   2.687   1.306   1.517
 1629SOL    HW2  749   2.606   1.292   1.376
 1631SOL     OW  750   3.512   1.720   1.394
 1631SOL    HW1  751   3.565   1.730   1.310
 1631SOL    HW2  752   3.485   1.810   1.428
 1638SOL     OW  753   2.234   1.288   1.490
 1638SOL    HW1  754   2.221   1.381   1.456
 1638SOL    HW2  755   2.150   1.236   1.477
 1645SOL     OW  756   1.967   1.013   1.726
 1645SOL    HW1  757   1.890   0.980   1.780
 1645SOL    HW2  758   2.052   0.983   1.768
 1653SOL     OW  759   3.312   1.220   1.633
 1653SOL    HW1  760   3.303   1.210   1.732
 1653SOL    HW2  761   3.408   1.213   1.607
 1654SOL     OW  762   2.252   1.741   1.560
 1654SOL    HW1  763   2.161   1.782   1.558
 1654SOL    HW2  764   2.245   1.647   1.592
 1661SOL     OW  765   2.523   1.790   0.953
 1661SOL    HW1  766   2.477   1.878   0.940
 1661SOL    HW2  767   2.622   1.802   0.946
 1665SOL     OW  768   2.083   1.314   1.844
 1665SOL    HW1  769   2.018   1.241   1.823
 1665SOL    HW2  770   2.087   1.328   1.942
 1667SOL     OW  771   2.534   1.391   1.624
 1667SOL    HW1  772   2.456   1.341   1.662
 1667SOL    HW2  773   2.531   1.486   1.655
 1676SOL     OW  774   2.480   1.567   1.284
 1676SOL    HW1  775   2.475   1.649   1.341
 1676SOL    HW2  776   2.569   1.564   1.239
 1685SOL     OW  777   2.431   1.275   3.027
 1685SOL    HW1  778   2.338   1.268   2.990
 1685SOL    HW2  779   2.442   1.364   3.071
 1686SOL     OW  780   3.417   1.511   2.565
 1686SOL    HW1  781   3.360   1.495   2.646
 1686SOL    HW2  782   3.358   1.521   2.485
 1689SOL     OW  783   2.630   1.144   2.885
 1689SOL    HW1  784   2.552   1.161   2.945
 1689SOL    HW2  785   2.664   1.231   2.849
 1691SOL     OW  786   2.547   1.012   2.527
 1691SOL    HW1  787   2.616   0.996   2.597
 1691SOL    HW2  788   2.474   1.069   2.565
 1692SOL     OW  789   2.548   1.161   3.665
 1692SOL    HW1  790   2.608   1.240   3.679
 1692SOL    HW2  791   2.462   1.192   3.624
 1693SOL     OW  792   2.197   1.435   2.923
 1693SOL    HW1  793   2.119   1.404   2.870
 1693SOL    HW2  794   2.255   1.493   2.866
 1694SOL     OW  795   3.322   1.505   3.201
 1694SOL    HW1  796   3.346   1.599   3.227
 1694SOL    HW2  797   3.306   1.451   3.283
 1697SOL     OW  798   2.093   1.713   2.345
 1697SOL    HW1  799   2.127   1.790   2.399
 1697SOL    HW2  800   2.137   1.713   2.255
 1698SOL     OW  801   2.989   1.341   3.552
 1698SOL    HW1  802   3.036   1.341   3.640
 1698SOL    HW2  803   2.941   1.254   3.541
 1699SOL     OW  804   2.092   1.434   2.400
 1699SOL    HW1  805   2.066   1.530   2.400
 1699SOL    HW2  806   2.021   1.380   2.445
 1700SOL     OW  807   2.102   1.091   2.748
 1700SOL    HW1  808   2.116   1.007   2.800
 1700SOL    HW2  809   2.047   1.155   2.803
 1701SOL     OW  810   2.482   1.786   3.301
 1701SOL    HW1  811   2.390   1.769   3.336
 1701SOL    HW2  812   2.510   1.878   3.327
 1702SOL     OW  813   2.468   0.964   1.985
 1702SOL    HW1  814   2.475   1.048   1.931
 1702SOL    HW2  815   2.514   0.977   2.073
 1705SOL     OW  816   3.704   1.767   2.221
 1705SOL    HW1  817   3.758   1.738   2.301
 1705SOL    HW2  818   3.734   1.857   2.192
 1706SOL     OW  819   1.889   1.596   1.979
 1706SOL    HW1  820   1.870   1.500   2.000
 1706SOL    HW2  821   1.856   1.654   2.054
 1708SOL     OW  822   3.503   1.108   2.294
 1708SOL    HW1  823   3.589   1.110   2.242
 1708SOL    HW2  824   3.517   1.155   2.382
 1710SOL     OW  825   2.475   1.365   2.588
 1710SOL    HW1  826   2.426   1.278   2.597
 1710SOL    HW2  827   2.452   1.408   2.501
 1711SOL     OW  828   3.155   1.228   3.285
 1711SOL    HW1  829   3.192   1.155   3.227
 1711SOL    HW2  830   3.207   1.233   3.370
 1713SOL     OW  831   2.059   0.976   3.126
 1713SOL    HW1  832   2.148   0.931   3.112
 1713SOL    HW2  833   1.986   0.911   3.107
 1714SOL     OW  834   3.387   0.999   2.052
 1714SOL    HW1  835   3.324   0.923   2.065
 1714SOL    HW2  836   3.435   1.017   2.138
 1715SOL     OW  837   3.049   1.792   3.478
 1715SOL    HW1  838   3.073   1.852   3.402
 1715SOL    HW2  839   3.056   1.697   3.448
 1717SOL     OW  840   3.328   1.417   2.815
 1717SOL    HW1  841   3.269   1.423   2.895
 1717SOL    HW2  842   3.313   1.329   2.769
 1718SOL     OW  843   3.529   1.714   2.434
 1718SOL    HW1  844   3.488   1.691   2.346
 1718SOL    HW2  845   3.511   1.640   2.499
 1719SOL     OW  846   2.460   0.729   2.132
 1719SOL    HW1  847   2.484   0.798   2.064
 1719SOL    HW2  848   2.382   0.762   2.186
 1721SOL     OW  849   3.438   1.662   2.169
 1721SOL    HW1  850   3.527   1.708   2.172
 1721SOL    HW2  851   3.417   1.638   2.074
 1727SOL     OW  852   1.938   0.811   2.651
 1727SOL    HW1  853   2.037   0.799   2.660
 1727SOL    HW2  854   1.914   0.906   2.672
 1728SOL     OW  855   1.992   1.821   3.433
 1728SOL    HW1  856   1.982   1.806   3.532
 1728SOL    HW2  857   1.906   1.857   3.397
 1731SOL     OW  858   3.224   1.144   2.407
 1731SOL    HW1  859   3.307   1.115   2.359
 1731SOL    HW2  860   3.175   1.211   2.351
 1733SOL     OW  861   2.870   1.456   2.339
 1733SOL    HW1  862   2.824   1.528   2.287
 1733SOL    HW2  863   2.866   1.476   2.437
 1734SOL     OW  864   2.213   1.801   2.715
 1734SOL    HW1  865   2.263   1.715   2.721
 1734SOL    HW2  866   2.278   1.878   2.712
 1736SOL     OW  867   3.089   1.550   3.368
 1736SOL    HW1  868   3.095   1.473   3.432
 1736SOL    HW2  869   3.037   1.524   3.288
 1737SOL     OW  870   2.183   0.943   2.104
 1737SOL    HW1  871   2.265   0.982   2.062
 1737SOL    HW2  872   2.156   0.861   2.055
 1739SOL     OW  873   2.323   1.266   3.589
 1739SOL    HW1  874   2.273   1.267   3.503
 1739SOL    HW2  875   2.260   1.248   3.665
 1740SOL     OW  876   2.973   1.776   2.099
 1740SOL    HW1  877   2.913   1.714   2.149
 1740SOL    HW2  878   3.004   1.732   2.014
 1742SOL     OW  879   3.494   1.377   1.943
 1742SOL    HW1  880   3.462   1.471   1.933
 1742SOL    HW2  881   3.418   1.314   1.931
 1743SOL     OW  882   2.326   1.743   2.185
 1743SOL    HW1  883   2.359   1.782   2.271
 1743SOL    HW2  884   2.402   1.736   2.120
 1745SOL     OW  885   2.111   1.785   3.103
 1745SOL    HW1  886   2.168   1.720   3.153
 1745SOL    HW2  887   2.095   1.752   3.010
 1746SOL     OW  888   2.802   1.698   2.766
 1746SOL    HW1  889   2.882   1.641   2.787
 1746SOL    HW2  890   2.753   1.658   2.689
 1747SOL     OW  891   2.244   0.700   2.342
 1747SOL    HW1  892   2.289   0.610   2.339
 1747SOL    HW2  893   2.150   0.689   2.375
 1751SOL     OW  894   2.750   1.514   3.057
 1751SOL    HW1  895   2.727   1.489   2.963
 1751SOL    HW2  896   2.811   1.445   3.096
 1753SOL     OW  897   2.665   1.402   2.786
 1753SOL    HW1  898   2.755   1.416   2.744
 1753SOL    HW2  899   2.594   1.404   2.715
 1756SOL     OW  900   3.296   1.188   1.903
 1756SOL    HW1  901   3.328   1.112   1.960
 1756SOL    HW2  902   3.204   1.215   1.933
 1760SOL     OW  903   3.089   1.570   2.655
 1760SOL    HW1  904   3.110   1.644   2.590
 1760SOL    HW2  905   3.157   1.570   2.728
 1761SOL     OW  906   2.321   1.152   2.603
 1761SOL    HW1  907   2.250   1.125   2.668
 1761SOL    HW2  908   2.295   1.124   2.510
 1762SOL     OW  909   3.133   1.797   2.453
 1762SOL    HW1  910   3.177   1.861   2.389
 1762SOL    HW2  911   3.083   1.849   2.523
 1768SOL     OW  912   3.291   1.173   2.729
 1768SOL    HW1  913   3.236   1.089   2.722
 1768SOL    HW2  914   3.317   1.202   2.637
 1771SOL     OW  915   2.350   1.385   2.036
 1771SOL    HW1  916   2.263   1.370   2.083
 1771SOL    HW2  917   2.333   1.411   1.941
 1772SOL     OW  918   3.526   1.280   2.519
 1772SOL    HW1  919   3.625   1.288   2.533
 1772SOL    HW2  920   3.481   1.364   2.550
 1776SOL     OW  921   2.926   1.347   3.202
 1776SOL    HW1  922   2.846   1.324   3.257
 1776SOL    HW2  923   3.009   1.321   3.251
 1777SOL     OW  924   3.454   1.629   3.487
 1777SOL    HW1  925   3.481   1.663   3.397
 1777SOL    HW2  926   3.533   1.591   3.533
 1778SOL     OW  927   2.973   1.195   2.962
 1778SOL    HW1  928   2.933   1.239   3.043
 1778SOL    HW2  929   2.932   1.232   2.879
 1779SOL     OW  930   3.500   1.099   2.941
 1779SOL    HW1  931   3.505   1.180   3.000
 1779SOL    HW2  932   3.414   1.101   2.890
 1781SOL     OW  933   2.842   1.116   3.581
 1781SOL    HW1  934   2.743   1.122   3.591
 1781SOL    HW2  935   2.865   1.036   3.525
 1782SOL     OW  936   2.567   1.050   2.230
 1782SOL    HW1  937   2.553   1.057   2.329
 1782SOL    HW2  938   2.651   0.999   2.212
 1783SOL     OW  939   2.272   0.813   3.113
 1783SOL    HW1  940   2.358   0.825   3.163
 1783SOL    HW2  941   2.230   0.726   3.140
 1785SOL     OW  942   1.926   1.564   3.193
 1785SOL    HW1  943   1.880   1.646   3.159
 1785SOL    HW2  944   2.024   1.583   3.202
 1786SOL     OW  945   2.229   1.100   2.363
 1786SOL    HW1  946   2.222   1.183   2.307
 1786SOL    HW2  947   2.233   1.020   2.303
 1788SOL     OW  948   3.114   1.348   2.250
 1788SOL    HW1  949   3.164   1.425   2.290
 1788SOL    HW2  950   3.019   1.350   2.282
 1789SOL     OW  951   3.134   1.445   3.004
 1789SOL    HW1  952   3.181   1.458   3.091
 1789SOL    HW2  953   3.068   1.371   3.013
 1791SOL     OW  954   2.216   1.510   3.191
 1791SOL    HW1  955   2.195   1.466   3.104
 1791SOL    HW2  956   2.313   1.536   3.194
 1796SOL     OW  957   2.435   0.870   2.891
 1796SOL    HW1  958   2.479   0.959   2.882
 1796SOL    HW2  959   2.372   0.870   2.968
 1800SOL     OW  960   1.899   1.310   3.144
 1800SOL    HW1  961   1.952   1.261   3.212
 1800SOL    HW2  962   1.921   1.408   3.149
 1805SOL     OW  963   2.885   0.766   2.828
 1805SOL    HW1  964   2.900   0.787   2.924
 1805SOL    HW2  965   2.855   0.671   2.819
 1806SOL     OW  966   2.842   1.573   3.562
 1806SOL    HW1  967   2.822   1.617   3.474
 1806SOL    HW2  968   2.881   1.482   3.546
 1811SOL     OW  969   2.930   1.333   2.711
 1811SOL    HW1  970   2.937   1.249   2.656
 1811SOL    HW2  971   2.992   1.402   2.675
 1812SOL     OW  972   2.181   0.810   2.811
 1812SOL    HW1  973   2.274   0.846   2.816
 1812SOL    HW2  974   2.175   0.725   2.863
 1816SOL     OW  975   1.870   1.326   2.062
 1816SOL    HW1  976   1.777   1.347   2.031
 1816SOL    HW2  977   1.880   1.227   2.075
 1817SOL     OW  978   1.950   1.801   2.789
 1817SOL    HW1  979   1.908   1.715   2.762
 1817SOL    HW2  980   2.044   1.804   2.755
 1818SOL     OW  981   2.366   1.568   2.772
 1818SOL    HW1  982   2.432   1.642   2.781
 1818SOL    HW2  983   2.410   1.489   2.730
 1825SOL     OW  984   2.114   1.564   3.606
 1825SOL    HW1  985   2.084   1.621   3.682
 1825SOL    HW2  986   2.107   1.467   3.632
 1827SOL     OW  987   2.792   1.678   3.327
 1827SOL    HW1  988   2.768   1.660   3.232
 1827SOL    HW2  989   2.822   1.772   3.337
 1829SOL     OW  990   2.021   1.137   3.328
 1829SOL    HW1  991   2.043   1.076   3.404
 1829SOL    HW2  992   2.031   1.088   3.242
 1830SOL     OW  993   3.209   1.059   3.096
 1830SOL    HW1  994   3.233   0.996   3.022
 1830SOL    HW2  995   3.119   1.099   3.078
 1831SOL     OW  996   3.164   0.855   2.171
 1831SOL    HW1  997   3.078   0.824   2.213
 1831SOL    HW2  998   3.160   0.841   2.072
 1832SOL     OW  999   3.621   1.747   3.016
 1832SOL    HW1 1000   3.682   1.777   2.943
 1832SOL    HW2 1001   3.583   1.658   2.994
 1833SOL     OW 1002   3.114   1.731   2.990
 1833SOL    HW1 1003   3.198   1.736   2.936
 1833SOL    HW2 1004   3.091   1.635   3.008
 1834SOL     OW 1005   1.945   1.258   2.884
 1834SOL    HW1 1006   1.940   1.257   2.984
 1834SOL    HW2 1007   1.862   1.217   2.846
 1835SOL     OW 1008   2.550   1.662   3.578
 1835SOL    HW1 1009   2.494   1.743   3.587
 1835SOL    HW2 1010   2.602   1.666   3.492
 1837SOL     OW 1011   3.250   1.573   2.339
 1837SOL    HW1 1012   3.317   1.585   2.265
 1837SOL    HW2 1013   3.210   1.662   2.362
 1838SOL     OW 1014   1.992   1.794   3.713
 1838SOL    HW1 1015   1.951   1.720   3.766
 1838SOL    HW2 1016   2.056   1.845   3.771
 1839SOL     OW 1017   3.142   0.927   2.534
 1839SOL    HW1 1018   3.202   0.846   2.536
 1839SOL    HW2 1019   3.182   0.996   2.474
 1840SOL     OW 1020   2.692   1.273   3.284
 1840SOL    HW1 1021   2.687   1.306   3.379
 1840SOL    HW2 1022   2.606   1.292   3.238
 1841SOL     OW 1023   2.534   1.616   2.016
 1841SOL    HW1 1024   2.543   1.626   1.917
 1841SOL    HW2 1025   2.494   1.527   2.037
 1842SOL     OW 1026   3.512   1.720   3.256
 1842SOL    HW1 1027   3.565   1.730   3.172
 1842SOL    HW2 1028   3.485   1.810   3.290
 1845SOL     OW 1029   3.056   1.612   1.893
 1845SOL    HW1 1030   3.062   1.519   1.930
 1845SOL    HW2 1031   2.997   1.612   1.813
 1846SOL     OW 1032   2.684   1.002   3.234
 1846SOL    HW1 1033   2.724   1.001   3.142
 1846SOL    HW2 1034   2.694   1.094   3.274
 1847SOL     OW 1035   2.778   0.910   2.153
 1847SOL    HW1 1036   2.841   0.948   2.085
 1847SOL    HW2 1037   2.818   0.827   2.192
 1848SOL     OW 1038   3.366   1.607   1.906
 1848SOL    HW1 1039   3.274   1.644   1.913
 1848SOL    HW2 1040   3.404   1.627   1.816
 1849SOL     OW 1041   2.234   1.288   3.352
 1849SOL    HW1 1042   2.221   1.381   3.318
 1849SOL    HW2 1043   2.150   1.236   3.339
 1850SOL     OW 1044   3.476   1.292   3.151
 1850SOL    HW1 1045   3.536   1.295   3.231
 1850SOL    HW2 1046   3.401   1.356   3.164
 1851SOL     OW 1047   2.901   1.098   2.558
 1851SOL    HW1 1048   2.831   1.051   2.612
 1851SOL    HW2 1049   2.960   1.030   2.515
 1853SOL     OW 1050   2.452   1.487   2.353
 1853SOL    HW1 1051   2.494   1.429   2.283
 1853SOL    HW2 1052   2.408   1.566   2.309
 1855SOL     OW 1053   2.117   1.348   2.152
 1855SOL    HW1 1054   2.021   1.349   2.125
 1855SOL    HW2 1055   2.129   1.401   2.236
 1861SOL     OW 1056   3.045   1.335   1.981
 1861SOL    HW1 1057   2.946   1.324   1.983
 1861SOL    HW2 1058   3.079   1.350   2.074
 1863SOL     OW 1059   3.355   1.767   2.821
 1863SOL    HW1 1060   3.388   1.831   2.752
 1863SOL    HW2 1061   3.421   1.761   2.896
 1866SOL     OW 1062   2.252   1.741   3.422
 1866SOL    HW1 1063   2.161   1.782   3.420
 1866SOL    HW2 1064   2.245   1.647   3.454
 1869SOL     OW 1065   2.456   0.745   2.514
 1869SOL    HW1 1066   2.506   0.830   2.495
 1869SOL    HW2 1067   2.368   0.747   2.466
 1872SOL     OW 1068   2.721   1.374   1.878
 1872SOL    HW1 1069   2.675   1.389   1.966
 1872SOL    HW2 1070   2.765   1.459   1.848
 1873SOL     OW 1071   2.523   1.790   2.815
 1873SOL    HW1 1072   2.477   1.878   2.802
 1873SOL    HW2 1073   2.622   1.802   2.808
 1874SOL     OW 1074   2.721   0.956   2.723
 1874SOL    HW1 1075   2.775   0.887   2.771
 1874SOL    HW2 1076   2.689   1.025   2.789
 1875SOL     OW 1077   2.945   0.984   1.949
 1875SOL    HW1 1078   2.922   1.037   1.867
 1875SOL    HW2 1079   3.026   0.928   1.930
 1876SOL     OW 1080   3.723   1.569   2.713
 1876SOL    HW1 1081   3.652   1.557   2.643
 1876SOL    HW2 1082   3.724   1.490   2.773
 1877SOL     OW 1083   2.083   1.314   3.706
 1877SOL    HW1 1084   2.018   1.241   3.685
 1877SOL    HW2 1085   2.087   1.328   3.804
 1878SOL     OW 1086   1.941   1.240   2.515
 1878SOL    HW1 1087   1.940   1.193   2.603
 1878SOL    HW2 1088   2.023   1.212   2.464
 1879SOL     OW 1089   2.534   1.391   3.486
 1879SOL    HW1 1090   2.456   1.341   3.524
 1879SOL    HW2 1091   2.531   1.486   3.517
 1882SOL     OW 1092   3.567   1.487   2.966
 1882SOL    HW1 1093   3.474   1.462   2.939
 1882SOL    HW2 1094   3.593   1.437   3.048
 1884SOL     OW 1095   2.674   1.586   2.549
 1884SOL    HW1 1096   2.706   1.596   2.455
 1884SOL    HW2 1097   2.595   1.524   2.551
 1887SOL     OW 1098   2.632   1.330   2.163
 1887SOL    HW1 1099   2.586   1.243   2.180
 1887SOL    HW2 1100   2.723   1.327   2.204
 1888SOL     OW 1101   2.480   1.567   3.146
 1888SOL    HW1 1102   2.475   1.649   3.203
 1888SOL    HW2 1103   2.569   1.564   3.101
 1892SOL     OW 1104   1.901   1.077   2.162
 1892SOL    HW1 1105   2.000   1.066   2.153
 1892SOL    HW2 1106   1.861   0.991   2.194
 1893SOL     OW 1107   2.737   1.646   2.199
 1893SOL    HW1 1108   2.660   1.611   2.145
 1893SOL    HW2 1109   2.705   1.717   2.261
 1910SOL     OW 1110   1.889   1.596   3.841
 1910SOL    HW1 1111   1.870   1.500   3.862
 1910SOL    HW2 1112   1.856   1.654   3.916
 1932SOL     OW 1113   2.973   1.776   3.961
 1932SOL    HW1 1114   2.913   1.714   4.011
 1932SOL    HW2 1115   3.004   1.732   3.876
 1934SOL     OW 1116   2.326   1.743   4.047
 1934SOL    HW1 1117   2.359   1.782   4.133
 1934SOL    HW2 1118   2.402   1.736   3.982
 1955SOL     OW 1119   2.350   1.385   3.898
 1955SOL    HW1 1120   2.263   1.370   3.945
 1955SOL    HW2 1121   2.333   1.411   3.803
 1993SOL     OW 1122   2.534   1.616   3.878
 1993SOL    HW1 1123   2.543   1.626   3.779
 1993SOL    HW2 1124   2.494   1.527   3.899
 1996SOL     OW 1125   3.056   1.612   3.755
 1996SOL    HW1 1126   3.062   1.519   3.792
 1996SOL    HW2 1127   2.997   1.612   3.675
 2010SOL     OW 1128   2.721   1.374   3.740
 2010SOL    HW1 1129   2.675   1.389   3.828
 2010SOL    HW2 1130   2.765   1.459   3.710
 2027SOL     OW 1131   2.087   2.137   0.996
 2027SOL    HW1 1132   2.122   2.120   1.088
 2027SOL    HW2 1133   1.999   2.092   0.984
 2029SOL     OW 1134   2.431   3.137   1.165
 2029SOL    HW1 1135   2.338   3.130   1.128
 2029SOL    HW2 1136   2.442   3.226   1.209
 2033SOL     OW 1137   2.630   3.006   1.023
 2033SOL    HW1 1138   2.552   3.023   1.083
 2033SOL    HW2 1139   2.664   3.093   0.987
 2034SOL     OW 1140   2.712   2.660   1.823
 2034SOL    HW1 1141   2.708   2.736   1.888
 2034SOL    HW2 1142   2.734   2.696   1.732
 2036SOL     OW 1143   2.548   3.023   1.803
 2036SOL    HW1 1144   2.608   3.102   1.817
 2036SOL    HW2 1145   2.462   3.054   1.762
 2037SOL     OW 1146   2.197   3.297   1.061
 2037SOL    HW1 1147   2.119   3.266   1.008
 2037SOL    HW2 1148   2.255   3.355   1.004
 2038SOL     OW 1149   3.322   3.367   1.339
 2038SOL    HW1 1150   3.346   3.461   1.365
 2038SOL    HW2 1151   3.306   3.313   1.421
 2039SOL     OW 1152   2.300   2.254   1.499
 2039SOL    HW1 1153   2.382   2.198   1.508
 2039SOL    HW2 1154   2.219   2.196   1.503
 2042SOL     OW 1155   2.989   3.203   1.690
 2042SOL    HW1 1156   3.036   3.203   1.778
 2042SOL    HW2 1157   2.941   3.116   1.679
 2044SOL     OW 1158   2.102   2.953   0.886
 2044SOL    HW1 1159   2.116   2.869   0.938
 2044SOL    HW2 1160   2.047   3.017   0.941
 2045SOL     OW 1161   2.482   3.648   1.439
 2045SOL    HW1 1162   2.390   3.631   1.474
 2045SOL    HW2 1163   2.510   3.740   1.465
 2047SOL     OW 1164   3.456   1.976   1.480
 2047SOL    HW1 1165   3.438   2.043   1.408
 2047SOL    HW2 1166   3.453   2.022   1.569
 2053SOL     OW 1167   1.975   2.599   1.597
 2053SOL    HW1 1168   2.063   2.586   1.642
 2053SOL    HW2 1169   1.962   2.696   1.575
 2055SOL     OW 1170   3.155   3.090   1.423
 2055SOL    HW1 1171   3.192   3.017   1.365
 2055SOL    HW2 1172   3.207   3.095   1.508
 2057SOL     OW 1173   2.059   2.838   1.264
 2057SOL    HW1 1174   2.148   2.793   1.250
 2057SOL    HW2 1175   1.986   2.773   1.245
 2059SOL     OW 1176   3.049   3.654   1.616
 2059SOL    HW1 1177   3.073   3.714   1.540
 2059SOL    HW2 1178   3.056   3.559   1.586
 2060SOL     OW 1179   2.179   2.113   1.801
 2060SOL    HW1 1180   2.250   2.184   1.807
 2060SOL    HW2 1181   2.091   2.152   1.829
 2064SOL     OW 1182   3.143   2.207   0.944
 2064SOL    HW1 1183   3.057   2.157   0.931
 2064SOL    HW2 1184   3.205   2.153   1.000
 2066SOL     OW 1185   2.669   2.467   1.465
 2066SOL    HW1 1186   2.622   2.464   1.554
 2066SOL    HW2 1187   2.618   2.412   1.399
 2067SOL     OW 1188   3.256   2.331   1.674
 2067SOL    HW1 1189   3.236   2.374   1.762
 2067SOL    HW2 1190   3.334   2.269   1.683
 2068SOL     OW 1191   2.835   2.752   1.572
 2068SOL    HW1 1192   2.881   2.668   1.543
 2068SOL    HW2 1193   2.779   2.786   1.497
 2069SOL     OW 1194   2.853   2.272   1.242
 2069SOL    HW1 1195   2.776   2.306   1.296
 2069SOL    HW2 1196   2.819   2.221   1.163
 2071SOL     OW 1197   1.938   2.673   0.789
 2071SOL    HW1 1198   2.037   2.661   0.798
 2071SOL    HW2 1199   1.914   2.768   0.810
 2072SOL     OW 1200   1.992   3.683   1.571
 2072SOL    HW1 1201   1.982   3.668   1.670
 2072SOL    HW2 1202   1.906   3.719   1.535
 2074SOL     OW 1203   3.581   2.447   1.831
 2074SOL    HW1 1204   3.555   2.536   1.795
 2074SOL    HW2 1205   3.579   2.379   1.758
 2076SOL     OW 1206   2.412   2.058   0.885
 2076SOL    HW1 1207   2.407   2.053   0.985
 2076SOL    HW2 1208   2.414   2.154   0.856
 2080SOL     OW 1209   3.089   3.412   1.506
 2080SOL    HW1 1210   3.095   3.335   1.570
 2080SOL    HW2 1211   3.037   3.386   1.426
 2083SOL     OW 1212   2.323   3.128   1.727
 2083SOL    HW1 1213   2.273   3.129   1.641
 2083SOL    HW2 1214   2.260   3.110   1.803
 2085SOL     OW 1215   2.064   2.147   1.498
 2085SOL    HW1 1216   1.984   2.207   1.485
 2085SOL    HW2 1217   2.054   2.098   1.584
 2089SOL     OW 1218   2.111   3.647   1.241
 2089SOL    HW1 1219   2.168   3.582   1.291
 2089SOL    HW2 1220   2.095   3.614   1.148
 2092SOL     OW 1221   3.409   2.084   1.729
 2092SOL    HW1 1222   3.404   2.121   1.821
 2092SOL    HW2 1223   3.337   2.015   1.717
 2094SOL     OW 1224   2.643   2.126   1.749
 2094SOL    HW1 1225   2.710   2.065   1.792
 2094SOL    HW2 1226   2.570   2.145   1.814
 2095SOL     OW 1227   2.750   3.376   1.195
 2095SOL    HW1 1228   2.727   3.351   1.101
 2095SOL    HW2 1229   2.811   3.307   1.234
 2096SOL     OW 1230   3.213   2.452   1.433
 2096SOL    HW1 1231   3.241   2.409   1.518
 2096SOL    HW2 1232   3.238   2.548   1.434
 2097SOL     OW 1233   2.665   3.264   0.924
 2097SOL    HW1 1234   2.755   3.278   0.882
 2097SOL    HW2 1235   2.594   3.266   0.853
 2098SOL     OW 1236   2.784   2.365   0.899
 2098SOL    HW1 1237   2.759   2.356   0.803
 2098SOL    HW2 1238   2.832   2.283   0.930
 2102SOL     OW 1239   2.938   2.545   1.464
 2102SOL    HW1 1240   2.858   2.484   1.467
 2102SOL    HW2 1241   3.019   2.492   1.440
 2107SOL     OW 1242   1.940   2.418   1.386
 2107SOL    HW1 1243   2.032   2.417   1.345
 2107SOL    HW2 1244   1.934   2.492   1.453
 2108SOL     OW 1245   2.423   2.084   1.147
 2108SOL    HW1 1246   2.461   2.000   1.184
 2108SOL    HW2 1247   2.335   2.103   1.191
 2112SOL     OW 1248   3.328   2.452   0.992
 2112SOL    HW1 1249   3.298   2.357   0.999
 2112SOL    HW2 1250   3.401   2.468   1.058
 2118SOL     OW 1251   3.616   3.085   1.588
 2118SOL    HW1 1252   3.707   3.046   1.575
 2118SOL    HW2 1253   3.624   3.181   1.612
 2119SOL     OW 1254   2.926   3.209   1.340
 2119SOL    HW1 1255   2.846   3.186   1.395
 2119SOL    HW2 1256   3.009   3.183   1.389
 2120SOL     OW 1257   3.454   3.491   1.625
 2120SOL    HW1 1258   3.481   3.525   1.535
 2120SOL    HW2 1259   3.533   3.453   1.671
 2121SOL     OW 1260   2.973   3.057   1.100
 2121SOL    HW1 1261   2.933   3.101   1.181
 2121SOL    HW2 1262   2.932   3.094   1.017
 2123SOL     OW 1263   2.777   1.951   1.402
 2123SOL    HW1 1264   2.802   1.931   1.307
 2123SOL    HW2 1265   2.849   2.007   1.444
 2124SOL     OW 1266   2.842   2.978   1.719
 2124SOL    HW1 1267   2.743   2.984   1.729
 2124SOL    HW2 1268   2.865   2.898   1.663
 2126SOL     OW 1269   2.272   2.675   1.251
 2126SOL    HW1 1270   2.358   2.687   1.301
 2126SOL    HW2 1271   2.230   2.588   1.278
 2127SOL     OW 1272   3.136   2.248   1.262
 2127SOL    HW1 1273   3.157   2.322   1.326
 2127SOL    HW2 1274   3.047   2.265   1.219
 2128SOL     OW 1275   1.926   3.426   1.331
 2128SOL    HW1 1276   1.880   3.508   1.297
 2128SOL    HW2 1277   2.024   3.445   1.340
 2130SOL     OW 1278   2.428   2.399   0.865
 2130SOL    HW1 1279   2.440   2.465   0.791
 2130SOL    HW2 1280   2.474   2.433   0.948
 2132SOL     OW 1281   3.134   3.307   1.142
 2132SOL    HW1 1282   3.181   3.320   1.229
 2132SOL    HW2 1283   3.068   3.233   1.151
 2134SOL     OW 1284   2.216   3.372   1.329
 2134SOL    HW1 1285   2.195   3.328   1.242
 2134SOL    HW2 1286   2.313   3.398   1.332
 2135SOL     OW 1287   2.264   2.613   1.598
 2135SOL    HW1 1288   2.332   2.668   1.551
 2135SOL    HW2 1289   2.304   2.525   1.625
 2136SOL     OW 1290   3.449   2.641   1.670
 2136SOL    HW1 1291   3.357   2.679   1.665
 2136SOL    HW2 1292   3.509   2.688   1.605
 2137SOL     OW 1293   2.875   1.967   1.770
 2137SOL    HW1 1294   2.881   2.052   1.718
 2137SOL    HW2 1295   2.907   1.891   1.713
 2138SOL     OW 1296   2.366   1.912   1.740
 2138SOL    HW1 1297   2.324   1.855   1.670
 2138SOL    HW2 1298   2.300   1.981   1.772
 2139SOL     OW 1299   2.435   2.732   1.029
 2139SOL    HW1 1300   2.479   2.821   1.020
 2139SOL    HW2 1301   2.372   2.732   1.106
 2140SOL     OW 1302   3.222   2.724   1.045
 2140SOL    HW1 1303   3.147   2.724   0.979
 2140SOL    HW2 1304   3.259   2.632   1.054
 2142SOL     OW 1305   2.169   2.075   1.231
 2142SOL    HW1 1306   2.146   2.112   1.321
 2142SOL    HW2 1307   2.139   1.980   1.225
 2143SOL     OW 1308   1.899   3.172   1.282
 2143SOL    HW1 1309   1.952   3.123   1.350
 2143SOL    HW2 1310   1.921   3.270   1.287
 2144SOL     OW 1311   2.594   2.496   1.064
 2144SOL    HW1 1312   2.653   2.470   0.988
 2144SOL    HW2 1313   2.566   2.592   1.053
 2145SOL     OW 1314   3.590   2.797   1.854
 2145SOL    HW1 1315   3.544   2.790   1.765
 2145SOL    HW2 1316   3.528   2.841   1.920
 2148SOL     OW 1317   2.885   2.628   0.966
 2148SOL    HW1 1318   2.900   2.649   1.062
 2148SOL    HW2 1319   2.855   2.533   0.957
 2149SOL     OW 1320   2.842   3.435   1.700
 2149SOL    HW1 1321   2.822   3.479   1.612
 2149SOL    HW2 1322   2.881   3.344   1.684
 2150SOL     OW 1323   3.721   3.380   1.605
 2150SOL    HW1 1324   3.735   3.407   1.510
 2150SOL    HW2 1325   3.804   3.402   1.658
 2151SOL     OW 1326   2.212   2.760   1.804
 2151SOL    HW1 1327   2.288   2.804   1.852
 2151SOL    HW2 1328   2.247   2.713   1.722
 2155SOL     OW 1329   2.181   2.672   0.949
 2155SOL    HW1 1330   2.274   2.708   0.954
 2155SOL    HW2 1331   2.175   2.587   1.001
 2156SOL     OW 1332   2.201   2.371   1.006
 2156SOL    HW1 1333   2.149   2.288   0.989
 2156SOL    HW2 1334   2.278   2.376   0.942
 2157SOL     OW 1335   3.000   2.242   1.678
 2157SOL    HW1 1336   2.955   2.305   1.742
 2157SOL    HW2 1337   3.093   2.273   1.661
 2158SOL     OW 1338   3.022   2.069   1.477
 2158SOL    HW1 1339   3.022   2.133   1.554
 2158SOL    HW2 1340   3.050   2.117   1.394
 2162SOL     OW 1341   2.864   2.658   1.238
 2162SOL    HW1 1342   2.905   2.626   1.324
 2162SOL    HW2 1343   2.768   2.631   1.235
 2163SOL     OW 1344   1.902   2.406   1.114
 2163SOL    HW1 1345   1.987   2.373   1.073
 2163SOL    HW2 1346   1.915   2.421   1.212
 2164SOL     OW 1347   2.051   2.382   1.722
 2164SOL    HW1 1348   2.110   2.342   1.652
 2164SOL    HW2 1349   1.993   2.453   1.681
 2165SOL     OW 1350   3.231   2.812   1.660
 2165SOL    HW1 1351   3.270   2.901   1.680
 2165SOL    HW2 1352   3.241   2.792   1.563
 2167SOL     OW 1353   3.519   2.466   1.206
 2167SOL    HW1 1354   3.481   2.397   1.268
 2167SOL    HW2 1355   3.601   2.430   1.162
 2168SOL     OW 1356   2.114   3.426   1.744
 2168SOL    HW1 1357   2.084   3.483   1.820
 2168SOL    HW2 1358   2.107   3.329   1.770
 2169SOL     OW 1359   2.533   2.326   1.269
 2169SOL    HW1 1360   2.499   2.237   1.239
 2169SOL    HW2 1361   2.559   2.380   1.189
 2170SOL     OW 1362   2.792   3.540   1.465
 2170SOL    HW1 1363   2.768   3.522   1.370
 2170SOL    HW2 1364   2.822   3.634   1.475
 2172SOL     OW 1365   2.021   2.999   1.466
 2172SOL    HW1 1366   2.043   2.938   1.542
 2172SOL    HW2 1367   2.031   2.950   1.380
 2173SOL     OW 1368   3.209   2.921   1.234
 2173SOL    HW1 1369   3.233   2.858   1.160
 2173SOL    HW2 1370   3.119   2.961   1.216
 2177SOL     OW 1371   1.945   3.120   1.022
 2177SOL    HW1 1372   1.940   3.119   1.122
 2177SOL    HW2 1373   1.862   3.079   0.984
 2178SOL     OW 1374   2.550   3.524   1.716
 2178SOL    HW1 1375   2.494   3.605   1.725
 2178SOL    HW2 1376   2.602   3.528   1.630
 2182SOL     OW 1377   1.992   3.656   1.851
 2182SOL    HW1 1378   1.951   3.582   1.904
 2182SOL    HW2 1379   2.056   3.707   1.909
 2184SOL     OW 1380   2.692   3.135   1.422
 2184SOL    HW1 1381   2.687   3.168   1.517
 2184SOL    HW2 1382   2.606   3.154   1.376
 2188SOL     OW 1383   2.125   2.188   0.720
 2188SOL    HW1 1384   2.046   2.239   0.686
 2188SOL    HW2 1385   2.116   2.173   0.818
 2190SOL     OW 1386   2.684   2.864   1.372
 2190SOL    HW1 1387   2.724   2.863   1.280
 2190SOL    HW2 1388   2.694   2.956   1.412
 2193SOL     OW 1389   2.234   3.150   1.490
 2193SOL    HW1 1390   2.221   3.243   1.456
 2193SOL    HW2 1391   2.150   3.098   1.477
 2194SOL     OW 1392   3.476   3.154   1.289
 2194SOL    HW1 1393   3.536   3.157   1.369
 2194SOL    HW2 1394   3.401   3.218   1.302
 2196SOL     OW 1395   2.876   2.098   0.971
 2196SOL    HW1 1396   2.868   2.062   0.878
 2196SOL    HW2 1397   2.874   2.022   1.036
 2198SOL     OW 1398   3.571   2.247   1.381
 2198SOL    HW1 1399   3.644   2.316   1.385
 2198SOL    HW2 1400   3.599   2.172   1.322
 2200SOL     OW 1401   1.967   2.875   1.726
 2200SOL    HW1 1402   1.890   2.842   1.780
 2200SOL    HW2 1403   2.052   2.845   1.768
 2201SOL     OW 1404   2.534   2.065   1.489
 2201SOL    HW1 1405   2.624   2.049   1.449
 2201SOL    HW2 1406   2.542   2.070   1.588
 2202SOL     OW 1407   3.302   2.718   1.398
 2202SOL    HW1 1408   3.245   2.770   1.335
 2202SOL    HW2 1409   3.398   2.730   1.374
 2205SOL     OW 1410   2.475   2.704   1.431
 2205SOL    HW1 1411   2.531   2.785   1.414
 2205SOL    HW2 1412   2.534   2.624   1.434
 2207SOL     OW 1413   2.578   2.427   1.708
 2207SOL    HW1 1414   2.597   2.492   1.782
 2207SOL    HW2 1415   2.638   2.347   1.717
 2208SOL     OW 1416   3.312   3.082   1.633
 2208SOL    HW1 1417   3.303   3.072   1.732
 2208SOL    HW2 1418   3.408   3.075   1.607
 2209SOL     OW 1419   2.252   3.603   1.560
 2209SOL    HW1 1420   2.161   3.644   1.558
 2209SOL    HW2 1421   2.245   3.509   1.592
 2210SOL     OW 1422   3.536   2.745   1.254
 2210SOL    HW1 1423   3.509   2.656   1.217
 2210SOL    HW2 1424   3.537   2.813   1.181
 2213SOL     OW 1425   3.639   2.204   1.642
 2213SOL    HW1 1426   3.622   2.235   1.548
 2213SOL    HW2 1427   3.555   2.167   1.680
 2214SOL     OW 1428   3.592   2.796   1.517
 2214SOL    HW1 1429   3.630   2.887   1.532
 2214SOL    HW2 1430   3.584   2.779   1.418
 2217SOL     OW 1431   2.721   2.818   0.861
 2217SOL    HW1 1432   2.775   2.749   0.909
 2217SOL    HW2 1433   2.689   2.887   0.927
 2220SOL     OW 1434   2.083   3.176   1.844
 2220SOL    HW1 1435   2.018   3.103   1.823
 2220SOL    HW2 1436   2.087   3.190   1.942
 2222SOL     OW 1437   2.534   3.253   1.624
 2222SOL    HW1 1438   2.456   3.203   1.662
 2222SOL    HW2 1439   2.531   3.348   1.655
 2223SOL     OW 1440   3.686   2.054   1.227
 2223SOL    HW1 1441   3.682   1.964   1.271
 2223SOL    HW2 1442   3.689   2.043   1.128
 2226SOL     OW 1443   2.179   2.409   1.280
 2226SOL    HW1 1444   2.217   2.350   1.352
 2226SOL    HW2 1445   2.219   2.383   1.192
 2228SOL     OW 1446   3.286   2.076   1.112
 2228SOL    HW1 1447   3.338   2.011   1.167
 2228SOL    HW2 1448   3.237   2.139   1.173
 2229SOL     OW 1449   2.863   1.896   1.154
 2229SOL    HW1 1450   2.800   1.824   1.123
 2229SOL    HW2 1451   2.956   1.860   1.154
 2231SOL     OW 1452   2.480   3.429   1.284
 2231SOL    HW1 1453   2.475   3.511   1.341
 2231SOL    HW2 1454   2.569   3.426   1.239
 2237SOL     OW 1455   2.092   2.490   1.975
 2237SOL    HW1 1456   1.999   2.488   2.012
 2237SOL    HW2 1457   2.093   2.451   1.883
 2238SOL     OW 1458   2.087   2.137   2.858
 2238SOL    HW1 1459   2.122   2.120   2.950
 2238SOL    HW2 1460   1.999   2.092   2.846
 2239SOL     OW 1461   1.881   2.230   2.509
 2239SOL    HW1 1462   1.799   2.273   2.548
 2239SOL    HW2 1463   1.853   2.157   2.446
 2240SOL     OW 1464   2.431   3.137   3.027
 2240SOL    HW1 1465   2.338   3.130   2.990
 2240SOL    HW2 1466   2.442   3.226   3.071
 2241SOL     OW 1467   3.417   3.373   2.565
 2241SOL    HW1 1468   3.360   3.357   2.646
 2241SOL    HW2 1469   3.358   3.383   2.485
 2242SOL     OW 1470   2.997   2.565   2.579
 2242SOL    HW1 1471   3.054   2.643   2.554
 2242SOL    HW2 1472   2.937   2.591   2.655
 2243SOL     OW 1473   3.617   2.469   2.093
 2243SOL    HW1 1474   3.605   2.456   1.994
 2243SOL    HW2 1475   3.587   2.388   2.142
 2244SOL     OW 1476   2.630   3.006   2.885
 2244SOL    HW1 1477   2.552   3.023   2.945
 2244SOL    HW2 1478   2.664   3.093   2.849
 2245SOL     OW 1479   2.712   2.660   3.685
 2245SOL    HW1 1480   2.708   2.736   3.750
 2245SOL    HW2 1481   2.734   2.696   3.594
 2246SOL     OW 1482   2.547   2.874   2.527
 2246SOL    HW1 1483   2.616   2.858   2.597
 2246SOL    HW2 1484   2.474   2.931   2.565
 2247SOL     OW 1485   2.548   3.023   3.665
 2247SOL    HW1 1486   2.608   3.102   3.679
 2247SOL    HW2 1487   2.462   3.054   3.624
 2248SOL     OW 1488   2.197   3.297   2.923
 2248SOL    HW1 1489   2.119   3.266   2.870
 2248SOL    HW2 1490   2.255   3.355   2.866
 2249SOL     OW 1491   3.322   3.367   3.201
 2249SOL    HW1 1492   3.346   3.461   3.227
 2249SOL    HW2 1493   3.306   3.313   3.283
 2250SOL     OW 1494   2.300   2.254   3.361
 2250SOL    HW1 1495   2.382   2.198   3.370
 2250SOL    HW2 1496   2.219   2.196   3.365
 2251SOL     OW 1497   3.465   2.309   2.599
 2251SOL    HW1 1498   3.391   2.355   2.549
 2251SOL    HW2 1499   3.516   2.377   2.652
 2252SOL     OW 1500   2.093   3.575   2.345
 2252SOL    HW1 1501   2.127   3.652   2.399
 2252SOL    HW2 1502   2.137   3.575   2.255
 2253SOL     OW 1503   2.989   3.203   3.552
 2253SOL    HW1 1504   3.036   3.203   3.640
 2253SOL    HW2 1505   2.941   3.116   3.541
 2254SOL     OW 1506   2.092   3.296   2.400
 2254SOL    HW1 1507   2.066   3.392   2.400
 2254SOL    HW2 1508   2.021   3.242   2.445
 2255SOL     OW 1509   2.102   2.953   2.748
 2255SOL    HW1 1510   2.116   2.869   2.800
 2255SOL    HW2 1511   2.047   3.017   2.803
 2256SOL     OW 1512   2.482   3.648   3.301
 2256SOL    HW1 1513   2.390   3.631   3.336
 2256SOL    HW2 1514   2.510   3.740   3.327
 2257SOL     OW 1515   2.468   2.826   1.985
 2257SOL    HW1 1516   2.475   2.910   1.931
 2257SOL    HW2 1517   2.514   2.839   2.073
 2258SOL     OW 1518   3.456   1.976   3.342
 2258SOL    HW1 1519   3.438   2.043   3.270
 2258SOL    HW2 1520   3.453   2.022   3.431
 2259SOL     OW 1521   1.984   2.505   2.425
 2259SOL    HW1 1522   1.939   2.417   2.442
 2259SOL    HW2 1523   1.983   2.559   2.509
 2260SOL     OW 1524   3.704   3.629   2.221
 2260SOL    HW1 1525   3.758   3.600   2.301
 2260SOL    HW2 1526   3.734   3.719   2.192
 2261SOL     OW 1527   1.889   3.458   1.979
 2261SOL    HW1 1528   1.870   3.362   2.000
 2261SOL    HW2 1529   1.856   3.516   2.054
 2262SOL     OW 1530   3.551   2.784   2.474
 2262SOL    HW1 1531   3.646   2.755   2.482
 2262SOL    HW2 1532   3.543   2.849   2.399
 2263SOL     OW 1533   3.503   2.970   2.294
 2263SOL    HW1 1534   3.589   2.972   2.242
 2263SOL    HW2 1535   3.517   3.017   2.382
 2264SOL     OW 1536   1.975   2.599   3.459
 2264SOL    HW1 1537   2.063   2.586   3.504
 2264SOL    HW2 1538   1.962   2.696   3.437
 2265SOL     OW 1539   2.475   3.227   2.588
 2265SOL    HW1 1540   2.426   3.140   2.597
 2265SOL    HW2 1541   2.452   3.270   2.501
 2266SOL     OW 1542   3.155   3.090   3.285
 2266SOL    HW1 1543   3.192   3.017   3.227
 2266SOL    HW2 1544   3.207   3.095   3.370
 2267SOL     OW 1545   2.671   1.866   2.364
 2267SOL    HW1 1546   2.711   1.957   2.355
 2267SOL    HW2 1547   2.571   1.874   2.370
 2268SOL     OW 1548   2.059   2.838   3.126
 2268SOL    HW1 1549   2.148   2.793   3.112
 2268SOL    HW2 1550   1.986   2.773   3.107
 2269SOL     OW 1551   3.387   2.861   2.052
 2269SOL    HW1 1552   3.324   2.785   2.065
 2269SOL    HW2 1553   3.435   2.879   2.138
 2270SOL     OW 1554   3.049   3.654   3.478
 2270SOL    HW1 1555   3.073   3.714   3.402
 2270SOL    HW2 1556   3.056   3.559   3.448
 2271SOL     OW 1557   2.179   2.113   3.663
 2271SOL    HW1 1558   2.250   2.184   3.669
 2271SOL    HW2 1559   2.091   2.152   3.691
 2272SOL     OW 1560   3.328   3.279   2.815
 2272SOL    HW1 1561   3.269   3.285   2.895
 2272SOL    HW2 1562   3.313   3.191   2.769
 2273SOL     OW 1563   3.529   3.576   2.434
 2273SOL    HW1 1564   3.488   3.553   2.346
 2273SOL    HW2 1565   3.511   3.502   2.499
 2274SOL     OW 1566   3.143   2.207   2.806
 2274SOL    HW1 1567   3.057   2.157   2.793
 2274SOL    HW2 1568   3.205   2.153   2.862
 2275SOL     OW 1569   3.438   3.524   2.169
 2275SOL    HW1 1570   3.527   3.570   2.172
 2275SOL    HW2 1571   3.417   3.500   2.074
 2276SOL     OW 1572   2.669   2.467   3.327
 2276SOL    HW1 1573   2.622   2.464   3.416
 2276SOL    HW2 1574   2.618   2.412   3.261
 2277SOL     OW 1575   3.256   2.331   3.536
 2277SOL    HW1 1576   3.236   2.374   3.624
 2277SOL    HW2 1577   3.334   2.269   3.545
 2278SOL     OW 1578   2.835   2.752   3.434
 2278SOL    HW1 1579   2.881   2.668   3.405
 2278SOL    HW2 1580   2.779   2.786   3.359
 2279SOL     OW 1581   2.853   2.272   3.104
 2279SOL    HW1 1582   2.776   2.306   3.158
 2279SOL    HW2 1583   2.819   2.221   3.025
 2280SOL     OW 1584   2.903   2.563   2.291
 2280SOL    HW1 1585   2.929   2.559   2.387
 2280SOL    HW2 1586   2.818   2.512   2.277
 2281SOL     OW 1587   1.938   2.673   2.651
 2281SOL    HW1 1588   2.037   2.661   2.660
 2281SOL    HW2 1589   1.914   2.768   2.672
 2282SOL     OW 1590   1.992   3.683   3.433
 2282SOL    HW1 1591   1.982   3.668   3.532
 2282SOL    HW2 1592   1.906   3.719   3.397
 2283SOL     OW 1593   2.727   2.210   2.057
 2283SOL    HW1 1594   2.786   2.273   2.008
 2283SOL    HW2 1595   2.746   2.116   2.028
 2284SOL     OW 1596   3.581   2.447   3.693
 2284SOL    HW1 1597   3.555   2.536   3.657
 2284SOL    HW2 1598   3.579   2.379   3.620
 2285SOL     OW 1599   3.224   3.006   2.407
 2285SOL    HW1 1600   3.307   2.977   2.359
 2285SOL    HW2 1601   3.175   3.073   2.351
 2286SOL     OW 1602   2.870   3.318   2.339
 2286SOL    HW1 1603   2.824   3.390   2.287
 2286SOL    HW2 1604   2.866   3.338   2.437
 2287SOL     OW 1605   2.213   3.663   2.715
 2287SOL    HW1 1606   2.263   3.577   2.721
 2287SOL    HW2 1607   2.278   3.740   2.712
 2288SOL     OW 1608   3.657   2.928   2.735
 2288SOL    HW1 1609   3.595   2.913   2.659
 2288SOL    HW2 1610   3.605   2.939   2.820
 2289SOL     OW 1611   3.089   3.412   3.368
 2289SOL    HW1 1612   3.095   3.335   3.432
 2289SOL    HW2 1613   3.037   3.386   3.288
 2290SOL     OW 1614   2.183   2.805   2.104
 2290SOL    HW1 1615   2.265   2.844   2.062
 2290SOL    HW2 1616   2.156   2.723   2.055
 2291SOL     OW 1617   3.320   2.597   2.590
 2291SOL    HW1 1618   3.315   2.532   2.665
 2291SOL    HW2 1619   3.400   2.656   2.603
 2292SOL     OW 1620   2.323   3.128   3.589
 2292SOL    HW1 1621   2.273   3.129   3.503
 2292SOL    HW2 1622   2.260   3.110   3.665
 2293SOL     OW 1623   2.973   3.638   2.099
 2293SOL    HW1 1624   2.913   3.576   2.149
 2293SOL    HW2 1625   3.004   3.594   2.014
 2294SOL     OW 1626   2.064   2.147   3.360
 2294SOL    HW1 1627   1.984   2.207   3.347
 2294SOL    HW2 1628   2.054   2.098   3.446
 2295SOL     OW 1629   3.494   3.239   1.943
 2295SOL    HW1 1630   3.462   3.333   1.933
 2295SOL    HW2 1631   3.418   3.176   1.931
 2296SOL     OW 1632   2.326   3.605   2.185
 2296SOL    HW1 1633   2.359   3.644   2.271
 2296SOL    HW2 1634   2.402   3.598   2.120
 2297SOL     OW 1635   3.262   1.969   2.288
 2297SOL    HW1 1636   3.238   1.932   2.198
 2297SOL    HW2 1637   3.361   1.985   2.292
 2298SOL     OW 1638   2.111   3.647   3.103
 2298SOL    HW1 1639   2.168   3.582   3.153
 2298SOL    HW2 1640   2.095   3.614   3.010
 2299SOL     OW 1641   2.802   3.560   2.766
 2299SOL    HW1 1642   2.882   3.503   2.787
 2299SOL    HW2 1643   2.753   3.520   2.689
 2300SOL     OW 1644   3.409   2.084   3.591
 2300SOL    HW1 1645   3.404   2.121   3.683
 2300SOL    HW2 1646   3.337   2.015   3.579
 2301SOL     OW 1647   2.476   1.984   1.979
 2301SOL    HW1 1648   2.574   1.962   1.986
 2301SOL    HW2 1649   2.445   1.967   1.886
 2302SOL     OW 1650   2.643   2.126   3.611
 2302SOL    HW1 1651   2.710   2.065   3.654
 2302SOL    HW2 1652   2.570   2.145   3.676
 2303SOL     OW 1653   2.750   3.376   3.057
 2303SOL    HW1 1654   2.727   3.351   2.963
 2303SOL    HW2 1655   2.811   3.307   3.096
 2304SOL     OW 1656   3.213   2.452   3.295
 2304SOL    HW1 1657   3.241   2.409   3.380
 2304SOL    HW2 1658   3.238   2.548   3.296
 2305SOL     OW 1659   2.665   3.264   2.786
 2305SOL    HW1 1660   2.755   3.278   2.744
 2305SOL    HW2 1661   2.594   3.266   2.715
 2306SOL     OW 1662   2.401   1.926   2.374
 2306SOL    HW1 1663   2.320   1.927   2.432
 2306SOL    HW2 1664   2.404   2.009   2.319
 2307SOL     OW 1665   3.296   3.050   1.903
 2307SOL    HW1 1666   3.328   2.974   1.960
 2307SOL    HW2 1667   3.204   3.077   1.933
 2308SOL     OW 1668   2.159   1.897   2.033
 2308SOL    HW1 1669   2.208   1.981   2.012
 2308SOL    HW2 1670   2.221   1.832   2.078
 2309SOL     OW 1671   2.797   2.098   2.342
 2309SOL    HW1 1672   2.749   2.139   2.264
 2309SOL    HW2 1673   2.896   2.096   2.323
 2310SOL     OW 1674   2.938   2.545   3.326
 2310SOL    HW1 1675   2.858   2.484   3.329
 2310SOL    HW2 1676   3.019   2.492   3.302
 2311SOL     OW 1677   3.089   3.432   2.655
 2311SOL    HW1 1678   3.110   3.506   2.590
 2311SOL    HW2 1679   3.157   3.432   2.728
 2312SOL     OW 1680   2.321   3.014   2.603
 2312SOL    HW1 1681   2.250   2.987   2.668
 2312SOL    HW2 1682   2.295   2.986   2.510
 2313SOL     OW 1683   3.133   3.659   2.453
 2313SOL    HW1 1684   3.177   3.723   2.389
 2313SOL    HW2 1685   3.083   3.711   2.523
 2314SOL     OW 1686   2.894   2.411   1.878
 2314SOL    HW1 1687   2.853   2.493   1.839
 2314SOL    HW2 1688   2.958   2.437   1.951
 2315SOL     OW 1689   1.940   2.418   3.248
 2315SOL    HW1 1690   2.032   2.417   3.207
 2315SOL    HW2 1691   1.934   2.492   3.315
 2316SOL     OW 1692   2.423   2.084   3.009
 2316SOL    HW1 1693   2.461   2.000   3.046
 2316SOL    HW2 1694   2.335   2.103   3.053
 2317SOL     OW 1695   2.879   1.901   2.615
 2317SOL    HW1 1696   2.807   1.906   2.546
 2317SOL    HW2 1697   2.855   1.832   2.684
 2318SOL     OW 1698   3.291   3.035   2.729
 2318SOL    HW1 1699   3.236   2.951   2.722
 2318SOL    HW2 1700   3.317   3.064   2.637
 2319SOL     OW 1701   3.328   2.452   2.854
 2319SOL    HW1 1702   3.298   2.357   2.861
 2319SOL    HW2 1703   3.401   2.468   2.920
 2320SOL     OW 1704   3.719   2.695   2.239
 2320SOL    HW1 1705   3.761   2.631   2.303
 2320SOL    HW2 1706   3.681   2.644   2.161
 2321SOL     OW 1707   2.350   3.247   2.036
 2321SOL    HW1 1708   2.263   3.232   2.083
 2321SOL    HW2 1709   2.333   3.273   1.941
 2322SOL     OW 1710   3.526   3.142   2.519
 2322SOL    HW1 1711   3.625   3.150   2.533
 2322SOL    HW2 1712   3.481   3.226   2.550
 2323SOL     OW 1713   3.252   2.437   1.940
 2323SOL    HW1 1714   3.198   2.416   2.021
 2323SOL    HW2 1715   3.343   2.396   1.949
 2324SOL     OW 1716   3.616   3.085   3.450
 2324SOL    HW1 1717   3.707   3.046   3.437
 2324SOL    HW2 1718   3.624   3.181   3.474
 2325SOL     OW 1719   2.926   3.209   3.202
 2325SOL    HW1 1720   2.846   3.186   3.257
 2325SOL    HW2 1721   3.009   3.183   3.251
 2326SOL     OW 1722   3.454   3.491   3.487
 2326SOL    HW1 1723   3.481   3.525   3.397
 2326SOL    HW2 1724   3.533   3.453   3.533
 2327SOL     OW 1725   2.973   3.057   2.962
 2327SOL    HW1 1726   2.933   3.101   3.043
 2327SOL    HW2 1727   2.932   3.094   2.879
 2328SOL     OW 1728   3.500   2.961   2.941
 2328SOL    HW1 1729   3.505   3.042   3.000
 2328SOL    HW2 1730   3.414   2.963   2.890
 2329SOL     OW 1731   2.777   1.951   3.264
 2329SOL    HW1 1732   2.802   1.931   3.169
 2329SOL    HW2 1733   2.849   2.007   3.306
 2330SOL     OW 1734   2.842   2.978   3.581
 2330SOL    HW1 1735   2.743   2.984   3.591
 2330SOL    HW2 1736   2.865   2.898   3.525
 2331SOL     OW 1737   2.567   2.912   2.230
 2331SOL    HW1 1738   2.553   2.919   2.329
 2331SOL    HW2 1739   2.651   2.861   2.212
 2332SOL     OW 1740   2.272   2.675   3.113
 2332SOL    HW1 1741   2.358   2.687   3.163
 2332SOL    HW2 1742   2.230   2.588   3.140
 2333SOL     OW 1743   3.136   2.248   3.124
 2333SOL    HW1 1744   3.157   2.322   3.188
 2333SOL    HW2 1745   3.047   2.265   3.081
 2334SOL     OW 1746   1.926   3.426   3.193
 2334SOL    HW1 1747   1.880   3.508   3.159
 2334SOL    HW2 1748   2.024   3.445   3.202
 2335SOL     OW 1749   2.229   2.962   2.363
 2335SOL    HW1 1750   2.222   3.045   2.307
 2335SOL    HW2 1751   2.233   2.882   2.303
 2336SOL     OW 1752   3.114   3.210   2.250
 2336SOL    HW1 1753   3.164   3.287   2.290
 2336SOL    HW2 1754   3.019   3.212   2.282
 2337SOL     OW 1755   3.134   3.307   3.004
 2337SOL    HW1 1756   3.181   3.320   3.091
 2337SOL    HW2 1757   3.068   3.233   3.013
 2338SOL     OW 1758   3.444   2.501   2.334
 2338SOL    HW1 1759   3.413   2.562   2.407
 2338SOL    HW2 1760   3.494   2.553   2.265
 2339SOL     OW 1761   2.216   3.372   3.191
 2339SOL    HW1 1762   2.195   3.328   3.104
 2339SOL    HW2 1763   2.313   3.398   3.194
 2340SOL     OW 1764   2.264   2.613   3.460
 2340SOL    HW1 1765   2.332   2.668   3.413
 2340SOL    HW2 1766   2.304   2.525   3.487
 2341SOL     OW 1767   3.449   2.641   3.532
 2341SOL    HW1 1768   3.357   2.679   3.527
 2341SOL    HW2 1769   3.509   2.688   3.467
 2342SOL     OW 1770   2.875   1.967   3.632
 2342SOL    HW1 1771   2.881   2.052   3.580
 2342SOL    HW2 1772   2.907   1.891   3.575
 2343SOL     OW 1773   2.366   1.912   3.602
 2343SOL    HW1 1774   2.324   1.855   3.532
 2343SOL    HW2 1775   2.300   1.981   3.634
 2344SOL     OW 1776   2.435   2.732   2.891
 2344SOL    HW1 1777   2.479   2.821   2.882
 2344SOL    HW2 1778   2.372   2.732   2.968
 2345SOL     OW 1779   3.222   2.724   2.907
 2345SOL    HW1 1780   3.147   2.724   2.841
 2345SOL    HW2 1781   3.259   2.632   2.916
 2346SOL     OW 1782   3.071   2.387   2.137
 2346SOL    HW1 1783   3.084   2.303   2.191
 2346SOL    HW2 1784   3.042   2.461   2.197
 2347SOL     OW 1785   2.169   2.075   3.093
 2347SOL    HW1 1786   2.146   2.112   3.183
 2347SOL    HW2 1787   2.139   1.980   3.087
 2348SOL     OW 1788   1.899   3.172   3.144
 2348SOL    HW1 1789   1.952   3.123   3.212
 2348SOL    HW2 1790   1.921   3.270   3.149
 2349SOL     OW 1791   2.594   2.496   2.926
 2349SOL    HW1 1792   2.653   2.470   2.850
 2349SOL    HW2 1793   2.566   2.592   2.915
 2350SOL     OW 1794   3.590   2.797   3.716
 2350SOL    HW1 1795   3.544   2.790   3.627
 2350SOL    HW2 1796   3.528   2.841   3.782
 2351SOL     OW 1797   2.169   1.925   2.480
 2351SOL    HW1 1798   2.158   2.019   2.513
 2351SOL    HW2 1799   2.164   1.862   2.557
 2352SOL     OW 1800   3.484   2.229   2.236
 2352SOL    HW1 1801   3.486   2.153   2.300
 2352SOL    HW2 1802   3.436   2.306   2.276
 2353SOL     OW 1803   2.885   2.628   2.828
 2353SOL    HW1 1804   2.900   2.649   2.924
 2353SOL    HW2 1805   2.855   2.533   2.819
 2354SOL     OW 1806   2.842   3.435   3.562
 2354SOL    HW1 1807   2.822   3.479   3.474
 2354SOL    HW2 1808   2.881   3.344   3.546
 2356SOL     OW 1809   2.212   2.760   3.666
 2356SOL    HW1 1810   2.288   2.804   3.714
 2356SOL    HW2 1811   2.247   2.713   3.584
 2357SOL     OW 1812   3.402   2.136   1.987
 2357SOL    HW1 1813   3.341   2.061   2.010
 2357SOL    HW2 1814   3.424   2.188   2.070
 2358SOL     OW 1815   3.165   2.700   1.904
 2358SOL    HW1 1816   3.199   2.607   1.919
 2358SOL    HW2 1817   3.183   2.727   1.809
 2359SOL     OW 1818   2.930   3.195   2.711
 2359SOL    HW1 1819   2.937   3.111   2.656
 2359SOL    HW2 1820   2.992   3.264   2.675
 2360SOL     OW 1821   2.181   2.672   2.811
 2360SOL    HW1 1822   2.274   2.708   2.816
 2360SOL    HW2 1823   2.175   2.587   2.863
 2361SOL     OW 1824   3.000   2.242   3.540
 2361SOL    HW1 1825   2.955   2.305   3.604
 2361SOL    HW2 1826   3.093   2.273   3.523
 2362SOL     OW 1827   3.022   2.069   3.339
 2362SOL    HW1 1828   3.022   2.133   3.416
 2362SOL    HW2 1829   3.050   2.117   3.256
 2363SOL     OW 1830   1.870   3.188   2.062
 2363SOL    HW1 1831   1.777   3.209   2.031
 2363SOL    HW2 1832   1.880   3.089   2.075
 2364SOL     OW 1833   1.950   3.663   2.789
 2364SOL    HW1 1834   1.908   3.577   2.762
 2364SOL    HW2 1835   2.044   3.666   2.755
 2365SOL     OW 1836   2.366   3.430   2.772
 2365SOL    HW1 1837   2.432   3.504   2.781
 2365SOL    HW2 1838   2.410   3.351   2.730
 2366SOL     OW 1839   2.864   2.658   3.100
 2366SOL    HW1 1840   2.905   2.626   3.186
 2366SOL    HW2 1841   2.768   2.631   3.097
 2367SOL     OW 1842   1.902   2.406   2.976
 2367SOL    HW1 1843   1.987   2.373   2.935
 2367SOL    HW2 1844   1.915   2.421   3.074
 2368SOL     OW 1845   2.051   2.382   3.584
 2368SOL    HW1 1846   2.110   2.342   3.514
 2368SOL    HW2 1847   1.993   2.453   3.543
 2369SOL     OW 1848   3.231   2.812   3.522
 2369SOL    HW1 1849   3.270   2.901   3.542
 2369SOL    HW2 1850   3.241   2.792   3.425
 2370SOL     OW 1851   2.677   2.434   2.187
 2370SOL    HW1 1852   2.684   2.345   2.141
 2370SOL    HW2 1853   2.583   2.468   2.179
 2371SOL     OW 1854   3.519   2.466   3.068
 2371SOL    HW1 1855   3.481   2.397   3.130
 2371SOL    HW2 1856   3.601   2.430   3.024
 2372SOL     OW 1857   2.114   3.426   3.606
 2372SOL    HW1 1858   2.084   3.483   3.682
 2372SOL    HW2 1859   2.107   3.329   3.632
 2373SOL     OW 1860   2.533   2.326   3.131
 2373SOL    HW1 1861   2.499   2.237   3.101
 2373SOL    HW2 1862   2.559   2.380   3.051
 2374SOL     OW 1863   2.792   3.540   3.327
 2374SOL    HW1 1864   2.768   3.522   3.232
 2374SOL    HW2 1865   2.822   3.634   3.337
 2375SOL     OW 1866   2.021   2.999   3.328
 2375SOL    HW1 1867   2.043   2.938   3.404
 2375SOL    HW2 1868   2.031   2.950   3.242
 2376SOL     OW 1869   3.209   2.921   3.096
 2376SOL    HW1 1870   3.233   2.858   3.022
 2376SOL    HW2 1871   3.119   2.961   3.078
 2377SOL     OW 1872   3.164   2.717   2.171
 2377SOL    HW1 1873   3.078   2.686   2.213
 2377SOL    HW2 1874   3.160   2.703   2.072
 2378SOL     OW 1875   3.621   3.609   3.016
 2378SOL    HW1 1876   3.682   3.639   2.943
 2378SOL    HW2 1877   3.583   3.520   2.994
 2379SOL     OW 1878   3.114   3.593   2.990
 2379SOL    HW1 1879   3.198   3.598   2.936
 2379SOL    HW2 1880   3.091   3.497   3.008
 2380SOL     OW 1881   1.945   3.120   2.884
 2380SOL    HW1 1882   1.940   3.119   2.984
 2380SOL    HW2 1883   1.862   3.079   2.846
 2381SOL     OW 1884   2.550   3.524   3.578
 2381SOL    HW1 1885   2.494   3.605   3.587
 2381SOL    HW2 1886   2.602   3.528   3.492
 2382SOL     OW 1887   3.588   1.997   2.385
 2382SOL    HW1 1888   3.661   1.980   2.318
 2382SOL    HW2 1889   3.557   1.910   2.423
 2383SOL     OW 1890   3.250   3.435   2.339
 2383SOL    HW1 1891   3.317   3.447   2.265
 2383SOL    HW2 1892   3.210   3.524   2.362
 2385SOL     OW 1893   3.142   2.789   2.534
 2385SOL    HW1 1894   3.202   2.708   2.536
 2385SOL    HW2 1895   3.182   2.858   2.474
 2386SOL     OW 1896   2.692   3.135   3.284
 2386SOL    HW1 1897   2.687   3.168   3.379
 2386SOL    HW2 1898   2.606   3.154   3.238
 2387SOL     OW 1899   2.534   3.478   2.016
 2387SOL    HW1 1900   2.543   3.488   1.917
 2387SOL    HW2 1901   2.494   3.389   2.037
 2388SOL     OW 1902   3.512   3.582   3.256
 2388SOL    HW1 1903   3.565   3.592   3.172
 2388SOL    HW2 1904   3.485   3.672   3.290
 2389SOL     OW 1905   3.703   2.037   2.825
 2389SOL    HW1 1906   3.742   1.952   2.789
 2389SOL    HW2 1907   3.605   2.039   2.806
 2390SOL     OW 1908   2.125   2.188   2.582
 2390SOL    HW1 1909   2.046   2.239   2.548
 2390SOL    HW2 1910   2.116   2.173   2.680
 2391SOL     OW 1911   3.056   3.474   1.893
 2391SOL    HW1 1912   3.062   3.381   1.930
 2391SOL    HW2 1913   2.997   3.474   1.813
 2392SOL     OW 1914   2.684   2.864   3.234
 2392SOL    HW1 1915   2.724   2.863   3.142
 2392SOL    HW2 1916   2.694   2.956   3.274
 2393SOL     OW 1917   2.778   2.772   2.153
 2393SOL    HW1 1918   2.841   2.810   2.085
 2393SOL    HW2 1919   2.818   2.689   2.192
 2394SOL     OW 1920   3.366   3.469   1.906
 2394SOL    HW1 1921   3.274   3.506   1.913
 2394SOL    HW2 1922   3.404   3.489   1.816
 2395SOL     OW 1923   2.234   3.150   3.352
 2395SOL    HW1 1924   2.221   3.243   3.318
 2395SOL    HW2 1925   2.150   3.098   3.339
 2396SOL     OW 1926   3.476   3.154   3.151
 2396SOL    HW1 1927   3.536   3.157   3.231
 2396SOL    HW2 1928   3.401   3.218   3.164
 2397SOL     OW 1929   2.901   2.960   2.558
 2397SOL    HW1 1930   2.831   2.913   2.612
 2397SOL    HW2 1931   2.960   2.892   2.515
 2398SOL     OW 1932   2.876   2.098   2.833
 2398SOL    HW1 1933   2.868   2.062   2.740
 2398SOL    HW2 1934   2.874   2.022   2.898
 2399SOL     OW 1935   2.452   3.349   2.353
 2399SOL    HW1 1936   2.494   3.291   2.283
 2399SOL    HW2 1937   2.408   3.428   2.309
 2400SOL     OW 1938   3.571   2.247   3.243
 2400SOL    HW1 1939   3.644   2.316   3.247
 2400SOL    HW2 1940   3.599   2.172   3.184
 2401SOL     OW 1941   2.117   3.210   2.152
 2401SOL    HW1 1942   2.021   3.211   2.125
 2401SOL    HW2 1943   2.129   3.263   2.236
 2402SOL     OW 1944   1.967   2.875   3.588
 2402SOL    HW1 1945   1.890   2.842   3.642
 2402SOL    HW2 1946   2.052   2.845   3.630
 2403SOL     OW 1947   2.534   2.065   3.351
 2403SOL    HW1 1948   2.624   2.049   3.311
 2403SOL    HW2 1949   2.542   2.070   3.450
 2404SOL     OW 1950   1.937   2.207   1.895
 2404SOL    HW1 1951   1.845   2.179   1.866
 2404SOL    HW2 1952   1.968   2.284   1.839
 2405SOL     OW 1953   3.302   2.718   3.260
 2405SOL    HW1 1954   3.245   2.770   3.197
 2405SOL    HW2 1955   3.398   2.730   3.236
 2406SOL     OW 1956   1.934   2.028   2.180
 2406SOL    HW1 1957   1.917   2.111   2.126
 2406SOL    HW2 1958   2.024   1.991   2.158
 2407SOL     OW 1959   3.045   3.197   1.981
 2407SOL    HW1 1960   2.946   3.186   1.983
 2407SOL    HW2 1961   3.079   3.212   2.074
 2408SOL     OW 1962   2.475   2.704   3.293
 2408SOL    HW1 1963   2.531   2.785   3.276
 2408SOL    HW2 1964   2.534   2.624   3.296
 2409SOL     OW 1965   3.355   3.629   2.821
 2409SOL    HW1 1966   3.388   3.693   2.752
 2409SOL    HW2 1967   3.421   3.623   2.896
 2410SOL     OW 1968   2.578   2.427   3.570
 2410SOL    HW1 1969   2.597   2.492   3.644
 2410SOL    HW2 1970   2.638   2.347   3.579
 2411SOL     OW 1971   3.312   3.082   3.495
 2411SOL    HW1 1972   3.303   3.072   3.594
 2411SOL    HW2 1973   3.408   3.075   3.469
 2412SOL     OW 1974   2.252   3.603   3.422
 2412SOL    HW1 1975   2.161   3.644   3.420
 2412SOL    HW2 1976   2.245   3.509   3.454
 2413SOL     OW 1977   3.536   2.745   3.116
 2413SOL    HW1 1978   3.509   2.656   3.079
 2413SOL    HW2 1979   3.537   2.813   3.043
 2414SOL     OW 1980   3.087   2.187   2.311
 2414SOL    HW1 1981   3.152   2.113   2.300
 2414SOL    HW2 1982   3.107   2.237   2.395
 2415SOL     OW 1983   3.639   2.204   3.504
 2415SOL    HW1 1984   3.622   2.235   3.410
 2415SOL    HW2 1985   3.555   2.167   3.542
 2416SOL     OW 1986   3.592   2.796   3.379
 2416SOL    HW1 1987   3.630   2.887   3.394
 2416SOL    HW2 1988   3.584   2.779   3.280
 2417SOL     OW 1989   2.721   3.236   1.878
 2417SOL    HW1 1990   2.675   3.251   1.966
 2417SOL    HW2 1991   2.765   3.321   1.848
 2418SOL     OW 1992   2.523   3.652   2.815
 2418SOL    HW1 1993   2.477   3.740   2.802
 2418SOL    HW2 1994   2.622   3.664   2.808
 2419SOL     OW 1995   2.721   2.818   2.723
 2419SOL    HW1 1996   2.775   2.749   2.771
 2419SOL    HW2 1997   2.689   2.887   2.789
 2420SOL     OW 1998   2.945   2.846   1.949
 2420SOL    HW1 1999   2.922   2.899   1.867
 2420SOL    HW2 2000   3.026   2.790   1.930
 2421SOL     OW 2001   3.723   3.431   2.713
 2421SOL    HW1 2002   3.652   3.419   2.643
 2421SOL    HW2 2003   3.724   3.352   2.773
 2422SOL     OW 2004   2.083   3.176   3.706
 2422SOL    HW1 2005   2.018   3.103   3.685
 2422SOL    HW2 2006   2.087   3.190   3.804
 2423SOL     OW 2007   1.941   3.102   2.515
 2423SOL    HW1 2008   1.940   3.055   2.603
 2423SOL    HW2 2009   2.023   3.074   2.464
 2424SOL     OW 2010   2.534   3.253   3.486
 2424SOL    HW1 2011   2.456   3.203   3.524
 2424SOL    HW2 2012   2.531   3.348   3.517
 2425SOL     OW 2013   3.686   2.054   3.089
 2425SOL    HW1 2014   3.682   1.964   3.133
 2425SOL    HW2 2015   3.689   2.043   2.990
 2426SOL     OW 2016   3.567   3.349   2.966
 2426SOL    HW1 2017   3.474   3.324   2.939
 2426SOL    HW2 2018   3.593   3.299   3.048
 2427SOL     OW 2019   2.179   2.409   3.142
 2427SOL    HW1 2020   2.217   2.350   3.214
 2427SOL    HW2 2021   2.219   2.383   3.054
 2428SOL     OW 2022   2.674   3.448   2.549
 2428SOL    HW1 2023   2.706   3.458   2.455
 2428SOL    HW2 2024   2.595   3.386   2.551
 2429SOL     OW 2025   3.286   2.076   2.974
 2429SOL    HW1 2026   3.338   2.011   3.029
 2429SOL    HW2 2027   3.237   2.139   3.035
 2430SOL     OW 2028   2.863   1.896   3.016
 2430SOL    HW1 2029   2.800   1.824   2.985
 2430SOL    HW2 2030   2.956   1.860   3.016
 2431SOL     OW 2031   2.632   3.192   2.163
 2431SOL    HW1 2032   2.586   3.105   2.180
 2431SOL    HW2 2033   2.723   3.189   2.204
 2432SOL     OW 2034   2.480   3.429   3.146
 2432SOL    HW1 2035   2.475   3.511   3.203
 2432SOL    HW2 2036   2.569   3.426   3.101
 2433SOL     OW 2037   3.214   1.914   2.030
 2433SOL    HW1 2038   3.249   1.873   1.946
 2433SOL    HW2 2039   3.124   1.876   2.050
 2434SOL     OW 2040   3.162   2.315   2.553
 2434SOL    HW1 2041   3.103   2.395   2.557
 2434SOL    HW2 2042   3.177   2.280   2.646
 2435SOL     OW 2043   3.455   2.083   2.744
 2435SOL    HW1 2044   3.371   2.082   2.798
 2435SOL    HW2 2045   3.457   2.166   2.688
 2436SOL     OW 2046   1.901   2.939   2.162
 2436SOL    HW1 2047   2.000   2.928   2.153
 2436SOL    HW2 2048   1.861   2.853   2.194
 2437SOL     OW 2049   2.737   3.508   2.199
 2437SOL    HW1 2050   2.660   3.473   2.145
 2437SOL    HW2 2051   2.705   3.579   2.261
 2438SOL     OW 2052   2.092   2.490   3.837
 2438SOL    HW1 2053   1.999   2.488   3.874
 2438SOL    HW2 2054   2.093   2.451   3.745
 2451SOL     OW 2055   2.468   2.826   3.847
 2451SOL    HW1 2056   2.475   2.910   3.793
 2451SOL    HW2 2057   2.514   2.839   3.935
 2460SOL     OW 2058   3.387   2.861   3.914
 2460SOL    HW1 2059   3.324   2.785   3.927
 2460SOL    HW2 2060   3.435   2.879   4.000
 2463SOL     OW 2061   2.460   2.591   3.994
 2463SOL    HW1 2062   2.484   2.660   3.926
 2463SOL    HW2 2063   2.382   2.624   4.048
 2466SOL     OW 2064   2.903   2.563   4.153
 2466SOL    HW1 2065   2.929   2.559   4.249
 2466SOL    HW2 2066   2.818   2.512   4.139
 2468SOL     OW 2067   2.727   2.210   3.919
 2468SOL    HW1 2068   2.786   2.273   3.870
 2468SOL    HW2 2069   2.746   2.116   3.890
 2474SOL     OW 2070   2.183   2.805   3.966
 2474SOL    HW1 2071   2.265   2.844   3.924
 2474SOL    HW2 2072   2.156   2.723   3.917
 2482SOL     OW 2073   2.244   2.562   4.204
 2482SOL    HW1 2074   2.289   2.472   4.201
 2482SOL    HW2 2075   2.150   2.551   4.237
 2483SOL     OW 2076   2.476   1.984   3.841
 2483SOL    HW1 2077   2.574   1.962   3.848
 2483SOL    HW2 2078   2.445   1.967   3.748
 2487SOL     OW 2079   3.296   3.050   3.765
 2487SOL    HW1 2080   3.328   2.974   3.822
 2487SOL    HW2 2081   3.204   3.077   3.795
 2488SOL     OW 2082   2.159   1.897   3.895
 2488SOL    HW1 2083   2.208   1.981   3.874
 2488SOL    HW2 2084   2.221   1.832   3.940
 2493SOL     OW 2085   2.894   2.411   3.740
 2493SOL    HW1 2086   2.853   2.493   3.701
 2493SOL    HW2 2087   2.958   2.437   3.813
 2499SOL     OW 2088   2.350   3.247   3.898
 2499SOL    HW1 2089   2.263   3.232   3.945
 2499SOL    HW2 2090   2.333   3.273   3.803
 2501SOL     OW 2091   3.252   2.437   3.802
 2501SOL    HW1 2092   3.198   2.416   3.883
 2501SOL    HW2 2093   3.343   2.396   3.811
 2502SOL     OW 2094   2.389   2.118   4.052
 2502SOL    HW1 2095   2.416   2.059   3.977
 2502SOL    HW2 2096   2.389   2.213   4.021
 2505SOL     OW 2097   2.567   2.912   4.092
 2505SOL    HW1 2098   2.553   2.919   4.191
 2505SOL    HW2 2099   2.651   2.861   4.074
 2513SOL     OW 2100   3.071   2.387   3.999
 2513SOL    HW1 2101   3.084   2.303   4.053
 2513SOL    HW2 2102   3.042   2.461   4.059
 2519SOL     OW 2103   3.402   2.136   3.849
 2519SOL    HW1 2104   3.341   2.061   3.872
 2519SOL    HW2 2105   3.424   2.188   3.932
 2520SOL     OW 2106   3.165   2.700   3.766
 2520SOL    HW1 2107   3.199   2.607   3.781
 2520SOL    HW2 2108   3.183   2.727   3.671
 2524SOL     OW 2109   1.870   3.188   3.924
 2524SOL    HW1 2110   1.777   3.209   3.893
 2524SOL    HW2 2111   1.880   3.089   3.937
 2529SOL     OW 2112   2.677   2.434   4.049
 2529SOL    HW1 2113   2.684   2.345   4.003
 2529SOL    HW2 2114   2.583   2.468   4.041
 2531SOL     OW 2115   2.335   2.362   3.915
 2531SOL    HW1 2116   2.396   2.442   3.919
 2531SOL    HW2 2117   2.240   2.393   3.922
 2532SOL     OW 2118   3.164   2.717   4.033
 2532SOL    HW1 2119   3.078   2.686   4.075
 2532SOL    HW2 2120   3.160   2.703   3.934
 2538SOL     OW 2121   2.534   3.478   3.878
 2538SOL    HW1 2122   2.543   3.488   3.779
 2538SOL    HW2 2123   2.494   3.389   3.899
 2541SOL     OW 2124   3.056   3.474   3.755
 2541SOL    HW1 2125   3.062   3.381   3.792
 2541SOL    HW2 2126   2.997   3.474   3.675
 2542SOL     OW 2127   2.778   2.772   4.015
 2542SOL    HW1 2128   2.841   2.810   3.947
 2542SOL    HW2 2129   2.818   2.689   4.054
 2547SOL     OW 2130   2.117   3.210   4.014
 2547SOL    HW1 2131   2.021   3.211   3.987
 2547SOL    HW2 2132   2.129   3.263   4.098
 2548SOL     OW 2133   1.937   2.207   3.757
 2548SOL    HW1 2134   1.845   2.179   3.728
 2548SOL    HW2 2135   1.968   2.284   3.701
 2549SOL     OW 2136   1.934   2.028   4.042
 2549SOL    HW1 2137   1.917   2.111   3.988
 2549SOL    HW2 2138   2.024   1.991   4.020
 2550SOL     OW 2139   3.045   3.197   3.843
 2550SOL    HW1 2140   2.946   3.186   3.845
 2550SOL    HW2 2141   3.079   3.212   3.936
 2555SOL     OW 2142   2.721   3.236   3.740
 2555SOL    HW1 2143   2.675   3.251   3.828
 2555SOL    HW2 2144   2.765   3.321   3.710
 2558SOL     OW 2145   2.945   2.846   3.811
 2558SOL    HW1 2146   2.922   2.899   3.729
 2558SOL    HW2 2147   3.026   2.790   3.792
 2565SOL     OW 2148   2.632   3.192   4.025
 2565SOL    HW1 2149   2.586   3.105   4.042
 2565SOL    HW2 2150   2.723   3.189   4.066
 2566SOL     OW 2151   3.214   1.914   3.892
 2566SOL    HW1 2152   3.249   1.873   3.808
 2566SOL    HW2 2153   3.124   1.876   3.912
 2569SOL     OW 2154   1.901   2.939   4.024
 2569SOL    HW1 2155   2.000   2.928   4.015
 2569SOL    HW2 2156   1.861   2.853   4.056
 2592SOL     OW 2157   2.179   3.975   1.801
 2592SOL    HW1 2158   2.250   4.046   1.807
 2592SOL    HW2 2159   2.091   4.014   1.829
 2612SOL     OW 2160   2.643   3.988   1.749
 2612SOL    HW1 2161   2.710   3.927   1.792
 2612SOL    HW2 2162   2.570   4.007   1.814
 2631SOL     OW 2163   2.777   3.813   1.402
 2631SOL    HW1 2164   2.802   3.793   1.307
 2631SOL    HW2 2165   2.849   3.869   1.444
 2640SOL     OW 2166   2.875   3.829   1.770
 2640SOL    HW1 2167   2.881   3.914   1.718
 2640SOL    HW2 2168   2.907   3.753   1.713
 2641SOL     OW 2169   2.366   3.774   1.740
 2641SOL    HW1 2170   2.324   3.717   1.670
 2641SOL    HW2 2171   2.300   3.843   1.772
 2680SOL     OW 2172   2.534   3.927   1.489
 2680SOL    HW1 2173   2.624   3.911   1.449
 2680SOL    HW2 2174   2.542   3.932   1.588
 2704SOL     OW 2175   2.087   3.999   2.858
 2704SOL    HW1 2176   2.122   3.982   2.950
 2704SOL    HW2 2177   1.999   3.954   2.846
 2705SOL     OW 2178   1.881   4.092   2.509
 2705SOL    HW1 2179   1.799   4.135   2.548
 2705SOL    HW2 2180   1.853   4.019   2.446
 2721SOL     OW 2181   2.671   3.728   2.364
 2721SOL    HW1 2182   2.711   3.819   2.355
 2721SOL    HW2 2183   2.571   3.736   2.370
 2726SOL     OW 2184   3.143   4.069   2.806
 2726SOL    HW1 2185   3.057   4.019   2.793
 2726SOL    HW2 2186   3.205   4.015   2.862
 2733SOL     OW 2187   2.727   4.072   2.057
 2733SOL    HW1 2188   2.786   4.135   2.008
 2733SOL    HW2 2189   2.746   3.978   2.028
 2735SOL     OW 2190   2.412   3.920   2.747
 2735SOL    HW1 2191   2.407   3.915   2.847
 2735SOL    HW2 2192   2.414   4.016   2.718
 2740SOL     OW 2193   3.262   3.831   2.288
 2740SOL    HW1 2194   3.238   3.794   2.198
 2740SOL    HW2 2195   3.361   3.847   2.292
 2743SOL     OW 2196   2.476   3.846   1.979
 2743SOL    HW1 2197   2.574   3.824   1.986
 2743SOL    HW2 2198   2.445   3.829   1.886
 2747SOL     OW 2199   2.401   3.788   2.374
 2747SOL    HW1 2200   2.320   3.789   2.432
 2747SOL    HW2 2201   2.404   3.871   2.319
 2748SOL     OW 2202   2.159   3.759   2.033
 2748SOL    HW1 2203   2.208   3.843   2.012
 2748SOL    HW2 2204   2.221   3.694   2.078
 2749SOL     OW 2205   2.797   3.960   2.342
 2749SOL    HW1 2206   2.749   4.001   2.264
 2749SOL    HW2 2207   2.896   3.958   2.323
 2754SOL     OW 2208   2.423   3.946   3.009
 2754SOL    HW1 2209   2.461   3.862   3.046
 2754SOL    HW2 2210   2.335   3.965   3.053
 2755SOL     OW 2211   2.728   4.178   2.504
 2755SOL    HW1 2212   2.696   4.250   2.442
 2755SOL    HW2 2213   2.752   4.097   2.451
 2756SOL     OW 2214   2.879   3.763   2.615
 2756SOL    HW1 2215   2.807   3.768   2.546
 2756SOL    HW2 2216   2.855   3.694   2.684
 2761SOL     OW 2217   2.389   3.980   2.190
 2761SOL    HW1 2218   2.416   3.921   2.115
 2761SOL    HW2 2219   2.389   4.075   2.159
 2764SOL     OW 2220   2.777   3.813   3.264
 2764SOL    HW1 2221   2.802   3.793   3.169
 2764SOL    HW2 2222   2.849   3.869   3.306
 2774SOL     OW 2223   2.366   3.774   3.602
 2774SOL    HW1 2224   2.324   3.717   3.532
 2774SOL    HW2 2225   2.300   3.843   3.634
 2778SOL     OW 2226   2.169   3.937   3.093
 2778SOL    HW1 2227   2.146   3.974   3.183
 2778SOL    HW2 2228   2.139   3.842   3.087
 2781SOL     OW 2229   2.169   3.787   2.480
 2781SOL    HW1 2230   2.158   3.881   2.513
 2781SOL    HW2 2231   2.164   3.724   2.557
 2805SOL     OW 2232   2.125   4.050   2.582
 2805SOL    HW1 2233   2.046   4.101   2.548
 2805SOL    HW2 2234   2.116   4.035   2.680
 2809SOL     OW 2235   2.876   3.960   2.833
 2809SOL    HW1 2236   2.868   3.924   2.740
 2809SOL    HW2 2237   2.874   3.884   2.898
 2812SOL     OW 2238   2.534   3.927   3.351
 2812SOL    HW1 2239   2.624   3.911   3.311
 2812SOL    HW2 2240   2.542   3.932   3.450
 2813SOL     OW 2241   1.937   4.069   1.895
 2813SOL    HW1 2242   1.845   4.041   1.866
 2813SOL    HW2 2243   1.968   4.146   1.839
 2815SOL     OW 2244   1.934   3.890   2.180
 2815SOL    HW1 2245   1.917   3.973   2.126
 2815SOL    HW2 2246   2.024   3.853   2.158
 2820SOL     OW 2247   3.087   4.049   2.311
 2820SOL    HW1 2248   3.152   3.975   2.300
 2820SOL    HW2 2249   3.107   4.099   2.395
 2827SOL     OW 2250   2.290   4.148   2.382
 2827SOL    HW1 2251   2.320   4.076   2.320
 2827SOL    HW2 2252   2.251   4.108   2.465
 2829SOL     OW 2253   3.286   3.938   2.974
 2829SOL    HW1 2254   3.338   3.873   3.029
 2829SOL    HW2 2255   3.237   4.001   3.035
 2830SOL     OW 2256   2.863   3.758   3.016
 2830SOL    HW1 2257   2.800   3.686   2.985
 2830SOL    HW2 2258   2.956   3.722   3.016
 2832SOL     OW 2259   3.214   3.776   2.030
 2832SOL    HW1 2260   3.249   3.735   1.946
 2832SOL    HW2 2261   3.124   3.738   2.050
 2951SOL     OW 2262   3.854   1.821   1.571
 2951SOL    HW1 2263   3.844   1.806   1.670
 2951SOL    HW2 2264   3.768   1.857   1.535
 3022SOL     OW 2265   3.854   1.794   1.851
 3022SOL    HW1 2266   3.813   1.720   1.904
 3022SOL    HW2 2267   3.918   1.845   1.909
 3065SOL     OW 2268   3.955   1.713   2.345
 3065SOL    HW1 2269   3.989   1.790   2.399
 3065SOL    HW2 2270   3.999   1.713   2.255
 3072SOL     OW 2271   3.751   1.596   1.979
 3072SOL    HW1 2272   3.732   1.500   2.000
 3072SOL    HW2 2273   3.718   1.654   2.054
 3088SOL     OW 2274   4.075   1.801   2.715
 3088SOL    HW1 2275   4.125   1.715   2.721
 3088SOL    HW2 2276   4.140   1.878   2.712
 3093SOL     OW 2277   3.973   1.785   3.103
 3093SOL    HW1 2278   4.030   1.720   3.153
 3093SOL    HW2 2279   3.957   1.752   3.010
 3118SOL     OW 2280   3.788   1.564   3.193
 3118SOL    HW1 2281   3.742   1.646   3.159
 3118SOL    HW2 2282   3.886   1.583   3.202
 3138SOL     OW 2283   3.732   1.326   2.062
 3138SOL    HW1 2284   3.639   1.347   2.031
 3138SOL    HW2 2285   3.742   1.227   2.075
 3139SOL     OW 2286   3.812   1.801   2.789
 3139SOL    HW1 2287   3.770   1.715   2.762
 3139SOL    HW2 2288   3.906   1.804   2.755
 3289SOL     OW 2289   3.837   2.599   1.597
 3289SOL    HW1 2290   3.925   2.586   1.642
 3289SOL    HW2 2291   3.824   2.696   1.575
 3293SOL     OW 2292   4.041   2.113   1.801
 3293SOL    HW1 2293   4.112   2.184   1.807
 3293SOL    HW2 2294   3.953   2.152   1.829
 3307SOL     OW 2295   3.926   2.147   1.498
 3307SOL    HW1 2296   3.846   2.207   1.485
 3307SOL    HW2 2297   3.916   2.098   1.584
 3324SOL     OW 2298   3.802   2.418   1.386
 3324SOL    HW1 2299   3.894   2.417   1.345
 3324SOL    HW2 2300   3.796   2.492   1.453
 3349SOL     OW 2301   4.074   2.760   1.804
 3349SOL    HW1 2302   4.150   2.804   1.852
 3349SOL    HW2 2303   4.109   2.713   1.722
 3360SOL     OW 2304   3.913   2.382   1.722
 3360SOL    HW1 2305   3.972   2.342   1.652
 3360SOL    HW2 2306   3.855   2.453   1.681
 3382SOL     OW 2307   3.829   2.875   1.726
 3382SOL    HW1 2308   3.752   2.842   1.780
 3382SOL    HW2 2309   3.914   2.845   1.768
 3393SOL     OW 2310   3.945   3.176   1.844
 3393SOL    HW1 2311   3.880   3.103   1.823
 3393SOL    HW2 2312   3.949   3.190   1.942
 3404SOL     OW 2313   3.954   2.490   1.975
 3404SOL    HW1 2314   3.861   2.488   2.012
 3404SOL    HW2 2315   3.955   2.451   1.883
 3405SOL     OW 2316   3.949   2.137   2.858
 3405SOL    HW1 2317   3.984   2.120   2.950
 3405SOL    HW2 2318   3.861   2.092   2.846
 3406SOL     OW 2319   3.743   2.230   2.509
 3406SOL    HW1 2320   3.661   2.273   2.548
 3406SOL    HW2 2321   3.715   2.157   2.446
 3416SOL     OW 2322   3.954   3.296   2.400
 3416SOL    HW1 2323   3.928   3.392   2.400
 3416SOL    HW2 2324   3.883   3.242   2.445
 3417SOL     OW 2325   3.964   2.953   2.748
 3417SOL    HW1 2326   3.978   2.869   2.800
 3417SOL    HW2 2327   3.909   3.017   2.803
 3420SOL     OW 2328   3.846   2.505   2.425
 3420SOL    HW1 2329   3.801   2.417   2.442
 3420SOL    HW2 2330   3.845   2.559   2.509
 3421SOL     OW 2331   3.751   3.458   1.979
 3421SOL    HW1 2332   3.732   3.362   2.000
 3421SOL    HW2 2333   3.718   3.516   2.054
 3422SOL     OW 2334   3.837   2.599   3.459
 3422SOL    HW1 2335   3.925   2.586   3.504
 3422SOL    HW2 2336   3.824   2.696   3.437
 3425SOL     OW 2337   3.921   2.838   3.126
 3425SOL    HW1 2338   4.010   2.793   3.112
 3425SOL    HW2 2339   3.848   2.773   3.107
 3432SOL     OW 2340   3.800   2.673   2.651
 3432SOL    HW1 2341   3.899   2.661   2.660
 3432SOL    HW2 2342   3.776   2.768   2.672
 3438SOL     OW 2343   4.045   2.805   2.104
 3438SOL    HW1 2344   4.127   2.844   2.062
 3438SOL    HW2 2345   4.018   2.723   2.055
 3440SOL     OW 2346   3.926   2.147   3.360
 3440SOL    HW1 2347   3.846   2.207   3.347
 3440SOL    HW2 2348   3.916   2.098   3.446
 3444SOL     OW 2349   4.106   2.562   2.342
 3444SOL    HW1 2350   4.151   2.472   2.339
 3444SOL    HW2 2351   4.012   2.551   2.375
 3451SOL     OW 2352   4.021   1.897   2.033
 3451SOL    HW1 2353   4.070   1.981   2.012
 3451SOL    HW2 2354   4.083   1.832   2.078
 3457SOL     OW 2355   3.802   2.418   3.248
 3457SOL    HW1 2356   3.894   2.417   3.207
 3457SOL    HW2 2357   3.796   2.492   3.315
 3468SOL     OW 2358   4.091   2.962   2.363
 3468SOL    HW1 2359   4.084   3.045   2.307
 3468SOL    HW2 2360   4.095   2.882   2.303
 3476SOL     OW 2361   4.031   2.075   3.093
 3476SOL    HW1 2362   4.008   2.112   3.183
 3476SOL    HW2 2363   4.001   1.980   3.087
 3477SOL     OW 2364   3.761   3.172   3.144
 3477SOL    HW1 2365   3.814   3.123   3.212
 3477SOL    HW2 2366   3.783   3.270   3.149
 3479SOL     OW 2367   4.031   1.925   2.480
 3479SOL    HW1 2368   4.020   2.019   2.513
 3479SOL    HW2 2369   4.026   1.862   2.557
 3484SOL     OW 2370   4.043   2.672   2.811
 3484SOL    HW1 2371   4.136   2.708   2.816
 3484SOL    HW2 2372   4.037   2.587   2.863
 3485SOL     OW 2373   4.063   2.371   2.868
 3485SOL    HW1 2374   4.011   2.288   2.851
 3485SOL    HW2 2375   4.140   2.376   2.804
 3488SOL     OW 2376   3.732   3.188   2.062
 3488SOL    HW1 2377   3.639   3.209   2.031
 3488SOL    HW2 2378   3.742   3.089   2.075
 3492SOL     OW 2379   3.764   2.406   2.976
 3492SOL    HW1 2380   3.849   2.373   2.935
 3492SOL    HW2 2381   3.777   2.421   3.074
 3498SOL     OW 2382   4.197   2.362   2.053
 3498SOL    HW1 2383   4.258   2.442   2.057
 3498SOL    HW2 2384   4.102   2.393   2.060
 3499SOL     OW 2385   3.883   2.999   3.328
 3499SOL    HW1 2386   3.905   2.938   3.404
 3499SOL    HW2 2387   3.893   2.950   3.242
 3501SOL     OW 2388   3.807   3.120   2.884
 3501SOL    HW1 2389   3.802   3.119   2.984
 3501SOL    HW2 2390   3.724   3.079   2.846
 3506SOL     OW 2391   3.987   2.188   2.582
 3506SOL    HW1 2392   3.908   2.239   2.548
 3506SOL    HW2 2393   3.978   2.173   2.680
 3513SOL     OW 2394   3.979   3.210   2.152
 3513SOL    HW1 2395   3.883   3.211   2.125
 3513SOL    HW2 2396   3.991   3.263   2.236
 3516SOL     OW 2397   3.799   2.207   1.895
 3516SOL    HW1 2398   3.707   2.179   1.866
 3516SOL    HW2 2399   3.830   2.284   1.839
 3517SOL     OW 2400   3.796   2.028   2.180
 3517SOL    HW1 2401   3.779   2.111   2.126
 3517SOL    HW2 2402   3.886   1.991   2.158
 3527SOL     OW 2403   3.803   3.102   2.515
 3527SOL    HW1 2404   3.802   3.055   2.603
 3527SOL    HW2 2405   3.885   3.074   2.464
 3529SOL     OW 2406   4.152   2.286   2.382
 3529SOL    HW1 2407   4.182   2.214   2.320
 3529SOL    HW2 2408   4.113   2.246   2.465
 3530SOL     OW 2409   4.041   2.409   3.142
 3530SOL    HW1 2410   4.079   2.350   3.214
 3530SOL    HW2 2411   4.081   2.383   3.054
 3535SOL     OW 2412   3.763   2.939   2.162
 3535SOL    HW1 2413   3.862   2.928   2.153
 3535SOL    HW2 2414   3.723   2.853   2.194
   4.90606   4.90606   4.90606
