; mobley_4613090_GMX.itp created by acpype (v: 2023.10.27) on Wed May 20 23:41:34 2026

[ atomtypes ]
;name   bond_type     mass     charge   ptype   sigma         epsilon       Amb
 ca       ca          0.00000  0.00000   A     3.31521e-01   4.13379e-01 ; 1.86  0.0988
 cc       cc          0.00000  0.00000   A     3.31521e-01   4.13379e-01 ; 1.86  0.0988
 cd       cd          0.00000  0.00000   A     3.31521e-01   4.13379e-01 ; 1.86  0.0988
 c3       c3          0.00000  0.00000   A     3.39771e-01   4.51035e-01 ; 1.91  0.1078
 nc       nc          0.00000  0.00000   A     3.38417e-01   3.93714e-01 ; 1.90  0.0941
 na       na          0.00000  0.00000   A     3.20581e-01   8.54373e-01 ; 1.80  0.2042
 ha       ha          0.00000  0.00000   A     2.62548e-01   6.73624e-02 ; 1.47  0.0161
 h4       h4          0.00000  0.00000   A     2.53639e-01   6.73624e-02 ; 1.42  0.0161
 h5       h5          0.00000  0.00000   A     2.44730e-01   6.73624e-02 ; 1.37  0.0161
 h1       h1          0.00000  0.00000   A     2.42200e-01   8.70272e-02 ; 1.36  0.0208

[ moleculetype ]
;name            nrexcl
 mobley_4613090   3

[ atoms ]
;   nr  type  resi  res  atom  cgnr     charge      mass       ; qtot   bond_type
     1   ca     1   MOL    C1    1    -0.120000     12.01000 ; qtot -0.120
     2   ca     1   MOL    C2    2    -0.128000     12.01000 ; qtot -0.248
     3   ca     1   MOL    C3    3    -0.128000     12.01000 ; qtot -0.376
     4   ca     1   MOL    C4    4    -0.113500     12.01000 ; qtot -0.489
     5   ca     1   MOL    C5    5    -0.113500     12.01000 ; qtot -0.603
     6   cc     1   MOL    C6    6     0.291200     12.01000 ; qtot -0.312
     7   cd     1   MOL    C7    7    -0.261600     12.01000 ; qtot -0.573
     8   cd     1   MOL    C8    8     0.394400     12.01000 ; qtot -0.179
     9   ca     1   MOL    C9    9    -0.118300     12.01000 ; qtot -0.297
    10   c3     1   MOL   C10   10     0.088600     12.01000 ; qtot -0.209
    11   nc     1   MOL    N1   11    -0.668000     14.01000 ; qtot -0.877
    12   na     1   MOL    N2   12    -0.207900     14.01000 ; qtot -1.085
    13   ha     1   MOL    H1   13     0.135000      1.00800 ; qtot -0.950
    14   ha     1   MOL    H2   14     0.135500      1.00800 ; qtot -0.814
    15   ha     1   MOL    H3   15     0.135500      1.00800 ; qtot -0.679
    16   ha     1   MOL    H4   16     0.135000      1.00800 ; qtot -0.544
    17   ha     1   MOL    H5   17     0.135000      1.00800 ; qtot -0.409
    18   h4     1   MOL    H6   18     0.041100      1.00800 ; qtot -0.367
    19   h4     1   MOL    H7   19     0.174000      1.00800 ; qtot -0.193
    20   h5     1   MOL    H8   20     0.060100      1.00800 ; qtot -0.133
    21   h1     1   MOL    H9   21     0.066700      1.00800 ; qtot -0.067
    22   h1     1   MOL   H10   22     0.066700      1.00800 ; qtot 0.000

[ bonds ]
;   ai     aj funct   r             k
     1      2   1    1.3986e-01    2.9644e+05 ;     C1 - C2    
     1      3   1    1.3986e-01    2.9644e+05 ;     C1 - C3    
     1     13   1    1.0860e-01    3.0183e+05 ;     C1 - H1    
     2      4   1    1.3986e-01    2.9644e+05 ;     C2 - C4    
     2     14   1    1.0860e-01    3.0183e+05 ;     C2 - H2    
     3      5   1    1.3986e-01    2.9644e+05 ;     C3 - C5    
     3     15   1    1.0860e-01    3.0183e+05 ;     C3 - H3    
     4      9   1    1.3986e-01    2.9644e+05 ;     C4 - C9    
     4     16   1    1.0860e-01    3.0183e+05 ;     C4 - H4    
     5      9   1    1.3986e-01    2.9644e+05 ;     C5 - C9    
     5     17   1    1.0860e-01    3.0183e+05 ;     C5 - H5    
     6      7   1    1.3730e-01    3.2321e+05 ;     C6 - C7    
     6     11   1    1.3629e-01    2.9793e+05 ;     C6 - N1    
     6     18   1    1.0809e-01    3.0854e+05 ;     C6 - H6    
     7     12   1    1.3830e-01    2.7819e+05 ;     C7 - N2    
     7     19   1    1.0818e-01    3.0735e+05 ;     C7 - H7    
     8     11   1    1.3171e-01    3.4961e+05 ;     C8 - N1    
     8     12   1    1.3830e-01    2.7819e+05 ;     C8 - N2    
     8     20   1    1.0821e-01    3.0695e+05 ;     C8 - H8    
     9     10   1    1.5147e-01    2.0410e+05 ;     C9 - C10   
    10     12   1    1.4639e-01    2.1321e+05 ;    C10 - N2    
    10     21   1    1.0969e-01    2.8804e+05 ;    C10 - H9    
    10     22   1    1.0969e-01    2.8804e+05 ;    C10 - H10   

[ pairs ]
;   ai     aj    funct
     1      9      1 ;     C1 - C9    
     1     16      1 ;     C1 - H4    
     1     17      1 ;     C1 - H5    
     2      5      1 ;     C2 - C5    
     2     10      1 ;     C2 - C10   
     2     15      1 ;     C2 - H3    
     3      4      1 ;     C3 - C4    
     3     10      1 ;     C3 - C10   
     3     14      1 ;     C3 - H2    
     4     12      1 ;     C4 - N2    
     4     17      1 ;     C4 - H5    
     4     21      1 ;     C4 - H9    
     4     22      1 ;     C4 - H10   
     5     12      1 ;     C5 - N2    
     5     16      1 ;     C5 - H4    
     5     21      1 ;     C5 - H9    
     5     22      1 ;     C5 - H10   
     6     10      1 ;     C6 - C10   
     6     20      1 ;     C6 - H8    
     7      9      1 ;     C7 - C9    
     7     20      1 ;     C7 - H8    
     7     21      1 ;     C7 - H9    
     7     22      1 ;     C7 - H10   
     8      9      1 ;     C8 - C9    
     8     18      1 ;     C8 - H6    
     8     19      1 ;     C8 - H7    
     8     21      1 ;     C8 - H9    
     8     22      1 ;     C8 - H10   
     9     14      1 ;     C9 - H2    
     9     15      1 ;     C9 - H3    
    10     11      1 ;    C10 - N1    
    10     16      1 ;    C10 - H4    
    10     17      1 ;    C10 - H5    
    10     19      1 ;    C10 - H7    
    10     20      1 ;    C10 - H8    
    11     19      1 ;     N1 - H7    
    12     18      1 ;     N2 - H6    
    13      4      1 ;     H1 - C4    
    13      5      1 ;     H1 - C5    
    13     14      1 ;     H1 - H2    
    13     15      1 ;     H1 - H3    
    14     16      1 ;     H2 - H4    
    15     17      1 ;     H3 - H5    
    18     19      1 ;     H6 - H7    

[ angles ]
;   ai     aj     ak    funct   theta         cth
     1      2      4      1    1.2002e+02    5.3279e+02 ;     C1 - C2     - C4    
     1      2     14      1    1.1988e+02    3.7572e+02 ;     C1 - C2     - H2    
     1      3      5      1    1.2002e+02    5.3279e+02 ;     C1 - C3     - C5    
     1      3     15      1    1.1988e+02    3.7572e+02 ;     C1 - C3     - H3    
     2      1      3      1    1.2002e+02    5.3279e+02 ;     C2 - C1     - C3    
     2      1     13      1    1.1988e+02    3.7572e+02 ;     C2 - C1     - H1    
     2      4      9      1    1.2002e+02    5.3279e+02 ;     C2 - C4     - C9    
     2      4     16      1    1.1988e+02    3.7572e+02 ;     C2 - C4     - H4    
     3      1     13      1    1.1988e+02    3.7572e+02 ;     C3 - C1     - H1    
     3      5      9      1    1.2002e+02    5.3279e+02 ;     C3 - C5     - C9    
     3      5     17      1    1.1988e+02    3.7572e+02 ;     C3 - C5     - H5    
     4      2     14      1    1.1988e+02    3.7572e+02 ;     C4 - C2     - H2    
     4      9      5      1    1.2002e+02    5.3279e+02 ;     C4 - C9     - C5    
     4      9     10      1    1.2083e+02    5.0827e+02 ;     C4 - C9     - C10   
     5      3     15      1    1.1988e+02    3.7572e+02 ;     C5 - C3     - H3    
     5      9     10      1    1.2083e+02    5.0827e+02 ;     C5 - C9     - C10   
     6      7     12      1    1.0899e+02    6.0241e+02 ;     C6 - C7     - N2    
     6      7     19      1    1.2764e+02    3.6987e+02 ;     C6 - C7     - H7    
     6     11      8      1    1.0915e+02    7.2032e+02 ;     C6 - N1     - C8    
     7      6     11      1    1.1799e+02    5.8325e+02 ;     C7 - C6     - N1    
     7      6     18      1    1.2911e+02    3.6777e+02 ;     C7 - C6     - H6    
     7     12      8      1    1.1090e+02    6.9279e+02 ;     C7 - N2     - C8    
     7     12     10      1    1.2550e+02    6.3170e+02 ;     C7 - N2     - C10   
     8     12     10      1    1.2550e+02    6.3170e+02 ;     C8 - N2     - C10   
     9      4     16      1    1.1988e+02    3.7572e+02 ;     C9 - C4     - H4    
     9      5     17      1    1.1988e+02    3.7572e+02 ;     C9 - C5     - H5    
     9     10     12      1    1.1310e+02    5.4685e+02 ;     C9 - C10    - N2    
     9     10     21      1    1.0960e+02    3.6660e+02 ;     C9 - C10    - H9    
     9     10     22      1    1.0960e+02    3.6660e+02 ;     C9 - C10    - H10   
    11      6     18      1    1.2076e+02    4.0610e+02 ;     N1 - C6     - H6    
    11      8     12      1    1.1302e+02    6.4024e+02 ;     N1 - C8     - N2    
    11      8     20      1    1.2529e+02    4.0911e+02 ;     N1 - C8     - H8    
    12      7     19      1    1.2017e+02    4.0233e+02 ;     N2 - C7     - H7    
    12      8     20      1    1.2083e+02    4.0116e+02 ;     N2 - C8     - H8    
    12     10     21      1    1.0876e+02    4.0250e+02 ;     N2 - C10    - H9    
    12     10     22      1    1.0876e+02    4.0250e+02 ;     N2 - C10    - H10   
    21     10     22      1    1.0855e+02    2.9824e+02 ;     H9 - C10    - H10   

[ dihedrals ] ; propers
; for gromacs 4.5 or higher, using funct 9
;    i      j      k      l   func   phase     kd      pn
     1      2      4      9      9   180.00  15.16700   2 ;     C1-    C2-    C4-    C9
     1      2      4     16      9   180.00  15.16700   2 ;     C1-    C2-    C4-    H4
     1      3      5      9      9   180.00  15.16700   2 ;     C1-    C3-    C5-    C9
     1      3      5     17      9   180.00  15.16700   2 ;     C1-    C3-    C5-    H5
     2      1      3      5      9   180.00  15.16700   2 ;     C2-    C1-    C3-    C5
     2      1      3     15      9   180.00  15.16700   2 ;     C2-    C1-    C3-    H3
     2      4      9      5      9   180.00  15.16700   2 ;     C2-    C4-    C9-    C5
     2      4      9     10      9   180.00  15.16700   2 ;     C2-    C4-    C9-   C10
     3      1      2      4      9   180.00  15.16700   2 ;     C3-    C1-    C2-    C4
     3      1      2     14      9   180.00  15.16700   2 ;     C3-    C1-    C2-    H2
     3      5      9      4      9   180.00  15.16700   2 ;     C3-    C5-    C9-    C4
     3      5      9     10      9   180.00  15.16700   2 ;     C3-    C5-    C9-   C10
     4      9      5     17      9   180.00  15.16700   2 ;     C4-    C9-    C5-    H5
     4      9     10     12      9   180.00   1.23428   2 ;     C4-    C9-   C10-    N2
     4      9     10     21      9     0.00   0.00000   0 ;     C4-    C9-   C10-    H9
     4      9     10     22      9     0.00   0.00000   0 ;     C4-    C9-   C10-   H10
     5      9      4     16      9   180.00  15.16700   2 ;     C5-    C9-    C4-    H4
     5      9     10     12      9   180.00   1.23428   2 ;     C5-    C9-   C10-    N2
     5      9     10     21      9     0.00   0.00000   0 ;     C5-    C9-   C10-    H9
     5      9     10     22      9     0.00   0.00000   0 ;     C5-    C9-   C10-   H10
     6      7     12      8      9   180.00   7.11280   2 ;     C6-    C7-    N2-    C8
     6      7     12     10      9   180.00   7.11280   2 ;     C6-    C7-    N2-   C10
     6     11      8     12      9   180.00  19.87400   2 ;     C6-    N1-    C8-    N2
     6     11      8     20      9   180.00  19.87400   2 ;     C6-    N1-    C8-    H8
     7      6     11      8      9   180.00  19.87400   2 ;     C7-    C6-    N1-    C8
     7     12      8     11      9   180.00   7.11280   2 ;     C7-    N2-    C8-    N1
     7     12      8     20      9   180.00   7.11280   2 ;     C7-    N2-    C8-    H8
     7     12     10      9      9     0.00   0.00000   0 ;     C7-    N2-   C10-    C9
     7     12     10     21      9     0.00   0.00000   0 ;     C7-    N2-   C10-    H9
     7     12     10     22      9     0.00   0.00000   0 ;     C7-    N2-   C10-   H10
     8     11      6     18      9   180.00  19.87400   2 ;     C8-    N1-    C6-    H6
     8     12      7     19      9   180.00   7.11280   2 ;     C8-    N2-    C7-    H7
     8     12     10      9      9     0.00   0.00000   0 ;     C8-    N2-   C10-    C9
     8     12     10     21      9     0.00   0.00000   0 ;     C8-    N2-   C10-    H9
     8     12     10     22      9     0.00   0.00000   0 ;     C8-    N2-   C10-   H10
     9      4      2     14      9   180.00  15.16700   2 ;     C9-    C4-    C2-    H2
     9      5      3     15      9   180.00  15.16700   2 ;     C9-    C5-    C3-    H3
    10      9      4     16      9   180.00  15.16700   2 ;    C10-    C9-    C4-    H4
    10      9      5     17      9   180.00  15.16700   2 ;    C10-    C9-    C5-    H5
    10     12      7     19      9   180.00   7.11280   2 ;    C10-    N2-    C7-    H7
    10     12      8     11      9   180.00   7.11280   2 ;    C10-    N2-    C8-    N1
    10     12      8     20      9   180.00   7.11280   2 ;    C10-    N2-    C8-    H8
    11      6      7     12      9   180.00  16.73600   2 ;     N1-    C6-    C7-    N2
    11      6      7     19      9   180.00  16.73600   2 ;     N1-    C6-    C7-    H7
    12      7      6     18      9   180.00  16.73600   2 ;     N2-    C7-    C6-    H6
    13      1      2      4      9   180.00  15.16700   2 ;     H1-    C1-    C2-    C4
    13      1      2     14      9   180.00  15.16700   2 ;     H1-    C1-    C2-    H2
    13      1      3      5      9   180.00  15.16700   2 ;     H1-    C1-    C3-    C5
    13      1      3     15      9   180.00  15.16700   2 ;     H1-    C1-    C3-    H3
    14      2      4     16      9   180.00  15.16700   2 ;     H2-    C2-    C4-    H4
    15      3      5     17      9   180.00  15.16700   2 ;     H3-    C3-    C5-    H5
    18      6      7     19      9   180.00  16.73600   2 ;     H6-    C6-    C7-    H7

[ dihedrals ] ; impropers
; treated as propers in GROMACS to use correct AMBER analytical function
;    i      j      k      l   func   phase     kd      pn
     1      4      2     14      4   180.00   4.60240   2 ;     C1-    C4-    C2-    H2
     1      5      3     15      4   180.00   4.60240   2 ;     C1-    C5-    C3-    H3
     2      9      4     16      4   180.00   4.60240   2 ;     C2-    C9-    C4-    H4
     3      9      5     17      4   180.00   4.60240   2 ;     C3-    C9-    C5-    H5
     4      5      9     10      4   180.00   4.60240   2 ;     C4-    C5-    C9-   C10
     6     19      7     12      4   180.00   4.60240   2 ;     C6-    H7-    C7-    N2
     7     18      6     11      4   180.00   4.60240   2 ;     C7-    H6-    C6-    N1
    10      7     12      8      4   180.00   4.60240   2 ;    C10-    C7-    N2-    C8
    13      1      3      2      4   180.00   4.60240   2 ;     H1-    C1-    C3-    C2
    20     12      8     11      4   180.00   4.60240   2 ;     H8-    N2-    C8-    N1
