; mobley_2123854_GMX.itp created by acpype (v: 2023.10.27) on Wed May 20 23:43:44 2026

[ atomtypes ]
;name   bond_type     mass     charge   ptype   sigma         epsilon       Amb
 cg       cg          0.00000  0.00000   A     3.47896e-01   6.67766e-01 ; 1.95  0.1596
 ca       ca          0.00000  0.00000   A     3.31521e-01   4.13379e-01 ; 1.86  0.0988
 n1       n1          0.00000  0.00000   A     3.27352e-01   4.59403e-01 ; 1.84  0.1098
 oh       oh          0.00000  0.00000   A     3.24287e-01   3.89112e-01 ; 1.82  0.0930
 ha       ha          0.00000  0.00000   A     2.62548e-01   6.73624e-02 ; 1.47  0.0161
 ho       ho          0.00000  0.00000   A     5.37925e-02   1.96648e-02 ; 0.30  0.0047

[ moleculetype ]
;name            nrexcl
 mobley_2123854   3

[ atoms ]
;   nr  type  resi  res  atom  cgnr     charge      mass       ; qtot   bond_type
     1   cg     1   MOL    C1    1     0.237800     12.01000 ; qtot 0.238
     2   ca     1   MOL    C2    2    -0.053500     12.01000 ; qtot 0.184
     3   ca     1   MOL    C3    3    -0.053500     12.01000 ; qtot 0.131
     4   ca     1   MOL    C4    4    -0.193000     12.01000 ; qtot -0.062
     5   ca     1   MOL    C5    5    -0.193000     12.01000 ; qtot -0.255
     6   ca     1   MOL    C6    6    -0.058000     12.01000 ; qtot -0.313
     7   ca     1   MOL    C7    7     0.149100     12.01000 ; qtot -0.164
     8   n1     1   MOL    N1    8    -0.367800     14.01000 ; qtot -0.532
     9   oh     1   MOL    O1    9    -0.490100     16.00000 ; qtot -1.022
    10   ha     1   MOL    H1   10     0.148000      1.00800 ; qtot -0.874
    11   ha     1   MOL    H2   11     0.148000      1.00800 ; qtot -0.726
    12   ha     1   MOL    H3   12     0.150500      1.00800 ; qtot -0.576
    13   ha     1   MOL    H4   13     0.150500      1.00800 ; qtot -0.425
    14   ho     1   MOL    H5   14     0.425000      1.00800 ; qtot -0.000

[ bonds ]
;   ai     aj funct   r             k
     1      6   1    1.4318e-01    2.6561e+05 ;     C1 - C6    
     1      8   1    1.1643e-01    6.2260e+05 ;     C1 - N1    
     2      4   1    1.3986e-01    2.9644e+05 ;     C2 - C4    
     2      6   1    1.3986e-01    2.9644e+05 ;     C2 - C6    
     2     10   1    1.0860e-01    3.0183e+05 ;     C2 - H1    
     3      5   1    1.3986e-01    2.9644e+05 ;     C3 - C5    
     3      6   1    1.3986e-01    2.9644e+05 ;     C3 - C6    
     3     11   1    1.0860e-01    3.0183e+05 ;     C3 - H2    
     4      7   1    1.3986e-01    2.9644e+05 ;     C4 - C7    
     4     12   1    1.0860e-01    3.0183e+05 ;     C4 - H3    
     5      7   1    1.3986e-01    2.9644e+05 ;     C5 - C7    
     5     13   1    1.0860e-01    3.0183e+05 ;     C5 - H4    
     7      9   1    1.3644e-01    2.9167e+05 ;     C7 - O1    
     9     14   1    9.7250e-02    4.4811e+05 ;     O1 - H5    

[ pairs ]
;   ai     aj    funct
     1      4      1 ;     C1 - C4    
     1      5      1 ;     C1 - C5    
     1     10      1 ;     C1 - H1    
     1     11      1 ;     C1 - H2    
     2      5      1 ;     C2 - C5    
     2      9      1 ;     C2 - O1    
     2     11      1 ;     C2 - H2    
     3      4      1 ;     C3 - C4    
     3      9      1 ;     C3 - O1    
     3     10      1 ;     C3 - H1    
     4     13      1 ;     C4 - H4    
     4     14      1 ;     C4 - H5    
     5     12      1 ;     C5 - H3    
     5     14      1 ;     C5 - H5    
     6      7      1 ;     C6 - C7    
     6     12      1 ;     C6 - H3    
     6     13      1 ;     C6 - H4    
     7     10      1 ;     C7 - H1    
     7     11      1 ;     C7 - H2    
     8      2      1 ;     N1 - C2    
     8      3      1 ;     N1 - C3    
     9     12      1 ;     O1 - H3    
     9     13      1 ;     O1 - H4    
    10     12      1 ;     H1 - H3    
    11     13      1 ;     H2 - H4    

[ angles ]
;   ai     aj     ak    funct   theta         cth
     1      6      2      1    1.2025e+02    5.2593e+02 ;     C1 - C6     - C2    
     1      6      3      1    1.2025e+02    5.2593e+02 ;     C1 - C6     - C3    
     2      4      7      1    1.2002e+02    5.3279e+02 ;     C2 - C4     - C7    
     2      4     12      1    1.1988e+02    3.7572e+02 ;     C2 - C4     - H3    
     2      6      3      1    1.2002e+02    5.3279e+02 ;     C2 - C6     - C3    
     3      5      7      1    1.2002e+02    5.3279e+02 ;     C3 - C5     - C7    
     3      5     13      1    1.1988e+02    3.7572e+02 ;     C3 - C5     - H4    
     4      2      6      1    1.2002e+02    5.3279e+02 ;     C4 - C2     - C6    
     4      2     10      1    1.1988e+02    3.7572e+02 ;     C4 - C2     - H1    
     4      7      5      1    1.2002e+02    5.3279e+02 ;     C4 - C7     - C5    
     4      7      9      1    1.1990e+02    6.5990e+02 ;     C4 - C7     - O1    
     5      3      6      1    1.2002e+02    5.3279e+02 ;     C5 - C3     - C6    
     5      3     11      1    1.1988e+02    3.7572e+02 ;     C5 - C3     - H2    
     5      7      9      1    1.1990e+02    6.5990e+02 ;     C5 - C7     - O1    
     6      1      8      1    1.7952e+02    4.8785e+02 ;     C6 - C1     - N1    
     6      2     10      1    1.1988e+02    3.7572e+02 ;     C6 - C2     - H1    
     6      3     11      1    1.1988e+02    3.7572e+02 ;     C6 - C3     - H2    
     7      4     12      1    1.1988e+02    3.7572e+02 ;     C7 - C4     - H3    
     7      5     13      1    1.1988e+02    3.7572e+02 ;     C7 - C5     - H4    
     7      9     14      1    1.0858e+02    5.6409e+02 ;     C7 - O1     - H5    

[ dihedrals ] ; propers
; for gromacs 4.5 or higher, using funct 9
;    i      j      k      l   func   phase     kd      pn
     1      6      2      4      9   180.00  15.16700   2 ;     C1-    C6-    C2-    C4
     1      6      2     10      9   180.00  15.16700   2 ;     C1-    C6-    C2-    H1
     1      6      3      5      9   180.00  15.16700   2 ;     C1-    C6-    C3-    C5
     1      6      3     11      9   180.00  15.16700   2 ;     C1-    C6-    C3-    H2
     2      4      7      5      9   180.00  15.16700   2 ;     C2-    C4-    C7-    C5
     2      4      7      9      9   180.00  15.16700   2 ;     C2-    C4-    C7-    O1
     2      6      3      5      9   180.00  15.16700   2 ;     C2-    C6-    C3-    C5
     2      6      3     11      9   180.00  15.16700   2 ;     C2-    C6-    C3-    H2
     3      5      7      4      9   180.00  15.16700   2 ;     C3-    C5-    C7-    C4
     3      5      7      9      9   180.00  15.16700   2 ;     C3-    C5-    C7-    O1
     3      6      2      4      9   180.00  15.16700   2 ;     C3-    C6-    C2-    C4
     3      6      2     10      9   180.00  15.16700   2 ;     C3-    C6-    C2-    H1
     4      7      5     13      9   180.00  15.16700   2 ;     C4-    C7-    C5-    H4
     4      7      9     14      9   180.00   3.57732   2 ;     C4-    C7-    O1-    H5
     5      7      4     12      9   180.00  15.16700   2 ;     C5-    C7-    C4-    H3
     5      7      9     14      9   180.00   3.57732   2 ;     C5-    C7-    O1-    H5
     6      2      4      7      9   180.00  15.16700   2 ;     C6-    C2-    C4-    C7
     6      2      4     12      9   180.00  15.16700   2 ;     C6-    C2-    C4-    H3
     6      3      5      7      9   180.00  15.16700   2 ;     C6-    C3-    C5-    C7
     6      3      5     13      9   180.00  15.16700   2 ;     C6-    C3-    C5-    H4
     7      4      2     10      9   180.00  15.16700   2 ;     C7-    C4-    C2-    H1
     7      5      3     11      9   180.00  15.16700   2 ;     C7-    C5-    C3-    H2
     8      1      6      2      9   180.00   0.00000   2 ;     N1-    C1-    C6-    C2
     8      1      6      3      9   180.00   0.00000   2 ;     N1-    C1-    C6-    C3
     9      7      4     12      9   180.00  15.16700   2 ;     O1-    C7-    C4-    H3
     9      7      5     13      9   180.00  15.16700   2 ;     O1-    C7-    C5-    H4
    10      2      4     12      9   180.00  15.16700   2 ;     H1-    C2-    C4-    H3
    11      3      5     13      9   180.00  15.16700   2 ;     H2-    C3-    C5-    H4

[ dihedrals ] ; impropers
; treated as propers in GROMACS to use correct AMBER analytical function
;    i      j      k      l   func   phase     kd      pn
     1      6      3      2      4   180.00   4.60240   2 ;     C1-    C6-    C3-    C2
     2      7      4     12      4   180.00   4.60240   2 ;     C2-    C7-    C4-    H3
     3      7      5     13      4   180.00   4.60240   2 ;     C3-    C7-    C5-    H4
     4      5      7      9      4   180.00   4.60240   2 ;     C4-    C5-    C7-    O1
     4      6      2     10      4   180.00   4.60240   2 ;     C4-    C6-    C2-    H1
     5      6      3     11      4   180.00   4.60240   2 ;     C5-    C6-    C3-    H2
