; mobley_7532833_GMX.itp created by acpype (v: 2023.10.27) on Wed May 20 23:48:22 2026

[ atomtypes ]
;name   bond_type     mass     charge   ptype   sigma         epsilon       Amb
 c1       c1          0.00000  0.00000   A     3.47896e-01   6.67766e-01 ; 1.95  0.1596
 c3       c3          0.00000  0.00000   A     3.39771e-01   4.51035e-01 ; 1.91  0.1078
 n1       n1          0.00000  0.00000   A     3.27352e-01   4.59403e-01 ; 1.84  0.1098
 hc       hc          0.00000  0.00000   A     2.60018e-01   8.70272e-02 ; 1.46  0.0208

[ moleculetype ]
;name            nrexcl
 mobley_7532833   3

[ atoms ]
;   nr  type  resi  res  atom  cgnr     charge      mass       ; qtot   bond_type
     1   c1     1   MOL    C1    1     0.208700     12.01000 ; qtot 0.209
     2   c3     1   MOL    C2    2    -0.045000     12.01000 ; qtot 0.164
     3   n1     1   MOL    N1    3    -0.375800     14.01000 ; qtot -0.212
     4   hc     1   MOL    H1    4     0.070700      1.00800 ; qtot -0.141
     5   hc     1   MOL    H2    5     0.070700      1.00800 ; qtot -0.071
     6   hc     1   MOL    H3    6     0.070700      1.00800 ; qtot -0.000

[ bonds ]
;   ai     aj funct   r             k
     1      2   1    1.4656e-01    2.3814e+05 ;     C1 - C2    
     1      3   1    1.1619e-01    6.2865e+05 ;     C1 - N1    
     2      4   1    1.0962e-01    2.8891e+05 ;     C2 - H1    
     2      5   1    1.0962e-01    2.8891e+05 ;     C2 - H2    
     2      6   1    1.0962e-01    2.8891e+05 ;     C2 - H3    

[ pairs ]
;   ai     aj    funct
     3      4      1 ;     N1 - H1    
     3      5      1 ;     N1 - H2    
     3      6      1 ;     N1 - H3    

[ angles ]
;   ai     aj     ak    funct   theta         cth
     1      2      4      1    1.0945e+02    3.7765e+02 ;     C1 - C2     - H1    
     1      2      5      1    1.0945e+02    3.7765e+02 ;     C1 - C2     - H2    
     1      2      6      1    1.0945e+02    3.7765e+02 ;     C1 - C2     - H3    
     2      1      3      1    1.7866e+02    4.8049e+02 ;     C2 - C1     - N1    
     4      2      5      1    1.0773e+02    2.9957e+02 ;     H1 - C2     - H2    
     4      2      6      1    1.0773e+02    2.9957e+02 ;     H1 - C2     - H3    
     5      2      6      1    1.0773e+02    2.9957e+02 ;     H2 - C2     - H3    

[ dihedrals ] ; propers
; for gromacs 4.5 or higher, using funct 9
;    i      j      k      l   func   phase     kd      pn
     3      1      2      4      9   180.00   0.00000   2 ;     N1-    C1-    C2-    H1
     3      1      2      5      9   180.00   0.00000   2 ;     N1-    C1-    C2-    H2
     3      1      2      6      9   180.00   0.00000   2 ;     N1-    C1-    C2-    H3
