mobley_5747188_GMX.gro created by acpype (v: 2023.10.27) on Thu May 21 00:22:13 2026
 2402
    1MOL     C1    1   2.259   2.322   2.089
    1MOL     C2    2   2.152   2.382   2.156
    1MOL     C3    3   2.364   2.266   2.161
    1MOL     C4    4   2.150   2.385   2.296
    1MOL     C5    5   2.362   2.269   2.301
    1MOL     C6    6   2.255   2.328   2.368
    1MOL     C7    7   2.476   2.207   2.375
    1MOL     N1    8   2.251   2.332   2.510
    1MOL     O1    9   2.153   2.387   2.567
    1MOL     O2   10   2.346   2.281   2.575
    1MOL     H1   11   2.260   2.320   1.980
    1MOL     H2   12   2.070   2.426   2.100
    1MOL     H3   13   2.446   2.219   2.108
    1MOL     H4   14   2.066   2.432   2.347
    1MOL     H5   15   2.526   2.282   2.437
    1MOL     H6   16   2.441   2.126   2.441
    1MOL     H7   17   2.549   2.163   2.306
   14SOL     OW   18   1.460   1.505   1.339
   14SOL    HW1   19   1.484   1.599   1.365
   14SOL    HW2   20   1.444   1.451   1.421
   18SOL     OW   21   1.127   1.341   1.690
   18SOL    HW1   22   1.174   1.341   1.778
   18SOL    HW2   23   1.079   1.254   1.679
   31SOL     OW   24   1.293   1.228   1.423
   31SOL    HW1   25   1.330   1.155   1.365
   31SOL    HW2   26   1.345   1.233   1.508
   35SOL     OW   27   1.187   1.792   1.616
   35SOL    HW1   28   1.211   1.852   1.540
   35SOL    HW2   29   1.194   1.697   1.586
   56SOL     OW   30   1.227   1.550   1.506
   56SOL    HW1   31   1.233   1.473   1.570
   56SOL    HW2   32   1.175   1.524   1.426
   95SOL     OW   33   1.754   1.223   1.588
   95SOL    HW1   34   1.845   1.184   1.575
   95SOL    HW2   35   1.762   1.319   1.612
   97SOL     OW   36   1.592   1.629   1.625
   97SOL    HW1   37   1.619   1.663   1.535
   97SOL    HW2   38   1.671   1.591   1.671
  109SOL     OW   39   1.272   1.445   1.142
  109SOL    HW1   40   1.319   1.458   1.229
  109SOL    HW2   41   1.206   1.371   1.151
  113SOL     OW   42   1.587   0.779   1.670
  113SOL    HW1   43   1.495   0.817   1.665
  113SOL    HW2   44   1.647   0.826   1.605
  122SOL     OW   45   1.728   0.935   1.854
  122SOL    HW1   46   1.682   0.928   1.765
  122SOL    HW2   47   1.666   0.979   1.920
  126SOL     OW   48   0.980   1.573   1.700
  126SOL    HW1   49   0.960   1.617   1.612
  126SOL    HW2   50   1.019   1.482   1.684
  127SOL     OW   51   1.859   1.518   1.605
  127SOL    HW1   52   1.873   1.545   1.510
  127SOL    HW2   53   1.942   1.540   1.658
  142SOL     OW   54   1.369   0.950   1.660
  142SOL    HW1   55   1.408   1.039   1.680
  142SOL    HW2   56   1.379   0.930   1.563
  147SOL     OW   57   0.930   1.678   1.465
  147SOL    HW1   58   0.906   1.660   1.370
  147SOL    HW2   59   0.960   1.772   1.475
  152SOL     OW   60   1.759   1.747   1.154
  152SOL    HW1   61   1.820   1.777   1.081
  152SOL    HW2   62   1.721   1.658   1.132
  153SOL     OW   63   1.252   1.731   1.128
  153SOL    HW1   64   1.336   1.736   1.074
  153SOL    HW2   65   1.229   1.635   1.146
  163SOL     OW   66   1.650   1.720   1.394
  163SOL    HW1   67   1.703   1.730   1.310
  163SOL    HW2   68   1.623   1.810   1.428
  171SOL     OW   69   1.614   1.292   1.289
  171SOL    HW1   70   1.674   1.295   1.369
  171SOL    HW2   71   1.539   1.356   1.302
  184SOL     OW   72   1.493   1.767   0.959
  184SOL    HW1   73   1.526   1.831   0.890
  184SOL    HW2   74   1.559   1.761   1.034
  186SOL     OW   75   1.450   1.220   1.633
  186SOL    HW1   76   1.441   1.210   1.732
  186SOL    HW2   77   1.546   1.213   1.607
  192SOL     OW   78   1.730   0.934   1.517
  192SOL    HW1   79   1.768   1.025   1.532
  192SOL    HW2   80   1.722   0.917   1.418
  197SOL     OW   81   1.861   1.569   0.851
  197SOL    HW1   82   1.790   1.557   0.781
  197SOL    HW2   83   1.862   1.490   0.911
  203SOL     OW   84   1.705   1.487   1.104
  203SOL    HW1   85   1.612   1.462   1.077
  203SOL    HW2   86   1.731   1.437   1.186
  219SOL     OW   87   1.555   1.511   2.565
  219SOL    HW1   88   1.498   1.495   2.646
  219SOL    HW2   89   1.496   1.521   2.485
  221SOL     OW   90   1.755   0.607   2.093
  221SOL    HW1   91   1.743   0.594   1.994
  221SOL    HW2   92   1.725   0.526   2.142
  227SOL     OW   93   1.460   1.505   3.201
  227SOL    HW1   94   1.484   1.599   3.227
  227SOL    HW2   95   1.444   1.451   3.283
  238SOL     OW   96   1.842   1.767   2.221
  238SOL    HW1   97   1.896   1.738   2.301
  238SOL    HW2   98   1.872   1.857   2.192
  240SOL     OW   99   1.689   0.922   2.474
  240SOL    HW1  100   1.784   0.893   2.482
  240SOL    HW2  101   1.681   0.987   2.399
  241SOL     OW  102   1.641   1.108   2.294
  241SOL    HW1  103   1.727   1.110   2.242
  241SOL    HW2  104   1.655   1.155   2.382
  244SOL     OW  105   1.293   1.228   3.285
  244SOL    HW1  106   1.330   1.155   3.227
  244SOL    HW2  107   1.345   1.233   3.370
  247SOL     OW  108   1.525   0.999   2.052
  247SOL    HW1  109   1.462   0.923   2.065
  247SOL    HW2  110   1.573   1.017   2.138
  248SOL     OW  111   1.187   1.792   3.478
  248SOL    HW1  112   1.211   1.852   3.402
  248SOL    HW2  113   1.194   1.697   3.448
  250SOL     OW  114   1.466   1.417   2.815
  250SOL    HW1  115   1.407   1.423   2.895
  250SOL    HW2  116   1.451   1.329   2.769
  251SOL     OW  117   1.667   1.714   2.434
  251SOL    HW1  118   1.626   1.691   2.346
  251SOL    HW2  119   1.649   1.640   2.499
  254SOL     OW  120   1.576   1.662   2.169
  254SOL    HW1  121   1.665   1.708   2.172
  254SOL    HW2  122   1.555   1.638   2.074
  264SOL     OW  123   1.362   1.144   2.407
  264SOL    HW1  124   1.445   1.115   2.359
  264SOL    HW2  125   1.313   1.211   2.351
  266SOL     OW  126   1.008   1.456   2.339
  266SOL    HW1  127   0.962   1.528   2.287
  266SOL    HW2  128   1.004   1.476   2.437
  268SOL     OW  129   1.795   1.066   2.735
  268SOL    HW1  130   1.733   1.051   2.659
  268SOL    HW2  131   1.743   1.077   2.820
  269SOL     OW  132   1.227   1.550   3.368
  269SOL    HW1  133   1.233   1.473   3.432
  269SOL    HW2  134   1.175   1.524   3.288
  273SOL     OW  135   1.111   1.776   2.099
  273SOL    HW1  136   1.051   1.714   2.149
  273SOL    HW2  137   1.142   1.732   2.014
  275SOL     OW  138   1.632   1.377   1.943
  275SOL    HW1  139   1.600   1.471   1.933
  275SOL    HW2  140   1.556   1.314   1.931
  279SOL     OW  141   0.940   1.698   2.766
  279SOL    HW1  142   1.020   1.641   2.787
  279SOL    HW2  143   0.891   1.658   2.689
  284SOL     OW  144   0.888   1.514   3.057
  284SOL    HW1  145   0.865   1.489   2.963
  284SOL    HW2  146   0.949   1.445   3.096
  289SOL     OW  147   1.434   1.188   1.903
  289SOL    HW1  148   1.466   1.112   1.960
  289SOL    HW2  149   1.342   1.215   1.933
  293SOL     OW  150   1.227   1.570   2.655
  293SOL    HW1  151   1.248   1.644   2.590
  293SOL    HW2  152   1.295   1.570   2.728
  295SOL     OW  153   1.271   1.797   2.453
  295SOL    HW1  154   1.315   1.861   2.389
  295SOL    HW2  155   1.221   1.849   2.523
  301SOL     OW  156   1.429   1.173   2.729
  301SOL    HW1  157   1.374   1.089   2.722
  301SOL    HW2  158   1.455   1.202   2.637
  303SOL     OW  159   1.857   0.833   2.239
  303SOL    HW1  160   1.899   0.769   2.303
  303SOL    HW2  161   1.819   0.782   2.161
  305SOL     OW  162   1.664   1.280   2.519
  305SOL    HW1  163   1.763   1.288   2.533
  305SOL    HW2  164   1.619   1.364   2.550
  308SOL     OW  165   1.754   1.223   3.450
  308SOL    HW1  166   1.845   1.184   3.437
  308SOL    HW2  167   1.762   1.319   3.474
  310SOL     OW  168   1.592   1.629   3.487
  310SOL    HW1  169   1.619   1.663   3.397
  310SOL    HW2  170   1.671   1.591   3.533
  311SOL     OW  171   1.111   1.195   2.962
  311SOL    HW1  172   1.071   1.239   3.043
  311SOL    HW2  173   1.070   1.232   2.879
  312SOL     OW  174   1.638   1.099   2.941
  312SOL    HW1  175   1.643   1.180   3.000
  312SOL    HW2  176   1.552   1.101   2.890
  321SOL     OW  177   1.252   1.348   2.250
  321SOL    HW1  178   1.302   1.425   2.290
  321SOL    HW2  179   1.157   1.350   2.282
  322SOL     OW  180   1.272   1.445   3.004
  322SOL    HW1  181   1.319   1.458   3.091
  322SOL    HW2  182   1.206   1.371   3.013
  340SOL     OW  183   1.859   1.518   3.467
  340SOL    HW1  184   1.873   1.545   3.372
  340SOL    HW2  185   1.942   1.540   3.520
  344SOL     OW  186   1.068   1.333   2.711
  344SOL    HW1  187   1.075   1.249   2.656
  344SOL    HW2  188   1.130   1.402   2.675
  363SOL     OW  189   1.347   1.059   3.096
  363SOL    HW1  190   1.371   0.996   3.022
  363SOL    HW2  191   1.257   1.099   3.078
  364SOL     OW  192   1.302   0.855   2.171
  364SOL    HW1  193   1.216   0.824   2.213
  364SOL    HW2  194   1.298   0.841   2.072
  365SOL     OW  195   1.759   1.747   3.016
  365SOL    HW1  196   1.820   1.777   2.943
  365SOL    HW2  197   1.721   1.658   2.994
  366SOL     OW  198   1.252   1.731   2.990
  366SOL    HW1  199   1.336   1.736   2.936
  366SOL    HW2  200   1.229   1.635   3.008
  370SOL     OW  201   1.388   1.573   2.339
  370SOL    HW1  202   1.455   1.585   2.265
  370SOL    HW2  203   1.348   1.662   2.362
  372SOL     OW  204   1.280   0.927   2.534
  372SOL    HW1  205   1.340   0.846   2.536
  372SOL    HW2  206   1.320   0.996   2.474
  374SOL     OW  207   0.672   1.616   2.016
  374SOL    HW1  208   0.681   1.626   1.917
  374SOL    HW2  209   0.632   1.527   2.037
  375SOL     OW  210   1.650   1.720   3.256
  375SOL    HW1  211   1.703   1.730   3.172
  375SOL    HW2  212   1.623   1.810   3.290
  378SOL     OW  213   1.194   1.612   1.893
  378SOL    HW1  214   1.200   1.519   1.930
  378SOL    HW2  215   1.135   1.612   1.813
  381SOL     OW  216   1.504   1.607   1.906
  381SOL    HW1  217   1.412   1.644   1.913
  381SOL    HW2  218   1.542   1.627   1.816
  383SOL     OW  219   1.614   1.292   3.151
  383SOL    HW1  220   1.674   1.295   3.231
  383SOL    HW2  221   1.539   1.356   3.164
  384SOL     OW  222   1.039   1.098   2.558
  384SOL    HW1  223   0.969   1.051   2.612
  384SOL    HW2  224   1.098   1.030   2.515
  394SOL     OW  225   1.183   1.335   1.981
  394SOL    HW1  226   1.084   1.324   1.983
  394SOL    HW2  227   1.217   1.350   2.074
  396SOL     OW  228   1.493   1.767   2.821
  396SOL    HW1  229   1.526   1.831   2.752
  396SOL    HW2  230   1.559   1.761   2.896
  400SOL     OW  231   1.674   0.883   3.116
  400SOL    HW1  232   1.647   0.794   3.079
  400SOL    HW2  233   1.675   0.951   3.043
  405SOL     OW  234   0.859   1.374   1.878
  405SOL    HW1  235   0.813   1.389   1.966
  405SOL    HW2  236   0.903   1.459   1.848
  406SOL     OW  237   0.661   1.790   2.815
  406SOL    HW1  238   0.615   1.878   2.802
  406SOL    HW2  239   0.760   1.802   2.808
  409SOL     OW  240   1.861   1.569   2.713
  409SOL    HW1  241   1.790   1.557   2.643
  409SOL    HW2  242   1.862   1.490   2.773
  415SOL     OW  243   1.705   1.487   2.966
  415SOL    HW1  244   1.612   1.462   2.939
  415SOL    HW2  245   1.731   1.437   3.048
  417SOL     OW  246   0.812   1.586   2.549
  417SOL    HW1  247   0.844   1.596   2.455
  417SOL    HW2  248   0.733   1.524   2.551
  426SOL     OW  249   0.875   1.646   2.199
  426SOL    HW1  250   0.798   1.611   2.145
  426SOL    HW2  251   0.843   1.717   2.261
  532SOL     OW  252   0.850   2.660   1.823
  532SOL    HW1  253   0.846   2.736   1.888
  532SOL    HW2  254   0.872   2.696   1.732
  536SOL     OW  255   1.460   3.367   1.339
  536SOL    HW1  256   1.484   3.461   1.365
  536SOL    HW2  257   1.444   3.313   1.421
  538SOL     OW  258   1.603   2.309   0.737
  538SOL    HW1  259   1.529   2.355   0.687
  538SOL    HW2  260   1.654   2.377   0.790
  540SOL     OW  261   1.127   3.203   1.690
  540SOL    HW1  262   1.174   3.203   1.778
  540SOL    HW2  263   1.079   3.116   1.679
  545SOL     OW  264   1.594   1.976   1.480
  545SOL    HW1  265   1.576   2.043   1.408
  545SOL    HW2  266   1.591   2.022   1.569
  553SOL     OW  267   1.293   3.090   1.423
  553SOL    HW1  268   1.330   3.017   1.365
  553SOL    HW2  269   1.345   3.095   1.508
  562SOL     OW  270   1.281   2.207   0.944
  562SOL    HW1  271   1.195   2.157   0.931
  562SOL    HW2  272   1.343   2.153   1.000
  564SOL     OW  273   0.807   2.467   1.465
  564SOL    HW1  274   0.760   2.464   1.554
  564SOL    HW2  275   0.756   2.412   1.399
  565SOL     OW  276   1.394   2.331   1.674
  565SOL    HW1  277   1.374   2.374   1.762
  565SOL    HW2  278   1.472   2.269   1.683
  566SOL     OW  279   0.973   2.752   1.572
  566SOL    HW1  280   1.019   2.668   1.543
  566SOL    HW2  281   0.917   2.786   1.497
  567SOL     OW  282   0.991   2.272   1.242
  567SOL    HW1  283   0.914   2.306   1.296
  567SOL    HW2  284   0.957   2.221   1.163
  572SOL     OW  285   1.719   2.447   1.831
  572SOL    HW1  286   1.693   2.536   1.795
  572SOL    HW2  287   1.717   2.379   1.758
  577SOL     OW  288   1.795   2.928   0.873
  577SOL    HW1  289   1.733   2.913   0.797
  577SOL    HW2  290   1.743   2.939   0.958
  578SOL     OW  291   1.227   3.412   1.506
  578SOL    HW1  292   1.233   3.335   1.570
  578SOL    HW2  293   1.175   3.386   1.426
  590SOL     OW  294   1.547   2.084   1.729
  590SOL    HW1  295   1.542   2.121   1.821
  590SOL    HW2  296   1.475   2.015   1.717
  591SOL     OW  297   0.781   2.126   1.749
  591SOL    HW1  298   0.848   2.065   1.792
  591SOL    HW2  299   0.708   2.145   1.814
  593SOL     OW  300   1.351   2.452   1.433
  593SOL    HW1  301   1.379   2.409   1.518
  593SOL    HW2  302   1.376   2.548   1.434
  600SOL     OW  303   1.076   2.545   1.464
  600SOL    HW1  304   0.996   2.484   1.467
  600SOL    HW2  305   1.157   2.492   1.440
  610SOL     OW  306   1.466   2.452   0.992
  610SOL    HW1  307   1.436   2.357   0.999
  610SOL    HW2  308   1.539   2.468   1.058
  616SOL     OW  309   1.754   3.085   1.588
  616SOL    HW1  310   1.845   3.046   1.575
  616SOL    HW2  311   1.762   3.181   1.612
  618SOL     OW  312   1.592   3.491   1.625
  618SOL    HW1  313   1.619   3.525   1.535
  618SOL    HW2  314   1.671   3.453   1.671
  620SOL     OW  315   1.638   2.961   1.079
  620SOL    HW1  316   1.643   3.042   1.138
  620SOL    HW2  317   1.552   2.963   1.028
  621SOL     OW  318   0.915   1.951   1.402
  621SOL    HW1  319   0.940   1.931   1.307
  621SOL    HW2  320   0.987   2.007   1.444
  622SOL     OW  321   0.980   2.978   1.719
  622SOL    HW1  322   0.881   2.984   1.729
  622SOL    HW2  323   1.003   2.898   1.663
  625SOL     OW  324   1.274   2.248   1.262
  625SOL    HW1  325   1.295   2.322   1.326
  625SOL    HW2  326   1.185   2.265   1.219
  634SOL     OW  327   1.587   2.641   1.670
  634SOL    HW1  328   1.495   2.679   1.665
  634SOL    HW2  329   1.647   2.688   1.605
  635SOL     OW  330   1.013   1.967   1.770
  635SOL    HW1  331   1.019   2.052   1.718
  635SOL    HW2  332   1.045   1.891   1.713
  638SOL     OW  333   1.360   2.724   1.045
  638SOL    HW1  334   1.285   2.724   0.979
  638SOL    HW2  335   1.397   2.632   1.054
  643SOL     OW  336   1.728   2.797   1.854
  643SOL    HW1  337   1.682   2.790   1.765
  643SOL    HW2  338   1.666   2.841   1.920
  648SOL     OW  339   1.859   3.380   1.605
  648SOL    HW1  340   1.873   3.407   1.510
  648SOL    HW2  341   1.942   3.402   1.658
  655SOL     OW  342   1.138   2.242   1.678
  655SOL    HW1  343   1.093   2.305   1.742
  655SOL    HW2  344   1.231   2.273   1.661
  656SOL     OW  345   1.160   2.069   1.477
  656SOL    HW1  346   1.160   2.133   1.554
  656SOL    HW2  347   1.188   2.117   1.394
  660SOL     OW  348   1.002   2.658   1.238
  660SOL    HW1  349   1.043   2.626   1.324
  660SOL    HW2  350   0.906   2.631   1.235
  663SOL     OW  351   1.369   2.812   1.660
  663SOL    HW1  352   1.408   2.901   1.680
  663SOL    HW2  353   1.379   2.792   1.563
  665SOL     OW  354   1.657   2.466   1.206
  665SOL    HW1  355   1.619   2.397   1.268
  665SOL    HW2  356   1.739   2.430   1.162
  671SOL     OW  357   1.347   2.921   1.234
  671SOL    HW1  358   1.371   2.858   1.160
  671SOL    HW2  359   1.257   2.961   1.216
  684SOL     OW  360   1.650   3.582   1.394
  684SOL    HW1  361   1.703   3.592   1.310
  684SOL    HW2  362   1.623   3.672   1.428
  685SOL     OW  363   1.841   2.037   0.963
  685SOL    HW1  364   1.880   1.952   0.927
  685SOL    HW2  365   1.743   2.039   0.944
  692SOL     OW  366   1.614   3.154   1.289
  692SOL    HW1  367   1.674   3.157   1.369
  692SOL    HW2  368   1.539   3.218   1.302
  696SOL     OW  369   1.709   2.247   1.381
  696SOL    HW1  370   1.782   2.316   1.385
  696SOL    HW2  371   1.737   2.172   1.322
  701SOL     OW  372   1.440   2.718   1.398
  701SOL    HW1  373   1.383   2.770   1.335
  701SOL    HW2  374   1.536   2.730   1.374
  706SOL     OW  375   0.716   2.427   1.708
  706SOL    HW1  376   0.735   2.492   1.782
  706SOL    HW2  377   0.776   2.347   1.717
  707SOL     OW  378   1.450   3.082   1.633
  707SOL    HW1  379   1.441   3.072   1.732
  707SOL    HW2  380   1.546   3.075   1.607
  709SOL     OW  381   1.674   2.745   1.254
  709SOL    HW1  382   1.647   2.656   1.217
  709SOL    HW2  383   1.675   2.813   1.181
  712SOL     OW  384   1.777   2.204   1.642
  712SOL    HW1  385   1.760   2.235   1.548
  712SOL    HW2  386   1.693   2.167   1.680
  713SOL     OW  387   1.730   2.796   1.517
  713SOL    HW1  388   1.768   2.887   1.532
  713SOL    HW2  389   1.722   2.779   1.418
  722SOL     OW  390   1.824   2.054   1.227
  722SOL    HW1  391   1.820   1.964   1.271
  722SOL    HW2  392   1.827   2.043   1.128
  724SOL     OW  393   1.705   3.349   1.104
  724SOL    HW1  394   1.612   3.324   1.077
  724SOL    HW2  395   1.731   3.299   1.186
  727SOL     OW  396   1.424   2.076   1.112
  727SOL    HW1  397   1.476   2.011   1.167
  727SOL    HW2  398   1.375   2.139   1.173
  728SOL     OW  399   1.001   1.896   1.154
  728SOL    HW1  400   0.938   1.824   1.123
  728SOL    HW2  401   1.094   1.860   1.154
  733SOL     OW  402   1.593   2.083   0.882
  733SOL    HW1  403   1.509   2.082   0.936
  733SOL    HW2  404   1.595   2.166   0.826
  740SOL     OW  405   1.555   3.373   2.565
  740SOL    HW1  406   1.498   3.357   2.646
  740SOL    HW2  407   1.496   3.383   2.485
  741SOL     OW  408   1.135   2.565   2.579
  741SOL    HW1  409   1.192   2.643   2.554
  741SOL    HW2  410   1.075   2.591   2.655
  742SOL     OW  411   1.755   2.469   2.093
  742SOL    HW1  412   1.743   2.456   1.994
  742SOL    HW2  413   1.725   2.388   2.142
  743SOL     OW  414   0.768   3.006   2.885
  743SOL    HW1  415   0.690   3.023   2.945
  743SOL    HW2  416   0.802   3.093   2.849
  745SOL     OW  417   0.685   2.874   2.527
  745SOL    HW1  418   0.754   2.858   2.597
  745SOL    HW2  419   0.612   2.931   2.565
  748SOL     OW  420   1.460   3.367   3.201
  748SOL    HW1  421   1.484   3.461   3.227
  748SOL    HW2  422   1.444   3.313   3.283
  750SOL     OW  423   1.603   2.309   2.599
  750SOL    HW1  424   1.529   2.355   2.549
  750SOL    HW2  425   1.654   2.377   2.652
  757SOL     OW  426   1.594   1.976   3.342
  757SOL    HW1  427   1.576   2.043   3.270
  757SOL    HW2  428   1.591   2.022   3.431
  759SOL     OW  429   1.842   3.629   2.221
  759SOL    HW1  430   1.896   3.600   2.301
  759SOL    HW2  431   1.872   3.719   2.192
  761SOL     OW  432   1.689   2.784   2.474
  761SOL    HW1  433   1.784   2.755   2.482
  761SOL    HW2  434   1.681   2.849   2.399
  762SOL     OW  435   1.641   2.970   2.294
  762SOL    HW1  436   1.727   2.972   2.242
  762SOL    HW2  437   1.655   3.017   2.382
  765SOL     OW  438   1.293   3.090   3.285
  765SOL    HW1  439   1.330   3.017   3.227
  765SOL    HW2  440   1.345   3.095   3.370
  766SOL     OW  441   0.809   1.866   2.364
  766SOL    HW1  442   0.849   1.957   2.355
  766SOL    HW2  443   0.709   1.874   2.370
  768SOL     OW  444   1.525   2.861   2.052
  768SOL    HW1  445   1.462   2.785   2.065
  768SOL    HW2  446   1.573   2.879   2.138
  771SOL     OW  447   1.466   3.279   2.815
  771SOL    HW1  448   1.407   3.285   2.895
  771SOL    HW2  449   1.451   3.191   2.769
  772SOL     OW  450   1.667   3.576   2.434
  772SOL    HW1  451   1.626   3.553   2.346
  772SOL    HW2  452   1.649   3.502   2.499
  773SOL     OW  453   0.598   2.591   2.132
  773SOL    HW1  454   0.622   2.660   2.064
  773SOL    HW2  455   0.520   2.624   2.186
  774SOL     OW  456   1.281   2.207   2.806
  774SOL    HW1  457   1.195   2.157   2.793
  774SOL    HW2  458   1.343   2.153   2.862
  775SOL     OW  459   1.576   3.524   2.169
  775SOL    HW1  460   1.665   3.570   2.172
  775SOL    HW2  461   1.555   3.500   2.074
  777SOL     OW  462   1.394   2.331   3.536
  777SOL    HW1  463   1.374   2.374   3.624
  777SOL    HW2  464   1.472   2.269   3.545
  779SOL     OW  465   0.991   2.272   3.104
  779SOL    HW1  466   0.914   2.306   3.158
  779SOL    HW2  467   0.957   2.221   3.025
  780SOL     OW  468   1.041   2.563   2.291
  780SOL    HW1  469   1.067   2.559   2.387
  780SOL    HW2  470   0.956   2.512   2.277
  783SOL     OW  471   0.865   2.210   2.057
  783SOL    HW1  472   0.924   2.273   2.008
  783SOL    HW2  473   0.884   2.116   2.028
  784SOL     OW  474   1.719   2.447   3.693
  784SOL    HW1  475   1.693   2.536   3.657
  784SOL    HW2  476   1.717   2.379   3.620
  785SOL     OW  477   1.362   3.006   2.407
  785SOL    HW1  478   1.445   2.977   2.359
  785SOL    HW2  479   1.313   3.073   2.351
  787SOL     OW  480   1.008   3.318   2.339
  787SOL    HW1  481   0.962   3.390   2.287
  787SOL    HW2  482   1.004   3.338   2.437
  789SOL     OW  483   1.795   2.928   2.735
  789SOL    HW1  484   1.733   2.913   2.659
  789SOL    HW2  485   1.743   2.939   2.820
  792SOL     OW  486   1.458   2.597   2.590
  792SOL    HW1  487   1.453   2.532   2.665
  792SOL    HW2  488   1.538   2.656   2.603
  796SOL     OW  489   1.632   3.239   1.943
  796SOL    HW1  490   1.600   3.333   1.933
  796SOL    HW2  491   1.556   3.176   1.931
  798SOL     OW  492   1.400   1.969   2.288
  798SOL    HW1  493   1.376   1.932   2.198
  798SOL    HW2  494   1.499   1.985   2.292
  802SOL     OW  495   1.547   2.084   3.591
  802SOL    HW1  496   1.542   2.121   3.683
  802SOL    HW2  497   1.475   2.015   3.579
  803SOL     OW  498   0.614   1.984   1.979
  803SOL    HW1  499   0.712   1.962   1.986
  803SOL    HW2  500   0.583   1.967   1.886
  806SOL     OW  501   1.351   2.452   3.295
  806SOL    HW1  502   1.379   2.409   3.380
  806SOL    HW2  503   1.376   2.548   3.296
  808SOL     OW  504   0.922   2.365   2.761
  808SOL    HW1  505   0.897   2.356   2.665
  808SOL    HW2  506   0.970   2.283   2.792
  810SOL     OW  507   1.434   3.050   1.903
  810SOL    HW1  508   1.466   2.974   1.960
  810SOL    HW2  509   1.342   3.077   1.933
  812SOL     OW  510   0.935   2.098   2.342
  812SOL    HW1  511   0.887   2.139   2.264
  812SOL    HW2  512   1.034   2.096   2.323
  813SOL     OW  513   1.076   2.545   3.326
  813SOL    HW1  514   0.996   2.484   3.329
  813SOL    HW2  515   1.157   2.492   3.302
  814SOL     OW  516   1.227   3.432   2.655
  814SOL    HW1  517   1.248   3.506   2.590
  814SOL    HW2  518   1.295   3.432   2.728
  816SOL     OW  519   1.271   3.659   2.453
  816SOL    HW1  520   1.315   3.723   2.389
  816SOL    HW2  521   1.221   3.711   2.523
  817SOL     OW  522   1.032   2.411   1.878
  817SOL    HW1  523   0.991   2.493   1.839
  817SOL    HW2  524   1.096   2.437   1.951
  820SOL     OW  525   0.866   2.316   2.504
  820SOL    HW1  526   0.834   2.388   2.442
  820SOL    HW2  527   0.890   2.235   2.451
  821SOL     OW  528   1.017   1.901   2.615
  821SOL    HW1  529   0.945   1.906   2.546
  821SOL    HW2  530   0.993   1.832   2.684
  822SOL     OW  531   1.429   3.035   2.729
  822SOL    HW1  532   1.374   2.951   2.722
  822SOL    HW2  533   1.455   3.064   2.637
  823SOL     OW  534   1.466   2.452   2.854
  823SOL    HW1  535   1.436   2.357   2.861
  823SOL    HW2  536   1.539   2.468   2.920
  824SOL     OW  537   1.857   2.695   2.239
  824SOL    HW1  538   1.899   2.631   2.303
  824SOL    HW2  539   1.819   2.644   2.161
  826SOL     OW  540   1.664   3.142   2.519
  826SOL    HW1  541   1.763   3.150   2.533
  826SOL    HW2  542   1.619   3.226   2.550
  827SOL     OW  543   1.390   2.437   1.940
  827SOL    HW1  544   1.336   2.416   2.021
  827SOL    HW2  545   1.481   2.396   1.949
  828SOL     OW  546   0.527   2.118   2.190
  828SOL    HW1  547   0.554   2.059   2.115
  828SOL    HW2  548   0.527   2.213   2.159
  829SOL     OW  549   1.754   3.085   3.450
  829SOL    HW1  550   1.845   3.046   3.437
  829SOL    HW2  551   1.762   3.181   3.474
  830SOL     OW  552   1.064   3.209   3.202
  830SOL    HW1  553   0.984   3.186   3.257
  830SOL    HW2  554   1.147   3.183   3.251
  832SOL     OW  555   1.111   3.057   2.962
  832SOL    HW1  556   1.071   3.101   3.043
  832SOL    HW2  557   1.070   3.094   2.879
  833SOL     OW  558   1.638   2.961   2.941
  833SOL    HW1  559   1.643   3.042   3.000
  833SOL    HW2  560   1.552   2.963   2.890
  834SOL     OW  561   0.915   1.951   3.264
  834SOL    HW1  562   0.940   1.931   3.169
  834SOL    HW2  563   0.987   2.007   3.306
  836SOL     OW  564   0.705   2.912   2.230
  836SOL    HW1  565   0.691   2.919   2.329
  836SOL    HW2  566   0.789   2.861   2.212
  838SOL     OW  567   1.274   2.248   3.124
  838SOL    HW1  568   1.295   2.322   3.188
  838SOL    HW2  569   1.185   2.265   3.081
  841SOL     OW  570   0.566   2.399   2.727
  841SOL    HW1  571   0.578   2.465   2.653
  841SOL    HW2  572   0.612   2.433   2.810
  842SOL     OW  573   1.252   3.210   2.250
  842SOL    HW1  574   1.302   3.287   2.290
  842SOL    HW2  575   1.157   3.212   2.282
  843SOL     OW  576   1.272   3.307   3.004
  843SOL    HW1  577   1.319   3.320   3.091
  843SOL    HW2  578   1.206   3.233   3.013
  844SOL     OW  579   1.582   2.501   2.334
  844SOL    HW1  580   1.551   2.562   2.407
  844SOL    HW2  581   1.632   2.553   2.265
  847SOL     OW  582   1.587   2.641   3.532
  847SOL    HW1  583   1.495   2.679   3.527
  847SOL    HW2  584   1.647   2.688   3.467
  851SOL     OW  585   1.360   2.724   2.907
  851SOL    HW1  586   1.285   2.724   2.841
  851SOL    HW2  587   1.397   2.632   2.916
  852SOL     OW  588   1.209   2.387   2.137
  852SOL    HW1  589   1.222   2.303   2.191
  852SOL    HW2  590   1.180   2.461   2.197
  855SOL     OW  591   0.732   2.496   2.926
  855SOL    HW1  592   0.791   2.470   2.850
  855SOL    HW2  593   0.704   2.592   2.915
  856SOL     OW  594   1.728   2.797   3.716
  856SOL    HW1  595   1.682   2.790   3.627
  856SOL    HW2  596   1.666   2.841   3.782
  858SOL     OW  597   1.622   2.229   2.236
  858SOL    HW1  598   1.624   2.153   2.300
  858SOL    HW2  599   1.574   2.306   2.276
  859SOL     OW  600   1.023   2.628   2.828
  859SOL    HW1  601   1.038   2.649   2.924
  859SOL    HW2  602   0.993   2.533   2.819
  861SOL     OW  603   1.859   3.380   3.467
  861SOL    HW1  604   1.873   3.407   3.372
  861SOL    HW2  605   1.942   3.402   3.520
  863SOL     OW  606   1.540   2.136   1.987
  863SOL    HW1  607   1.479   2.061   2.010
  863SOL    HW2  608   1.562   2.188   2.070
  864SOL     OW  609   1.303   2.700   1.904
  864SOL    HW1  610   1.337   2.607   1.919
  864SOL    HW2  611   1.321   2.727   1.809
  865SOL     OW  612   1.068   3.195   2.711
  865SOL    HW1  613   1.075   3.111   2.656
  865SOL    HW2  614   1.130   3.264   2.675
  868SOL     OW  615   1.138   2.242   3.540
  868SOL    HW1  616   1.093   2.305   3.604
  868SOL    HW2  617   1.231   2.273   3.523
  869SOL     OW  618   1.160   2.069   3.339
  869SOL    HW1  619   1.160   2.133   3.416
  869SOL    HW2  620   1.188   2.117   3.256
  873SOL     OW  621   1.002   2.658   3.100
  873SOL    HW1  622   1.043   2.626   3.186
  873SOL    HW2  623   0.906   2.631   3.097
  876SOL     OW  624   1.369   2.812   3.522
  876SOL    HW1  625   1.408   2.901   3.542
  876SOL    HW2  626   1.379   2.792   3.425
  877SOL     OW  627   0.815   2.434   2.187
  877SOL    HW1  628   0.822   2.345   2.141
  877SOL    HW2  629   0.721   2.468   2.179
  878SOL     OW  630   1.657   2.466   3.068
  878SOL    HW1  631   1.619   2.397   3.130
  878SOL    HW2  632   1.739   2.430   3.024
  884SOL     OW  633   1.347   2.921   3.096
  884SOL    HW1  634   1.371   2.858   3.022
  884SOL    HW2  635   1.257   2.961   3.078
  885SOL     OW  636   1.302   2.717   2.171
  885SOL    HW1  637   1.216   2.686   2.213
  885SOL    HW2  638   1.298   2.703   2.072
  886SOL     OW  639   1.759   3.609   3.016
  886SOL    HW1  640   1.820   3.639   2.943
  886SOL    HW2  641   1.721   3.520   2.994
  890SOL     OW  642   1.726   1.997   2.385
  890SOL    HW1  643   1.799   1.980   2.318
  890SOL    HW2  644   1.695   1.910   2.423
  891SOL     OW  645   1.388   3.435   2.339
  891SOL    HW1  646   1.455   3.447   2.265
  891SOL    HW2  647   1.348   3.524   2.362
  893SOL     OW  648   1.280   2.789   2.534
  893SOL    HW1  649   1.340   2.708   2.536
  893SOL    HW2  650   1.320   2.858   2.474
  896SOL     OW  651   1.650   3.582   3.256
  896SOL    HW1  652   1.703   3.592   3.172
  896SOL    HW2  653   1.623   3.672   3.290
  897SOL     OW  654   1.841   2.037   2.825
  897SOL    HW1  655   1.880   1.952   2.789
  897SOL    HW2  656   1.743   2.039   2.806
  899SOL     OW  657   1.194   3.474   1.893
  899SOL    HW1  658   1.200   3.381   1.930
  899SOL    HW2  659   1.135   3.474   1.813
  901SOL     OW  660   0.916   2.772   2.153
  901SOL    HW1  661   0.979   2.810   2.085
  901SOL    HW2  662   0.956   2.689   2.192
  902SOL     OW  663   1.504   3.469   1.906
  902SOL    HW1  664   1.412   3.506   1.913
  902SOL    HW2  665   1.542   3.489   1.816
  904SOL     OW  666   1.614   3.154   3.151
  904SOL    HW1  667   1.674   3.157   3.231
  904SOL    HW2  668   1.539   3.218   3.164
  905SOL     OW  669   1.039   2.960   2.558
  905SOL    HW1  670   0.969   2.913   2.612
  905SOL    HW2  671   1.098   2.892   2.515
  906SOL     OW  672   1.014   2.098   2.833
  906SOL    HW1  673   1.006   2.062   2.740
  906SOL    HW2  674   1.012   2.022   2.898
  908SOL     OW  675   1.709   2.247   3.243
  908SOL    HW1  676   1.782   2.316   3.247
  908SOL    HW2  677   1.737   2.172   3.184
  913SOL     OW  678   1.440   2.718   3.260
  913SOL    HW1  679   1.383   2.770   3.197
  913SOL    HW2  680   1.536   2.730   3.236
  915SOL     OW  681   1.183   3.197   1.981
  915SOL    HW1  682   1.084   3.186   1.983
  915SOL    HW2  683   1.217   3.212   2.074
  917SOL     OW  684   1.493   3.629   2.821
  917SOL    HW1  685   1.526   3.693   2.752
  917SOL    HW2  686   1.559   3.623   2.896
  919SOL     OW  687   1.450   3.082   3.495
  919SOL    HW1  688   1.441   3.072   3.594
  919SOL    HW2  689   1.546   3.075   3.469
  921SOL     OW  690   1.674   2.745   3.116
  921SOL    HW1  691   1.647   2.656   3.079
  921SOL    HW2  692   1.675   2.813   3.043
  922SOL     OW  693   1.225   2.187   2.311
  922SOL    HW1  694   1.290   2.113   2.300
  922SOL    HW2  695   1.245   2.237   2.395
  923SOL     OW  696   0.594   2.607   2.514
  923SOL    HW1  697   0.644   2.692   2.495
  923SOL    HW2  698   0.506   2.609   2.466
  924SOL     OW  699   1.777   2.204   3.504
  924SOL    HW1  700   1.760   2.235   3.410
  924SOL    HW2  701   1.693   2.167   3.542
  925SOL     OW  702   1.730   2.796   3.379
  925SOL    HW1  703   1.768   2.887   3.394
  925SOL    HW2  704   1.722   2.779   3.280
  926SOL     OW  705   0.859   3.236   1.878
  926SOL    HW1  706   0.813   3.251   1.966
  926SOL    HW2  707   0.903   3.321   1.848
  928SOL     OW  708   0.859   2.818   2.723
  928SOL    HW1  709   0.913   2.749   2.771
  928SOL    HW2  710   0.827   2.887   2.789
  929SOL     OW  711   1.083   2.846   1.949
  929SOL    HW1  712   1.060   2.899   1.867
  929SOL    HW2  713   1.164   2.790   1.930
  930SOL     OW  714   1.861   3.431   2.713
  930SOL    HW1  715   1.790   3.419   2.643
  930SOL    HW2  716   1.862   3.352   2.773
  934SOL     OW  717   1.824   2.054   3.089
  934SOL    HW1  718   1.820   1.964   3.133
  934SOL    HW2  719   1.827   2.043   2.990
  936SOL     OW  720   1.705   3.349   2.966
  936SOL    HW1  721   1.612   3.324   2.939
  936SOL    HW2  722   1.731   3.299   3.048
  939SOL     OW  723   1.424   2.076   2.974
  939SOL    HW1  724   1.476   2.011   3.029
  939SOL    HW2  725   1.375   2.139   3.035
  940SOL     OW  726   1.001   1.896   3.016
  940SOL    HW1  727   0.938   1.824   2.985
  940SOL    HW2  728   1.094   1.860   3.016
  941SOL     OW  729   0.770   3.192   2.163
  941SOL    HW1  730   0.724   3.105   2.180
  941SOL    HW2  731   0.861   3.189   2.204
  943SOL     OW  732   1.352   1.914   2.030
  943SOL    HW1  733   1.387   1.873   1.946
  943SOL    HW2  734   1.262   1.876   2.050
  944SOL     OW  735   1.300   2.315   2.553
  944SOL    HW1  736   1.241   2.395   2.557
  944SOL    HW2  737   1.315   2.280   2.646
  945SOL     OW  738   1.593   2.083   2.744
  945SOL    HW1  739   1.509   2.082   2.798
  945SOL    HW2  740   1.595   2.166   2.688
  952SOL     OW  741   1.755   2.469   3.955
  952SOL    HW1  742   1.743   2.456   3.856
  952SOL    HW2  743   1.725   2.388   4.004
 1001SOL     OW  744   1.390   2.437   3.802
 1001SOL    HW1  745   1.336   2.416   3.883
 1001SOL    HW2  746   1.481   2.396   3.811
 1011SOL     OW  747   1.540   2.136   3.849
 1011SOL    HW1  748   1.479   2.061   3.872
 1011SOL    HW2  749   1.562   2.188   3.932
 1170SOL     OW  750   1.400   3.831   2.288
 1170SOL    HW1  751   1.376   3.794   2.198
 1170SOL    HW2  752   1.499   3.847   2.292
 1217SOL     OW  753   1.726   3.859   2.385
 1217SOL    HW1  754   1.799   3.842   2.318
 1217SOL    HW2  755   1.695   3.772   2.423
 1219SOL     OW  756   1.841   3.899   2.825
 1219SOL    HW1  757   1.880   3.814   2.789
 1219SOL    HW2  758   1.743   3.901   2.806
 1240SOL     OW  759   1.352   3.776   2.030
 1240SOL    HW1  760   1.387   3.735   1.946
 1240SOL    HW2  761   1.262   3.738   2.050
 1296SOL     OW  762   2.431   1.275   1.165
 1296SOL    HW1  763   2.338   1.268   1.128
 1296SOL    HW2  764   2.442   1.364   1.209
 1300SOL     OW  765   2.630   1.144   1.023
 1300SOL    HW1  766   2.552   1.161   1.083
 1300SOL    HW2  767   2.664   1.231   0.987
 1301SOL     OW  768   2.712   0.798   1.823
 1301SOL    HW1  769   2.708   0.874   1.888
 1301SOL    HW2  770   2.734   0.834   1.732
 1303SOL     OW  771   2.548   1.161   1.803
 1303SOL    HW1  772   2.608   1.240   1.817
 1303SOL    HW2  773   2.462   1.192   1.762
 1304SOL     OW  774   2.197   1.435   1.061
 1304SOL    HW1  775   2.119   1.404   1.008
 1304SOL    HW2  776   2.255   1.493   1.004
 1305SOL     OW  777   3.322   1.505   1.339
 1305SOL    HW1  778   3.346   1.599   1.365
 1305SOL    HW2  779   3.306   1.451   1.421
 1309SOL     OW  780   2.989   1.341   1.690
 1309SOL    HW1  781   3.036   1.341   1.778
 1309SOL    HW2  782   2.941   1.254   1.679
 1312SOL     OW  783   2.482   1.786   1.439
 1312SOL    HW1  784   2.390   1.769   1.474
 1312SOL    HW2  785   2.510   1.878   1.465
 1320SOL     OW  786   1.975   0.737   1.597
 1320SOL    HW1  787   2.063   0.724   1.642
 1320SOL    HW2  788   1.962   0.834   1.575
 1322SOL     OW  789   3.155   1.228   1.423
 1322SOL    HW1  790   3.192   1.155   1.365
 1322SOL    HW2  791   3.207   1.233   1.508
 1324SOL     OW  792   2.059   0.976   1.264
 1324SOL    HW1  793   2.148   0.931   1.250
 1324SOL    HW2  794   1.986   0.911   1.245
 1326SOL     OW  795   3.049   1.792   1.616
 1326SOL    HW1  796   3.073   1.852   1.540
 1326SOL    HW2  797   3.056   1.697   1.586
 1335SOL     OW  798   2.835   0.890   1.572
 1335SOL    HW1  799   2.881   0.806   1.543
 1335SOL    HW2  800   2.779   0.924   1.497
 1339SOL     OW  801   1.992   1.821   1.571
 1339SOL    HW1  802   1.982   1.806   1.670
 1339SOL    HW2  803   1.906   1.857   1.535
 1345SOL     OW  804   2.213   1.801   0.853
 1345SOL    HW1  805   2.263   1.715   0.859
 1345SOL    HW2  806   2.278   1.878   0.850
 1347SOL     OW  807   3.089   1.550   1.506
 1347SOL    HW1  808   3.095   1.473   1.570
 1347SOL    HW2  809   3.037   1.524   1.426
 1350SOL     OW  810   2.323   1.266   1.727
 1350SOL    HW1  811   2.273   1.267   1.641
 1350SOL    HW2  812   2.260   1.248   1.803
 1356SOL     OW  813   2.111   1.785   1.241
 1356SOL    HW1  814   2.168   1.720   1.291
 1356SOL    HW2  815   2.095   1.752   1.148
 1357SOL     OW  816   2.802   1.698   0.904
 1357SOL    HW1  817   2.882   1.641   0.925
 1357SOL    HW2  818   2.753   1.658   0.827
 1362SOL     OW  819   2.750   1.514   1.195
 1362SOL    HW1  820   2.727   1.489   1.101
 1362SOL    HW2  821   2.811   1.445   1.234
 1364SOL     OW  822   2.665   1.402   0.924
 1364SOL    HW1  823   2.755   1.416   0.882
 1364SOL    HW2  824   2.594   1.404   0.853
 1387SOL     OW  825   2.926   1.347   1.340
 1387SOL    HW1  826   2.846   1.324   1.395
 1387SOL    HW2  827   3.009   1.321   1.389
 1388SOL     OW  828   3.454   1.629   1.625
 1388SOL    HW1  829   3.481   1.663   1.535
 1388SOL    HW2  830   3.533   1.591   1.671
 1389SOL     OW  831   2.973   1.195   1.100
 1389SOL    HW1  832   2.933   1.239   1.181
 1389SOL    HW2  833   2.932   1.232   1.017
 1392SOL     OW  834   2.842   1.116   1.719
 1392SOL    HW1  835   2.743   1.122   1.729
 1392SOL    HW2  836   2.865   1.036   1.663
 1396SOL     OW  837   1.926   1.564   1.331
 1396SOL    HW1  838   1.880   1.646   1.297
 1396SOL    HW2  839   2.024   1.583   1.340
 1400SOL     OW  840   3.134   1.445   1.142
 1400SOL    HW1  841   3.181   1.458   1.229
 1400SOL    HW2  842   3.068   1.371   1.151
 1402SOL     OW  843   2.216   1.510   1.329
 1402SOL    HW1  844   2.195   1.466   1.242
 1402SOL    HW2  845   2.313   1.536   1.332
 1403SOL     OW  846   2.264   0.751   1.598
 1403SOL    HW1  847   2.332   0.806   1.551
 1403SOL    HW2  848   2.304   0.663   1.625
 1411SOL     OW  849   1.899   1.310   1.282
 1411SOL    HW1  850   1.952   1.261   1.350
 1411SOL    HW2  851   1.921   1.408   1.287
 1417SOL     OW  852   2.842   1.573   1.700
 1417SOL    HW1  853   2.822   1.617   1.612
 1417SOL    HW2  854   2.881   1.482   1.684
 1418SOL     OW  855   3.721   1.518   1.605
 1418SOL    HW1  856   3.735   1.545   1.510
 1418SOL    HW2  857   3.804   1.540   1.658
 1419SOL     OW  858   2.212   0.898   1.804
 1419SOL    HW1  859   2.288   0.942   1.852
 1419SOL    HW2  860   2.247   0.851   1.722
 1428SOL     OW  861   1.950   1.801   0.927
 1428SOL    HW1  862   1.908   1.715   0.900
 1428SOL    HW2  863   2.044   1.804   0.893
 1429SOL     OW  864   2.366   1.568   0.910
 1429SOL    HW1  865   2.432   1.642   0.919
 1429SOL    HW2  866   2.410   1.489   0.868
 1433SOL     OW  867   3.231   0.950   1.660
 1433SOL    HW1  868   3.270   1.039   1.680
 1433SOL    HW2  869   3.241   0.930   1.563
 1436SOL     OW  870   2.114   1.564   1.744
 1436SOL    HW1  871   2.084   1.621   1.820
 1436SOL    HW2  872   2.107   1.467   1.770
 1438SOL     OW  873   2.792   1.678   1.465
 1438SOL    HW1  874   2.768   1.660   1.370
 1438SOL    HW2  875   2.822   1.772   1.475
 1440SOL     OW  876   2.021   1.137   1.466
 1440SOL    HW1  877   2.043   1.076   1.542
 1440SOL    HW2  878   2.031   1.088   1.380
 1444SOL     OW  879   3.114   1.731   1.128
 1444SOL    HW1  880   3.198   1.736   1.074
 1444SOL    HW2  881   3.091   1.635   1.146
 1445SOL     OW  882   1.945   1.258   1.022
 1445SOL    HW1  883   1.940   1.257   1.122
 1445SOL    HW2  884   1.862   1.217   0.984
 1446SOL     OW  885   2.550   1.662   1.716
 1446SOL    HW1  886   2.494   1.743   1.725
 1446SOL    HW2  887   2.602   1.666   1.630
 1450SOL     OW  888   1.992   1.794   1.851
 1450SOL    HW1  889   1.951   1.720   1.904
 1450SOL    HW2  890   2.056   1.845   1.909
 1452SOL     OW  891   2.692   1.273   1.422
 1452SOL    HW1  892   2.687   1.306   1.517
 1452SOL    HW2  893   2.606   1.292   1.376
 1454SOL     OW  894   3.512   1.720   1.394
 1454SOL    HW1  895   3.565   1.730   1.310
 1454SOL    HW2  896   3.485   1.810   1.428
 1458SOL     OW  897   2.684   1.002   1.372
 1458SOL    HW1  898   2.724   1.001   1.280
 1458SOL    HW2  899   2.694   1.094   1.412
 1461SOL     OW  900   2.234   1.288   1.490
 1461SOL    HW1  901   2.221   1.381   1.456
 1461SOL    HW2  902   2.150   1.236   1.477
 1468SOL     OW  903   1.967   1.013   1.726
 1468SOL    HW1  904   1.890   0.980   1.780
 1468SOL    HW2  905   2.052   0.983   1.768
 1474SOL     OW  906   2.475   0.842   1.431
 1474SOL    HW1  907   2.531   0.923   1.414
 1474SOL    HW2  908   2.534   0.762   1.434
 1475SOL     OW  909   3.355   1.767   0.959
 1475SOL    HW1  910   3.388   1.831   0.890
 1475SOL    HW2  911   3.421   1.761   1.034
 1477SOL     OW  912   3.312   1.220   1.633
 1477SOL    HW1  913   3.303   1.210   1.732
 1477SOL    HW2  914   3.408   1.213   1.607
 1478SOL     OW  915   2.252   1.741   1.560
 1478SOL    HW1  916   2.161   1.782   1.558
 1478SOL    HW2  917   2.245   1.647   1.592
 1485SOL     OW  918   2.523   1.790   0.953
 1485SOL    HW1  919   2.477   1.878   0.940
 1485SOL    HW2  920   2.622   1.802   0.946
 1489SOL     OW  921   2.083   1.314   1.844
 1489SOL    HW1  922   2.018   1.241   1.823
 1489SOL    HW2  923   2.087   1.328   1.942
 1491SOL     OW  924   2.534   1.391   1.624
 1491SOL    HW1  925   2.456   1.341   1.662
 1491SOL    HW2  926   2.531   1.486   1.655
 1500SOL     OW  927   2.480   1.567   1.284
 1500SOL    HW1  928   2.475   1.649   1.341
 1500SOL    HW2  929   2.569   1.564   1.239
 1506SOL     OW  930   2.092   0.628   1.975
 1506SOL    HW1  931   1.999   0.626   2.012
 1506SOL    HW2  932   2.093   0.589   1.883
 1509SOL     OW  933   2.431   1.275   3.027
 1509SOL    HW1  934   2.338   1.268   2.990
 1509SOL    HW2  935   2.442   1.364   3.071
 1510SOL     OW  936   3.417   1.511   2.565
 1510SOL    HW1  937   3.360   1.495   2.646
 1510SOL    HW2  938   3.358   1.521   2.485
 1511SOL     OW  939   2.997   0.703   2.579
 1511SOL    HW1  940   3.054   0.781   2.554
 1511SOL    HW2  941   2.937   0.729   2.655
 1513SOL     OW  942   2.630   1.144   2.885
 1513SOL    HW1  943   2.552   1.161   2.945
 1513SOL    HW2  944   2.664   1.231   2.849
 1515SOL     OW  945   2.547   1.012   2.527
 1515SOL    HW1  946   2.616   0.996   2.597
 1515SOL    HW2  947   2.474   1.069   2.565
 1516SOL     OW  948   2.548   1.161   3.665
 1516SOL    HW1  949   2.608   1.240   3.679
 1516SOL    HW2  950   2.462   1.192   3.624
 1517SOL     OW  951   2.197   1.435   2.923
 1517SOL    HW1  952   2.119   1.404   2.870
 1517SOL    HW2  953   2.255   1.493   2.866
 1518SOL     OW  954   3.322   1.505   3.201
 1518SOL    HW1  955   3.346   1.599   3.227
 1518SOL    HW2  956   3.306   1.451   3.283
 1521SOL     OW  957   2.093   1.713   2.345
 1521SOL    HW1  958   2.127   1.790   2.399
 1521SOL    HW2  959   2.137   1.713   2.255
 1522SOL     OW  960   2.989   1.341   3.552
 1522SOL    HW1  961   3.036   1.341   3.640
 1522SOL    HW2  962   2.941   1.254   3.541
 1523SOL     OW  963   2.092   1.434   2.400
 1523SOL    HW1  964   2.066   1.530   2.400
 1523SOL    HW2  965   2.021   1.380   2.445
 1524SOL     OW  966   2.102   1.091   2.748
 1524SOL    HW1  967   2.116   1.007   2.800
 1524SOL    HW2  968   2.047   1.155   2.803
 1525SOL     OW  969   2.482   1.786   3.301
 1525SOL    HW1  970   2.390   1.769   3.336
 1525SOL    HW2  971   2.510   1.878   3.327
 1526SOL     OW  972   2.468   0.964   1.985
 1526SOL    HW1  973   2.475   1.048   1.931
 1526SOL    HW2  974   2.514   0.977   2.073
 1528SOL     OW  975   1.984   0.643   2.425
 1528SOL    HW1  976   1.939   0.555   2.442
 1528SOL    HW2  977   1.983   0.697   2.509
 1529SOL     OW  978   3.704   1.767   2.221
 1529SOL    HW1  979   3.758   1.738   2.301
 1529SOL    HW2  980   3.734   1.857   2.192
 1530SOL     OW  981   1.889   1.596   1.979
 1530SOL    HW1  982   1.870   1.500   2.000
 1530SOL    HW2  983   1.856   1.654   2.054
 1532SOL     OW  984   3.503   1.108   2.294
 1532SOL    HW1  985   3.589   1.110   2.242
 1532SOL    HW2  986   3.517   1.155   2.382
 1534SOL     OW  987   2.475   1.365   2.588
 1534SOL    HW1  988   2.426   1.278   2.597
 1534SOL    HW2  989   2.452   1.408   2.501
 1535SOL     OW  990   3.155   1.228   3.285
 1535SOL    HW1  991   3.192   1.155   3.227
 1535SOL    HW2  992   3.207   1.233   3.370
 1537SOL     OW  993   2.059   0.976   3.126
 1537SOL    HW1  994   2.148   0.931   3.112
 1537SOL    HW2  995   1.986   0.911   3.107
 1538SOL     OW  996   3.387   0.999   2.052
 1538SOL    HW1  997   3.324   0.923   2.065
 1538SOL    HW2  998   3.435   1.017   2.138
 1539SOL     OW  999   3.049   1.792   3.478
 1539SOL    HW1 1000   3.073   1.852   3.402
 1539SOL    HW2 1001   3.056   1.697   3.448
 1541SOL     OW 1002   3.328   1.417   2.815
 1541SOL    HW1 1003   3.269   1.423   2.895
 1541SOL    HW2 1004   3.313   1.329   2.769
 1542SOL     OW 1005   3.529   1.714   2.434
 1542SOL    HW1 1006   3.488   1.691   2.346
 1542SOL    HW2 1007   3.511   1.640   2.499
 1543SOL     OW 1008   2.460   0.729   2.132
 1543SOL    HW1 1009   2.484   0.798   2.064
 1543SOL    HW2 1010   2.382   0.762   2.186
 1545SOL     OW 1011   3.438   1.662   2.169
 1545SOL    HW1 1012   3.527   1.708   2.172
 1545SOL    HW2 1013   3.417   1.638   2.074
 1550SOL     OW 1014   2.903   0.701   2.291
 1550SOL    HW1 1015   2.929   0.697   2.387
 1550SOL    HW2 1016   2.818   0.650   2.277
 1551SOL     OW 1017   1.938   0.811   2.651
 1551SOL    HW1 1018   2.037   0.799   2.660
 1551SOL    HW2 1019   1.914   0.906   2.672
 1552SOL     OW 1020   1.992   1.821   3.433
 1552SOL    HW1 1021   1.982   1.806   3.532
 1552SOL    HW2 1022   1.906   1.857   3.397
 1555SOL     OW 1023   3.224   1.144   2.407
 1555SOL    HW1 1024   3.307   1.115   2.359
 1555SOL    HW2 1025   3.175   1.211   2.351
 1557SOL     OW 1026   2.870   1.456   2.339
 1557SOL    HW1 1027   2.824   1.528   2.287
 1557SOL    HW2 1028   2.866   1.476   2.437
 1558SOL     OW 1029   2.213   1.801   2.715
 1558SOL    HW1 1030   2.263   1.715   2.721
 1558SOL    HW2 1031   2.278   1.878   2.712
 1560SOL     OW 1032   3.089   1.550   3.368
 1560SOL    HW1 1033   3.095   1.473   3.432
 1560SOL    HW2 1034   3.037   1.524   3.288
 1561SOL     OW 1035   2.183   0.943   2.104
 1561SOL    HW1 1036   2.265   0.982   2.062
 1561SOL    HW2 1037   2.156   0.861   2.055
 1563SOL     OW 1038   2.323   1.266   3.589
 1563SOL    HW1 1039   2.273   1.267   3.503
 1563SOL    HW2 1040   2.260   1.248   3.665
 1564SOL     OW 1041   2.973   1.776   2.099
 1564SOL    HW1 1042   2.913   1.714   2.149
 1564SOL    HW2 1043   3.004   1.732   2.014
 1566SOL     OW 1044   3.494   1.377   1.943
 1566SOL    HW1 1045   3.462   1.471   1.933
 1566SOL    HW2 1046   3.418   1.314   1.931
 1567SOL     OW 1047   2.326   1.743   2.185
 1567SOL    HW1 1048   2.359   1.782   2.271
 1567SOL    HW2 1049   2.402   1.736   2.120
 1569SOL     OW 1050   2.111   1.785   3.103
 1569SOL    HW1 1051   2.168   1.720   3.153
 1569SOL    HW2 1052   2.095   1.752   3.010
 1570SOL     OW 1053   2.802   1.698   2.766
 1570SOL    HW1 1054   2.882   1.641   2.787
 1570SOL    HW2 1055   2.753   1.658   2.689
 1571SOL     OW 1056   2.244   0.700   2.342
 1571SOL    HW1 1057   2.289   0.610   2.339
 1571SOL    HW2 1058   2.150   0.689   2.375
 1575SOL     OW 1059   2.750   1.514   3.057
 1575SOL    HW1 1060   2.727   1.489   2.963
 1575SOL    HW2 1061   2.811   1.445   3.096
 1577SOL     OW 1062   2.665   1.402   2.786
 1577SOL    HW1 1063   2.755   1.416   2.744
 1577SOL    HW2 1064   2.594   1.404   2.715
 1580SOL     OW 1065   3.296   1.188   1.903
 1580SOL    HW1 1066   3.328   1.112   1.960
 1580SOL    HW2 1067   3.204   1.215   1.933
 1584SOL     OW 1068   3.089   1.570   2.655
 1584SOL    HW1 1069   3.110   1.644   2.590
 1584SOL    HW2 1070   3.157   1.570   2.728
 1585SOL     OW 1071   2.321   1.152   2.603
 1585SOL    HW1 1072   2.250   1.125   2.668
 1585SOL    HW2 1073   2.295   1.124   2.510
 1586SOL     OW 1074   3.133   1.797   2.453
 1586SOL    HW1 1075   3.177   1.861   2.389
 1586SOL    HW2 1076   3.083   1.849   2.523
 1592SOL     OW 1077   3.291   1.173   2.729
 1592SOL    HW1 1078   3.236   1.089   2.722
 1592SOL    HW2 1079   3.317   1.202   2.637
 1595SOL     OW 1080   2.350   1.385   2.036
 1595SOL    HW1 1081   2.263   1.370   2.083
 1595SOL    HW2 1082   2.333   1.411   1.941
 1596SOL     OW 1083   3.526   1.280   2.519
 1596SOL    HW1 1084   3.625   1.288   2.533
 1596SOL    HW2 1085   3.481   1.364   2.550
 1600SOL     OW 1086   2.926   1.347   3.202
 1600SOL    HW1 1087   2.846   1.324   3.257
 1600SOL    HW2 1088   3.009   1.321   3.251
 1601SOL     OW 1089   3.454   1.629   3.487
 1601SOL    HW1 1090   3.481   1.663   3.397
 1601SOL    HW2 1091   3.533   1.591   3.533
 1602SOL     OW 1092   2.973   1.195   2.962
 1602SOL    HW1 1093   2.933   1.239   3.043
 1602SOL    HW2 1094   2.932   1.232   2.879
 1606SOL     OW 1095   2.567   1.050   2.230
 1606SOL    HW1 1096   2.553   1.057   2.329
 1606SOL    HW2 1097   2.651   0.999   2.212
 1607SOL     OW 1098   2.272   0.813   3.113
 1607SOL    HW1 1099   2.358   0.825   3.163
 1607SOL    HW2 1100   2.230   0.726   3.140
 1609SOL     OW 1101   1.926   1.564   3.193
 1609SOL    HW1 1102   1.880   1.646   3.159
 1609SOL    HW2 1103   2.024   1.583   3.202
 1610SOL     OW 1104   2.229   1.100   2.363
 1610SOL    HW1 1105   2.222   1.183   2.307
 1610SOL    HW2 1106   2.233   1.020   2.303
 1612SOL     OW 1107   3.114   1.348   2.250
 1612SOL    HW1 1108   3.164   1.425   2.290
 1612SOL    HW2 1109   3.019   1.350   2.282
 1613SOL     OW 1110   3.134   1.445   3.004
 1613SOL    HW1 1111   3.181   1.458   3.091
 1613SOL    HW2 1112   3.068   1.371   3.013
 1615SOL     OW 1113   2.216   1.510   3.191
 1615SOL    HW1 1114   2.195   1.466   3.104
 1615SOL    HW2 1115   2.313   1.536   3.194
 1620SOL     OW 1116   2.435   0.870   2.891
 1620SOL    HW1 1117   2.479   0.959   2.882
 1620SOL    HW2 1118   2.372   0.870   2.968
 1624SOL     OW 1119   1.899   1.310   3.144
 1624SOL    HW1 1120   1.952   1.261   3.212
 1624SOL    HW2 1121   1.921   1.408   3.149
 1629SOL     OW 1122   2.885   0.766   2.828
 1629SOL    HW1 1123   2.900   0.787   2.924
 1629SOL    HW2 1124   2.855   0.671   2.819
 1630SOL     OW 1125   2.842   1.573   3.562
 1630SOL    HW1 1126   2.822   1.617   3.474
 1630SOL    HW2 1127   2.881   1.482   3.546
 1634SOL     OW 1128   3.165   0.838   1.904
 1634SOL    HW1 1129   3.199   0.745   1.919
 1634SOL    HW2 1130   3.183   0.865   1.809
 1635SOL     OW 1131   2.930   1.333   2.711
 1635SOL    HW1 1132   2.937   1.249   2.656
 1635SOL    HW2 1133   2.992   1.402   2.675
 1636SOL     OW 1134   2.181   0.810   2.811
 1636SOL    HW1 1135   2.274   0.846   2.816
 1636SOL    HW2 1136   2.175   0.725   2.863
 1640SOL     OW 1137   1.870   1.326   2.062
 1640SOL    HW1 1138   1.777   1.347   2.031
 1640SOL    HW2 1139   1.880   1.227   2.075
 1641SOL     OW 1140   1.950   1.801   2.789
 1641SOL    HW1 1141   1.908   1.715   2.762
 1641SOL    HW2 1142   2.044   1.804   2.755
 1642SOL     OW 1143   2.366   1.568   2.772
 1642SOL    HW1 1144   2.432   1.642   2.781
 1642SOL    HW2 1145   2.410   1.489   2.730
 1643SOL     OW 1146   2.864   0.796   3.100
 1643SOL    HW1 1147   2.905   0.764   3.186
 1643SOL    HW2 1148   2.768   0.769   3.097
 1647SOL     OW 1149   2.677   0.572   2.187
 1647SOL    HW1 1150   2.684   0.483   2.141
 1647SOL    HW2 1151   2.583   0.606   2.179
 1649SOL     OW 1152   2.114   1.564   3.606
 1649SOL    HW1 1153   2.084   1.621   3.682
 1649SOL    HW2 1154   2.107   1.467   3.632
 1651SOL     OW 1155   2.792   1.678   3.327
 1651SOL    HW1 1156   2.768   1.660   3.232
 1651SOL    HW2 1157   2.822   1.772   3.337
 1653SOL     OW 1158   2.021   1.137   3.328
 1653SOL    HW1 1159   2.043   1.076   3.404
 1653SOL    HW2 1160   2.031   1.088   3.242
 1654SOL     OW 1161   3.209   1.059   3.096
 1654SOL    HW1 1162   3.233   0.996   3.022
 1654SOL    HW2 1163   3.119   1.099   3.078
 1655SOL     OW 1164   3.164   0.855   2.171
 1655SOL    HW1 1165   3.078   0.824   2.213
 1655SOL    HW2 1166   3.160   0.841   2.072
 1656SOL     OW 1167   3.621   1.747   3.016
 1656SOL    HW1 1168   3.682   1.777   2.943
 1656SOL    HW2 1169   3.583   1.658   2.994
 1657SOL     OW 1170   3.114   1.731   2.990
 1657SOL    HW1 1171   3.198   1.736   2.936
 1657SOL    HW2 1172   3.091   1.635   3.008
 1658SOL     OW 1173   1.945   1.258   2.884
 1658SOL    HW1 1174   1.940   1.257   2.984
 1658SOL    HW2 1175   1.862   1.217   2.846
 1659SOL     OW 1176   2.550   1.662   3.578
 1659SOL    HW1 1177   2.494   1.743   3.587
 1659SOL    HW2 1178   2.602   1.666   3.492
 1661SOL     OW 1179   3.250   1.573   2.339
 1661SOL    HW1 1180   3.317   1.585   2.265
 1661SOL    HW2 1181   3.210   1.662   2.362
 1662SOL     OW 1182   1.992   1.794   3.713
 1662SOL    HW1 1183   1.951   1.720   3.766
 1662SOL    HW2 1184   2.056   1.845   3.771
 1663SOL     OW 1185   3.142   0.927   2.534
 1663SOL    HW1 1186   3.202   0.846   2.536
 1663SOL    HW2 1187   3.182   0.996   2.474
 1664SOL     OW 1188   2.692   1.273   3.284
 1664SOL    HW1 1189   2.687   1.306   3.379
 1664SOL    HW2 1190   2.606   1.292   3.238
 1665SOL     OW 1191   2.534   1.616   2.016
 1665SOL    HW1 1192   2.543   1.626   1.917
 1665SOL    HW2 1193   2.494   1.527   2.037
 1666SOL     OW 1194   3.512   1.720   3.256
 1666SOL    HW1 1195   3.565   1.730   3.172
 1666SOL    HW2 1196   3.485   1.810   3.290
 1669SOL     OW 1197   3.056   1.612   1.893
 1669SOL    HW1 1198   3.062   1.519   1.930
 1669SOL    HW2 1199   2.997   1.612   1.813
 1670SOL     OW 1200   2.684   1.002   3.234
 1670SOL    HW1 1201   2.724   1.001   3.142
 1670SOL    HW2 1202   2.694   1.094   3.274
 1671SOL     OW 1203   2.778   0.910   2.153
 1671SOL    HW1 1204   2.841   0.948   2.085
 1671SOL    HW2 1205   2.818   0.827   2.192
 1672SOL     OW 1206   3.366   1.607   1.906
 1672SOL    HW1 1207   3.274   1.644   1.913
 1672SOL    HW2 1208   3.404   1.627   1.816
 1673SOL     OW 1209   2.234   1.288   3.352
 1673SOL    HW1 1210   2.221   1.381   3.318
 1673SOL    HW2 1211   2.150   1.236   3.339
 1674SOL     OW 1212   3.476   1.292   3.151
 1674SOL    HW1 1213   3.536   1.295   3.231
 1674SOL    HW2 1214   3.401   1.356   3.164
 1675SOL     OW 1215   2.901   1.098   2.558
 1675SOL    HW1 1216   2.831   1.051   2.612
 1675SOL    HW2 1217   2.960   1.030   2.515
 1677SOL     OW 1218   2.452   1.487   2.353
 1677SOL    HW1 1219   2.494   1.429   2.283
 1677SOL    HW2 1220   2.408   1.566   2.309
 1679SOL     OW 1221   2.117   1.348   2.152
 1679SOL    HW1 1222   2.021   1.349   2.125
 1679SOL    HW2 1223   2.129   1.401   2.236
 1685SOL     OW 1224   3.045   1.335   1.981
 1685SOL    HW1 1225   2.946   1.324   1.983
 1685SOL    HW2 1226   3.079   1.350   2.074
 1686SOL     OW 1227   2.475   0.842   3.293
 1686SOL    HW1 1228   2.531   0.923   3.276
 1686SOL    HW2 1229   2.534   0.762   3.296
 1687SOL     OW 1230   3.355   1.767   2.821
 1687SOL    HW1 1231   3.388   1.831   2.752
 1687SOL    HW2 1232   3.421   1.761   2.896
 1690SOL     OW 1233   2.252   1.741   3.422
 1690SOL    HW1 1234   2.161   1.782   3.420
 1690SOL    HW2 1235   2.245   1.647   3.454
 1693SOL     OW 1236   2.456   0.745   2.514
 1693SOL    HW1 1237   2.506   0.830   2.495
 1693SOL    HW2 1238   2.368   0.747   2.466
 1696SOL     OW 1239   2.721   1.374   1.878
 1696SOL    HW1 1240   2.675   1.389   1.966
 1696SOL    HW2 1241   2.765   1.459   1.848
 1697SOL     OW 1242   2.523   1.790   2.815
 1697SOL    HW1 1243   2.477   1.878   2.802
 1697SOL    HW2 1244   2.622   1.802   2.808
 1698SOL     OW 1245   2.721   0.956   2.723
 1698SOL    HW1 1246   2.775   0.887   2.771
 1698SOL    HW2 1247   2.689   1.025   2.789
 1699SOL     OW 1248   2.945   0.984   1.949
 1699SOL    HW1 1249   2.922   1.037   1.867
 1699SOL    HW2 1250   3.026   0.928   1.930
 1700SOL     OW 1251   3.723   1.569   2.713
 1700SOL    HW1 1252   3.652   1.557   2.643
 1700SOL    HW2 1253   3.724   1.490   2.773
 1701SOL     OW 1254   2.083   1.314   3.706
 1701SOL    HW1 1255   2.018   1.241   3.685
 1701SOL    HW2 1256   2.087   1.328   3.804
 1702SOL     OW 1257   1.941   1.240   2.515
 1702SOL    HW1 1258   1.940   1.193   2.603
 1702SOL    HW2 1259   2.023   1.212   2.464
 1703SOL     OW 1260   2.534   1.391   3.486
 1703SOL    HW1 1261   2.456   1.341   3.524
 1703SOL    HW2 1262   2.531   1.486   3.517
 1706SOL     OW 1263   3.567   1.487   2.966
 1706SOL    HW1 1264   3.474   1.462   2.939
 1706SOL    HW2 1265   3.593   1.437   3.048
 1708SOL     OW 1266   2.674   1.586   2.549
 1708SOL    HW1 1267   2.706   1.596   2.455
 1708SOL    HW2 1268   2.595   1.524   2.551
 1711SOL     OW 1269   2.632   1.330   2.163
 1711SOL    HW1 1270   2.586   1.243   2.180
 1711SOL    HW2 1271   2.723   1.327   2.204
 1712SOL     OW 1272   2.480   1.567   3.146
 1712SOL    HW1 1273   2.475   1.649   3.203
 1712SOL    HW2 1274   2.569   1.564   3.101
 1716SOL     OW 1275   1.901   1.077   2.162
 1716SOL    HW1 1276   2.000   1.066   2.153
 1716SOL    HW2 1277   1.861   0.991   2.194
 1717SOL     OW 1278   2.737   1.646   2.199
 1717SOL    HW1 1279   2.660   1.611   2.145
 1717SOL    HW2 1280   2.705   1.717   2.261
 1732SOL     OW 1281   1.889   1.596   3.841
 1732SOL    HW1 1282   1.870   1.500   3.862
 1732SOL    HW2 1283   1.856   1.654   3.916
 1789SOL     OW 1284   2.534   1.616   3.878
 1789SOL    HW1 1285   2.543   1.626   3.779
 1789SOL    HW2 1286   2.494   1.527   3.899
 1792SOL     OW 1287   3.056   1.612   3.755
 1792SOL    HW1 1288   3.062   1.519   3.792
 1792SOL    HW2 1289   2.997   1.612   3.675
 1803SOL     OW 1290   2.721   1.374   3.740
 1803SOL    HW1 1291   2.675   1.389   3.828
 1803SOL    HW2 1292   2.765   1.459   3.710
 1816SOL     OW 1293   2.087   2.137   0.996
 1816SOL    HW1 1294   2.122   2.120   1.088
 1816SOL    HW2 1295   1.999   2.092   0.984
 1817SOL     OW 1296   1.881   2.230   0.647
 1817SOL    HW1 1297   1.799   2.273   0.686
 1817SOL    HW2 1298   1.853   2.157   0.584
 1818SOL     OW 1299   2.431   3.137   1.165
 1818SOL    HW1 1300   2.338   3.130   1.128
 1818SOL    HW2 1301   2.442   3.226   1.209
 1820SOL     OW 1302   2.997   2.565   0.717
 1820SOL    HW1 1303   3.054   2.643   0.692
 1820SOL    HW2 1304   2.937   2.591   0.793
 1822SOL     OW 1305   2.630   3.006   1.023
 1822SOL    HW1 1306   2.552   3.023   1.083
 1822SOL    HW2 1307   2.664   3.093   0.987
 1823SOL     OW 1308   2.712   2.660   1.823
 1823SOL    HW1 1309   2.708   2.736   1.888
 1823SOL    HW2 1310   2.734   2.696   1.732
 1824SOL     OW 1311   2.547   2.874   0.665
 1824SOL    HW1 1312   2.616   2.858   0.735
 1824SOL    HW2 1313   2.474   2.931   0.703
 1825SOL     OW 1314   2.548   3.023   1.803
 1825SOL    HW1 1315   2.608   3.102   1.817
 1825SOL    HW2 1316   2.462   3.054   1.762
 1826SOL     OW 1317   2.197   3.297   1.061
 1826SOL    HW1 1318   2.119   3.266   1.008
 1826SOL    HW2 1319   2.255   3.355   1.004
 1827SOL     OW 1320   3.322   3.367   1.339
 1827SOL    HW1 1321   3.346   3.461   1.365
 1827SOL    HW2 1322   3.306   3.313   1.421
 1828SOL     OW 1323   2.300   2.254   1.499
 1828SOL    HW1 1324   2.382   2.198   1.508
 1828SOL    HW2 1325   2.219   2.196   1.503
 1831SOL     OW 1326   2.989   3.203   1.690
 1831SOL    HW1 1327   3.036   3.203   1.778
 1831SOL    HW2 1328   2.941   3.116   1.679
 1833SOL     OW 1329   2.102   2.953   0.886
 1833SOL    HW1 1330   2.116   2.869   0.938
 1833SOL    HW2 1331   2.047   3.017   0.941
 1834SOL     OW 1332   2.482   3.648   1.439
 1834SOL    HW1 1333   2.390   3.631   1.474
 1834SOL    HW2 1334   2.510   3.740   1.465
 1836SOL     OW 1335   3.456   1.976   1.480
 1836SOL    HW1 1336   3.438   2.043   1.408
 1836SOL    HW2 1337   3.453   2.022   1.569
 1837SOL     OW 1338   1.984   2.505   0.563
 1837SOL    HW1 1339   1.939   2.417   0.580
 1837SOL    HW2 1340   1.983   2.559   0.647
 1842SOL     OW 1341   1.975   2.599   1.597
 1842SOL    HW1 1342   2.063   2.586   1.642
 1842SOL    HW2 1343   1.962   2.696   1.575
 1844SOL     OW 1344   3.155   3.090   1.423
 1844SOL    HW1 1345   3.192   3.017   1.365
 1844SOL    HW2 1346   3.207   3.095   1.508
 1846SOL     OW 1347   2.059   2.838   1.264
 1846SOL    HW1 1348   2.148   2.793   1.250
 1846SOL    HW2 1349   1.986   2.773   1.245
 1848SOL     OW 1350   3.049   3.654   1.616
 1848SOL    HW1 1351   3.073   3.714   1.540
 1848SOL    HW2 1352   3.056   3.559   1.586
 1849SOL     OW 1353   2.179   2.113   1.801
 1849SOL    HW1 1354   2.250   2.184   1.807
 1849SOL    HW2 1355   2.091   2.152   1.829
 1853SOL     OW 1356   3.143   2.207   0.944
 1853SOL    HW1 1357   3.057   2.157   0.931
 1853SOL    HW2 1358   3.205   2.153   1.000
 1855SOL     OW 1359   2.669   2.467   1.465
 1855SOL    HW1 1360   2.622   2.464   1.554
 1855SOL    HW2 1361   2.618   2.412   1.399
 1856SOL     OW 1362   3.256   2.331   1.674
 1856SOL    HW1 1363   3.236   2.374   1.762
 1856SOL    HW2 1364   3.334   2.269   1.683
 1857SOL     OW 1365   2.835   2.752   1.572
 1857SOL    HW1 1366   2.881   2.668   1.543
 1857SOL    HW2 1367   2.779   2.786   1.497
 1858SOL     OW 1368   2.853   2.272   1.242
 1858SOL    HW1 1369   2.776   2.306   1.296
 1858SOL    HW2 1370   2.819   2.221   1.163
 1860SOL     OW 1371   1.938   2.673   0.789
 1860SOL    HW1 1372   2.037   2.661   0.798
 1860SOL    HW2 1373   1.914   2.768   0.810
 1861SOL     OW 1374   1.992   3.683   1.571
 1861SOL    HW1 1375   1.982   3.668   1.670
 1861SOL    HW2 1376   1.906   3.719   1.535
 1863SOL     OW 1377   3.581   2.447   1.831
 1863SOL    HW1 1378   3.555   2.536   1.795
 1863SOL    HW2 1379   3.579   2.379   1.758
 1865SOL     OW 1380   2.412   2.058   0.885
 1865SOL    HW1 1381   2.407   2.053   0.985
 1865SOL    HW2 1382   2.414   2.154   0.856
 1869SOL     OW 1383   3.089   3.412   1.506
 1869SOL    HW1 1384   3.095   3.335   1.570
 1869SOL    HW2 1385   3.037   3.386   1.426
 1872SOL     OW 1386   2.323   3.128   1.727
 1872SOL    HW1 1387   2.273   3.129   1.641
 1872SOL    HW2 1388   2.260   3.110   1.803
 1874SOL     OW 1389   2.064   2.147   1.498
 1874SOL    HW1 1390   1.984   2.207   1.485
 1874SOL    HW2 1391   2.054   2.098   1.584
 1878SOL     OW 1392   2.111   3.647   1.241
 1878SOL    HW1 1393   2.168   3.582   1.291
 1878SOL    HW2 1394   2.095   3.614   1.148
 1881SOL     OW 1395   3.409   2.084   1.729
 1881SOL    HW1 1396   3.404   2.121   1.821
 1881SOL    HW2 1397   3.337   2.015   1.717
 1882SOL     OW 1398   2.643   2.126   1.749
 1882SOL    HW1 1399   2.710   2.065   1.792
 1882SOL    HW2 1400   2.570   2.145   1.814
 1883SOL     OW 1401   2.750   3.376   1.195
 1883SOL    HW1 1402   2.727   3.351   1.101
 1883SOL    HW2 1403   2.811   3.307   1.234
 1884SOL     OW 1404   3.213   2.452   1.433
 1884SOL    HW1 1405   3.241   2.409   1.518
 1884SOL    HW2 1406   3.238   2.548   1.434
 1885SOL     OW 1407   2.665   3.264   0.924
 1885SOL    HW1 1408   2.755   3.278   0.882
 1885SOL    HW2 1409   2.594   3.266   0.853
 1886SOL     OW 1410   2.784   2.365   0.899
 1886SOL    HW1 1411   2.759   2.356   0.803
 1886SOL    HW2 1412   2.832   2.283   0.930
 1891SOL     OW 1413   2.938   2.545   1.464
 1891SOL    HW1 1414   2.858   2.484   1.467
 1891SOL    HW2 1415   3.019   2.492   1.440
 1893SOL     OW 1416   2.321   3.014   0.741
 1893SOL    HW1 1417   2.250   2.987   0.806
 1893SOL    HW2 1418   2.295   2.986   0.648
 1896SOL     OW 1419   1.940   2.418   1.386
 1896SOL    HW1 1420   2.032   2.417   1.345
 1896SOL    HW2 1421   1.934   2.492   1.453
 1897SOL     OW 1422   2.423   2.084   1.147
 1897SOL    HW1 1423   2.461   2.000   1.184
 1897SOL    HW2 1424   2.335   2.103   1.191
 1898SOL     OW 1425   2.728   2.316   0.642
 1898SOL    HW1 1426   2.696   2.388   0.580
 1898SOL    HW2 1427   2.752   2.235   0.589
 1899SOL     OW 1428   2.879   1.901   0.753
 1899SOL    HW1 1429   2.807   1.906   0.684
 1899SOL    HW2 1430   2.855   1.832   0.822
 1901SOL     OW 1431   3.328   2.452   0.992
 1901SOL    HW1 1432   3.298   2.357   0.999
 1901SOL    HW2 1433   3.401   2.468   1.058
 1907SOL     OW 1434   3.616   3.085   1.588
 1907SOL    HW1 1435   3.707   3.046   1.575
 1907SOL    HW2 1436   3.624   3.181   1.612
 1908SOL     OW 1437   2.926   3.209   1.340
 1908SOL    HW1 1438   2.846   3.186   1.395
 1908SOL    HW2 1439   3.009   3.183   1.389
 1909SOL     OW 1440   3.454   3.491   1.625
 1909SOL    HW1 1441   3.481   3.525   1.535
 1909SOL    HW2 1442   3.533   3.453   1.671
 1910SOL     OW 1443   2.973   3.057   1.100
 1910SOL    HW1 1444   2.933   3.101   1.181
 1910SOL    HW2 1445   2.932   3.094   1.017
 1912SOL     OW 1446   2.777   1.951   1.402
 1912SOL    HW1 1447   2.802   1.931   1.307
 1912SOL    HW2 1448   2.849   2.007   1.444
 1913SOL     OW 1449   2.842   2.978   1.719
 1913SOL    HW1 1450   2.743   2.984   1.729
 1913SOL    HW2 1451   2.865   2.898   1.663
 1915SOL     OW 1452   2.272   2.675   1.251
 1915SOL    HW1 1453   2.358   2.687   1.301
 1915SOL    HW2 1454   2.230   2.588   1.278
 1916SOL     OW 1455   3.136   2.248   1.262
 1916SOL    HW1 1456   3.157   2.322   1.326
 1916SOL    HW2 1457   3.047   2.265   1.219
 1917SOL     OW 1458   1.926   3.426   1.331
 1917SOL    HW1 1459   1.880   3.508   1.297
 1917SOL    HW2 1460   2.024   3.445   1.340
 1919SOL     OW 1461   2.428   2.399   0.865
 1919SOL    HW1 1462   2.440   2.465   0.791
 1919SOL    HW2 1463   2.474   2.433   0.948
 1921SOL     OW 1464   3.134   3.307   1.142
 1921SOL    HW1 1465   3.181   3.320   1.229
 1921SOL    HW2 1466   3.068   3.233   1.151
 1923SOL     OW 1467   2.216   3.372   1.329
 1923SOL    HW1 1468   2.195   3.328   1.242
 1923SOL    HW2 1469   2.313   3.398   1.332
 1924SOL     OW 1470   2.264   2.613   1.598
 1924SOL    HW1 1471   2.332   2.668   1.551
 1924SOL    HW2 1472   2.304   2.525   1.625
 1925SOL     OW 1473   3.449   2.641   1.670
 1925SOL    HW1 1474   3.357   2.679   1.665
 1925SOL    HW2 1475   3.509   2.688   1.605
 1926SOL     OW 1476   2.875   1.967   1.770
 1926SOL    HW1 1477   2.881   2.052   1.718
 1926SOL    HW2 1478   2.907   1.891   1.713
 1927SOL     OW 1479   2.366   1.912   1.740
 1927SOL    HW1 1480   2.324   1.855   1.670
 1927SOL    HW2 1481   2.300   1.981   1.772
 1928SOL     OW 1482   2.435   2.732   1.029
 1928SOL    HW1 1483   2.479   2.821   1.020
 1928SOL    HW2 1484   2.372   2.732   1.106
 1929SOL     OW 1485   3.222   2.724   1.045
 1929SOL    HW1 1486   3.147   2.724   0.979
 1929SOL    HW2 1487   3.259   2.632   1.054
 1931SOL     OW 1488   2.169   2.075   1.231
 1931SOL    HW1 1489   2.146   2.112   1.321
 1931SOL    HW2 1490   2.139   1.980   1.225
 1932SOL     OW 1491   1.899   3.172   1.282
 1932SOL    HW1 1492   1.952   3.123   1.350
 1932SOL    HW2 1493   1.921   3.270   1.287
 1933SOL     OW 1494   2.594   2.496   1.064
 1933SOL    HW1 1495   2.653   2.470   0.988
 1933SOL    HW2 1496   2.566   2.592   1.053
 1934SOL     OW 1497   3.590   2.797   1.854
 1934SOL    HW1 1498   3.544   2.790   1.765
 1934SOL    HW2 1499   3.528   2.841   1.920
 1935SOL     OW 1500   2.169   1.925   0.618
 1935SOL    HW1 1501   2.158   2.019   0.651
 1935SOL    HW2 1502   2.164   1.862   0.695
 1937SOL     OW 1503   2.885   2.628   0.966
 1937SOL    HW1 1504   2.900   2.649   1.062
 1937SOL    HW2 1505   2.855   2.533   0.957
 1938SOL     OW 1506   2.842   3.435   1.700
 1938SOL    HW1 1507   2.822   3.479   1.612
 1938SOL    HW2 1508   2.881   3.344   1.684
 1940SOL     OW 1509   2.212   2.760   1.804
 1940SOL    HW1 1510   2.288   2.804   1.852
 1940SOL    HW2 1511   2.247   2.713   1.722
 1944SOL     OW 1512   2.181   2.672   0.949
 1944SOL    HW1 1513   2.274   2.708   0.954
 1944SOL    HW2 1514   2.175   2.587   1.001
 1945SOL     OW 1515   2.201   2.371   1.006
 1945SOL    HW1 1516   2.149   2.288   0.989
 1945SOL    HW2 1517   2.278   2.376   0.942
 1946SOL     OW 1518   3.000   2.242   1.678
 1946SOL    HW1 1519   2.955   2.305   1.742
 1946SOL    HW2 1520   3.093   2.273   1.661
 1947SOL     OW 1521   3.022   2.069   1.477
 1947SOL    HW1 1522   3.022   2.133   1.554
 1947SOL    HW2 1523   3.050   2.117   1.394
 1950SOL     OW 1524   2.366   3.430   0.910
 1950SOL    HW1 1525   2.432   3.504   0.919
 1950SOL    HW2 1526   2.410   3.351   0.868
 1951SOL     OW 1527   2.864   2.658   1.238
 1951SOL    HW1 1528   2.905   2.626   1.324
 1951SOL    HW2 1529   2.768   2.631   1.235
 1952SOL     OW 1530   1.902   2.406   1.114
 1952SOL    HW1 1531   1.987   2.373   1.073
 1952SOL    HW2 1532   1.915   2.421   1.212
 1953SOL     OW 1533   2.051   2.382   1.722
 1953SOL    HW1 1534   2.110   2.342   1.652
 1953SOL    HW2 1535   1.993   2.453   1.681
 1954SOL     OW 1536   3.231   2.812   1.660
 1954SOL    HW1 1537   3.270   2.901   1.680
 1954SOL    HW2 1538   3.241   2.792   1.563
 1956SOL     OW 1539   3.519   2.466   1.206
 1956SOL    HW1 1540   3.481   2.397   1.268
 1956SOL    HW2 1541   3.601   2.430   1.162
 1957SOL     OW 1542   2.114   3.426   1.744
 1957SOL    HW1 1543   2.084   3.483   1.820
 1957SOL    HW2 1544   2.107   3.329   1.770
 1958SOL     OW 1545   2.533   2.326   1.269
 1958SOL    HW1 1546   2.499   2.237   1.239
 1958SOL    HW2 1547   2.559   2.380   1.189
 1959SOL     OW 1548   2.792   3.540   1.465
 1959SOL    HW1 1549   2.768   3.522   1.370
 1959SOL    HW2 1550   2.822   3.634   1.475
 1961SOL     OW 1551   2.021   2.999   1.466
 1961SOL    HW1 1552   2.043   2.938   1.542
 1961SOL    HW2 1553   2.031   2.950   1.380
 1962SOL     OW 1554   3.209   2.921   1.234
 1962SOL    HW1 1555   3.233   2.858   1.160
 1962SOL    HW2 1556   3.119   2.961   1.216
 1966SOL     OW 1557   1.945   3.120   1.022
 1966SOL    HW1 1558   1.940   3.119   1.122
 1966SOL    HW2 1559   1.862   3.079   0.984
 1967SOL     OW 1560   2.550   3.524   1.716
 1967SOL    HW1 1561   2.494   3.605   1.725
 1967SOL    HW2 1562   2.602   3.528   1.630
 1971SOL     OW 1563   1.992   3.656   1.851
 1971SOL    HW1 1564   1.951   3.582   1.904
 1971SOL    HW2 1565   2.056   3.707   1.909
 1973SOL     OW 1566   2.692   3.135   1.422
 1973SOL    HW1 1567   2.687   3.168   1.517
 1973SOL    HW2 1568   2.606   3.154   1.376
 1977SOL     OW 1569   2.125   2.188   0.720
 1977SOL    HW1 1570   2.046   2.239   0.686
 1977SOL    HW2 1571   2.116   2.173   0.818
 1979SOL     OW 1572   2.684   2.864   1.372
 1979SOL    HW1 1573   2.724   2.863   1.280
 1979SOL    HW2 1574   2.694   2.956   1.412
 1982SOL     OW 1575   2.234   3.150   1.490
 1982SOL    HW1 1576   2.221   3.243   1.456
 1982SOL    HW2 1577   2.150   3.098   1.477
 1983SOL     OW 1578   3.476   3.154   1.289
 1983SOL    HW1 1579   3.536   3.157   1.369
 1983SOL    HW2 1580   3.401   3.218   1.302
 1985SOL     OW 1581   2.876   2.098   0.971
 1985SOL    HW1 1582   2.868   2.062   0.878
 1985SOL    HW2 1583   2.874   2.022   1.036
 1987SOL     OW 1584   3.571   2.247   1.381
 1987SOL    HW1 1585   3.644   2.316   1.385
 1987SOL    HW2 1586   3.599   2.172   1.322
 1989SOL     OW 1587   1.967   2.875   1.726
 1989SOL    HW1 1588   1.890   2.842   1.780
 1989SOL    HW2 1589   2.052   2.845   1.768
 1990SOL     OW 1590   2.534   2.065   1.489
 1990SOL    HW1 1591   2.624   2.049   1.449
 1990SOL    HW2 1592   2.542   2.070   1.588
 1992SOL     OW 1593   3.302   2.718   1.398
 1992SOL    HW1 1594   3.245   2.770   1.335
 1992SOL    HW2 1595   3.398   2.730   1.374
 1995SOL     OW 1596   2.475   2.704   1.431
 1995SOL    HW1 1597   2.531   2.785   1.414
 1995SOL    HW2 1598   2.534   2.624   1.434
 1997SOL     OW 1599   2.578   2.427   1.708
 1997SOL    HW1 1600   2.597   2.492   1.782
 1997SOL    HW2 1601   2.638   2.347   1.717
 1998SOL     OW 1602   3.312   3.082   1.633
 1998SOL    HW1 1603   3.303   3.072   1.732
 1998SOL    HW2 1604   3.408   3.075   1.607
 1999SOL     OW 1605   2.252   3.603   1.560
 1999SOL    HW1 1606   2.161   3.644   1.558
 1999SOL    HW2 1607   2.245   3.509   1.592
 2000SOL     OW 1608   3.536   2.745   1.254
 2000SOL    HW1 1609   3.509   2.656   1.217
 2000SOL    HW2 1610   3.537   2.813   1.181
 2002SOL     OW 1611   2.456   2.607   0.652
 2002SOL    HW1 1612   2.506   2.692   0.633
 2002SOL    HW2 1613   2.368   2.609   0.604
 2003SOL     OW 1614   3.639   2.204   1.642
 2003SOL    HW1 1615   3.622   2.235   1.548
 2003SOL    HW2 1616   3.555   2.167   1.680
 2004SOL     OW 1617   3.592   2.796   1.517
 2004SOL    HW1 1618   3.630   2.887   1.532
 2004SOL    HW2 1619   3.584   2.779   1.418
 2007SOL     OW 1620   2.721   2.818   0.861
 2007SOL    HW1 1621   2.775   2.749   0.909
 2007SOL    HW2 1622   2.689   2.887   0.927
 2010SOL     OW 1623   2.083   3.176   1.844
 2010SOL    HW1 1624   2.018   3.103   1.823
 2010SOL    HW2 1625   2.087   3.190   1.942
 2012SOL     OW 1626   2.534   3.253   1.624
 2012SOL    HW1 1627   2.456   3.203   1.662
 2012SOL    HW2 1628   2.531   3.348   1.655
 2013SOL     OW 1629   3.686   2.054   1.227
 2013SOL    HW1 1630   3.682   1.964   1.271
 2013SOL    HW2 1631   3.689   2.043   1.128
 2014SOL     OW 1632   2.290   2.286   0.520
 2014SOL    HW1 1633   2.320   2.214   0.458
 2014SOL    HW2 1634   2.251   2.246   0.603
 2016SOL     OW 1635   2.179   2.409   1.280
 2016SOL    HW1 1636   2.217   2.350   1.352
 2016SOL    HW2 1637   2.219   2.383   1.192
 2018SOL     OW 1638   3.286   2.076   1.112
 2018SOL    HW1 1639   3.338   2.011   1.167
 2018SOL    HW2 1640   3.237   2.139   1.173
 2019SOL     OW 1641   2.863   1.896   1.154
 2019SOL    HW1 1642   2.800   1.824   1.123
 2019SOL    HW2 1643   2.956   1.860   1.154
 2021SOL     OW 1644   2.480   3.429   1.284
 2021SOL    HW1 1645   2.475   3.511   1.341
 2021SOL    HW2 1646   2.569   3.426   1.239
 2027SOL     OW 1647   2.087   2.137   2.858
 2027SOL    HW1 1648   2.122   2.120   2.950
 2027SOL    HW2 1649   1.999   2.092   2.846
 2028SOL     OW 1650   1.881   2.230   2.509
 2028SOL    HW1 1651   1.799   2.273   2.548
 2028SOL    HW2 1652   1.853   2.157   2.446
 2029SOL     OW 1653   2.431   3.137   3.027
 2029SOL    HW1 1654   2.338   3.130   2.990
 2029SOL    HW2 1655   2.442   3.226   3.071
 2030SOL     OW 1656   3.417   3.373   2.565
 2030SOL    HW1 1657   3.360   3.357   2.646
 2030SOL    HW2 1658   3.358   3.383   2.485
 2031SOL     OW 1659   2.997   2.565   2.579
 2031SOL    HW1 1660   3.054   2.643   2.554
 2031SOL    HW2 1661   2.937   2.591   2.655
 2032SOL     OW 1662   3.617   2.469   2.093
 2032SOL    HW1 1663   3.605   2.456   1.994
 2032SOL    HW2 1664   3.587   2.388   2.142
 2033SOL     OW 1665   2.630   3.006   2.885
 2033SOL    HW1 1666   2.552   3.023   2.945
 2033SOL    HW2 1667   2.664   3.093   2.849
 2034SOL     OW 1668   2.712   2.660   3.685
 2034SOL    HW1 1669   2.708   2.736   3.750
 2034SOL    HW2 1670   2.734   2.696   3.594
 2035SOL     OW 1671   2.547   2.874   2.527
 2035SOL    HW1 1672   2.616   2.858   2.597
 2035SOL    HW2 1673   2.474   2.931   2.565
 2036SOL     OW 1674   2.548   3.023   3.665
 2036SOL    HW1 1675   2.608   3.102   3.679
 2036SOL    HW2 1676   2.462   3.054   3.624
 2037SOL     OW 1677   2.197   3.297   2.923
 2037SOL    HW1 1678   2.119   3.266   2.870
 2037SOL    HW2 1679   2.255   3.355   2.866
 2038SOL     OW 1680   3.322   3.367   3.201
 2038SOL    HW1 1681   3.346   3.461   3.227
 2038SOL    HW2 1682   3.306   3.313   3.283
 2039SOL     OW 1683   2.300   2.254   3.361
 2039SOL    HW1 1684   2.382   2.198   3.370
 2039SOL    HW2 1685   2.219   2.196   3.365
 2040SOL     OW 1686   3.465   2.309   2.599
 2040SOL    HW1 1687   3.391   2.355   2.549
 2040SOL    HW2 1688   3.516   2.377   2.652
 2041SOL     OW 1689   2.093   3.575   2.345
 2041SOL    HW1 1690   2.127   3.652   2.399
 2041SOL    HW2 1691   2.137   3.575   2.255
 2042SOL     OW 1692   2.989   3.203   3.552
 2042SOL    HW1 1693   3.036   3.203   3.640
 2042SOL    HW2 1694   2.941   3.116   3.541
 2043SOL     OW 1695   2.092   3.296   2.400
 2043SOL    HW1 1696   2.066   3.392   2.400
 2043SOL    HW2 1697   2.021   3.242   2.445
 2044SOL     OW 1698   2.102   2.953   2.748
 2044SOL    HW1 1699   2.116   2.869   2.800
 2044SOL    HW2 1700   2.047   3.017   2.803
 2045SOL     OW 1701   2.482   3.648   3.301
 2045SOL    HW1 1702   2.390   3.631   3.336
 2045SOL    HW2 1703   2.510   3.740   3.327
 2046SOL     OW 1704   2.468   2.826   1.985
 2046SOL    HW1 1705   2.475   2.910   1.931
 2046SOL    HW2 1706   2.514   2.839   2.073
 2047SOL     OW 1707   3.456   1.976   3.342
 2047SOL    HW1 1708   3.438   2.043   3.270
 2047SOL    HW2 1709   3.453   2.022   3.431
 2049SOL     OW 1710   1.889   3.458   1.979
 2049SOL    HW1 1711   1.870   3.362   2.000
 2049SOL    HW2 1712   1.856   3.516   2.054
 2050SOL     OW 1713   3.551   2.784   2.474
 2050SOL    HW1 1714   3.646   2.755   2.482
 2050SOL    HW2 1715   3.543   2.849   2.399
 2051SOL     OW 1716   3.503   2.970   2.294
 2051SOL    HW1 1717   3.589   2.972   2.242
 2051SOL    HW2 1718   3.517   3.017   2.382
 2052SOL     OW 1719   1.975   2.599   3.459
 2052SOL    HW1 1720   2.063   2.586   3.504
 2052SOL    HW2 1721   1.962   2.696   3.437
 2053SOL     OW 1722   2.475   3.227   2.588
 2053SOL    HW1 1723   2.426   3.140   2.597
 2053SOL    HW2 1724   2.452   3.270   2.501
 2054SOL     OW 1725   3.155   3.090   3.285
 2054SOL    HW1 1726   3.192   3.017   3.227
 2054SOL    HW2 1727   3.207   3.095   3.370
 2055SOL     OW 1728   2.671   1.866   2.364
 2055SOL    HW1 1729   2.711   1.957   2.355
 2055SOL    HW2 1730   2.571   1.874   2.370
 2056SOL     OW 1731   2.059   2.838   3.126
 2056SOL    HW1 1732   2.148   2.793   3.112
 2056SOL    HW2 1733   1.986   2.773   3.107
 2057SOL     OW 1734   3.387   2.861   2.052
 2057SOL    HW1 1735   3.324   2.785   2.065
 2057SOL    HW2 1736   3.435   2.879   2.138
 2059SOL     OW 1737   2.179   2.113   3.663
 2059SOL    HW1 1738   2.250   2.184   3.669
 2059SOL    HW2 1739   2.091   2.152   3.691
 2060SOL     OW 1740   3.328   3.279   2.815
 2060SOL    HW1 1741   3.269   3.285   2.895
 2060SOL    HW2 1742   3.313   3.191   2.769
 2061SOL     OW 1743   3.529   3.576   2.434
 2061SOL    HW1 1744   3.488   3.553   2.346
 2061SOL    HW2 1745   3.511   3.502   2.499
 2062SOL     OW 1746   2.460   2.591   2.132
 2062SOL    HW1 1747   2.484   2.660   2.064
 2062SOL    HW2 1748   2.382   2.624   2.186
 2063SOL     OW 1749   3.143   2.207   2.806
 2063SOL    HW1 1750   3.057   2.157   2.793
 2063SOL    HW2 1751   3.205   2.153   2.862
 2064SOL     OW 1752   3.438   3.524   2.169
 2064SOL    HW1 1753   3.527   3.570   2.172
 2064SOL    HW2 1754   3.417   3.500   2.074
 2065SOL     OW 1755   2.669   2.467   3.327
 2065SOL    HW1 1756   2.622   2.464   3.416
 2065SOL    HW2 1757   2.618   2.412   3.261
 2066SOL     OW 1758   3.256   2.331   3.536
 2066SOL    HW1 1759   3.236   2.374   3.624
 2066SOL    HW2 1760   3.334   2.269   3.545
 2067SOL     OW 1761   2.835   2.752   3.434
 2067SOL    HW1 1762   2.881   2.668   3.405
 2067SOL    HW2 1763   2.779   2.786   3.359
 2068SOL     OW 1764   2.853   2.272   3.104
 2068SOL    HW1 1765   2.776   2.306   3.158
 2068SOL    HW2 1766   2.819   2.221   3.025
 2069SOL     OW 1767   2.903   2.563   2.291
 2069SOL    HW1 1768   2.929   2.559   2.387
 2069SOL    HW2 1769   2.818   2.512   2.277
 2070SOL     OW 1770   1.938   2.673   2.651
 2070SOL    HW1 1771   2.037   2.661   2.660
 2070SOL    HW2 1772   1.914   2.768   2.672
 2072SOL     OW 1773   2.727   2.210   2.057
 2072SOL    HW1 1774   2.786   2.273   2.008
 2072SOL    HW2 1775   2.746   2.116   2.028
 2074SOL     OW 1776   3.224   3.006   2.407
 2074SOL    HW1 1777   3.307   2.977   2.359
 2074SOL    HW2 1778   3.175   3.073   2.351
 2075SOL     OW 1779   2.412   2.058   2.747
 2075SOL    HW1 1780   2.407   2.053   2.847
 2075SOL    HW2 1781   2.414   2.154   2.718
 2076SOL     OW 1782   2.870   3.318   2.339
 2076SOL    HW1 1783   2.824   3.390   2.287
 2076SOL    HW2 1784   2.866   3.338   2.437
 2077SOL     OW 1785   2.213   3.663   2.715
 2077SOL    HW1 1786   2.263   3.577   2.721
 2077SOL    HW2 1787   2.278   3.740   2.712
 2078SOL     OW 1788   3.657   2.928   2.735
 2078SOL    HW1 1789   3.595   2.913   2.659
 2078SOL    HW2 1790   3.605   2.939   2.820
 2079SOL     OW 1791   3.089   3.412   3.368
 2079SOL    HW1 1792   3.095   3.335   3.432
 2079SOL    HW2 1793   3.037   3.386   3.288
 2080SOL     OW 1794   2.183   2.805   2.104
 2080SOL    HW1 1795   2.265   2.844   2.062
 2080SOL    HW2 1796   2.156   2.723   2.055
 2081SOL     OW 1797   3.320   2.597   2.590
 2081SOL    HW1 1798   3.315   2.532   2.665
 2081SOL    HW2 1799   3.400   2.656   2.603
 2082SOL     OW 1800   2.323   3.128   3.589
 2082SOL    HW1 1801   2.273   3.129   3.503
 2082SOL    HW2 1802   2.260   3.110   3.665
 2083SOL     OW 1803   2.973   3.638   2.099
 2083SOL    HW1 1804   2.913   3.576   2.149
 2083SOL    HW2 1805   3.004   3.594   2.014
 2084SOL     OW 1806   2.064   2.147   3.360
 2084SOL    HW1 1807   1.984   2.207   3.347
 2084SOL    HW2 1808   2.054   2.098   3.446
 2085SOL     OW 1809   3.494   3.239   1.943
 2085SOL    HW1 1810   3.462   3.333   1.933
 2085SOL    HW2 1811   3.418   3.176   1.931
 2086SOL     OW 1812   2.326   3.605   2.185
 2086SOL    HW1 1813   2.359   3.644   2.271
 2086SOL    HW2 1814   2.402   3.598   2.120
 2087SOL     OW 1815   3.262   1.969   2.288
 2087SOL    HW1 1816   3.238   1.932   2.198
 2087SOL    HW2 1817   3.361   1.985   2.292
 2088SOL     OW 1818   2.111   3.647   3.103
 2088SOL    HW1 1819   2.168   3.582   3.153
 2088SOL    HW2 1820   2.095   3.614   3.010
 2089SOL     OW 1821   2.802   3.560   2.766
 2089SOL    HW1 1822   2.882   3.503   2.787
 2089SOL    HW2 1823   2.753   3.520   2.689
 2090SOL     OW 1824   3.409   2.084   3.591
 2090SOL    HW1 1825   3.404   2.121   3.683
 2090SOL    HW2 1826   3.337   2.015   3.579
 2091SOL     OW 1827   2.476   1.984   1.979
 2091SOL    HW1 1828   2.574   1.962   1.986
 2091SOL    HW2 1829   2.445   1.967   1.886
 2092SOL     OW 1830   2.643   2.126   3.611
 2092SOL    HW1 1831   2.710   2.065   3.654
 2092SOL    HW2 1832   2.570   2.145   3.676
 2093SOL     OW 1833   2.750   3.376   3.057
 2093SOL    HW1 1834   2.727   3.351   2.963
 2093SOL    HW2 1835   2.811   3.307   3.096
 2094SOL     OW 1836   3.213   2.452   3.295
 2094SOL    HW1 1837   3.241   2.409   3.380
 2094SOL    HW2 1838   3.238   2.548   3.296
 2095SOL     OW 1839   2.665   3.264   2.786
 2095SOL    HW1 1840   2.755   3.278   2.744
 2095SOL    HW2 1841   2.594   3.266   2.715
 2096SOL     OW 1842   2.784   2.365   2.761
 2096SOL    HW1 1843   2.759   2.356   2.665
 2096SOL    HW2 1844   2.832   2.283   2.792
 2097SOL     OW 1845   2.401   1.926   2.374
 2097SOL    HW1 1846   2.320   1.927   2.432
 2097SOL    HW2 1847   2.404   2.009   2.319
 2098SOL     OW 1848   3.296   3.050   1.903
 2098SOL    HW1 1849   3.328   2.974   1.960
 2098SOL    HW2 1850   3.204   3.077   1.933
 2099SOL     OW 1851   2.159   1.897   2.033
 2099SOL    HW1 1852   2.208   1.981   2.012
 2099SOL    HW2 1853   2.221   1.832   2.078
 2100SOL     OW 1854   2.797   2.098   2.342
 2100SOL    HW1 1855   2.749   2.139   2.264
 2100SOL    HW2 1856   2.896   2.096   2.323
 2101SOL     OW 1857   2.938   2.545   3.326
 2101SOL    HW1 1858   2.858   2.484   3.329
 2101SOL    HW2 1859   3.019   2.492   3.302
 2102SOL     OW 1860   3.089   3.432   2.655
 2102SOL    HW1 1861   3.110   3.506   2.590
 2102SOL    HW2 1862   3.157   3.432   2.728
 2103SOL     OW 1863   2.321   3.014   2.603
 2103SOL    HW1 1864   2.250   2.987   2.668
 2103SOL    HW2 1865   2.295   2.986   2.510
 2104SOL     OW 1866   3.133   3.659   2.453
 2104SOL    HW1 1867   3.177   3.723   2.389
 2104SOL    HW2 1868   3.083   3.711   2.523
 2105SOL     OW 1869   2.894   2.411   1.878
 2105SOL    HW1 1870   2.853   2.493   1.839
 2105SOL    HW2 1871   2.958   2.437   1.951
 2106SOL     OW 1872   1.940   2.418   3.248
 2106SOL    HW1 1873   2.032   2.417   3.207
 2106SOL    HW2 1874   1.934   2.492   3.315
 2107SOL     OW 1875   2.423   2.084   3.009
 2107SOL    HW1 1876   2.461   2.000   3.046
 2107SOL    HW2 1877   2.335   2.103   3.053
 2108SOL     OW 1878   2.728   2.316   2.504
 2108SOL    HW1 1879   2.696   2.388   2.442
 2108SOL    HW2 1880   2.752   2.235   2.451
 2109SOL     OW 1881   2.879   1.901   2.615
 2109SOL    HW1 1882   2.807   1.906   2.546
 2109SOL    HW2 1883   2.855   1.832   2.684
 2110SOL     OW 1884   3.291   3.035   2.729
 2110SOL    HW1 1885   3.236   2.951   2.722
 2110SOL    HW2 1886   3.317   3.064   2.637
 2111SOL     OW 1887   3.328   2.452   2.854
 2111SOL    HW1 1888   3.298   2.357   2.861
 2111SOL    HW2 1889   3.401   2.468   2.920
 2112SOL     OW 1890   3.719   2.695   2.239
 2112SOL    HW1 1891   3.761   2.631   2.303
 2112SOL    HW2 1892   3.681   2.644   2.161
 2113SOL     OW 1893   2.350   3.247   2.036
 2113SOL    HW1 1894   2.263   3.232   2.083
 2113SOL    HW2 1895   2.333   3.273   1.941
 2114SOL     OW 1896   3.526   3.142   2.519
 2114SOL    HW1 1897   3.625   3.150   2.533
 2114SOL    HW2 1898   3.481   3.226   2.550
 2115SOL     OW 1899   3.252   2.437   1.940
 2115SOL    HW1 1900   3.198   2.416   2.021
 2115SOL    HW2 1901   3.343   2.396   1.949
 2117SOL     OW 1902   2.926   3.209   3.202
 2117SOL    HW1 1903   2.846   3.186   3.257
 2117SOL    HW2 1904   3.009   3.183   3.251
 2119SOL     OW 1905   2.973   3.057   2.962
 2119SOL    HW1 1906   2.933   3.101   3.043
 2119SOL    HW2 1907   2.932   3.094   2.879
 2120SOL     OW 1908   3.500   2.961   2.941
 2120SOL    HW1 1909   3.505   3.042   3.000
 2120SOL    HW2 1910   3.414   2.963   2.890
 2121SOL     OW 1911   2.777   1.951   3.264
 2121SOL    HW1 1912   2.802   1.931   3.169
 2121SOL    HW2 1913   2.849   2.007   3.306
 2122SOL     OW 1914   2.842   2.978   3.581
 2122SOL    HW1 1915   2.743   2.984   3.591
 2122SOL    HW2 1916   2.865   2.898   3.525
 2123SOL     OW 1917   2.567   2.912   2.230
 2123SOL    HW1 1918   2.553   2.919   2.329
 2123SOL    HW2 1919   2.651   2.861   2.212
 2124SOL     OW 1920   2.272   2.675   3.113
 2124SOL    HW1 1921   2.358   2.687   3.163
 2124SOL    HW2 1922   2.230   2.588   3.140
 2125SOL     OW 1923   3.136   2.248   3.124
 2125SOL    HW1 1924   3.157   2.322   3.188
 2125SOL    HW2 1925   3.047   2.265   3.081
 2126SOL     OW 1926   1.926   3.426   3.193
 2126SOL    HW1 1927   1.880   3.508   3.159
 2126SOL    HW2 1928   2.024   3.445   3.202
 2127SOL     OW 1929   2.229   2.962   2.363
 2127SOL    HW1 1930   2.222   3.045   2.307
 2127SOL    HW2 1931   2.233   2.882   2.303
 2128SOL     OW 1932   2.428   2.399   2.727
 2128SOL    HW1 1933   2.440   2.465   2.653
 2128SOL    HW2 1934   2.474   2.433   2.810
 2129SOL     OW 1935   3.114   3.210   2.250
 2129SOL    HW1 1936   3.164   3.287   2.290
 2129SOL    HW2 1937   3.019   3.212   2.282
 2130SOL     OW 1938   3.134   3.307   3.004
 2130SOL    HW1 1939   3.181   3.320   3.091
 2130SOL    HW2 1940   3.068   3.233   3.013
 2131SOL     OW 1941   3.444   2.501   2.334
 2131SOL    HW1 1942   3.413   2.562   2.407
 2131SOL    HW2 1943   3.494   2.553   2.265
 2132SOL     OW 1944   2.216   3.372   3.191
 2132SOL    HW1 1945   2.195   3.328   3.104
 2132SOL    HW2 1946   2.313   3.398   3.194
 2133SOL     OW 1947   2.264   2.613   3.460
 2133SOL    HW1 1948   2.332   2.668   3.413
 2133SOL    HW2 1949   2.304   2.525   3.487
 2134SOL     OW 1950   3.449   2.641   3.532
 2134SOL    HW1 1951   3.357   2.679   3.527
 2134SOL    HW2 1952   3.509   2.688   3.467
 2135SOL     OW 1953   2.875   1.967   3.632
 2135SOL    HW1 1954   2.881   2.052   3.580
 2135SOL    HW2 1955   2.907   1.891   3.575
 2136SOL     OW 1956   2.366   1.912   3.602
 2136SOL    HW1 1957   2.324   1.855   3.532
 2136SOL    HW2 1958   2.300   1.981   3.634
 2137SOL     OW 1959   2.435   2.732   2.891
 2137SOL    HW1 1960   2.479   2.821   2.882
 2137SOL    HW2 1961   2.372   2.732   2.968
 2138SOL     OW 1962   3.222   2.724   2.907
 2138SOL    HW1 1963   3.147   2.724   2.841
 2138SOL    HW2 1964   3.259   2.632   2.916
 2139SOL     OW 1965   3.071   2.387   2.137
 2139SOL    HW1 1966   3.084   2.303   2.191
 2139SOL    HW2 1967   3.042   2.461   2.197
 2140SOL     OW 1968   2.169   2.075   3.093
 2140SOL    HW1 1969   2.146   2.112   3.183
 2140SOL    HW2 1970   2.139   1.980   3.087
 2141SOL     OW 1971   1.899   3.172   3.144
 2141SOL    HW1 1972   1.952   3.123   3.212
 2141SOL    HW2 1973   1.921   3.270   3.149
 2142SOL     OW 1974   2.594   2.496   2.926
 2142SOL    HW1 1975   2.653   2.470   2.850
 2142SOL    HW2 1976   2.566   2.592   2.915
 2144SOL     OW 1977   2.169   1.925   2.480
 2144SOL    HW1 1978   2.158   2.019   2.513
 2144SOL    HW2 1979   2.164   1.862   2.557
 2145SOL     OW 1980   3.484   2.229   2.236
 2145SOL    HW1 1981   3.486   2.153   2.300
 2145SOL    HW2 1982   3.436   2.306   2.276
 2146SOL     OW 1983   2.885   2.628   2.828
 2146SOL    HW1 1984   2.900   2.649   2.924
 2146SOL    HW2 1985   2.855   2.533   2.819
 2147SOL     OW 1986   2.842   3.435   3.562
 2147SOL    HW1 1987   2.822   3.479   3.474
 2147SOL    HW2 1988   2.881   3.344   3.546
 2149SOL     OW 1989   2.212   2.760   3.666
 2149SOL    HW1 1990   2.288   2.804   3.714
 2149SOL    HW2 1991   2.247   2.713   3.584
 2150SOL     OW 1992   3.402   2.136   1.987
 2150SOL    HW1 1993   3.341   2.061   2.010
 2150SOL    HW2 1994   3.424   2.188   2.070
 2151SOL     OW 1995   3.165   2.700   1.904
 2151SOL    HW1 1996   3.199   2.607   1.919
 2151SOL    HW2 1997   3.183   2.727   1.809
 2152SOL     OW 1998   2.930   3.195   2.711
 2152SOL    HW1 1999   2.937   3.111   2.656
 2152SOL    HW2 2000   2.992   3.264   2.675
 2153SOL     OW 2001   2.181   2.672   2.811
 2153SOL    HW1 2002   2.274   2.708   2.816
 2153SOL    HW2 2003   2.175   2.587   2.863
 2154SOL     OW 2004   2.201   2.371   2.868
 2154SOL    HW1 2005   2.149   2.288   2.851
 2154SOL    HW2 2006   2.278   2.376   2.804
 2155SOL     OW 2007   3.000   2.242   3.540
 2155SOL    HW1 2008   2.955   2.305   3.604
 2155SOL    HW2 2009   3.093   2.273   3.523
 2156SOL     OW 2010   3.022   2.069   3.339
 2156SOL    HW1 2011   3.022   2.133   3.416
 2156SOL    HW2 2012   3.050   2.117   3.256
 2157SOL     OW 2013   1.870   3.188   2.062
 2157SOL    HW1 2014   1.777   3.209   2.031
 2157SOL    HW2 2015   1.880   3.089   2.075
 2158SOL     OW 2016   1.950   3.663   2.789
 2158SOL    HW1 2017   1.908   3.577   2.762
 2158SOL    HW2 2018   2.044   3.666   2.755
 2159SOL     OW 2019   2.366   3.430   2.772
 2159SOL    HW1 2020   2.432   3.504   2.781
 2159SOL    HW2 2021   2.410   3.351   2.730
 2160SOL     OW 2022   2.864   2.658   3.100
 2160SOL    HW1 2023   2.905   2.626   3.186
 2160SOL    HW2 2024   2.768   2.631   3.097
 2161SOL     OW 2025   1.902   2.406   2.976
 2161SOL    HW1 2026   1.987   2.373   2.935
 2161SOL    HW2 2027   1.915   2.421   3.074
 2162SOL     OW 2028   2.051   2.382   3.584
 2162SOL    HW1 2029   2.110   2.342   3.514
 2162SOL    HW2 2030   1.993   2.453   3.543
 2163SOL     OW 2031   3.231   2.812   3.522
 2163SOL    HW1 2032   3.270   2.901   3.542
 2163SOL    HW2 2033   3.241   2.792   3.425
 2164SOL     OW 2034   2.677   2.434   2.187
 2164SOL    HW1 2035   2.684   2.345   2.141
 2164SOL    HW2 2036   2.583   2.468   2.179
 2165SOL     OW 2037   3.519   2.466   3.068
 2165SOL    HW1 2038   3.481   2.397   3.130
 2165SOL    HW2 2039   3.601   2.430   3.024
 2166SOL     OW 2040   2.114   3.426   3.606
 2166SOL    HW1 2041   2.084   3.483   3.682
 2166SOL    HW2 2042   2.107   3.329   3.632
 2167SOL     OW 2043   2.533   2.326   3.131
 2167SOL    HW1 2044   2.499   2.237   3.101
 2167SOL    HW2 2045   2.559   2.380   3.051
 2168SOL     OW 2046   2.792   3.540   3.327
 2168SOL    HW1 2047   2.768   3.522   3.232
 2168SOL    HW2 2048   2.822   3.634   3.337
 2169SOL     OW 2049   2.021   2.999   3.328
 2169SOL    HW1 2050   2.043   2.938   3.404
 2169SOL    HW2 2051   2.031   2.950   3.242
 2170SOL     OW 2052   3.209   2.921   3.096
 2170SOL    HW1 2053   3.233   2.858   3.022
 2170SOL    HW2 2054   3.119   2.961   3.078
 2171SOL     OW 2055   3.164   2.717   2.171
 2171SOL    HW1 2056   3.078   2.686   2.213
 2171SOL    HW2 2057   3.160   2.703   2.072
 2173SOL     OW 2058   3.114   3.593   2.990
 2173SOL    HW1 2059   3.198   3.598   2.936
 2173SOL    HW2 2060   3.091   3.497   3.008
 2174SOL     OW 2061   1.945   3.120   2.884
 2174SOL    HW1 2062   1.940   3.119   2.984
 2174SOL    HW2 2063   1.862   3.079   2.846
 2175SOL     OW 2064   2.550   3.524   3.578
 2175SOL    HW1 2065   2.494   3.605   3.587
 2175SOL    HW2 2066   2.602   3.528   3.492
 2176SOL     OW 2067   3.588   1.997   2.385
 2176SOL    HW1 2068   3.661   1.980   2.318
 2176SOL    HW2 2069   3.557   1.910   2.423
 2177SOL     OW 2070   3.250   3.435   2.339
 2177SOL    HW1 2071   3.317   3.447   2.265
 2177SOL    HW2 2072   3.210   3.524   2.362
 2179SOL     OW 2073   3.142   2.789   2.534
 2179SOL    HW1 2074   3.202   2.708   2.536
 2179SOL    HW2 2075   3.182   2.858   2.474
 2180SOL     OW 2076   2.692   3.135   3.284
 2180SOL    HW1 2077   2.687   3.168   3.379
 2180SOL    HW2 2078   2.606   3.154   3.238
 2181SOL     OW 2079   2.534   3.478   2.016
 2181SOL    HW1 2080   2.543   3.488   1.917
 2181SOL    HW2 2081   2.494   3.389   2.037
 2183SOL     OW 2082   3.703   2.037   2.825
 2183SOL    HW1 2083   3.742   1.952   2.789
 2183SOL    HW2 2084   3.605   2.039   2.806
 2184SOL     OW 2085   2.125   2.188   2.582
 2184SOL    HW1 2086   2.046   2.239   2.548
 2184SOL    HW2 2087   2.116   2.173   2.680
 2185SOL     OW 2088   3.056   3.474   1.893
 2185SOL    HW1 2089   3.062   3.381   1.930
 2185SOL    HW2 2090   2.997   3.474   1.813
 2186SOL     OW 2091   2.684   2.864   3.234
 2186SOL    HW1 2092   2.724   2.863   3.142
 2186SOL    HW2 2093   2.694   2.956   3.274
 2187SOL     OW 2094   2.778   2.772   2.153
 2187SOL    HW1 2095   2.841   2.810   2.085
 2187SOL    HW2 2096   2.818   2.689   2.192
 2188SOL     OW 2097   3.366   3.469   1.906
 2188SOL    HW1 2098   3.274   3.506   1.913
 2188SOL    HW2 2099   3.404   3.489   1.816
 2189SOL     OW 2100   2.234   3.150   3.352
 2189SOL    HW1 2101   2.221   3.243   3.318
 2189SOL    HW2 2102   2.150   3.098   3.339
 2190SOL     OW 2103   3.476   3.154   3.151
 2190SOL    HW1 2104   3.536   3.157   3.231
 2190SOL    HW2 2105   3.401   3.218   3.164
 2191SOL     OW 2106   2.901   2.960   2.558
 2191SOL    HW1 2107   2.831   2.913   2.612
 2191SOL    HW2 2108   2.960   2.892   2.515
 2192SOL     OW 2109   2.876   2.098   2.833
 2192SOL    HW1 2110   2.868   2.062   2.740
 2192SOL    HW2 2111   2.874   2.022   2.898
 2193SOL     OW 2112   2.452   3.349   2.353
 2193SOL    HW1 2113   2.494   3.291   2.283
 2193SOL    HW2 2114   2.408   3.428   2.309
 2194SOL     OW 2115   3.571   2.247   3.243
 2194SOL    HW1 2116   3.644   2.316   3.247
 2194SOL    HW2 2117   3.599   2.172   3.184
 2195SOL     OW 2118   2.117   3.210   2.152
 2195SOL    HW1 2119   2.021   3.211   2.125
 2195SOL    HW2 2120   2.129   3.263   2.236
 2196SOL     OW 2121   1.967   2.875   3.588
 2196SOL    HW1 2122   1.890   2.842   3.642
 2196SOL    HW2 2123   2.052   2.845   3.630
 2197SOL     OW 2124   2.534   2.065   3.351
 2197SOL    HW1 2125   2.624   2.049   3.311
 2197SOL    HW2 2126   2.542   2.070   3.450
 2198SOL     OW 2127   1.937   2.207   1.895
 2198SOL    HW1 2128   1.845   2.179   1.866
 2198SOL    HW2 2129   1.968   2.284   1.839
 2199SOL     OW 2130   3.302   2.718   3.260
 2199SOL    HW1 2131   3.245   2.770   3.197
 2199SOL    HW2 2132   3.398   2.730   3.236
 2200SOL     OW 2133   1.934   2.028   2.180
 2200SOL    HW1 2134   1.917   2.111   2.126
 2200SOL    HW2 2135   2.024   1.991   2.158
 2201SOL     OW 2136   3.045   3.197   1.981
 2201SOL    HW1 2137   2.946   3.186   1.983
 2201SOL    HW2 2138   3.079   3.212   2.074
 2202SOL     OW 2139   2.475   2.704   3.293
 2202SOL    HW1 2140   2.531   2.785   3.276
 2202SOL    HW2 2141   2.534   2.624   3.296
 2203SOL     OW 2142   3.355   3.629   2.821
 2203SOL    HW1 2143   3.388   3.693   2.752
 2203SOL    HW2 2144   3.421   3.623   2.896
 2204SOL     OW 2145   2.578   2.427   3.570
 2204SOL    HW1 2146   2.597   2.492   3.644
 2204SOL    HW2 2147   2.638   2.347   3.579
 2205SOL     OW 2148   3.312   3.082   3.495
 2205SOL    HW1 2149   3.303   3.072   3.594
 2205SOL    HW2 2150   3.408   3.075   3.469
 2206SOL     OW 2151   2.252   3.603   3.422
 2206SOL    HW1 2152   2.161   3.644   3.420
 2206SOL    HW2 2153   2.245   3.509   3.454
 2207SOL     OW 2154   3.536   2.745   3.116
 2207SOL    HW1 2155   3.509   2.656   3.079
 2207SOL    HW2 2156   3.537   2.813   3.043
 2208SOL     OW 2157   3.087   2.187   2.311
 2208SOL    HW1 2158   3.152   2.113   2.300
 2208SOL    HW2 2159   3.107   2.237   2.395
 2209SOL     OW 2160   2.456   2.607   2.514
 2209SOL    HW1 2161   2.506   2.692   2.495
 2209SOL    HW2 2162   2.368   2.609   2.466
 2211SOL     OW 2163   3.592   2.796   3.379
 2211SOL    HW1 2164   3.630   2.887   3.394
 2211SOL    HW2 2165   3.584   2.779   3.280
 2212SOL     OW 2166   2.721   3.236   1.878
 2212SOL    HW1 2167   2.675   3.251   1.966
 2212SOL    HW2 2168   2.765   3.321   1.848
 2213SOL     OW 2169   2.523   3.652   2.815
 2213SOL    HW1 2170   2.477   3.740   2.802
 2213SOL    HW2 2171   2.622   3.664   2.808
 2214SOL     OW 2172   2.721   2.818   2.723
 2214SOL    HW1 2173   2.775   2.749   2.771
 2214SOL    HW2 2174   2.689   2.887   2.789
 2215SOL     OW 2175   2.945   2.846   1.949
 2215SOL    HW1 2176   2.922   2.899   1.867
 2215SOL    HW2 2177   3.026   2.790   1.930
 2217SOL     OW 2178   2.083   3.176   3.706
 2217SOL    HW1 2179   2.018   3.103   3.685
 2217SOL    HW2 2180   2.087   3.190   3.804
 2218SOL     OW 2181   1.941   3.102   2.515
 2218SOL    HW1 2182   1.940   3.055   2.603
 2218SOL    HW2 2183   2.023   3.074   2.464
 2219SOL     OW 2184   2.534   3.253   3.486
 2219SOL    HW1 2185   2.456   3.203   3.524
 2219SOL    HW2 2186   2.531   3.348   3.517
 2220SOL     OW 2187   3.686   2.054   3.089
 2220SOL    HW1 2188   3.682   1.964   3.133
 2220SOL    HW2 2189   3.689   2.043   2.990
 2221SOL     OW 2190   3.567   3.349   2.966
 2221SOL    HW1 2191   3.474   3.324   2.939
 2221SOL    HW2 2192   3.593   3.299   3.048
 2222SOL     OW 2193   2.179   2.409   3.142
 2222SOL    HW1 2194   2.217   2.350   3.214
 2222SOL    HW2 2195   2.219   2.383   3.054
 2223SOL     OW 2196   2.674   3.448   2.549
 2223SOL    HW1 2197   2.706   3.458   2.455
 2223SOL    HW2 2198   2.595   3.386   2.551
 2224SOL     OW 2199   3.286   2.076   2.974
 2224SOL    HW1 2200   3.338   2.011   3.029
 2224SOL    HW2 2201   3.237   2.139   3.035
 2225SOL     OW 2202   2.863   1.896   3.016
 2225SOL    HW1 2203   2.800   1.824   2.985
 2225SOL    HW2 2204   2.956   1.860   3.016
 2226SOL     OW 2205   2.632   3.192   2.163
 2226SOL    HW1 2206   2.586   3.105   2.180
 2226SOL    HW2 2207   2.723   3.189   2.204
 2227SOL     OW 2208   2.480   3.429   3.146
 2227SOL    HW1 2209   2.475   3.511   3.203
 2227SOL    HW2 2210   2.569   3.426   3.101
 2228SOL     OW 2211   3.214   1.914   2.030
 2228SOL    HW1 2212   3.249   1.873   1.946
 2228SOL    HW2 2213   3.124   1.876   2.050
 2229SOL     OW 2214   3.162   2.315   2.553
 2229SOL    HW1 2215   3.103   2.395   2.557
 2229SOL    HW2 2216   3.177   2.280   2.646
 2230SOL     OW 2217   3.455   2.083   2.744
 2230SOL    HW1 2218   3.371   2.082   2.798
 2230SOL    HW2 2219   3.457   2.166   2.688
 2231SOL     OW 2220   1.901   2.939   2.162
 2231SOL    HW1 2221   2.000   2.928   2.153
 2231SOL    HW2 2222   1.861   2.853   2.194
 2232SOL     OW 2223   2.737   3.508   2.199
 2232SOL    HW1 2224   2.660   3.473   2.145
 2232SOL    HW2 2225   2.705   3.579   2.261
 2233SOL     OW 2226   2.092   2.490   3.837
 2233SOL    HW1 2227   1.999   2.488   3.874
 2233SOL    HW2 2228   2.093   2.451   3.745
 2244SOL     OW 2229   2.468   2.826   3.847
 2244SOL    HW1 2230   2.475   2.910   3.793
 2244SOL    HW2 2231   2.514   2.839   3.935
 2254SOL     OW 2232   2.460   2.591   3.994
 2254SOL    HW1 2233   2.484   2.660   3.926
 2254SOL    HW2 2234   2.382   2.624   4.048
 2259SOL     OW 2235   2.727   2.210   3.919
 2259SOL    HW1 2236   2.786   2.273   3.870
 2259SOL    HW2 2237   2.746   2.116   3.890
 2265SOL     OW 2238   2.183   2.805   3.966
 2265SOL    HW1 2239   2.265   2.844   3.924
 2265SOL    HW2 2240   2.156   2.723   3.917
 2273SOL     OW 2241   2.476   1.984   3.841
 2273SOL    HW1 2242   2.574   1.962   3.848
 2273SOL    HW2 2243   2.445   1.967   3.748
 2276SOL     OW 2244   2.159   1.897   3.895
 2276SOL    HW1 2245   2.208   1.981   3.874
 2276SOL    HW2 2246   2.221   1.832   3.940
 2280SOL     OW 2247   2.894   2.411   3.740
 2280SOL    HW1 2248   2.853   2.493   3.701
 2280SOL    HW2 2249   2.958   2.437   3.813
 2286SOL     OW 2250   3.252   2.437   3.802
 2286SOL    HW1 2251   3.198   2.416   3.883
 2286SOL    HW2 2252   3.343   2.396   3.811
 2287SOL     OW 2253   2.389   2.118   4.052
 2287SOL    HW1 2254   2.416   2.059   3.977
 2287SOL    HW2 2255   2.389   2.213   4.021
 2297SOL     OW 2256   3.165   2.700   3.766
 2297SOL    HW1 2257   3.199   2.607   3.781
 2297SOL    HW2 2258   3.183   2.727   3.671
 2299SOL     OW 2259   2.677   2.434   4.049
 2299SOL    HW1 2260   2.684   2.345   4.003
 2299SOL    HW2 2261   2.583   2.468   4.041
 2300SOL     OW 2262   2.335   2.362   3.915
 2300SOL    HW1 2263   2.396   2.442   3.919
 2300SOL    HW2 2264   2.240   2.393   3.922
 2314SOL     OW 2265   1.937   2.207   3.757
 2314SOL    HW1 2266   1.845   2.179   3.728
 2314SOL    HW2 2267   1.968   2.284   3.701
 2319SOL     OW 2268   2.721   3.236   3.740
 2319SOL    HW1 2269   2.675   3.251   3.828
 2319SOL    HW2 2270   2.765   3.321   3.710
 2322SOL     OW 2271   2.945   2.846   3.811
 2322SOL    HW1 2272   2.922   2.899   3.729
 2322SOL    HW2 2273   3.026   2.790   3.792
 2344SOL     OW 2274   2.179   3.975   1.801
 2344SOL    HW1 2275   2.250   4.046   1.807
 2344SOL    HW2 2276   2.091   4.014   1.829
 2383SOL     OW 2277   2.875   3.829   1.770
 2383SOL    HW1 2278   2.881   3.914   1.718
 2383SOL    HW2 2279   2.907   3.753   1.713
 2384SOL     OW 2280   2.366   3.774   1.740
 2384SOL    HW1 2281   2.324   3.717   1.670
 2384SOL    HW2 2282   2.300   3.843   1.772
 2430SOL     OW 2283   2.087   3.999   2.858
 2430SOL    HW1 2284   2.122   3.982   2.950
 2430SOL    HW2 2285   1.999   3.954   2.846
 2441SOL     OW 2286   2.671   3.728   2.364
 2441SOL    HW1 2287   2.711   3.819   2.355
 2441SOL    HW2 2288   2.571   3.736   2.370
 2452SOL     OW 2289   2.412   3.920   2.747
 2452SOL    HW1 2290   2.407   3.915   2.847
 2452SOL    HW2 2291   2.414   4.016   2.718
 2458SOL     OW 2292   2.476   3.846   1.979
 2458SOL    HW1 2293   2.574   3.824   1.986
 2458SOL    HW2 2294   2.445   3.829   1.886
 2462SOL     OW 2295   2.401   3.788   2.374
 2462SOL    HW1 2296   2.320   3.789   2.432
 2462SOL    HW2 2297   2.404   3.871   2.319
 2463SOL     OW 2298   2.159   3.759   2.033
 2463SOL    HW1 2299   2.208   3.843   2.012
 2463SOL    HW2 2300   2.221   3.694   2.078
 2464SOL     OW 2301   2.797   3.960   2.342
 2464SOL    HW1 2302   2.749   4.001   2.264
 2464SOL    HW2 2303   2.896   3.958   2.323
 2468SOL     OW 2304   2.423   3.946   3.009
 2468SOL    HW1 2305   2.461   3.862   3.046
 2468SOL    HW2 2306   2.335   3.965   3.053
 2470SOL     OW 2307   2.879   3.763   2.615
 2470SOL    HW1 2308   2.807   3.768   2.546
 2470SOL    HW2 2309   2.855   3.694   2.684
 2474SOL     OW 2310   2.389   3.980   2.190
 2474SOL    HW1 2311   2.416   3.921   2.115
 2474SOL    HW2 2312   2.389   4.075   2.159
 2489SOL     OW 2313   2.169   3.787   2.480
 2489SOL    HW1 2314   2.158   3.881   2.513
 2489SOL    HW2 2315   2.164   3.724   2.557
 2505SOL     OW 2316   2.125   4.050   2.582
 2505SOL    HW1 2317   2.046   4.101   2.548
 2505SOL    HW2 2318   2.116   4.035   2.680
 2513SOL     OW 2319   1.934   3.890   2.180
 2513SOL    HW1 2320   1.917   3.973   2.126
 2513SOL    HW2 2321   2.024   3.853   2.158
 2524SOL     OW 2322   2.863   3.758   3.016
 2524SOL    HW1 2323   2.800   3.686   2.985
 2524SOL    HW2 2324   2.956   3.722   3.016
 2525SOL     OW 2325   3.214   3.776   2.030
 2525SOL    HW1 2326   3.249   3.735   1.946
 2525SOL    HW2 2327   3.124   3.738   2.050
 2601SOL     OW 2328   3.854   1.821   1.571
 2601SOL    HW1 2329   3.844   1.806   1.670
 2601SOL    HW2 2330   3.768   1.857   1.535
 2650SOL     OW 2331   3.854   1.794   1.851
 2650SOL    HW1 2332   3.813   1.720   1.904
 2650SOL    HW2 2333   3.918   1.845   1.909
 2684SOL     OW 2334   3.955   1.713   2.345
 2684SOL    HW1 2335   3.989   1.790   2.399
 2684SOL    HW2 2336   3.999   1.713   2.255
 2690SOL     OW 2337   3.751   1.596   1.979
 2690SOL    HW1 2338   3.732   1.500   2.000
 2690SOL    HW2 2339   3.718   1.654   2.054
 2735SOL     OW 2340   3.732   1.326   2.062
 2735SOL    HW1 2341   3.639   1.347   2.031
 2735SOL    HW2 2342   3.742   1.227   2.075
 2736SOL     OW 2343   3.812   1.801   2.789
 2736SOL    HW1 2344   3.770   1.715   2.762
 2736SOL    HW2 2345   3.906   1.804   2.755
 2832SOL     OW 2346   3.837   2.599   1.597
 2832SOL    HW1 2347   3.925   2.586   1.642
 2832SOL    HW2 2348   3.824   2.696   1.575
 2853SOL     OW 2349   3.802   2.418   1.386
 2853SOL    HW1 2350   3.894   2.417   1.345
 2853SOL    HW2 2351   3.796   2.492   1.453
 2879SOL     OW 2352   3.913   2.382   1.722
 2879SOL    HW1 2353   3.972   2.342   1.652
 2879SOL    HW2 2354   3.855   2.453   1.681
 2895SOL     OW 2355   3.829   2.875   1.726
 2895SOL    HW1 2356   3.752   2.842   1.780
 2895SOL    HW2 2357   3.914   2.845   1.768
 2912SOL     OW 2358   3.954   2.490   1.975
 2912SOL    HW1 2359   3.861   2.488   2.012
 2912SOL    HW2 2360   3.955   2.451   1.883
 2913SOL     OW 2361   3.949   2.137   2.858
 2913SOL    HW1 2362   3.984   2.120   2.950
 2913SOL    HW2 2363   3.861   2.092   2.846
 2914SOL     OW 2364   3.743   2.230   2.509
 2914SOL    HW1 2365   3.661   2.273   2.548
 2914SOL    HW2 2366   3.715   2.157   2.446
 2926SOL     OW 2367   3.846   2.505   2.425
 2926SOL    HW1 2368   3.801   2.417   2.442
 2926SOL    HW2 2369   3.845   2.559   2.509
 2934SOL     OW 2370   3.800   2.673   2.651
 2934SOL    HW1 2371   3.899   2.661   2.660
 2934SOL    HW2 2372   3.776   2.768   2.672
 2948SOL     OW 2373   4.021   1.897   2.033
 2948SOL    HW1 2374   4.070   1.981   2.012
 2948SOL    HW2 2375   4.083   1.832   2.078
 2950SOL     OW 2376   3.802   2.418   3.248
 2950SOL    HW1 2377   3.894   2.417   3.207
 2950SOL    HW2 2378   3.796   2.492   3.315
 2966SOL     OW 2379   4.031   1.925   2.480
 2966SOL    HW1 2380   4.020   2.019   2.513
 2966SOL    HW2 2381   4.026   1.862   2.557
 2972SOL     OW 2382   3.732   3.188   2.062
 2972SOL    HW1 2383   3.639   3.209   2.031
 2972SOL    HW2 2384   3.742   3.089   2.075
 2975SOL     OW 2385   3.764   2.406   2.976
 2975SOL    HW1 2386   3.849   2.373   2.935
 2975SOL    HW2 2387   3.777   2.421   3.074
 2987SOL     OW 2388   3.987   2.188   2.582
 2987SOL    HW1 2389   3.908   2.239   2.548
 2987SOL    HW2 2390   3.978   2.173   2.680
 2994SOL     OW 2391   3.799   2.207   1.895
 2994SOL    HW1 2392   3.707   2.179   1.866
 2994SOL    HW2 2393   3.830   2.284   1.839
 2995SOL     OW 2394   3.796   2.028   2.180
 2995SOL    HW1 2395   3.779   2.111   2.126
 2995SOL    HW2 2396   3.886   1.991   2.158
 3002SOL     OW 2397   3.803   3.102   2.515
 3002SOL    HW1 2398   3.802   3.055   2.603
 3002SOL    HW2 2399   3.885   3.074   2.464
 3008SOL     OW 2400   3.763   2.939   2.162
 3008SOL    HW1 2401   3.862   2.928   2.153
 3008SOL    HW2 2402   3.723   2.853   2.194
   4.60245   4.60245   4.60245
