mobley_4609460_GMX.gro created by acpype (v: 2023.10.27) on Thu May 21 00:10:11 2026
 2428
    1MOL     C1    1   2.310   2.573   2.358
    1MOL     C2    2   2.409   2.512   2.569
    1MOL     C3    3   2.202   2.631   2.425
    1MOL     C4    4   2.301   2.569   2.637
    1MOL     C5    5   2.413   2.514   2.430
    1MOL     C6    6   2.197   2.629   2.565
    1MOL     C7    7   2.526   2.454   2.360
    1MOL     C8    8   2.821   2.287   2.501
    1MOL     C9    9   2.733   2.339   2.390
    1MOL     O1   10   2.538   2.451   2.236
    1MOL     O2   11   2.092   2.684   2.630
    1MOL     O3   12   2.617   2.401   2.447
    1MOL     H1   13   2.312   2.576   2.249
    1MOL     H2   14   2.489   2.466   2.626
    1MOL     H3   15   2.121   2.677   2.368
    1MOL     H4   16   2.298   2.567   2.745
    1MOL     H5   17   2.853   2.369   2.566
    1MOL     H6   18   2.767   2.213   2.561
    1MOL     H7   19   2.909   2.237   2.460
    1MOL     H8   20   2.700   2.257   2.325
    1MOL     H9   21   2.786   2.414   2.330
    1MOL    H10   22   2.104   2.675   2.726
   35SOL     OW   23   1.187   1.792   1.616
   35SOL    HW1   24   1.211   1.852   1.540
   35SOL    HW2   25   1.194   1.697   1.586
   95SOL     OW   26   1.754   1.223   1.588
   95SOL    HW1   27   1.845   1.184   1.575
   95SOL    HW2   28   1.762   1.319   1.612
   97SOL     OW   29   1.592   1.629   1.625
   97SOL    HW1   30   1.619   1.663   1.535
   97SOL    HW2   31   1.671   1.591   1.671
  127SOL     OW   32   1.859   1.518   1.605
  127SOL    HW1   33   1.873   1.545   1.510
  127SOL    HW2   34   1.942   1.540   1.658
  152SOL     OW   35   1.759   1.747   1.154
  152SOL    HW1   36   1.820   1.777   1.081
  152SOL    HW2   37   1.721   1.658   1.132
  163SOL     OW   38   1.650   1.720   1.394
  163SOL    HW1   39   1.703   1.730   1.310
  163SOL    HW2   40   1.623   1.810   1.428
  219SOL     OW   41   1.555   1.511   2.565
  219SOL    HW1   42   1.498   1.495   2.646
  219SOL    HW2   43   1.496   1.521   2.485
  227SOL     OW   44   1.460   1.505   3.201
  227SOL    HW1   45   1.484   1.599   3.227
  227SOL    HW2   46   1.444   1.451   3.283
  238SOL     OW   47   1.842   1.767   2.221
  238SOL    HW1   48   1.896   1.738   2.301
  238SOL    HW2   49   1.872   1.857   2.192
  240SOL     OW   50   1.689   0.922   2.474
  240SOL    HW1   51   1.784   0.893   2.482
  240SOL    HW2   52   1.681   0.987   2.399
  241SOL     OW   53   1.641   1.108   2.294
  241SOL    HW1   54   1.727   1.110   2.242
  241SOL    HW2   55   1.655   1.155   2.382
  248SOL     OW   56   1.187   1.792   3.478
  248SOL    HW1   57   1.211   1.852   3.402
  248SOL    HW2   58   1.194   1.697   3.448
  250SOL     OW   59   1.466   1.417   2.815
  250SOL    HW1   60   1.407   1.423   2.895
  250SOL    HW2   61   1.451   1.329   2.769
  251SOL     OW   62   1.667   1.714   2.434
  251SOL    HW1   63   1.626   1.691   2.346
  251SOL    HW2   64   1.649   1.640   2.499
  254SOL     OW   65   1.576   1.662   2.169
  254SOL    HW1   66   1.665   1.708   2.172
  254SOL    HW2   67   1.555   1.638   2.074
  264SOL     OW   68   1.362   1.144   2.407
  264SOL    HW1   69   1.445   1.115   2.359
  264SOL    HW2   70   1.313   1.211   2.351
  266SOL     OW   71   1.008   1.456   2.339
  266SOL    HW1   72   0.962   1.528   2.287
  266SOL    HW2   73   1.004   1.476   2.437
  268SOL     OW   74   1.795   1.066   2.735
  268SOL    HW1   75   1.733   1.051   2.659
  268SOL    HW2   76   1.743   1.077   2.820
  269SOL     OW   77   1.227   1.550   3.368
  269SOL    HW1   78   1.233   1.473   3.432
  269SOL    HW2   79   1.175   1.524   3.288
  273SOL     OW   80   1.111   1.776   2.099
  273SOL    HW1   81   1.051   1.714   2.149
  273SOL    HW2   82   1.142   1.732   2.014
  275SOL     OW   83   1.632   1.377   1.943
  275SOL    HW1   84   1.600   1.471   1.933
  275SOL    HW2   85   1.556   1.314   1.931
  279SOL     OW   86   0.940   1.698   2.766
  279SOL    HW1   87   1.020   1.641   2.787
  279SOL    HW2   88   0.891   1.658   2.689
  289SOL     OW   89   1.434   1.188   1.903
  289SOL    HW1   90   1.466   1.112   1.960
  289SOL    HW2   91   1.342   1.215   1.933
  293SOL     OW   92   1.227   1.570   2.655
  293SOL    HW1   93   1.248   1.644   2.590
  293SOL    HW2   94   1.295   1.570   2.728
  295SOL     OW   95   1.271   1.797   2.453
  295SOL    HW1   96   1.315   1.861   2.389
  295SOL    HW2   97   1.221   1.849   2.523
  301SOL     OW   98   1.429   1.173   2.729
  301SOL    HW1   99   1.374   1.089   2.722
  301SOL    HW2  100   1.455   1.202   2.637
  303SOL     OW  101   1.857   0.833   2.239
  303SOL    HW1  102   1.899   0.769   2.303
  303SOL    HW2  103   1.819   0.782   2.161
  305SOL     OW  104   1.664   1.280   2.519
  305SOL    HW1  105   1.763   1.288   2.533
  305SOL    HW2  106   1.619   1.364   2.550
  308SOL     OW  107   1.754   1.223   3.450
  308SOL    HW1  108   1.845   1.184   3.437
  308SOL    HW2  109   1.762   1.319   3.474
  310SOL     OW  110   1.592   1.629   3.487
  310SOL    HW1  111   1.619   1.663   3.397
  310SOL    HW2  112   1.671   1.591   3.533
  312SOL     OW  113   1.638   1.099   2.941
  312SOL    HW1  114   1.643   1.180   3.000
  312SOL    HW2  115   1.552   1.101   2.890
  321SOL     OW  116   1.252   1.348   2.250
  321SOL    HW1  117   1.302   1.425   2.290
  321SOL    HW2  118   1.157   1.350   2.282
  322SOL     OW  119   1.272   1.445   3.004
  322SOL    HW1  120   1.319   1.458   3.091
  322SOL    HW2  121   1.206   1.371   3.013
  340SOL     OW  122   1.859   1.518   3.467
  340SOL    HW1  123   1.873   1.545   3.372
  340SOL    HW2  124   1.942   1.540   3.520
  365SOL     OW  125   1.759   1.747   3.016
  365SOL    HW1  126   1.820   1.777   2.943
  365SOL    HW2  127   1.721   1.658   2.994
  366SOL     OW  128   1.252   1.731   2.990
  366SOL    HW1  129   1.336   1.736   2.936
  366SOL    HW2  130   1.229   1.635   3.008
  370SOL     OW  131   1.388   1.573   2.339
  370SOL    HW1  132   1.455   1.585   2.265
  370SOL    HW2  133   1.348   1.662   2.362
  375SOL     OW  134   1.650   1.720   3.256
  375SOL    HW1  135   1.703   1.730   3.172
  375SOL    HW2  136   1.623   1.810   3.290
  378SOL     OW  137   1.194   1.612   1.893
  378SOL    HW1  138   1.200   1.519   1.930
  378SOL    HW2  139   1.135   1.612   1.813
  381SOL     OW  140   1.504   1.607   1.906
  381SOL    HW1  141   1.412   1.644   1.913
  381SOL    HW2  142   1.542   1.627   1.816
  383SOL     OW  143   1.614   1.292   3.151
  383SOL    HW1  144   1.674   1.295   3.231
  383SOL    HW2  145   1.539   1.356   3.164
  394SOL     OW  146   1.183   1.335   1.981
  394SOL    HW1  147   1.084   1.324   1.983
  394SOL    HW2  148   1.217   1.350   2.074
  396SOL     OW  149   1.493   1.767   2.821
  396SOL    HW1  150   1.526   1.831   2.752
  396SOL    HW2  151   1.559   1.761   2.896
  409SOL     OW  152   1.861   1.569   2.713
  409SOL    HW1  153   1.790   1.557   2.643
  409SOL    HW2  154   1.862   1.490   2.773
  415SOL     OW  155   1.705   1.487   2.966
  415SOL    HW1  156   1.612   1.462   2.939
  415SOL    HW2  157   1.731   1.437   3.048
  573SOL     OW  158   0.850   2.660   1.823
  573SOL    HW1  159   0.846   2.736   1.888
  573SOL    HW2  160   0.872   2.696   1.732
  577SOL     OW  161   1.460   3.367   1.339
  577SOL    HW1  162   1.484   3.461   1.365
  577SOL    HW2  163   1.444   3.313   1.421
  581SOL     OW  164   1.127   3.203   1.690
  581SOL    HW1  165   1.174   3.203   1.778
  581SOL    HW2  166   1.079   3.116   1.679
  586SOL     OW  167   1.594   1.976   1.480
  586SOL    HW1  168   1.576   2.043   1.408
  586SOL    HW2  169   1.591   2.022   1.569
  594SOL     OW  170   1.293   3.090   1.423
  594SOL    HW1  171   1.330   3.017   1.365
  594SOL    HW2  172   1.345   3.095   1.508
  606SOL     OW  173   1.394   2.331   1.674
  606SOL    HW1  174   1.374   2.374   1.762
  606SOL    HW2  175   1.472   2.269   1.683
  607SOL     OW  176   0.973   2.752   1.572
  607SOL    HW1  177   1.019   2.668   1.543
  607SOL    HW2  178   0.917   2.786   1.497
  613SOL     OW  179   1.719   2.447   1.831
  613SOL    HW1  180   1.693   2.536   1.795
  613SOL    HW2  181   1.717   2.379   1.758
  631SOL     OW  182   1.547   2.084   1.729
  631SOL    HW1  183   1.542   2.121   1.821
  631SOL    HW2  184   1.475   2.015   1.717
  635SOL     OW  185   1.351   2.452   1.433
  635SOL    HW1  186   1.379   2.409   1.518
  635SOL    HW2  187   1.376   2.548   1.434
  642SOL     OW  188   1.076   2.545   1.464
  642SOL    HW1  189   0.996   2.484   1.467
  642SOL    HW2  190   1.157   2.492   1.440
  652SOL     OW  191   1.466   2.452   0.992
  652SOL    HW1  192   1.436   2.357   0.999
  652SOL    HW2  193   1.539   2.468   1.058
  658SOL     OW  194   1.754   3.085   1.588
  658SOL    HW1  195   1.845   3.046   1.575
  658SOL    HW2  196   1.762   3.181   1.612
  660SOL     OW  197   1.592   3.491   1.625
  660SOL    HW1  198   1.619   3.525   1.535
  660SOL    HW2  199   1.671   3.453   1.671
  662SOL     OW  200   1.638   2.961   1.079
  662SOL    HW1  201   1.643   3.042   1.138
  662SOL    HW2  202   1.552   2.963   1.028
  664SOL     OW  203   0.980   2.978   1.719
  664SOL    HW1  204   0.881   2.984   1.729
  664SOL    HW2  205   1.003   2.898   1.663
  667SOL     OW  206   1.274   2.248   1.262
  667SOL    HW1  207   1.295   2.322   1.326
  667SOL    HW2  208   1.185   2.265   1.219
  676SOL     OW  209   1.587   2.641   1.670
  676SOL    HW1  210   1.495   2.679   1.665
  676SOL    HW2  211   1.647   2.688   1.605
  677SOL     OW  212   1.013   1.967   1.770
  677SOL    HW1  213   1.019   2.052   1.718
  677SOL    HW2  214   1.045   1.891   1.713
  685SOL     OW  215   1.728   2.797   1.854
  685SOL    HW1  216   1.682   2.790   1.765
  685SOL    HW2  217   1.666   2.841   1.920
  690SOL     OW  218   1.859   3.380   1.605
  690SOL    HW1  219   1.873   3.407   1.510
  690SOL    HW2  220   1.942   3.402   1.658
  697SOL     OW  221   1.138   2.242   1.678
  697SOL    HW1  222   1.093   2.305   1.742
  697SOL    HW2  223   1.231   2.273   1.661
  698SOL     OW  224   1.160   2.069   1.477
  698SOL    HW1  225   1.160   2.133   1.554
  698SOL    HW2  226   1.188   2.117   1.394
  705SOL     OW  227   1.369   2.812   1.660
  705SOL    HW1  228   1.408   2.901   1.680
  705SOL    HW2  229   1.379   2.792   1.563
  707SOL     OW  230   1.657   2.466   1.206
  707SOL    HW1  231   1.619   2.397   1.268
  707SOL    HW2  232   1.739   2.430   1.162
  713SOL     OW  233   1.347   2.921   1.234
  713SOL    HW1  234   1.371   2.858   1.160
  713SOL    HW2  235   1.257   2.961   1.216
  726SOL     OW  236   1.650   3.582   1.394
  726SOL    HW1  237   1.703   3.592   1.310
  726SOL    HW2  238   1.623   3.672   1.428
  727SOL     OW  239   1.841   2.037   0.963
  727SOL    HW1  240   1.880   1.952   0.927
  727SOL    HW2  241   1.743   2.039   0.944
  734SOL     OW  242   1.614   3.154   1.289
  734SOL    HW1  243   1.674   3.157   1.369
  734SOL    HW2  244   1.539   3.218   1.302
  738SOL     OW  245   1.709   2.247   1.381
  738SOL    HW1  246   1.782   2.316   1.385
  738SOL    HW2  247   1.737   2.172   1.322
  743SOL     OW  248   1.440   2.718   1.398
  743SOL    HW1  249   1.383   2.770   1.335
  743SOL    HW2  250   1.536   2.730   1.374
  749SOL     OW  251   1.450   3.082   1.633
  749SOL    HW1  252   1.441   3.072   1.732
  749SOL    HW2  253   1.546   3.075   1.607
  751SOL     OW  254   1.674   2.745   1.254
  751SOL    HW1  255   1.647   2.656   1.217
  751SOL    HW2  256   1.675   2.813   1.181
  754SOL     OW  257   1.777   2.204   1.642
  754SOL    HW1  258   1.760   2.235   1.548
  754SOL    HW2  259   1.693   2.167   1.680
  755SOL     OW  260   1.730   2.796   1.517
  755SOL    HW1  261   1.768   2.887   1.532
  755SOL    HW2  262   1.722   2.779   1.418
  764SOL     OW  263   1.824   2.054   1.227
  764SOL    HW1  264   1.820   1.964   1.271
  764SOL    HW2  265   1.827   2.043   1.128
  769SOL     OW  266   1.424   2.076   1.112
  769SOL    HW1  267   1.476   2.011   1.167
  769SOL    HW2  268   1.375   2.139   1.173
  782SOL     OW  269   1.555   3.373   2.565
  782SOL    HW1  270   1.498   3.357   2.646
  782SOL    HW2  271   1.496   3.383   2.485
  783SOL     OW  272   1.135   2.565   2.579
  783SOL    HW1  273   1.192   2.643   2.554
  783SOL    HW2  274   1.075   2.591   2.655
  784SOL     OW  275   1.755   2.469   2.093
  784SOL    HW1  276   1.743   2.456   1.994
  784SOL    HW2  277   1.725   2.388   2.142
  790SOL     OW  278   1.460   3.367   3.201
  790SOL    HW1  279   1.484   3.461   3.227
  790SOL    HW2  280   1.444   3.313   3.283
  792SOL     OW  281   1.603   2.309   2.599
  792SOL    HW1  282   1.529   2.355   2.549
  792SOL    HW2  283   1.654   2.377   2.652
  799SOL     OW  284   1.594   1.976   3.342
  799SOL    HW1  285   1.576   2.043   3.270
  799SOL    HW2  286   1.591   2.022   3.431
  801SOL     OW  287   1.842   3.629   2.221
  801SOL    HW1  288   1.896   3.600   2.301
  801SOL    HW2  289   1.872   3.719   2.192
  803SOL     OW  290   1.689   2.784   2.474
  803SOL    HW1  291   1.784   2.755   2.482
  803SOL    HW2  292   1.681   2.849   2.399
  804SOL     OW  293   1.641   2.970   2.294
  804SOL    HW1  294   1.727   2.972   2.242
  804SOL    HW2  295   1.655   3.017   2.382
  807SOL     OW  296   1.293   3.090   3.285
  807SOL    HW1  297   1.330   3.017   3.227
  807SOL    HW2  298   1.345   3.095   3.370
  808SOL     OW  299   0.809   1.866   2.364
  808SOL    HW1  300   0.849   1.957   2.355
  808SOL    HW2  301   0.709   1.874   2.370
  810SOL     OW  302   1.525   2.861   2.052
  810SOL    HW1  303   1.462   2.785   2.065
  810SOL    HW2  304   1.573   2.879   2.138
  813SOL     OW  305   1.466   3.279   2.815
  813SOL    HW1  306   1.407   3.285   2.895
  813SOL    HW2  307   1.451   3.191   2.769
  814SOL     OW  308   1.667   3.576   2.434
  814SOL    HW1  309   1.626   3.553   2.346
  814SOL    HW2  310   1.649   3.502   2.499
  816SOL     OW  311   1.281   2.207   2.806
  816SOL    HW1  312   1.195   2.157   2.793
  816SOL    HW2  313   1.343   2.153   2.862
  817SOL     OW  314   1.576   3.524   2.169
  817SOL    HW1  315   1.665   3.570   2.172
  817SOL    HW2  316   1.555   3.500   2.074
  819SOL     OW  317   1.394   2.331   3.536
  819SOL    HW1  318   1.374   2.374   3.624
  819SOL    HW2  319   1.472   2.269   3.545
  821SOL     OW  320   0.991   2.272   3.104
  821SOL    HW1  321   0.914   2.306   3.158
  821SOL    HW2  322   0.957   2.221   3.025
  822SOL     OW  323   1.041   2.563   2.291
  822SOL    HW1  324   1.067   2.559   2.387
  822SOL    HW2  325   0.956   2.512   2.277
  825SOL     OW  326   0.865   2.210   2.057
  825SOL    HW1  327   0.924   2.273   2.008
  825SOL    HW2  328   0.884   2.116   2.028
  826SOL     OW  329   1.719   2.447   3.693
  826SOL    HW1  330   1.693   2.536   3.657
  826SOL    HW2  331   1.717   2.379   3.620
  827SOL     OW  332   1.362   3.006   2.407
  827SOL    HW1  333   1.445   2.977   2.359
  827SOL    HW2  334   1.313   3.073   2.351
  829SOL     OW  335   1.008   3.318   2.339
  829SOL    HW1  336   0.962   3.390   2.287
  829SOL    HW2  337   1.004   3.338   2.437
  831SOL     OW  338   1.795   2.928   2.735
  831SOL    HW1  339   1.733   2.913   2.659
  831SOL    HW2  340   1.743   2.939   2.820
  832SOL     OW  341   1.227   3.412   3.368
  832SOL    HW1  342   1.233   3.335   3.432
  832SOL    HW2  343   1.175   3.386   3.288
  834SOL     OW  344   1.458   2.597   2.590
  834SOL    HW1  345   1.453   2.532   2.665
  834SOL    HW2  346   1.538   2.656   2.603
  838SOL     OW  347   1.632   3.239   1.943
  838SOL    HW1  348   1.600   3.333   1.933
  838SOL    HW2  349   1.556   3.176   1.931
  840SOL     OW  350   1.400   1.969   2.288
  840SOL    HW1  351   1.376   1.932   2.198
  840SOL    HW2  352   1.499   1.985   2.292
  844SOL     OW  353   1.547   2.084   3.591
  844SOL    HW1  354   1.542   2.121   3.683
  844SOL    HW2  355   1.475   2.015   3.579
  848SOL     OW  356   1.351   2.452   3.295
  848SOL    HW1  357   1.379   2.409   3.380
  848SOL    HW2  358   1.376   2.548   3.296
  850SOL     OW  359   0.922   2.365   2.761
  850SOL    HW1  360   0.897   2.356   2.665
  850SOL    HW2  361   0.970   2.283   2.792
  852SOL     OW  362   1.434   3.050   1.903
  852SOL    HW1  363   1.466   2.974   1.960
  852SOL    HW2  364   1.342   3.077   1.933
  854SOL     OW  365   0.935   2.098   2.342
  854SOL    HW1  366   0.887   2.139   2.264
  854SOL    HW2  367   1.034   2.096   2.323
  855SOL     OW  368   1.076   2.545   3.326
  855SOL    HW1  369   0.996   2.484   3.329
  855SOL    HW2  370   1.157   2.492   3.302
  856SOL     OW  371   1.227   3.432   2.655
  856SOL    HW1  372   1.248   3.506   2.590
  856SOL    HW2  373   1.295   3.432   2.728
  858SOL     OW  374   1.271   3.659   2.453
  858SOL    HW1  375   1.315   3.723   2.389
  858SOL    HW2  376   1.221   3.711   2.523
  859SOL     OW  377   1.032   2.411   1.878
  859SOL    HW1  378   0.991   2.493   1.839
  859SOL    HW2  379   1.096   2.437   1.951
  862SOL     OW  380   0.866   2.316   2.504
  862SOL    HW1  381   0.834   2.388   2.442
  862SOL    HW2  382   0.890   2.235   2.451
  863SOL     OW  383   1.017   1.901   2.615
  863SOL    HW1  384   0.945   1.906   2.546
  863SOL    HW2  385   0.993   1.832   2.684
  864SOL     OW  386   1.429   3.035   2.729
  864SOL    HW1  387   1.374   2.951   2.722
  864SOL    HW2  388   1.455   3.064   2.637
  865SOL     OW  389   1.466   2.452   2.854
  865SOL    HW1  390   1.436   2.357   2.861
  865SOL    HW2  391   1.539   2.468   2.920
  866SOL     OW  392   1.857   2.695   2.239
  866SOL    HW1  393   1.899   2.631   2.303
  866SOL    HW2  394   1.819   2.644   2.161
  868SOL     OW  395   1.664   3.142   2.519
  868SOL    HW1  396   1.763   3.150   2.533
  868SOL    HW2  397   1.619   3.226   2.550
  869SOL     OW  398   1.390   2.437   1.940
  869SOL    HW1  399   1.336   2.416   2.021
  869SOL    HW2  400   1.481   2.396   1.949
  871SOL     OW  401   1.754   3.085   3.450
  871SOL    HW1  402   1.845   3.046   3.437
  871SOL    HW2  403   1.762   3.181   3.474
  872SOL     OW  404   1.064   3.209   3.202
  872SOL    HW1  405   0.984   3.186   3.257
  872SOL    HW2  406   1.147   3.183   3.251
  873SOL     OW  407   1.592   3.491   3.487
  873SOL    HW1  408   1.619   3.525   3.397
  873SOL    HW2  409   1.671   3.453   3.533
  874SOL     OW  410   1.111   3.057   2.962
  874SOL    HW1  411   1.071   3.101   3.043
  874SOL    HW2  412   1.070   3.094   2.879
  875SOL     OW  413   1.638   2.961   2.941
  875SOL    HW1  414   1.643   3.042   3.000
  875SOL    HW2  415   1.552   2.963   2.890
  880SOL     OW  416   1.274   2.248   3.124
  880SOL    HW1  417   1.295   2.322   3.188
  880SOL    HW2  418   1.185   2.265   3.081
  884SOL     OW  419   1.252   3.210   2.250
  884SOL    HW1  420   1.302   3.287   2.290
  884SOL    HW2  421   1.157   3.212   2.282
  885SOL     OW  422   1.272   3.307   3.004
  885SOL    HW1  423   1.319   3.320   3.091
  885SOL    HW2  424   1.206   3.233   3.013
  886SOL     OW  425   1.582   2.501   2.334
  886SOL    HW1  426   1.551   2.562   2.407
  886SOL    HW2  427   1.632   2.553   2.265
  889SOL     OW  428   1.587   2.641   3.532
  889SOL    HW1  429   1.495   2.679   3.527
  889SOL    HW2  430   1.647   2.688   3.467
  893SOL     OW  431   1.360   2.724   2.907
  893SOL    HW1  432   1.285   2.724   2.841
  893SOL    HW2  433   1.397   2.632   2.916
  894SOL     OW  434   1.209   2.387   2.137
  894SOL    HW1  435   1.222   2.303   2.191
  894SOL    HW2  436   1.180   2.461   2.197
  898SOL     OW  437   1.728   2.797   3.716
  898SOL    HW1  438   1.682   2.790   3.627
  898SOL    HW2  439   1.666   2.841   3.782
  900SOL     OW  440   1.622   2.229   2.236
  900SOL    HW1  441   1.624   2.153   2.300
  900SOL    HW2  442   1.574   2.306   2.276
  901SOL     OW  443   1.023   2.628   2.828
  901SOL    HW1  444   1.038   2.649   2.924
  901SOL    HW2  445   0.993   2.533   2.819
  903SOL     OW  446   1.859   3.380   3.467
  903SOL    HW1  447   1.873   3.407   3.372
  903SOL    HW2  448   1.942   3.402   3.520
  905SOL     OW  449   1.540   2.136   1.987
  905SOL    HW1  450   1.479   2.061   2.010
  905SOL    HW2  451   1.562   2.188   2.070
  906SOL     OW  452   1.303   2.700   1.904
  906SOL    HW1  453   1.337   2.607   1.919
  906SOL    HW2  454   1.321   2.727   1.809
  907SOL     OW  455   1.068   3.195   2.711
  907SOL    HW1  456   1.075   3.111   2.656
  907SOL    HW2  457   1.130   3.264   2.675
  910SOL     OW  458   1.138   2.242   3.540
  910SOL    HW1  459   1.093   2.305   3.604
  910SOL    HW2  460   1.231   2.273   3.523
  911SOL     OW  461   1.160   2.069   3.339
  911SOL    HW1  462   1.160   2.133   3.416
  911SOL    HW2  463   1.188   2.117   3.256
  915SOL     OW  464   1.002   2.658   3.100
  915SOL    HW1  465   1.043   2.626   3.186
  915SOL    HW2  466   0.906   2.631   3.097
  918SOL     OW  467   1.369   2.812   3.522
  918SOL    HW1  468   1.408   2.901   3.542
  918SOL    HW2  469   1.379   2.792   3.425
  919SOL     OW  470   0.815   2.434   2.187
  919SOL    HW1  471   0.822   2.345   2.141
  919SOL    HW2  472   0.721   2.468   2.179
  920SOL     OW  473   1.657   2.466   3.068
  920SOL    HW1  474   1.619   2.397   3.130
  920SOL    HW2  475   1.739   2.430   3.024
  926SOL     OW  476   1.347   2.921   3.096
  926SOL    HW1  477   1.371   2.858   3.022
  926SOL    HW2  478   1.257   2.961   3.078
  927SOL     OW  479   1.302   2.717   2.171
  927SOL    HW1  480   1.216   2.686   2.213
  927SOL    HW2  481   1.298   2.703   2.072
  928SOL     OW  482   1.759   3.609   3.016
  928SOL    HW1  483   1.820   3.639   2.943
  928SOL    HW2  484   1.721   3.520   2.994
  929SOL     OW  485   1.252   3.593   2.990
  929SOL    HW1  486   1.336   3.598   2.936
  929SOL    HW2  487   1.229   3.497   3.008
  932SOL     OW  488   1.726   1.997   2.385
  932SOL    HW1  489   1.799   1.980   2.318
  932SOL    HW2  490   1.695   1.910   2.423
  933SOL     OW  491   1.388   3.435   2.339
  933SOL    HW1  492   1.455   3.447   2.265
  933SOL    HW2  493   1.348   3.524   2.362
  935SOL     OW  494   1.280   2.789   2.534
  935SOL    HW1  495   1.340   2.708   2.536
  935SOL    HW2  496   1.320   2.858   2.474
  938SOL     OW  497   1.650   3.582   3.256
  938SOL    HW1  498   1.703   3.592   3.172
  938SOL    HW2  499   1.623   3.672   3.290
  939SOL     OW  500   1.841   2.037   2.825
  939SOL    HW1  501   1.880   1.952   2.789
  939SOL    HW2  502   1.743   2.039   2.806
  941SOL     OW  503   1.194   3.474   1.893
  941SOL    HW1  504   1.200   3.381   1.930
  941SOL    HW2  505   1.135   3.474   1.813
  943SOL     OW  506   0.916   2.772   2.153
  943SOL    HW1  507   0.979   2.810   2.085
  943SOL    HW2  508   0.956   2.689   2.192
  944SOL     OW  509   1.504   3.469   1.906
  944SOL    HW1  510   1.412   3.506   1.913
  944SOL    HW2  511   1.542   3.489   1.816
  946SOL     OW  512   1.614   3.154   3.151
  946SOL    HW1  513   1.674   3.157   3.231
  946SOL    HW2  514   1.539   3.218   3.164
  947SOL     OW  515   1.039   2.960   2.558
  947SOL    HW1  516   0.969   2.913   2.612
  947SOL    HW2  517   1.098   2.892   2.515
  948SOL     OW  518   1.014   2.098   2.833
  948SOL    HW1  519   1.006   2.062   2.740
  948SOL    HW2  520   1.012   2.022   2.898
  950SOL     OW  521   1.709   2.247   3.243
  950SOL    HW1  522   1.782   2.316   3.247
  950SOL    HW2  523   1.737   2.172   3.184
  955SOL     OW  524   1.440   2.718   3.260
  955SOL    HW1  525   1.383   2.770   3.197
  955SOL    HW2  526   1.536   2.730   3.236
  957SOL     OW  527   1.183   3.197   1.981
  957SOL    HW1  528   1.084   3.186   1.983
  957SOL    HW2  529   1.217   3.212   2.074
  959SOL     OW  530   1.493   3.629   2.821
  959SOL    HW1  531   1.526   3.693   2.752
  959SOL    HW2  532   1.559   3.623   2.896
  961SOL     OW  533   1.450   3.082   3.495
  961SOL    HW1  534   1.441   3.072   3.594
  961SOL    HW2  535   1.546   3.075   3.469
  963SOL     OW  536   1.674   2.745   3.116
  963SOL    HW1  537   1.647   2.656   3.079
  963SOL    HW2  538   1.675   2.813   3.043
  964SOL     OW  539   1.225   2.187   2.311
  964SOL    HW1  540   1.290   2.113   2.300
  964SOL    HW2  541   1.245   2.237   2.395
  966SOL     OW  542   1.777   2.204   3.504
  966SOL    HW1  543   1.760   2.235   3.410
  966SOL    HW2  544   1.693   2.167   3.542
  967SOL     OW  545   1.730   2.796   3.379
  967SOL    HW1  546   1.768   2.887   3.394
  967SOL    HW2  547   1.722   2.779   3.280
  970SOL     OW  548   0.859   2.818   2.723
  970SOL    HW1  549   0.913   2.749   2.771
  970SOL    HW2  550   0.827   2.887   2.789
  971SOL     OW  551   1.083   2.846   1.949
  971SOL    HW1  552   1.060   2.899   1.867
  971SOL    HW2  553   1.164   2.790   1.930
  972SOL     OW  554   1.861   3.431   2.713
  972SOL    HW1  555   1.790   3.419   2.643
  972SOL    HW2  556   1.862   3.352   2.773
  976SOL     OW  557   1.824   2.054   3.089
  976SOL    HW1  558   1.820   1.964   3.133
  976SOL    HW2  559   1.827   2.043   2.990
  978SOL     OW  560   1.705   3.349   2.966
  978SOL    HW1  561   1.612   3.324   2.939
  978SOL    HW2  562   1.731   3.299   3.048
  981SOL     OW  563   1.424   2.076   2.974
  981SOL    HW1  564   1.476   2.011   3.029
  981SOL    HW2  565   1.375   2.139   3.035
  982SOL     OW  566   1.001   1.896   3.016
  982SOL    HW1  567   0.938   1.824   2.985
  982SOL    HW2  568   1.094   1.860   3.016
  985SOL     OW  569   1.352   1.914   2.030
  985SOL    HW1  570   1.387   1.873   1.946
  985SOL    HW2  571   1.262   1.876   2.050
  986SOL     OW  572   1.300   2.315   2.553
  986SOL    HW1  573   1.241   2.395   2.557
  986SOL    HW2  574   1.315   2.280   2.646
  987SOL     OW  575   1.593   2.083   2.744
  987SOL    HW1  576   1.509   2.082   2.798
  987SOL    HW2  577   1.595   2.166   2.688
  996SOL     OW  578   1.755   2.469   3.955
  996SOL    HW1  579   1.743   2.456   3.856
  996SOL    HW2  580   1.725   2.388   4.004
 1013SOL     OW  581   1.525   2.861   3.914
 1013SOL    HW1  582   1.462   2.785   3.927
 1013SOL    HW2  583   1.573   2.879   4.000
 1030SOL     OW  584   1.632   3.239   3.805
 1030SOL    HW1  585   1.600   3.333   3.795
 1030SOL    HW2  586   1.556   3.176   3.793
 1040SOL     OW  587   1.434   3.050   3.765
 1040SOL    HW1  588   1.466   2.974   3.822
 1040SOL    HW2  589   1.342   3.077   3.795
 1051SOL     OW  590   1.857   2.695   4.101
 1051SOL    HW1  591   1.899   2.631   4.165
 1051SOL    HW2  592   1.819   2.644   4.023
 1054SOL     OW  593   1.390   2.437   3.802
 1054SOL    HW1  594   1.336   2.416   3.883
 1054SOL    HW2  595   1.481   2.396   3.811
 1072SOL     OW  596   1.540   2.136   3.849
 1072SOL    HW1  597   1.479   2.061   3.872
 1072SOL    HW2  598   1.562   2.188   3.932
 1073SOL     OW  599   1.303   2.700   3.766
 1073SOL    HW1  600   1.337   2.607   3.781
 1073SOL    HW2  601   1.321   2.727   3.671
 1308SOL     OW  602   1.400   3.831   2.288
 1308SOL    HW1  603   1.376   3.794   2.198
 1308SOL    HW2  604   1.499   3.847   2.292
 1373SOL     OW  605   1.726   3.859   2.385
 1373SOL    HW1  606   1.799   3.842   2.318
 1373SOL    HW2  607   1.695   3.772   2.423
 1375SOL     OW  608   1.841   3.899   2.825
 1375SOL    HW1  609   1.880   3.814   2.789
 1375SOL    HW2  610   1.743   3.901   2.806
 1399SOL     OW  611   1.824   3.916   3.089
 1399SOL    HW1  612   1.820   3.826   3.133
 1399SOL    HW2  613   1.827   3.905   2.990
 1405SOL     OW  614   1.352   3.776   2.030
 1405SOL    HW1  615   1.387   3.735   1.946
 1405SOL    HW2  616   1.262   3.738   2.050
 1407SOL     OW  617   1.593   3.945   2.744
 1407SOL    HW1  618   1.509   3.944   2.798
 1407SOL    HW2  619   1.595   4.028   2.688
 1508SOL     OW  620   2.431   1.275   1.165
 1508SOL    HW1  621   2.338   1.268   1.128
 1508SOL    HW2  622   2.442   1.364   1.209
 1515SOL     OW  623   2.548   1.161   1.803
 1515SOL    HW1  624   2.608   1.240   1.817
 1515SOL    HW2  625   2.462   1.192   1.762
 1516SOL     OW  626   2.197   1.435   1.061
 1516SOL    HW1  627   2.119   1.404   1.008
 1516SOL    HW2  628   2.255   1.493   1.004
 1517SOL     OW  629   3.322   1.505   1.339
 1517SOL    HW1  630   3.346   1.599   1.365
 1517SOL    HW2  631   3.306   1.451   1.421
 1521SOL     OW  632   2.989   1.341   1.690
 1521SOL    HW1  633   3.036   1.341   1.778
 1521SOL    HW2  634   2.941   1.254   1.679
 1524SOL     OW  635   2.482   1.786   1.439
 1524SOL    HW1  636   2.390   1.769   1.474
 1524SOL    HW2  637   2.510   1.878   1.465
 1534SOL     OW  638   3.155   1.228   1.423
 1534SOL    HW1  639   3.192   1.155   1.365
 1534SOL    HW2  640   3.207   1.233   1.508
 1538SOL     OW  641   3.049   1.792   1.616
 1538SOL    HW1  642   3.073   1.852   1.540
 1538SOL    HW2  643   3.056   1.697   1.586
 1551SOL     OW  644   1.992   1.821   1.571
 1551SOL    HW1  645   1.982   1.806   1.670
 1551SOL    HW2  646   1.906   1.857   1.535
 1557SOL     OW  647   2.213   1.801   0.853
 1557SOL    HW1  648   2.263   1.715   0.859
 1557SOL    HW2  649   2.278   1.878   0.850
 1559SOL     OW  650   3.089   1.550   1.506
 1559SOL    HW1  651   3.095   1.473   1.570
 1559SOL    HW2  652   3.037   1.524   1.426
 1562SOL     OW  653   2.323   1.266   1.727
 1562SOL    HW1  654   2.273   1.267   1.641
 1562SOL    HW2  655   2.260   1.248   1.803
 1568SOL     OW  656   2.111   1.785   1.241
 1568SOL    HW1  657   2.168   1.720   1.291
 1568SOL    HW2  658   2.095   1.752   1.148
 1569SOL     OW  659   2.802   1.698   0.904
 1569SOL    HW1  660   2.882   1.641   0.925
 1569SOL    HW2  661   2.753   1.658   0.827
 1574SOL     OW  662   2.750   1.514   1.195
 1574SOL    HW1  663   2.727   1.489   1.101
 1574SOL    HW2  664   2.811   1.445   1.234
 1599SOL     OW  665   2.926   1.347   1.340
 1599SOL    HW1  666   2.846   1.324   1.395
 1599SOL    HW2  667   3.009   1.321   1.389
 1600SOL     OW  668   3.454   1.629   1.625
 1600SOL    HW1  669   3.481   1.663   1.535
 1600SOL    HW2  670   3.533   1.591   1.671
 1604SOL     OW  671   2.842   1.116   1.719
 1604SOL    HW1  672   2.743   1.122   1.729
 1604SOL    HW2  673   2.865   1.036   1.663
 1608SOL     OW  674   1.926   1.564   1.331
 1608SOL    HW1  675   1.880   1.646   1.297
 1608SOL    HW2  676   2.024   1.583   1.340
 1614SOL     OW  677   2.216   1.510   1.329
 1614SOL    HW1  678   2.195   1.466   1.242
 1614SOL    HW2  679   2.313   1.536   1.332
 1623SOL     OW  680   1.899   1.310   1.282
 1623SOL    HW1  681   1.952   1.261   1.350
 1623SOL    HW2  682   1.921   1.408   1.287
 1629SOL     OW  683   2.842   1.573   1.700
 1629SOL    HW1  684   2.822   1.617   1.612
 1629SOL    HW2  685   2.881   1.482   1.684
 1630SOL     OW  686   3.721   1.518   1.605
 1630SOL    HW1  687   3.735   1.545   1.510
 1630SOL    HW2  688   3.804   1.540   1.658
 1631SOL     OW  689   2.212   0.898   1.804
 1631SOL    HW1  690   2.288   0.942   1.852
 1631SOL    HW2  691   2.247   0.851   1.722
 1640SOL     OW  692   1.950   1.801   0.927
 1640SOL    HW1  693   1.908   1.715   0.900
 1640SOL    HW2  694   2.044   1.804   0.893
 1648SOL     OW  695   2.114   1.564   1.744
 1648SOL    HW1  696   2.084   1.621   1.820
 1648SOL    HW2  697   2.107   1.467   1.770
 1650SOL     OW  698   2.792   1.678   1.465
 1650SOL    HW1  699   2.768   1.660   1.370
 1650SOL    HW2  700   2.822   1.772   1.475
 1652SOL     OW  701   2.021   1.137   1.466
 1652SOL    HW1  702   2.043   1.076   1.542
 1652SOL    HW2  703   2.031   1.088   1.380
 1656SOL     OW  704   3.114   1.731   1.128
 1656SOL    HW1  705   3.198   1.736   1.074
 1656SOL    HW2  706   3.091   1.635   1.146
 1658SOL     OW  707   2.550   1.662   1.716
 1658SOL    HW1  708   2.494   1.743   1.725
 1658SOL    HW2  709   2.602   1.666   1.630
 1662SOL     OW  710   1.992   1.794   1.851
 1662SOL    HW1  711   1.951   1.720   1.904
 1662SOL    HW2  712   2.056   1.845   1.909
 1664SOL     OW  713   2.692   1.273   1.422
 1664SOL    HW1  714   2.687   1.306   1.517
 1664SOL    HW2  715   2.606   1.292   1.376
 1666SOL     OW  716   3.512   1.720   1.394
 1666SOL    HW1  717   3.565   1.730   1.310
 1666SOL    HW2  718   3.485   1.810   1.428
 1673SOL     OW  719   2.234   1.288   1.490
 1673SOL    HW1  720   2.221   1.381   1.456
 1673SOL    HW2  721   2.150   1.236   1.477
 1680SOL     OW  722   1.967   1.013   1.726
 1680SOL    HW1  723   1.890   0.980   1.780
 1680SOL    HW2  724   2.052   0.983   1.768
 1688SOL     OW  725   3.312   1.220   1.633
 1688SOL    HW1  726   3.303   1.210   1.732
 1688SOL    HW2  727   3.408   1.213   1.607
 1689SOL     OW  728   2.252   1.741   1.560
 1689SOL    HW1  729   2.161   1.782   1.558
 1689SOL    HW2  730   2.245   1.647   1.592
 1696SOL     OW  731   2.523   1.790   0.953
 1696SOL    HW1  732   2.477   1.878   0.940
 1696SOL    HW2  733   2.622   1.802   0.946
 1700SOL     OW  734   2.083   1.314   1.844
 1700SOL    HW1  735   2.018   1.241   1.823
 1700SOL    HW2  736   2.087   1.328   1.942
 1702SOL     OW  737   2.534   1.391   1.624
 1702SOL    HW1  738   2.456   1.341   1.662
 1702SOL    HW2  739   2.531   1.486   1.655
 1711SOL     OW  740   2.480   1.567   1.284
 1711SOL    HW1  741   2.475   1.649   1.341
 1711SOL    HW2  742   2.569   1.564   1.239
 1720SOL     OW  743   2.431   1.275   3.027
 1720SOL    HW1  744   2.338   1.268   2.990
 1720SOL    HW2  745   2.442   1.364   3.071
 1721SOL     OW  746   3.417   1.511   2.565
 1721SOL    HW1  747   3.360   1.495   2.646
 1721SOL    HW2  748   3.358   1.521   2.485
 1724SOL     OW  749   2.630   1.144   2.885
 1724SOL    HW1  750   2.552   1.161   2.945
 1724SOL    HW2  751   2.664   1.231   2.849
 1726SOL     OW  752   2.547   1.012   2.527
 1726SOL    HW1  753   2.616   0.996   2.597
 1726SOL    HW2  754   2.474   1.069   2.565
 1727SOL     OW  755   2.548   1.161   3.665
 1727SOL    HW1  756   2.608   1.240   3.679
 1727SOL    HW2  757   2.462   1.192   3.624
 1728SOL     OW  758   2.197   1.435   2.923
 1728SOL    HW1  759   2.119   1.404   2.870
 1728SOL    HW2  760   2.255   1.493   2.866
 1729SOL     OW  761   3.322   1.505   3.201
 1729SOL    HW1  762   3.346   1.599   3.227
 1729SOL    HW2  763   3.306   1.451   3.283
 1732SOL     OW  764   2.093   1.713   2.345
 1732SOL    HW1  765   2.127   1.790   2.399
 1732SOL    HW2  766   2.137   1.713   2.255
 1733SOL     OW  767   2.989   1.341   3.552
 1733SOL    HW1  768   3.036   1.341   3.640
 1733SOL    HW2  769   2.941   1.254   3.541
 1734SOL     OW  770   2.092   1.434   2.400
 1734SOL    HW1  771   2.066   1.530   2.400
 1734SOL    HW2  772   2.021   1.380   2.445
 1735SOL     OW  773   2.102   1.091   2.748
 1735SOL    HW1  774   2.116   1.007   2.800
 1735SOL    HW2  775   2.047   1.155   2.803
 1736SOL     OW  776   2.482   1.786   3.301
 1736SOL    HW1  777   2.390   1.769   3.336
 1736SOL    HW2  778   2.510   1.878   3.327
 1737SOL     OW  779   2.468   0.964   1.985
 1737SOL    HW1  780   2.475   1.048   1.931
 1737SOL    HW2  781   2.514   0.977   2.073
 1740SOL     OW  782   3.704   1.767   2.221
 1740SOL    HW1  783   3.758   1.738   2.301
 1740SOL    HW2  784   3.734   1.857   2.192
 1741SOL     OW  785   1.889   1.596   1.979
 1741SOL    HW1  786   1.870   1.500   2.000
 1741SOL    HW2  787   1.856   1.654   2.054
 1743SOL     OW  788   3.503   1.108   2.294
 1743SOL    HW1  789   3.589   1.110   2.242
 1743SOL    HW2  790   3.517   1.155   2.382
 1745SOL     OW  791   2.475   1.365   2.588
 1745SOL    HW1  792   2.426   1.278   2.597
 1745SOL    HW2  793   2.452   1.408   2.501
 1746SOL     OW  794   3.155   1.228   3.285
 1746SOL    HW1  795   3.192   1.155   3.227
 1746SOL    HW2  796   3.207   1.233   3.370
 1748SOL     OW  797   2.059   0.976   3.126
 1748SOL    HW1  798   2.148   0.931   3.112
 1748SOL    HW2  799   1.986   0.911   3.107
 1749SOL     OW  800   3.387   0.999   2.052
 1749SOL    HW1  801   3.324   0.923   2.065
 1749SOL    HW2  802   3.435   1.017   2.138
 1750SOL     OW  803   3.049   1.792   3.478
 1750SOL    HW1  804   3.073   1.852   3.402
 1750SOL    HW2  805   3.056   1.697   3.448
 1752SOL     OW  806   3.328   1.417   2.815
 1752SOL    HW1  807   3.269   1.423   2.895
 1752SOL    HW2  808   3.313   1.329   2.769
 1753SOL     OW  809   3.529   1.714   2.434
 1753SOL    HW1  810   3.488   1.691   2.346
 1753SOL    HW2  811   3.511   1.640   2.499
 1754SOL     OW  812   2.460   0.729   2.132
 1754SOL    HW1  813   2.484   0.798   2.064
 1754SOL    HW2  814   2.382   0.762   2.186
 1756SOL     OW  815   3.438   1.662   2.169
 1756SOL    HW1  816   3.527   1.708   2.172
 1756SOL    HW2  817   3.417   1.638   2.074
 1762SOL     OW  818   1.938   0.811   2.651
 1762SOL    HW1  819   2.037   0.799   2.660
 1762SOL    HW2  820   1.914   0.906   2.672
 1763SOL     OW  821   1.992   1.821   3.433
 1763SOL    HW1  822   1.982   1.806   3.532
 1763SOL    HW2  823   1.906   1.857   3.397
 1766SOL     OW  824   3.224   1.144   2.407
 1766SOL    HW1  825   3.307   1.115   2.359
 1766SOL    HW2  826   3.175   1.211   2.351
 1768SOL     OW  827   2.870   1.456   2.339
 1768SOL    HW1  828   2.824   1.528   2.287
 1768SOL    HW2  829   2.866   1.476   2.437
 1769SOL     OW  830   2.213   1.801   2.715
 1769SOL    HW1  831   2.263   1.715   2.721
 1769SOL    HW2  832   2.278   1.878   2.712
 1771SOL     OW  833   3.089   1.550   3.368
 1771SOL    HW1  834   3.095   1.473   3.432
 1771SOL    HW2  835   3.037   1.524   3.288
 1772SOL     OW  836   2.183   0.943   2.104
 1772SOL    HW1  837   2.265   0.982   2.062
 1772SOL    HW2  838   2.156   0.861   2.055
 1774SOL     OW  839   2.323   1.266   3.589
 1774SOL    HW1  840   2.273   1.267   3.503
 1774SOL    HW2  841   2.260   1.248   3.665
 1775SOL     OW  842   2.973   1.776   2.099
 1775SOL    HW1  843   2.913   1.714   2.149
 1775SOL    HW2  844   3.004   1.732   2.014
 1777SOL     OW  845   3.494   1.377   1.943
 1777SOL    HW1  846   3.462   1.471   1.933
 1777SOL    HW2  847   3.418   1.314   1.931
 1778SOL     OW  848   2.326   1.743   2.185
 1778SOL    HW1  849   2.359   1.782   2.271
 1778SOL    HW2  850   2.402   1.736   2.120
 1780SOL     OW  851   2.111   1.785   3.103
 1780SOL    HW1  852   2.168   1.720   3.153
 1780SOL    HW2  853   2.095   1.752   3.010
 1781SOL     OW  854   2.802   1.698   2.766
 1781SOL    HW1  855   2.882   1.641   2.787
 1781SOL    HW2  856   2.753   1.658   2.689
 1782SOL     OW  857   2.244   0.700   2.342
 1782SOL    HW1  858   2.289   0.610   2.339
 1782SOL    HW2  859   2.150   0.689   2.375
 1786SOL     OW  860   2.750   1.514   3.057
 1786SOL    HW1  861   2.727   1.489   2.963
 1786SOL    HW2  862   2.811   1.445   3.096
 1788SOL     OW  863   2.665   1.402   2.786
 1788SOL    HW1  864   2.755   1.416   2.744
 1788SOL    HW2  865   2.594   1.404   2.715
 1791SOL     OW  866   3.296   1.188   1.903
 1791SOL    HW1  867   3.328   1.112   1.960
 1791SOL    HW2  868   3.204   1.215   1.933
 1795SOL     OW  869   3.089   1.570   2.655
 1795SOL    HW1  870   3.110   1.644   2.590
 1795SOL    HW2  871   3.157   1.570   2.728
 1796SOL     OW  872   2.321   1.152   2.603
 1796SOL    HW1  873   2.250   1.125   2.668
 1796SOL    HW2  874   2.295   1.124   2.510
 1797SOL     OW  875   3.133   1.797   2.453
 1797SOL    HW1  876   3.177   1.861   2.389
 1797SOL    HW2  877   3.083   1.849   2.523
 1803SOL     OW  878   3.291   1.173   2.729
 1803SOL    HW1  879   3.236   1.089   2.722
 1803SOL    HW2  880   3.317   1.202   2.637
 1806SOL     OW  881   2.350   1.385   2.036
 1806SOL    HW1  882   2.263   1.370   2.083
 1806SOL    HW2  883   2.333   1.411   1.941
 1807SOL     OW  884   3.526   1.280   2.519
 1807SOL    HW1  885   3.625   1.288   2.533
 1807SOL    HW2  886   3.481   1.364   2.550
 1811SOL     OW  887   2.926   1.347   3.202
 1811SOL    HW1  888   2.846   1.324   3.257
 1811SOL    HW2  889   3.009   1.321   3.251
 1812SOL     OW  890   3.454   1.629   3.487
 1812SOL    HW1  891   3.481   1.663   3.397
 1812SOL    HW2  892   3.533   1.591   3.533
 1813SOL     OW  893   2.973   1.195   2.962
 1813SOL    HW1  894   2.933   1.239   3.043
 1813SOL    HW2  895   2.932   1.232   2.879
 1814SOL     OW  896   3.500   1.099   2.941
 1814SOL    HW1  897   3.505   1.180   3.000
 1814SOL    HW2  898   3.414   1.101   2.890
 1816SOL     OW  899   2.842   1.116   3.581
 1816SOL    HW1  900   2.743   1.122   3.591
 1816SOL    HW2  901   2.865   1.036   3.525
 1817SOL     OW  902   2.567   1.050   2.230
 1817SOL    HW1  903   2.553   1.057   2.329
 1817SOL    HW2  904   2.651   0.999   2.212
 1818SOL     OW  905   2.272   0.813   3.113
 1818SOL    HW1  906   2.358   0.825   3.163
 1818SOL    HW2  907   2.230   0.726   3.140
 1820SOL     OW  908   1.926   1.564   3.193
 1820SOL    HW1  909   1.880   1.646   3.159
 1820SOL    HW2  910   2.024   1.583   3.202
 1821SOL     OW  911   2.229   1.100   2.363
 1821SOL    HW1  912   2.222   1.183   2.307
 1821SOL    HW2  913   2.233   1.020   2.303
 1823SOL     OW  914   3.114   1.348   2.250
 1823SOL    HW1  915   3.164   1.425   2.290
 1823SOL    HW2  916   3.019   1.350   2.282
 1824SOL     OW  917   3.134   1.445   3.004
 1824SOL    HW1  918   3.181   1.458   3.091
 1824SOL    HW2  919   3.068   1.371   3.013
 1826SOL     OW  920   2.216   1.510   3.191
 1826SOL    HW1  921   2.195   1.466   3.104
 1826SOL    HW2  922   2.313   1.536   3.194
 1831SOL     OW  923   2.435   0.870   2.891
 1831SOL    HW1  924   2.479   0.959   2.882
 1831SOL    HW2  925   2.372   0.870   2.968
 1835SOL     OW  926   1.899   1.310   3.144
 1835SOL    HW1  927   1.952   1.261   3.212
 1835SOL    HW2  928   1.921   1.408   3.149
 1840SOL     OW  929   2.885   0.766   2.828
 1840SOL    HW1  930   2.900   0.787   2.924
 1840SOL    HW2  931   2.855   0.671   2.819
 1841SOL     OW  932   2.842   1.573   3.562
 1841SOL    HW1  933   2.822   1.617   3.474
 1841SOL    HW2  934   2.881   1.482   3.546
 1846SOL     OW  935   2.930   1.333   2.711
 1846SOL    HW1  936   2.937   1.249   2.656
 1846SOL    HW2  937   2.992   1.402   2.675
 1847SOL     OW  938   2.181   0.810   2.811
 1847SOL    HW1  939   2.274   0.846   2.816
 1847SOL    HW2  940   2.175   0.725   2.863
 1851SOL     OW  941   1.870   1.326   2.062
 1851SOL    HW1  942   1.777   1.347   2.031
 1851SOL    HW2  943   1.880   1.227   2.075
 1852SOL     OW  944   1.950   1.801   2.789
 1852SOL    HW1  945   1.908   1.715   2.762
 1852SOL    HW2  946   2.044   1.804   2.755
 1853SOL     OW  947   2.366   1.568   2.772
 1853SOL    HW1  948   2.432   1.642   2.781
 1853SOL    HW2  949   2.410   1.489   2.730
 1860SOL     OW  950   2.114   1.564   3.606
 1860SOL    HW1  951   2.084   1.621   3.682
 1860SOL    HW2  952   2.107   1.467   3.632
 1862SOL     OW  953   2.792   1.678   3.327
 1862SOL    HW1  954   2.768   1.660   3.232
 1862SOL    HW2  955   2.822   1.772   3.337
 1864SOL     OW  956   2.021   1.137   3.328
 1864SOL    HW1  957   2.043   1.076   3.404
 1864SOL    HW2  958   2.031   1.088   3.242
 1865SOL     OW  959   3.209   1.059   3.096
 1865SOL    HW1  960   3.233   0.996   3.022
 1865SOL    HW2  961   3.119   1.099   3.078
 1866SOL     OW  962   3.164   0.855   2.171
 1866SOL    HW1  963   3.078   0.824   2.213
 1866SOL    HW2  964   3.160   0.841   2.072
 1867SOL     OW  965   3.621   1.747   3.016
 1867SOL    HW1  966   3.682   1.777   2.943
 1867SOL    HW2  967   3.583   1.658   2.994
 1868SOL     OW  968   3.114   1.731   2.990
 1868SOL    HW1  969   3.198   1.736   2.936
 1868SOL    HW2  970   3.091   1.635   3.008
 1869SOL     OW  971   1.945   1.258   2.884
 1869SOL    HW1  972   1.940   1.257   2.984
 1869SOL    HW2  973   1.862   1.217   2.846
 1870SOL     OW  974   2.550   1.662   3.578
 1870SOL    HW1  975   2.494   1.743   3.587
 1870SOL    HW2  976   2.602   1.666   3.492
 1872SOL     OW  977   3.250   1.573   2.339
 1872SOL    HW1  978   3.317   1.585   2.265
 1872SOL    HW2  979   3.210   1.662   2.362
 1873SOL     OW  980   1.992   1.794   3.713
 1873SOL    HW1  981   1.951   1.720   3.766
 1873SOL    HW2  982   2.056   1.845   3.771
 1874SOL     OW  983   3.142   0.927   2.534
 1874SOL    HW1  984   3.202   0.846   2.536
 1874SOL    HW2  985   3.182   0.996   2.474
 1875SOL     OW  986   2.692   1.273   3.284
 1875SOL    HW1  987   2.687   1.306   3.379
 1875SOL    HW2  988   2.606   1.292   3.238
 1876SOL     OW  989   2.534   1.616   2.016
 1876SOL    HW1  990   2.543   1.626   1.917
 1876SOL    HW2  991   2.494   1.527   2.037
 1877SOL     OW  992   3.512   1.720   3.256
 1877SOL    HW1  993   3.565   1.730   3.172
 1877SOL    HW2  994   3.485   1.810   3.290
 1880SOL     OW  995   3.056   1.612   1.893
 1880SOL    HW1  996   3.062   1.519   1.930
 1880SOL    HW2  997   2.997   1.612   1.813
 1881SOL     OW  998   2.684   1.002   3.234
 1881SOL    HW1  999   2.724   1.001   3.142
 1881SOL    HW2 1000   2.694   1.094   3.274
 1882SOL     OW 1001   2.778   0.910   2.153
 1882SOL    HW1 1002   2.841   0.948   2.085
 1882SOL    HW2 1003   2.818   0.827   2.192
 1883SOL     OW 1004   3.366   1.607   1.906
 1883SOL    HW1 1005   3.274   1.644   1.913
 1883SOL    HW2 1006   3.404   1.627   1.816
 1884SOL     OW 1007   2.234   1.288   3.352
 1884SOL    HW1 1008   2.221   1.381   3.318
 1884SOL    HW2 1009   2.150   1.236   3.339
 1885SOL     OW 1010   3.476   1.292   3.151
 1885SOL    HW1 1011   3.536   1.295   3.231
 1885SOL    HW2 1012   3.401   1.356   3.164
 1886SOL     OW 1013   2.901   1.098   2.558
 1886SOL    HW1 1014   2.831   1.051   2.612
 1886SOL    HW2 1015   2.960   1.030   2.515
 1888SOL     OW 1016   2.452   1.487   2.353
 1888SOL    HW1 1017   2.494   1.429   2.283
 1888SOL    HW2 1018   2.408   1.566   2.309
 1890SOL     OW 1019   2.117   1.348   2.152
 1890SOL    HW1 1020   2.021   1.349   2.125
 1890SOL    HW2 1021   2.129   1.401   2.236
 1896SOL     OW 1022   3.045   1.335   1.981
 1896SOL    HW1 1023   2.946   1.324   1.983
 1896SOL    HW2 1024   3.079   1.350   2.074
 1898SOL     OW 1025   3.355   1.767   2.821
 1898SOL    HW1 1026   3.388   1.831   2.752
 1898SOL    HW2 1027   3.421   1.761   2.896
 1901SOL     OW 1028   2.252   1.741   3.422
 1901SOL    HW1 1029   2.161   1.782   3.420
 1901SOL    HW2 1030   2.245   1.647   3.454
 1904SOL     OW 1031   2.456   0.745   2.514
 1904SOL    HW1 1032   2.506   0.830   2.495
 1904SOL    HW2 1033   2.368   0.747   2.466
 1907SOL     OW 1034   2.721   1.374   1.878
 1907SOL    HW1 1035   2.675   1.389   1.966
 1907SOL    HW2 1036   2.765   1.459   1.848
 1908SOL     OW 1037   2.523   1.790   2.815
 1908SOL    HW1 1038   2.477   1.878   2.802
 1908SOL    HW2 1039   2.622   1.802   2.808
 1909SOL     OW 1040   2.721   0.956   2.723
 1909SOL    HW1 1041   2.775   0.887   2.771
 1909SOL    HW2 1042   2.689   1.025   2.789
 1910SOL     OW 1043   2.945   0.984   1.949
 1910SOL    HW1 1044   2.922   1.037   1.867
 1910SOL    HW2 1045   3.026   0.928   1.930
 1911SOL     OW 1046   3.723   1.569   2.713
 1911SOL    HW1 1047   3.652   1.557   2.643
 1911SOL    HW2 1048   3.724   1.490   2.773
 1912SOL     OW 1049   2.083   1.314   3.706
 1912SOL    HW1 1050   2.018   1.241   3.685
 1912SOL    HW2 1051   2.087   1.328   3.804
 1913SOL     OW 1052   1.941   1.240   2.515
 1913SOL    HW1 1053   1.940   1.193   2.603
 1913SOL    HW2 1054   2.023   1.212   2.464
 1914SOL     OW 1055   2.534   1.391   3.486
 1914SOL    HW1 1056   2.456   1.341   3.524
 1914SOL    HW2 1057   2.531   1.486   3.517
 1917SOL     OW 1058   3.567   1.487   2.966
 1917SOL    HW1 1059   3.474   1.462   2.939
 1917SOL    HW2 1060   3.593   1.437   3.048
 1919SOL     OW 1061   2.674   1.586   2.549
 1919SOL    HW1 1062   2.706   1.596   2.455
 1919SOL    HW2 1063   2.595   1.524   2.551
 1922SOL     OW 1064   2.632   1.330   2.163
 1922SOL    HW1 1065   2.586   1.243   2.180
 1922SOL    HW2 1066   2.723   1.327   2.204
 1923SOL     OW 1067   2.480   1.567   3.146
 1923SOL    HW1 1068   2.475   1.649   3.203
 1923SOL    HW2 1069   2.569   1.564   3.101
 1927SOL     OW 1070   1.901   1.077   2.162
 1927SOL    HW1 1071   2.000   1.066   2.153
 1927SOL    HW2 1072   1.861   0.991   2.194
 1928SOL     OW 1073   2.737   1.646   2.199
 1928SOL    HW1 1074   2.660   1.611   2.145
 1928SOL    HW2 1075   2.705   1.717   2.261
 1946SOL     OW 1076   1.889   1.596   3.841
 1946SOL    HW1 1077   1.870   1.500   3.862
 1946SOL    HW2 1078   1.856   1.654   3.916
 1968SOL     OW 1079   2.973   1.776   3.961
 1968SOL    HW1 1080   2.913   1.714   4.011
 1968SOL    HW2 1081   3.004   1.732   3.876
 1970SOL     OW 1082   2.326   1.743   4.047
 1970SOL    HW1 1083   2.359   1.782   4.133
 1970SOL    HW2 1084   2.402   1.736   3.982
 1991SOL     OW 1085   2.350   1.385   3.898
 1991SOL    HW1 1086   2.263   1.370   3.945
 1991SOL    HW2 1087   2.333   1.411   3.803
 2031SOL     OW 1088   2.534   1.616   3.878
 2031SOL    HW1 1089   2.543   1.626   3.779
 2031SOL    HW2 1090   2.494   1.527   3.899
 2034SOL     OW 1091   3.056   1.612   3.755
 2034SOL    HW1 1092   3.062   1.519   3.792
 2034SOL    HW2 1093   2.997   1.612   3.675
 2037SOL     OW 1094   3.366   1.607   3.768
 2037SOL    HW1 1095   3.274   1.644   3.775
 2037SOL    HW2 1096   3.404   1.627   3.678
 2050SOL     OW 1097   2.721   1.374   3.740
 2050SOL    HW1 1098   2.675   1.389   3.828
 2050SOL    HW2 1099   2.765   1.459   3.710
 2068SOL     OW 1100   2.087   2.137   0.996
 2068SOL    HW1 1101   2.122   2.120   1.088
 2068SOL    HW2 1102   1.999   2.092   0.984
 2070SOL     OW 1103   2.431   3.137   1.165
 2070SOL    HW1 1104   2.338   3.130   1.128
 2070SOL    HW2 1105   2.442   3.226   1.209
 2074SOL     OW 1106   2.630   3.006   1.023
 2074SOL    HW1 1107   2.552   3.023   1.083
 2074SOL    HW2 1108   2.664   3.093   0.987
 2075SOL     OW 1109   2.712   2.660   1.823
 2075SOL    HW1 1110   2.708   2.736   1.888
 2075SOL    HW2 1111   2.734   2.696   1.732
 2077SOL     OW 1112   2.548   3.023   1.803
 2077SOL    HW1 1113   2.608   3.102   1.817
 2077SOL    HW2 1114   2.462   3.054   1.762
 2078SOL     OW 1115   2.197   3.297   1.061
 2078SOL    HW1 1116   2.119   3.266   1.008
 2078SOL    HW2 1117   2.255   3.355   1.004
 2079SOL     OW 1118   3.322   3.367   1.339
 2079SOL    HW1 1119   3.346   3.461   1.365
 2079SOL    HW2 1120   3.306   3.313   1.421
 2080SOL     OW 1121   2.300   2.254   1.499
 2080SOL    HW1 1122   2.382   2.198   1.508
 2080SOL    HW2 1123   2.219   2.196   1.503
 2083SOL     OW 1124   2.989   3.203   1.690
 2083SOL    HW1 1125   3.036   3.203   1.778
 2083SOL    HW2 1126   2.941   3.116   1.679
 2085SOL     OW 1127   2.102   2.953   0.886
 2085SOL    HW1 1128   2.116   2.869   0.938
 2085SOL    HW2 1129   2.047   3.017   0.941
 2086SOL     OW 1130   2.482   3.648   1.439
 2086SOL    HW1 1131   2.390   3.631   1.474
 2086SOL    HW2 1132   2.510   3.740   1.465
 2088SOL     OW 1133   3.456   1.976   1.480
 2088SOL    HW1 1134   3.438   2.043   1.408
 2088SOL    HW2 1135   3.453   2.022   1.569
 2094SOL     OW 1136   1.975   2.599   1.597
 2094SOL    HW1 1137   2.063   2.586   1.642
 2094SOL    HW2 1138   1.962   2.696   1.575
 2096SOL     OW 1139   3.155   3.090   1.423
 2096SOL    HW1 1140   3.192   3.017   1.365
 2096SOL    HW2 1141   3.207   3.095   1.508
 2098SOL     OW 1142   2.059   2.838   1.264
 2098SOL    HW1 1143   2.148   2.793   1.250
 2098SOL    HW2 1144   1.986   2.773   1.245
 2100SOL     OW 1145   3.049   3.654   1.616
 2100SOL    HW1 1146   3.073   3.714   1.540
 2100SOL    HW2 1147   3.056   3.559   1.586
 2101SOL     OW 1148   2.179   2.113   1.801
 2101SOL    HW1 1149   2.250   2.184   1.807
 2101SOL    HW2 1150   2.091   2.152   1.829
 2105SOL     OW 1151   3.143   2.207   0.944
 2105SOL    HW1 1152   3.057   2.157   0.931
 2105SOL    HW2 1153   3.205   2.153   1.000
 2107SOL     OW 1154   2.669   2.467   1.465
 2107SOL    HW1 1155   2.622   2.464   1.554
 2107SOL    HW2 1156   2.618   2.412   1.399
 2108SOL     OW 1157   3.256   2.331   1.674
 2108SOL    HW1 1158   3.236   2.374   1.762
 2108SOL    HW2 1159   3.334   2.269   1.683
 2109SOL     OW 1160   2.835   2.752   1.572
 2109SOL    HW1 1161   2.881   2.668   1.543
 2109SOL    HW2 1162   2.779   2.786   1.497
 2110SOL     OW 1163   2.853   2.272   1.242
 2110SOL    HW1 1164   2.776   2.306   1.296
 2110SOL    HW2 1165   2.819   2.221   1.163
 2112SOL     OW 1166   1.938   2.673   0.789
 2112SOL    HW1 1167   2.037   2.661   0.798
 2112SOL    HW2 1168   1.914   2.768   0.810
 2113SOL     OW 1169   1.992   3.683   1.571
 2113SOL    HW1 1170   1.982   3.668   1.670
 2113SOL    HW2 1171   1.906   3.719   1.535
 2115SOL     OW 1172   3.581   2.447   1.831
 2115SOL    HW1 1173   3.555   2.536   1.795
 2115SOL    HW2 1174   3.579   2.379   1.758
 2117SOL     OW 1175   2.412   2.058   0.885
 2117SOL    HW1 1176   2.407   2.053   0.985
 2117SOL    HW2 1177   2.414   2.154   0.856
 2121SOL     OW 1178   3.089   3.412   1.506
 2121SOL    HW1 1179   3.095   3.335   1.570
 2121SOL    HW2 1180   3.037   3.386   1.426
 2124SOL     OW 1181   2.323   3.128   1.727
 2124SOL    HW1 1182   2.273   3.129   1.641
 2124SOL    HW2 1183   2.260   3.110   1.803
 2126SOL     OW 1184   2.064   2.147   1.498
 2126SOL    HW1 1185   1.984   2.207   1.485
 2126SOL    HW2 1186   2.054   2.098   1.584
 2130SOL     OW 1187   2.111   3.647   1.241
 2130SOL    HW1 1188   2.168   3.582   1.291
 2130SOL    HW2 1189   2.095   3.614   1.148
 2133SOL     OW 1190   3.409   2.084   1.729
 2133SOL    HW1 1191   3.404   2.121   1.821
 2133SOL    HW2 1192   3.337   2.015   1.717
 2135SOL     OW 1193   2.643   2.126   1.749
 2135SOL    HW1 1194   2.710   2.065   1.792
 2135SOL    HW2 1195   2.570   2.145   1.814
 2136SOL     OW 1196   2.750   3.376   1.195
 2136SOL    HW1 1197   2.727   3.351   1.101
 2136SOL    HW2 1198   2.811   3.307   1.234
 2137SOL     OW 1199   3.213   2.452   1.433
 2137SOL    HW1 1200   3.241   2.409   1.518
 2137SOL    HW2 1201   3.238   2.548   1.434
 2138SOL     OW 1202   2.665   3.264   0.924
 2138SOL    HW1 1203   2.755   3.278   0.882
 2138SOL    HW2 1204   2.594   3.266   0.853
 2139SOL     OW 1205   2.784   2.365   0.899
 2139SOL    HW1 1206   2.759   2.356   0.803
 2139SOL    HW2 1207   2.832   2.283   0.930
 2144SOL     OW 1208   2.938   2.545   1.464
 2144SOL    HW1 1209   2.858   2.484   1.467
 2144SOL    HW2 1210   3.019   2.492   1.440
 2149SOL     OW 1211   1.940   2.418   1.386
 2149SOL    HW1 1212   2.032   2.417   1.345
 2149SOL    HW2 1213   1.934   2.492   1.453
 2150SOL     OW 1214   2.423   2.084   1.147
 2150SOL    HW1 1215   2.461   2.000   1.184
 2150SOL    HW2 1216   2.335   2.103   1.191
 2154SOL     OW 1217   3.328   2.452   0.992
 2154SOL    HW1 1218   3.298   2.357   0.999
 2154SOL    HW2 1219   3.401   2.468   1.058
 2160SOL     OW 1220   3.616   3.085   1.588
 2160SOL    HW1 1221   3.707   3.046   1.575
 2160SOL    HW2 1222   3.624   3.181   1.612
 2161SOL     OW 1223   2.926   3.209   1.340
 2161SOL    HW1 1224   2.846   3.186   1.395
 2161SOL    HW2 1225   3.009   3.183   1.389
 2162SOL     OW 1226   3.454   3.491   1.625
 2162SOL    HW1 1227   3.481   3.525   1.535
 2162SOL    HW2 1228   3.533   3.453   1.671
 2163SOL     OW 1229   2.973   3.057   1.100
 2163SOL    HW1 1230   2.933   3.101   1.181
 2163SOL    HW2 1231   2.932   3.094   1.017
 2164SOL     OW 1232   3.500   2.961   1.079
 2164SOL    HW1 1233   3.505   3.042   1.138
 2164SOL    HW2 1234   3.414   2.963   1.028
 2165SOL     OW 1235   2.777   1.951   1.402
 2165SOL    HW1 1236   2.802   1.931   1.307
 2165SOL    HW2 1237   2.849   2.007   1.444
 2166SOL     OW 1238   2.842   2.978   1.719
 2166SOL    HW1 1239   2.743   2.984   1.729
 2166SOL    HW2 1240   2.865   2.898   1.663
 2168SOL     OW 1241   2.272   2.675   1.251
 2168SOL    HW1 1242   2.358   2.687   1.301
 2168SOL    HW2 1243   2.230   2.588   1.278
 2169SOL     OW 1244   3.136   2.248   1.262
 2169SOL    HW1 1245   3.157   2.322   1.326
 2169SOL    HW2 1246   3.047   2.265   1.219
 2170SOL     OW 1247   1.926   3.426   1.331
 2170SOL    HW1 1248   1.880   3.508   1.297
 2170SOL    HW2 1249   2.024   3.445   1.340
 2172SOL     OW 1250   2.428   2.399   0.865
 2172SOL    HW1 1251   2.440   2.465   0.791
 2172SOL    HW2 1252   2.474   2.433   0.948
 2174SOL     OW 1253   3.134   3.307   1.142
 2174SOL    HW1 1254   3.181   3.320   1.229
 2174SOL    HW2 1255   3.068   3.233   1.151
 2176SOL     OW 1256   2.216   3.372   1.329
 2176SOL    HW1 1257   2.195   3.328   1.242
 2176SOL    HW2 1258   2.313   3.398   1.332
 2177SOL     OW 1259   2.264   2.613   1.598
 2177SOL    HW1 1260   2.332   2.668   1.551
 2177SOL    HW2 1261   2.304   2.525   1.625
 2178SOL     OW 1262   3.449   2.641   1.670
 2178SOL    HW1 1263   3.357   2.679   1.665
 2178SOL    HW2 1264   3.509   2.688   1.605
 2179SOL     OW 1265   2.875   1.967   1.770
 2179SOL    HW1 1266   2.881   2.052   1.718
 2179SOL    HW2 1267   2.907   1.891   1.713
 2180SOL     OW 1268   2.366   1.912   1.740
 2180SOL    HW1 1269   2.324   1.855   1.670
 2180SOL    HW2 1270   2.300   1.981   1.772
 2181SOL     OW 1271   2.435   2.732   1.029
 2181SOL    HW1 1272   2.479   2.821   1.020
 2181SOL    HW2 1273   2.372   2.732   1.106
 2182SOL     OW 1274   3.222   2.724   1.045
 2182SOL    HW1 1275   3.147   2.724   0.979
 2182SOL    HW2 1276   3.259   2.632   1.054
 2184SOL     OW 1277   2.169   2.075   1.231
 2184SOL    HW1 1278   2.146   2.112   1.321
 2184SOL    HW2 1279   2.139   1.980   1.225
 2185SOL     OW 1280   1.899   3.172   1.282
 2185SOL    HW1 1281   1.952   3.123   1.350
 2185SOL    HW2 1282   1.921   3.270   1.287
 2186SOL     OW 1283   2.594   2.496   1.064
 2186SOL    HW1 1284   2.653   2.470   0.988
 2186SOL    HW2 1285   2.566   2.592   1.053
 2187SOL     OW 1286   3.590   2.797   1.854
 2187SOL    HW1 1287   3.544   2.790   1.765
 2187SOL    HW2 1288   3.528   2.841   1.920
 2190SOL     OW 1289   2.885   2.628   0.966
 2190SOL    HW1 1290   2.900   2.649   1.062
 2190SOL    HW2 1291   2.855   2.533   0.957
 2191SOL     OW 1292   2.842   3.435   1.700
 2191SOL    HW1 1293   2.822   3.479   1.612
 2191SOL    HW2 1294   2.881   3.344   1.684
 2192SOL     OW 1295   3.721   3.380   1.605
 2192SOL    HW1 1296   3.735   3.407   1.510
 2192SOL    HW2 1297   3.804   3.402   1.658
 2193SOL     OW 1298   2.212   2.760   1.804
 2193SOL    HW1 1299   2.288   2.804   1.852
 2193SOL    HW2 1300   2.247   2.713   1.722
 2197SOL     OW 1301   2.181   2.672   0.949
 2197SOL    HW1 1302   2.274   2.708   0.954
 2197SOL    HW2 1303   2.175   2.587   1.001
 2198SOL     OW 1304   2.201   2.371   1.006
 2198SOL    HW1 1305   2.149   2.288   0.989
 2198SOL    HW2 1306   2.278   2.376   0.942
 2199SOL     OW 1307   3.000   2.242   1.678
 2199SOL    HW1 1308   2.955   2.305   1.742
 2199SOL    HW2 1309   3.093   2.273   1.661
 2200SOL     OW 1310   3.022   2.069   1.477
 2200SOL    HW1 1311   3.022   2.133   1.554
 2200SOL    HW2 1312   3.050   2.117   1.394
 2204SOL     OW 1313   2.864   2.658   1.238
 2204SOL    HW1 1314   2.905   2.626   1.324
 2204SOL    HW2 1315   2.768   2.631   1.235
 2205SOL     OW 1316   1.902   2.406   1.114
 2205SOL    HW1 1317   1.987   2.373   1.073
 2205SOL    HW2 1318   1.915   2.421   1.212
 2206SOL     OW 1319   2.051   2.382   1.722
 2206SOL    HW1 1320   2.110   2.342   1.652
 2206SOL    HW2 1321   1.993   2.453   1.681
 2207SOL     OW 1322   3.231   2.812   1.660
 2207SOL    HW1 1323   3.270   2.901   1.680
 2207SOL    HW2 1324   3.241   2.792   1.563
 2209SOL     OW 1325   3.519   2.466   1.206
 2209SOL    HW1 1326   3.481   2.397   1.268
 2209SOL    HW2 1327   3.601   2.430   1.162
 2210SOL     OW 1328   2.114   3.426   1.744
 2210SOL    HW1 1329   2.084   3.483   1.820
 2210SOL    HW2 1330   2.107   3.329   1.770
 2211SOL     OW 1331   2.533   2.326   1.269
 2211SOL    HW1 1332   2.499   2.237   1.239
 2211SOL    HW2 1333   2.559   2.380   1.189
 2212SOL     OW 1334   2.792   3.540   1.465
 2212SOL    HW1 1335   2.768   3.522   1.370
 2212SOL    HW2 1336   2.822   3.634   1.475
 2214SOL     OW 1337   2.021   2.999   1.466
 2214SOL    HW1 1338   2.043   2.938   1.542
 2214SOL    HW2 1339   2.031   2.950   1.380
 2215SOL     OW 1340   3.209   2.921   1.234
 2215SOL    HW1 1341   3.233   2.858   1.160
 2215SOL    HW2 1342   3.119   2.961   1.216
 2219SOL     OW 1343   1.945   3.120   1.022
 2219SOL    HW1 1344   1.940   3.119   1.122
 2219SOL    HW2 1345   1.862   3.079   0.984
 2220SOL     OW 1346   2.550   3.524   1.716
 2220SOL    HW1 1347   2.494   3.605   1.725
 2220SOL    HW2 1348   2.602   3.528   1.630
 2224SOL     OW 1349   1.992   3.656   1.851
 2224SOL    HW1 1350   1.951   3.582   1.904
 2224SOL    HW2 1351   2.056   3.707   1.909
 2226SOL     OW 1352   2.692   3.135   1.422
 2226SOL    HW1 1353   2.687   3.168   1.517
 2226SOL    HW2 1354   2.606   3.154   1.376
 2232SOL     OW 1355   2.684   2.864   1.372
 2232SOL    HW1 1356   2.724   2.863   1.280
 2232SOL    HW2 1357   2.694   2.956   1.412
 2235SOL     OW 1358   2.234   3.150   1.490
 2235SOL    HW1 1359   2.221   3.243   1.456
 2235SOL    HW2 1360   2.150   3.098   1.477
 2236SOL     OW 1361   3.476   3.154   1.289
 2236SOL    HW1 1362   3.536   3.157   1.369
 2236SOL    HW2 1363   3.401   3.218   1.302
 2238SOL     OW 1364   2.876   2.098   0.971
 2238SOL    HW1 1365   2.868   2.062   0.878
 2238SOL    HW2 1366   2.874   2.022   1.036
 2240SOL     OW 1367   3.571   2.247   1.381
 2240SOL    HW1 1368   3.644   2.316   1.385
 2240SOL    HW2 1369   3.599   2.172   1.322
 2242SOL     OW 1370   1.967   2.875   1.726
 2242SOL    HW1 1371   1.890   2.842   1.780
 2242SOL    HW2 1372   2.052   2.845   1.768
 2243SOL     OW 1373   2.534   2.065   1.489
 2243SOL    HW1 1374   2.624   2.049   1.449
 2243SOL    HW2 1375   2.542   2.070   1.588
 2244SOL     OW 1376   3.302   2.718   1.398
 2244SOL    HW1 1377   3.245   2.770   1.335
 2244SOL    HW2 1378   3.398   2.730   1.374
 2247SOL     OW 1379   2.475   2.704   1.431
 2247SOL    HW1 1380   2.531   2.785   1.414
 2247SOL    HW2 1381   2.534   2.624   1.434
 2249SOL     OW 1382   2.578   2.427   1.708
 2249SOL    HW1 1383   2.597   2.492   1.782
 2249SOL    HW2 1384   2.638   2.347   1.717
 2250SOL     OW 1385   3.312   3.082   1.633
 2250SOL    HW1 1386   3.303   3.072   1.732
 2250SOL    HW2 1387   3.408   3.075   1.607
 2251SOL     OW 1388   2.252   3.603   1.560
 2251SOL    HW1 1389   2.161   3.644   1.558
 2251SOL    HW2 1390   2.245   3.509   1.592
 2252SOL     OW 1391   3.536   2.745   1.254
 2252SOL    HW1 1392   3.509   2.656   1.217
 2252SOL    HW2 1393   3.537   2.813   1.181
 2255SOL     OW 1394   3.639   2.204   1.642
 2255SOL    HW1 1395   3.622   2.235   1.548
 2255SOL    HW2 1396   3.555   2.167   1.680
 2256SOL     OW 1397   3.592   2.796   1.517
 2256SOL    HW1 1398   3.630   2.887   1.532
 2256SOL    HW2 1399   3.584   2.779   1.418
 2259SOL     OW 1400   2.721   2.818   0.861
 2259SOL    HW1 1401   2.775   2.749   0.909
 2259SOL    HW2 1402   2.689   2.887   0.927
 2262SOL     OW 1403   2.083   3.176   1.844
 2262SOL    HW1 1404   2.018   3.103   1.823
 2262SOL    HW2 1405   2.087   3.190   1.942
 2264SOL     OW 1406   2.534   3.253   1.624
 2264SOL    HW1 1407   2.456   3.203   1.662
 2264SOL    HW2 1408   2.531   3.348   1.655
 2265SOL     OW 1409   3.686   2.054   1.227
 2265SOL    HW1 1410   3.682   1.964   1.271
 2265SOL    HW2 1411   3.689   2.043   1.128
 2268SOL     OW 1412   2.179   2.409   1.280
 2268SOL    HW1 1413   2.217   2.350   1.352
 2268SOL    HW2 1414   2.219   2.383   1.192
 2270SOL     OW 1415   3.286   2.076   1.112
 2270SOL    HW1 1416   3.338   2.011   1.167
 2270SOL    HW2 1417   3.237   2.139   1.173
 2271SOL     OW 1418   2.863   1.896   1.154
 2271SOL    HW1 1419   2.800   1.824   1.123
 2271SOL    HW2 1420   2.956   1.860   1.154
 2273SOL     OW 1421   2.480   3.429   1.284
 2273SOL    HW1 1422   2.475   3.511   1.341
 2273SOL    HW2 1423   2.569   3.426   1.239
 2279SOL     OW 1424   2.092   2.490   1.975
 2279SOL    HW1 1425   1.999   2.488   2.012
 2279SOL    HW2 1426   2.093   2.451   1.883
 2280SOL     OW 1427   2.087   2.137   2.858
 2280SOL    HW1 1428   2.122   2.120   2.950
 2280SOL    HW2 1429   1.999   2.092   2.846
 2281SOL     OW 1430   1.881   2.230   2.509
 2281SOL    HW1 1431   1.799   2.273   2.548
 2281SOL    HW2 1432   1.853   2.157   2.446
 2282SOL     OW 1433   2.431   3.137   3.027
 2282SOL    HW1 1434   2.338   3.130   2.990
 2282SOL    HW2 1435   2.442   3.226   3.071
 2283SOL     OW 1436   3.417   3.373   2.565
 2283SOL    HW1 1437   3.360   3.357   2.646
 2283SOL    HW2 1438   3.358   3.383   2.485
 2284SOL     OW 1439   2.997   2.565   2.579
 2284SOL    HW1 1440   3.054   2.643   2.554
 2284SOL    HW2 1441   2.937   2.591   2.655
 2285SOL     OW 1442   3.617   2.469   2.093
 2285SOL    HW1 1443   3.605   2.456   1.994
 2285SOL    HW2 1444   3.587   2.388   2.142
 2286SOL     OW 1445   2.630   3.006   2.885
 2286SOL    HW1 1446   2.552   3.023   2.945
 2286SOL    HW2 1447   2.664   3.093   2.849
 2287SOL     OW 1448   2.712   2.660   3.685
 2287SOL    HW1 1449   2.708   2.736   3.750
 2287SOL    HW2 1450   2.734   2.696   3.594
 2288SOL     OW 1451   2.547   2.874   2.527
 2288SOL    HW1 1452   2.616   2.858   2.597
 2288SOL    HW2 1453   2.474   2.931   2.565
 2289SOL     OW 1454   2.548   3.023   3.665
 2289SOL    HW1 1455   2.608   3.102   3.679
 2289SOL    HW2 1456   2.462   3.054   3.624
 2290SOL     OW 1457   2.197   3.297   2.923
 2290SOL    HW1 1458   2.119   3.266   2.870
 2290SOL    HW2 1459   2.255   3.355   2.866
 2291SOL     OW 1460   3.322   3.367   3.201
 2291SOL    HW1 1461   3.346   3.461   3.227
 2291SOL    HW2 1462   3.306   3.313   3.283
 2292SOL     OW 1463   2.300   2.254   3.361
 2292SOL    HW1 1464   2.382   2.198   3.370
 2292SOL    HW2 1465   2.219   2.196   3.365
 2293SOL     OW 1466   3.465   2.309   2.599
 2293SOL    HW1 1467   3.391   2.355   2.549
 2293SOL    HW2 1468   3.516   2.377   2.652
 2294SOL     OW 1469   2.093   3.575   2.345
 2294SOL    HW1 1470   2.127   3.652   2.399
 2294SOL    HW2 1471   2.137   3.575   2.255
 2295SOL     OW 1472   2.989   3.203   3.552
 2295SOL    HW1 1473   3.036   3.203   3.640
 2295SOL    HW2 1474   2.941   3.116   3.541
 2296SOL     OW 1475   2.092   3.296   2.400
 2296SOL    HW1 1476   2.066   3.392   2.400
 2296SOL    HW2 1477   2.021   3.242   2.445
 2297SOL     OW 1478   2.102   2.953   2.748
 2297SOL    HW1 1479   2.116   2.869   2.800
 2297SOL    HW2 1480   2.047   3.017   2.803
 2298SOL     OW 1481   2.482   3.648   3.301
 2298SOL    HW1 1482   2.390   3.631   3.336
 2298SOL    HW2 1483   2.510   3.740   3.327
 2299SOL     OW 1484   2.468   2.826   1.985
 2299SOL    HW1 1485   2.475   2.910   1.931
 2299SOL    HW2 1486   2.514   2.839   2.073
 2300SOL     OW 1487   3.456   1.976   3.342
 2300SOL    HW1 1488   3.438   2.043   3.270
 2300SOL    HW2 1489   3.453   2.022   3.431
 2301SOL     OW 1490   1.984   2.505   2.425
 2301SOL    HW1 1491   1.939   2.417   2.442
 2301SOL    HW2 1492   1.983   2.559   2.509
 2302SOL     OW 1493   3.704   3.629   2.221
 2302SOL    HW1 1494   3.758   3.600   2.301
 2302SOL    HW2 1495   3.734   3.719   2.192
 2303SOL     OW 1496   1.889   3.458   1.979
 2303SOL    HW1 1497   1.870   3.362   2.000
 2303SOL    HW2 1498   1.856   3.516   2.054
 2304SOL     OW 1499   3.551   2.784   2.474
 2304SOL    HW1 1500   3.646   2.755   2.482
 2304SOL    HW2 1501   3.543   2.849   2.399
 2305SOL     OW 1502   3.503   2.970   2.294
 2305SOL    HW1 1503   3.589   2.972   2.242
 2305SOL    HW2 1504   3.517   3.017   2.382
 2306SOL     OW 1505   1.975   2.599   3.459
 2306SOL    HW1 1506   2.063   2.586   3.504
 2306SOL    HW2 1507   1.962   2.696   3.437
 2307SOL     OW 1508   2.475   3.227   2.588
 2307SOL    HW1 1509   2.426   3.140   2.597
 2307SOL    HW2 1510   2.452   3.270   2.501
 2308SOL     OW 1511   3.155   3.090   3.285
 2308SOL    HW1 1512   3.192   3.017   3.227
 2308SOL    HW2 1513   3.207   3.095   3.370
 2309SOL     OW 1514   2.671   1.866   2.364
 2309SOL    HW1 1515   2.711   1.957   2.355
 2309SOL    HW2 1516   2.571   1.874   2.370
 2310SOL     OW 1517   2.059   2.838   3.126
 2310SOL    HW1 1518   2.148   2.793   3.112
 2310SOL    HW2 1519   1.986   2.773   3.107
 2311SOL     OW 1520   3.387   2.861   2.052
 2311SOL    HW1 1521   3.324   2.785   2.065
 2311SOL    HW2 1522   3.435   2.879   2.138
 2312SOL     OW 1523   3.049   3.654   3.478
 2312SOL    HW1 1524   3.073   3.714   3.402
 2312SOL    HW2 1525   3.056   3.559   3.448
 2313SOL     OW 1526   2.179   2.113   3.663
 2313SOL    HW1 1527   2.250   2.184   3.669
 2313SOL    HW2 1528   2.091   2.152   3.691
 2314SOL     OW 1529   3.328   3.279   2.815
 2314SOL    HW1 1530   3.269   3.285   2.895
 2314SOL    HW2 1531   3.313   3.191   2.769
 2315SOL     OW 1532   3.529   3.576   2.434
 2315SOL    HW1 1533   3.488   3.553   2.346
 2315SOL    HW2 1534   3.511   3.502   2.499
 2316SOL     OW 1535   3.143   2.207   2.806
 2316SOL    HW1 1536   3.057   2.157   2.793
 2316SOL    HW2 1537   3.205   2.153   2.862
 2317SOL     OW 1538   3.438   3.524   2.169
 2317SOL    HW1 1539   3.527   3.570   2.172
 2317SOL    HW2 1540   3.417   3.500   2.074
 2318SOL     OW 1541   2.669   2.467   3.327
 2318SOL    HW1 1542   2.622   2.464   3.416
 2318SOL    HW2 1543   2.618   2.412   3.261
 2319SOL     OW 1544   3.256   2.331   3.536
 2319SOL    HW1 1545   3.236   2.374   3.624
 2319SOL    HW2 1546   3.334   2.269   3.545
 2320SOL     OW 1547   2.835   2.752   3.434
 2320SOL    HW1 1548   2.881   2.668   3.405
 2320SOL    HW2 1549   2.779   2.786   3.359
 2321SOL     OW 1550   2.853   2.272   3.104
 2321SOL    HW1 1551   2.776   2.306   3.158
 2321SOL    HW2 1552   2.819   2.221   3.025
 2322SOL     OW 1553   1.992   3.683   3.433
 2322SOL    HW1 1554   1.982   3.668   3.532
 2322SOL    HW2 1555   1.906   3.719   3.397
 2323SOL     OW 1556   2.727   2.210   2.057
 2323SOL    HW1 1557   2.786   2.273   2.008
 2323SOL    HW2 1558   2.746   2.116   2.028
 2324SOL     OW 1559   3.581   2.447   3.693
 2324SOL    HW1 1560   3.555   2.536   3.657
 2324SOL    HW2 1561   3.579   2.379   3.620
 2325SOL     OW 1562   3.224   3.006   2.407
 2325SOL    HW1 1563   3.307   2.977   2.359
 2325SOL    HW2 1564   3.175   3.073   2.351
 2326SOL     OW 1565   2.412   2.058   2.747
 2326SOL    HW1 1566   2.407   2.053   2.847
 2326SOL    HW2 1567   2.414   2.154   2.718
 2327SOL     OW 1568   2.870   3.318   2.339
 2327SOL    HW1 1569   2.824   3.390   2.287
 2327SOL    HW2 1570   2.866   3.338   2.437
 2328SOL     OW 1571   2.213   3.663   2.715
 2328SOL    HW1 1572   2.263   3.577   2.721
 2328SOL    HW2 1573   2.278   3.740   2.712
 2329SOL     OW 1574   3.657   2.928   2.735
 2329SOL    HW1 1575   3.595   2.913   2.659
 2329SOL    HW2 1576   3.605   2.939   2.820
 2330SOL     OW 1577   3.089   3.412   3.368
 2330SOL    HW1 1578   3.095   3.335   3.432
 2330SOL    HW2 1579   3.037   3.386   3.288
 2331SOL     OW 1580   2.183   2.805   2.104
 2331SOL    HW1 1581   2.265   2.844   2.062
 2331SOL    HW2 1582   2.156   2.723   2.055
 2332SOL     OW 1583   3.320   2.597   2.590
 2332SOL    HW1 1584   3.315   2.532   2.665
 2332SOL    HW2 1585   3.400   2.656   2.603
 2333SOL     OW 1586   2.323   3.128   3.589
 2333SOL    HW1 1587   2.273   3.129   3.503
 2333SOL    HW2 1588   2.260   3.110   3.665
 2334SOL     OW 1589   2.973   3.638   2.099
 2334SOL    HW1 1590   2.913   3.576   2.149
 2334SOL    HW2 1591   3.004   3.594   2.014
 2335SOL     OW 1592   2.064   2.147   3.360
 2335SOL    HW1 1593   1.984   2.207   3.347
 2335SOL    HW2 1594   2.054   2.098   3.446
 2336SOL     OW 1595   3.494   3.239   1.943
 2336SOL    HW1 1596   3.462   3.333   1.933
 2336SOL    HW2 1597   3.418   3.176   1.931
 2337SOL     OW 1598   2.326   3.605   2.185
 2337SOL    HW1 1599   2.359   3.644   2.271
 2337SOL    HW2 1600   2.402   3.598   2.120
 2338SOL     OW 1601   3.262   1.969   2.288
 2338SOL    HW1 1602   3.238   1.932   2.198
 2338SOL    HW2 1603   3.361   1.985   2.292
 2339SOL     OW 1604   2.111   3.647   3.103
 2339SOL    HW1 1605   2.168   3.582   3.153
 2339SOL    HW2 1606   2.095   3.614   3.010
 2340SOL     OW 1607   2.802   3.560   2.766
 2340SOL    HW1 1608   2.882   3.503   2.787
 2340SOL    HW2 1609   2.753   3.520   2.689
 2341SOL     OW 1610   3.409   2.084   3.591
 2341SOL    HW1 1611   3.404   2.121   3.683
 2341SOL    HW2 1612   3.337   2.015   3.579
 2342SOL     OW 1613   2.476   1.984   1.979
 2342SOL    HW1 1614   2.574   1.962   1.986
 2342SOL    HW2 1615   2.445   1.967   1.886
 2343SOL     OW 1616   2.643   2.126   3.611
 2343SOL    HW1 1617   2.710   2.065   3.654
 2343SOL    HW2 1618   2.570   2.145   3.676
 2344SOL     OW 1619   2.750   3.376   3.057
 2344SOL    HW1 1620   2.727   3.351   2.963
 2344SOL    HW2 1621   2.811   3.307   3.096
 2345SOL     OW 1622   3.213   2.452   3.295
 2345SOL    HW1 1623   3.241   2.409   3.380
 2345SOL    HW2 1624   3.238   2.548   3.296
 2346SOL     OW 1625   2.665   3.264   2.786
 2346SOL    HW1 1626   2.755   3.278   2.744
 2346SOL    HW2 1627   2.594   3.266   2.715
 2347SOL     OW 1628   2.784   2.365   2.761
 2347SOL    HW1 1629   2.759   2.356   2.665
 2347SOL    HW2 1630   2.832   2.283   2.792
 2348SOL     OW 1631   2.401   1.926   2.374
 2348SOL    HW1 1632   2.320   1.927   2.432
 2348SOL    HW2 1633   2.404   2.009   2.319
 2349SOL     OW 1634   3.296   3.050   1.903
 2349SOL    HW1 1635   3.328   2.974   1.960
 2349SOL    HW2 1636   3.204   3.077   1.933
 2350SOL     OW 1637   2.159   1.897   2.033
 2350SOL    HW1 1638   2.208   1.981   2.012
 2350SOL    HW2 1639   2.221   1.832   2.078
 2351SOL     OW 1640   2.797   2.098   2.342
 2351SOL    HW1 1641   2.749   2.139   2.264
 2351SOL    HW2 1642   2.896   2.096   2.323
 2352SOL     OW 1643   2.938   2.545   3.326
 2352SOL    HW1 1644   2.858   2.484   3.329
 2352SOL    HW2 1645   3.019   2.492   3.302
 2353SOL     OW 1646   3.089   3.432   2.655
 2353SOL    HW1 1647   3.110   3.506   2.590
 2353SOL    HW2 1648   3.157   3.432   2.728
 2354SOL     OW 1649   2.321   3.014   2.603
 2354SOL    HW1 1650   2.250   2.987   2.668
 2354SOL    HW2 1651   2.295   2.986   2.510
 2355SOL     OW 1652   3.133   3.659   2.453
 2355SOL    HW1 1653   3.177   3.723   2.389
 2355SOL    HW2 1654   3.083   3.711   2.523
 2356SOL     OW 1655   2.894   2.411   1.878
 2356SOL    HW1 1656   2.853   2.493   1.839
 2356SOL    HW2 1657   2.958   2.437   1.951
 2357SOL     OW 1658   1.940   2.418   3.248
 2357SOL    HW1 1659   2.032   2.417   3.207
 2357SOL    HW2 1660   1.934   2.492   3.315
 2358SOL     OW 1661   2.423   2.084   3.009
 2358SOL    HW1 1662   2.461   2.000   3.046
 2358SOL    HW2 1663   2.335   2.103   3.053
 2359SOL     OW 1664   2.879   1.901   2.615
 2359SOL    HW1 1665   2.807   1.906   2.546
 2359SOL    HW2 1666   2.855   1.832   2.684
 2360SOL     OW 1667   3.291   3.035   2.729
 2360SOL    HW1 1668   3.236   2.951   2.722
 2360SOL    HW2 1669   3.317   3.064   2.637
 2361SOL     OW 1670   3.328   2.452   2.854
 2361SOL    HW1 1671   3.298   2.357   2.861
 2361SOL    HW2 1672   3.401   2.468   2.920
 2362SOL     OW 1673   3.719   2.695   2.239
 2362SOL    HW1 1674   3.761   2.631   2.303
 2362SOL    HW2 1675   3.681   2.644   2.161
 2363SOL     OW 1676   2.350   3.247   2.036
 2363SOL    HW1 1677   2.263   3.232   2.083
 2363SOL    HW2 1678   2.333   3.273   1.941
 2364SOL     OW 1679   3.526   3.142   2.519
 2364SOL    HW1 1680   3.625   3.150   2.533
 2364SOL    HW2 1681   3.481   3.226   2.550
 2365SOL     OW 1682   3.252   2.437   1.940
 2365SOL    HW1 1683   3.198   2.416   2.021
 2365SOL    HW2 1684   3.343   2.396   1.949
 2366SOL     OW 1685   2.389   2.118   2.190
 2366SOL    HW1 1686   2.416   2.059   2.115
 2366SOL    HW2 1687   2.389   2.213   2.159
 2367SOL     OW 1688   3.616   3.085   3.450
 2367SOL    HW1 1689   3.707   3.046   3.437
 2367SOL    HW2 1690   3.624   3.181   3.474
 2368SOL     OW 1691   2.926   3.209   3.202
 2368SOL    HW1 1692   2.846   3.186   3.257
 2368SOL    HW2 1693   3.009   3.183   3.251
 2369SOL     OW 1694   3.454   3.491   3.487
 2369SOL    HW1 1695   3.481   3.525   3.397
 2369SOL    HW2 1696   3.533   3.453   3.533
 2370SOL     OW 1697   2.973   3.057   2.962
 2370SOL    HW1 1698   2.933   3.101   3.043
 2370SOL    HW2 1699   2.932   3.094   2.879
 2371SOL     OW 1700   3.500   2.961   2.941
 2371SOL    HW1 1701   3.505   3.042   3.000
 2371SOL    HW2 1702   3.414   2.963   2.890
 2372SOL     OW 1703   2.777   1.951   3.264
 2372SOL    HW1 1704   2.802   1.931   3.169
 2372SOL    HW2 1705   2.849   2.007   3.306
 2373SOL     OW 1706   2.842   2.978   3.581
 2373SOL    HW1 1707   2.743   2.984   3.591
 2373SOL    HW2 1708   2.865   2.898   3.525
 2374SOL     OW 1709   2.567   2.912   2.230
 2374SOL    HW1 1710   2.553   2.919   2.329
 2374SOL    HW2 1711   2.651   2.861   2.212
 2375SOL     OW 1712   2.272   2.675   3.113
 2375SOL    HW1 1713   2.358   2.687   3.163
 2375SOL    HW2 1714   2.230   2.588   3.140
 2376SOL     OW 1715   3.136   2.248   3.124
 2376SOL    HW1 1716   3.157   2.322   3.188
 2376SOL    HW2 1717   3.047   2.265   3.081
 2377SOL     OW 1718   1.926   3.426   3.193
 2377SOL    HW1 1719   1.880   3.508   3.159
 2377SOL    HW2 1720   2.024   3.445   3.202
 2378SOL     OW 1721   2.229   2.962   2.363
 2378SOL    HW1 1722   2.222   3.045   2.307
 2378SOL    HW2 1723   2.233   2.882   2.303
 2379SOL     OW 1724   3.114   3.210   2.250
 2379SOL    HW1 1725   3.164   3.287   2.290
 2379SOL    HW2 1726   3.019   3.212   2.282
 2380SOL     OW 1727   3.134   3.307   3.004
 2380SOL    HW1 1728   3.181   3.320   3.091
 2380SOL    HW2 1729   3.068   3.233   3.013
 2381SOL     OW 1730   3.444   2.501   2.334
 2381SOL    HW1 1731   3.413   2.562   2.407
 2381SOL    HW2 1732   3.494   2.553   2.265
 2382SOL     OW 1733   2.216   3.372   3.191
 2382SOL    HW1 1734   2.195   3.328   3.104
 2382SOL    HW2 1735   2.313   3.398   3.194
 2383SOL     OW 1736   2.264   2.613   3.460
 2383SOL    HW1 1737   2.332   2.668   3.413
 2383SOL    HW2 1738   2.304   2.525   3.487
 2384SOL     OW 1739   3.449   2.641   3.532
 2384SOL    HW1 1740   3.357   2.679   3.527
 2384SOL    HW2 1741   3.509   2.688   3.467
 2385SOL     OW 1742   2.875   1.967   3.632
 2385SOL    HW1 1743   2.881   2.052   3.580
 2385SOL    HW2 1744   2.907   1.891   3.575
 2386SOL     OW 1745   2.366   1.912   3.602
 2386SOL    HW1 1746   2.324   1.855   3.532
 2386SOL    HW2 1747   2.300   1.981   3.634
 2387SOL     OW 1748   2.435   2.732   2.891
 2387SOL    HW1 1749   2.479   2.821   2.882
 2387SOL    HW2 1750   2.372   2.732   2.968
 2388SOL     OW 1751   3.222   2.724   2.907
 2388SOL    HW1 1752   3.147   2.724   2.841
 2388SOL    HW2 1753   3.259   2.632   2.916
 2389SOL     OW 1754   3.071   2.387   2.137
 2389SOL    HW1 1755   3.084   2.303   2.191
 2389SOL    HW2 1756   3.042   2.461   2.197
 2390SOL     OW 1757   2.169   2.075   3.093
 2390SOL    HW1 1758   2.146   2.112   3.183
 2390SOL    HW2 1759   2.139   1.980   3.087
 2391SOL     OW 1760   1.899   3.172   3.144
 2391SOL    HW1 1761   1.952   3.123   3.212
 2391SOL    HW2 1762   1.921   3.270   3.149
 2392SOL     OW 1763   2.594   2.496   2.926
 2392SOL    HW1 1764   2.653   2.470   2.850
 2392SOL    HW2 1765   2.566   2.592   2.915
 2393SOL     OW 1766   3.590   2.797   3.716
 2393SOL    HW1 1767   3.544   2.790   3.627
 2393SOL    HW2 1768   3.528   2.841   3.782
 2394SOL     OW 1769   2.169   1.925   2.480
 2394SOL    HW1 1770   2.158   2.019   2.513
 2394SOL    HW2 1771   2.164   1.862   2.557
 2395SOL     OW 1772   3.484   2.229   2.236
 2395SOL    HW1 1773   3.486   2.153   2.300
 2395SOL    HW2 1774   3.436   2.306   2.276
 2396SOL     OW 1775   2.885   2.628   2.828
 2396SOL    HW1 1776   2.900   2.649   2.924
 2396SOL    HW2 1777   2.855   2.533   2.819
 2397SOL     OW 1778   2.842   3.435   3.562
 2397SOL    HW1 1779   2.822   3.479   3.474
 2397SOL    HW2 1780   2.881   3.344   3.546
 2399SOL     OW 1781   2.212   2.760   3.666
 2399SOL    HW1 1782   2.288   2.804   3.714
 2399SOL    HW2 1783   2.247   2.713   3.584
 2400SOL     OW 1784   3.402   2.136   1.987
 2400SOL    HW1 1785   3.341   2.061   2.010
 2400SOL    HW2 1786   3.424   2.188   2.070
 2401SOL     OW 1787   3.165   2.700   1.904
 2401SOL    HW1 1788   3.199   2.607   1.919
 2401SOL    HW2 1789   3.183   2.727   1.809
 2402SOL     OW 1790   2.930   3.195   2.711
 2402SOL    HW1 1791   2.937   3.111   2.656
 2402SOL    HW2 1792   2.992   3.264   2.675
 2403SOL     OW 1793   2.201   2.371   2.868
 2403SOL    HW1 1794   2.149   2.288   2.851
 2403SOL    HW2 1795   2.278   2.376   2.804
 2404SOL     OW 1796   3.000   2.242   3.540
 2404SOL    HW1 1797   2.955   2.305   3.604
 2404SOL    HW2 1798   3.093   2.273   3.523
 2405SOL     OW 1799   3.022   2.069   3.339
 2405SOL    HW1 1800   3.022   2.133   3.416
 2405SOL    HW2 1801   3.050   2.117   3.256
 2406SOL     OW 1802   1.870   3.188   2.062
 2406SOL    HW1 1803   1.777   3.209   2.031
 2406SOL    HW2 1804   1.880   3.089   2.075
 2407SOL     OW 1805   1.950   3.663   2.789
 2407SOL    HW1 1806   1.908   3.577   2.762
 2407SOL    HW2 1807   2.044   3.666   2.755
 2408SOL     OW 1808   2.366   3.430   2.772
 2408SOL    HW1 1809   2.432   3.504   2.781
 2408SOL    HW2 1810   2.410   3.351   2.730
 2409SOL     OW 1811   2.864   2.658   3.100
 2409SOL    HW1 1812   2.905   2.626   3.186
 2409SOL    HW2 1813   2.768   2.631   3.097
 2410SOL     OW 1814   1.902   2.406   2.976
 2410SOL    HW1 1815   1.987   2.373   2.935
 2410SOL    HW2 1816   1.915   2.421   3.074
 2411SOL     OW 1817   2.051   2.382   3.584
 2411SOL    HW1 1818   2.110   2.342   3.514
 2411SOL    HW2 1819   1.993   2.453   3.543
 2412SOL     OW 1820   3.231   2.812   3.522
 2412SOL    HW1 1821   3.270   2.901   3.542
 2412SOL    HW2 1822   3.241   2.792   3.425
 2413SOL     OW 1823   3.519   2.466   3.068
 2413SOL    HW1 1824   3.481   2.397   3.130
 2413SOL    HW2 1825   3.601   2.430   3.024
 2414SOL     OW 1826   2.114   3.426   3.606
 2414SOL    HW1 1827   2.084   3.483   3.682
 2414SOL    HW2 1828   2.107   3.329   3.632
 2415SOL     OW 1829   2.533   2.326   3.131
 2415SOL    HW1 1830   2.499   2.237   3.101
 2415SOL    HW2 1831   2.559   2.380   3.051
 2416SOL     OW 1832   2.792   3.540   3.327
 2416SOL    HW1 1833   2.768   3.522   3.232
 2416SOL    HW2 1834   2.822   3.634   3.337
 2417SOL     OW 1835   2.335   2.362   2.053
 2417SOL    HW1 1836   2.396   2.442   2.057
 2417SOL    HW2 1837   2.240   2.393   2.060
 2418SOL     OW 1838   2.021   2.999   3.328
 2418SOL    HW1 1839   2.043   2.938   3.404
 2418SOL    HW2 1840   2.031   2.950   3.242
 2419SOL     OW 1841   3.209   2.921   3.096
 2419SOL    HW1 1842   3.233   2.858   3.022
 2419SOL    HW2 1843   3.119   2.961   3.078
 2420SOL     OW 1844   3.164   2.717   2.171
 2420SOL    HW1 1845   3.078   2.686   2.213
 2420SOL    HW2 1846   3.160   2.703   2.072
 2421SOL     OW 1847   3.621   3.609   3.016
 2421SOL    HW1 1848   3.682   3.639   2.943
 2421SOL    HW2 1849   3.583   3.520   2.994
 2422SOL     OW 1850   3.114   3.593   2.990
 2422SOL    HW1 1851   3.198   3.598   2.936
 2422SOL    HW2 1852   3.091   3.497   3.008
 2423SOL     OW 1853   1.945   3.120   2.884
 2423SOL    HW1 1854   1.940   3.119   2.984
 2423SOL    HW2 1855   1.862   3.079   2.846
 2424SOL     OW 1856   2.550   3.524   3.578
 2424SOL    HW1 1857   2.494   3.605   3.587
 2424SOL    HW2 1858   2.602   3.528   3.492
 2425SOL     OW 1859   3.588   1.997   2.385
 2425SOL    HW1 1860   3.661   1.980   2.318
 2425SOL    HW2 1861   3.557   1.910   2.423
 2426SOL     OW 1862   3.250   3.435   2.339
 2426SOL    HW1 1863   3.317   3.447   2.265
 2426SOL    HW2 1864   3.210   3.524   2.362
 2427SOL     OW 1865   1.992   3.656   3.713
 2427SOL    HW1 1866   1.951   3.582   3.766
 2427SOL    HW2 1867   2.056   3.707   3.771
 2428SOL     OW 1868   3.142   2.789   2.534
 2428SOL    HW1 1869   3.202   2.708   2.536
 2428SOL    HW2 1870   3.182   2.858   2.474
 2429SOL     OW 1871   2.692   3.135   3.284
 2429SOL    HW1 1872   2.687   3.168   3.379
 2429SOL    HW2 1873   2.606   3.154   3.238
 2430SOL     OW 1874   2.534   3.478   2.016
 2430SOL    HW1 1875   2.543   3.488   1.917
 2430SOL    HW2 1876   2.494   3.389   2.037
 2431SOL     OW 1877   3.512   3.582   3.256
 2431SOL    HW1 1878   3.565   3.592   3.172
 2431SOL    HW2 1879   3.485   3.672   3.290
 2432SOL     OW 1880   3.703   2.037   2.825
 2432SOL    HW1 1881   3.742   1.952   2.789
 2432SOL    HW2 1882   3.605   2.039   2.806
 2433SOL     OW 1883   2.125   2.188   2.582
 2433SOL    HW1 1884   2.046   2.239   2.548
 2433SOL    HW2 1885   2.116   2.173   2.680
 2434SOL     OW 1886   3.056   3.474   1.893
 2434SOL    HW1 1887   3.062   3.381   1.930
 2434SOL    HW2 1888   2.997   3.474   1.813
 2435SOL     OW 1889   2.684   2.864   3.234
 2435SOL    HW1 1890   2.724   2.863   3.142
 2435SOL    HW2 1891   2.694   2.956   3.274
 2436SOL     OW 1892   2.778   2.772   2.153
 2436SOL    HW1 1893   2.841   2.810   2.085
 2436SOL    HW2 1894   2.818   2.689   2.192
 2437SOL     OW 1895   3.366   3.469   1.906
 2437SOL    HW1 1896   3.274   3.506   1.913
 2437SOL    HW2 1897   3.404   3.489   1.816
 2438SOL     OW 1898   2.234   3.150   3.352
 2438SOL    HW1 1899   2.221   3.243   3.318
 2438SOL    HW2 1900   2.150   3.098   3.339
 2439SOL     OW 1901   3.476   3.154   3.151
 2439SOL    HW1 1902   3.536   3.157   3.231
 2439SOL    HW2 1903   3.401   3.218   3.164
 2440SOL     OW 1904   2.901   2.960   2.558
 2440SOL    HW1 1905   2.831   2.913   2.612
 2440SOL    HW2 1906   2.960   2.892   2.515
 2441SOL     OW 1907   2.876   2.098   2.833
 2441SOL    HW1 1908   2.868   2.062   2.740
 2441SOL    HW2 1909   2.874   2.022   2.898
 2442SOL     OW 1910   2.452   3.349   2.353
 2442SOL    HW1 1911   2.494   3.291   2.283
 2442SOL    HW2 1912   2.408   3.428   2.309
 2443SOL     OW 1913   3.571   2.247   3.243
 2443SOL    HW1 1914   3.644   2.316   3.247
 2443SOL    HW2 1915   3.599   2.172   3.184
 2444SOL     OW 1916   2.117   3.210   2.152
 2444SOL    HW1 1917   2.021   3.211   2.125
 2444SOL    HW2 1918   2.129   3.263   2.236
 2445SOL     OW 1919   1.967   2.875   3.588
 2445SOL    HW1 1920   1.890   2.842   3.642
 2445SOL    HW2 1921   2.052   2.845   3.630
 2446SOL     OW 1922   2.534   2.065   3.351
 2446SOL    HW1 1923   2.624   2.049   3.311
 2446SOL    HW2 1924   2.542   2.070   3.450
 2447SOL     OW 1925   1.937   2.207   1.895
 2447SOL    HW1 1926   1.845   2.179   1.866
 2447SOL    HW2 1927   1.968   2.284   1.839
 2448SOL     OW 1928   3.302   2.718   3.260
 2448SOL    HW1 1929   3.245   2.770   3.197
 2448SOL    HW2 1930   3.398   2.730   3.236
 2449SOL     OW 1931   1.934   2.028   2.180
 2449SOL    HW1 1932   1.917   2.111   2.126
 2449SOL    HW2 1933   2.024   1.991   2.158
 2450SOL     OW 1934   3.045   3.197   1.981
 2450SOL    HW1 1935   2.946   3.186   1.983
 2450SOL    HW2 1936   3.079   3.212   2.074
 2451SOL     OW 1937   2.475   2.704   3.293
 2451SOL    HW1 1938   2.531   2.785   3.276
 2451SOL    HW2 1939   2.534   2.624   3.296
 2452SOL     OW 1940   3.355   3.629   2.821
 2452SOL    HW1 1941   3.388   3.693   2.752
 2452SOL    HW2 1942   3.421   3.623   2.896
 2453SOL     OW 1943   2.578   2.427   3.570
 2453SOL    HW1 1944   2.597   2.492   3.644
 2453SOL    HW2 1945   2.638   2.347   3.579
 2454SOL     OW 1946   3.312   3.082   3.495
 2454SOL    HW1 1947   3.303   3.072   3.594
 2454SOL    HW2 1948   3.408   3.075   3.469
 2455SOL     OW 1949   2.252   3.603   3.422
 2455SOL    HW1 1950   2.161   3.644   3.420
 2455SOL    HW2 1951   2.245   3.509   3.454
 2456SOL     OW 1952   3.536   2.745   3.116
 2456SOL    HW1 1953   3.509   2.656   3.079
 2456SOL    HW2 1954   3.537   2.813   3.043
 2457SOL     OW 1955   3.087   2.187   2.311
 2457SOL    HW1 1956   3.152   2.113   2.300
 2457SOL    HW2 1957   3.107   2.237   2.395
 2458SOL     OW 1958   3.639   2.204   3.504
 2458SOL    HW1 1959   3.622   2.235   3.410
 2458SOL    HW2 1960   3.555   2.167   3.542
 2459SOL     OW 1961   3.592   2.796   3.379
 2459SOL    HW1 1962   3.630   2.887   3.394
 2459SOL    HW2 1963   3.584   2.779   3.280
 2460SOL     OW 1964   2.721   3.236   1.878
 2460SOL    HW1 1965   2.675   3.251   1.966
 2460SOL    HW2 1966   2.765   3.321   1.848
 2461SOL     OW 1967   2.523   3.652   2.815
 2461SOL    HW1 1968   2.477   3.740   2.802
 2461SOL    HW2 1969   2.622   3.664   2.808
 2462SOL     OW 1970   2.721   2.818   2.723
 2462SOL    HW1 1971   2.775   2.749   2.771
 2462SOL    HW2 1972   2.689   2.887   2.789
 2463SOL     OW 1973   2.945   2.846   1.949
 2463SOL    HW1 1974   2.922   2.899   1.867
 2463SOL    HW2 1975   3.026   2.790   1.930
 2464SOL     OW 1976   3.723   3.431   2.713
 2464SOL    HW1 1977   3.652   3.419   2.643
 2464SOL    HW2 1978   3.724   3.352   2.773
 2465SOL     OW 1979   2.083   3.176   3.706
 2465SOL    HW1 1980   2.018   3.103   3.685
 2465SOL    HW2 1981   2.087   3.190   3.804
 2466SOL     OW 1982   1.941   3.102   2.515
 2466SOL    HW1 1983   1.940   3.055   2.603
 2466SOL    HW2 1984   2.023   3.074   2.464
 2467SOL     OW 1985   2.534   3.253   3.486
 2467SOL    HW1 1986   2.456   3.203   3.524
 2467SOL    HW2 1987   2.531   3.348   3.517
 2468SOL     OW 1988   3.686   2.054   3.089
 2468SOL    HW1 1989   3.682   1.964   3.133
 2468SOL    HW2 1990   3.689   2.043   2.990
 2469SOL     OW 1991   2.290   2.286   2.382
 2469SOL    HW1 1992   2.320   2.214   2.320
 2469SOL    HW2 1993   2.251   2.246   2.465
 2470SOL     OW 1994   3.567   3.349   2.966
 2470SOL    HW1 1995   3.474   3.324   2.939
 2470SOL    HW2 1996   3.593   3.299   3.048
 2471SOL     OW 1997   2.179   2.409   3.142
 2471SOL    HW1 1998   2.217   2.350   3.214
 2471SOL    HW2 1999   2.219   2.383   3.054
 2472SOL     OW 2000   2.674   3.448   2.549
 2472SOL    HW1 2001   2.706   3.458   2.455
 2472SOL    HW2 2002   2.595   3.386   2.551
 2473SOL     OW 2003   3.286   2.076   2.974
 2473SOL    HW1 2004   3.338   2.011   3.029
 2473SOL    HW2 2005   3.237   2.139   3.035
 2474SOL     OW 2006   2.863   1.896   3.016
 2474SOL    HW1 2007   2.800   1.824   2.985
 2474SOL    HW2 2008   2.956   1.860   3.016
 2475SOL     OW 2009   2.632   3.192   2.163
 2475SOL    HW1 2010   2.586   3.105   2.180
 2475SOL    HW2 2011   2.723   3.189   2.204
 2476SOL     OW 2012   2.480   3.429   3.146
 2476SOL    HW1 2013   2.475   3.511   3.203
 2476SOL    HW2 2014   2.569   3.426   3.101
 2477SOL     OW 2015   3.214   1.914   2.030
 2477SOL    HW1 2016   3.249   1.873   1.946
 2477SOL    HW2 2017   3.124   1.876   2.050
 2478SOL     OW 2018   3.162   2.315   2.553
 2478SOL    HW1 2019   3.103   2.395   2.557
 2478SOL    HW2 2020   3.177   2.280   2.646
 2479SOL     OW 2021   3.455   2.083   2.744
 2479SOL    HW1 2022   3.371   2.082   2.798
 2479SOL    HW2 2023   3.457   2.166   2.688
 2480SOL     OW 2024   1.901   2.939   2.162
 2480SOL    HW1 2025   2.000   2.928   2.153
 2480SOL    HW2 2026   1.861   2.853   2.194
 2481SOL     OW 2027   2.737   3.508   2.199
 2481SOL    HW1 2028   2.660   3.473   2.145
 2481SOL    HW2 2029   2.705   3.579   2.261
 2482SOL     OW 2030   2.092   2.490   3.837
 2482SOL    HW1 2031   1.999   2.488   3.874
 2482SOL    HW2 2032   2.093   2.451   3.745
 2496SOL     OW 2033   2.468   2.826   3.847
 2496SOL    HW1 2034   2.475   2.910   3.793
 2496SOL    HW2 2035   2.514   2.839   3.935
 2499SOL     OW 2036   1.889   3.458   3.841
 2499SOL    HW1 2037   1.870   3.362   3.862
 2499SOL    HW2 2038   1.856   3.516   3.916
 2505SOL     OW 2039   3.387   2.861   3.914
 2505SOL    HW1 2040   3.324   2.785   3.927
 2505SOL    HW2 2041   3.435   2.879   4.000
 2508SOL     OW 2042   2.460   2.591   3.994
 2508SOL    HW1 2043   2.484   2.660   3.926
 2508SOL    HW2 2044   2.382   2.624   4.048
 2511SOL     OW 2045   2.903   2.563   4.153
 2511SOL    HW1 2046   2.929   2.559   4.249
 2511SOL    HW2 2047   2.818   2.512   4.139
 2513SOL     OW 2048   2.727   2.210   3.919
 2513SOL    HW1 2049   2.786   2.273   3.870
 2513SOL    HW2 2050   2.746   2.116   3.890
 2519SOL     OW 2051   2.183   2.805   3.966
 2519SOL    HW1 2052   2.265   2.844   3.924
 2519SOL    HW2 2053   2.156   2.723   3.917
 2527SOL     OW 2054   2.244   2.562   4.204
 2527SOL    HW1 2055   2.289   2.472   4.201
 2527SOL    HW2 2056   2.150   2.551   4.237
 2528SOL     OW 2057   2.476   1.984   3.841
 2528SOL    HW1 2058   2.574   1.962   3.848
 2528SOL    HW2 2059   2.445   1.967   3.748
 2532SOL     OW 2060   3.296   3.050   3.765
 2532SOL    HW1 2061   3.328   2.974   3.822
 2532SOL    HW2 2062   3.204   3.077   3.795
 2533SOL     OW 2063   2.159   1.897   3.895
 2533SOL    HW1 2064   2.208   1.981   3.874
 2533SOL    HW2 2065   2.221   1.832   3.940
 2534SOL     OW 2066   2.797   2.098   4.204
 2534SOL    HW1 2067   2.749   2.139   4.126
 2534SOL    HW2 2068   2.896   2.096   4.185
 2538SOL     OW 2069   2.894   2.411   3.740
 2538SOL    HW1 2070   2.853   2.493   3.701
 2538SOL    HW2 2071   2.958   2.437   3.813
 2544SOL     OW 2072   2.350   3.247   3.898
 2544SOL    HW1 2073   2.263   3.232   3.945
 2544SOL    HW2 2074   2.333   3.273   3.803
 2546SOL     OW 2075   3.252   2.437   3.802
 2546SOL    HW1 2076   3.198   2.416   3.883
 2546SOL    HW2 2077   3.343   2.396   3.811
 2547SOL     OW 2078   2.389   2.118   4.052
 2547SOL    HW1 2079   2.416   2.059   3.977
 2547SOL    HW2 2080   2.389   2.213   4.021
 2550SOL     OW 2081   2.567   2.912   4.092
 2550SOL    HW1 2082   2.553   2.919   4.191
 2550SOL    HW2 2083   2.651   2.861   4.074
 2558SOL     OW 2084   3.071   2.387   3.999
 2558SOL    HW1 2085   3.084   2.303   4.053
 2558SOL    HW2 2086   3.042   2.461   4.059
 2564SOL     OW 2087   3.402   2.136   3.849
 2564SOL    HW1 2088   3.341   2.061   3.872
 2564SOL    HW2 2089   3.424   2.188   3.932
 2565SOL     OW 2090   3.165   2.700   3.766
 2565SOL    HW1 2091   3.199   2.607   3.781
 2565SOL    HW2 2092   3.183   2.727   3.671
 2569SOL     OW 2093   1.870   3.188   3.924
 2569SOL    HW1 2094   1.777   3.209   3.893
 2569SOL    HW2 2095   1.880   3.089   3.937
 2574SOL     OW 2096   2.677   2.434   4.049
 2574SOL    HW1 2097   2.684   2.345   4.003
 2574SOL    HW2 2098   2.583   2.468   4.041
 2577SOL     OW 2099   2.335   2.362   3.915
 2577SOL    HW1 2100   2.396   2.442   3.919
 2577SOL    HW2 2101   2.240   2.393   3.922
 2578SOL     OW 2102   3.164   2.717   4.033
 2578SOL    HW1 2103   3.078   2.686   4.075
 2578SOL    HW2 2104   3.160   2.703   3.934
 2584SOL     OW 2105   2.534   3.478   3.878
 2584SOL    HW1 2106   2.543   3.488   3.779
 2584SOL    HW2 2107   2.494   3.389   3.899
 2587SOL     OW 2108   3.056   3.474   3.755
 2587SOL    HW1 2109   3.062   3.381   3.792
 2587SOL    HW2 2110   2.997   3.474   3.675
 2589SOL     OW 2111   2.778   2.772   4.015
 2589SOL    HW1 2112   2.841   2.810   3.947
 2589SOL    HW2 2113   2.818   2.689   4.054
 2595SOL     OW 2114   2.117   3.210   4.014
 2595SOL    HW1 2115   2.021   3.211   3.987
 2595SOL    HW2 2116   2.129   3.263   4.098
 2596SOL     OW 2117   1.937   2.207   3.757
 2596SOL    HW1 2118   1.845   2.179   3.728
 2596SOL    HW2 2119   1.968   2.284   3.701
 2597SOL     OW 2120   1.934   2.028   4.042
 2597SOL    HW1 2121   1.917   2.111   3.988
 2597SOL    HW2 2122   2.024   1.991   4.020
 2598SOL     OW 2123   3.045   3.197   3.843
 2598SOL    HW1 2124   2.946   3.186   3.845
 2598SOL    HW2 2125   3.079   3.212   3.936
 2603SOL     OW 2126   2.721   3.236   3.740
 2603SOL    HW1 2127   2.675   3.251   3.828
 2603SOL    HW2 2128   2.765   3.321   3.710
 2606SOL     OW 2129   2.945   2.846   3.811
 2606SOL    HW1 2130   2.922   2.899   3.729
 2606SOL    HW2 2131   3.026   2.790   3.792
 2610SOL     OW 2132   2.290   2.286   4.244
 2610SOL    HW1 2133   2.320   2.214   4.182
 2610SOL    HW2 2134   2.251   2.246   4.327
 2614SOL     OW 2135   2.632   3.192   4.025
 2614SOL    HW1 2136   2.586   3.105   4.042
 2614SOL    HW2 2137   2.723   3.189   4.066
 2615SOL     OW 2138   3.214   1.914   3.892
 2615SOL    HW1 2139   3.249   1.873   3.808
 2615SOL    HW2 2140   3.124   1.876   3.912
 2618SOL     OW 2141   1.901   2.939   4.024
 2618SOL    HW1 2142   2.000   2.928   4.015
 2618SOL    HW2 2143   1.861   2.853   4.056
 2642SOL     OW 2144   2.179   3.975   1.801
 2642SOL    HW1 2145   2.250   4.046   1.807
 2642SOL    HW2 2146   2.091   4.014   1.829
 2663SOL     OW 2147   2.643   3.988   1.749
 2663SOL    HW1 2148   2.710   3.927   1.792
 2663SOL    HW2 2149   2.570   4.007   1.814
 2683SOL     OW 2150   2.777   3.813   1.402
 2683SOL    HW1 2151   2.802   3.793   1.307
 2683SOL    HW2 2152   2.849   3.869   1.444
 2693SOL     OW 2153   2.875   3.829   1.770
 2693SOL    HW1 2154   2.881   3.914   1.718
 2693SOL    HW2 2155   2.907   3.753   1.713
 2694SOL     OW 2156   2.366   3.774   1.740
 2694SOL    HW1 2157   2.324   3.717   1.670
 2694SOL    HW2 2158   2.300   3.843   1.772
 2734SOL     OW 2159   2.534   3.927   1.489
 2734SOL    HW1 2160   2.624   3.911   1.449
 2734SOL    HW2 2161   2.542   3.932   1.588
 2758SOL     OW 2162   2.087   3.999   2.858
 2758SOL    HW1 2163   2.122   3.982   2.950
 2758SOL    HW2 2164   1.999   3.954   2.846
 2759SOL     OW 2165   1.881   4.092   2.509
 2759SOL    HW1 2166   1.799   4.135   2.548
 2759SOL    HW2 2167   1.853   4.019   2.446
 2776SOL     OW 2168   2.671   3.728   2.364
 2776SOL    HW1 2169   2.711   3.819   2.355
 2776SOL    HW2 2170   2.571   3.736   2.370
 2781SOL     OW 2171   3.143   4.069   2.806
 2781SOL    HW1 2172   3.057   4.019   2.793
 2781SOL    HW2 2173   3.205   4.015   2.862
 2788SOL     OW 2174   2.727   4.072   2.057
 2788SOL    HW1 2175   2.786   4.135   2.008
 2788SOL    HW2 2176   2.746   3.978   2.028
 2791SOL     OW 2177   2.412   3.920   2.747
 2791SOL    HW1 2178   2.407   3.915   2.847
 2791SOL    HW2 2179   2.414   4.016   2.718
 2796SOL     OW 2180   3.262   3.831   2.288
 2796SOL    HW1 2181   3.238   3.794   2.198
 2796SOL    HW2 2182   3.361   3.847   2.292
 2799SOL     OW 2183   2.476   3.846   1.979
 2799SOL    HW1 2184   2.574   3.824   1.986
 2799SOL    HW2 2185   2.445   3.829   1.886
 2802SOL     OW 2186   2.784   4.227   2.761
 2802SOL    HW1 2187   2.759   4.218   2.665
 2802SOL    HW2 2188   2.832   4.145   2.792
 2803SOL     OW 2189   2.401   3.788   2.374
 2803SOL    HW1 2190   2.320   3.789   2.432
 2803SOL    HW2 2191   2.404   3.871   2.319
 2804SOL     OW 2192   2.159   3.759   2.033
 2804SOL    HW1 2193   2.208   3.843   2.012
 2804SOL    HW2 2194   2.221   3.694   2.078
 2805SOL     OW 2195   2.797   3.960   2.342
 2805SOL    HW1 2196   2.749   4.001   2.264
 2805SOL    HW2 2197   2.896   3.958   2.323
 2810SOL     OW 2198   2.423   3.946   3.009
 2810SOL    HW1 2199   2.461   3.862   3.046
 2810SOL    HW2 2200   2.335   3.965   3.053
 2811SOL     OW 2201   2.728   4.178   2.504
 2811SOL    HW1 2202   2.696   4.250   2.442
 2811SOL    HW2 2203   2.752   4.097   2.451
 2812SOL     OW 2204   2.879   3.763   2.615
 2812SOL    HW1 2205   2.807   3.768   2.546
 2812SOL    HW2 2206   2.855   3.694   2.684
 2817SOL     OW 2207   2.389   3.980   2.190
 2817SOL    HW1 2208   2.416   3.921   2.115
 2817SOL    HW2 2209   2.389   4.075   2.159
 2820SOL     OW 2210   2.777   3.813   3.264
 2820SOL    HW1 2211   2.802   3.793   3.169
 2820SOL    HW2 2212   2.849   3.869   3.306
 2831SOL     OW 2213   2.366   3.774   3.602
 2831SOL    HW1 2214   2.324   3.717   3.532
 2831SOL    HW2 2215   2.300   3.843   3.634
 2835SOL     OW 2216   2.169   3.937   3.093
 2835SOL    HW1 2217   2.146   3.974   3.183
 2835SOL    HW2 2218   2.139   3.842   3.087
 2838SOL     OW 2219   2.169   3.787   2.480
 2838SOL    HW1 2220   2.158   3.881   2.513
 2838SOL    HW2 2221   2.164   3.724   2.557
 2847SOL     OW 2222   3.022   3.931   3.339
 2847SOL    HW1 2223   3.022   3.995   3.416
 2847SOL    HW2 2224   3.050   3.979   3.256
 2859SOL     OW 2225   3.588   3.859   2.385
 2859SOL    HW1 2226   3.661   3.842   2.318
 2859SOL    HW2 2227   3.557   3.772   2.423
 2862SOL     OW 2228   2.125   4.050   2.582
 2862SOL    HW1 2229   2.046   4.101   2.548
 2862SOL    HW2 2230   2.116   4.035   2.680
 2867SOL     OW 2231   2.876   3.960   2.833
 2867SOL    HW1 2232   2.868   3.924   2.740
 2867SOL    HW2 2233   2.874   3.884   2.898
 2870SOL     OW 2234   2.534   3.927   3.351
 2870SOL    HW1 2235   2.624   3.911   3.311
 2870SOL    HW2 2236   2.542   3.932   3.450
 2871SOL     OW 2237   1.937   4.069   1.895
 2871SOL    HW1 2238   1.845   4.041   1.866
 2871SOL    HW2 2239   1.968   4.146   1.839
 2873SOL     OW 2240   1.934   3.890   2.180
 2873SOL    HW1 2241   1.917   3.973   2.126
 2873SOL    HW2 2242   2.024   3.853   2.158
 2878SOL     OW 2243   3.087   4.049   2.311
 2878SOL    HW1 2244   3.152   3.975   2.300
 2878SOL    HW2 2245   3.107   4.099   2.395
 2886SOL     OW 2246   2.290   4.148   2.382
 2886SOL    HW1 2247   2.320   4.076   2.320
 2886SOL    HW2 2248   2.251   4.108   2.465
 2888SOL     OW 2249   3.286   3.938   2.974
 2888SOL    HW1 2250   3.338   3.873   3.029
 2888SOL    HW2 2251   3.237   4.001   3.035
 2889SOL     OW 2252   2.863   3.758   3.016
 2889SOL    HW1 2253   2.800   3.686   2.985
 2889SOL    HW2 2254   2.956   3.722   3.016
 2891SOL     OW 2255   3.214   3.776   2.030
 2891SOL    HW1 2256   3.249   3.735   1.946
 2891SOL    HW2 2257   3.124   3.738   2.050
 2893SOL     OW 2258   3.455   3.945   2.744
 2893SOL    HW1 2259   3.371   3.944   2.798
 2893SOL    HW2 2260   3.457   4.028   2.688
 3019SOL     OW 2261   3.854   1.821   1.571
 3019SOL    HW1 2262   3.844   1.806   1.670
 3019SOL    HW2 2263   3.768   1.857   1.535
 3098SOL     OW 2264   3.854   1.794   1.851
 3098SOL    HW1 2265   3.813   1.720   1.904
 3098SOL    HW2 2266   3.918   1.845   1.909
 3141SOL     OW 2267   3.955   1.713   2.345
 3141SOL    HW1 2268   3.989   1.790   2.399
 3141SOL    HW2 2269   3.999   1.713   2.255
 3148SOL     OW 2270   3.751   1.596   1.979
 3148SOL    HW1 2271   3.732   1.500   2.000
 3148SOL    HW2 2272   3.718   1.654   2.054
 3160SOL     OW 2273   3.854   1.821   3.433
 3160SOL    HW1 2274   3.844   1.806   3.532
 3160SOL    HW2 2275   3.768   1.857   3.397
 3164SOL     OW 2276   4.075   1.801   2.715
 3164SOL    HW1 2277   4.125   1.715   2.721
 3164SOL    HW2 2278   4.140   1.878   2.712
 3170SOL     OW 2279   3.973   1.785   3.103
 3170SOL    HW1 2280   4.030   1.720   3.153
 3170SOL    HW2 2281   3.957   1.752   3.010
 3198SOL     OW 2282   3.788   1.564   3.193
 3198SOL    HW1 2283   3.742   1.646   3.159
 3198SOL    HW2 2284   3.886   1.583   3.202
 3221SOL     OW 2285   3.732   1.326   2.062
 3221SOL    HW1 2286   3.639   1.347   2.031
 3221SOL    HW2 2287   3.742   1.227   2.075
 3222SOL     OW 2288   3.812   1.801   2.789
 3222SOL    HW1 2289   3.770   1.715   2.762
 3222SOL    HW2 2290   3.906   1.804   2.755
 3380SOL     OW 2291   3.837   2.599   1.597
 3380SOL    HW1 2292   3.925   2.586   1.642
 3380SOL    HW2 2293   3.824   2.696   1.575
 3384SOL     OW 2294   4.041   2.113   1.801
 3384SOL    HW1 2295   4.112   2.184   1.807
 3384SOL    HW2 2296   3.953   2.152   1.829
 3399SOL     OW 2297   3.926   2.147   1.498
 3399SOL    HW1 2298   3.846   2.207   1.485
 3399SOL    HW2 2299   3.916   2.098   1.584
 3418SOL     OW 2300   3.802   2.418   1.386
 3418SOL    HW1 2301   3.894   2.417   1.345
 3418SOL    HW2 2302   3.796   2.492   1.453
 3447SOL     OW 2303   4.074   2.760   1.804
 3447SOL    HW1 2304   4.150   2.804   1.852
 3447SOL    HW2 2305   4.109   2.713   1.722
 3458SOL     OW 2306   3.913   2.382   1.722
 3458SOL    HW1 2307   3.972   2.342   1.652
 3458SOL    HW2 2308   3.855   2.453   1.681
 3481SOL     OW 2309   3.829   2.875   1.726
 3481SOL    HW1 2310   3.752   2.842   1.780
 3481SOL    HW2 2311   3.914   2.845   1.768
 3492SOL     OW 2312   3.945   3.176   1.844
 3492SOL    HW1 2313   3.880   3.103   1.823
 3492SOL    HW2 2314   3.949   3.190   1.942
 3503SOL     OW 2315   3.954   2.490   1.975
 3503SOL    HW1 2316   3.861   2.488   2.012
 3503SOL    HW2 2317   3.955   2.451   1.883
 3504SOL     OW 2318   3.949   2.137   2.858
 3504SOL    HW1 2319   3.984   2.120   2.950
 3504SOL    HW2 2320   3.861   2.092   2.846
 3505SOL     OW 2321   3.743   2.230   2.509
 3505SOL    HW1 2322   3.661   2.273   2.548
 3505SOL    HW2 2323   3.715   2.157   2.446
 3515SOL     OW 2324   3.954   3.296   2.400
 3515SOL    HW1 2325   3.928   3.392   2.400
 3515SOL    HW2 2326   3.883   3.242   2.445
 3516SOL     OW 2327   3.964   2.953   2.748
 3516SOL    HW1 2328   3.978   2.869   2.800
 3516SOL    HW2 2329   3.909   3.017   2.803
 3519SOL     OW 2330   3.846   2.505   2.425
 3519SOL    HW1 2331   3.801   2.417   2.442
 3519SOL    HW2 2332   3.845   2.559   2.509
 3520SOL     OW 2333   3.751   3.458   1.979
 3520SOL    HW1 2334   3.732   3.362   2.000
 3520SOL    HW2 2335   3.718   3.516   2.054
 3521SOL     OW 2336   3.837   2.599   3.459
 3521SOL    HW1 2337   3.925   2.586   3.504
 3521SOL    HW2 2338   3.824   2.696   3.437
 3524SOL     OW 2339   3.921   2.838   3.126
 3524SOL    HW1 2340   4.010   2.793   3.112
 3524SOL    HW2 2341   3.848   2.773   3.107
 3531SOL     OW 2342   3.800   2.673   2.651
 3531SOL    HW1 2343   3.899   2.661   2.660
 3531SOL    HW2 2344   3.776   2.768   2.672
 3538SOL     OW 2345   4.045   2.805   2.104
 3538SOL    HW1 2346   4.127   2.844   2.062
 3538SOL    HW2 2347   4.018   2.723   2.055
 3540SOL     OW 2348   3.926   2.147   3.360
 3540SOL    HW1 2349   3.846   2.207   3.347
 3540SOL    HW2 2350   3.916   2.098   3.446
 3544SOL     OW 2351   4.106   2.562   2.342
 3544SOL    HW1 2352   4.151   2.472   2.339
 3544SOL    HW2 2353   4.012   2.551   2.375
 3551SOL     OW 2354   4.021   1.897   2.033
 3551SOL    HW1 2355   4.070   1.981   2.012
 3551SOL    HW2 2356   4.083   1.832   2.078
 3555SOL     OW 2357   4.183   3.014   2.603
 3555SOL    HW1 2358   4.112   2.987   2.668
 3555SOL    HW2 2359   4.157   2.986   2.510
 3558SOL     OW 2360   3.802   2.418   3.248
 3558SOL    HW1 2361   3.894   2.417   3.207
 3558SOL    HW2 2362   3.796   2.492   3.315
 3569SOL     OW 2363   4.134   2.675   3.113
 3569SOL    HW1 2364   4.220   2.687   3.163
 3569SOL    HW2 2365   4.092   2.588   3.140
 3570SOL     OW 2366   3.788   3.426   3.193
 3570SOL    HW1 2367   3.742   3.508   3.159
 3570SOL    HW2 2368   3.886   3.445   3.202
 3571SOL     OW 2369   4.091   2.962   2.363
 3571SOL    HW1 2370   4.084   3.045   2.307
 3571SOL    HW2 2371   4.095   2.882   2.303
 3581SOL     OW 2372   4.031   2.075   3.093
 3581SOL    HW1 2373   4.008   2.112   3.183
 3581SOL    HW2 2374   4.001   1.980   3.087
 3582SOL     OW 2375   3.761   3.172   3.144
 3582SOL    HW1 2376   3.814   3.123   3.212
 3582SOL    HW2 2377   3.783   3.270   3.149
 3584SOL     OW 2378   4.031   1.925   2.480
 3584SOL    HW1 2379   4.020   2.019   2.513
 3584SOL    HW2 2380   4.026   1.862   2.557
 3589SOL     OW 2381   4.043   2.672   2.811
 3589SOL    HW1 2382   4.136   2.708   2.816
 3589SOL    HW2 2383   4.037   2.587   2.863
 3590SOL     OW 2384   4.063   2.371   2.868
 3590SOL    HW1 2385   4.011   2.288   2.851
 3590SOL    HW2 2386   4.140   2.376   2.804
 3593SOL     OW 2387   3.732   3.188   2.062
 3593SOL    HW1 2388   3.639   3.209   2.031
 3593SOL    HW2 2389   3.742   3.089   2.075
 3597SOL     OW 2390   3.764   2.406   2.976
 3597SOL    HW1 2391   3.849   2.373   2.935
 3597SOL    HW2 2392   3.777   2.421   3.074
 3603SOL     OW 2393   4.197   2.362   2.053
 3603SOL    HW1 2394   4.258   2.442   2.057
 3603SOL    HW2 2395   4.102   2.393   2.060
 3604SOL     OW 2396   3.883   2.999   3.328
 3604SOL    HW1 2397   3.905   2.938   3.404
 3604SOL    HW2 2398   3.893   2.950   3.242
 3607SOL     OW 2399   3.807   3.120   2.884
 3607SOL    HW1 2400   3.802   3.119   2.984
 3607SOL    HW2 2401   3.724   3.079   2.846
 3612SOL     OW 2402   3.987   2.188   2.582
 3612SOL    HW1 2403   3.908   2.239   2.548
 3612SOL    HW2 2404   3.978   2.173   2.680
 3619SOL     OW 2405   3.979   3.210   2.152
 3619SOL    HW1 2406   3.883   3.211   2.125
 3619SOL    HW2 2407   3.991   3.263   2.236
 3620SOL     OW 2408   3.829   2.875   3.588
 3620SOL    HW1 2409   3.752   2.842   3.642
 3620SOL    HW2 2410   3.914   2.845   3.630
 3622SOL     OW 2411   3.799   2.207   1.895
 3622SOL    HW1 2412   3.707   2.179   1.866
 3622SOL    HW2 2413   3.830   2.284   1.839
 3623SOL     OW 2414   3.796   2.028   2.180
 3623SOL    HW1 2415   3.779   2.111   2.126
 3623SOL    HW2 2416   3.886   1.991   2.158
 3633SOL     OW 2417   3.803   3.102   2.515
 3633SOL    HW1 2418   3.802   3.055   2.603
 3633SOL    HW2 2419   3.885   3.074   2.464
 3635SOL     OW 2420   4.152   2.286   2.382
 3635SOL    HW1 2421   4.182   2.214   2.320
 3635SOL    HW2 2422   4.113   2.246   2.465
 3636SOL     OW 2423   4.041   2.409   3.142
 3636SOL    HW1 2424   4.079   2.350   3.214
 3636SOL    HW2 2425   4.081   2.383   3.054
 3641SOL     OW 2426   3.763   2.939   2.162
 3641SOL    HW1 2427   3.862   2.928   2.153
 3641SOL    HW2 2428   3.723   2.853   2.194
   4.95427   4.95427   4.95427
