; mobley_1046331_GMX.itp created by acpype (v: 2023.10.27) on Thu May 21 00:08:24 2026

[ atomtypes ]
;name   bond_type     mass     charge   ptype   sigma         epsilon       Amb
 ca       ca          0.00000  0.00000   A     3.31521e-01   4.13379e-01 ; 1.86  0.0988
 c        c           0.00000  0.00000   A     3.31521e-01   4.13379e-01 ; 1.86  0.0988
 o        o           0.00000  0.00000   A     3.04812e-01   6.12119e-01 ; 1.71  0.1463
 os       os          0.00000  0.00000   A     3.15610e-01   3.03758e-01 ; 1.77  0.0726
 ha       ha          0.00000  0.00000   A     2.62548e-01   6.73624e-02 ; 1.47  0.0161
 h5       h5          0.00000  0.00000   A     2.44730e-01   6.73624e-02 ; 1.37  0.0161

[ moleculetype ]
;name            nrexcl
 mobley_1046331   3

[ atoms ]
;   nr  type  resi  res  atom  cgnr     charge      mass       ; qtot   bond_type
     1   ca     1   MOL    C1    1    -0.139000     12.01000 ; qtot -0.139
     2   ca     1   MOL    C2    2    -0.115000     12.01000 ; qtot -0.254
     3   ca     1   MOL    C3    3    -0.115000     12.01000 ; qtot -0.369
     4   ca     1   MOL    C4    4    -0.136000     12.01000 ; qtot -0.505
     5   ca     1   MOL    C5    5    -0.136000     12.01000 ; qtot -0.641
     6   ca     1   MOL    C6    6     0.101100     12.01000 ; qtot -0.540
     7    c     1   MOL    C7    7     0.637900     12.01000 ; qtot 0.098
     8    o     1   MOL    O1    8    -0.517000     16.00000 ; qtot -0.419
     9   os     1   MOL    O2    9    -0.375200     16.00000 ; qtot -0.794
    10   ha     1   MOL    H1   10     0.134000      1.00800 ; qtot -0.660
    11   ha     1   MOL    H2   11     0.136500      1.00800 ; qtot -0.524
    12   ha     1   MOL    H3   12     0.136500      1.00800 ; qtot -0.387
    13   ha     1   MOL    H4   13     0.151000      1.00800 ; qtot -0.236
    14   ha     1   MOL    H5   14     0.151000      1.00800 ; qtot -0.085
    15   h5     1   MOL    H6   15     0.085200      1.00800 ; qtot -0.000

[ bonds ]
;   ai     aj funct   r             k
     1      2   1    1.3986e-01    2.9644e+05 ;     C1 - C2    
     1      3   1    1.3986e-01    2.9644e+05 ;     C1 - C3    
     1     10   1    1.0860e-01    3.0183e+05 ;     C1 - H1    
     2      4   1    1.3986e-01    2.9644e+05 ;     C2 - C4    
     2     11   1    1.0860e-01    3.0183e+05 ;     C2 - H2    
     3      5   1    1.3986e-01    2.9644e+05 ;     C3 - C5    
     3     12   1    1.0860e-01    3.0183e+05 ;     C3 - H3    
     4      6   1    1.3986e-01    2.9644e+05 ;     C4 - C6    
     4     13   1    1.0860e-01    3.0183e+05 ;     C4 - H4    
     5      6   1    1.3986e-01    2.9644e+05 ;     C5 - C6    
     5     14   1    1.0860e-01    3.0183e+05 ;     C5 - H5    
     6      9   1    1.3688e-01    2.8731e+05 ;     C6 - O2    
     7      8   1    1.2190e-01    4.9421e+05 ;     C7 - O1    
     7      9   1    1.3621e-01    2.9398e+05 ;     C7 - O2    
     7     15   1    1.1053e-01    2.7793e+05 ;     C7 - H6    

[ pairs ]
;   ai     aj    funct
     1      6      1 ;     C1 - C6    
     1     13      1 ;     C1 - H4    
     1     14      1 ;     C1 - H5    
     2      5      1 ;     C2 - C5    
     2      9      1 ;     C2 - O2    
     2     12      1 ;     C2 - H3    
     3      4      1 ;     C3 - C4    
     3      9      1 ;     C3 - O2    
     3     11      1 ;     C3 - H2    
     4      7      1 ;     C4 - C7    
     4     14      1 ;     C4 - H5    
     5      7      1 ;     C5 - C7    
     5     13      1 ;     C5 - H4    
     6      8      1 ;     C6 - O1    
     6     11      1 ;     C6 - H2    
     6     12      1 ;     C6 - H3    
     6     15      1 ;     C6 - H6    
     9     13      1 ;     O2 - H4    
     9     14      1 ;     O2 - H5    
    10      4      1 ;     H1 - C4    
    10      5      1 ;     H1 - C5    
    10     11      1 ;     H1 - H2    
    10     12      1 ;     H1 - H3    
    11     13      1 ;     H2 - H4    
    12     14      1 ;     H3 - H5    

[ angles ]
;   ai     aj     ak    funct   theta         cth
     1      2      4      1    1.2002e+02    5.3279e+02 ;     C1 - C2     - C4    
     1      2     11      1    1.1988e+02    3.7572e+02 ;     C1 - C2     - H2    
     1      3      5      1    1.2002e+02    5.3279e+02 ;     C1 - C3     - C5    
     1      3     12      1    1.1988e+02    3.7572e+02 ;     C1 - C3     - H3    
     2      1      3      1    1.2002e+02    5.3279e+02 ;     C2 - C1     - C3    
     2      1     10      1    1.1988e+02    3.7572e+02 ;     C2 - C1     - H1    
     2      4      6      1    1.2002e+02    5.3279e+02 ;     C2 - C4     - C6    
     2      4     13      1    1.1988e+02    3.7572e+02 ;     C2 - C4     - H4    
     3      1     10      1    1.1988e+02    3.7572e+02 ;     C3 - C1     - H1    
     3      5      6      1    1.2002e+02    5.3279e+02 ;     C3 - C5     - C6    
     3      5     14      1    1.1988e+02    3.7572e+02 ;     C3 - C5     - H5    
     4      2     11      1    1.1988e+02    3.7572e+02 ;     C4 - C2     - H2    
     4      6      5      1    1.2002e+02    5.3279e+02 ;     C4 - C6     - C5    
     4      6      9      1    1.1911e+02    6.6107e+02 ;     C4 - C6     - O2    
     5      3     12      1    1.1988e+02    3.7572e+02 ;     C5 - C3     - H3    
     5      6      9      1    1.1911e+02    6.6107e+02 ;     C5 - C6     - O2    
     6      4     13      1    1.1988e+02    3.7572e+02 ;     C6 - C4     - H4    
     6      5     14      1    1.1988e+02    3.7572e+02 ;     C6 - C5     - H5    
     6      9      7      1    1.2129e+02    7.4776e+02 ;     C6 - O2     - C7    
     8      7      9      1    1.2320e+02    8.4734e+02 ;     O1 - C7     - O2    
     8      7     15      1    1.2378e+02    4.9664e+02 ;     O1 - C7     - H6    
     9      7     15      1    1.1309e+02    4.8124e+02 ;     O2 - C7     - H6    

[ dihedrals ] ; propers
; for gromacs 4.5 or higher, using funct 9
;    i      j      k      l   func   phase     kd      pn
     1      2      4      6      9   180.00  15.16700   2 ;     C1-    C2-    C4-    C6
     1      2      4     13      9   180.00  15.16700   2 ;     C1-    C2-    C4-    H4
     1      3      5      6      9   180.00  15.16700   2 ;     C1-    C3-    C5-    C6
     1      3      5     14      9   180.00  15.16700   2 ;     C1-    C3-    C5-    H5
     2      1      3      5      9   180.00  15.16700   2 ;     C2-    C1-    C3-    C5
     2      1      3     12      9   180.00  15.16700   2 ;     C2-    C1-    C3-    H3
     2      4      6      5      9   180.00  15.16700   2 ;     C2-    C4-    C6-    C5
     2      4      6      9      9   180.00  15.16700   2 ;     C2-    C4-    C6-    O2
     3      1      2      4      9   180.00  15.16700   2 ;     C3-    C1-    C2-    C4
     3      1      2     11      9   180.00  15.16700   2 ;     C3-    C1-    C2-    H2
     3      5      6      4      9   180.00  15.16700   2 ;     C3-    C5-    C6-    C4
     3      5      6      9      9   180.00  15.16700   2 ;     C3-    C5-    C6-    O2
     4      6      5     14      9   180.00  15.16700   2 ;     C4-    C6-    C5-    H5
     4      6      9      7      9   180.00   4.10032   2 ;     C4-    C6-    O2-    C7
     5      6      4     13      9   180.00  15.16700   2 ;     C5-    C6-    C4-    H4
     5      6      9      7      9   180.00   4.10032   2 ;     C5-    C6-    O2-    C7
     6      4      2     11      9   180.00  15.16700   2 ;     C6-    C4-    C2-    H2
     6      5      3     12      9   180.00  15.16700   2 ;     C6-    C5-    C3-    H3
     6      9      7      8      9     0.00   0.33472   3 ;     C6-    O2-    C7-    O1
     6      9      7      8      9     0.00   7.23832   1 ;     C6-    O2-    C7-    O1
     6      9      7      8      9   180.00   8.99560   2 ;     C6-    O2-    C7-    O1
     6      9      7     15      9   180.00  11.29680   2 ;     C6-    O2-    C7-    H6
     9      6      4     13      9   180.00  15.16700   2 ;     O2-    C6-    C4-    H4
     9      6      5     14      9   180.00  15.16700   2 ;     O2-    C6-    C5-    H5
    10      1      2      4      9   180.00  15.16700   2 ;     H1-    C1-    C2-    C4
    10      1      2     11      9   180.00  15.16700   2 ;     H1-    C1-    C2-    H2
    10      1      3      5      9   180.00  15.16700   2 ;     H1-    C1-    C3-    C5
    10      1      3     12      9   180.00  15.16700   2 ;     H1-    C1-    C3-    H3
    11      2      4     13      9   180.00  15.16700   2 ;     H2-    C2-    C4-    H4
    12      3      5     14      9   180.00  15.16700   2 ;     H3-    C3-    C5-    H5

[ dihedrals ] ; impropers
; treated as propers in GROMACS to use correct AMBER analytical function
;    i      j      k      l   func   phase     kd      pn
     1      4      2     11      4   180.00   4.60240   2 ;     C1-    C4-    C2-    H2
     1      5      3     12      4   180.00   4.60240   2 ;     C1-    C5-    C3-    H3
     2      6      4     13      4   180.00   4.60240   2 ;     C2-    C6-    C4-    H4
     3      6      5     14      4   180.00   4.60240   2 ;     C3-    C6-    C5-    H5
     4      5      6      9      4   180.00   4.60240   2 ;     C4-    C5-    C6-    O2
    10      1      3      2      4   180.00   4.60240   2 ;     H1-    C1-    C3-    C2
    15      8      7      9      4   180.00   4.60240   2 ;     H6-    O1-    C7-    O2
