mobley_9507933_GMX.gro created by acpype (v: 2023.10.27) on Tue May 19 14:13:47 2026
 2399
    1MOL     C1    1   2.420   2.404   2.266
    1MOL     C2    2   2.293   2.374   2.217
    1MOL     C3    3   2.363   2.291   2.468
    1MOL     C4    4   2.456   2.362   2.394
    1MOL     C5    5   2.207   2.303   2.299
    1MOL     C6    6   2.590   2.392   2.450
    1MOL     C7    7   2.071   2.269   2.249
    1MOL     N1    8   2.239   2.260   2.423
    1MOL     H1    9   2.490   2.460   2.205
    1MOL     H2   10   2.264   2.406   2.118
    1MOL     H3   11   2.385   2.256   2.568
    1MOL     H4   12   2.593   2.495   2.490
    1MOL     H5   13   2.617   2.323   2.530
    1MOL     H6   14   2.669   2.383   2.373
    1MOL     H7   15   2.030   2.183   2.304
    1MOL     H8   16   2.002   2.353   2.261
    1MOL     H9   17   2.072   2.243   2.142
   14SOL     OW   18   1.460   1.505   1.339
   14SOL    HW1   19   1.484   1.599   1.365
   14SOL    HW2   20   1.444   1.451   1.421
   18SOL     OW   21   1.127   1.341   1.690
   18SOL    HW1   22   1.174   1.341   1.778
   18SOL    HW2   23   1.079   1.254   1.679
   31SOL     OW   24   1.293   1.228   1.423
   31SOL    HW1   25   1.330   1.155   1.365
   31SOL    HW2   26   1.345   1.233   1.508
   35SOL     OW   27   1.187   1.792   1.616
   35SOL    HW1   28   1.211   1.852   1.540
   35SOL    HW2   29   1.194   1.697   1.586
   56SOL     OW   30   1.227   1.550   1.506
   56SOL    HW1   31   1.233   1.473   1.570
   56SOL    HW2   32   1.175   1.524   1.426
   95SOL     OW   33   1.754   1.223   1.588
   95SOL    HW1   34   1.845   1.184   1.575
   95SOL    HW2   35   1.762   1.319   1.612
   97SOL     OW   36   1.592   1.629   1.625
   97SOL    HW1   37   1.619   1.663   1.535
   97SOL    HW2   38   1.671   1.591   1.671
  122SOL     OW   39   1.728   0.935   1.854
  122SOL    HW1   40   1.682   0.928   1.765
  122SOL    HW2   41   1.666   0.979   1.920
  126SOL     OW   42   0.980   1.573   1.700
  126SOL    HW1   43   0.960   1.617   1.612
  126SOL    HW2   44   1.019   1.482   1.684
  127SOL     OW   45   1.859   1.518   1.605
  127SOL    HW1   46   1.873   1.545   1.510
  127SOL    HW2   47   1.942   1.540   1.658
  147SOL     OW   48   0.930   1.678   1.465
  147SOL    HW1   49   0.906   1.660   1.370
  147SOL    HW2   50   0.960   1.772   1.475
  152SOL     OW   51   1.759   1.747   1.154
  152SOL    HW1   52   1.820   1.777   1.081
  152SOL    HW2   53   1.721   1.658   1.132
  153SOL     OW   54   1.252   1.731   1.128
  153SOL    HW1   55   1.336   1.736   1.074
  153SOL    HW2   56   1.229   1.635   1.146
  163SOL     OW   57   1.650   1.720   1.394
  163SOL    HW1   58   1.703   1.730   1.310
  163SOL    HW2   59   1.623   1.810   1.428
  171SOL     OW   60   1.614   1.292   1.289
  171SOL    HW1   61   1.674   1.295   1.369
  171SOL    HW2   62   1.539   1.356   1.302
  184SOL     OW   63   1.493   1.767   0.959
  184SOL    HW1   64   1.526   1.831   0.890
  184SOL    HW2   65   1.559   1.761   1.034
  186SOL     OW   66   1.450   1.220   1.633
  186SOL    HW1   67   1.441   1.210   1.732
  186SOL    HW2   68   1.546   1.213   1.607
  192SOL     OW   69   1.730   0.934   1.517
  192SOL    HW1   70   1.768   1.025   1.532
  192SOL    HW2   71   1.722   0.917   1.418
  197SOL     OW   72   1.861   1.569   0.851
  197SOL    HW1   73   1.790   1.557   0.781
  197SOL    HW2   74   1.862   1.490   0.911
  203SOL     OW   75   1.705   1.487   1.104
  203SOL    HW1   76   1.612   1.462   1.077
  203SOL    HW2   77   1.731   1.437   1.186
  219SOL     OW   78   1.555   1.511   2.565
  219SOL    HW1   79   1.498   1.495   2.646
  219SOL    HW2   80   1.496   1.521   2.485
  227SOL     OW   81   1.460   1.505   3.201
  227SOL    HW1   82   1.484   1.599   3.227
  227SOL    HW2   83   1.444   1.451   3.283
  238SOL     OW   84   1.842   1.767   2.221
  238SOL    HW1   85   1.896   1.738   2.301
  238SOL    HW2   86   1.872   1.857   2.192
  240SOL     OW   87   1.689   0.922   2.474
  240SOL    HW1   88   1.784   0.893   2.482
  240SOL    HW2   89   1.681   0.987   2.399
  241SOL     OW   90   1.641   1.108   2.294
  241SOL    HW1   91   1.727   1.110   2.242
  241SOL    HW2   92   1.655   1.155   2.382
  244SOL     OW   93   1.293   1.228   3.285
  244SOL    HW1   94   1.330   1.155   3.227
  244SOL    HW2   95   1.345   1.233   3.370
  247SOL     OW   96   1.525   0.999   2.052
  247SOL    HW1   97   1.462   0.923   2.065
  247SOL    HW2   98   1.573   1.017   2.138
  248SOL     OW   99   1.187   1.792   3.478
  248SOL    HW1  100   1.211   1.852   3.402
  248SOL    HW2  101   1.194   1.697   3.448
  250SOL     OW  102   1.466   1.417   2.815
  250SOL    HW1  103   1.407   1.423   2.895
  250SOL    HW2  104   1.451   1.329   2.769
  251SOL     OW  105   1.667   1.714   2.434
  251SOL    HW1  106   1.626   1.691   2.346
  251SOL    HW2  107   1.649   1.640   2.499
  254SOL     OW  108   1.576   1.662   2.169
  254SOL    HW1  109   1.665   1.708   2.172
  254SOL    HW2  110   1.555   1.638   2.074
  264SOL     OW  111   1.362   1.144   2.407
  264SOL    HW1  112   1.445   1.115   2.359
  264SOL    HW2  113   1.313   1.211   2.351
  266SOL     OW  114   1.008   1.456   2.339
  266SOL    HW1  115   0.962   1.528   2.287
  266SOL    HW2  116   1.004   1.476   2.437
  268SOL     OW  117   1.795   1.066   2.735
  268SOL    HW1  118   1.733   1.051   2.659
  268SOL    HW2  119   1.743   1.077   2.820
  269SOL     OW  120   1.227   1.550   3.368
  269SOL    HW1  121   1.233   1.473   3.432
  269SOL    HW2  122   1.175   1.524   3.288
  273SOL     OW  123   1.111   1.776   2.099
  273SOL    HW1  124   1.051   1.714   2.149
  273SOL    HW2  125   1.142   1.732   2.014
  275SOL     OW  126   1.632   1.377   1.943
  275SOL    HW1  127   1.600   1.471   1.933
  275SOL    HW2  128   1.556   1.314   1.931
  279SOL     OW  129   0.940   1.698   2.766
  279SOL    HW1  130   1.020   1.641   2.787
  279SOL    HW2  131   0.891   1.658   2.689
  289SOL     OW  132   1.434   1.188   1.903
  289SOL    HW1  133   1.466   1.112   1.960
  289SOL    HW2  134   1.342   1.215   1.933
  293SOL     OW  135   1.227   1.570   2.655
  293SOL    HW1  136   1.248   1.644   2.590
  293SOL    HW2  137   1.295   1.570   2.728
  295SOL     OW  138   1.271   1.797   2.453
  295SOL    HW1  139   1.315   1.861   2.389
  295SOL    HW2  140   1.221   1.849   2.523
  301SOL     OW  141   1.429   1.173   2.729
  301SOL    HW1  142   1.374   1.089   2.722
  301SOL    HW2  143   1.455   1.202   2.637
  303SOL     OW  144   1.857   0.833   2.239
  303SOL    HW1  145   1.899   0.769   2.303
  303SOL    HW2  146   1.819   0.782   2.161
  305SOL     OW  147   1.664   1.280   2.519
  305SOL    HW1  148   1.763   1.288   2.533
  305SOL    HW2  149   1.619   1.364   2.550
  308SOL     OW  150   1.754   1.223   3.450
  308SOL    HW1  151   1.845   1.184   3.437
  308SOL    HW2  152   1.762   1.319   3.474
  310SOL     OW  153   1.592   1.629   3.487
  310SOL    HW1  154   1.619   1.663   3.397
  310SOL    HW2  155   1.671   1.591   3.533
  311SOL     OW  156   1.111   1.195   2.962
  311SOL    HW1  157   1.071   1.239   3.043
  311SOL    HW2  158   1.070   1.232   2.879
  312SOL     OW  159   1.638   1.099   2.941
  312SOL    HW1  160   1.643   1.180   3.000
  312SOL    HW2  161   1.552   1.101   2.890
  321SOL     OW  162   1.252   1.348   2.250
  321SOL    HW1  163   1.302   1.425   2.290
  321SOL    HW2  164   1.157   1.350   2.282
  322SOL     OW  165   1.272   1.445   3.004
  322SOL    HW1  166   1.319   1.458   3.091
  322SOL    HW2  167   1.206   1.371   3.013
  340SOL     OW  168   1.859   1.518   3.467
  340SOL    HW1  169   1.873   1.545   3.372
  340SOL    HW2  170   1.942   1.540   3.520
  344SOL     OW  171   1.068   1.333   2.711
  344SOL    HW1  172   1.075   1.249   2.656
  344SOL    HW2  173   1.130   1.402   2.675
  363SOL     OW  174   1.347   1.059   3.096
  363SOL    HW1  175   1.371   0.996   3.022
  363SOL    HW2  176   1.257   1.099   3.078
  365SOL     OW  177   1.759   1.747   3.016
  365SOL    HW1  178   1.820   1.777   2.943
  365SOL    HW2  179   1.721   1.658   2.994
  366SOL     OW  180   1.252   1.731   2.990
  366SOL    HW1  181   1.336   1.736   2.936
  366SOL    HW2  182   1.229   1.635   3.008
  370SOL     OW  183   1.388   1.573   2.339
  370SOL    HW1  184   1.455   1.585   2.265
  370SOL    HW2  185   1.348   1.662   2.362
  372SOL     OW  186   1.280   0.927   2.534
  372SOL    HW1  187   1.340   0.846   2.536
  372SOL    HW2  188   1.320   0.996   2.474
  375SOL     OW  189   1.650   1.720   3.256
  375SOL    HW1  190   1.703   1.730   3.172
  375SOL    HW2  191   1.623   1.810   3.290
  378SOL     OW  192   1.194   1.612   1.893
  378SOL    HW1  193   1.200   1.519   1.930
  378SOL    HW2  194   1.135   1.612   1.813
  381SOL     OW  195   1.504   1.607   1.906
  381SOL    HW1  196   1.412   1.644   1.913
  381SOL    HW2  197   1.542   1.627   1.816
  383SOL     OW  198   1.614   1.292   3.151
  383SOL    HW1  199   1.674   1.295   3.231
  383SOL    HW2  200   1.539   1.356   3.164
  394SOL     OW  201   1.183   1.335   1.981
  394SOL    HW1  202   1.084   1.324   1.983
  394SOL    HW2  203   1.217   1.350   2.074
  396SOL     OW  204   1.493   1.767   2.821
  396SOL    HW1  205   1.526   1.831   2.752
  396SOL    HW2  206   1.559   1.761   2.896
  400SOL     OW  207   1.674   0.883   3.116
  400SOL    HW1  208   1.647   0.794   3.079
  400SOL    HW2  209   1.675   0.951   3.043
  409SOL     OW  210   1.861   1.569   2.713
  409SOL    HW1  211   1.790   1.557   2.643
  409SOL    HW2  212   1.862   1.490   2.773
  415SOL     OW  213   1.705   1.487   2.966
  415SOL    HW1  214   1.612   1.462   2.939
  415SOL    HW2  215   1.731   1.437   3.048
  417SOL     OW  216   0.812   1.586   2.549
  417SOL    HW1  217   0.844   1.596   2.455
  417SOL    HW2  218   0.733   1.524   2.551
  426SOL     OW  219   0.875   1.646   2.199
  426SOL    HW1  220   0.798   1.611   2.145
  426SOL    HW2  221   0.843   1.717   2.261
  536SOL     OW  222   0.850   2.660   1.823
  536SOL    HW1  223   0.846   2.736   1.888
  536SOL    HW2  224   0.872   2.696   1.732
  540SOL     OW  225   1.460   3.367   1.339
  540SOL    HW1  226   1.484   3.461   1.365
  540SOL    HW2  227   1.444   3.313   1.421
  542SOL     OW  228   1.603   2.309   0.737
  542SOL    HW1  229   1.529   2.355   0.687
  542SOL    HW2  230   1.654   2.377   0.790
  544SOL     OW  231   1.127   3.203   1.690
  544SOL    HW1  232   1.174   3.203   1.778
  544SOL    HW2  233   1.079   3.116   1.679
  549SOL     OW  234   1.594   1.976   1.480
  549SOL    HW1  235   1.576   2.043   1.408
  549SOL    HW2  236   1.591   2.022   1.569
  557SOL     OW  237   1.293   3.090   1.423
  557SOL    HW1  238   1.330   3.017   1.365
  557SOL    HW2  239   1.345   3.095   1.508
  566SOL     OW  240   1.281   2.207   0.944
  566SOL    HW1  241   1.195   2.157   0.931
  566SOL    HW2  242   1.343   2.153   1.000
  568SOL     OW  243   0.807   2.467   1.465
  568SOL    HW1  244   0.760   2.464   1.554
  568SOL    HW2  245   0.756   2.412   1.399
  569SOL     OW  246   1.394   2.331   1.674
  569SOL    HW1  247   1.374   2.374   1.762
  569SOL    HW2  248   1.472   2.269   1.683
  570SOL     OW  249   0.973   2.752   1.572
  570SOL    HW1  250   1.019   2.668   1.543
  570SOL    HW2  251   0.917   2.786   1.497
  571SOL     OW  252   0.991   2.272   1.242
  571SOL    HW1  253   0.914   2.306   1.296
  571SOL    HW2  254   0.957   2.221   1.163
  576SOL     OW  255   1.719   2.447   1.831
  576SOL    HW1  256   1.693   2.536   1.795
  576SOL    HW2  257   1.717   2.379   1.758
  581SOL     OW  258   1.795   2.928   0.873
  581SOL    HW1  259   1.733   2.913   0.797
  581SOL    HW2  260   1.743   2.939   0.958
  582SOL     OW  261   1.227   3.412   1.506
  582SOL    HW1  262   1.233   3.335   1.570
  582SOL    HW2  263   1.175   3.386   1.426
  594SOL     OW  264   1.547   2.084   1.729
  594SOL    HW1  265   1.542   2.121   1.821
  594SOL    HW2  266   1.475   2.015   1.717
  595SOL     OW  267   0.781   2.126   1.749
  595SOL    HW1  268   0.848   2.065   1.792
  595SOL    HW2  269   0.708   2.145   1.814
  597SOL     OW  270   1.351   2.452   1.433
  597SOL    HW1  271   1.379   2.409   1.518
  597SOL    HW2  272   1.376   2.548   1.434
  604SOL     OW  273   1.076   2.545   1.464
  604SOL    HW1  274   0.996   2.484   1.467
  604SOL    HW2  275   1.157   2.492   1.440
  614SOL     OW  276   1.466   2.452   0.992
  614SOL    HW1  277   1.436   2.357   0.999
  614SOL    HW2  278   1.539   2.468   1.058
  620SOL     OW  279   1.754   3.085   1.588
  620SOL    HW1  280   1.845   3.046   1.575
  620SOL    HW2  281   1.762   3.181   1.612
  622SOL     OW  282   1.592   3.491   1.625
  622SOL    HW1  283   1.619   3.525   1.535
  622SOL    HW2  284   1.671   3.453   1.671
  624SOL     OW  285   1.638   2.961   1.079
  624SOL    HW1  286   1.643   3.042   1.138
  624SOL    HW2  287   1.552   2.963   1.028
  625SOL     OW  288   0.915   1.951   1.402
  625SOL    HW1  289   0.940   1.931   1.307
  625SOL    HW2  290   0.987   2.007   1.444
  626SOL     OW  291   0.980   2.978   1.719
  626SOL    HW1  292   0.881   2.984   1.729
  626SOL    HW2  293   1.003   2.898   1.663
  629SOL     OW  294   1.274   2.248   1.262
  629SOL    HW1  295   1.295   2.322   1.326
  629SOL    HW2  296   1.185   2.265   1.219
  638SOL     OW  297   1.587   2.641   1.670
  638SOL    HW1  298   1.495   2.679   1.665
  638SOL    HW2  299   1.647   2.688   1.605
  639SOL     OW  300   1.013   1.967   1.770
  639SOL    HW1  301   1.019   2.052   1.718
  639SOL    HW2  302   1.045   1.891   1.713
  642SOL     OW  303   1.360   2.724   1.045
  642SOL    HW1  304   1.285   2.724   0.979
  642SOL    HW2  305   1.397   2.632   1.054
  647SOL     OW  306   1.728   2.797   1.854
  647SOL    HW1  307   1.682   2.790   1.765
  647SOL    HW2  308   1.666   2.841   1.920
  652SOL     OW  309   1.859   3.380   1.605
  652SOL    HW1  310   1.873   3.407   1.510
  652SOL    HW2  311   1.942   3.402   1.658
  659SOL     OW  312   1.138   2.242   1.678
  659SOL    HW1  313   1.093   2.305   1.742
  659SOL    HW2  314   1.231   2.273   1.661
  660SOL     OW  315   1.160   2.069   1.477
  660SOL    HW1  316   1.160   2.133   1.554
  660SOL    HW2  317   1.188   2.117   1.394
  664SOL     OW  318   1.002   2.658   1.238
  664SOL    HW1  319   1.043   2.626   1.324
  664SOL    HW2  320   0.906   2.631   1.235
  667SOL     OW  321   1.369   2.812   1.660
  667SOL    HW1  322   1.408   2.901   1.680
  667SOL    HW2  323   1.379   2.792   1.563
  669SOL     OW  324   1.657   2.466   1.206
  669SOL    HW1  325   1.619   2.397   1.268
  669SOL    HW2  326   1.739   2.430   1.162
  675SOL     OW  327   1.347   2.921   1.234
  675SOL    HW1  328   1.371   2.858   1.160
  675SOL    HW2  329   1.257   2.961   1.216
  688SOL     OW  330   1.650   3.582   1.394
  688SOL    HW1  331   1.703   3.592   1.310
  688SOL    HW2  332   1.623   3.672   1.428
  689SOL     OW  333   1.841   2.037   0.963
  689SOL    HW1  334   1.880   1.952   0.927
  689SOL    HW2  335   1.743   2.039   0.944
  696SOL     OW  336   1.614   3.154   1.289
  696SOL    HW1  337   1.674   3.157   1.369
  696SOL    HW2  338   1.539   3.218   1.302
  700SOL     OW  339   1.709   2.247   1.381
  700SOL    HW1  340   1.782   2.316   1.385
  700SOL    HW2  341   1.737   2.172   1.322
  705SOL     OW  342   1.440   2.718   1.398
  705SOL    HW1  343   1.383   2.770   1.335
  705SOL    HW2  344   1.536   2.730   1.374
  710SOL     OW  345   0.716   2.427   1.708
  710SOL    HW1  346   0.735   2.492   1.782
  710SOL    HW2  347   0.776   2.347   1.717
  711SOL     OW  348   1.450   3.082   1.633
  711SOL    HW1  349   1.441   3.072   1.732
  711SOL    HW2  350   1.546   3.075   1.607
  713SOL     OW  351   1.674   2.745   1.254
  713SOL    HW1  352   1.647   2.656   1.217
  713SOL    HW2  353   1.675   2.813   1.181
  716SOL     OW  354   1.777   2.204   1.642
  716SOL    HW1  355   1.760   2.235   1.548
  716SOL    HW2  356   1.693   2.167   1.680
  717SOL     OW  357   1.730   2.796   1.517
  717SOL    HW1  358   1.768   2.887   1.532
  717SOL    HW2  359   1.722   2.779   1.418
  726SOL     OW  360   1.824   2.054   1.227
  726SOL    HW1  361   1.820   1.964   1.271
  726SOL    HW2  362   1.827   2.043   1.128
  728SOL     OW  363   1.705   3.349   1.104
  728SOL    HW1  364   1.612   3.324   1.077
  728SOL    HW2  365   1.731   3.299   1.186
  731SOL     OW  366   1.424   2.076   1.112
  731SOL    HW1  367   1.476   2.011   1.167
  731SOL    HW2  368   1.375   2.139   1.173
  737SOL     OW  369   1.593   2.083   0.882
  737SOL    HW1  370   1.509   2.082   0.936
  737SOL    HW2  371   1.595   2.166   0.826
  744SOL     OW  372   1.555   3.373   2.565
  744SOL    HW1  373   1.498   3.357   2.646
  744SOL    HW2  374   1.496   3.383   2.485
  745SOL     OW  375   1.135   2.565   2.579
  745SOL    HW1  376   1.192   2.643   2.554
  745SOL    HW2  377   1.075   2.591   2.655
  746SOL     OW  378   1.755   2.469   2.093
  746SOL    HW1  379   1.743   2.456   1.994
  746SOL    HW2  380   1.725   2.388   2.142
  747SOL     OW  381   0.768   3.006   2.885
  747SOL    HW1  382   0.690   3.023   2.945
  747SOL    HW2  383   0.802   3.093   2.849
  749SOL     OW  384   0.685   2.874   2.527
  749SOL    HW1  385   0.754   2.858   2.597
  749SOL    HW2  386   0.612   2.931   2.565
  752SOL     OW  387   1.460   3.367   3.201
  752SOL    HW1  388   1.484   3.461   3.227
  752SOL    HW2  389   1.444   3.313   3.283
  754SOL     OW  390   1.603   2.309   2.599
  754SOL    HW1  391   1.529   2.355   2.549
  754SOL    HW2  392   1.654   2.377   2.652
  761SOL     OW  393   1.594   1.976   3.342
  761SOL    HW1  394   1.576   2.043   3.270
  761SOL    HW2  395   1.591   2.022   3.431
  763SOL     OW  396   1.842   3.629   2.221
  763SOL    HW1  397   1.896   3.600   2.301
  763SOL    HW2  398   1.872   3.719   2.192
  765SOL     OW  399   1.689   2.784   2.474
  765SOL    HW1  400   1.784   2.755   2.482
  765SOL    HW2  401   1.681   2.849   2.399
  766SOL     OW  402   1.641   2.970   2.294
  766SOL    HW1  403   1.727   2.972   2.242
  766SOL    HW2  404   1.655   3.017   2.382
  769SOL     OW  405   1.293   3.090   3.285
  769SOL    HW1  406   1.330   3.017   3.227
  769SOL    HW2  407   1.345   3.095   3.370
  770SOL     OW  408   0.809   1.866   2.364
  770SOL    HW1  409   0.849   1.957   2.355
  770SOL    HW2  410   0.709   1.874   2.370
  772SOL     OW  411   1.525   2.861   2.052
  772SOL    HW1  412   1.462   2.785   2.065
  772SOL    HW2  413   1.573   2.879   2.138
  775SOL     OW  414   1.466   3.279   2.815
  775SOL    HW1  415   1.407   3.285   2.895
  775SOL    HW2  416   1.451   3.191   2.769
  776SOL     OW  417   1.667   3.576   2.434
  776SOL    HW1  418   1.626   3.553   2.346
  776SOL    HW2  419   1.649   3.502   2.499
  777SOL     OW  420   0.598   2.591   2.132
  777SOL    HW1  421   0.622   2.660   2.064
  777SOL    HW2  422   0.520   2.624   2.186
  778SOL     OW  423   1.281   2.207   2.806
  778SOL    HW1  424   1.195   2.157   2.793
  778SOL    HW2  425   1.343   2.153   2.862
  779SOL     OW  426   1.576   3.524   2.169
  779SOL    HW1  427   1.665   3.570   2.172
  779SOL    HW2  428   1.555   3.500   2.074
  781SOL     OW  429   1.394   2.331   3.536
  781SOL    HW1  430   1.374   2.374   3.624
  781SOL    HW2  431   1.472   2.269   3.545
  782SOL     OW  432   0.973   2.752   3.434
  782SOL    HW1  433   1.019   2.668   3.405
  782SOL    HW2  434   0.917   2.786   3.359
  783SOL     OW  435   0.991   2.272   3.104
  783SOL    HW1  436   0.914   2.306   3.158
  783SOL    HW2  437   0.957   2.221   3.025
  784SOL     OW  438   1.041   2.563   2.291
  784SOL    HW1  439   1.067   2.559   2.387
  784SOL    HW2  440   0.956   2.512   2.277
  787SOL     OW  441   0.865   2.210   2.057
  787SOL    HW1  442   0.924   2.273   2.008
  787SOL    HW2  443   0.884   2.116   2.028
  788SOL     OW  444   1.719   2.447   3.693
  788SOL    HW1  445   1.693   2.536   3.657
  788SOL    HW2  446   1.717   2.379   3.620
  789SOL     OW  447   1.362   3.006   2.407
  789SOL    HW1  448   1.445   2.977   2.359
  789SOL    HW2  449   1.313   3.073   2.351
  791SOL     OW  450   1.008   3.318   2.339
  791SOL    HW1  451   0.962   3.390   2.287
  791SOL    HW2  452   1.004   3.338   2.437
  793SOL     OW  453   1.795   2.928   2.735
  793SOL    HW1  454   1.733   2.913   2.659
  793SOL    HW2  455   1.743   2.939   2.820
  796SOL     OW  456   1.458   2.597   2.590
  796SOL    HW1  457   1.453   2.532   2.665
  796SOL    HW2  458   1.538   2.656   2.603
  800SOL     OW  459   1.632   3.239   1.943
  800SOL    HW1  460   1.600   3.333   1.933
  800SOL    HW2  461   1.556   3.176   1.931
  802SOL     OW  462   1.400   1.969   2.288
  802SOL    HW1  463   1.376   1.932   2.198
  802SOL    HW2  464   1.499   1.985   2.292
  806SOL     OW  465   1.547   2.084   3.591
  806SOL    HW1  466   1.542   2.121   3.683
  806SOL    HW2  467   1.475   2.015   3.579
  807SOL     OW  468   0.614   1.984   1.979
  807SOL    HW1  469   0.712   1.962   1.986
  807SOL    HW2  470   0.583   1.967   1.886
  810SOL     OW  471   1.351   2.452   3.295
  810SOL    HW1  472   1.379   2.409   3.380
  810SOL    HW2  473   1.376   2.548   3.296
  812SOL     OW  474   0.922   2.365   2.761
  812SOL    HW1  475   0.897   2.356   2.665
  812SOL    HW2  476   0.970   2.283   2.792
  814SOL     OW  477   1.434   3.050   1.903
  814SOL    HW1  478   1.466   2.974   1.960
  814SOL    HW2  479   1.342   3.077   1.933
  816SOL     OW  480   0.935   2.098   2.342
  816SOL    HW1  481   0.887   2.139   2.264
  816SOL    HW2  482   1.034   2.096   2.323
  817SOL     OW  483   1.076   2.545   3.326
  817SOL    HW1  484   0.996   2.484   3.329
  817SOL    HW2  485   1.157   2.492   3.302
  818SOL     OW  486   1.227   3.432   2.655
  818SOL    HW1  487   1.248   3.506   2.590
  818SOL    HW2  488   1.295   3.432   2.728
  820SOL     OW  489   1.271   3.659   2.453
  820SOL    HW1  490   1.315   3.723   2.389
  820SOL    HW2  491   1.221   3.711   2.523
  821SOL     OW  492   1.032   2.411   1.878
  821SOL    HW1  493   0.991   2.493   1.839
  821SOL    HW2  494   1.096   2.437   1.951
  824SOL     OW  495   0.866   2.316   2.504
  824SOL    HW1  496   0.834   2.388   2.442
  824SOL    HW2  497   0.890   2.235   2.451
  825SOL     OW  498   1.017   1.901   2.615
  825SOL    HW1  499   0.945   1.906   2.546
  825SOL    HW2  500   0.993   1.832   2.684
  826SOL     OW  501   1.429   3.035   2.729
  826SOL    HW1  502   1.374   2.951   2.722
  826SOL    HW2  503   1.455   3.064   2.637
  827SOL     OW  504   1.466   2.452   2.854
  827SOL    HW1  505   1.436   2.357   2.861
  827SOL    HW2  506   1.539   2.468   2.920
  828SOL     OW  507   1.857   2.695   2.239
  828SOL    HW1  508   1.899   2.631   2.303
  828SOL    HW2  509   1.819   2.644   2.161
  830SOL     OW  510   1.664   3.142   2.519
  830SOL    HW1  511   1.763   3.150   2.533
  830SOL    HW2  512   1.619   3.226   2.550
  831SOL     OW  513   1.390   2.437   1.940
  831SOL    HW1  514   1.336   2.416   2.021
  831SOL    HW2  515   1.481   2.396   1.949
  833SOL     OW  516   1.754   3.085   3.450
  833SOL    HW1  517   1.845   3.046   3.437
  833SOL    HW2  518   1.762   3.181   3.474
  834SOL     OW  519   1.064   3.209   3.202
  834SOL    HW1  520   0.984   3.186   3.257
  834SOL    HW2  521   1.147   3.183   3.251
  835SOL     OW  522   1.592   3.491   3.487
  835SOL    HW1  523   1.619   3.525   3.397
  835SOL    HW2  524   1.671   3.453   3.533
  836SOL     OW  525   1.111   3.057   2.962
  836SOL    HW1  526   1.071   3.101   3.043
  836SOL    HW2  527   1.070   3.094   2.879
  837SOL     OW  528   1.638   2.961   2.941
  837SOL    HW1  529   1.643   3.042   3.000
  837SOL    HW2  530   1.552   2.963   2.890
  838SOL     OW  531   0.915   1.951   3.264
  838SOL    HW1  532   0.940   1.931   3.169
  838SOL    HW2  533   0.987   2.007   3.306
  840SOL     OW  534   0.705   2.912   2.230
  840SOL    HW1  535   0.691   2.919   2.329
  840SOL    HW2  536   0.789   2.861   2.212
  842SOL     OW  537   1.274   2.248   3.124
  842SOL    HW1  538   1.295   2.322   3.188
  842SOL    HW2  539   1.185   2.265   3.081
  846SOL     OW  540   1.252   3.210   2.250
  846SOL    HW1  541   1.302   3.287   2.290
  846SOL    HW2  542   1.157   3.212   2.282
  847SOL     OW  543   1.272   3.307   3.004
  847SOL    HW1  544   1.319   3.320   3.091
  847SOL    HW2  545   1.206   3.233   3.013
  848SOL     OW  546   1.582   2.501   2.334
  848SOL    HW1  547   1.551   2.562   2.407
  848SOL    HW2  548   1.632   2.553   2.265
  851SOL     OW  549   1.587   2.641   3.532
  851SOL    HW1  550   1.495   2.679   3.527
  851SOL    HW2  551   1.647   2.688   3.467
  855SOL     OW  552   1.360   2.724   2.907
  855SOL    HW1  553   1.285   2.724   2.841
  855SOL    HW2  554   1.397   2.632   2.916
  856SOL     OW  555   1.209   2.387   2.137
  856SOL    HW1  556   1.222   2.303   2.191
  856SOL    HW2  557   1.180   2.461   2.197
  859SOL     OW  558   0.732   2.496   2.926
  859SOL    HW1  559   0.791   2.470   2.850
  859SOL    HW2  560   0.704   2.592   2.915
  860SOL     OW  561   1.728   2.797   3.716
  860SOL    HW1  562   1.682   2.790   3.627
  860SOL    HW2  563   1.666   2.841   3.782
  862SOL     OW  564   1.622   2.229   2.236
  862SOL    HW1  565   1.624   2.153   2.300
  862SOL    HW2  566   1.574   2.306   2.276
  863SOL     OW  567   1.023   2.628   2.828
  863SOL    HW1  568   1.038   2.649   2.924
  863SOL    HW2  569   0.993   2.533   2.819
  865SOL     OW  570   1.859   3.380   3.467
  865SOL    HW1  571   1.873   3.407   3.372
  865SOL    HW2  572   1.942   3.402   3.520
  867SOL     OW  573   1.540   2.136   1.987
  867SOL    HW1  574   1.479   2.061   2.010
  867SOL    HW2  575   1.562   2.188   2.070
  868SOL     OW  576   1.303   2.700   1.904
  868SOL    HW1  577   1.337   2.607   1.919
  868SOL    HW2  578   1.321   2.727   1.809
  869SOL     OW  579   1.068   3.195   2.711
  869SOL    HW1  580   1.075   3.111   2.656
  869SOL    HW2  581   1.130   3.264   2.675
  872SOL     OW  582   1.138   2.242   3.540
  872SOL    HW1  583   1.093   2.305   3.604
  872SOL    HW2  584   1.231   2.273   3.523
  873SOL     OW  585   1.160   2.069   3.339
  873SOL    HW1  586   1.160   2.133   3.416
  873SOL    HW2  587   1.188   2.117   3.256
  877SOL     OW  588   1.002   2.658   3.100
  877SOL    HW1  589   1.043   2.626   3.186
  877SOL    HW2  590   0.906   2.631   3.097
  880SOL     OW  591   1.369   2.812   3.522
  880SOL    HW1  592   1.408   2.901   3.542
  880SOL    HW2  593   1.379   2.792   3.425
  881SOL     OW  594   0.815   2.434   2.187
  881SOL    HW1  595   0.822   2.345   2.141
  881SOL    HW2  596   0.721   2.468   2.179
  882SOL     OW  597   1.657   2.466   3.068
  882SOL    HW1  598   1.619   2.397   3.130
  882SOL    HW2  599   1.739   2.430   3.024
  888SOL     OW  600   1.347   2.921   3.096
  888SOL    HW1  601   1.371   2.858   3.022
  888SOL    HW2  602   1.257   2.961   3.078
  889SOL     OW  603   1.302   2.717   2.171
  889SOL    HW1  604   1.216   2.686   2.213
  889SOL    HW2  605   1.298   2.703   2.072
  890SOL     OW  606   1.759   3.609   3.016
  890SOL    HW1  607   1.820   3.639   2.943
  890SOL    HW2  608   1.721   3.520   2.994
  891SOL     OW  609   1.252   3.593   2.990
  891SOL    HW1  610   1.336   3.598   2.936
  891SOL    HW2  611   1.229   3.497   3.008
  894SOL     OW  612   1.726   1.997   2.385
  894SOL    HW1  613   1.799   1.980   2.318
  894SOL    HW2  614   1.695   1.910   2.423
  895SOL     OW  615   1.388   3.435   2.339
  895SOL    HW1  616   1.455   3.447   2.265
  895SOL    HW2  617   1.348   3.524   2.362
  897SOL     OW  618   1.280   2.789   2.534
  897SOL    HW1  619   1.340   2.708   2.536
  897SOL    HW2  620   1.320   2.858   2.474
  900SOL     OW  621   1.650   3.582   3.256
  900SOL    HW1  622   1.703   3.592   3.172
  900SOL    HW2  623   1.623   3.672   3.290
  901SOL     OW  624   1.841   2.037   2.825
  901SOL    HW1  625   1.880   1.952   2.789
  901SOL    HW2  626   1.743   2.039   2.806
  903SOL     OW  627   1.194   3.474   1.893
  903SOL    HW1  628   1.200   3.381   1.930
  903SOL    HW2  629   1.135   3.474   1.813
  905SOL     OW  630   0.916   2.772   2.153
  905SOL    HW1  631   0.979   2.810   2.085
  905SOL    HW2  632   0.956   2.689   2.192
  906SOL     OW  633   1.504   3.469   1.906
  906SOL    HW1  634   1.412   3.506   1.913
  906SOL    HW2  635   1.542   3.489   1.816
  908SOL     OW  636   1.614   3.154   3.151
  908SOL    HW1  637   1.674   3.157   3.231
  908SOL    HW2  638   1.539   3.218   3.164
  909SOL     OW  639   1.039   2.960   2.558
  909SOL    HW1  640   0.969   2.913   2.612
  909SOL    HW2  641   1.098   2.892   2.515
  910SOL     OW  642   1.014   2.098   2.833
  910SOL    HW1  643   1.006   2.062   2.740
  910SOL    HW2  644   1.012   2.022   2.898
  912SOL     OW  645   1.709   2.247   3.243
  912SOL    HW1  646   1.782   2.316   3.247
  912SOL    HW2  647   1.737   2.172   3.184
  917SOL     OW  648   1.440   2.718   3.260
  917SOL    HW1  649   1.383   2.770   3.197
  917SOL    HW2  650   1.536   2.730   3.236
  919SOL     OW  651   1.183   3.197   1.981
  919SOL    HW1  652   1.084   3.186   1.983
  919SOL    HW2  653   1.217   3.212   2.074
  921SOL     OW  654   1.493   3.629   2.821
  921SOL    HW1  655   1.526   3.693   2.752
  921SOL    HW2  656   1.559   3.623   2.896
  923SOL     OW  657   1.450   3.082   3.495
  923SOL    HW1  658   1.441   3.072   3.594
  923SOL    HW2  659   1.546   3.075   3.469
  925SOL     OW  660   1.674   2.745   3.116
  925SOL    HW1  661   1.647   2.656   3.079
  925SOL    HW2  662   1.675   2.813   3.043
  926SOL     OW  663   1.225   2.187   2.311
  926SOL    HW1  664   1.290   2.113   2.300
  926SOL    HW2  665   1.245   2.237   2.395
  927SOL     OW  666   0.594   2.607   2.514
  927SOL    HW1  667   0.644   2.692   2.495
  927SOL    HW2  668   0.506   2.609   2.466
  928SOL     OW  669   1.777   2.204   3.504
  928SOL    HW1  670   1.760   2.235   3.410
  928SOL    HW2  671   1.693   2.167   3.542
  929SOL     OW  672   1.730   2.796   3.379
  929SOL    HW1  673   1.768   2.887   3.394
  929SOL    HW2  674   1.722   2.779   3.280
  930SOL     OW  675   0.859   3.236   1.878
  930SOL    HW1  676   0.813   3.251   1.966
  930SOL    HW2  677   0.903   3.321   1.848
  932SOL     OW  678   0.859   2.818   2.723
  932SOL    HW1  679   0.913   2.749   2.771
  932SOL    HW2  680   0.827   2.887   2.789
  933SOL     OW  681   1.083   2.846   1.949
  933SOL    HW1  682   1.060   2.899   1.867
  933SOL    HW2  683   1.164   2.790   1.930
  934SOL     OW  684   1.861   3.431   2.713
  934SOL    HW1  685   1.790   3.419   2.643
  934SOL    HW2  686   1.862   3.352   2.773
  938SOL     OW  687   1.824   2.054   3.089
  938SOL    HW1  688   1.820   1.964   3.133
  938SOL    HW2  689   1.827   2.043   2.990
  940SOL     OW  690   1.705   3.349   2.966
  940SOL    HW1  691   1.612   3.324   2.939
  940SOL    HW2  692   1.731   3.299   3.048
  943SOL     OW  693   1.424   2.076   2.974
  943SOL    HW1  694   1.476   2.011   3.029
  943SOL    HW2  695   1.375   2.139   3.035
  944SOL     OW  696   1.001   1.896   3.016
  944SOL    HW1  697   0.938   1.824   2.985
  944SOL    HW2  698   1.094   1.860   3.016
  945SOL     OW  699   0.770   3.192   2.163
  945SOL    HW1  700   0.724   3.105   2.180
  945SOL    HW2  701   0.861   3.189   2.204
  947SOL     OW  702   1.352   1.914   2.030
  947SOL    HW1  703   1.387   1.873   1.946
  947SOL    HW2  704   1.262   1.876   2.050
  948SOL     OW  705   1.300   2.315   2.553
  948SOL    HW1  706   1.241   2.395   2.557
  948SOL    HW2  707   1.315   2.280   2.646
  949SOL     OW  708   1.593   2.083   2.744
  949SOL    HW1  709   1.509   2.082   2.798
  949SOL    HW2  710   1.595   2.166   2.688
  956SOL     OW  711   1.755   2.469   3.955
  956SOL    HW1  712   1.743   2.456   3.856
  956SOL    HW2  713   1.725   2.388   4.004
 1003SOL     OW  714   1.390   2.437   3.802
 1003SOL    HW1  715   1.336   2.416   3.883
 1003SOL    HW2  716   1.481   2.396   3.811
 1014SOL     OW  717   1.540   2.136   3.849
 1014SOL    HW1  718   1.479   2.061   3.872
 1014SOL    HW2  719   1.562   2.188   3.932
 1182SOL     OW  720   1.400   3.831   2.288
 1182SOL    HW1  721   1.376   3.794   2.198
 1182SOL    HW2  722   1.499   3.847   2.292
 1233SOL     OW  723   1.726   3.859   2.385
 1233SOL    HW1  724   1.799   3.842   2.318
 1233SOL    HW2  725   1.695   3.772   2.423
 1235SOL     OW  726   1.841   3.899   2.825
 1235SOL    HW1  727   1.880   3.814   2.789
 1235SOL    HW2  728   1.743   3.901   2.806
 1257SOL     OW  729   1.352   3.776   2.030
 1257SOL    HW1  730   1.387   3.735   1.946
 1257SOL    HW2  731   1.262   3.738   2.050
 1316SOL     OW  732   2.431   1.275   1.165
 1316SOL    HW1  733   2.338   1.268   1.128
 1316SOL    HW2  734   2.442   1.364   1.209
 1321SOL     OW  735   2.712   0.798   1.823
 1321SOL    HW1  736   2.708   0.874   1.888
 1321SOL    HW2  737   2.734   0.834   1.732
 1323SOL     OW  738   2.548   1.161   1.803
 1323SOL    HW1  739   2.608   1.240   1.817
 1323SOL    HW2  740   2.462   1.192   1.762
 1324SOL     OW  741   2.197   1.435   1.061
 1324SOL    HW1  742   2.119   1.404   1.008
 1324SOL    HW2  743   2.255   1.493   1.004
 1325SOL     OW  744   3.322   1.505   1.339
 1325SOL    HW1  745   3.346   1.599   1.365
 1325SOL    HW2  746   3.306   1.451   1.421
 1329SOL     OW  747   2.989   1.341   1.690
 1329SOL    HW1  748   3.036   1.341   1.778
 1329SOL    HW2  749   2.941   1.254   1.679
 1332SOL     OW  750   2.482   1.786   1.439
 1332SOL    HW1  751   2.390   1.769   1.474
 1332SOL    HW2  752   2.510   1.878   1.465
 1342SOL     OW  753   3.155   1.228   1.423
 1342SOL    HW1  754   3.192   1.155   1.365
 1342SOL    HW2  755   3.207   1.233   1.508
 1344SOL     OW  756   2.059   0.976   1.264
 1344SOL    HW1  757   2.148   0.931   1.250
 1344SOL    HW2  758   1.986   0.911   1.245
 1346SOL     OW  759   3.049   1.792   1.616
 1346SOL    HW1  760   3.073   1.852   1.540
 1346SOL    HW2  761   3.056   1.697   1.586
 1355SOL     OW  762   2.835   0.890   1.572
 1355SOL    HW1  763   2.881   0.806   1.543
 1355SOL    HW2  764   2.779   0.924   1.497
 1359SOL     OW  765   1.992   1.821   1.571
 1359SOL    HW1  766   1.982   1.806   1.670
 1359SOL    HW2  767   1.906   1.857   1.535
 1365SOL     OW  768   2.213   1.801   0.853
 1365SOL    HW1  769   2.263   1.715   0.859
 1365SOL    HW2  770   2.278   1.878   0.850
 1367SOL     OW  771   3.089   1.550   1.506
 1367SOL    HW1  772   3.095   1.473   1.570
 1367SOL    HW2  773   3.037   1.524   1.426
 1370SOL     OW  774   2.323   1.266   1.727
 1370SOL    HW1  775   2.273   1.267   1.641
 1370SOL    HW2  776   2.260   1.248   1.803
 1376SOL     OW  777   2.111   1.785   1.241
 1376SOL    HW1  778   2.168   1.720   1.291
 1376SOL    HW2  779   2.095   1.752   1.148
 1377SOL     OW  780   2.802   1.698   0.904
 1377SOL    HW1  781   2.882   1.641   0.925
 1377SOL    HW2  782   2.753   1.658   0.827
 1382SOL     OW  783   2.750   1.514   1.195
 1382SOL    HW1  784   2.727   1.489   1.101
 1382SOL    HW2  785   2.811   1.445   1.234
 1384SOL     OW  786   2.665   1.402   0.924
 1384SOL    HW1  787   2.755   1.416   0.882
 1384SOL    HW2  788   2.594   1.404   0.853
 1407SOL     OW  789   2.926   1.347   1.340
 1407SOL    HW1  790   2.846   1.324   1.395
 1407SOL    HW2  791   3.009   1.321   1.389
 1408SOL     OW  792   3.454   1.629   1.625
 1408SOL    HW1  793   3.481   1.663   1.535
 1408SOL    HW2  794   3.533   1.591   1.671
 1412SOL     OW  795   2.842   1.116   1.719
 1412SOL    HW1  796   2.743   1.122   1.729
 1412SOL    HW2  797   2.865   1.036   1.663
 1416SOL     OW  798   1.926   1.564   1.331
 1416SOL    HW1  799   1.880   1.646   1.297
 1416SOL    HW2  800   2.024   1.583   1.340
 1420SOL     OW  801   3.134   1.445   1.142
 1420SOL    HW1  802   3.181   1.458   1.229
 1420SOL    HW2  803   3.068   1.371   1.151
 1422SOL     OW  804   2.216   1.510   1.329
 1422SOL    HW1  805   2.195   1.466   1.242
 1422SOL    HW2  806   2.313   1.536   1.332
 1423SOL     OW  807   2.264   0.751   1.598
 1423SOL    HW1  808   2.332   0.806   1.551
 1423SOL    HW2  809   2.304   0.663   1.625
 1431SOL     OW  810   1.899   1.310   1.282
 1431SOL    HW1  811   1.952   1.261   1.350
 1431SOL    HW2  812   1.921   1.408   1.287
 1437SOL     OW  813   2.842   1.573   1.700
 1437SOL    HW1  814   2.822   1.617   1.612
 1437SOL    HW2  815   2.881   1.482   1.684
 1438SOL     OW  816   3.721   1.518   1.605
 1438SOL    HW1  817   3.735   1.545   1.510
 1438SOL    HW2  818   3.804   1.540   1.658
 1439SOL     OW  819   2.212   0.898   1.804
 1439SOL    HW1  820   2.288   0.942   1.852
 1439SOL    HW2  821   2.247   0.851   1.722
 1448SOL     OW  822   1.950   1.801   0.927
 1448SOL    HW1  823   1.908   1.715   0.900
 1448SOL    HW2  824   2.044   1.804   0.893
 1449SOL     OW  825   2.366   1.568   0.910
 1449SOL    HW1  826   2.432   1.642   0.919
 1449SOL    HW2  827   2.410   1.489   0.868
 1453SOL     OW  828   3.231   0.950   1.660
 1453SOL    HW1  829   3.270   1.039   1.680
 1453SOL    HW2  830   3.241   0.930   1.563
 1456SOL     OW  831   2.114   1.564   1.744
 1456SOL    HW1  832   2.084   1.621   1.820
 1456SOL    HW2  833   2.107   1.467   1.770
 1458SOL     OW  834   2.792   1.678   1.465
 1458SOL    HW1  835   2.768   1.660   1.370
 1458SOL    HW2  836   2.822   1.772   1.475
 1460SOL     OW  837   2.021   1.137   1.466
 1460SOL    HW1  838   2.043   1.076   1.542
 1460SOL    HW2  839   2.031   1.088   1.380
 1464SOL     OW  840   3.114   1.731   1.128
 1464SOL    HW1  841   3.198   1.736   1.074
 1464SOL    HW2  842   3.091   1.635   1.146
 1465SOL     OW  843   1.945   1.258   1.022
 1465SOL    HW1  844   1.940   1.257   1.122
 1465SOL    HW2  845   1.862   1.217   0.984
 1466SOL     OW  846   2.550   1.662   1.716
 1466SOL    HW1  847   2.494   1.743   1.725
 1466SOL    HW2  848   2.602   1.666   1.630
 1470SOL     OW  849   1.992   1.794   1.851
 1470SOL    HW1  850   1.951   1.720   1.904
 1470SOL    HW2  851   2.056   1.845   1.909
 1472SOL     OW  852   2.692   1.273   1.422
 1472SOL    HW1  853   2.687   1.306   1.517
 1472SOL    HW2  854   2.606   1.292   1.376
 1474SOL     OW  855   3.512   1.720   1.394
 1474SOL    HW1  856   3.565   1.730   1.310
 1474SOL    HW2  857   3.485   1.810   1.428
 1478SOL     OW  858   2.684   1.002   1.372
 1478SOL    HW1  859   2.724   1.001   1.280
 1478SOL    HW2  860   2.694   1.094   1.412
 1481SOL     OW  861   2.234   1.288   1.490
 1481SOL    HW1  862   2.221   1.381   1.456
 1481SOL    HW2  863   2.150   1.236   1.477
 1488SOL     OW  864   1.967   1.013   1.726
 1488SOL    HW1  865   1.890   0.980   1.780
 1488SOL    HW2  866   2.052   0.983   1.768
 1492SOL     OW  867   2.475   0.842   1.431
 1492SOL    HW1  868   2.531   0.923   1.414
 1492SOL    HW2  869   2.534   0.762   1.434
 1495SOL     OW  870   3.312   1.220   1.633
 1495SOL    HW1  871   3.303   1.210   1.732
 1495SOL    HW2  872   3.408   1.213   1.607
 1496SOL     OW  873   2.252   1.741   1.560
 1496SOL    HW1  874   2.161   1.782   1.558
 1496SOL    HW2  875   2.245   1.647   1.592
 1503SOL     OW  876   2.523   1.790   0.953
 1503SOL    HW1  877   2.477   1.878   0.940
 1503SOL    HW2  878   2.622   1.802   0.946
 1507SOL     OW  879   2.083   1.314   1.844
 1507SOL    HW1  880   2.018   1.241   1.823
 1507SOL    HW2  881   2.087   1.328   1.942
 1509SOL     OW  882   2.534   1.391   1.624
 1509SOL    HW1  883   2.456   1.341   1.662
 1509SOL    HW2  884   2.531   1.486   1.655
 1518SOL     OW  885   2.480   1.567   1.284
 1518SOL    HW1  886   2.475   1.649   1.341
 1518SOL    HW2  887   2.569   1.564   1.239
 1524SOL     OW  888   2.092   0.628   1.975
 1524SOL    HW1  889   1.999   0.626   2.012
 1524SOL    HW2  890   2.093   0.589   1.883
 1527SOL     OW  891   2.431   1.275   3.027
 1527SOL    HW1  892   2.338   1.268   2.990
 1527SOL    HW2  893   2.442   1.364   3.071
 1528SOL     OW  894   3.417   1.511   2.565
 1528SOL    HW1  895   3.360   1.495   2.646
 1528SOL    HW2  896   3.358   1.521   2.485
 1529SOL     OW  897   2.997   0.703   2.579
 1529SOL    HW1  898   3.054   0.781   2.554
 1529SOL    HW2  899   2.937   0.729   2.655
 1531SOL     OW  900   2.630   1.144   2.885
 1531SOL    HW1  901   2.552   1.161   2.945
 1531SOL    HW2  902   2.664   1.231   2.849
 1533SOL     OW  903   2.547   1.012   2.527
 1533SOL    HW1  904   2.616   0.996   2.597
 1533SOL    HW2  905   2.474   1.069   2.565
 1534SOL     OW  906   2.548   1.161   3.665
 1534SOL    HW1  907   2.608   1.240   3.679
 1534SOL    HW2  908   2.462   1.192   3.624
 1535SOL     OW  909   2.197   1.435   2.923
 1535SOL    HW1  910   2.119   1.404   2.870
 1535SOL    HW2  911   2.255   1.493   2.866
 1536SOL     OW  912   3.322   1.505   3.201
 1536SOL    HW1  913   3.346   1.599   3.227
 1536SOL    HW2  914   3.306   1.451   3.283
 1539SOL     OW  915   2.093   1.713   2.345
 1539SOL    HW1  916   2.127   1.790   2.399
 1539SOL    HW2  917   2.137   1.713   2.255
 1540SOL     OW  918   2.989   1.341   3.552
 1540SOL    HW1  919   3.036   1.341   3.640
 1540SOL    HW2  920   2.941   1.254   3.541
 1541SOL     OW  921   2.092   1.434   2.400
 1541SOL    HW1  922   2.066   1.530   2.400
 1541SOL    HW2  923   2.021   1.380   2.445
 1542SOL     OW  924   2.102   1.091   2.748
 1542SOL    HW1  925   2.116   1.007   2.800
 1542SOL    HW2  926   2.047   1.155   2.803
 1543SOL     OW  927   2.482   1.786   3.301
 1543SOL    HW1  928   2.390   1.769   3.336
 1543SOL    HW2  929   2.510   1.878   3.327
 1544SOL     OW  930   2.468   0.964   1.985
 1544SOL    HW1  931   2.475   1.048   1.931
 1544SOL    HW2  932   2.514   0.977   2.073
 1546SOL     OW  933   1.984   0.643   2.425
 1546SOL    HW1  934   1.939   0.555   2.442
 1546SOL    HW2  935   1.983   0.697   2.509
 1547SOL     OW  936   3.704   1.767   2.221
 1547SOL    HW1  937   3.758   1.738   2.301
 1547SOL    HW2  938   3.734   1.857   2.192
 1548SOL     OW  939   1.889   1.596   1.979
 1548SOL    HW1  940   1.870   1.500   2.000
 1548SOL    HW2  941   1.856   1.654   2.054
 1550SOL     OW  942   3.503   1.108   2.294
 1550SOL    HW1  943   3.589   1.110   2.242
 1550SOL    HW2  944   3.517   1.155   2.382
 1552SOL     OW  945   2.475   1.365   2.588
 1552SOL    HW1  946   2.426   1.278   2.597
 1552SOL    HW2  947   2.452   1.408   2.501
 1553SOL     OW  948   3.155   1.228   3.285
 1553SOL    HW1  949   3.192   1.155   3.227
 1553SOL    HW2  950   3.207   1.233   3.370
 1555SOL     OW  951   2.059   0.976   3.126
 1555SOL    HW1  952   2.148   0.931   3.112
 1555SOL    HW2  953   1.986   0.911   3.107
 1556SOL     OW  954   3.387   0.999   2.052
 1556SOL    HW1  955   3.324   0.923   2.065
 1556SOL    HW2  956   3.435   1.017   2.138
 1557SOL     OW  957   3.049   1.792   3.478
 1557SOL    HW1  958   3.073   1.852   3.402
 1557SOL    HW2  959   3.056   1.697   3.448
 1559SOL     OW  960   3.328   1.417   2.815
 1559SOL    HW1  961   3.269   1.423   2.895
 1559SOL    HW2  962   3.313   1.329   2.769
 1560SOL     OW  963   3.529   1.714   2.434
 1560SOL    HW1  964   3.488   1.691   2.346
 1560SOL    HW2  965   3.511   1.640   2.499
 1561SOL     OW  966   2.460   0.729   2.132
 1561SOL    HW1  967   2.484   0.798   2.064
 1561SOL    HW2  968   2.382   0.762   2.186
 1563SOL     OW  969   3.438   1.662   2.169
 1563SOL    HW1  970   3.527   1.708   2.172
 1563SOL    HW2  971   3.417   1.638   2.074
 1568SOL     OW  972   2.903   0.701   2.291
 1568SOL    HW1  973   2.929   0.697   2.387
 1568SOL    HW2  974   2.818   0.650   2.277
 1569SOL     OW  975   1.938   0.811   2.651
 1569SOL    HW1  976   2.037   0.799   2.660
 1569SOL    HW2  977   1.914   0.906   2.672
 1570SOL     OW  978   1.992   1.821   3.433
 1570SOL    HW1  979   1.982   1.806   3.532
 1570SOL    HW2  980   1.906   1.857   3.397
 1573SOL     OW  981   3.224   1.144   2.407
 1573SOL    HW1  982   3.307   1.115   2.359
 1573SOL    HW2  983   3.175   1.211   2.351
 1575SOL     OW  984   2.870   1.456   2.339
 1575SOL    HW1  985   2.824   1.528   2.287
 1575SOL    HW2  986   2.866   1.476   2.437
 1576SOL     OW  987   2.213   1.801   2.715
 1576SOL    HW1  988   2.263   1.715   2.721
 1576SOL    HW2  989   2.278   1.878   2.712
 1578SOL     OW  990   3.089   1.550   3.368
 1578SOL    HW1  991   3.095   1.473   3.432
 1578SOL    HW2  992   3.037   1.524   3.288
 1579SOL     OW  993   2.183   0.943   2.104
 1579SOL    HW1  994   2.265   0.982   2.062
 1579SOL    HW2  995   2.156   0.861   2.055
 1581SOL     OW  996   2.323   1.266   3.589
 1581SOL    HW1  997   2.273   1.267   3.503
 1581SOL    HW2  998   2.260   1.248   3.665
 1582SOL     OW  999   2.973   1.776   2.099
 1582SOL    HW1 1000   2.913   1.714   2.149
 1582SOL    HW2 1001   3.004   1.732   2.014
 1584SOL     OW 1002   3.494   1.377   1.943
 1584SOL    HW1 1003   3.462   1.471   1.933
 1584SOL    HW2 1004   3.418   1.314   1.931
 1585SOL     OW 1005   2.326   1.743   2.185
 1585SOL    HW1 1006   2.359   1.782   2.271
 1585SOL    HW2 1007   2.402   1.736   2.120
 1587SOL     OW 1008   2.111   1.785   3.103
 1587SOL    HW1 1009   2.168   1.720   3.153
 1587SOL    HW2 1010   2.095   1.752   3.010
 1588SOL     OW 1011   2.802   1.698   2.766
 1588SOL    HW1 1012   2.882   1.641   2.787
 1588SOL    HW2 1013   2.753   1.658   2.689
 1589SOL     OW 1014   2.244   0.700   2.342
 1589SOL    HW1 1015   2.289   0.610   2.339
 1589SOL    HW2 1016   2.150   0.689   2.375
 1593SOL     OW 1017   2.750   1.514   3.057
 1593SOL    HW1 1018   2.727   1.489   2.963
 1593SOL    HW2 1019   2.811   1.445   3.096
 1595SOL     OW 1020   2.665   1.402   2.786
 1595SOL    HW1 1021   2.755   1.416   2.744
 1595SOL    HW2 1022   2.594   1.404   2.715
 1598SOL     OW 1023   3.296   1.188   1.903
 1598SOL    HW1 1024   3.328   1.112   1.960
 1598SOL    HW2 1025   3.204   1.215   1.933
 1602SOL     OW 1026   3.089   1.570   2.655
 1602SOL    HW1 1027   3.110   1.644   2.590
 1602SOL    HW2 1028   3.157   1.570   2.728
 1603SOL     OW 1029   2.321   1.152   2.603
 1603SOL    HW1 1030   2.250   1.125   2.668
 1603SOL    HW2 1031   2.295   1.124   2.510
 1604SOL     OW 1032   3.133   1.797   2.453
 1604SOL    HW1 1033   3.177   1.861   2.389
 1604SOL    HW2 1034   3.083   1.849   2.523
 1610SOL     OW 1035   3.291   1.173   2.729
 1610SOL    HW1 1036   3.236   1.089   2.722
 1610SOL    HW2 1037   3.317   1.202   2.637
 1613SOL     OW 1038   2.350   1.385   2.036
 1613SOL    HW1 1039   2.263   1.370   2.083
 1613SOL    HW2 1040   2.333   1.411   1.941
 1614SOL     OW 1041   3.526   1.280   2.519
 1614SOL    HW1 1042   3.625   1.288   2.533
 1614SOL    HW2 1043   3.481   1.364   2.550
 1618SOL     OW 1044   2.926   1.347   3.202
 1618SOL    HW1 1045   2.846   1.324   3.257
 1618SOL    HW2 1046   3.009   1.321   3.251
 1619SOL     OW 1047   3.454   1.629   3.487
 1619SOL    HW1 1048   3.481   1.663   3.397
 1619SOL    HW2 1049   3.533   1.591   3.533
 1620SOL     OW 1050   2.973   1.195   2.962
 1620SOL    HW1 1051   2.933   1.239   3.043
 1620SOL    HW2 1052   2.932   1.232   2.879
 1624SOL     OW 1053   2.567   1.050   2.230
 1624SOL    HW1 1054   2.553   1.057   2.329
 1624SOL    HW2 1055   2.651   0.999   2.212
 1625SOL     OW 1056   2.272   0.813   3.113
 1625SOL    HW1 1057   2.358   0.825   3.163
 1625SOL    HW2 1058   2.230   0.726   3.140
 1627SOL     OW 1059   1.926   1.564   3.193
 1627SOL    HW1 1060   1.880   1.646   3.159
 1627SOL    HW2 1061   2.024   1.583   3.202
 1628SOL     OW 1062   2.229   1.100   2.363
 1628SOL    HW1 1063   2.222   1.183   2.307
 1628SOL    HW2 1064   2.233   1.020   2.303
 1630SOL     OW 1065   3.114   1.348   2.250
 1630SOL    HW1 1066   3.164   1.425   2.290
 1630SOL    HW2 1067   3.019   1.350   2.282
 1631SOL     OW 1068   3.134   1.445   3.004
 1631SOL    HW1 1069   3.181   1.458   3.091
 1631SOL    HW2 1070   3.068   1.371   3.013
 1633SOL     OW 1071   2.216   1.510   3.191
 1633SOL    HW1 1072   2.195   1.466   3.104
 1633SOL    HW2 1073   2.313   1.536   3.194
 1638SOL     OW 1074   2.435   0.870   2.891
 1638SOL    HW1 1075   2.479   0.959   2.882
 1638SOL    HW2 1076   2.372   0.870   2.968
 1642SOL     OW 1077   1.899   1.310   3.144
 1642SOL    HW1 1078   1.952   1.261   3.212
 1642SOL    HW2 1079   1.921   1.408   3.149
 1647SOL     OW 1080   2.885   0.766   2.828
 1647SOL    HW1 1081   2.900   0.787   2.924
 1647SOL    HW2 1082   2.855   0.671   2.819
 1648SOL     OW 1083   2.842   1.573   3.562
 1648SOL    HW1 1084   2.822   1.617   3.474
 1648SOL    HW2 1085   2.881   1.482   3.546
 1652SOL     OW 1086   3.165   0.838   1.904
 1652SOL    HW1 1087   3.199   0.745   1.919
 1652SOL    HW2 1088   3.183   0.865   1.809
 1653SOL     OW 1089   2.930   1.333   2.711
 1653SOL    HW1 1090   2.937   1.249   2.656
 1653SOL    HW2 1091   2.992   1.402   2.675
 1654SOL     OW 1092   2.181   0.810   2.811
 1654SOL    HW1 1093   2.274   0.846   2.816
 1654SOL    HW2 1094   2.175   0.725   2.863
 1658SOL     OW 1095   1.870   1.326   2.062
 1658SOL    HW1 1096   1.777   1.347   2.031
 1658SOL    HW2 1097   1.880   1.227   2.075
 1659SOL     OW 1098   1.950   1.801   2.789
 1659SOL    HW1 1099   1.908   1.715   2.762
 1659SOL    HW2 1100   2.044   1.804   2.755
 1660SOL     OW 1101   2.366   1.568   2.772
 1660SOL    HW1 1102   2.432   1.642   2.781
 1660SOL    HW2 1103   2.410   1.489   2.730
 1661SOL     OW 1104   2.864   0.796   3.100
 1661SOL    HW1 1105   2.905   0.764   3.186
 1661SOL    HW2 1106   2.768   0.769   3.097
 1667SOL     OW 1107   2.114   1.564   3.606
 1667SOL    HW1 1108   2.084   1.621   3.682
 1667SOL    HW2 1109   2.107   1.467   3.632
 1669SOL     OW 1110   2.792   1.678   3.327
 1669SOL    HW1 1111   2.768   1.660   3.232
 1669SOL    HW2 1112   2.822   1.772   3.337
 1671SOL     OW 1113   2.021   1.137   3.328
 1671SOL    HW1 1114   2.043   1.076   3.404
 1671SOL    HW2 1115   2.031   1.088   3.242
 1672SOL     OW 1116   3.209   1.059   3.096
 1672SOL    HW1 1117   3.233   0.996   3.022
 1672SOL    HW2 1118   3.119   1.099   3.078
 1673SOL     OW 1119   3.164   0.855   2.171
 1673SOL    HW1 1120   3.078   0.824   2.213
 1673SOL    HW2 1121   3.160   0.841   2.072
 1674SOL     OW 1122   3.621   1.747   3.016
 1674SOL    HW1 1123   3.682   1.777   2.943
 1674SOL    HW2 1124   3.583   1.658   2.994
 1675SOL     OW 1125   3.114   1.731   2.990
 1675SOL    HW1 1126   3.198   1.736   2.936
 1675SOL    HW2 1127   3.091   1.635   3.008
 1676SOL     OW 1128   1.945   1.258   2.884
 1676SOL    HW1 1129   1.940   1.257   2.984
 1676SOL    HW2 1130   1.862   1.217   2.846
 1677SOL     OW 1131   2.550   1.662   3.578
 1677SOL    HW1 1132   2.494   1.743   3.587
 1677SOL    HW2 1133   2.602   1.666   3.492
 1679SOL     OW 1134   3.250   1.573   2.339
 1679SOL    HW1 1135   3.317   1.585   2.265
 1679SOL    HW2 1136   3.210   1.662   2.362
 1680SOL     OW 1137   1.992   1.794   3.713
 1680SOL    HW1 1138   1.951   1.720   3.766
 1680SOL    HW2 1139   2.056   1.845   3.771
 1681SOL     OW 1140   3.142   0.927   2.534
 1681SOL    HW1 1141   3.202   0.846   2.536
 1681SOL    HW2 1142   3.182   0.996   2.474
 1682SOL     OW 1143   2.692   1.273   3.284
 1682SOL    HW1 1144   2.687   1.306   3.379
 1682SOL    HW2 1145   2.606   1.292   3.238
 1683SOL     OW 1146   2.534   1.616   2.016
 1683SOL    HW1 1147   2.543   1.626   1.917
 1683SOL    HW2 1148   2.494   1.527   2.037
 1684SOL     OW 1149   3.512   1.720   3.256
 1684SOL    HW1 1150   3.565   1.730   3.172
 1684SOL    HW2 1151   3.485   1.810   3.290
 1687SOL     OW 1152   3.056   1.612   1.893
 1687SOL    HW1 1153   3.062   1.519   1.930
 1687SOL    HW2 1154   2.997   1.612   1.813
 1688SOL     OW 1155   2.684   1.002   3.234
 1688SOL    HW1 1156   2.724   1.001   3.142
 1688SOL    HW2 1157   2.694   1.094   3.274
 1689SOL     OW 1158   2.778   0.910   2.153
 1689SOL    HW1 1159   2.841   0.948   2.085
 1689SOL    HW2 1160   2.818   0.827   2.192
 1690SOL     OW 1161   3.366   1.607   1.906
 1690SOL    HW1 1162   3.274   1.644   1.913
 1690SOL    HW2 1163   3.404   1.627   1.816
 1691SOL     OW 1164   2.234   1.288   3.352
 1691SOL    HW1 1165   2.221   1.381   3.318
 1691SOL    HW2 1166   2.150   1.236   3.339
 1692SOL     OW 1167   3.476   1.292   3.151
 1692SOL    HW1 1168   3.536   1.295   3.231
 1692SOL    HW2 1169   3.401   1.356   3.164
 1693SOL     OW 1170   2.901   1.098   2.558
 1693SOL    HW1 1171   2.831   1.051   2.612
 1693SOL    HW2 1172   2.960   1.030   2.515
 1695SOL     OW 1173   2.452   1.487   2.353
 1695SOL    HW1 1174   2.494   1.429   2.283
 1695SOL    HW2 1175   2.408   1.566   2.309
 1697SOL     OW 1176   2.117   1.348   2.152
 1697SOL    HW1 1177   2.021   1.349   2.125
 1697SOL    HW2 1178   2.129   1.401   2.236
 1703SOL     OW 1179   3.045   1.335   1.981
 1703SOL    HW1 1180   2.946   1.324   1.983
 1703SOL    HW2 1181   3.079   1.350   2.074
 1704SOL     OW 1182   2.475   0.842   3.293
 1704SOL    HW1 1183   2.531   0.923   3.276
 1704SOL    HW2 1184   2.534   0.762   3.296
 1705SOL     OW 1185   3.355   1.767   2.821
 1705SOL    HW1 1186   3.388   1.831   2.752
 1705SOL    HW2 1187   3.421   1.761   2.896
 1708SOL     OW 1188   2.252   1.741   3.422
 1708SOL    HW1 1189   2.161   1.782   3.420
 1708SOL    HW2 1190   2.245   1.647   3.454
 1711SOL     OW 1191   2.456   0.745   2.514
 1711SOL    HW1 1192   2.506   0.830   2.495
 1711SOL    HW2 1193   2.368   0.747   2.466
 1714SOL     OW 1194   2.721   1.374   1.878
 1714SOL    HW1 1195   2.675   1.389   1.966
 1714SOL    HW2 1196   2.765   1.459   1.848
 1715SOL     OW 1197   2.523   1.790   2.815
 1715SOL    HW1 1198   2.477   1.878   2.802
 1715SOL    HW2 1199   2.622   1.802   2.808
 1716SOL     OW 1200   2.721   0.956   2.723
 1716SOL    HW1 1201   2.775   0.887   2.771
 1716SOL    HW2 1202   2.689   1.025   2.789
 1717SOL     OW 1203   2.945   0.984   1.949
 1717SOL    HW1 1204   2.922   1.037   1.867
 1717SOL    HW2 1205   3.026   0.928   1.930
 1718SOL     OW 1206   3.723   1.569   2.713
 1718SOL    HW1 1207   3.652   1.557   2.643
 1718SOL    HW2 1208   3.724   1.490   2.773
 1719SOL     OW 1209   2.083   1.314   3.706
 1719SOL    HW1 1210   2.018   1.241   3.685
 1719SOL    HW2 1211   2.087   1.328   3.804
 1720SOL     OW 1212   1.941   1.240   2.515
 1720SOL    HW1 1213   1.940   1.193   2.603
 1720SOL    HW2 1214   2.023   1.212   2.464
 1721SOL     OW 1215   2.534   1.391   3.486
 1721SOL    HW1 1216   2.456   1.341   3.524
 1721SOL    HW2 1217   2.531   1.486   3.517
 1724SOL     OW 1218   3.567   1.487   2.966
 1724SOL    HW1 1219   3.474   1.462   2.939
 1724SOL    HW2 1220   3.593   1.437   3.048
 1726SOL     OW 1221   2.674   1.586   2.549
 1726SOL    HW1 1222   2.706   1.596   2.455
 1726SOL    HW2 1223   2.595   1.524   2.551
 1729SOL     OW 1224   2.632   1.330   2.163
 1729SOL    HW1 1225   2.586   1.243   2.180
 1729SOL    HW2 1226   2.723   1.327   2.204
 1730SOL     OW 1227   2.480   1.567   3.146
 1730SOL    HW1 1228   2.475   1.649   3.203
 1730SOL    HW2 1229   2.569   1.564   3.101
 1734SOL     OW 1230   1.901   1.077   2.162
 1734SOL    HW1 1231   2.000   1.066   2.153
 1734SOL    HW2 1232   1.861   0.991   2.194
 1735SOL     OW 1233   2.737   1.646   2.199
 1735SOL    HW1 1234   2.660   1.611   2.145
 1735SOL    HW2 1235   2.705   1.717   2.261
 1750SOL     OW 1236   1.889   1.596   3.841
 1750SOL    HW1 1237   1.870   1.500   3.862
 1750SOL    HW2 1238   1.856   1.654   3.916
 1810SOL     OW 1239   2.534   1.616   3.878
 1810SOL    HW1 1240   2.543   1.626   3.779
 1810SOL    HW2 1241   2.494   1.527   3.899
 1813SOL     OW 1242   3.056   1.612   3.755
 1813SOL    HW1 1243   3.062   1.519   3.792
 1813SOL    HW2 1244   2.997   1.612   3.675
 1824SOL     OW 1245   2.721   1.374   3.740
 1824SOL    HW1 1246   2.675   1.389   3.828
 1824SOL    HW2 1247   2.765   1.459   3.710
 1839SOL     OW 1248   2.087   2.137   0.996
 1839SOL    HW1 1249   2.122   2.120   1.088
 1839SOL    HW2 1250   1.999   2.092   0.984
 1840SOL     OW 1251   1.881   2.230   0.647
 1840SOL    HW1 1252   1.799   2.273   0.686
 1840SOL    HW2 1253   1.853   2.157   0.584
 1841SOL     OW 1254   2.431   3.137   1.165
 1841SOL    HW1 1255   2.338   3.130   1.128
 1841SOL    HW2 1256   2.442   3.226   1.209
 1843SOL     OW 1257   2.997   2.565   0.717
 1843SOL    HW1 1258   3.054   2.643   0.692
 1843SOL    HW2 1259   2.937   2.591   0.793
 1845SOL     OW 1260   2.630   3.006   1.023
 1845SOL    HW1 1261   2.552   3.023   1.083
 1845SOL    HW2 1262   2.664   3.093   0.987
 1846SOL     OW 1263   2.712   2.660   1.823
 1846SOL    HW1 1264   2.708   2.736   1.888
 1846SOL    HW2 1265   2.734   2.696   1.732
 1847SOL     OW 1266   2.547   2.874   0.665
 1847SOL    HW1 1267   2.616   2.858   0.735
 1847SOL    HW2 1268   2.474   2.931   0.703
 1848SOL     OW 1269   2.548   3.023   1.803
 1848SOL    HW1 1270   2.608   3.102   1.817
 1848SOL    HW2 1271   2.462   3.054   1.762
 1849SOL     OW 1272   2.197   3.297   1.061
 1849SOL    HW1 1273   2.119   3.266   1.008
 1849SOL    HW2 1274   2.255   3.355   1.004
 1850SOL     OW 1275   3.322   3.367   1.339
 1850SOL    HW1 1276   3.346   3.461   1.365
 1850SOL    HW2 1277   3.306   3.313   1.421
 1851SOL     OW 1278   2.300   2.254   1.499
 1851SOL    HW1 1279   2.382   2.198   1.508
 1851SOL    HW2 1280   2.219   2.196   1.503
 1854SOL     OW 1281   2.989   3.203   1.690
 1854SOL    HW1 1282   3.036   3.203   1.778
 1854SOL    HW2 1283   2.941   3.116   1.679
 1856SOL     OW 1284   2.102   2.953   0.886
 1856SOL    HW1 1285   2.116   2.869   0.938
 1856SOL    HW2 1286   2.047   3.017   0.941
 1857SOL     OW 1287   2.482   3.648   1.439
 1857SOL    HW1 1288   2.390   3.631   1.474
 1857SOL    HW2 1289   2.510   3.740   1.465
 1859SOL     OW 1290   3.456   1.976   1.480
 1859SOL    HW1 1291   3.438   2.043   1.408
 1859SOL    HW2 1292   3.453   2.022   1.569
 1865SOL     OW 1293   1.975   2.599   1.597
 1865SOL    HW1 1294   2.063   2.586   1.642
 1865SOL    HW2 1295   1.962   2.696   1.575
 1867SOL     OW 1296   3.155   3.090   1.423
 1867SOL    HW1 1297   3.192   3.017   1.365
 1867SOL    HW2 1298   3.207   3.095   1.508
 1869SOL     OW 1299   2.059   2.838   1.264
 1869SOL    HW1 1300   2.148   2.793   1.250
 1869SOL    HW2 1301   1.986   2.773   1.245
 1871SOL     OW 1302   3.049   3.654   1.616
 1871SOL    HW1 1303   3.073   3.714   1.540
 1871SOL    HW2 1304   3.056   3.559   1.586
 1872SOL     OW 1305   2.179   2.113   1.801
 1872SOL    HW1 1306   2.250   2.184   1.807
 1872SOL    HW2 1307   2.091   2.152   1.829
 1876SOL     OW 1308   3.143   2.207   0.944
 1876SOL    HW1 1309   3.057   2.157   0.931
 1876SOL    HW2 1310   3.205   2.153   1.000
 1878SOL     OW 1311   2.669   2.467   1.465
 1878SOL    HW1 1312   2.622   2.464   1.554
 1878SOL    HW2 1313   2.618   2.412   1.399
 1879SOL     OW 1314   3.256   2.331   1.674
 1879SOL    HW1 1315   3.236   2.374   1.762
 1879SOL    HW2 1316   3.334   2.269   1.683
 1880SOL     OW 1317   2.835   2.752   1.572
 1880SOL    HW1 1318   2.881   2.668   1.543
 1880SOL    HW2 1319   2.779   2.786   1.497
 1881SOL     OW 1320   2.853   2.272   1.242
 1881SOL    HW1 1321   2.776   2.306   1.296
 1881SOL    HW2 1322   2.819   2.221   1.163
 1883SOL     OW 1323   1.938   2.673   0.789
 1883SOL    HW1 1324   2.037   2.661   0.798
 1883SOL    HW2 1325   1.914   2.768   0.810
 1884SOL     OW 1326   1.992   3.683   1.571
 1884SOL    HW1 1327   1.982   3.668   1.670
 1884SOL    HW2 1328   1.906   3.719   1.535
 1886SOL     OW 1329   3.581   2.447   1.831
 1886SOL    HW1 1330   3.555   2.536   1.795
 1886SOL    HW2 1331   3.579   2.379   1.758
 1888SOL     OW 1332   2.412   2.058   0.885
 1888SOL    HW1 1333   2.407   2.053   0.985
 1888SOL    HW2 1334   2.414   2.154   0.856
 1892SOL     OW 1335   3.089   3.412   1.506
 1892SOL    HW1 1336   3.095   3.335   1.570
 1892SOL    HW2 1337   3.037   3.386   1.426
 1895SOL     OW 1338   2.323   3.128   1.727
 1895SOL    HW1 1339   2.273   3.129   1.641
 1895SOL    HW2 1340   2.260   3.110   1.803
 1897SOL     OW 1341   2.064   2.147   1.498
 1897SOL    HW1 1342   1.984   2.207   1.485
 1897SOL    HW2 1343   2.054   2.098   1.584
 1901SOL     OW 1344   2.111   3.647   1.241
 1901SOL    HW1 1345   2.168   3.582   1.291
 1901SOL    HW2 1346   2.095   3.614   1.148
 1904SOL     OW 1347   3.409   2.084   1.729
 1904SOL    HW1 1348   3.404   2.121   1.821
 1904SOL    HW2 1349   3.337   2.015   1.717
 1905SOL     OW 1350   2.643   2.126   1.749
 1905SOL    HW1 1351   2.710   2.065   1.792
 1905SOL    HW2 1352   2.570   2.145   1.814
 1906SOL     OW 1353   2.750   3.376   1.195
 1906SOL    HW1 1354   2.727   3.351   1.101
 1906SOL    HW2 1355   2.811   3.307   1.234
 1907SOL     OW 1356   3.213   2.452   1.433
 1907SOL    HW1 1357   3.241   2.409   1.518
 1907SOL    HW2 1358   3.238   2.548   1.434
 1908SOL     OW 1359   2.665   3.264   0.924
 1908SOL    HW1 1360   2.755   3.278   0.882
 1908SOL    HW2 1361   2.594   3.266   0.853
 1909SOL     OW 1362   2.784   2.365   0.899
 1909SOL    HW1 1363   2.759   2.356   0.803
 1909SOL    HW2 1364   2.832   2.283   0.930
 1914SOL     OW 1365   2.938   2.545   1.464
 1914SOL    HW1 1366   2.858   2.484   1.467
 1914SOL    HW2 1367   3.019   2.492   1.440
 1916SOL     OW 1368   2.321   3.014   0.741
 1916SOL    HW1 1369   2.250   2.987   0.806
 1916SOL    HW2 1370   2.295   2.986   0.648
 1919SOL     OW 1371   1.940   2.418   1.386
 1919SOL    HW1 1372   2.032   2.417   1.345
 1919SOL    HW2 1373   1.934   2.492   1.453
 1920SOL     OW 1374   2.423   2.084   1.147
 1920SOL    HW1 1375   2.461   2.000   1.184
 1920SOL    HW2 1376   2.335   2.103   1.191
 1921SOL     OW 1377   2.728   2.316   0.642
 1921SOL    HW1 1378   2.696   2.388   0.580
 1921SOL    HW2 1379   2.752   2.235   0.589
 1922SOL     OW 1380   2.879   1.901   0.753
 1922SOL    HW1 1381   2.807   1.906   0.684
 1922SOL    HW2 1382   2.855   1.832   0.822
 1924SOL     OW 1383   3.328   2.452   0.992
 1924SOL    HW1 1384   3.298   2.357   0.999
 1924SOL    HW2 1385   3.401   2.468   1.058
 1930SOL     OW 1386   3.616   3.085   1.588
 1930SOL    HW1 1387   3.707   3.046   1.575
 1930SOL    HW2 1388   3.624   3.181   1.612
 1931SOL     OW 1389   2.926   3.209   1.340
 1931SOL    HW1 1390   2.846   3.186   1.395
 1931SOL    HW2 1391   3.009   3.183   1.389
 1932SOL     OW 1392   3.454   3.491   1.625
 1932SOL    HW1 1393   3.481   3.525   1.535
 1932SOL    HW2 1394   3.533   3.453   1.671
 1933SOL     OW 1395   2.973   3.057   1.100
 1933SOL    HW1 1396   2.933   3.101   1.181
 1933SOL    HW2 1397   2.932   3.094   1.017
 1935SOL     OW 1398   2.777   1.951   1.402
 1935SOL    HW1 1399   2.802   1.931   1.307
 1935SOL    HW2 1400   2.849   2.007   1.444
 1936SOL     OW 1401   2.842   2.978   1.719
 1936SOL    HW1 1402   2.743   2.984   1.729
 1936SOL    HW2 1403   2.865   2.898   1.663
 1938SOL     OW 1404   2.272   2.675   1.251
 1938SOL    HW1 1405   2.358   2.687   1.301
 1938SOL    HW2 1406   2.230   2.588   1.278
 1939SOL     OW 1407   3.136   2.248   1.262
 1939SOL    HW1 1408   3.157   2.322   1.326
 1939SOL    HW2 1409   3.047   2.265   1.219
 1940SOL     OW 1410   1.926   3.426   1.331
 1940SOL    HW1 1411   1.880   3.508   1.297
 1940SOL    HW2 1412   2.024   3.445   1.340
 1942SOL     OW 1413   2.428   2.399   0.865
 1942SOL    HW1 1414   2.440   2.465   0.791
 1942SOL    HW2 1415   2.474   2.433   0.948
 1944SOL     OW 1416   3.134   3.307   1.142
 1944SOL    HW1 1417   3.181   3.320   1.229
 1944SOL    HW2 1418   3.068   3.233   1.151
 1946SOL     OW 1419   2.216   3.372   1.329
 1946SOL    HW1 1420   2.195   3.328   1.242
 1946SOL    HW2 1421   2.313   3.398   1.332
 1947SOL     OW 1422   2.264   2.613   1.598
 1947SOL    HW1 1423   2.332   2.668   1.551
 1947SOL    HW2 1424   2.304   2.525   1.625
 1948SOL     OW 1425   3.449   2.641   1.670
 1948SOL    HW1 1426   3.357   2.679   1.665
 1948SOL    HW2 1427   3.509   2.688   1.605
 1949SOL     OW 1428   2.875   1.967   1.770
 1949SOL    HW1 1429   2.881   2.052   1.718
 1949SOL    HW2 1430   2.907   1.891   1.713
 1950SOL     OW 1431   2.366   1.912   1.740
 1950SOL    HW1 1432   2.324   1.855   1.670
 1950SOL    HW2 1433   2.300   1.981   1.772
 1951SOL     OW 1434   2.435   2.732   1.029
 1951SOL    HW1 1435   2.479   2.821   1.020
 1951SOL    HW2 1436   2.372   2.732   1.106
 1952SOL     OW 1437   3.222   2.724   1.045
 1952SOL    HW1 1438   3.147   2.724   0.979
 1952SOL    HW2 1439   3.259   2.632   1.054
 1954SOL     OW 1440   2.169   2.075   1.231
 1954SOL    HW1 1441   2.146   2.112   1.321
 1954SOL    HW2 1442   2.139   1.980   1.225
 1955SOL     OW 1443   1.899   3.172   1.282
 1955SOL    HW1 1444   1.952   3.123   1.350
 1955SOL    HW2 1445   1.921   3.270   1.287
 1956SOL     OW 1446   2.594   2.496   1.064
 1956SOL    HW1 1447   2.653   2.470   0.988
 1956SOL    HW2 1448   2.566   2.592   1.053
 1957SOL     OW 1449   3.590   2.797   1.854
 1957SOL    HW1 1450   3.544   2.790   1.765
 1957SOL    HW2 1451   3.528   2.841   1.920
 1958SOL     OW 1452   2.169   1.925   0.618
 1958SOL    HW1 1453   2.158   2.019   0.651
 1958SOL    HW2 1454   2.164   1.862   0.695
 1960SOL     OW 1455   2.885   2.628   0.966
 1960SOL    HW1 1456   2.900   2.649   1.062
 1960SOL    HW2 1457   2.855   2.533   0.957
 1961SOL     OW 1458   2.842   3.435   1.700
 1961SOL    HW1 1459   2.822   3.479   1.612
 1961SOL    HW2 1460   2.881   3.344   1.684
 1963SOL     OW 1461   2.212   2.760   1.804
 1963SOL    HW1 1462   2.288   2.804   1.852
 1963SOL    HW2 1463   2.247   2.713   1.722
 1967SOL     OW 1464   2.181   2.672   0.949
 1967SOL    HW1 1465   2.274   2.708   0.954
 1967SOL    HW2 1466   2.175   2.587   1.001
 1968SOL     OW 1467   2.201   2.371   1.006
 1968SOL    HW1 1468   2.149   2.288   0.989
 1968SOL    HW2 1469   2.278   2.376   0.942
 1969SOL     OW 1470   3.000   2.242   1.678
 1969SOL    HW1 1471   2.955   2.305   1.742
 1969SOL    HW2 1472   3.093   2.273   1.661
 1970SOL     OW 1473   3.022   2.069   1.477
 1970SOL    HW1 1474   3.022   2.133   1.554
 1970SOL    HW2 1475   3.050   2.117   1.394
 1973SOL     OW 1476   2.366   3.430   0.910
 1973SOL    HW1 1477   2.432   3.504   0.919
 1973SOL    HW2 1478   2.410   3.351   0.868
 1974SOL     OW 1479   2.864   2.658   1.238
 1974SOL    HW1 1480   2.905   2.626   1.324
 1974SOL    HW2 1481   2.768   2.631   1.235
 1975SOL     OW 1482   1.902   2.406   1.114
 1975SOL    HW1 1483   1.987   2.373   1.073
 1975SOL    HW2 1484   1.915   2.421   1.212
 1976SOL     OW 1485   2.051   2.382   1.722
 1976SOL    HW1 1486   2.110   2.342   1.652
 1976SOL    HW2 1487   1.993   2.453   1.681
 1977SOL     OW 1488   3.231   2.812   1.660
 1977SOL    HW1 1489   3.270   2.901   1.680
 1977SOL    HW2 1490   3.241   2.792   1.563
 1979SOL     OW 1491   3.519   2.466   1.206
 1979SOL    HW1 1492   3.481   2.397   1.268
 1979SOL    HW2 1493   3.601   2.430   1.162
 1980SOL     OW 1494   2.114   3.426   1.744
 1980SOL    HW1 1495   2.084   3.483   1.820
 1980SOL    HW2 1496   2.107   3.329   1.770
 1981SOL     OW 1497   2.533   2.326   1.269
 1981SOL    HW1 1498   2.499   2.237   1.239
 1981SOL    HW2 1499   2.559   2.380   1.189
 1982SOL     OW 1500   2.792   3.540   1.465
 1982SOL    HW1 1501   2.768   3.522   1.370
 1982SOL    HW2 1502   2.822   3.634   1.475
 1984SOL     OW 1503   2.021   2.999   1.466
 1984SOL    HW1 1504   2.043   2.938   1.542
 1984SOL    HW2 1505   2.031   2.950   1.380
 1985SOL     OW 1506   3.209   2.921   1.234
 1985SOL    HW1 1507   3.233   2.858   1.160
 1985SOL    HW2 1508   3.119   2.961   1.216
 1989SOL     OW 1509   1.945   3.120   1.022
 1989SOL    HW1 1510   1.940   3.119   1.122
 1989SOL    HW2 1511   1.862   3.079   0.984
 1990SOL     OW 1512   2.550   3.524   1.716
 1990SOL    HW1 1513   2.494   3.605   1.725
 1990SOL    HW2 1514   2.602   3.528   1.630
 1994SOL     OW 1515   1.992   3.656   1.851
 1994SOL    HW1 1516   1.951   3.582   1.904
 1994SOL    HW2 1517   2.056   3.707   1.909
 1996SOL     OW 1518   2.692   3.135   1.422
 1996SOL    HW1 1519   2.687   3.168   1.517
 1996SOL    HW2 1520   2.606   3.154   1.376
 2000SOL     OW 1521   2.125   2.188   0.720
 2000SOL    HW1 1522   2.046   2.239   0.686
 2000SOL    HW2 1523   2.116   2.173   0.818
 2002SOL     OW 1524   2.684   2.864   1.372
 2002SOL    HW1 1525   2.724   2.863   1.280
 2002SOL    HW2 1526   2.694   2.956   1.412
 2005SOL     OW 1527   2.234   3.150   1.490
 2005SOL    HW1 1528   2.221   3.243   1.456
 2005SOL    HW2 1529   2.150   3.098   1.477
 2006SOL     OW 1530   3.476   3.154   1.289
 2006SOL    HW1 1531   3.536   3.157   1.369
 2006SOL    HW2 1532   3.401   3.218   1.302
 2008SOL     OW 1533   2.876   2.098   0.971
 2008SOL    HW1 1534   2.868   2.062   0.878
 2008SOL    HW2 1535   2.874   2.022   1.036
 2010SOL     OW 1536   3.571   2.247   1.381
 2010SOL    HW1 1537   3.644   2.316   1.385
 2010SOL    HW2 1538   3.599   2.172   1.322
 2012SOL     OW 1539   1.967   2.875   1.726
 2012SOL    HW1 1540   1.890   2.842   1.780
 2012SOL    HW2 1541   2.052   2.845   1.768
 2013SOL     OW 1542   2.534   2.065   1.489
 2013SOL    HW1 1543   2.624   2.049   1.449
 2013SOL    HW2 1544   2.542   2.070   1.588
 2014SOL     OW 1545   3.302   2.718   1.398
 2014SOL    HW1 1546   3.245   2.770   1.335
 2014SOL    HW2 1547   3.398   2.730   1.374
 2017SOL     OW 1548   2.475   2.704   1.431
 2017SOL    HW1 1549   2.531   2.785   1.414
 2017SOL    HW2 1550   2.534   2.624   1.434
 2019SOL     OW 1551   2.578   2.427   1.708
 2019SOL    HW1 1552   2.597   2.492   1.782
 2019SOL    HW2 1553   2.638   2.347   1.717
 2020SOL     OW 1554   3.312   3.082   1.633
 2020SOL    HW1 1555   3.303   3.072   1.732
 2020SOL    HW2 1556   3.408   3.075   1.607
 2021SOL     OW 1557   2.252   3.603   1.560
 2021SOL    HW1 1558   2.161   3.644   1.558
 2021SOL    HW2 1559   2.245   3.509   1.592
 2022SOL     OW 1560   3.536   2.745   1.254
 2022SOL    HW1 1561   3.509   2.656   1.217
 2022SOL    HW2 1562   3.537   2.813   1.181
 2024SOL     OW 1563   2.456   2.607   0.652
 2024SOL    HW1 1564   2.506   2.692   0.633
 2024SOL    HW2 1565   2.368   2.609   0.604
 2025SOL     OW 1566   3.639   2.204   1.642
 2025SOL    HW1 1567   3.622   2.235   1.548
 2025SOL    HW2 1568   3.555   2.167   1.680
 2026SOL     OW 1569   3.592   2.796   1.517
 2026SOL    HW1 1570   3.630   2.887   1.532
 2026SOL    HW2 1571   3.584   2.779   1.418
 2029SOL     OW 1572   2.721   2.818   0.861
 2029SOL    HW1 1573   2.775   2.749   0.909
 2029SOL    HW2 1574   2.689   2.887   0.927
 2032SOL     OW 1575   2.083   3.176   1.844
 2032SOL    HW1 1576   2.018   3.103   1.823
 2032SOL    HW2 1577   2.087   3.190   1.942
 2034SOL     OW 1578   2.534   3.253   1.624
 2034SOL    HW1 1579   2.456   3.203   1.662
 2034SOL    HW2 1580   2.531   3.348   1.655
 2035SOL     OW 1581   3.686   2.054   1.227
 2035SOL    HW1 1582   3.682   1.964   1.271
 2035SOL    HW2 1583   3.689   2.043   1.128
 2038SOL     OW 1584   2.179   2.409   1.280
 2038SOL    HW1 1585   2.217   2.350   1.352
 2038SOL    HW2 1586   2.219   2.383   1.192
 2040SOL     OW 1587   3.286   2.076   1.112
 2040SOL    HW1 1588   3.338   2.011   1.167
 2040SOL    HW2 1589   3.237   2.139   1.173
 2041SOL     OW 1590   2.863   1.896   1.154
 2041SOL    HW1 1591   2.800   1.824   1.123
 2041SOL    HW2 1592   2.956   1.860   1.154
 2043SOL     OW 1593   2.480   3.429   1.284
 2043SOL    HW1 1594   2.475   3.511   1.341
 2043SOL    HW2 1595   2.569   3.426   1.239
 2049SOL     OW 1596   2.092   2.490   1.975
 2049SOL    HW1 1597   1.999   2.488   2.012
 2049SOL    HW2 1598   2.093   2.451   1.883
 2050SOL     OW 1599   2.087   2.137   2.858
 2050SOL    HW1 1600   2.122   2.120   2.950
 2050SOL    HW2 1601   1.999   2.092   2.846
 2051SOL     OW 1602   1.881   2.230   2.509
 2051SOL    HW1 1603   1.799   2.273   2.548
 2051SOL    HW2 1604   1.853   2.157   2.446
 2052SOL     OW 1605   2.431   3.137   3.027
 2052SOL    HW1 1606   2.338   3.130   2.990
 2052SOL    HW2 1607   2.442   3.226   3.071
 2053SOL     OW 1608   3.417   3.373   2.565
 2053SOL    HW1 1609   3.360   3.357   2.646
 2053SOL    HW2 1610   3.358   3.383   2.485
 2054SOL     OW 1611   2.997   2.565   2.579
 2054SOL    HW1 1612   3.054   2.643   2.554
 2054SOL    HW2 1613   2.937   2.591   2.655
 2055SOL     OW 1614   3.617   2.469   2.093
 2055SOL    HW1 1615   3.605   2.456   1.994
 2055SOL    HW2 1616   3.587   2.388   2.142
 2056SOL     OW 1617   2.630   3.006   2.885
 2056SOL    HW1 1618   2.552   3.023   2.945
 2056SOL    HW2 1619   2.664   3.093   2.849
 2057SOL     OW 1620   2.712   2.660   3.685
 2057SOL    HW1 1621   2.708   2.736   3.750
 2057SOL    HW2 1622   2.734   2.696   3.594
 2058SOL     OW 1623   2.547   2.874   2.527
 2058SOL    HW1 1624   2.616   2.858   2.597
 2058SOL    HW2 1625   2.474   2.931   2.565
 2059SOL     OW 1626   2.548   3.023   3.665
 2059SOL    HW1 1627   2.608   3.102   3.679
 2059SOL    HW2 1628   2.462   3.054   3.624
 2060SOL     OW 1629   2.197   3.297   2.923
 2060SOL    HW1 1630   2.119   3.266   2.870
 2060SOL    HW2 1631   2.255   3.355   2.866
 2061SOL     OW 1632   3.322   3.367   3.201
 2061SOL    HW1 1633   3.346   3.461   3.227
 2061SOL    HW2 1634   3.306   3.313   3.283
 2062SOL     OW 1635   2.300   2.254   3.361
 2062SOL    HW1 1636   2.382   2.198   3.370
 2062SOL    HW2 1637   2.219   2.196   3.365
 2063SOL     OW 1638   3.465   2.309   2.599
 2063SOL    HW1 1639   3.391   2.355   2.549
 2063SOL    HW2 1640   3.516   2.377   2.652
 2064SOL     OW 1641   2.093   3.575   2.345
 2064SOL    HW1 1642   2.127   3.652   2.399
 2064SOL    HW2 1643   2.137   3.575   2.255
 2065SOL     OW 1644   2.989   3.203   3.552
 2065SOL    HW1 1645   3.036   3.203   3.640
 2065SOL    HW2 1646   2.941   3.116   3.541
 2066SOL     OW 1647   2.092   3.296   2.400
 2066SOL    HW1 1648   2.066   3.392   2.400
 2066SOL    HW2 1649   2.021   3.242   2.445
 2067SOL     OW 1650   2.102   2.953   2.748
 2067SOL    HW1 1651   2.116   2.869   2.800
 2067SOL    HW2 1652   2.047   3.017   2.803
 2068SOL     OW 1653   2.482   3.648   3.301
 2068SOL    HW1 1654   2.390   3.631   3.336
 2068SOL    HW2 1655   2.510   3.740   3.327
 2069SOL     OW 1656   2.468   2.826   1.985
 2069SOL    HW1 1657   2.475   2.910   1.931
 2069SOL    HW2 1658   2.514   2.839   2.073
 2070SOL     OW 1659   3.456   1.976   3.342
 2070SOL    HW1 1660   3.438   2.043   3.270
 2070SOL    HW2 1661   3.453   2.022   3.431
 2071SOL     OW 1662   1.984   2.505   2.425
 2071SOL    HW1 1663   1.939   2.417   2.442
 2071SOL    HW2 1664   1.983   2.559   2.509
 2073SOL     OW 1665   1.889   3.458   1.979
 2073SOL    HW1 1666   1.870   3.362   2.000
 2073SOL    HW2 1667   1.856   3.516   2.054
 2074SOL     OW 1668   3.551   2.784   2.474
 2074SOL    HW1 1669   3.646   2.755   2.482
 2074SOL    HW2 1670   3.543   2.849   2.399
 2075SOL     OW 1671   3.503   2.970   2.294
 2075SOL    HW1 1672   3.589   2.972   2.242
 2075SOL    HW2 1673   3.517   3.017   2.382
 2076SOL     OW 1674   1.975   2.599   3.459
 2076SOL    HW1 1675   2.063   2.586   3.504
 2076SOL    HW2 1676   1.962   2.696   3.437
 2077SOL     OW 1677   2.475   3.227   2.588
 2077SOL    HW1 1678   2.426   3.140   2.597
 2077SOL    HW2 1679   2.452   3.270   2.501
 2078SOL     OW 1680   3.155   3.090   3.285
 2078SOL    HW1 1681   3.192   3.017   3.227
 2078SOL    HW2 1682   3.207   3.095   3.370
 2079SOL     OW 1683   2.671   1.866   2.364
 2079SOL    HW1 1684   2.711   1.957   2.355
 2079SOL    HW2 1685   2.571   1.874   2.370
 2080SOL     OW 1686   2.059   2.838   3.126
 2080SOL    HW1 1687   2.148   2.793   3.112
 2080SOL    HW2 1688   1.986   2.773   3.107
 2081SOL     OW 1689   3.387   2.861   2.052
 2081SOL    HW1 1690   3.324   2.785   2.065
 2081SOL    HW2 1691   3.435   2.879   2.138
 2083SOL     OW 1692   2.179   2.113   3.663
 2083SOL    HW1 1693   2.250   2.184   3.669
 2083SOL    HW2 1694   2.091   2.152   3.691
 2084SOL     OW 1695   3.328   3.279   2.815
 2084SOL    HW1 1696   3.269   3.285   2.895
 2084SOL    HW2 1697   3.313   3.191   2.769
 2085SOL     OW 1698   3.529   3.576   2.434
 2085SOL    HW1 1699   3.488   3.553   2.346
 2085SOL    HW2 1700   3.511   3.502   2.499
 2086SOL     OW 1701   3.143   2.207   2.806
 2086SOL    HW1 1702   3.057   2.157   2.793
 2086SOL    HW2 1703   3.205   2.153   2.862
 2087SOL     OW 1704   3.438   3.524   2.169
 2087SOL    HW1 1705   3.527   3.570   2.172
 2087SOL    HW2 1706   3.417   3.500   2.074
 2088SOL     OW 1707   2.669   2.467   3.327
 2088SOL    HW1 1708   2.622   2.464   3.416
 2088SOL    HW2 1709   2.618   2.412   3.261
 2089SOL     OW 1710   3.256   2.331   3.536
 2089SOL    HW1 1711   3.236   2.374   3.624
 2089SOL    HW2 1712   3.334   2.269   3.545
 2090SOL     OW 1713   2.835   2.752   3.434
 2090SOL    HW1 1714   2.881   2.668   3.405
 2090SOL    HW2 1715   2.779   2.786   3.359
 2091SOL     OW 1716   2.853   2.272   3.104
 2091SOL    HW1 1717   2.776   2.306   3.158
 2091SOL    HW2 1718   2.819   2.221   3.025
 2092SOL     OW 1719   2.903   2.563   2.291
 2092SOL    HW1 1720   2.929   2.559   2.387
 2092SOL    HW2 1721   2.818   2.512   2.277
 2093SOL     OW 1722   1.938   2.673   2.651
 2093SOL    HW1 1723   2.037   2.661   2.660
 2093SOL    HW2 1724   1.914   2.768   2.672
 2094SOL     OW 1725   1.992   3.683   3.433
 2094SOL    HW1 1726   1.982   3.668   3.532
 2094SOL    HW2 1727   1.906   3.719   3.397
 2095SOL     OW 1728   2.727   2.210   2.057
 2095SOL    HW1 1729   2.786   2.273   2.008
 2095SOL    HW2 1730   2.746   2.116   2.028
 2097SOL     OW 1731   3.224   3.006   2.407
 2097SOL    HW1 1732   3.307   2.977   2.359
 2097SOL    HW2 1733   3.175   3.073   2.351
 2098SOL     OW 1734   2.412   2.058   2.747
 2098SOL    HW1 1735   2.407   2.053   2.847
 2098SOL    HW2 1736   2.414   2.154   2.718
 2099SOL     OW 1737   2.870   3.318   2.339
 2099SOL    HW1 1738   2.824   3.390   2.287
 2099SOL    HW2 1739   2.866   3.338   2.437
 2100SOL     OW 1740   2.213   3.663   2.715
 2100SOL    HW1 1741   2.263   3.577   2.721
 2100SOL    HW2 1742   2.278   3.740   2.712
 2101SOL     OW 1743   3.657   2.928   2.735
 2101SOL    HW1 1744   3.595   2.913   2.659
 2101SOL    HW2 1745   3.605   2.939   2.820
 2102SOL     OW 1746   3.089   3.412   3.368
 2102SOL    HW1 1747   3.095   3.335   3.432
 2102SOL    HW2 1748   3.037   3.386   3.288
 2103SOL     OW 1749   2.183   2.805   2.104
 2103SOL    HW1 1750   2.265   2.844   2.062
 2103SOL    HW2 1751   2.156   2.723   2.055
 2104SOL     OW 1752   3.320   2.597   2.590
 2104SOL    HW1 1753   3.315   2.532   2.665
 2104SOL    HW2 1754   3.400   2.656   2.603
 2105SOL     OW 1755   2.323   3.128   3.589
 2105SOL    HW1 1756   2.273   3.129   3.503
 2105SOL    HW2 1757   2.260   3.110   3.665
 2106SOL     OW 1758   2.973   3.638   2.099
 2106SOL    HW1 1759   2.913   3.576   2.149
 2106SOL    HW2 1760   3.004   3.594   2.014
 2107SOL     OW 1761   2.064   2.147   3.360
 2107SOL    HW1 1762   1.984   2.207   3.347
 2107SOL    HW2 1763   2.054   2.098   3.446
 2108SOL     OW 1764   3.494   3.239   1.943
 2108SOL    HW1 1765   3.462   3.333   1.933
 2108SOL    HW2 1766   3.418   3.176   1.931
 2109SOL     OW 1767   2.326   3.605   2.185
 2109SOL    HW1 1768   2.359   3.644   2.271
 2109SOL    HW2 1769   2.402   3.598   2.120
 2110SOL     OW 1770   3.262   1.969   2.288
 2110SOL    HW1 1771   3.238   1.932   2.198
 2110SOL    HW2 1772   3.361   1.985   2.292
 2111SOL     OW 1773   2.111   3.647   3.103
 2111SOL    HW1 1774   2.168   3.582   3.153
 2111SOL    HW2 1775   2.095   3.614   3.010
 2112SOL     OW 1776   2.802   3.560   2.766
 2112SOL    HW1 1777   2.882   3.503   2.787
 2112SOL    HW2 1778   2.753   3.520   2.689
 2113SOL     OW 1779   3.409   2.084   3.591
 2113SOL    HW1 1780   3.404   2.121   3.683
 2113SOL    HW2 1781   3.337   2.015   3.579
 2114SOL     OW 1782   2.476   1.984   1.979
 2114SOL    HW1 1783   2.574   1.962   1.986
 2114SOL    HW2 1784   2.445   1.967   1.886
 2115SOL     OW 1785   2.643   2.126   3.611
 2115SOL    HW1 1786   2.710   2.065   3.654
 2115SOL    HW2 1787   2.570   2.145   3.676
 2116SOL     OW 1788   2.750   3.376   3.057
 2116SOL    HW1 1789   2.727   3.351   2.963
 2116SOL    HW2 1790   2.811   3.307   3.096
 2117SOL     OW 1791   3.213   2.452   3.295
 2117SOL    HW1 1792   3.241   2.409   3.380
 2117SOL    HW2 1793   3.238   2.548   3.296
 2118SOL     OW 1794   2.665   3.264   2.786
 2118SOL    HW1 1795   2.755   3.278   2.744
 2118SOL    HW2 1796   2.594   3.266   2.715
 2119SOL     OW 1797   2.784   2.365   2.761
 2119SOL    HW1 1798   2.759   2.356   2.665
 2119SOL    HW2 1799   2.832   2.283   2.792
 2120SOL     OW 1800   2.401   1.926   2.374
 2120SOL    HW1 1801   2.320   1.927   2.432
 2120SOL    HW2 1802   2.404   2.009   2.319
 2121SOL     OW 1803   3.296   3.050   1.903
 2121SOL    HW1 1804   3.328   2.974   1.960
 2121SOL    HW2 1805   3.204   3.077   1.933
 2122SOL     OW 1806   2.159   1.897   2.033
 2122SOL    HW1 1807   2.208   1.981   2.012
 2122SOL    HW2 1808   2.221   1.832   2.078
 2123SOL     OW 1809   2.797   2.098   2.342
 2123SOL    HW1 1810   2.749   2.139   2.264
 2123SOL    HW2 1811   2.896   2.096   2.323
 2124SOL     OW 1812   2.938   2.545   3.326
 2124SOL    HW1 1813   2.858   2.484   3.329
 2124SOL    HW2 1814   3.019   2.492   3.302
 2125SOL     OW 1815   3.089   3.432   2.655
 2125SOL    HW1 1816   3.110   3.506   2.590
 2125SOL    HW2 1817   3.157   3.432   2.728
 2126SOL     OW 1818   2.321   3.014   2.603
 2126SOL    HW1 1819   2.250   2.987   2.668
 2126SOL    HW2 1820   2.295   2.986   2.510
 2127SOL     OW 1821   3.133   3.659   2.453
 2127SOL    HW1 1822   3.177   3.723   2.389
 2127SOL    HW2 1823   3.083   3.711   2.523
 2128SOL     OW 1824   2.894   2.411   1.878
 2128SOL    HW1 1825   2.853   2.493   1.839
 2128SOL    HW2 1826   2.958   2.437   1.951
 2129SOL     OW 1827   1.940   2.418   3.248
 2129SOL    HW1 1828   2.032   2.417   3.207
 2129SOL    HW2 1829   1.934   2.492   3.315
 2130SOL     OW 1830   2.423   2.084   3.009
 2130SOL    HW1 1831   2.461   2.000   3.046
 2130SOL    HW2 1832   2.335   2.103   3.053
 2131SOL     OW 1833   2.879   1.901   2.615
 2131SOL    HW1 1834   2.807   1.906   2.546
 2131SOL    HW2 1835   2.855   1.832   2.684
 2132SOL     OW 1836   3.291   3.035   2.729
 2132SOL    HW1 1837   3.236   2.951   2.722
 2132SOL    HW2 1838   3.317   3.064   2.637
 2133SOL     OW 1839   3.328   2.452   2.854
 2133SOL    HW1 1840   3.298   2.357   2.861
 2133SOL    HW2 1841   3.401   2.468   2.920
 2134SOL     OW 1842   3.719   2.695   2.239
 2134SOL    HW1 1843   3.761   2.631   2.303
 2134SOL    HW2 1844   3.681   2.644   2.161
 2135SOL     OW 1845   2.350   3.247   2.036
 2135SOL    HW1 1846   2.263   3.232   2.083
 2135SOL    HW2 1847   2.333   3.273   1.941
 2136SOL     OW 1848   3.526   3.142   2.519
 2136SOL    HW1 1849   3.625   3.150   2.533
 2136SOL    HW2 1850   3.481   3.226   2.550
 2137SOL     OW 1851   3.252   2.437   1.940
 2137SOL    HW1 1852   3.198   2.416   2.021
 2137SOL    HW2 1853   3.343   2.396   1.949
 2138SOL     OW 1854   2.389   2.118   2.190
 2138SOL    HW1 1855   2.416   2.059   2.115
 2138SOL    HW2 1856   2.389   2.213   2.159
 2140SOL     OW 1857   2.926   3.209   3.202
 2140SOL    HW1 1858   2.846   3.186   3.257
 2140SOL    HW2 1859   3.009   3.183   3.251
 2142SOL     OW 1860   2.973   3.057   2.962
 2142SOL    HW1 1861   2.933   3.101   3.043
 2142SOL    HW2 1862   2.932   3.094   2.879
 2143SOL     OW 1863   3.500   2.961   2.941
 2143SOL    HW1 1864   3.505   3.042   3.000
 2143SOL    HW2 1865   3.414   2.963   2.890
 2144SOL     OW 1866   2.777   1.951   3.264
 2144SOL    HW1 1867   2.802   1.931   3.169
 2144SOL    HW2 1868   2.849   2.007   3.306
 2145SOL     OW 1869   2.842   2.978   3.581
 2145SOL    HW1 1870   2.743   2.984   3.591
 2145SOL    HW2 1871   2.865   2.898   3.525
 2146SOL     OW 1872   2.567   2.912   2.230
 2146SOL    HW1 1873   2.553   2.919   2.329
 2146SOL    HW2 1874   2.651   2.861   2.212
 2147SOL     OW 1875   2.272   2.675   3.113
 2147SOL    HW1 1876   2.358   2.687   3.163
 2147SOL    HW2 1877   2.230   2.588   3.140
 2148SOL     OW 1878   3.136   2.248   3.124
 2148SOL    HW1 1879   3.157   2.322   3.188
 2148SOL    HW2 1880   3.047   2.265   3.081
 2149SOL     OW 1881   1.926   3.426   3.193
 2149SOL    HW1 1882   1.880   3.508   3.159
 2149SOL    HW2 1883   2.024   3.445   3.202
 2150SOL     OW 1884   2.229   2.962   2.363
 2150SOL    HW1 1885   2.222   3.045   2.307
 2150SOL    HW2 1886   2.233   2.882   2.303
 2151SOL     OW 1887   2.428   2.399   2.727
 2151SOL    HW1 1888   2.440   2.465   2.653
 2151SOL    HW2 1889   2.474   2.433   2.810
 2152SOL     OW 1890   3.114   3.210   2.250
 2152SOL    HW1 1891   3.164   3.287   2.290
 2152SOL    HW2 1892   3.019   3.212   2.282
 2153SOL     OW 1893   3.134   3.307   3.004
 2153SOL    HW1 1894   3.181   3.320   3.091
 2153SOL    HW2 1895   3.068   3.233   3.013
 2154SOL     OW 1896   3.444   2.501   2.334
 2154SOL    HW1 1897   3.413   2.562   2.407
 2154SOL    HW2 1898   3.494   2.553   2.265
 2155SOL     OW 1899   2.216   3.372   3.191
 2155SOL    HW1 1900   2.195   3.328   3.104
 2155SOL    HW2 1901   2.313   3.398   3.194
 2156SOL     OW 1902   2.264   2.613   3.460
 2156SOL    HW1 1903   2.332   2.668   3.413
 2156SOL    HW2 1904   2.304   2.525   3.487
 2157SOL     OW 1905   3.449   2.641   3.532
 2157SOL    HW1 1906   3.357   2.679   3.527
 2157SOL    HW2 1907   3.509   2.688   3.467
 2158SOL     OW 1908   2.875   1.967   3.632
 2158SOL    HW1 1909   2.881   2.052   3.580
 2158SOL    HW2 1910   2.907   1.891   3.575
 2159SOL     OW 1911   2.366   1.912   3.602
 2159SOL    HW1 1912   2.324   1.855   3.532
 2159SOL    HW2 1913   2.300   1.981   3.634
 2160SOL     OW 1914   2.435   2.732   2.891
 2160SOL    HW1 1915   2.479   2.821   2.882
 2160SOL    HW2 1916   2.372   2.732   2.968
 2161SOL     OW 1917   3.222   2.724   2.907
 2161SOL    HW1 1918   3.147   2.724   2.841
 2161SOL    HW2 1919   3.259   2.632   2.916
 2162SOL     OW 1920   3.071   2.387   2.137
 2162SOL    HW1 1921   3.084   2.303   2.191
 2162SOL    HW2 1922   3.042   2.461   2.197
 2163SOL     OW 1923   2.169   2.075   3.093
 2163SOL    HW1 1924   2.146   2.112   3.183
 2163SOL    HW2 1925   2.139   1.980   3.087
 2164SOL     OW 1926   1.899   3.172   3.144
 2164SOL    HW1 1927   1.952   3.123   3.212
 2164SOL    HW2 1928   1.921   3.270   3.149
 2165SOL     OW 1929   2.594   2.496   2.926
 2165SOL    HW1 1930   2.653   2.470   2.850
 2165SOL    HW2 1931   2.566   2.592   2.915
 2167SOL     OW 1932   2.169   1.925   2.480
 2167SOL    HW1 1933   2.158   2.019   2.513
 2167SOL    HW2 1934   2.164   1.862   2.557
 2168SOL     OW 1935   3.484   2.229   2.236
 2168SOL    HW1 1936   3.486   2.153   2.300
 2168SOL    HW2 1937   3.436   2.306   2.276
 2169SOL     OW 1938   2.885   2.628   2.828
 2169SOL    HW1 1939   2.900   2.649   2.924
 2169SOL    HW2 1940   2.855   2.533   2.819
 2170SOL     OW 1941   2.842   3.435   3.562
 2170SOL    HW1 1942   2.822   3.479   3.474
 2170SOL    HW2 1943   2.881   3.344   3.546
 2172SOL     OW 1944   2.212   2.760   3.666
 2172SOL    HW1 1945   2.288   2.804   3.714
 2172SOL    HW2 1946   2.247   2.713   3.584
 2173SOL     OW 1947   3.402   2.136   1.987
 2173SOL    HW1 1948   3.341   2.061   2.010
 2173SOL    HW2 1949   3.424   2.188   2.070
 2174SOL     OW 1950   3.165   2.700   1.904
 2174SOL    HW1 1951   3.199   2.607   1.919
 2174SOL    HW2 1952   3.183   2.727   1.809
 2175SOL     OW 1953   2.930   3.195   2.711
 2175SOL    HW1 1954   2.937   3.111   2.656
 2175SOL    HW2 1955   2.992   3.264   2.675
 2176SOL     OW 1956   2.181   2.672   2.811
 2176SOL    HW1 1957   2.274   2.708   2.816
 2176SOL    HW2 1958   2.175   2.587   2.863
 2177SOL     OW 1959   2.201   2.371   2.868
 2177SOL    HW1 1960   2.149   2.288   2.851
 2177SOL    HW2 1961   2.278   2.376   2.804
 2178SOL     OW 1962   3.000   2.242   3.540
 2178SOL    HW1 1963   2.955   2.305   3.604
 2178SOL    HW2 1964   3.093   2.273   3.523
 2179SOL     OW 1965   3.022   2.069   3.339
 2179SOL    HW1 1966   3.022   2.133   3.416
 2179SOL    HW2 1967   3.050   2.117   3.256
 2180SOL     OW 1968   1.870   3.188   2.062
 2180SOL    HW1 1969   1.777   3.209   2.031
 2180SOL    HW2 1970   1.880   3.089   2.075
 2181SOL     OW 1971   1.950   3.663   2.789
 2181SOL    HW1 1972   1.908   3.577   2.762
 2181SOL    HW2 1973   2.044   3.666   2.755
 2182SOL     OW 1974   2.366   3.430   2.772
 2182SOL    HW1 1975   2.432   3.504   2.781
 2182SOL    HW2 1976   2.410   3.351   2.730
 2183SOL     OW 1977   2.864   2.658   3.100
 2183SOL    HW1 1978   2.905   2.626   3.186
 2183SOL    HW2 1979   2.768   2.631   3.097
 2184SOL     OW 1980   1.902   2.406   2.976
 2184SOL    HW1 1981   1.987   2.373   2.935
 2184SOL    HW2 1982   1.915   2.421   3.074
 2185SOL     OW 1983   2.051   2.382   3.584
 2185SOL    HW1 1984   2.110   2.342   3.514
 2185SOL    HW2 1985   1.993   2.453   3.543
 2186SOL     OW 1986   3.231   2.812   3.522
 2186SOL    HW1 1987   3.270   2.901   3.542
 2186SOL    HW2 1988   3.241   2.792   3.425
 2187SOL     OW 1989   3.519   2.466   3.068
 2187SOL    HW1 1990   3.481   2.397   3.130
 2187SOL    HW2 1991   3.601   2.430   3.024
 2188SOL     OW 1992   2.114   3.426   3.606
 2188SOL    HW1 1993   2.084   3.483   3.682
 2188SOL    HW2 1994   2.107   3.329   3.632
 2189SOL     OW 1995   2.533   2.326   3.131
 2189SOL    HW1 1996   2.499   2.237   3.101
 2189SOL    HW2 1997   2.559   2.380   3.051
 2190SOL     OW 1998   2.792   3.540   3.327
 2190SOL    HW1 1999   2.768   3.522   3.232
 2190SOL    HW2 2000   2.822   3.634   3.337
 2191SOL     OW 2001   2.021   2.999   3.328
 2191SOL    HW1 2002   2.043   2.938   3.404
 2191SOL    HW2 2003   2.031   2.950   3.242
 2192SOL     OW 2004   3.209   2.921   3.096
 2192SOL    HW1 2005   3.233   2.858   3.022
 2192SOL    HW2 2006   3.119   2.961   3.078
 2193SOL     OW 2007   3.164   2.717   2.171
 2193SOL    HW1 2008   3.078   2.686   2.213
 2193SOL    HW2 2009   3.160   2.703   2.072
 2195SOL     OW 2010   3.114   3.593   2.990
 2195SOL    HW1 2011   3.198   3.598   2.936
 2195SOL    HW2 2012   3.091   3.497   3.008
 2196SOL     OW 2013   1.945   3.120   2.884
 2196SOL    HW1 2014   1.940   3.119   2.984
 2196SOL    HW2 2015   1.862   3.079   2.846
 2197SOL     OW 2016   2.550   3.524   3.578
 2197SOL    HW1 2017   2.494   3.605   3.587
 2197SOL    HW2 2018   2.602   3.528   3.492
 2198SOL     OW 2019   3.588   1.997   2.385
 2198SOL    HW1 2020   3.661   1.980   2.318
 2198SOL    HW2 2021   3.557   1.910   2.423
 2199SOL     OW 2022   3.250   3.435   2.339
 2199SOL    HW1 2023   3.317   3.447   2.265
 2199SOL    HW2 2024   3.210   3.524   2.362
 2201SOL     OW 2025   3.142   2.789   2.534
 2201SOL    HW1 2026   3.202   2.708   2.536
 2201SOL    HW2 2027   3.182   2.858   2.474
 2202SOL     OW 2028   2.692   3.135   3.284
 2202SOL    HW1 2029   2.687   3.168   3.379
 2202SOL    HW2 2030   2.606   3.154   3.238
 2203SOL     OW 2031   2.534   3.478   2.016
 2203SOL    HW1 2032   2.543   3.488   1.917
 2203SOL    HW2 2033   2.494   3.389   2.037
 2205SOL     OW 2034   3.703   2.037   2.825
 2205SOL    HW1 2035   3.742   1.952   2.789
 2205SOL    HW2 2036   3.605   2.039   2.806
 2206SOL     OW 2037   2.125   2.188   2.582
 2206SOL    HW1 2038   2.046   2.239   2.548
 2206SOL    HW2 2039   2.116   2.173   2.680
 2207SOL     OW 2040   3.056   3.474   1.893
 2207SOL    HW1 2041   3.062   3.381   1.930
 2207SOL    HW2 2042   2.997   3.474   1.813
 2208SOL     OW 2043   2.684   2.864   3.234
 2208SOL    HW1 2044   2.724   2.863   3.142
 2208SOL    HW2 2045   2.694   2.956   3.274
 2209SOL     OW 2046   2.778   2.772   2.153
 2209SOL    HW1 2047   2.841   2.810   2.085
 2209SOL    HW2 2048   2.818   2.689   2.192
 2210SOL     OW 2049   3.366   3.469   1.906
 2210SOL    HW1 2050   3.274   3.506   1.913
 2210SOL    HW2 2051   3.404   3.489   1.816
 2211SOL     OW 2052   2.234   3.150   3.352
 2211SOL    HW1 2053   2.221   3.243   3.318
 2211SOL    HW2 2054   2.150   3.098   3.339
 2212SOL     OW 2055   3.476   3.154   3.151
 2212SOL    HW1 2056   3.536   3.157   3.231
 2212SOL    HW2 2057   3.401   3.218   3.164
 2213SOL     OW 2058   2.901   2.960   2.558
 2213SOL    HW1 2059   2.831   2.913   2.612
 2213SOL    HW2 2060   2.960   2.892   2.515
 2214SOL     OW 2061   2.876   2.098   2.833
 2214SOL    HW1 2062   2.868   2.062   2.740
 2214SOL    HW2 2063   2.874   2.022   2.898
 2215SOL     OW 2064   2.452   3.349   2.353
 2215SOL    HW1 2065   2.494   3.291   2.283
 2215SOL    HW2 2066   2.408   3.428   2.309
 2216SOL     OW 2067   3.571   2.247   3.243
 2216SOL    HW1 2068   3.644   2.316   3.247
 2216SOL    HW2 2069   3.599   2.172   3.184
 2217SOL     OW 2070   2.117   3.210   2.152
 2217SOL    HW1 2071   2.021   3.211   2.125
 2217SOL    HW2 2072   2.129   3.263   2.236
 2218SOL     OW 2073   1.967   2.875   3.588
 2218SOL    HW1 2074   1.890   2.842   3.642
 2218SOL    HW2 2075   2.052   2.845   3.630
 2219SOL     OW 2076   2.534   2.065   3.351
 2219SOL    HW1 2077   2.624   2.049   3.311
 2219SOL    HW2 2078   2.542   2.070   3.450
 2220SOL     OW 2079   1.937   2.207   1.895
 2220SOL    HW1 2080   1.845   2.179   1.866
 2220SOL    HW2 2081   1.968   2.284   1.839
 2221SOL     OW 2082   3.302   2.718   3.260
 2221SOL    HW1 2083   3.245   2.770   3.197
 2221SOL    HW2 2084   3.398   2.730   3.236
 2222SOL     OW 2085   1.934   2.028   2.180
 2222SOL    HW1 2086   1.917   2.111   2.126
 2222SOL    HW2 2087   2.024   1.991   2.158
 2223SOL     OW 2088   3.045   3.197   1.981
 2223SOL    HW1 2089   2.946   3.186   1.983
 2223SOL    HW2 2090   3.079   3.212   2.074
 2224SOL     OW 2091   2.475   2.704   3.293
 2224SOL    HW1 2092   2.531   2.785   3.276
 2224SOL    HW2 2093   2.534   2.624   3.296
 2225SOL     OW 2094   3.355   3.629   2.821
 2225SOL    HW1 2095   3.388   3.693   2.752
 2225SOL    HW2 2096   3.421   3.623   2.896
 2226SOL     OW 2097   2.578   2.427   3.570
 2226SOL    HW1 2098   2.597   2.492   3.644
 2226SOL    HW2 2099   2.638   2.347   3.579
 2227SOL     OW 2100   3.312   3.082   3.495
 2227SOL    HW1 2101   3.303   3.072   3.594
 2227SOL    HW2 2102   3.408   3.075   3.469
 2228SOL     OW 2103   2.252   3.603   3.422
 2228SOL    HW1 2104   2.161   3.644   3.420
 2228SOL    HW2 2105   2.245   3.509   3.454
 2229SOL     OW 2106   3.536   2.745   3.116
 2229SOL    HW1 2107   3.509   2.656   3.079
 2229SOL    HW2 2108   3.537   2.813   3.043
 2230SOL     OW 2109   3.087   2.187   2.311
 2230SOL    HW1 2110   3.152   2.113   2.300
 2230SOL    HW2 2111   3.107   2.237   2.395
 2231SOL     OW 2112   2.456   2.607   2.514
 2231SOL    HW1 2113   2.506   2.692   2.495
 2231SOL    HW2 2114   2.368   2.609   2.466
 2232SOL     OW 2115   3.639   2.204   3.504
 2232SOL    HW1 2116   3.622   2.235   3.410
 2232SOL    HW2 2117   3.555   2.167   3.542
 2233SOL     OW 2118   3.592   2.796   3.379
 2233SOL    HW1 2119   3.630   2.887   3.394
 2233SOL    HW2 2120   3.584   2.779   3.280
 2234SOL     OW 2121   2.721   3.236   1.878
 2234SOL    HW1 2122   2.675   3.251   1.966
 2234SOL    HW2 2123   2.765   3.321   1.848
 2235SOL     OW 2124   2.523   3.652   2.815
 2235SOL    HW1 2125   2.477   3.740   2.802
 2235SOL    HW2 2126   2.622   3.664   2.808
 2236SOL     OW 2127   2.721   2.818   2.723
 2236SOL    HW1 2128   2.775   2.749   2.771
 2236SOL    HW2 2129   2.689   2.887   2.789
 2237SOL     OW 2130   2.945   2.846   1.949
 2237SOL    HW1 2131   2.922   2.899   1.867
 2237SOL    HW2 2132   3.026   2.790   1.930
 2239SOL     OW 2133   2.083   3.176   3.706
 2239SOL    HW1 2134   2.018   3.103   3.685
 2239SOL    HW2 2135   2.087   3.190   3.804
 2240SOL     OW 2136   1.941   3.102   2.515
 2240SOL    HW1 2137   1.940   3.055   2.603
 2240SOL    HW2 2138   2.023   3.074   2.464
 2241SOL     OW 2139   2.534   3.253   3.486
 2241SOL    HW1 2140   2.456   3.203   3.524
 2241SOL    HW2 2141   2.531   3.348   3.517
 2242SOL     OW 2142   3.686   2.054   3.089
 2242SOL    HW1 2143   3.682   1.964   3.133
 2242SOL    HW2 2144   3.689   2.043   2.990
 2243SOL     OW 2145   3.567   3.349   2.966
 2243SOL    HW1 2146   3.474   3.324   2.939
 2243SOL    HW2 2147   3.593   3.299   3.048
 2244SOL     OW 2148   2.179   2.409   3.142
 2244SOL    HW1 2149   2.217   2.350   3.214
 2244SOL    HW2 2150   2.219   2.383   3.054
 2245SOL     OW 2151   2.674   3.448   2.549
 2245SOL    HW1 2152   2.706   3.458   2.455
 2245SOL    HW2 2153   2.595   3.386   2.551
 2246SOL     OW 2154   3.286   2.076   2.974
 2246SOL    HW1 2155   3.338   2.011   3.029
 2246SOL    HW2 2156   3.237   2.139   3.035
 2247SOL     OW 2157   2.863   1.896   3.016
 2247SOL    HW1 2158   2.800   1.824   2.985
 2247SOL    HW2 2159   2.956   1.860   3.016
 2248SOL     OW 2160   2.632   3.192   2.163
 2248SOL    HW1 2161   2.586   3.105   2.180
 2248SOL    HW2 2162   2.723   3.189   2.204
 2249SOL     OW 2163   2.480   3.429   3.146
 2249SOL    HW1 2164   2.475   3.511   3.203
 2249SOL    HW2 2165   2.569   3.426   3.101
 2250SOL     OW 2166   3.214   1.914   2.030
 2250SOL    HW1 2167   3.249   1.873   1.946
 2250SOL    HW2 2168   3.124   1.876   2.050
 2251SOL     OW 2169   3.162   2.315   2.553
 2251SOL    HW1 2170   3.103   2.395   2.557
 2251SOL    HW2 2171   3.177   2.280   2.646
 2252SOL     OW 2172   3.455   2.083   2.744
 2252SOL    HW1 2173   3.371   2.082   2.798
 2252SOL    HW2 2174   3.457   2.166   2.688
 2253SOL     OW 2175   1.901   2.939   2.162
 2253SOL    HW1 2176   2.000   2.928   2.153
 2253SOL    HW2 2177   1.861   2.853   2.194
 2254SOL     OW 2178   2.737   3.508   2.199
 2254SOL    HW1 2179   2.660   3.473   2.145
 2254SOL    HW2 2180   2.705   3.579   2.261
 2255SOL     OW 2181   2.092   2.490   3.837
 2255SOL    HW1 2182   1.999   2.488   3.874
 2255SOL    HW2 2183   2.093   2.451   3.745
 2266SOL     OW 2184   2.468   2.826   3.847
 2266SOL    HW1 2185   2.475   2.910   3.793
 2266SOL    HW2 2186   2.514   2.839   3.935
 2276SOL     OW 2187   2.460   2.591   3.994
 2276SOL    HW1 2188   2.484   2.660   3.926
 2276SOL    HW2 2189   2.382   2.624   4.048
 2281SOL     OW 2190   2.727   2.210   3.919
 2281SOL    HW1 2191   2.786   2.273   3.870
 2281SOL    HW2 2192   2.746   2.116   3.890
 2287SOL     OW 2193   2.183   2.805   3.966
 2287SOL    HW1 2194   2.265   2.844   3.924
 2287SOL    HW2 2195   2.156   2.723   3.917
 2294SOL     OW 2196   2.476   1.984   3.841
 2294SOL    HW1 2197   2.574   1.962   3.848
 2294SOL    HW2 2198   2.445   1.967   3.748
 2297SOL     OW 2199   2.159   1.897   3.895
 2297SOL    HW1 2200   2.208   1.981   3.874
 2297SOL    HW2 2201   2.221   1.832   3.940
 2301SOL     OW 2202   2.894   2.411   3.740
 2301SOL    HW1 2203   2.853   2.493   3.701
 2301SOL    HW2 2204   2.958   2.437   3.813
 2307SOL     OW 2205   3.252   2.437   3.802
 2307SOL    HW1 2206   3.198   2.416   3.883
 2307SOL    HW2 2207   3.343   2.396   3.811
 2308SOL     OW 2208   2.389   2.118   4.052
 2308SOL    HW1 2209   2.416   2.059   3.977
 2308SOL    HW2 2210   2.389   2.213   4.021
 2319SOL     OW 2211   3.165   2.700   3.766
 2319SOL    HW1 2212   3.199   2.607   3.781
 2319SOL    HW2 2213   3.183   2.727   3.671
 2324SOL     OW 2214   2.677   2.434   4.049
 2324SOL    HW1 2215   2.684   2.345   4.003
 2324SOL    HW2 2216   2.583   2.468   4.041
 2325SOL     OW 2217   2.335   2.362   3.915
 2325SOL    HW1 2218   2.396   2.442   3.919
 2325SOL    HW2 2219   2.240   2.393   3.922
 2334SOL     OW 2220   2.778   2.772   4.015
 2334SOL    HW1 2221   2.841   2.810   3.947
 2334SOL    HW2 2222   2.818   2.689   4.054
 2339SOL     OW 2223   1.937   2.207   3.757
 2339SOL    HW1 2224   1.845   2.179   3.728
 2339SOL    HW2 2225   1.968   2.284   3.701
 2340SOL     OW 2226   1.934   2.028   4.042
 2340SOL    HW1 2227   1.917   2.111   3.988
 2340SOL    HW2 2228   2.024   1.991   4.020
 2344SOL     OW 2229   2.721   3.236   3.740
 2344SOL    HW1 2230   2.675   3.251   3.828
 2344SOL    HW2 2231   2.765   3.321   3.710
 2347SOL     OW 2232   2.945   2.846   3.811
 2347SOL    HW1 2233   2.922   2.899   3.729
 2347SOL    HW2 2234   3.026   2.790   3.792
 2370SOL     OW 2235   2.179   3.975   1.801
 2370SOL    HW1 2236   2.250   4.046   1.807
 2370SOL    HW2 2237   2.091   4.014   1.829
 2386SOL     OW 2238   2.643   3.988   1.749
 2386SOL    HW1 2239   2.710   3.927   1.792
 2386SOL    HW2 2240   2.570   4.007   1.814
 2409SOL     OW 2241   2.875   3.829   1.770
 2409SOL    HW1 2242   2.881   3.914   1.718
 2409SOL    HW2 2243   2.907   3.753   1.713
 2410SOL     OW 2244   2.366   3.774   1.740
 2410SOL    HW1 2245   2.324   3.717   1.670
 2410SOL    HW2 2246   2.300   3.843   1.772
 2460SOL     OW 2247   2.087   3.999   2.858
 2460SOL    HW1 2248   2.122   3.982   2.950
 2460SOL    HW2 2249   1.999   3.954   2.846
 2471SOL     OW 2250   2.671   3.728   2.364
 2471SOL    HW1 2251   2.711   3.819   2.355
 2471SOL    HW2 2252   2.571   3.736   2.370
 2480SOL     OW 2253   2.727   4.072   2.057
 2480SOL    HW1 2254   2.786   4.135   2.008
 2480SOL    HW2 2255   2.746   3.978   2.028
 2482SOL     OW 2256   2.412   3.920   2.747
 2482SOL    HW1 2257   2.407   3.915   2.847
 2482SOL    HW2 2258   2.414   4.016   2.718
 2485SOL     OW 2259   3.262   3.831   2.288
 2485SOL    HW1 2260   3.238   3.794   2.198
 2485SOL    HW2 2261   3.361   3.847   2.292
 2488SOL     OW 2262   2.476   3.846   1.979
 2488SOL    HW1 2263   2.574   3.824   1.986
 2488SOL    HW2 2264   2.445   3.829   1.886
 2492SOL     OW 2265   2.401   3.788   2.374
 2492SOL    HW1 2266   2.320   3.789   2.432
 2492SOL    HW2 2267   2.404   3.871   2.319
 2493SOL     OW 2268   2.159   3.759   2.033
 2493SOL    HW1 2269   2.208   3.843   2.012
 2493SOL    HW2 2270   2.221   3.694   2.078
 2494SOL     OW 2271   2.797   3.960   2.342
 2494SOL    HW1 2272   2.749   4.001   2.264
 2494SOL    HW2 2273   2.896   3.958   2.323
 2498SOL     OW 2274   2.423   3.946   3.009
 2498SOL    HW1 2275   2.461   3.862   3.046
 2498SOL    HW2 2276   2.335   3.965   3.053
 2500SOL     OW 2277   2.879   3.763   2.615
 2500SOL    HW1 2278   2.807   3.768   2.546
 2500SOL    HW2 2279   2.855   3.694   2.684
 2504SOL     OW 2280   2.389   3.980   2.190
 2504SOL    HW1 2281   2.416   3.921   2.115
 2504SOL    HW2 2282   2.389   4.075   2.159
 2505SOL     OW 2283   2.777   3.813   3.264
 2505SOL    HW1 2284   2.802   3.793   3.169
 2505SOL    HW2 2285   2.849   3.869   3.306
 2517SOL     OW 2286   2.169   3.937   3.093
 2517SOL    HW1 2287   2.146   3.974   3.183
 2517SOL    HW2 2288   2.139   3.842   3.087
 2520SOL     OW 2289   2.169   3.787   2.480
 2520SOL    HW1 2290   2.158   3.881   2.513
 2520SOL    HW2 2291   2.164   3.724   2.557
 2539SOL     OW 2292   2.125   4.050   2.582
 2539SOL    HW1 2293   2.046   4.101   2.548
 2539SOL    HW2 2294   2.116   4.035   2.680
 2541SOL     OW 2295   2.876   3.960   2.833
 2541SOL    HW1 2296   2.868   3.924   2.740
 2541SOL    HW2 2297   2.874   3.884   2.898
 2547SOL     OW 2298   1.934   3.890   2.180
 2547SOL    HW1 2299   1.917   3.973   2.126
 2547SOL    HW2 2300   2.024   3.853   2.158
 2559SOL     OW 2301   2.863   3.758   3.016
 2559SOL    HW1 2302   2.800   3.686   2.985
 2559SOL    HW2 2303   2.956   3.722   3.016
 2560SOL     OW 2304   3.214   3.776   2.030
 2560SOL    HW1 2305   3.249   3.735   1.946
 2560SOL    HW2 2306   3.124   3.738   2.050
 2641SOL     OW 2307   3.854   1.821   1.571
 2641SOL    HW1 2308   3.844   1.806   1.670
 2641SOL    HW2 2309   3.768   1.857   1.535
 2696SOL     OW 2310   3.854   1.794   1.851
 2696SOL    HW1 2311   3.813   1.720   1.904
 2696SOL    HW2 2312   3.918   1.845   1.909
 2733SOL     OW 2313   3.955   1.713   2.345
 2733SOL    HW1 2314   3.989   1.790   2.399
 2733SOL    HW2 2315   3.999   1.713   2.255
 2739SOL     OW 2316   3.751   1.596   1.979
 2739SOL    HW1 2317   3.732   1.500   2.000
 2739SOL    HW2 2318   3.718   1.654   2.054
 2790SOL     OW 2319   3.732   1.326   2.062
 2790SOL    HW1 2320   3.639   1.347   2.031
 2790SOL    HW2 2321   3.742   1.227   2.075
 2791SOL     OW 2322   3.812   1.801   2.789
 2791SOL    HW1 2323   3.770   1.715   2.762
 2791SOL    HW2 2324   3.906   1.804   2.755
 2903SOL     OW 2325   3.837   2.599   1.597
 2903SOL    HW1 2326   3.925   2.586   1.642
 2903SOL    HW2 2327   3.824   2.696   1.575
 2907SOL     OW 2328   4.041   2.113   1.801
 2907SOL    HW1 2329   4.112   2.184   1.807
 2907SOL    HW2 2330   3.953   2.152   1.829
 2929SOL     OW 2331   3.802   2.418   1.386
 2929SOL    HW1 2332   3.894   2.417   1.345
 2929SOL    HW2 2333   3.796   2.492   1.453
 2956SOL     OW 2334   3.913   2.382   1.722
 2956SOL    HW1 2335   3.972   2.342   1.652
 2956SOL    HW2 2336   3.855   2.453   1.681
 2974SOL     OW 2337   3.829   2.875   1.726
 2974SOL    HW1 2338   3.752   2.842   1.780
 2974SOL    HW2 2339   3.914   2.845   1.768
 2993SOL     OW 2340   3.954   2.490   1.975
 2993SOL    HW1 2341   3.861   2.488   2.012
 2993SOL    HW2 2342   3.955   2.451   1.883
 2994SOL     OW 2343   3.949   2.137   2.858
 2994SOL    HW1 2344   3.984   2.120   2.950
 2994SOL    HW2 2345   3.861   2.092   2.846
 2995SOL     OW 2346   3.743   2.230   2.509
 2995SOL    HW1 2347   3.661   2.273   2.548
 2995SOL    HW2 2348   3.715   2.157   2.446
 3005SOL     OW 2349   3.964   2.953   2.748
 3005SOL    HW1 2350   3.978   2.869   2.800
 3005SOL    HW2 2351   3.909   3.017   2.803
 3008SOL     OW 2352   3.846   2.505   2.425
 3008SOL    HW1 2353   3.801   2.417   2.442
 3008SOL    HW2 2354   3.845   2.559   2.509
 3017SOL     OW 2355   3.800   2.673   2.651
 3017SOL    HW1 2356   3.899   2.661   2.660
 3017SOL    HW2 2357   3.776   2.768   2.672
 3023SOL     OW 2358   4.045   2.805   2.104
 3023SOL    HW1 2359   4.127   2.844   2.062
 3023SOL    HW2 2360   4.018   2.723   2.055
 3029SOL     OW 2361   4.106   2.562   2.342
 3029SOL    HW1 2362   4.151   2.472   2.339
 3029SOL    HW2 2363   4.012   2.551   2.375
 3035SOL     OW 2364   4.021   1.897   2.033
 3035SOL    HW1 2365   4.070   1.981   2.012
 3035SOL    HW2 2366   4.083   1.832   2.078
 3037SOL     OW 2367   3.802   2.418   3.248
 3037SOL    HW1 2368   3.894   2.417   3.207
 3037SOL    HW2 2369   3.796   2.492   3.315
 3054SOL     OW 2370   4.031   1.925   2.480
 3054SOL    HW1 2371   4.020   2.019   2.513
 3054SOL    HW2 2372   4.026   1.862   2.557
 3058SOL     OW 2373   4.043   2.672   2.811
 3058SOL    HW1 2374   4.136   2.708   2.816
 3058SOL    HW2 2375   4.037   2.587   2.863
 3060SOL     OW 2376   3.732   3.188   2.062
 3060SOL    HW1 2377   3.639   3.209   2.031
 3060SOL    HW2 2378   3.742   3.089   2.075
 3063SOL     OW 2379   3.764   2.406   2.976
 3063SOL    HW1 2380   3.849   2.373   2.935
 3063SOL    HW2 2381   3.777   2.421   3.074
 3070SOL     OW 2382   3.807   3.120   2.884
 3070SOL    HW1 2383   3.802   3.119   2.984
 3070SOL    HW2 2384   3.724   3.079   2.846
 3076SOL     OW 2385   3.987   2.188   2.582
 3076SOL    HW1 2386   3.908   2.239   2.548
 3076SOL    HW2 2387   3.978   2.173   2.680
 3083SOL     OW 2388   3.799   2.207   1.895
 3083SOL    HW1 2389   3.707   2.179   1.866
 3083SOL    HW2 2390   3.830   2.284   1.839
 3084SOL     OW 2391   3.796   2.028   2.180
 3084SOL    HW1 2392   3.779   2.111   2.126
 3084SOL    HW2 2393   3.886   1.991   2.158
 3091SOL     OW 2394   3.803   3.102   2.515
 3091SOL    HW1 2395   3.802   3.055   2.603
 3091SOL    HW2 2396   3.885   3.074   2.464
 3099SOL     OW 2397   3.763   2.939   2.162
 3099SOL    HW1 2398   3.862   2.928   2.153
 3099SOL    HW2 2399   3.723   2.853   2.194
   4.67700   4.67700   4.67700
