; mobley_8789864_GMX.itp created by acpype (v: 2023.10.27) on Thu May 21 00:22:59 2026

[ atomtypes ]
;name   bond_type     mass     charge   ptype   sigma         epsilon       Amb
 c1       c1          0.00000  0.00000   A     3.47896e-01   6.67766e-01 ; 1.95  0.1596
 c3       c3          0.00000  0.00000   A     3.39771e-01   4.51035e-01 ; 1.91  0.1078
 n1       n1          0.00000  0.00000   A     3.27352e-01   4.59403e-01 ; 1.84  0.1098
 os       os          0.00000  0.00000   A     3.15610e-01   3.03758e-01 ; 1.77  0.0726
 h1       h1          0.00000  0.00000   A     2.42200e-01   8.70272e-02 ; 1.36  0.0208
 hc       hc          0.00000  0.00000   A     2.60018e-01   8.70272e-02 ; 1.46  0.0208

[ moleculetype ]
;name            nrexcl
 mobley_8789864   3

[ atoms ]
;   nr  type  resi  res  atom  cgnr     charge      mass       ; qtot   bond_type
     1   c1     1   MOL    C1    1     0.221700     12.01000 ; qtot 0.222
     2   c3     1   MOL    C2    2     0.131033     12.01000 ; qtot 0.353
     3   c3     1   MOL    C3    3     0.131033     12.01000 ; qtot 0.484
     4   c3     1   MOL    C4    4     0.131033     12.01000 ; qtot 0.615
     5   c3     1   MOL    C5    5    -0.040300     12.01000 ; qtot 0.574
     6   c3     1   MOL    C6    6     0.531404     12.01000 ; qtot 1.106
     7   n1     1   MOL    N1    7    -0.356800     14.01000 ; qtot 0.749
     8   os     1   MOL    O1    8    -0.444267     16.00000 ; qtot 0.305
     9   os     1   MOL    O2    9    -0.444267     16.00000 ; qtot -0.139
    10   os     1   MOL    O3   10    -0.444267     16.00000 ; qtot -0.584
    11   h1     1   MOL    H1   11     0.043922      1.00800 ; qtot -0.540
    12   h1     1   MOL    H2   12     0.043922      1.00800 ; qtot -0.496
    13   h1     1   MOL    H3   13     0.043922      1.00800 ; qtot -0.452
    14   h1     1   MOL    H4   14     0.043922      1.00800 ; qtot -0.408
    15   h1     1   MOL    H5   15     0.043922      1.00800 ; qtot -0.364
    16   h1     1   MOL    H6   16     0.043922      1.00800 ; qtot -0.320
    17   h1     1   MOL    H7   17     0.043922      1.00800 ; qtot -0.276
    18   h1     1   MOL    H8   18     0.043922      1.00800 ; qtot -0.232
    19   h1     1   MOL    H9   19     0.043922      1.00800 ; qtot -0.188
    20   hc     1   MOL   H10   20     0.094200      1.00800 ; qtot -0.094
    21   hc     1   MOL   H11   21     0.094200      1.00800 ; qtot -0.000

[ bonds ]
;   ai     aj funct   r             k
     1      5   1    1.4656e-01    2.3814e+05 ;     C1 - C5    
     1      7   1    1.1619e-01    6.2865e+05 ;     C1 - N1    
     2      8   1    1.4273e-01    2.3620e+05 ;     C2 - O1    
     2     11   1    1.0969e-01    2.8804e+05 ;     C2 - H1    
     2     12   1    1.0969e-01    2.8804e+05 ;     C2 - H2    
     2     13   1    1.0969e-01    2.8804e+05 ;     C2 - H3    
     3      9   1    1.4273e-01    2.3620e+05 ;     C3 - O2    
     3     14   1    1.0969e-01    2.8804e+05 ;     C3 - H4    
     3     15   1    1.0969e-01    2.8804e+05 ;     C3 - H5    
     3     16   1    1.0969e-01    2.8804e+05 ;     C3 - H6    
     4     10   1    1.4273e-01    2.3620e+05 ;     C4 - O3    
     4     17   1    1.0969e-01    2.8804e+05 ;     C4 - H7    
     4     18   1    1.0969e-01    2.8804e+05 ;     C4 - H8    
     4     19   1    1.0969e-01    2.8804e+05 ;     C4 - H9    
     5      6   1    1.5354e-01    1.9154e+05 ;     C5 - C6    
     5     20   1    1.0962e-01    2.8891e+05 ;     C5 - H10   
     5     21   1    1.0962e-01    2.8891e+05 ;     C5 - H11   
     6      8   1    1.4273e-01    2.3620e+05 ;     C6 - O1    
     6      9   1    1.4273e-01    2.3620e+05 ;     C6 - O2    
     6     10   1    1.4273e-01    2.3620e+05 ;     C6 - O3    

[ pairs ]
;   ai     aj    funct
     1      8      1 ;     C1 - O1    
     1      9      1 ;     C1 - O2    
     1     10      1 ;     C1 - O3    
     2      5      1 ;     C2 - C5    
     2      9      1 ;     C2 - O2    
     2     10      1 ;     C2 - O3    
     3      5      1 ;     C3 - C5    
     3      8      1 ;     C3 - O1    
     3     10      1 ;     C3 - O3    
     4      5      1 ;     C4 - C5    
     4      8      1 ;     C4 - O1    
     4      9      1 ;     C4 - O2    
     6     11      1 ;     C6 - H1    
     6     12      1 ;     C6 - H2    
     6     13      1 ;     C6 - H3    
     6     14      1 ;     C6 - H4    
     6     15      1 ;     C6 - H5    
     6     16      1 ;     C6 - H6    
     6     17      1 ;     C6 - H7    
     6     18      1 ;     C6 - H8    
     6     19      1 ;     C6 - H9    
     7      6      1 ;     N1 - C6    
     7     20      1 ;     N1 - H10   
     7     21      1 ;     N1 - H11   
     8     20      1 ;     O1 - H10   
     8     21      1 ;     O1 - H11   
     9     20      1 ;     O2 - H10   
     9     21      1 ;     O2 - H11   
    10     20      1 ;     O3 - H10   
    10     21      1 ;     O3 - H11   

[ angles ]
;   ai     aj     ak    funct   theta         cth
     1      5      6      1    1.1202e+02    5.1354e+02 ;     C1 - C5     - C6    
     1      5     20      1    1.0945e+02    3.7765e+02 ;     C1 - C5     - H10   
     1      5     21      1    1.0945e+02    3.7765e+02 ;     C1 - C5     - H11   
     2      8      6      1    1.1360e+02    7.3915e+02 ;     C2 - O1     - C6    
     3      9      6      1    1.1360e+02    7.3915e+02 ;     C3 - O2     - C6    
     4     10      6      1    1.1360e+02    7.3915e+02 ;     C4 - O3     - C6    
     5      1      7      1    1.7866e+02    4.8049e+02 ;     C5 - C1     - N1    
     5      6      8      1    1.0762e+02    6.4802e+02 ;     C5 - C6     - O1    
     5      6      9      1    1.0762e+02    6.4802e+02 ;     C5 - C6     - O2    
     5      6     10      1    1.0762e+02    6.4802e+02 ;     C5 - C6     - O3    
     6      5     20      1    1.0968e+02    3.6208e+02 ;     C6 - C5     - H10   
     6      5     21      1    1.0968e+02    3.6208e+02 ;     C6 - C5     - H11   
     8      2     11      1    1.1034e+02    4.7028e+02 ;     O1 - C2     - H1    
     8      2     12      1    1.1034e+02    4.7028e+02 ;     O1 - C2     - H2    
     8      2     13      1    1.1034e+02    4.7028e+02 ;     O1 - C2     - H3    
     8      6      9      1    1.0789e+02    8.2375e+02 ;     O1 - C6     - O2    
     8      6     10      1    1.0789e+02    8.2375e+02 ;     O1 - C6     - O3    
     9      3     14      1    1.1034e+02    4.7028e+02 ;     O2 - C3     - H4    
     9      3     15      1    1.1034e+02    4.7028e+02 ;     O2 - C3     - H5    
     9      3     16      1    1.1034e+02    4.7028e+02 ;     O2 - C3     - H6    
     9      6     10      1    1.0789e+02    8.2375e+02 ;     O2 - C6     - O3    
    10      4     17      1    1.1034e+02    4.7028e+02 ;     O3 - C4     - H7    
    10      4     18      1    1.1034e+02    4.7028e+02 ;     O3 - C4     - H8    
    10      4     19      1    1.1034e+02    4.7028e+02 ;     O3 - C4     - H9    
    11      2     12      1    1.0855e+02    2.9824e+02 ;     H1 - C2     - H2    
    11      2     13      1    1.0855e+02    2.9824e+02 ;     H1 - C2     - H3    
    12      2     13      1    1.0855e+02    2.9824e+02 ;     H2 - C2     - H3    
    14      3     15      1    1.0855e+02    2.9824e+02 ;     H4 - C3     - H5    
    14      3     16      1    1.0855e+02    2.9824e+02 ;     H4 - C3     - H6    
    15      3     16      1    1.0855e+02    2.9824e+02 ;     H5 - C3     - H6    
    17      4     18      1    1.0855e+02    2.9824e+02 ;     H7 - C4     - H8    
    17      4     19      1    1.0855e+02    2.9824e+02 ;     H7 - C4     - H9    
    18      4     19      1    1.0855e+02    2.9824e+02 ;     H8 - C4     - H9    
    20      5     21      1    1.0773e+02    2.9957e+02 ;    H10 - C5     - H11   

[ dihedrals ] ; propers
; for gromacs 4.5 or higher, using funct 9
;    i      j      k      l   func   phase     kd      pn
     1      5      6      8      9     0.00   0.65084   3 ;     C1-    C5-    C6-    O1
     1      5      6      9      9     0.00   0.65084   3 ;     C1-    C5-    C6-    O2
     1      5      6     10      9     0.00   0.65084   3 ;     C1-    C5-    C6-    O3
     2      8      6      5      9     0.00   0.33472   2 ;     C2-    O1-    C6-    C5
     2      8      6      5      9     0.00   3.13800   3 ;     C2-    O1-    C6-    C5
     2      8      6      5      9   180.00   3.68192   1 ;     C2-    O1-    C6-    C5
     2      8      6      9      9     0.00   3.55640   2 ;     C2-    O1-    C6-    O2
     2      8      6      9      9     0.00   3.55640   3 ;     C2-    O1-    C6-    O2
     2      8      6      9      9   180.00   1.92464   1 ;     C2-    O1-    C6-    O2
     2      8      6     10      9     0.00   3.55640   2 ;     C2-    O1-    C6-    O3
     2      8      6     10      9     0.00   3.55640   3 ;     C2-    O1-    C6-    O3
     2      8      6     10      9   180.00   1.92464   1 ;     C2-    O1-    C6-    O3
     3      9      6      5      9     0.00   0.33472   2 ;     C3-    O2-    C6-    C5
     3      9      6      5      9     0.00   3.13800   3 ;     C3-    O2-    C6-    C5
     3      9      6      5      9   180.00   3.68192   1 ;     C3-    O2-    C6-    C5
     3      9      6      8      9     0.00   3.55640   2 ;     C3-    O2-    C6-    O1
     3      9      6      8      9     0.00   3.55640   3 ;     C3-    O2-    C6-    O1
     3      9      6      8      9   180.00   1.92464   1 ;     C3-    O2-    C6-    O1
     3      9      6     10      9     0.00   3.55640   2 ;     C3-    O2-    C6-    O3
     3      9      6     10      9     0.00   3.55640   3 ;     C3-    O2-    C6-    O3
     3      9      6     10      9   180.00   1.92464   1 ;     C3-    O2-    C6-    O3
     4     10      6      5      9     0.00   0.33472   2 ;     C4-    O3-    C6-    C5
     4     10      6      5      9     0.00   3.13800   3 ;     C4-    O3-    C6-    C5
     4     10      6      5      9   180.00   3.68192   1 ;     C4-    O3-    C6-    C5
     4     10      6      8      9     0.00   3.55640   2 ;     C4-    O3-    C6-    O1
     4     10      6      8      9     0.00   3.55640   3 ;     C4-    O3-    C6-    O1
     4     10      6      8      9   180.00   1.92464   1 ;     C4-    O3-    C6-    O1
     4     10      6      9      9     0.00   3.55640   2 ;     C4-    O3-    C6-    O2
     4     10      6      9      9     0.00   3.55640   3 ;     C4-    O3-    C6-    O2
     4     10      6      9      9   180.00   1.92464   1 ;     C4-    O3-    C6-    O2
     6      8      2     11      9     0.00   1.41001   3 ;     C6-    O1-    C2-    H1
     6      8      2     12      9     0.00   1.41001   3 ;     C6-    O1-    C2-    H2
     6      8      2     13      9     0.00   1.41001   3 ;     C6-    O1-    C2-    H3
     6      9      3     14      9     0.00   1.41001   3 ;     C6-    O2-    C3-    H4
     6      9      3     15      9     0.00   1.41001   3 ;     C6-    O2-    C3-    H5
     6      9      3     16      9     0.00   1.41001   3 ;     C6-    O2-    C3-    H6
     6     10      4     17      9     0.00   1.41001   3 ;     C6-    O3-    C4-    H7
     6     10      4     18      9     0.00   1.41001   3 ;     C6-    O3-    C4-    H8
     6     10      4     19      9     0.00   1.41001   3 ;     C6-    O3-    C4-    H9
     7      1      5      6      9   180.00   0.00000   2 ;     N1-    C1-    C5-    C6
     7      1      5     20      9   180.00   0.00000   2 ;     N1-    C1-    C5-   H10
     7      1      5     21      9   180.00   0.00000   2 ;     N1-    C1-    C5-   H11
     8      6      5     20      9     0.00   0.00000   0 ;     O1-    C6-    C5-   H10
     8      6      5     20      9     0.00   1.04600   1 ;     O1-    C6-    C5-   H10
     8      6      5     21      9     0.00   0.00000   0 ;     O1-    C6-    C5-   H11
     8      6      5     21      9     0.00   1.04600   1 ;     O1-    C6-    C5-   H11
     9      6      5     20      9     0.00   0.00000   0 ;     O2-    C6-    C5-   H10
     9      6      5     20      9     0.00   1.04600   1 ;     O2-    C6-    C5-   H10
     9      6      5     21      9     0.00   0.00000   0 ;     O2-    C6-    C5-   H11
     9      6      5     21      9     0.00   1.04600   1 ;     O2-    C6-    C5-   H11
    10      6      5     20      9     0.00   0.00000   0 ;     O3-    C6-    C5-   H10
    10      6      5     20      9     0.00   1.04600   1 ;     O3-    C6-    C5-   H10
    10      6      5     21      9     0.00   0.00000   0 ;     O3-    C6-    C5-   H11
    10      6      5     21      9     0.00   1.04600   1 ;     O3-    C6-    C5-   H11
