mobley_7463799_GMX.gro created by acpype (v: 2023.10.27) on Tue May 19 14:04:02 2026
 2425
    1MOL     C1    1   2.396   2.358   2.088
    1MOL     C2    2   2.289   2.418   2.155
    1MOL     C3    3   2.501   2.302   2.160
    1MOL     C4    4   2.287   2.421   2.295
    1MOL     C5    5   2.499   2.305   2.300
    1MOL     C6    6   2.392   2.364   2.367
    1MOL     C7    7   2.390   2.368   2.516
    1MOL     C8    8   2.458   2.493   2.572
    1MOL     C9    9   2.460   2.494   2.724
    1MOL     O1   10   2.523   2.614   2.769
    1MOL     H1   11   2.397   2.356   1.979
    1MOL     H2   12   2.207   2.462   2.099
    1MOL     H3   13   2.584   2.255   2.108
    1MOL     H4   14   2.203   2.468   2.346
    1MOL     H5   15   2.581   2.260   2.355
    1MOL     H6   16   2.440   2.278   2.557
    1MOL     H7   17   2.287   2.362   2.553
    1MOL     H8   18   2.407   2.583   2.536
    1MOL     H9   19   2.561   2.501   2.534
    1MOL    H10   20   2.359   2.491   2.765
    1MOL    H11   21   2.517   2.409   2.763
    1MOL    H12   22   2.513   2.679   2.698
   14SOL     OW   23   1.460   1.505   1.339
   14SOL    HW1   24   1.484   1.599   1.365
   14SOL    HW2   25   1.444   1.451   1.421
   35SOL     OW   26   1.187   1.792   1.616
   35SOL    HW1   27   1.211   1.852   1.540
   35SOL    HW2   28   1.194   1.697   1.586
   56SOL     OW   29   1.227   1.550   1.506
   56SOL    HW1   30   1.233   1.473   1.570
   56SOL    HW2   31   1.175   1.524   1.426
   95SOL     OW   32   1.754   1.223   1.588
   95SOL    HW1   33   1.845   1.184   1.575
   95SOL    HW2   34   1.762   1.319   1.612
   97SOL     OW   35   1.592   1.629   1.625
   97SOL    HW1   36   1.619   1.663   1.535
   97SOL    HW2   37   1.671   1.591   1.671
  122SOL     OW   38   1.728   0.935   1.854
  122SOL    HW1   39   1.682   0.928   1.765
  122SOL    HW2   40   1.666   0.979   1.920
  127SOL     OW   41   1.859   1.518   1.605
  127SOL    HW1   42   1.873   1.545   1.510
  127SOL    HW2   43   1.942   1.540   1.658
  152SOL     OW   44   1.759   1.747   1.154
  152SOL    HW1   45   1.820   1.777   1.081
  152SOL    HW2   46   1.721   1.658   1.132
  163SOL     OW   47   1.650   1.720   1.394
  163SOL    HW1   48   1.703   1.730   1.310
  163SOL    HW2   49   1.623   1.810   1.428
  171SOL     OW   50   1.614   1.292   1.289
  171SOL    HW1   51   1.674   1.295   1.369
  171SOL    HW2   52   1.539   1.356   1.302
  186SOL     OW   53   1.450   1.220   1.633
  186SOL    HW1   54   1.441   1.210   1.732
  186SOL    HW2   55   1.546   1.213   1.607
  203SOL     OW   56   1.705   1.487   1.104
  203SOL    HW1   57   1.612   1.462   1.077
  203SOL    HW2   58   1.731   1.437   1.186
  219SOL     OW   59   1.555   1.511   2.565
  219SOL    HW1   60   1.498   1.495   2.646
  219SOL    HW2   61   1.496   1.521   2.485
  227SOL     OW   62   1.460   1.505   3.201
  227SOL    HW1   63   1.484   1.599   3.227
  227SOL    HW2   64   1.444   1.451   3.283
  238SOL     OW   65   1.842   1.767   2.221
  238SOL    HW1   66   1.896   1.738   2.301
  238SOL    HW2   67   1.872   1.857   2.192
  240SOL     OW   68   1.689   0.922   2.474
  240SOL    HW1   69   1.784   0.893   2.482
  240SOL    HW2   70   1.681   0.987   2.399
  241SOL     OW   71   1.641   1.108   2.294
  241SOL    HW1   72   1.727   1.110   2.242
  241SOL    HW2   73   1.655   1.155   2.382
  247SOL     OW   74   1.525   0.999   2.052
  247SOL    HW1   75   1.462   0.923   2.065
  247SOL    HW2   76   1.573   1.017   2.138
  248SOL     OW   77   1.187   1.792   3.478
  248SOL    HW1   78   1.211   1.852   3.402
  248SOL    HW2   79   1.194   1.697   3.448
  250SOL     OW   80   1.466   1.417   2.815
  250SOL    HW1   81   1.407   1.423   2.895
  250SOL    HW2   82   1.451   1.329   2.769
  251SOL     OW   83   1.667   1.714   2.434
  251SOL    HW1   84   1.626   1.691   2.346
  251SOL    HW2   85   1.649   1.640   2.499
  254SOL     OW   86   1.576   1.662   2.169
  254SOL    HW1   87   1.665   1.708   2.172
  254SOL    HW2   88   1.555   1.638   2.074
  264SOL     OW   89   1.362   1.144   2.407
  264SOL    HW1   90   1.445   1.115   2.359
  264SOL    HW2   91   1.313   1.211   2.351
  266SOL     OW   92   1.008   1.456   2.339
  266SOL    HW1   93   0.962   1.528   2.287
  266SOL    HW2   94   1.004   1.476   2.437
  268SOL     OW   95   1.795   1.066   2.735
  268SOL    HW1   96   1.733   1.051   2.659
  268SOL    HW2   97   1.743   1.077   2.820
  269SOL     OW   98   1.227   1.550   3.368
  269SOL    HW1   99   1.233   1.473   3.432
  269SOL    HW2  100   1.175   1.524   3.288
  273SOL     OW  101   1.111   1.776   2.099
  273SOL    HW1  102   1.051   1.714   2.149
  273SOL    HW2  103   1.142   1.732   2.014
  275SOL     OW  104   1.632   1.377   1.943
  275SOL    HW1  105   1.600   1.471   1.933
  275SOL    HW2  106   1.556   1.314   1.931
  279SOL     OW  107   0.940   1.698   2.766
  279SOL    HW1  108   1.020   1.641   2.787
  279SOL    HW2  109   0.891   1.658   2.689
  289SOL     OW  110   1.434   1.188   1.903
  289SOL    HW1  111   1.466   1.112   1.960
  289SOL    HW2  112   1.342   1.215   1.933
  293SOL     OW  113   1.227   1.570   2.655
  293SOL    HW1  114   1.248   1.644   2.590
  293SOL    HW2  115   1.295   1.570   2.728
  295SOL     OW  116   1.271   1.797   2.453
  295SOL    HW1  117   1.315   1.861   2.389
  295SOL    HW2  118   1.221   1.849   2.523
  301SOL     OW  119   1.429   1.173   2.729
  301SOL    HW1  120   1.374   1.089   2.722
  301SOL    HW2  121   1.455   1.202   2.637
  303SOL     OW  122   1.857   0.833   2.239
  303SOL    HW1  123   1.899   0.769   2.303
  303SOL    HW2  124   1.819   0.782   2.161
  305SOL     OW  125   1.664   1.280   2.519
  305SOL    HW1  126   1.763   1.288   2.533
  305SOL    HW2  127   1.619   1.364   2.550
  308SOL     OW  128   1.754   1.223   3.450
  308SOL    HW1  129   1.845   1.184   3.437
  308SOL    HW2  130   1.762   1.319   3.474
  310SOL     OW  131   1.592   1.629   3.487
  310SOL    HW1  132   1.619   1.663   3.397
  310SOL    HW2  133   1.671   1.591   3.533
  312SOL     OW  134   1.638   1.099   2.941
  312SOL    HW1  135   1.643   1.180   3.000
  312SOL    HW2  136   1.552   1.101   2.890
  321SOL     OW  137   1.252   1.348   2.250
  321SOL    HW1  138   1.302   1.425   2.290
  321SOL    HW2  139   1.157   1.350   2.282
  322SOL     OW  140   1.272   1.445   3.004
  322SOL    HW1  141   1.319   1.458   3.091
  322SOL    HW2  142   1.206   1.371   3.013
  340SOL     OW  143   1.859   1.518   3.467
  340SOL    HW1  144   1.873   1.545   3.372
  340SOL    HW2  145   1.942   1.540   3.520
  344SOL     OW  146   1.068   1.333   2.711
  344SOL    HW1  147   1.075   1.249   2.656
  344SOL    HW2  148   1.130   1.402   2.675
  365SOL     OW  149   1.759   1.747   3.016
  365SOL    HW1  150   1.820   1.777   2.943
  365SOL    HW2  151   1.721   1.658   2.994
  366SOL     OW  152   1.252   1.731   2.990
  366SOL    HW1  153   1.336   1.736   2.936
  366SOL    HW2  154   1.229   1.635   3.008
  370SOL     OW  155   1.388   1.573   2.339
  370SOL    HW1  156   1.455   1.585   2.265
  370SOL    HW2  157   1.348   1.662   2.362
  375SOL     OW  158   1.650   1.720   3.256
  375SOL    HW1  159   1.703   1.730   3.172
  375SOL    HW2  160   1.623   1.810   3.290
  378SOL     OW  161   1.194   1.612   1.893
  378SOL    HW1  162   1.200   1.519   1.930
  378SOL    HW2  163   1.135   1.612   1.813
  381SOL     OW  164   1.504   1.607   1.906
  381SOL    HW1  165   1.412   1.644   1.913
  381SOL    HW2  166   1.542   1.627   1.816
  383SOL     OW  167   1.614   1.292   3.151
  383SOL    HW1  168   1.674   1.295   3.231
  383SOL    HW2  169   1.539   1.356   3.164
  394SOL     OW  170   1.183   1.335   1.981
  394SOL    HW1  171   1.084   1.324   1.983
  394SOL    HW2  172   1.217   1.350   2.074
  396SOL     OW  173   1.493   1.767   2.821
  396SOL    HW1  174   1.526   1.831   2.752
  396SOL    HW2  175   1.559   1.761   2.896
  409SOL     OW  176   1.861   1.569   2.713
  409SOL    HW1  177   1.790   1.557   2.643
  409SOL    HW2  178   1.862   1.490   2.773
  415SOL     OW  179   1.705   1.487   2.966
  415SOL    HW1  180   1.612   1.462   2.939
  415SOL    HW2  181   1.731   1.437   3.048
  426SOL     OW  182   0.875   1.646   2.199
  426SOL    HW1  183   0.798   1.611   2.145
  426SOL    HW2  184   0.843   1.717   2.261
  561SOL     OW  185   0.850   2.660   1.823
  561SOL    HW1  186   0.846   2.736   1.888
  561SOL    HW2  187   0.872   2.696   1.732
  565SOL     OW  188   1.460   3.367   1.339
  565SOL    HW1  189   1.484   3.461   1.365
  565SOL    HW2  190   1.444   3.313   1.421
  569SOL     OW  191   1.127   3.203   1.690
  569SOL    HW1  192   1.174   3.203   1.778
  569SOL    HW2  193   1.079   3.116   1.679
  574SOL     OW  194   1.594   1.976   1.480
  574SOL    HW1  195   1.576   2.043   1.408
  574SOL    HW2  196   1.591   2.022   1.569
  582SOL     OW  197   1.293   3.090   1.423
  582SOL    HW1  198   1.330   3.017   1.365
  582SOL    HW2  199   1.345   3.095   1.508
  594SOL     OW  200   1.394   2.331   1.674
  594SOL    HW1  201   1.374   2.374   1.762
  594SOL    HW2  202   1.472   2.269   1.683
  595SOL     OW  203   0.973   2.752   1.572
  595SOL    HW1  204   1.019   2.668   1.543
  595SOL    HW2  205   0.917   2.786   1.497
  601SOL     OW  206   1.719   2.447   1.831
  601SOL    HW1  207   1.693   2.536   1.795
  601SOL    HW2  208   1.717   2.379   1.758
  606SOL     OW  209   1.795   2.928   0.873
  606SOL    HW1  210   1.733   2.913   0.797
  606SOL    HW2  211   1.743   2.939   0.958
  619SOL     OW  212   1.547   2.084   1.729
  619SOL    HW1  213   1.542   2.121   1.821
  619SOL    HW2  214   1.475   2.015   1.717
  621SOL     OW  215   0.781   2.126   1.749
  621SOL    HW1  216   0.848   2.065   1.792
  621SOL    HW2  217   0.708   2.145   1.814
  623SOL     OW  218   1.351   2.452   1.433
  623SOL    HW1  219   1.379   2.409   1.518
  623SOL    HW2  220   1.376   2.548   1.434
  629SOL     OW  221   1.076   2.545   1.464
  629SOL    HW1  222   0.996   2.484   1.467
  629SOL    HW2  223   1.157   2.492   1.440
  639SOL     OW  224   1.466   2.452   0.992
  639SOL    HW1  225   1.436   2.357   0.999
  639SOL    HW2  226   1.539   2.468   1.058
  645SOL     OW  227   1.754   3.085   1.588
  645SOL    HW1  228   1.845   3.046   1.575
  645SOL    HW2  229   1.762   3.181   1.612
  647SOL     OW  230   1.592   3.491   1.625
  647SOL    HW1  231   1.619   3.525   1.535
  647SOL    HW2  232   1.671   3.453   1.671
  649SOL     OW  233   1.638   2.961   1.079
  649SOL    HW1  234   1.643   3.042   1.138
  649SOL    HW2  235   1.552   2.963   1.028
  651SOL     OW  236   0.980   2.978   1.719
  651SOL    HW1  237   0.881   2.984   1.729
  651SOL    HW2  238   1.003   2.898   1.663
  654SOL     OW  239   1.274   2.248   1.262
  654SOL    HW1  240   1.295   2.322   1.326
  654SOL    HW2  241   1.185   2.265   1.219
  663SOL     OW  242   1.587   2.641   1.670
  663SOL    HW1  243   1.495   2.679   1.665
  663SOL    HW2  244   1.647   2.688   1.605
  664SOL     OW  245   1.013   1.967   1.770
  664SOL    HW1  246   1.019   2.052   1.718
  664SOL    HW2  247   1.045   1.891   1.713
  667SOL     OW  248   1.360   2.724   1.045
  667SOL    HW1  249   1.285   2.724   0.979
  667SOL    HW2  250   1.397   2.632   1.054
  672SOL     OW  251   1.728   2.797   1.854
  672SOL    HW1  252   1.682   2.790   1.765
  672SOL    HW2  253   1.666   2.841   1.920
  677SOL     OW  254   1.859   3.380   1.605
  677SOL    HW1  255   1.873   3.407   1.510
  677SOL    HW2  256   1.942   3.402   1.658
  684SOL     OW  257   1.138   2.242   1.678
  684SOL    HW1  258   1.093   2.305   1.742
  684SOL    HW2  259   1.231   2.273   1.661
  685SOL     OW  260   1.160   2.069   1.477
  685SOL    HW1  261   1.160   2.133   1.554
  685SOL    HW2  262   1.188   2.117   1.394
  692SOL     OW  263   1.369   2.812   1.660
  692SOL    HW1  264   1.408   2.901   1.680
  692SOL    HW2  265   1.379   2.792   1.563
  694SOL     OW  266   1.657   2.466   1.206
  694SOL    HW1  267   1.619   2.397   1.268
  694SOL    HW2  268   1.739   2.430   1.162
  700SOL     OW  269   1.347   2.921   1.234
  700SOL    HW1  270   1.371   2.858   1.160
  700SOL    HW2  271   1.257   2.961   1.216
  713SOL     OW  272   1.650   3.582   1.394
  713SOL    HW1  273   1.703   3.592   1.310
  713SOL    HW2  274   1.623   3.672   1.428
  714SOL     OW  275   1.841   2.037   0.963
  714SOL    HW1  276   1.880   1.952   0.927
  714SOL    HW2  277   1.743   2.039   0.944
  721SOL     OW  278   1.614   3.154   1.289
  721SOL    HW1  279   1.674   3.157   1.369
  721SOL    HW2  280   1.539   3.218   1.302
  725SOL     OW  281   1.709   2.247   1.381
  725SOL    HW1  282   1.782   2.316   1.385
  725SOL    HW2  283   1.737   2.172   1.322
  730SOL     OW  284   1.440   2.718   1.398
  730SOL    HW1  285   1.383   2.770   1.335
  730SOL    HW2  286   1.536   2.730   1.374
  736SOL     OW  287   1.450   3.082   1.633
  736SOL    HW1  288   1.441   3.072   1.732
  736SOL    HW2  289   1.546   3.075   1.607
  738SOL     OW  290   1.674   2.745   1.254
  738SOL    HW1  291   1.647   2.656   1.217
  738SOL    HW2  292   1.675   2.813   1.181
  741SOL     OW  293   1.777   2.204   1.642
  741SOL    HW1  294   1.760   2.235   1.548
  741SOL    HW2  295   1.693   2.167   1.680
  742SOL     OW  296   1.730   2.796   1.517
  742SOL    HW1  297   1.768   2.887   1.532
  742SOL    HW2  298   1.722   2.779   1.418
  751SOL     OW  299   1.824   2.054   1.227
  751SOL    HW1  300   1.820   1.964   1.271
  751SOL    HW2  301   1.827   2.043   1.128
  753SOL     OW  302   1.705   3.349   1.104
  753SOL    HW1  303   1.612   3.324   1.077
  753SOL    HW2  304   1.731   3.299   1.186
  756SOL     OW  305   1.424   2.076   1.112
  756SOL    HW1  306   1.476   2.011   1.167
  756SOL    HW2  307   1.375   2.139   1.173
  762SOL     OW  308   1.593   2.083   0.882
  762SOL    HW1  309   1.509   2.082   0.936
  762SOL    HW2  310   1.595   2.166   0.826
  769SOL     OW  311   1.555   3.373   2.565
  769SOL    HW1  312   1.498   3.357   2.646
  769SOL    HW2  313   1.496   3.383   2.485
  770SOL     OW  314   1.135   2.565   2.579
  770SOL    HW1  315   1.192   2.643   2.554
  770SOL    HW2  316   1.075   2.591   2.655
  771SOL     OW  317   1.755   2.469   2.093
  771SOL    HW1  318   1.743   2.456   1.994
  771SOL    HW2  319   1.725   2.388   2.142
  774SOL     OW  320   0.685   2.874   2.527
  774SOL    HW1  321   0.754   2.858   2.597
  774SOL    HW2  322   0.612   2.931   2.565
  777SOL     OW  323   1.460   3.367   3.201
  777SOL    HW1  324   1.484   3.461   3.227
  777SOL    HW2  325   1.444   3.313   3.283
  779SOL     OW  326   1.603   2.309   2.599
  779SOL    HW1  327   1.529   2.355   2.549
  779SOL    HW2  328   1.654   2.377   2.652
  786SOL     OW  329   1.594   1.976   3.342
  786SOL    HW1  330   1.576   2.043   3.270
  786SOL    HW2  331   1.591   2.022   3.431
  788SOL     OW  332   1.842   3.629   2.221
  788SOL    HW1  333   1.896   3.600   2.301
  788SOL    HW2  334   1.872   3.719   2.192
  790SOL     OW  335   1.689   2.784   2.474
  790SOL    HW1  336   1.784   2.755   2.482
  790SOL    HW2  337   1.681   2.849   2.399
  791SOL     OW  338   1.641   2.970   2.294
  791SOL    HW1  339   1.727   2.972   2.242
  791SOL    HW2  340   1.655   3.017   2.382
  794SOL     OW  341   1.293   3.090   3.285
  794SOL    HW1  342   1.330   3.017   3.227
  794SOL    HW2  343   1.345   3.095   3.370
  795SOL     OW  344   0.809   1.866   2.364
  795SOL    HW1  345   0.849   1.957   2.355
  795SOL    HW2  346   0.709   1.874   2.370
  797SOL     OW  347   1.525   2.861   2.052
  797SOL    HW1  348   1.462   2.785   2.065
  797SOL    HW2  349   1.573   2.879   2.138
  800SOL     OW  350   1.466   3.279   2.815
  800SOL    HW1  351   1.407   3.285   2.895
  800SOL    HW2  352   1.451   3.191   2.769
  801SOL     OW  353   1.667   3.576   2.434
  801SOL    HW1  354   1.626   3.553   2.346
  801SOL    HW2  355   1.649   3.502   2.499
  803SOL     OW  356   1.281   2.207   2.806
  803SOL    HW1  357   1.195   2.157   2.793
  803SOL    HW2  358   1.343   2.153   2.862
  804SOL     OW  359   1.576   3.524   2.169
  804SOL    HW1  360   1.665   3.570   2.172
  804SOL    HW2  361   1.555   3.500   2.074
  806SOL     OW  362   1.394   2.331   3.536
  806SOL    HW1  363   1.374   2.374   3.624
  806SOL    HW2  364   1.472   2.269   3.545
  807SOL     OW  365   0.973   2.752   3.434
  807SOL    HW1  366   1.019   2.668   3.405
  807SOL    HW2  367   0.917   2.786   3.359
  808SOL     OW  368   0.991   2.272   3.104
  808SOL    HW1  369   0.914   2.306   3.158
  808SOL    HW2  370   0.957   2.221   3.025
  809SOL     OW  371   1.041   2.563   2.291
  809SOL    HW1  372   1.067   2.559   2.387
  809SOL    HW2  373   0.956   2.512   2.277
  812SOL     OW  374   0.865   2.210   2.057
  812SOL    HW1  375   0.924   2.273   2.008
  812SOL    HW2  376   0.884   2.116   2.028
  813SOL     OW  377   1.719   2.447   3.693
  813SOL    HW1  378   1.693   2.536   3.657
  813SOL    HW2  379   1.717   2.379   3.620
  814SOL     OW  380   1.362   3.006   2.407
  814SOL    HW1  381   1.445   2.977   2.359
  814SOL    HW2  382   1.313   3.073   2.351
  816SOL     OW  383   1.008   3.318   2.339
  816SOL    HW1  384   0.962   3.390   2.287
  816SOL    HW2  385   1.004   3.338   2.437
  818SOL     OW  386   1.795   2.928   2.735
  818SOL    HW1  387   1.733   2.913   2.659
  818SOL    HW2  388   1.743   2.939   2.820
  821SOL     OW  389   1.458   2.597   2.590
  821SOL    HW1  390   1.453   2.532   2.665
  821SOL    HW2  391   1.538   2.656   2.603
  825SOL     OW  392   1.632   3.239   1.943
  825SOL    HW1  393   1.600   3.333   1.933
  825SOL    HW2  394   1.556   3.176   1.931
  827SOL     OW  395   1.400   1.969   2.288
  827SOL    HW1  396   1.376   1.932   2.198
  827SOL    HW2  397   1.499   1.985   2.292
  831SOL     OW  398   1.547   2.084   3.591
  831SOL    HW1  399   1.542   2.121   3.683
  831SOL    HW2  400   1.475   2.015   3.579
  835SOL     OW  401   1.351   2.452   3.295
  835SOL    HW1  402   1.379   2.409   3.380
  835SOL    HW2  403   1.376   2.548   3.296
  837SOL     OW  404   0.922   2.365   2.761
  837SOL    HW1  405   0.897   2.356   2.665
  837SOL    HW2  406   0.970   2.283   2.792
  839SOL     OW  407   1.434   3.050   1.903
  839SOL    HW1  408   1.466   2.974   1.960
  839SOL    HW2  409   1.342   3.077   1.933
  841SOL     OW  410   0.935   2.098   2.342
  841SOL    HW1  411   0.887   2.139   2.264
  841SOL    HW2  412   1.034   2.096   2.323
  842SOL     OW  413   1.076   2.545   3.326
  842SOL    HW1  414   0.996   2.484   3.329
  842SOL    HW2  415   1.157   2.492   3.302
  843SOL     OW  416   1.227   3.432   2.655
  843SOL    HW1  417   1.248   3.506   2.590
  843SOL    HW2  418   1.295   3.432   2.728
  845SOL     OW  419   1.271   3.659   2.453
  845SOL    HW1  420   1.315   3.723   2.389
  845SOL    HW2  421   1.221   3.711   2.523
  846SOL     OW  422   1.032   2.411   1.878
  846SOL    HW1  423   0.991   2.493   1.839
  846SOL    HW2  424   1.096   2.437   1.951
  849SOL     OW  425   0.866   2.316   2.504
  849SOL    HW1  426   0.834   2.388   2.442
  849SOL    HW2  427   0.890   2.235   2.451
  850SOL     OW  428   1.017   1.901   2.615
  850SOL    HW1  429   0.945   1.906   2.546
  850SOL    HW2  430   0.993   1.832   2.684
  851SOL     OW  431   1.429   3.035   2.729
  851SOL    HW1  432   1.374   2.951   2.722
  851SOL    HW2  433   1.455   3.064   2.637
  852SOL     OW  434   1.466   2.452   2.854
  852SOL    HW1  435   1.436   2.357   2.861
  852SOL    HW2  436   1.539   2.468   2.920
  853SOL     OW  437   1.857   2.695   2.239
  853SOL    HW1  438   1.899   2.631   2.303
  853SOL    HW2  439   1.819   2.644   2.161
  855SOL     OW  440   1.664   3.142   2.519
  855SOL    HW1  441   1.763   3.150   2.533
  855SOL    HW2  442   1.619   3.226   2.550
  856SOL     OW  443   1.390   2.437   1.940
  856SOL    HW1  444   1.336   2.416   2.021
  856SOL    HW2  445   1.481   2.396   1.949
  858SOL     OW  446   1.754   3.085   3.450
  858SOL    HW1  447   1.845   3.046   3.437
  858SOL    HW2  448   1.762   3.181   3.474
  859SOL     OW  449   1.064   3.209   3.202
  859SOL    HW1  450   0.984   3.186   3.257
  859SOL    HW2  451   1.147   3.183   3.251
  860SOL     OW  452   1.592   3.491   3.487
  860SOL    HW1  453   1.619   3.525   3.397
  860SOL    HW2  454   1.671   3.453   3.533
  861SOL     OW  455   1.111   3.057   2.962
  861SOL    HW1  456   1.071   3.101   3.043
  861SOL    HW2  457   1.070   3.094   2.879
  862SOL     OW  458   1.638   2.961   2.941
  862SOL    HW1  459   1.643   3.042   3.000
  862SOL    HW2  460   1.552   2.963   2.890
  863SOL     OW  461   0.915   1.951   3.264
  863SOL    HW1  462   0.940   1.931   3.169
  863SOL    HW2  463   0.987   2.007   3.306
  865SOL     OW  464   0.705   2.912   2.230
  865SOL    HW1  465   0.691   2.919   2.329
  865SOL    HW2  466   0.789   2.861   2.212
  867SOL     OW  467   1.274   2.248   3.124
  867SOL    HW1  468   1.295   2.322   3.188
  867SOL    HW2  469   1.185   2.265   3.081
  871SOL     OW  470   1.252   3.210   2.250
  871SOL    HW1  471   1.302   3.287   2.290
  871SOL    HW2  472   1.157   3.212   2.282
  872SOL     OW  473   1.272   3.307   3.004
  872SOL    HW1  474   1.319   3.320   3.091
  872SOL    HW2  475   1.206   3.233   3.013
  873SOL     OW  476   1.582   2.501   2.334
  873SOL    HW1  477   1.551   2.562   2.407
  873SOL    HW2  478   1.632   2.553   2.265
  876SOL     OW  479   1.587   2.641   3.532
  876SOL    HW1  480   1.495   2.679   3.527
  876SOL    HW2  481   1.647   2.688   3.467
  880SOL     OW  482   1.360   2.724   2.907
  880SOL    HW1  483   1.285   2.724   2.841
  880SOL    HW2  484   1.397   2.632   2.916
  881SOL     OW  485   1.209   2.387   2.137
  881SOL    HW1  486   1.222   2.303   2.191
  881SOL    HW2  487   1.180   2.461   2.197
  884SOL     OW  488   0.732   2.496   2.926
  884SOL    HW1  489   0.791   2.470   2.850
  884SOL    HW2  490   0.704   2.592   2.915
  885SOL     OW  491   1.728   2.797   3.716
  885SOL    HW1  492   1.682   2.790   3.627
  885SOL    HW2  493   1.666   2.841   3.782
  887SOL     OW  494   1.622   2.229   2.236
  887SOL    HW1  495   1.624   2.153   2.300
  887SOL    HW2  496   1.574   2.306   2.276
  888SOL     OW  497   1.023   2.628   2.828
  888SOL    HW1  498   1.038   2.649   2.924
  888SOL    HW2  499   0.993   2.533   2.819
  890SOL     OW  500   1.859   3.380   3.467
  890SOL    HW1  501   1.873   3.407   3.372
  890SOL    HW2  502   1.942   3.402   3.520
  892SOL     OW  503   1.540   2.136   1.987
  892SOL    HW1  504   1.479   2.061   2.010
  892SOL    HW2  505   1.562   2.188   2.070
  893SOL     OW  506   1.303   2.700   1.904
  893SOL    HW1  507   1.337   2.607   1.919
  893SOL    HW2  508   1.321   2.727   1.809
  894SOL     OW  509   1.068   3.195   2.711
  894SOL    HW1  510   1.075   3.111   2.656
  894SOL    HW2  511   1.130   3.264   2.675
  897SOL     OW  512   1.138   2.242   3.540
  897SOL    HW1  513   1.093   2.305   3.604
  897SOL    HW2  514   1.231   2.273   3.523
  898SOL     OW  515   1.160   2.069   3.339
  898SOL    HW1  516   1.160   2.133   3.416
  898SOL    HW2  517   1.188   2.117   3.256
  902SOL     OW  518   1.002   2.658   3.100
  902SOL    HW1  519   1.043   2.626   3.186
  902SOL    HW2  520   0.906   2.631   3.097
  905SOL     OW  521   1.369   2.812   3.522
  905SOL    HW1  522   1.408   2.901   3.542
  905SOL    HW2  523   1.379   2.792   3.425
  906SOL     OW  524   0.815   2.434   2.187
  906SOL    HW1  525   0.822   2.345   2.141
  906SOL    HW2  526   0.721   2.468   2.179
  907SOL     OW  527   1.657   2.466   3.068
  907SOL    HW1  528   1.619   2.397   3.130
  907SOL    HW2  529   1.739   2.430   3.024
  913SOL     OW  530   1.347   2.921   3.096
  913SOL    HW1  531   1.371   2.858   3.022
  913SOL    HW2  532   1.257   2.961   3.078
  914SOL     OW  533   1.302   2.717   2.171
  914SOL    HW1  534   1.216   2.686   2.213
  914SOL    HW2  535   1.298   2.703   2.072
  915SOL     OW  536   1.759   3.609   3.016
  915SOL    HW1  537   1.820   3.639   2.943
  915SOL    HW2  538   1.721   3.520   2.994
  916SOL     OW  539   1.252   3.593   2.990
  916SOL    HW1  540   1.336   3.598   2.936
  916SOL    HW2  541   1.229   3.497   3.008
  919SOL     OW  542   1.726   1.997   2.385
  919SOL    HW1  543   1.799   1.980   2.318
  919SOL    HW2  544   1.695   1.910   2.423
  920SOL     OW  545   1.388   3.435   2.339
  920SOL    HW1  546   1.455   3.447   2.265
  920SOL    HW2  547   1.348   3.524   2.362
  922SOL     OW  548   1.280   2.789   2.534
  922SOL    HW1  549   1.340   2.708   2.536
  922SOL    HW2  550   1.320   2.858   2.474
  925SOL     OW  551   1.650   3.582   3.256
  925SOL    HW1  552   1.703   3.592   3.172
  925SOL    HW2  553   1.623   3.672   3.290
  926SOL     OW  554   1.841   2.037   2.825
  926SOL    HW1  555   1.880   1.952   2.789
  926SOL    HW2  556   1.743   2.039   2.806
  928SOL     OW  557   1.194   3.474   1.893
  928SOL    HW1  558   1.200   3.381   1.930
  928SOL    HW2  559   1.135   3.474   1.813
  930SOL     OW  560   0.916   2.772   2.153
  930SOL    HW1  561   0.979   2.810   2.085
  930SOL    HW2  562   0.956   2.689   2.192
  931SOL     OW  563   1.504   3.469   1.906
  931SOL    HW1  564   1.412   3.506   1.913
  931SOL    HW2  565   1.542   3.489   1.816
  933SOL     OW  566   1.614   3.154   3.151
  933SOL    HW1  567   1.674   3.157   3.231
  933SOL    HW2  568   1.539   3.218   3.164
  934SOL     OW  569   1.039   2.960   2.558
  934SOL    HW1  570   0.969   2.913   2.612
  934SOL    HW2  571   1.098   2.892   2.515
  935SOL     OW  572   1.014   2.098   2.833
  935SOL    HW1  573   1.006   2.062   2.740
  935SOL    HW2  574   1.012   2.022   2.898
  937SOL     OW  575   1.709   2.247   3.243
  937SOL    HW1  576   1.782   2.316   3.247
  937SOL    HW2  577   1.737   2.172   3.184
  942SOL     OW  578   1.440   2.718   3.260
  942SOL    HW1  579   1.383   2.770   3.197
  942SOL    HW2  580   1.536   2.730   3.236
  944SOL     OW  581   1.183   3.197   1.981
  944SOL    HW1  582   1.084   3.186   1.983
  944SOL    HW2  583   1.217   3.212   2.074
  946SOL     OW  584   1.493   3.629   2.821
  946SOL    HW1  585   1.526   3.693   2.752
  946SOL    HW2  586   1.559   3.623   2.896
  948SOL     OW  587   1.450   3.082   3.495
  948SOL    HW1  588   1.441   3.072   3.594
  948SOL    HW2  589   1.546   3.075   3.469
  950SOL     OW  590   1.674   2.745   3.116
  950SOL    HW1  591   1.647   2.656   3.079
  950SOL    HW2  592   1.675   2.813   3.043
  951SOL     OW  593   1.225   2.187   2.311
  951SOL    HW1  594   1.290   2.113   2.300
  951SOL    HW2  595   1.245   2.237   2.395
  953SOL     OW  596   1.777   2.204   3.504
  953SOL    HW1  597   1.760   2.235   3.410
  953SOL    HW2  598   1.693   2.167   3.542
  954SOL     OW  599   1.730   2.796   3.379
  954SOL    HW1  600   1.768   2.887   3.394
  954SOL    HW2  601   1.722   2.779   3.280
  957SOL     OW  602   0.859   2.818   2.723
  957SOL    HW1  603   0.913   2.749   2.771
  957SOL    HW2  604   0.827   2.887   2.789
  958SOL     OW  605   1.083   2.846   1.949
  958SOL    HW1  606   1.060   2.899   1.867
  958SOL    HW2  607   1.164   2.790   1.930
  959SOL     OW  608   1.861   3.431   2.713
  959SOL    HW1  609   1.790   3.419   2.643
  959SOL    HW2  610   1.862   3.352   2.773
  963SOL     OW  611   1.824   2.054   3.089
  963SOL    HW1  612   1.820   1.964   3.133
  963SOL    HW2  613   1.827   2.043   2.990
  965SOL     OW  614   1.705   3.349   2.966
  965SOL    HW1  615   1.612   3.324   2.939
  965SOL    HW2  616   1.731   3.299   3.048
  968SOL     OW  617   1.424   2.076   2.974
  968SOL    HW1  618   1.476   2.011   3.029
  968SOL    HW2  619   1.375   2.139   3.035
  969SOL     OW  620   1.001   1.896   3.016
  969SOL    HW1  621   0.938   1.824   2.985
  969SOL    HW2  622   1.094   1.860   3.016
  972SOL     OW  623   1.352   1.914   2.030
  972SOL    HW1  624   1.387   1.873   1.946
  972SOL    HW2  625   1.262   1.876   2.050
  973SOL     OW  626   1.300   2.315   2.553
  973SOL    HW1  627   1.241   2.395   2.557
  973SOL    HW2  628   1.315   2.280   2.646
  974SOL     OW  629   1.593   2.083   2.744
  974SOL    HW1  630   1.509   2.082   2.798
  974SOL    HW2  631   1.595   2.166   2.688
  982SOL     OW  632   1.755   2.469   3.955
  982SOL    HW1  633   1.743   2.456   3.856
  982SOL    HW2  634   1.725   2.388   4.004
  998SOL     OW  635   1.525   2.861   3.914
  998SOL    HW1  636   1.462   2.785   3.927
  998SOL    HW2  637   1.573   2.879   4.000
 1015SOL     OW  638   1.632   3.239   3.805
 1015SOL    HW1  639   1.600   3.333   3.795
 1015SOL    HW2  640   1.556   3.176   3.793
 1025SOL     OW  641   1.434   3.050   3.765
 1025SOL    HW1  642   1.466   2.974   3.822
 1025SOL    HW2  643   1.342   3.077   3.795
 1036SOL     OW  644   1.857   2.695   4.101
 1036SOL    HW1  645   1.899   2.631   4.165
 1036SOL    HW2  646   1.819   2.644   4.023
 1039SOL     OW  647   1.390   2.437   3.802
 1039SOL    HW1  648   1.336   2.416   3.883
 1039SOL    HW2  649   1.481   2.396   3.811
 1054SOL     OW  650   1.540   2.136   3.849
 1054SOL    HW1  651   1.479   2.061   3.872
 1054SOL    HW2  652   1.562   2.188   3.932
 1055SOL     OW  653   1.303   2.700   3.766
 1055SOL    HW1  654   1.337   2.607   3.781
 1055SOL    HW2  655   1.321   2.727   3.671
 1262SOL     OW  656   1.400   3.831   2.288
 1262SOL    HW1  657   1.376   3.794   2.198
 1262SOL    HW2  658   1.499   3.847   2.292
 1321SOL     OW  659   1.726   3.859   2.385
 1321SOL    HW1  660   1.799   3.842   2.318
 1321SOL    HW2  661   1.695   3.772   2.423
 1323SOL     OW  662   1.841   3.899   2.825
 1323SOL    HW1  663   1.880   3.814   2.789
 1323SOL    HW2  664   1.743   3.901   2.806
 1343SOL     OW  665   1.824   3.916   3.089
 1343SOL    HW1  666   1.820   3.826   3.133
 1343SOL    HW2  667   1.827   3.905   2.990
 1348SOL     OW  668   1.352   3.776   2.030
 1348SOL    HW1  669   1.387   3.735   1.946
 1348SOL    HW2  670   1.262   3.738   2.050
 1350SOL     OW  671   1.593   3.945   2.744
 1350SOL    HW1  672   1.509   3.944   2.798
 1350SOL    HW2  673   1.595   4.028   2.688
 1431SOL     OW  674   2.431   1.275   1.165
 1431SOL    HW1  675   2.338   1.268   1.128
 1431SOL    HW2  676   2.442   1.364   1.209
 1436SOL     OW  677   2.712   0.798   1.823
 1436SOL    HW1  678   2.708   0.874   1.888
 1436SOL    HW2  679   2.734   0.834   1.732
 1438SOL     OW  680   2.548   1.161   1.803
 1438SOL    HW1  681   2.608   1.240   1.817
 1438SOL    HW2  682   2.462   1.192   1.762
 1439SOL     OW  683   2.197   1.435   1.061
 1439SOL    HW1  684   2.119   1.404   1.008
 1439SOL    HW2  685   2.255   1.493   1.004
 1440SOL     OW  686   3.322   1.505   1.339
 1440SOL    HW1  687   3.346   1.599   1.365
 1440SOL    HW2  688   3.306   1.451   1.421
 1444SOL     OW  689   2.989   1.341   1.690
 1444SOL    HW1  690   3.036   1.341   1.778
 1444SOL    HW2  691   2.941   1.254   1.679
 1447SOL     OW  692   2.482   1.786   1.439
 1447SOL    HW1  693   2.390   1.769   1.474
 1447SOL    HW2  694   2.510   1.878   1.465
 1457SOL     OW  695   3.155   1.228   1.423
 1457SOL    HW1  696   3.192   1.155   1.365
 1457SOL    HW2  697   3.207   1.233   1.508
 1461SOL     OW  698   3.049   1.792   1.616
 1461SOL    HW1  699   3.073   1.852   1.540
 1461SOL    HW2  700   3.056   1.697   1.586
 1470SOL     OW  701   2.835   0.890   1.572
 1470SOL    HW1  702   2.881   0.806   1.543
 1470SOL    HW2  703   2.779   0.924   1.497
 1474SOL     OW  704   1.992   1.821   1.571
 1474SOL    HW1  705   1.982   1.806   1.670
 1474SOL    HW2  706   1.906   1.857   1.535
 1480SOL     OW  707   2.213   1.801   0.853
 1480SOL    HW1  708   2.263   1.715   0.859
 1480SOL    HW2  709   2.278   1.878   0.850
 1482SOL     OW  710   3.089   1.550   1.506
 1482SOL    HW1  711   3.095   1.473   1.570
 1482SOL    HW2  712   3.037   1.524   1.426
 1485SOL     OW  713   2.323   1.266   1.727
 1485SOL    HW1  714   2.273   1.267   1.641
 1485SOL    HW2  715   2.260   1.248   1.803
 1491SOL     OW  716   2.111   1.785   1.241
 1491SOL    HW1  717   2.168   1.720   1.291
 1491SOL    HW2  718   2.095   1.752   1.148
 1492SOL     OW  719   2.802   1.698   0.904
 1492SOL    HW1  720   2.882   1.641   0.925
 1492SOL    HW2  721   2.753   1.658   0.827
 1497SOL     OW  722   2.750   1.514   1.195
 1497SOL    HW1  723   2.727   1.489   1.101
 1497SOL    HW2  724   2.811   1.445   1.234
 1522SOL     OW  725   2.926   1.347   1.340
 1522SOL    HW1  726   2.846   1.324   1.395
 1522SOL    HW2  727   3.009   1.321   1.389
 1523SOL     OW  728   3.454   1.629   1.625
 1523SOL    HW1  729   3.481   1.663   1.535
 1523SOL    HW2  730   3.533   1.591   1.671
 1527SOL     OW  731   2.842   1.116   1.719
 1527SOL    HW1  732   2.743   1.122   1.729
 1527SOL    HW2  733   2.865   1.036   1.663
 1531SOL     OW  734   1.926   1.564   1.331
 1531SOL    HW1  735   1.880   1.646   1.297
 1531SOL    HW2  736   2.024   1.583   1.340
 1535SOL     OW  737   3.134   1.445   1.142
 1535SOL    HW1  738   3.181   1.458   1.229
 1535SOL    HW2  739   3.068   1.371   1.151
 1537SOL     OW  740   2.216   1.510   1.329
 1537SOL    HW1  741   2.195   1.466   1.242
 1537SOL    HW2  742   2.313   1.536   1.332
 1546SOL     OW  743   1.899   1.310   1.282
 1546SOL    HW1  744   1.952   1.261   1.350
 1546SOL    HW2  745   1.921   1.408   1.287
 1552SOL     OW  746   2.842   1.573   1.700
 1552SOL    HW1  747   2.822   1.617   1.612
 1552SOL    HW2  748   2.881   1.482   1.684
 1553SOL     OW  749   3.721   1.518   1.605
 1553SOL    HW1  750   3.735   1.545   1.510
 1553SOL    HW2  751   3.804   1.540   1.658
 1554SOL     OW  752   2.212   0.898   1.804
 1554SOL    HW1  753   2.288   0.942   1.852
 1554SOL    HW2  754   2.247   0.851   1.722
 1563SOL     OW  755   1.950   1.801   0.927
 1563SOL    HW1  756   1.908   1.715   0.900
 1563SOL    HW2  757   2.044   1.804   0.893
 1564SOL     OW  758   2.366   1.568   0.910
 1564SOL    HW1  759   2.432   1.642   0.919
 1564SOL    HW2  760   2.410   1.489   0.868
 1571SOL     OW  761   2.114   1.564   1.744
 1571SOL    HW1  762   2.084   1.621   1.820
 1571SOL    HW2  763   2.107   1.467   1.770
 1573SOL     OW  764   2.792   1.678   1.465
 1573SOL    HW1  765   2.768   1.660   1.370
 1573SOL    HW2  766   2.822   1.772   1.475
 1575SOL     OW  767   2.021   1.137   1.466
 1575SOL    HW1  768   2.043   1.076   1.542
 1575SOL    HW2  769   2.031   1.088   1.380
 1579SOL     OW  770   3.114   1.731   1.128
 1579SOL    HW1  771   3.198   1.736   1.074
 1579SOL    HW2  772   3.091   1.635   1.146
 1581SOL     OW  773   2.550   1.662   1.716
 1581SOL    HW1  774   2.494   1.743   1.725
 1581SOL    HW2  775   2.602   1.666   1.630
 1585SOL     OW  776   1.992   1.794   1.851
 1585SOL    HW1  777   1.951   1.720   1.904
 1585SOL    HW2  778   2.056   1.845   1.909
 1587SOL     OW  779   2.692   1.273   1.422
 1587SOL    HW1  780   2.687   1.306   1.517
 1587SOL    HW2  781   2.606   1.292   1.376
 1589SOL     OW  782   3.512   1.720   1.394
 1589SOL    HW1  783   3.565   1.730   1.310
 1589SOL    HW2  784   3.485   1.810   1.428
 1593SOL     OW  785   2.684   1.002   1.372
 1593SOL    HW1  786   2.724   1.001   1.280
 1593SOL    HW2  787   2.694   1.094   1.412
 1596SOL     OW  788   2.234   1.288   1.490
 1596SOL    HW1  789   2.221   1.381   1.456
 1596SOL    HW2  790   2.150   1.236   1.477
 1603SOL     OW  791   1.967   1.013   1.726
 1603SOL    HW1  792   1.890   0.980   1.780
 1603SOL    HW2  793   2.052   0.983   1.768
 1612SOL     OW  794   3.312   1.220   1.633
 1612SOL    HW1  795   3.303   1.210   1.732
 1612SOL    HW2  796   3.408   1.213   1.607
 1613SOL     OW  797   2.252   1.741   1.560
 1613SOL    HW1  798   2.161   1.782   1.558
 1613SOL    HW2  799   2.245   1.647   1.592
 1620SOL     OW  800   2.523   1.790   0.953
 1620SOL    HW1  801   2.477   1.878   0.940
 1620SOL    HW2  802   2.622   1.802   0.946
 1624SOL     OW  803   2.083   1.314   1.844
 1624SOL    HW1  804   2.018   1.241   1.823
 1624SOL    HW2  805   2.087   1.328   1.942
 1626SOL     OW  806   2.534   1.391   1.624
 1626SOL    HW1  807   2.456   1.341   1.662
 1626SOL    HW2  808   2.531   1.486   1.655
 1635SOL     OW  809   2.480   1.567   1.284
 1635SOL    HW1  810   2.475   1.649   1.341
 1635SOL    HW2  811   2.569   1.564   1.239
 1644SOL     OW  812   2.431   1.275   3.027
 1644SOL    HW1  813   2.338   1.268   2.990
 1644SOL    HW2  814   2.442   1.364   3.071
 1645SOL     OW  815   3.417   1.511   2.565
 1645SOL    HW1  816   3.360   1.495   2.646
 1645SOL    HW2  817   3.358   1.521   2.485
 1648SOL     OW  818   2.630   1.144   2.885
 1648SOL    HW1  819   2.552   1.161   2.945
 1648SOL    HW2  820   2.664   1.231   2.849
 1650SOL     OW  821   2.547   1.012   2.527
 1650SOL    HW1  822   2.616   0.996   2.597
 1650SOL    HW2  823   2.474   1.069   2.565
 1651SOL     OW  824   2.548   1.161   3.665
 1651SOL    HW1  825   2.608   1.240   3.679
 1651SOL    HW2  826   2.462   1.192   3.624
 1652SOL     OW  827   2.197   1.435   2.923
 1652SOL    HW1  828   2.119   1.404   2.870
 1652SOL    HW2  829   2.255   1.493   2.866
 1653SOL     OW  830   3.322   1.505   3.201
 1653SOL    HW1  831   3.346   1.599   3.227
 1653SOL    HW2  832   3.306   1.451   3.283
 1656SOL     OW  833   2.093   1.713   2.345
 1656SOL    HW1  834   2.127   1.790   2.399
 1656SOL    HW2  835   2.137   1.713   2.255
 1657SOL     OW  836   2.989   1.341   3.552
 1657SOL    HW1  837   3.036   1.341   3.640
 1657SOL    HW2  838   2.941   1.254   3.541
 1658SOL     OW  839   2.092   1.434   2.400
 1658SOL    HW1  840   2.066   1.530   2.400
 1658SOL    HW2  841   2.021   1.380   2.445
 1659SOL     OW  842   2.102   1.091   2.748
 1659SOL    HW1  843   2.116   1.007   2.800
 1659SOL    HW2  844   2.047   1.155   2.803
 1660SOL     OW  845   2.482   1.786   3.301
 1660SOL    HW1  846   2.390   1.769   3.336
 1660SOL    HW2  847   2.510   1.878   3.327
 1661SOL     OW  848   2.468   0.964   1.985
 1661SOL    HW1  849   2.475   1.048   1.931
 1661SOL    HW2  850   2.514   0.977   2.073
 1664SOL     OW  851   3.704   1.767   2.221
 1664SOL    HW1  852   3.758   1.738   2.301
 1664SOL    HW2  853   3.734   1.857   2.192
 1665SOL     OW  854   1.889   1.596   1.979
 1665SOL    HW1  855   1.870   1.500   2.000
 1665SOL    HW2  856   1.856   1.654   2.054
 1667SOL     OW  857   3.503   1.108   2.294
 1667SOL    HW1  858   3.589   1.110   2.242
 1667SOL    HW2  859   3.517   1.155   2.382
 1669SOL     OW  860   2.475   1.365   2.588
 1669SOL    HW1  861   2.426   1.278   2.597
 1669SOL    HW2  862   2.452   1.408   2.501
 1670SOL     OW  863   3.155   1.228   3.285
 1670SOL    HW1  864   3.192   1.155   3.227
 1670SOL    HW2  865   3.207   1.233   3.370
 1672SOL     OW  866   2.059   0.976   3.126
 1672SOL    HW1  867   2.148   0.931   3.112
 1672SOL    HW2  868   1.986   0.911   3.107
 1673SOL     OW  869   3.387   0.999   2.052
 1673SOL    HW1  870   3.324   0.923   2.065
 1673SOL    HW2  871   3.435   1.017   2.138
 1674SOL     OW  872   3.049   1.792   3.478
 1674SOL    HW1  873   3.073   1.852   3.402
 1674SOL    HW2  874   3.056   1.697   3.448
 1676SOL     OW  875   3.328   1.417   2.815
 1676SOL    HW1  876   3.269   1.423   2.895
 1676SOL    HW2  877   3.313   1.329   2.769
 1677SOL     OW  878   3.529   1.714   2.434
 1677SOL    HW1  879   3.488   1.691   2.346
 1677SOL    HW2  880   3.511   1.640   2.499
 1678SOL     OW  881   2.460   0.729   2.132
 1678SOL    HW1  882   2.484   0.798   2.064
 1678SOL    HW2  883   2.382   0.762   2.186
 1680SOL     OW  884   3.438   1.662   2.169
 1680SOL    HW1  885   3.527   1.708   2.172
 1680SOL    HW2  886   3.417   1.638   2.074
 1685SOL     OW  887   2.903   0.701   2.291
 1685SOL    HW1  888   2.929   0.697   2.387
 1685SOL    HW2  889   2.818   0.650   2.277
 1686SOL     OW  890   1.938   0.811   2.651
 1686SOL    HW1  891   2.037   0.799   2.660
 1686SOL    HW2  892   1.914   0.906   2.672
 1687SOL     OW  893   1.992   1.821   3.433
 1687SOL    HW1  894   1.982   1.806   3.532
 1687SOL    HW2  895   1.906   1.857   3.397
 1690SOL     OW  896   3.224   1.144   2.407
 1690SOL    HW1  897   3.307   1.115   2.359
 1690SOL    HW2  898   3.175   1.211   2.351
 1692SOL     OW  899   2.870   1.456   2.339
 1692SOL    HW1  900   2.824   1.528   2.287
 1692SOL    HW2  901   2.866   1.476   2.437
 1693SOL     OW  902   2.213   1.801   2.715
 1693SOL    HW1  903   2.263   1.715   2.721
 1693SOL    HW2  904   2.278   1.878   2.712
 1695SOL     OW  905   3.089   1.550   3.368
 1695SOL    HW1  906   3.095   1.473   3.432
 1695SOL    HW2  907   3.037   1.524   3.288
 1696SOL     OW  908   2.183   0.943   2.104
 1696SOL    HW1  909   2.265   0.982   2.062
 1696SOL    HW2  910   2.156   0.861   2.055
 1698SOL     OW  911   2.323   1.266   3.589
 1698SOL    HW1  912   2.273   1.267   3.503
 1698SOL    HW2  913   2.260   1.248   3.665
 1699SOL     OW  914   2.973   1.776   2.099
 1699SOL    HW1  915   2.913   1.714   2.149
 1699SOL    HW2  916   3.004   1.732   2.014
 1701SOL     OW  917   3.494   1.377   1.943
 1701SOL    HW1  918   3.462   1.471   1.933
 1701SOL    HW2  919   3.418   1.314   1.931
 1702SOL     OW  920   2.326   1.743   2.185
 1702SOL    HW1  921   2.359   1.782   2.271
 1702SOL    HW2  922   2.402   1.736   2.120
 1704SOL     OW  923   2.111   1.785   3.103
 1704SOL    HW1  924   2.168   1.720   3.153
 1704SOL    HW2  925   2.095   1.752   3.010
 1705SOL     OW  926   2.802   1.698   2.766
 1705SOL    HW1  927   2.882   1.641   2.787
 1705SOL    HW2  928   2.753   1.658   2.689
 1706SOL     OW  929   2.244   0.700   2.342
 1706SOL    HW1  930   2.289   0.610   2.339
 1706SOL    HW2  931   2.150   0.689   2.375
 1710SOL     OW  932   2.750   1.514   3.057
 1710SOL    HW1  933   2.727   1.489   2.963
 1710SOL    HW2  934   2.811   1.445   3.096
 1712SOL     OW  935   2.665   1.402   2.786
 1712SOL    HW1  936   2.755   1.416   2.744
 1712SOL    HW2  937   2.594   1.404   2.715
 1715SOL     OW  938   3.296   1.188   1.903
 1715SOL    HW1  939   3.328   1.112   1.960
 1715SOL    HW2  940   3.204   1.215   1.933
 1719SOL     OW  941   3.089   1.570   2.655
 1719SOL    HW1  942   3.110   1.644   2.590
 1719SOL    HW2  943   3.157   1.570   2.728
 1720SOL     OW  944   2.321   1.152   2.603
 1720SOL    HW1  945   2.250   1.125   2.668
 1720SOL    HW2  946   2.295   1.124   2.510
 1721SOL     OW  947   3.133   1.797   2.453
 1721SOL    HW1  948   3.177   1.861   2.389
 1721SOL    HW2  949   3.083   1.849   2.523
 1727SOL     OW  950   3.291   1.173   2.729
 1727SOL    HW1  951   3.236   1.089   2.722
 1727SOL    HW2  952   3.317   1.202   2.637
 1730SOL     OW  953   2.350   1.385   2.036
 1730SOL    HW1  954   2.263   1.370   2.083
 1730SOL    HW2  955   2.333   1.411   1.941
 1731SOL     OW  956   3.526   1.280   2.519
 1731SOL    HW1  957   3.625   1.288   2.533
 1731SOL    HW2  958   3.481   1.364   2.550
 1735SOL     OW  959   2.926   1.347   3.202
 1735SOL    HW1  960   2.846   1.324   3.257
 1735SOL    HW2  961   3.009   1.321   3.251
 1736SOL     OW  962   3.454   1.629   3.487
 1736SOL    HW1  963   3.481   1.663   3.397
 1736SOL    HW2  964   3.533   1.591   3.533
 1737SOL     OW  965   2.973   1.195   2.962
 1737SOL    HW1  966   2.933   1.239   3.043
 1737SOL    HW2  967   2.932   1.232   2.879
 1738SOL     OW  968   3.500   1.099   2.941
 1738SOL    HW1  969   3.505   1.180   3.000
 1738SOL    HW2  970   3.414   1.101   2.890
 1740SOL     OW  971   2.842   1.116   3.581
 1740SOL    HW1  972   2.743   1.122   3.591
 1740SOL    HW2  973   2.865   1.036   3.525
 1741SOL     OW  974   2.567   1.050   2.230
 1741SOL    HW1  975   2.553   1.057   2.329
 1741SOL    HW2  976   2.651   0.999   2.212
 1742SOL     OW  977   2.272   0.813   3.113
 1742SOL    HW1  978   2.358   0.825   3.163
 1742SOL    HW2  979   2.230   0.726   3.140
 1744SOL     OW  980   1.926   1.564   3.193
 1744SOL    HW1  981   1.880   1.646   3.159
 1744SOL    HW2  982   2.024   1.583   3.202
 1745SOL     OW  983   2.229   1.100   2.363
 1745SOL    HW1  984   2.222   1.183   2.307
 1745SOL    HW2  985   2.233   1.020   2.303
 1747SOL     OW  986   3.114   1.348   2.250
 1747SOL    HW1  987   3.164   1.425   2.290
 1747SOL    HW2  988   3.019   1.350   2.282
 1748SOL     OW  989   3.134   1.445   3.004
 1748SOL    HW1  990   3.181   1.458   3.091
 1748SOL    HW2  991   3.068   1.371   3.013
 1750SOL     OW  992   2.216   1.510   3.191
 1750SOL    HW1  993   2.195   1.466   3.104
 1750SOL    HW2  994   2.313   1.536   3.194
 1755SOL     OW  995   2.435   0.870   2.891
 1755SOL    HW1  996   2.479   0.959   2.882
 1755SOL    HW2  997   2.372   0.870   2.968
 1759SOL     OW  998   1.899   1.310   3.144
 1759SOL    HW1  999   1.952   1.261   3.212
 1759SOL    HW2 1000   1.921   1.408   3.149
 1764SOL     OW 1001   2.885   0.766   2.828
 1764SOL    HW1 1002   2.900   0.787   2.924
 1764SOL    HW2 1003   2.855   0.671   2.819
 1765SOL     OW 1004   2.842   1.573   3.562
 1765SOL    HW1 1005   2.822   1.617   3.474
 1765SOL    HW2 1006   2.881   1.482   3.546
 1770SOL     OW 1007   2.930   1.333   2.711
 1770SOL    HW1 1008   2.937   1.249   2.656
 1770SOL    HW2 1009   2.992   1.402   2.675
 1771SOL     OW 1010   2.181   0.810   2.811
 1771SOL    HW1 1011   2.274   0.846   2.816
 1771SOL    HW2 1012   2.175   0.725   2.863
 1775SOL     OW 1013   1.870   1.326   2.062
 1775SOL    HW1 1014   1.777   1.347   2.031
 1775SOL    HW2 1015   1.880   1.227   2.075
 1776SOL     OW 1016   1.950   1.801   2.789
 1776SOL    HW1 1017   1.908   1.715   2.762
 1776SOL    HW2 1018   2.044   1.804   2.755
 1777SOL     OW 1019   2.366   1.568   2.772
 1777SOL    HW1 1020   2.432   1.642   2.781
 1777SOL    HW2 1021   2.410   1.489   2.730
 1784SOL     OW 1022   2.114   1.564   3.606
 1784SOL    HW1 1023   2.084   1.621   3.682
 1784SOL    HW2 1024   2.107   1.467   3.632
 1786SOL     OW 1025   2.792   1.678   3.327
 1786SOL    HW1 1026   2.768   1.660   3.232
 1786SOL    HW2 1027   2.822   1.772   3.337
 1788SOL     OW 1028   2.021   1.137   3.328
 1788SOL    HW1 1029   2.043   1.076   3.404
 1788SOL    HW2 1030   2.031   1.088   3.242
 1789SOL     OW 1031   3.209   1.059   3.096
 1789SOL    HW1 1032   3.233   0.996   3.022
 1789SOL    HW2 1033   3.119   1.099   3.078
 1790SOL     OW 1034   3.164   0.855   2.171
 1790SOL    HW1 1035   3.078   0.824   2.213
 1790SOL    HW2 1036   3.160   0.841   2.072
 1791SOL     OW 1037   3.621   1.747   3.016
 1791SOL    HW1 1038   3.682   1.777   2.943
 1791SOL    HW2 1039   3.583   1.658   2.994
 1792SOL     OW 1040   3.114   1.731   2.990
 1792SOL    HW1 1041   3.198   1.736   2.936
 1792SOL    HW2 1042   3.091   1.635   3.008
 1793SOL     OW 1043   1.945   1.258   2.884
 1793SOL    HW1 1044   1.940   1.257   2.984
 1793SOL    HW2 1045   1.862   1.217   2.846
 1794SOL     OW 1046   2.550   1.662   3.578
 1794SOL    HW1 1047   2.494   1.743   3.587
 1794SOL    HW2 1048   2.602   1.666   3.492
 1796SOL     OW 1049   3.250   1.573   2.339
 1796SOL    HW1 1050   3.317   1.585   2.265
 1796SOL    HW2 1051   3.210   1.662   2.362
 1797SOL     OW 1052   1.992   1.794   3.713
 1797SOL    HW1 1053   1.951   1.720   3.766
 1797SOL    HW2 1054   2.056   1.845   3.771
 1798SOL     OW 1055   3.142   0.927   2.534
 1798SOL    HW1 1056   3.202   0.846   2.536
 1798SOL    HW2 1057   3.182   0.996   2.474
 1799SOL     OW 1058   2.692   1.273   3.284
 1799SOL    HW1 1059   2.687   1.306   3.379
 1799SOL    HW2 1060   2.606   1.292   3.238
 1800SOL     OW 1061   2.534   1.616   2.016
 1800SOL    HW1 1062   2.543   1.626   1.917
 1800SOL    HW2 1063   2.494   1.527   2.037
 1801SOL     OW 1064   3.512   1.720   3.256
 1801SOL    HW1 1065   3.565   1.730   3.172
 1801SOL    HW2 1066   3.485   1.810   3.290
 1804SOL     OW 1067   3.056   1.612   1.893
 1804SOL    HW1 1068   3.062   1.519   1.930
 1804SOL    HW2 1069   2.997   1.612   1.813
 1805SOL     OW 1070   2.684   1.002   3.234
 1805SOL    HW1 1071   2.724   1.001   3.142
 1805SOL    HW2 1072   2.694   1.094   3.274
 1806SOL     OW 1073   2.778   0.910   2.153
 1806SOL    HW1 1074   2.841   0.948   2.085
 1806SOL    HW2 1075   2.818   0.827   2.192
 1807SOL     OW 1076   3.366   1.607   1.906
 1807SOL    HW1 1077   3.274   1.644   1.913
 1807SOL    HW2 1078   3.404   1.627   1.816
 1808SOL     OW 1079   2.234   1.288   3.352
 1808SOL    HW1 1080   2.221   1.381   3.318
 1808SOL    HW2 1081   2.150   1.236   3.339
 1809SOL     OW 1082   3.476   1.292   3.151
 1809SOL    HW1 1083   3.536   1.295   3.231
 1809SOL    HW2 1084   3.401   1.356   3.164
 1810SOL     OW 1085   2.901   1.098   2.558
 1810SOL    HW1 1086   2.831   1.051   2.612
 1810SOL    HW2 1087   2.960   1.030   2.515
 1812SOL     OW 1088   2.452   1.487   2.353
 1812SOL    HW1 1089   2.494   1.429   2.283
 1812SOL    HW2 1090   2.408   1.566   2.309
 1814SOL     OW 1091   2.117   1.348   2.152
 1814SOL    HW1 1092   2.021   1.349   2.125
 1814SOL    HW2 1093   2.129   1.401   2.236
 1820SOL     OW 1094   3.045   1.335   1.981
 1820SOL    HW1 1095   2.946   1.324   1.983
 1820SOL    HW2 1096   3.079   1.350   2.074
 1822SOL     OW 1097   3.355   1.767   2.821
 1822SOL    HW1 1098   3.388   1.831   2.752
 1822SOL    HW2 1099   3.421   1.761   2.896
 1825SOL     OW 1100   2.252   1.741   3.422
 1825SOL    HW1 1101   2.161   1.782   3.420
 1825SOL    HW2 1102   2.245   1.647   3.454
 1828SOL     OW 1103   2.456   0.745   2.514
 1828SOL    HW1 1104   2.506   0.830   2.495
 1828SOL    HW2 1105   2.368   0.747   2.466
 1831SOL     OW 1106   2.721   1.374   1.878
 1831SOL    HW1 1107   2.675   1.389   1.966
 1831SOL    HW2 1108   2.765   1.459   1.848
 1832SOL     OW 1109   2.523   1.790   2.815
 1832SOL    HW1 1110   2.477   1.878   2.802
 1832SOL    HW2 1111   2.622   1.802   2.808
 1833SOL     OW 1112   2.721   0.956   2.723
 1833SOL    HW1 1113   2.775   0.887   2.771
 1833SOL    HW2 1114   2.689   1.025   2.789
 1834SOL     OW 1115   2.945   0.984   1.949
 1834SOL    HW1 1116   2.922   1.037   1.867
 1834SOL    HW2 1117   3.026   0.928   1.930
 1835SOL     OW 1118   3.723   1.569   2.713
 1835SOL    HW1 1119   3.652   1.557   2.643
 1835SOL    HW2 1120   3.724   1.490   2.773
 1836SOL     OW 1121   2.083   1.314   3.706
 1836SOL    HW1 1122   2.018   1.241   3.685
 1836SOL    HW2 1123   2.087   1.328   3.804
 1837SOL     OW 1124   1.941   1.240   2.515
 1837SOL    HW1 1125   1.940   1.193   2.603
 1837SOL    HW2 1126   2.023   1.212   2.464
 1838SOL     OW 1127   2.534   1.391   3.486
 1838SOL    HW1 1128   2.456   1.341   3.524
 1838SOL    HW2 1129   2.531   1.486   3.517
 1841SOL     OW 1130   3.567   1.487   2.966
 1841SOL    HW1 1131   3.474   1.462   2.939
 1841SOL    HW2 1132   3.593   1.437   3.048
 1843SOL     OW 1133   2.674   1.586   2.549
 1843SOL    HW1 1134   2.706   1.596   2.455
 1843SOL    HW2 1135   2.595   1.524   2.551
 1846SOL     OW 1136   2.632   1.330   2.163
 1846SOL    HW1 1137   2.586   1.243   2.180
 1846SOL    HW2 1138   2.723   1.327   2.204
 1847SOL     OW 1139   2.480   1.567   3.146
 1847SOL    HW1 1140   2.475   1.649   3.203
 1847SOL    HW2 1141   2.569   1.564   3.101
 1851SOL     OW 1142   1.901   1.077   2.162
 1851SOL    HW1 1143   2.000   1.066   2.153
 1851SOL    HW2 1144   1.861   0.991   2.194
 1852SOL     OW 1145   2.737   1.646   2.199
 1852SOL    HW1 1146   2.660   1.611   2.145
 1852SOL    HW2 1147   2.705   1.717   2.261
 1869SOL     OW 1148   1.889   1.596   3.841
 1869SOL    HW1 1149   1.870   1.500   3.862
 1869SOL    HW2 1150   1.856   1.654   3.916
 1890SOL     OW 1151   2.973   1.776   3.961
 1890SOL    HW1 1152   2.913   1.714   4.011
 1890SOL    HW2 1153   3.004   1.732   3.876
 1892SOL     OW 1154   2.326   1.743   4.047
 1892SOL    HW1 1155   2.359   1.782   4.133
 1892SOL    HW2 1156   2.402   1.736   3.982
 1947SOL     OW 1157   2.534   1.616   3.878
 1947SOL    HW1 1158   2.543   1.626   3.779
 1947SOL    HW2 1159   2.494   1.527   3.899
 1950SOL     OW 1160   3.056   1.612   3.755
 1950SOL    HW1 1161   3.062   1.519   3.792
 1950SOL    HW2 1162   2.997   1.612   3.675
 1964SOL     OW 1163   2.721   1.374   3.740
 1964SOL    HW1 1164   2.675   1.389   3.828
 1964SOL    HW2 1165   2.765   1.459   3.710
 1980SOL     OW 1166   2.087   2.137   0.996
 1980SOL    HW1 1167   2.122   2.120   1.088
 1980SOL    HW2 1168   1.999   2.092   0.984
 1982SOL     OW 1169   2.431   3.137   1.165
 1982SOL    HW1 1170   2.338   3.130   1.128
 1982SOL    HW2 1171   2.442   3.226   1.209
 1986SOL     OW 1172   2.630   3.006   1.023
 1986SOL    HW1 1173   2.552   3.023   1.083
 1986SOL    HW2 1174   2.664   3.093   0.987
 1987SOL     OW 1175   2.712   2.660   1.823
 1987SOL    HW1 1176   2.708   2.736   1.888
 1987SOL    HW2 1177   2.734   2.696   1.732
 1989SOL     OW 1178   2.548   3.023   1.803
 1989SOL    HW1 1179   2.608   3.102   1.817
 1989SOL    HW2 1180   2.462   3.054   1.762
 1990SOL     OW 1181   2.197   3.297   1.061
 1990SOL    HW1 1182   2.119   3.266   1.008
 1990SOL    HW2 1183   2.255   3.355   1.004
 1991SOL     OW 1184   3.322   3.367   1.339
 1991SOL    HW1 1185   3.346   3.461   1.365
 1991SOL    HW2 1186   3.306   3.313   1.421
 1992SOL     OW 1187   2.300   2.254   1.499
 1992SOL    HW1 1188   2.382   2.198   1.508
 1992SOL    HW2 1189   2.219   2.196   1.503
 1995SOL     OW 1190   2.989   3.203   1.690
 1995SOL    HW1 1191   3.036   3.203   1.778
 1995SOL    HW2 1192   2.941   3.116   1.679
 1997SOL     OW 1193   2.102   2.953   0.886
 1997SOL    HW1 1194   2.116   2.869   0.938
 1997SOL    HW2 1195   2.047   3.017   0.941
 1998SOL     OW 1196   2.482   3.648   1.439
 1998SOL    HW1 1197   2.390   3.631   1.474
 1998SOL    HW2 1198   2.510   3.740   1.465
 2000SOL     OW 1199   3.456   1.976   1.480
 2000SOL    HW1 1200   3.438   2.043   1.408
 2000SOL    HW2 1201   3.453   2.022   1.569
 2006SOL     OW 1202   1.975   2.599   1.597
 2006SOL    HW1 1203   2.063   2.586   1.642
 2006SOL    HW2 1204   1.962   2.696   1.575
 2008SOL     OW 1205   3.155   3.090   1.423
 2008SOL    HW1 1206   3.192   3.017   1.365
 2008SOL    HW2 1207   3.207   3.095   1.508
 2010SOL     OW 1208   2.059   2.838   1.264
 2010SOL    HW1 1209   2.148   2.793   1.250
 2010SOL    HW2 1210   1.986   2.773   1.245
 2012SOL     OW 1211   3.049   3.654   1.616
 2012SOL    HW1 1212   3.073   3.714   1.540
 2012SOL    HW2 1213   3.056   3.559   1.586
 2013SOL     OW 1214   2.179   2.113   1.801
 2013SOL    HW1 1215   2.250   2.184   1.807
 2013SOL    HW2 1216   2.091   2.152   1.829
 2017SOL     OW 1217   3.143   2.207   0.944
 2017SOL    HW1 1218   3.057   2.157   0.931
 2017SOL    HW2 1219   3.205   2.153   1.000
 2019SOL     OW 1220   2.669   2.467   1.465
 2019SOL    HW1 1221   2.622   2.464   1.554
 2019SOL    HW2 1222   2.618   2.412   1.399
 2020SOL     OW 1223   3.256   2.331   1.674
 2020SOL    HW1 1224   3.236   2.374   1.762
 2020SOL    HW2 1225   3.334   2.269   1.683
 2021SOL     OW 1226   2.835   2.752   1.572
 2021SOL    HW1 1227   2.881   2.668   1.543
 2021SOL    HW2 1228   2.779   2.786   1.497
 2022SOL     OW 1229   2.853   2.272   1.242
 2022SOL    HW1 1230   2.776   2.306   1.296
 2022SOL    HW2 1231   2.819   2.221   1.163
 2024SOL     OW 1232   1.938   2.673   0.789
 2024SOL    HW1 1233   2.037   2.661   0.798
 2024SOL    HW2 1234   1.914   2.768   0.810
 2025SOL     OW 1235   1.992   3.683   1.571
 2025SOL    HW1 1236   1.982   3.668   1.670
 2025SOL    HW2 1237   1.906   3.719   1.535
 2027SOL     OW 1238   3.581   2.447   1.831
 2027SOL    HW1 1239   3.555   2.536   1.795
 2027SOL    HW2 1240   3.579   2.379   1.758
 2029SOL     OW 1241   2.412   2.058   0.885
 2029SOL    HW1 1242   2.407   2.053   0.985
 2029SOL    HW2 1243   2.414   2.154   0.856
 2033SOL     OW 1244   3.089   3.412   1.506
 2033SOL    HW1 1245   3.095   3.335   1.570
 2033SOL    HW2 1246   3.037   3.386   1.426
 2036SOL     OW 1247   2.323   3.128   1.727
 2036SOL    HW1 1248   2.273   3.129   1.641
 2036SOL    HW2 1249   2.260   3.110   1.803
 2038SOL     OW 1250   2.064   2.147   1.498
 2038SOL    HW1 1251   1.984   2.207   1.485
 2038SOL    HW2 1252   2.054   2.098   1.584
 2042SOL     OW 1253   2.111   3.647   1.241
 2042SOL    HW1 1254   2.168   3.582   1.291
 2042SOL    HW2 1255   2.095   3.614   1.148
 2045SOL     OW 1256   3.409   2.084   1.729
 2045SOL    HW1 1257   3.404   2.121   1.821
 2045SOL    HW2 1258   3.337   2.015   1.717
 2047SOL     OW 1259   2.643   2.126   1.749
 2047SOL    HW1 1260   2.710   2.065   1.792
 2047SOL    HW2 1261   2.570   2.145   1.814
 2048SOL     OW 1262   2.750   3.376   1.195
 2048SOL    HW1 1263   2.727   3.351   1.101
 2048SOL    HW2 1264   2.811   3.307   1.234
 2049SOL     OW 1265   3.213   2.452   1.433
 2049SOL    HW1 1266   3.241   2.409   1.518
 2049SOL    HW2 1267   3.238   2.548   1.434
 2050SOL     OW 1268   2.665   3.264   0.924
 2050SOL    HW1 1269   2.755   3.278   0.882
 2050SOL    HW2 1270   2.594   3.266   0.853
 2051SOL     OW 1271   2.784   2.365   0.899
 2051SOL    HW1 1272   2.759   2.356   0.803
 2051SOL    HW2 1273   2.832   2.283   0.930
 2055SOL     OW 1274   2.938   2.545   1.464
 2055SOL    HW1 1275   2.858   2.484   1.467
 2055SOL    HW2 1276   3.019   2.492   1.440
 2057SOL     OW 1277   2.321   3.014   0.741
 2057SOL    HW1 1278   2.250   2.987   0.806
 2057SOL    HW2 1279   2.295   2.986   0.648
 2060SOL     OW 1280   1.940   2.418   1.386
 2060SOL    HW1 1281   2.032   2.417   1.345
 2060SOL    HW2 1282   1.934   2.492   1.453
 2061SOL     OW 1283   2.423   2.084   1.147
 2061SOL    HW1 1284   2.461   2.000   1.184
 2061SOL    HW2 1285   2.335   2.103   1.191
 2065SOL     OW 1286   3.328   2.452   0.992
 2065SOL    HW1 1287   3.298   2.357   0.999
 2065SOL    HW2 1288   3.401   2.468   1.058
 2071SOL     OW 1289   3.616   3.085   1.588
 2071SOL    HW1 1290   3.707   3.046   1.575
 2071SOL    HW2 1291   3.624   3.181   1.612
 2072SOL     OW 1292   2.926   3.209   1.340
 2072SOL    HW1 1293   2.846   3.186   1.395
 2072SOL    HW2 1294   3.009   3.183   1.389
 2073SOL     OW 1295   3.454   3.491   1.625
 2073SOL    HW1 1296   3.481   3.525   1.535
 2073SOL    HW2 1297   3.533   3.453   1.671
 2074SOL     OW 1298   2.973   3.057   1.100
 2074SOL    HW1 1299   2.933   3.101   1.181
 2074SOL    HW2 1300   2.932   3.094   1.017
 2076SOL     OW 1301   2.777   1.951   1.402
 2076SOL    HW1 1302   2.802   1.931   1.307
 2076SOL    HW2 1303   2.849   2.007   1.444
 2077SOL     OW 1304   2.842   2.978   1.719
 2077SOL    HW1 1305   2.743   2.984   1.729
 2077SOL    HW2 1306   2.865   2.898   1.663
 2079SOL     OW 1307   2.272   2.675   1.251
 2079SOL    HW1 1308   2.358   2.687   1.301
 2079SOL    HW2 1309   2.230   2.588   1.278
 2080SOL     OW 1310   3.136   2.248   1.262
 2080SOL    HW1 1311   3.157   2.322   1.326
 2080SOL    HW2 1312   3.047   2.265   1.219
 2081SOL     OW 1313   1.926   3.426   1.331
 2081SOL    HW1 1314   1.880   3.508   1.297
 2081SOL    HW2 1315   2.024   3.445   1.340
 2083SOL     OW 1316   2.428   2.399   0.865
 2083SOL    HW1 1317   2.440   2.465   0.791
 2083SOL    HW2 1318   2.474   2.433   0.948
 2085SOL     OW 1319   3.134   3.307   1.142
 2085SOL    HW1 1320   3.181   3.320   1.229
 2085SOL    HW2 1321   3.068   3.233   1.151
 2087SOL     OW 1322   2.216   3.372   1.329
 2087SOL    HW1 1323   2.195   3.328   1.242
 2087SOL    HW2 1324   2.313   3.398   1.332
 2088SOL     OW 1325   2.264   2.613   1.598
 2088SOL    HW1 1326   2.332   2.668   1.551
 2088SOL    HW2 1327   2.304   2.525   1.625
 2089SOL     OW 1328   3.449   2.641   1.670
 2089SOL    HW1 1329   3.357   2.679   1.665
 2089SOL    HW2 1330   3.509   2.688   1.605
 2090SOL     OW 1331   2.875   1.967   1.770
 2090SOL    HW1 1332   2.881   2.052   1.718
 2090SOL    HW2 1333   2.907   1.891   1.713
 2091SOL     OW 1334   2.366   1.912   1.740
 2091SOL    HW1 1335   2.324   1.855   1.670
 2091SOL    HW2 1336   2.300   1.981   1.772
 2092SOL     OW 1337   2.435   2.732   1.029
 2092SOL    HW1 1338   2.479   2.821   1.020
 2092SOL    HW2 1339   2.372   2.732   1.106
 2093SOL     OW 1340   3.222   2.724   1.045
 2093SOL    HW1 1341   3.147   2.724   0.979
 2093SOL    HW2 1342   3.259   2.632   1.054
 2095SOL     OW 1343   2.169   2.075   1.231
 2095SOL    HW1 1344   2.146   2.112   1.321
 2095SOL    HW2 1345   2.139   1.980   1.225
 2096SOL     OW 1346   1.899   3.172   1.282
 2096SOL    HW1 1347   1.952   3.123   1.350
 2096SOL    HW2 1348   1.921   3.270   1.287
 2097SOL     OW 1349   2.594   2.496   1.064
 2097SOL    HW1 1350   2.653   2.470   0.988
 2097SOL    HW2 1351   2.566   2.592   1.053
 2098SOL     OW 1352   3.590   2.797   1.854
 2098SOL    HW1 1353   3.544   2.790   1.765
 2098SOL    HW2 1354   3.528   2.841   1.920
 2101SOL     OW 1355   2.885   2.628   0.966
 2101SOL    HW1 1356   2.900   2.649   1.062
 2101SOL    HW2 1357   2.855   2.533   0.957
 2102SOL     OW 1358   2.842   3.435   1.700
 2102SOL    HW1 1359   2.822   3.479   1.612
 2102SOL    HW2 1360   2.881   3.344   1.684
 2104SOL     OW 1361   2.212   2.760   1.804
 2104SOL    HW1 1362   2.288   2.804   1.852
 2104SOL    HW2 1363   2.247   2.713   1.722
 2108SOL     OW 1364   2.181   2.672   0.949
 2108SOL    HW1 1365   2.274   2.708   0.954
 2108SOL    HW2 1366   2.175   2.587   1.001
 2109SOL     OW 1367   2.201   2.371   1.006
 2109SOL    HW1 1368   2.149   2.288   0.989
 2109SOL    HW2 1369   2.278   2.376   0.942
 2110SOL     OW 1370   3.000   2.242   1.678
 2110SOL    HW1 1371   2.955   2.305   1.742
 2110SOL    HW2 1372   3.093   2.273   1.661
 2111SOL     OW 1373   3.022   2.069   1.477
 2111SOL    HW1 1374   3.022   2.133   1.554
 2111SOL    HW2 1375   3.050   2.117   1.394
 2115SOL     OW 1376   2.864   2.658   1.238
 2115SOL    HW1 1377   2.905   2.626   1.324
 2115SOL    HW2 1378   2.768   2.631   1.235
 2116SOL     OW 1379   1.902   2.406   1.114
 2116SOL    HW1 1380   1.987   2.373   1.073
 2116SOL    HW2 1381   1.915   2.421   1.212
 2117SOL     OW 1382   2.051   2.382   1.722
 2117SOL    HW1 1383   2.110   2.342   1.652
 2117SOL    HW2 1384   1.993   2.453   1.681
 2118SOL     OW 1385   3.231   2.812   1.660
 2118SOL    HW1 1386   3.270   2.901   1.680
 2118SOL    HW2 1387   3.241   2.792   1.563
 2120SOL     OW 1388   3.519   2.466   1.206
 2120SOL    HW1 1389   3.481   2.397   1.268
 2120SOL    HW2 1390   3.601   2.430   1.162
 2121SOL     OW 1391   2.114   3.426   1.744
 2121SOL    HW1 1392   2.084   3.483   1.820
 2121SOL    HW2 1393   2.107   3.329   1.770
 2122SOL     OW 1394   2.533   2.326   1.269
 2122SOL    HW1 1395   2.499   2.237   1.239
 2122SOL    HW2 1396   2.559   2.380   1.189
 2123SOL     OW 1397   2.792   3.540   1.465
 2123SOL    HW1 1398   2.768   3.522   1.370
 2123SOL    HW2 1399   2.822   3.634   1.475
 2125SOL     OW 1400   2.021   2.999   1.466
 2125SOL    HW1 1401   2.043   2.938   1.542
 2125SOL    HW2 1402   2.031   2.950   1.380
 2126SOL     OW 1403   3.209   2.921   1.234
 2126SOL    HW1 1404   3.233   2.858   1.160
 2126SOL    HW2 1405   3.119   2.961   1.216
 2130SOL     OW 1406   1.945   3.120   1.022
 2130SOL    HW1 1407   1.940   3.119   1.122
 2130SOL    HW2 1408   1.862   3.079   0.984
 2131SOL     OW 1409   2.550   3.524   1.716
 2131SOL    HW1 1410   2.494   3.605   1.725
 2131SOL    HW2 1411   2.602   3.528   1.630
 2135SOL     OW 1412   1.992   3.656   1.851
 2135SOL    HW1 1413   1.951   3.582   1.904
 2135SOL    HW2 1414   2.056   3.707   1.909
 2137SOL     OW 1415   2.692   3.135   1.422
 2137SOL    HW1 1416   2.687   3.168   1.517
 2137SOL    HW2 1417   2.606   3.154   1.376
 2141SOL     OW 1418   2.125   2.188   0.720
 2141SOL    HW1 1419   2.046   2.239   0.686
 2141SOL    HW2 1420   2.116   2.173   0.818
 2143SOL     OW 1421   2.684   2.864   1.372
 2143SOL    HW1 1422   2.724   2.863   1.280
 2143SOL    HW2 1423   2.694   2.956   1.412
 2146SOL     OW 1424   2.234   3.150   1.490
 2146SOL    HW1 1425   2.221   3.243   1.456
 2146SOL    HW2 1426   2.150   3.098   1.477
 2147SOL     OW 1427   3.476   3.154   1.289
 2147SOL    HW1 1428   3.536   3.157   1.369
 2147SOL    HW2 1429   3.401   3.218   1.302
 2149SOL     OW 1430   2.876   2.098   0.971
 2149SOL    HW1 1431   2.868   2.062   0.878
 2149SOL    HW2 1432   2.874   2.022   1.036
 2151SOL     OW 1433   3.571   2.247   1.381
 2151SOL    HW1 1434   3.644   2.316   1.385
 2151SOL    HW2 1435   3.599   2.172   1.322
 2153SOL     OW 1436   1.967   2.875   1.726
 2153SOL    HW1 1437   1.890   2.842   1.780
 2153SOL    HW2 1438   2.052   2.845   1.768
 2154SOL     OW 1439   2.534   2.065   1.489
 2154SOL    HW1 1440   2.624   2.049   1.449
 2154SOL    HW2 1441   2.542   2.070   1.588
 2156SOL     OW 1442   3.302   2.718   1.398
 2156SOL    HW1 1443   3.245   2.770   1.335
 2156SOL    HW2 1444   3.398   2.730   1.374
 2159SOL     OW 1445   2.475   2.704   1.431
 2159SOL    HW1 1446   2.531   2.785   1.414
 2159SOL    HW2 1447   2.534   2.624   1.434
 2161SOL     OW 1448   2.578   2.427   1.708
 2161SOL    HW1 1449   2.597   2.492   1.782
 2161SOL    HW2 1450   2.638   2.347   1.717
 2162SOL     OW 1451   3.312   3.082   1.633
 2162SOL    HW1 1452   3.303   3.072   1.732
 2162SOL    HW2 1453   3.408   3.075   1.607
 2163SOL     OW 1454   2.252   3.603   1.560
 2163SOL    HW1 1455   2.161   3.644   1.558
 2163SOL    HW2 1456   2.245   3.509   1.592
 2164SOL     OW 1457   3.536   2.745   1.254
 2164SOL    HW1 1458   3.509   2.656   1.217
 2164SOL    HW2 1459   3.537   2.813   1.181
 2166SOL     OW 1460   2.456   2.607   0.652
 2166SOL    HW1 1461   2.506   2.692   0.633
 2166SOL    HW2 1462   2.368   2.609   0.604
 2167SOL     OW 1463   3.639   2.204   1.642
 2167SOL    HW1 1464   3.622   2.235   1.548
 2167SOL    HW2 1465   3.555   2.167   1.680
 2168SOL     OW 1466   3.592   2.796   1.517
 2168SOL    HW1 1467   3.630   2.887   1.532
 2168SOL    HW2 1468   3.584   2.779   1.418
 2171SOL     OW 1469   2.721   2.818   0.861
 2171SOL    HW1 1470   2.775   2.749   0.909
 2171SOL    HW2 1471   2.689   2.887   0.927
 2174SOL     OW 1472   2.083   3.176   1.844
 2174SOL    HW1 1473   2.018   3.103   1.823
 2174SOL    HW2 1474   2.087   3.190   1.942
 2176SOL     OW 1475   2.534   3.253   1.624
 2176SOL    HW1 1476   2.456   3.203   1.662
 2176SOL    HW2 1477   2.531   3.348   1.655
 2177SOL     OW 1478   3.686   2.054   1.227
 2177SOL    HW1 1479   3.682   1.964   1.271
 2177SOL    HW2 1480   3.689   2.043   1.128
 2180SOL     OW 1481   2.179   2.409   1.280
 2180SOL    HW1 1482   2.217   2.350   1.352
 2180SOL    HW2 1483   2.219   2.383   1.192
 2182SOL     OW 1484   3.286   2.076   1.112
 2182SOL    HW1 1485   3.338   2.011   1.167
 2182SOL    HW2 1486   3.237   2.139   1.173
 2183SOL     OW 1487   2.863   1.896   1.154
 2183SOL    HW1 1488   2.800   1.824   1.123
 2183SOL    HW2 1489   2.956   1.860   1.154
 2185SOL     OW 1490   2.480   3.429   1.284
 2185SOL    HW1 1491   2.475   3.511   1.341
 2185SOL    HW2 1492   2.569   3.426   1.239
 2191SOL     OW 1493   2.092   2.490   1.975
 2191SOL    HW1 1494   1.999   2.488   2.012
 2191SOL    HW2 1495   2.093   2.451   1.883
 2192SOL     OW 1496   2.087   2.137   2.858
 2192SOL    HW1 1497   2.122   2.120   2.950
 2192SOL    HW2 1498   1.999   2.092   2.846
 2193SOL     OW 1499   1.881   2.230   2.509
 2193SOL    HW1 1500   1.799   2.273   2.548
 2193SOL    HW2 1501   1.853   2.157   2.446
 2194SOL     OW 1502   2.431   3.137   3.027
 2194SOL    HW1 1503   2.338   3.130   2.990
 2194SOL    HW2 1504   2.442   3.226   3.071
 2195SOL     OW 1505   3.417   3.373   2.565
 2195SOL    HW1 1506   3.360   3.357   2.646
 2195SOL    HW2 1507   3.358   3.383   2.485
 2196SOL     OW 1508   2.997   2.565   2.579
 2196SOL    HW1 1509   3.054   2.643   2.554
 2196SOL    HW2 1510   2.937   2.591   2.655
 2197SOL     OW 1511   3.617   2.469   2.093
 2197SOL    HW1 1512   3.605   2.456   1.994
 2197SOL    HW2 1513   3.587   2.388   2.142
 2198SOL     OW 1514   2.630   3.006   2.885
 2198SOL    HW1 1515   2.552   3.023   2.945
 2198SOL    HW2 1516   2.664   3.093   2.849
 2199SOL     OW 1517   2.712   2.660   3.685
 2199SOL    HW1 1518   2.708   2.736   3.750
 2199SOL    HW2 1519   2.734   2.696   3.594
 2200SOL     OW 1520   2.547   2.874   2.527
 2200SOL    HW1 1521   2.616   2.858   2.597
 2200SOL    HW2 1522   2.474   2.931   2.565
 2201SOL     OW 1523   2.548   3.023   3.665
 2201SOL    HW1 1524   2.608   3.102   3.679
 2201SOL    HW2 1525   2.462   3.054   3.624
 2202SOL     OW 1526   2.197   3.297   2.923
 2202SOL    HW1 1527   2.119   3.266   2.870
 2202SOL    HW2 1528   2.255   3.355   2.866
 2203SOL     OW 1529   3.322   3.367   3.201
 2203SOL    HW1 1530   3.346   3.461   3.227
 2203SOL    HW2 1531   3.306   3.313   3.283
 2204SOL     OW 1532   2.300   2.254   3.361
 2204SOL    HW1 1533   2.382   2.198   3.370
 2204SOL    HW2 1534   2.219   2.196   3.365
 2205SOL     OW 1535   3.465   2.309   2.599
 2205SOL    HW1 1536   3.391   2.355   2.549
 2205SOL    HW2 1537   3.516   2.377   2.652
 2206SOL     OW 1538   2.093   3.575   2.345
 2206SOL    HW1 1539   2.127   3.652   2.399
 2206SOL    HW2 1540   2.137   3.575   2.255
 2207SOL     OW 1541   2.989   3.203   3.552
 2207SOL    HW1 1542   3.036   3.203   3.640
 2207SOL    HW2 1543   2.941   3.116   3.541
 2208SOL     OW 1544   2.092   3.296   2.400
 2208SOL    HW1 1545   2.066   3.392   2.400
 2208SOL    HW2 1546   2.021   3.242   2.445
 2209SOL     OW 1547   2.102   2.953   2.748
 2209SOL    HW1 1548   2.116   2.869   2.800
 2209SOL    HW2 1549   2.047   3.017   2.803
 2210SOL     OW 1550   2.482   3.648   3.301
 2210SOL    HW1 1551   2.390   3.631   3.336
 2210SOL    HW2 1552   2.510   3.740   3.327
 2211SOL     OW 1553   2.468   2.826   1.985
 2211SOL    HW1 1554   2.475   2.910   1.931
 2211SOL    HW2 1555   2.514   2.839   2.073
 2212SOL     OW 1556   3.456   1.976   3.342
 2212SOL    HW1 1557   3.438   2.043   3.270
 2212SOL    HW2 1558   3.453   2.022   3.431
 2213SOL     OW 1559   1.984   2.505   2.425
 2213SOL    HW1 1560   1.939   2.417   2.442
 2213SOL    HW2 1561   1.983   2.559   2.509
 2214SOL     OW 1562   3.704   3.629   2.221
 2214SOL    HW1 1563   3.758   3.600   2.301
 2214SOL    HW2 1564   3.734   3.719   2.192
 2215SOL     OW 1565   1.889   3.458   1.979
 2215SOL    HW1 1566   1.870   3.362   2.000
 2215SOL    HW2 1567   1.856   3.516   2.054
 2216SOL     OW 1568   3.551   2.784   2.474
 2216SOL    HW1 1569   3.646   2.755   2.482
 2216SOL    HW2 1570   3.543   2.849   2.399
 2217SOL     OW 1571   3.503   2.970   2.294
 2217SOL    HW1 1572   3.589   2.972   2.242
 2217SOL    HW2 1573   3.517   3.017   2.382
 2218SOL     OW 1574   1.975   2.599   3.459
 2218SOL    HW1 1575   2.063   2.586   3.504
 2218SOL    HW2 1576   1.962   2.696   3.437
 2219SOL     OW 1577   2.475   3.227   2.588
 2219SOL    HW1 1578   2.426   3.140   2.597
 2219SOL    HW2 1579   2.452   3.270   2.501
 2220SOL     OW 1580   3.155   3.090   3.285
 2220SOL    HW1 1581   3.192   3.017   3.227
 2220SOL    HW2 1582   3.207   3.095   3.370
 2221SOL     OW 1583   2.671   1.866   2.364
 2221SOL    HW1 1584   2.711   1.957   2.355
 2221SOL    HW2 1585   2.571   1.874   2.370
 2222SOL     OW 1586   2.059   2.838   3.126
 2222SOL    HW1 1587   2.148   2.793   3.112
 2222SOL    HW2 1588   1.986   2.773   3.107
 2223SOL     OW 1589   3.387   2.861   2.052
 2223SOL    HW1 1590   3.324   2.785   2.065
 2223SOL    HW2 1591   3.435   2.879   2.138
 2224SOL     OW 1592   3.049   3.654   3.478
 2224SOL    HW1 1593   3.073   3.714   3.402
 2224SOL    HW2 1594   3.056   3.559   3.448
 2225SOL     OW 1595   2.179   2.113   3.663
 2225SOL    HW1 1596   2.250   2.184   3.669
 2225SOL    HW2 1597   2.091   2.152   3.691
 2226SOL     OW 1598   3.328   3.279   2.815
 2226SOL    HW1 1599   3.269   3.285   2.895
 2226SOL    HW2 1600   3.313   3.191   2.769
 2227SOL     OW 1601   3.529   3.576   2.434
 2227SOL    HW1 1602   3.488   3.553   2.346
 2227SOL    HW2 1603   3.511   3.502   2.499
 2228SOL     OW 1604   2.460   2.591   2.132
 2228SOL    HW1 1605   2.484   2.660   2.064
 2228SOL    HW2 1606   2.382   2.624   2.186
 2229SOL     OW 1607   3.143   2.207   2.806
 2229SOL    HW1 1608   3.057   2.157   2.793
 2229SOL    HW2 1609   3.205   2.153   2.862
 2230SOL     OW 1610   3.438   3.524   2.169
 2230SOL    HW1 1611   3.527   3.570   2.172
 2230SOL    HW2 1612   3.417   3.500   2.074
 2231SOL     OW 1613   2.669   2.467   3.327
 2231SOL    HW1 1614   2.622   2.464   3.416
 2231SOL    HW2 1615   2.618   2.412   3.261
 2232SOL     OW 1616   3.256   2.331   3.536
 2232SOL    HW1 1617   3.236   2.374   3.624
 2232SOL    HW2 1618   3.334   2.269   3.545
 2233SOL     OW 1619   2.835   2.752   3.434
 2233SOL    HW1 1620   2.881   2.668   3.405
 2233SOL    HW2 1621   2.779   2.786   3.359
 2234SOL     OW 1622   2.853   2.272   3.104
 2234SOL    HW1 1623   2.776   2.306   3.158
 2234SOL    HW2 1624   2.819   2.221   3.025
 2235SOL     OW 1625   2.903   2.563   2.291
 2235SOL    HW1 1626   2.929   2.559   2.387
 2235SOL    HW2 1627   2.818   2.512   2.277
 2236SOL     OW 1628   1.938   2.673   2.651
 2236SOL    HW1 1629   2.037   2.661   2.660
 2236SOL    HW2 1630   1.914   2.768   2.672
 2237SOL     OW 1631   1.992   3.683   3.433
 2237SOL    HW1 1632   1.982   3.668   3.532
 2237SOL    HW2 1633   1.906   3.719   3.397
 2238SOL     OW 1634   2.727   2.210   2.057
 2238SOL    HW1 1635   2.786   2.273   2.008
 2238SOL    HW2 1636   2.746   2.116   2.028
 2239SOL     OW 1637   3.581   2.447   3.693
 2239SOL    HW1 1638   3.555   2.536   3.657
 2239SOL    HW2 1639   3.579   2.379   3.620
 2240SOL     OW 1640   3.224   3.006   2.407
 2240SOL    HW1 1641   3.307   2.977   2.359
 2240SOL    HW2 1642   3.175   3.073   2.351
 2241SOL     OW 1643   2.412   2.058   2.747
 2241SOL    HW1 1644   2.407   2.053   2.847
 2241SOL    HW2 1645   2.414   2.154   2.718
 2242SOL     OW 1646   2.870   3.318   2.339
 2242SOL    HW1 1647   2.824   3.390   2.287
 2242SOL    HW2 1648   2.866   3.338   2.437
 2243SOL     OW 1649   2.213   3.663   2.715
 2243SOL    HW1 1650   2.263   3.577   2.721
 2243SOL    HW2 1651   2.278   3.740   2.712
 2244SOL     OW 1652   3.657   2.928   2.735
 2244SOL    HW1 1653   3.595   2.913   2.659
 2244SOL    HW2 1654   3.605   2.939   2.820
 2245SOL     OW 1655   3.089   3.412   3.368
 2245SOL    HW1 1656   3.095   3.335   3.432
 2245SOL    HW2 1657   3.037   3.386   3.288
 2246SOL     OW 1658   2.183   2.805   2.104
 2246SOL    HW1 1659   2.265   2.844   2.062
 2246SOL    HW2 1660   2.156   2.723   2.055
 2247SOL     OW 1661   3.320   2.597   2.590
 2247SOL    HW1 1662   3.315   2.532   2.665
 2247SOL    HW2 1663   3.400   2.656   2.603
 2248SOL     OW 1664   2.323   3.128   3.589
 2248SOL    HW1 1665   2.273   3.129   3.503
 2248SOL    HW2 1666   2.260   3.110   3.665
 2249SOL     OW 1667   2.973   3.638   2.099
 2249SOL    HW1 1668   2.913   3.576   2.149
 2249SOL    HW2 1669   3.004   3.594   2.014
 2250SOL     OW 1670   2.064   2.147   3.360
 2250SOL    HW1 1671   1.984   2.207   3.347
 2250SOL    HW2 1672   2.054   2.098   3.446
 2251SOL     OW 1673   3.494   3.239   1.943
 2251SOL    HW1 1674   3.462   3.333   1.933
 2251SOL    HW2 1675   3.418   3.176   1.931
 2252SOL     OW 1676   2.326   3.605   2.185
 2252SOL    HW1 1677   2.359   3.644   2.271
 2252SOL    HW2 1678   2.402   3.598   2.120
 2253SOL     OW 1679   3.262   1.969   2.288
 2253SOL    HW1 1680   3.238   1.932   2.198
 2253SOL    HW2 1681   3.361   1.985   2.292
 2254SOL     OW 1682   2.111   3.647   3.103
 2254SOL    HW1 1683   2.168   3.582   3.153
 2254SOL    HW2 1684   2.095   3.614   3.010
 2255SOL     OW 1685   2.802   3.560   2.766
 2255SOL    HW1 1686   2.882   3.503   2.787
 2255SOL    HW2 1687   2.753   3.520   2.689
 2256SOL     OW 1688   3.409   2.084   3.591
 2256SOL    HW1 1689   3.404   2.121   3.683
 2256SOL    HW2 1690   3.337   2.015   3.579
 2257SOL     OW 1691   2.476   1.984   1.979
 2257SOL    HW1 1692   2.574   1.962   1.986
 2257SOL    HW2 1693   2.445   1.967   1.886
 2258SOL     OW 1694   2.643   2.126   3.611
 2258SOL    HW1 1695   2.710   2.065   3.654
 2258SOL    HW2 1696   2.570   2.145   3.676
 2259SOL     OW 1697   2.750   3.376   3.057
 2259SOL    HW1 1698   2.727   3.351   2.963
 2259SOL    HW2 1699   2.811   3.307   3.096
 2260SOL     OW 1700   3.213   2.452   3.295
 2260SOL    HW1 1701   3.241   2.409   3.380
 2260SOL    HW2 1702   3.238   2.548   3.296
 2261SOL     OW 1703   2.665   3.264   2.786
 2261SOL    HW1 1704   2.755   3.278   2.744
 2261SOL    HW2 1705   2.594   3.266   2.715
 2262SOL     OW 1706   2.784   2.365   2.761
 2262SOL    HW1 1707   2.759   2.356   2.665
 2262SOL    HW2 1708   2.832   2.283   2.792
 2263SOL     OW 1709   2.401   1.926   2.374
 2263SOL    HW1 1710   2.320   1.927   2.432
 2263SOL    HW2 1711   2.404   2.009   2.319
 2264SOL     OW 1712   3.296   3.050   1.903
 2264SOL    HW1 1713   3.328   2.974   1.960
 2264SOL    HW2 1714   3.204   3.077   1.933
 2265SOL     OW 1715   2.159   1.897   2.033
 2265SOL    HW1 1716   2.208   1.981   2.012
 2265SOL    HW2 1717   2.221   1.832   2.078
 2266SOL     OW 1718   2.797   2.098   2.342
 2266SOL    HW1 1719   2.749   2.139   2.264
 2266SOL    HW2 1720   2.896   2.096   2.323
 2267SOL     OW 1721   2.938   2.545   3.326
 2267SOL    HW1 1722   2.858   2.484   3.329
 2267SOL    HW2 1723   3.019   2.492   3.302
 2268SOL     OW 1724   3.089   3.432   2.655
 2268SOL    HW1 1725   3.110   3.506   2.590
 2268SOL    HW2 1726   3.157   3.432   2.728
 2269SOL     OW 1727   2.321   3.014   2.603
 2269SOL    HW1 1728   2.250   2.987   2.668
 2269SOL    HW2 1729   2.295   2.986   2.510
 2270SOL     OW 1730   3.133   3.659   2.453
 2270SOL    HW1 1731   3.177   3.723   2.389
 2270SOL    HW2 1732   3.083   3.711   2.523
 2271SOL     OW 1733   2.894   2.411   1.878
 2271SOL    HW1 1734   2.853   2.493   1.839
 2271SOL    HW2 1735   2.958   2.437   1.951
 2272SOL     OW 1736   1.940   2.418   3.248
 2272SOL    HW1 1737   2.032   2.417   3.207
 2272SOL    HW2 1738   1.934   2.492   3.315
 2273SOL     OW 1739   2.423   2.084   3.009
 2273SOL    HW1 1740   2.461   2.000   3.046
 2273SOL    HW2 1741   2.335   2.103   3.053
 2274SOL     OW 1742   2.728   2.316   2.504
 2274SOL    HW1 1743   2.696   2.388   2.442
 2274SOL    HW2 1744   2.752   2.235   2.451
 2275SOL     OW 1745   2.879   1.901   2.615
 2275SOL    HW1 1746   2.807   1.906   2.546
 2275SOL    HW2 1747   2.855   1.832   2.684
 2276SOL     OW 1748   3.291   3.035   2.729
 2276SOL    HW1 1749   3.236   2.951   2.722
 2276SOL    HW2 1750   3.317   3.064   2.637
 2277SOL     OW 1751   3.328   2.452   2.854
 2277SOL    HW1 1752   3.298   2.357   2.861
 2277SOL    HW2 1753   3.401   2.468   2.920
 2278SOL     OW 1754   3.719   2.695   2.239
 2278SOL    HW1 1755   3.761   2.631   2.303
 2278SOL    HW2 1756   3.681   2.644   2.161
 2279SOL     OW 1757   2.350   3.247   2.036
 2279SOL    HW1 1758   2.263   3.232   2.083
 2279SOL    HW2 1759   2.333   3.273   1.941
 2280SOL     OW 1760   3.526   3.142   2.519
 2280SOL    HW1 1761   3.625   3.150   2.533
 2280SOL    HW2 1762   3.481   3.226   2.550
 2281SOL     OW 1763   3.252   2.437   1.940
 2281SOL    HW1 1764   3.198   2.416   2.021
 2281SOL    HW2 1765   3.343   2.396   1.949
 2282SOL     OW 1766   3.616   3.085   3.450
 2282SOL    HW1 1767   3.707   3.046   3.437
 2282SOL    HW2 1768   3.624   3.181   3.474
 2283SOL     OW 1769   2.926   3.209   3.202
 2283SOL    HW1 1770   2.846   3.186   3.257
 2283SOL    HW2 1771   3.009   3.183   3.251
 2285SOL     OW 1772   2.973   3.057   2.962
 2285SOL    HW1 1773   2.933   3.101   3.043
 2285SOL    HW2 1774   2.932   3.094   2.879
 2286SOL     OW 1775   3.500   2.961   2.941
 2286SOL    HW1 1776   3.505   3.042   3.000
 2286SOL    HW2 1777   3.414   2.963   2.890
 2287SOL     OW 1778   2.777   1.951   3.264
 2287SOL    HW1 1779   2.802   1.931   3.169
 2287SOL    HW2 1780   2.849   2.007   3.306
 2288SOL     OW 1781   2.842   2.978   3.581
 2288SOL    HW1 1782   2.743   2.984   3.591
 2288SOL    HW2 1783   2.865   2.898   3.525
 2289SOL     OW 1784   2.567   2.912   2.230
 2289SOL    HW1 1785   2.553   2.919   2.329
 2289SOL    HW2 1786   2.651   2.861   2.212
 2290SOL     OW 1787   2.272   2.675   3.113
 2290SOL    HW1 1788   2.358   2.687   3.163
 2290SOL    HW2 1789   2.230   2.588   3.140
 2291SOL     OW 1790   3.136   2.248   3.124
 2291SOL    HW1 1791   3.157   2.322   3.188
 2291SOL    HW2 1792   3.047   2.265   3.081
 2292SOL     OW 1793   1.926   3.426   3.193
 2292SOL    HW1 1794   1.880   3.508   3.159
 2292SOL    HW2 1795   2.024   3.445   3.202
 2293SOL     OW 1796   2.229   2.962   2.363
 2293SOL    HW1 1797   2.222   3.045   2.307
 2293SOL    HW2 1798   2.233   2.882   2.303
 2294SOL     OW 1799   3.114   3.210   2.250
 2294SOL    HW1 1800   3.164   3.287   2.290
 2294SOL    HW2 1801   3.019   3.212   2.282
 2295SOL     OW 1802   3.134   3.307   3.004
 2295SOL    HW1 1803   3.181   3.320   3.091
 2295SOL    HW2 1804   3.068   3.233   3.013
 2296SOL     OW 1805   3.444   2.501   2.334
 2296SOL    HW1 1806   3.413   2.562   2.407
 2296SOL    HW2 1807   3.494   2.553   2.265
 2297SOL     OW 1808   2.216   3.372   3.191
 2297SOL    HW1 1809   2.195   3.328   3.104
 2297SOL    HW2 1810   2.313   3.398   3.194
 2298SOL     OW 1811   2.264   2.613   3.460
 2298SOL    HW1 1812   2.332   2.668   3.413
 2298SOL    HW2 1813   2.304   2.525   3.487
 2299SOL     OW 1814   3.449   2.641   3.532
 2299SOL    HW1 1815   3.357   2.679   3.527
 2299SOL    HW2 1816   3.509   2.688   3.467
 2300SOL     OW 1817   2.875   1.967   3.632
 2300SOL    HW1 1818   2.881   2.052   3.580
 2300SOL    HW2 1819   2.907   1.891   3.575
 2301SOL     OW 1820   2.366   1.912   3.602
 2301SOL    HW1 1821   2.324   1.855   3.532
 2301SOL    HW2 1822   2.300   1.981   3.634
 2302SOL     OW 1823   2.435   2.732   2.891
 2302SOL    HW1 1824   2.479   2.821   2.882
 2302SOL    HW2 1825   2.372   2.732   2.968
 2303SOL     OW 1826   3.222   2.724   2.907
 2303SOL    HW1 1827   3.147   2.724   2.841
 2303SOL    HW2 1828   3.259   2.632   2.916
 2304SOL     OW 1829   3.071   2.387   2.137
 2304SOL    HW1 1830   3.084   2.303   2.191
 2304SOL    HW2 1831   3.042   2.461   2.197
 2305SOL     OW 1832   2.169   2.075   3.093
 2305SOL    HW1 1833   2.146   2.112   3.183
 2305SOL    HW2 1834   2.139   1.980   3.087
 2306SOL     OW 1835   1.899   3.172   3.144
 2306SOL    HW1 1836   1.952   3.123   3.212
 2306SOL    HW2 1837   1.921   3.270   3.149
 2307SOL     OW 1838   3.590   2.797   3.716
 2307SOL    HW1 1839   3.544   2.790   3.627
 2307SOL    HW2 1840   3.528   2.841   3.782
 2308SOL     OW 1841   2.169   1.925   2.480
 2308SOL    HW1 1842   2.158   2.019   2.513
 2308SOL    HW2 1843   2.164   1.862   2.557
 2309SOL     OW 1844   3.484   2.229   2.236
 2309SOL    HW1 1845   3.486   2.153   2.300
 2309SOL    HW2 1846   3.436   2.306   2.276
 2310SOL     OW 1847   2.885   2.628   2.828
 2310SOL    HW1 1848   2.900   2.649   2.924
 2310SOL    HW2 1849   2.855   2.533   2.819
 2311SOL     OW 1850   2.842   3.435   3.562
 2311SOL    HW1 1851   2.822   3.479   3.474
 2311SOL    HW2 1852   2.881   3.344   3.546
 2313SOL     OW 1853   2.212   2.760   3.666
 2313SOL    HW1 1854   2.288   2.804   3.714
 2313SOL    HW2 1855   2.247   2.713   3.584
 2314SOL     OW 1856   3.402   2.136   1.987
 2314SOL    HW1 1857   3.341   2.061   2.010
 2314SOL    HW2 1858   3.424   2.188   2.070
 2315SOL     OW 1859   3.165   2.700   1.904
 2315SOL    HW1 1860   3.199   2.607   1.919
 2315SOL    HW2 1861   3.183   2.727   1.809
 2316SOL     OW 1862   2.930   3.195   2.711
 2316SOL    HW1 1863   2.937   3.111   2.656
 2316SOL    HW2 1864   2.992   3.264   2.675
 2317SOL     OW 1865   2.181   2.672   2.811
 2317SOL    HW1 1866   2.274   2.708   2.816
 2317SOL    HW2 1867   2.175   2.587   2.863
 2318SOL     OW 1868   2.201   2.371   2.868
 2318SOL    HW1 1869   2.149   2.288   2.851
 2318SOL    HW2 1870   2.278   2.376   2.804
 2319SOL     OW 1871   3.000   2.242   3.540
 2319SOL    HW1 1872   2.955   2.305   3.604
 2319SOL    HW2 1873   3.093   2.273   3.523
 2320SOL     OW 1874   3.022   2.069   3.339
 2320SOL    HW1 1875   3.022   2.133   3.416
 2320SOL    HW2 1876   3.050   2.117   3.256
 2321SOL     OW 1877   1.870   3.188   2.062
 2321SOL    HW1 1878   1.777   3.209   2.031
 2321SOL    HW2 1879   1.880   3.089   2.075
 2322SOL     OW 1880   1.950   3.663   2.789
 2322SOL    HW1 1881   1.908   3.577   2.762
 2322SOL    HW2 1882   2.044   3.666   2.755
 2323SOL     OW 1883   2.366   3.430   2.772
 2323SOL    HW1 1884   2.432   3.504   2.781
 2323SOL    HW2 1885   2.410   3.351   2.730
 2324SOL     OW 1886   2.864   2.658   3.100
 2324SOL    HW1 1887   2.905   2.626   3.186
 2324SOL    HW2 1888   2.768   2.631   3.097
 2325SOL     OW 1889   1.902   2.406   2.976
 2325SOL    HW1 1890   1.987   2.373   2.935
 2325SOL    HW2 1891   1.915   2.421   3.074
 2326SOL     OW 1892   2.051   2.382   3.584
 2326SOL    HW1 1893   2.110   2.342   3.514
 2326SOL    HW2 1894   1.993   2.453   3.543
 2327SOL     OW 1895   3.231   2.812   3.522
 2327SOL    HW1 1896   3.270   2.901   3.542
 2327SOL    HW2 1897   3.241   2.792   3.425
 2328SOL     OW 1898   2.677   2.434   2.187
 2328SOL    HW1 1899   2.684   2.345   2.141
 2328SOL    HW2 1900   2.583   2.468   2.179
 2329SOL     OW 1901   3.519   2.466   3.068
 2329SOL    HW1 1902   3.481   2.397   3.130
 2329SOL    HW2 1903   3.601   2.430   3.024
 2330SOL     OW 1904   2.114   3.426   3.606
 2330SOL    HW1 1905   2.084   3.483   3.682
 2330SOL    HW2 1906   2.107   3.329   3.632
 2331SOL     OW 1907   2.533   2.326   3.131
 2331SOL    HW1 1908   2.499   2.237   3.101
 2331SOL    HW2 1909   2.559   2.380   3.051
 2332SOL     OW 1910   2.792   3.540   3.327
 2332SOL    HW1 1911   2.768   3.522   3.232
 2332SOL    HW2 1912   2.822   3.634   3.337
 2333SOL     OW 1913   2.021   2.999   3.328
 2333SOL    HW1 1914   2.043   2.938   3.404
 2333SOL    HW2 1915   2.031   2.950   3.242
 2334SOL     OW 1916   3.209   2.921   3.096
 2334SOL    HW1 1917   3.233   2.858   3.022
 2334SOL    HW2 1918   3.119   2.961   3.078
 2335SOL     OW 1919   3.164   2.717   2.171
 2335SOL    HW1 1920   3.078   2.686   2.213
 2335SOL    HW2 1921   3.160   2.703   2.072
 2336SOL     OW 1922   3.621   3.609   3.016
 2336SOL    HW1 1923   3.682   3.639   2.943
 2336SOL    HW2 1924   3.583   3.520   2.994
 2337SOL     OW 1925   3.114   3.593   2.990
 2337SOL    HW1 1926   3.198   3.598   2.936
 2337SOL    HW2 1927   3.091   3.497   3.008
 2338SOL     OW 1928   1.945   3.120   2.884
 2338SOL    HW1 1929   1.940   3.119   2.984
 2338SOL    HW2 1930   1.862   3.079   2.846
 2339SOL     OW 1931   2.550   3.524   3.578
 2339SOL    HW1 1932   2.494   3.605   3.587
 2339SOL    HW2 1933   2.602   3.528   3.492
 2340SOL     OW 1934   3.588   1.997   2.385
 2340SOL    HW1 1935   3.661   1.980   2.318
 2340SOL    HW2 1936   3.557   1.910   2.423
 2341SOL     OW 1937   3.250   3.435   2.339
 2341SOL    HW1 1938   3.317   3.447   2.265
 2341SOL    HW2 1939   3.210   3.524   2.362
 2343SOL     OW 1940   3.142   2.789   2.534
 2343SOL    HW1 1941   3.202   2.708   2.536
 2343SOL    HW2 1942   3.182   2.858   2.474
 2344SOL     OW 1943   2.692   3.135   3.284
 2344SOL    HW1 1944   2.687   3.168   3.379
 2344SOL    HW2 1945   2.606   3.154   3.238
 2345SOL     OW 1946   2.534   3.478   2.016
 2345SOL    HW1 1947   2.543   3.488   1.917
 2345SOL    HW2 1948   2.494   3.389   2.037
 2347SOL     OW 1949   3.703   2.037   2.825
 2347SOL    HW1 1950   3.742   1.952   2.789
 2347SOL    HW2 1951   3.605   2.039   2.806
 2348SOL     OW 1952   2.125   2.188   2.582
 2348SOL    HW1 1953   2.046   2.239   2.548
 2348SOL    HW2 1954   2.116   2.173   2.680
 2349SOL     OW 1955   3.056   3.474   1.893
 2349SOL    HW1 1956   3.062   3.381   1.930
 2349SOL    HW2 1957   2.997   3.474   1.813
 2350SOL     OW 1958   2.684   2.864   3.234
 2350SOL    HW1 1959   2.724   2.863   3.142
 2350SOL    HW2 1960   2.694   2.956   3.274
 2351SOL     OW 1961   2.778   2.772   2.153
 2351SOL    HW1 1962   2.841   2.810   2.085
 2351SOL    HW2 1963   2.818   2.689   2.192
 2352SOL     OW 1964   3.366   3.469   1.906
 2352SOL    HW1 1965   3.274   3.506   1.913
 2352SOL    HW2 1966   3.404   3.489   1.816
 2353SOL     OW 1967   2.234   3.150   3.352
 2353SOL    HW1 1968   2.221   3.243   3.318
 2353SOL    HW2 1969   2.150   3.098   3.339
 2354SOL     OW 1970   3.476   3.154   3.151
 2354SOL    HW1 1971   3.536   3.157   3.231
 2354SOL    HW2 1972   3.401   3.218   3.164
 2355SOL     OW 1973   2.901   2.960   2.558
 2355SOL    HW1 1974   2.831   2.913   2.612
 2355SOL    HW2 1975   2.960   2.892   2.515
 2356SOL     OW 1976   2.876   2.098   2.833
 2356SOL    HW1 1977   2.868   2.062   2.740
 2356SOL    HW2 1978   2.874   2.022   2.898
 2357SOL     OW 1979   2.452   3.349   2.353
 2357SOL    HW1 1980   2.494   3.291   2.283
 2357SOL    HW2 1981   2.408   3.428   2.309
 2358SOL     OW 1982   3.571   2.247   3.243
 2358SOL    HW1 1983   3.644   2.316   3.247
 2358SOL    HW2 1984   3.599   2.172   3.184
 2359SOL     OW 1985   2.117   3.210   2.152
 2359SOL    HW1 1986   2.021   3.211   2.125
 2359SOL    HW2 1987   2.129   3.263   2.236
 2360SOL     OW 1988   1.967   2.875   3.588
 2360SOL    HW1 1989   1.890   2.842   3.642
 2360SOL    HW2 1990   2.052   2.845   3.630
 2361SOL     OW 1991   2.534   2.065   3.351
 2361SOL    HW1 1992   2.624   2.049   3.311
 2361SOL    HW2 1993   2.542   2.070   3.450
 2362SOL     OW 1994   1.937   2.207   1.895
 2362SOL    HW1 1995   1.845   2.179   1.866
 2362SOL    HW2 1996   1.968   2.284   1.839
 2363SOL     OW 1997   3.302   2.718   3.260
 2363SOL    HW1 1998   3.245   2.770   3.197
 2363SOL    HW2 1999   3.398   2.730   3.236
 2364SOL     OW 2000   1.934   2.028   2.180
 2364SOL    HW1 2001   1.917   2.111   2.126
 2364SOL    HW2 2002   2.024   1.991   2.158
 2365SOL     OW 2003   3.045   3.197   1.981
 2365SOL    HW1 2004   2.946   3.186   1.983
 2365SOL    HW2 2005   3.079   3.212   2.074
 2366SOL     OW 2006   2.475   2.704   3.293
 2366SOL    HW1 2007   2.531   2.785   3.276
 2366SOL    HW2 2008   2.534   2.624   3.296
 2367SOL     OW 2009   3.355   3.629   2.821
 2367SOL    HW1 2010   3.388   3.693   2.752
 2367SOL    HW2 2011   3.421   3.623   2.896
 2368SOL     OW 2012   2.578   2.427   3.570
 2368SOL    HW1 2013   2.597   2.492   3.644
 2368SOL    HW2 2014   2.638   2.347   3.579
 2369SOL     OW 2015   3.312   3.082   3.495
 2369SOL    HW1 2016   3.303   3.072   3.594
 2369SOL    HW2 2017   3.408   3.075   3.469
 2370SOL     OW 2018   2.252   3.603   3.422
 2370SOL    HW1 2019   2.161   3.644   3.420
 2370SOL    HW2 2020   2.245   3.509   3.454
 2371SOL     OW 2021   3.536   2.745   3.116
 2371SOL    HW1 2022   3.509   2.656   3.079
 2371SOL    HW2 2023   3.537   2.813   3.043
 2372SOL     OW 2024   3.087   2.187   2.311
 2372SOL    HW1 2025   3.152   2.113   2.300
 2372SOL    HW2 2026   3.107   2.237   2.395
 2373SOL     OW 2027   3.639   2.204   3.504
 2373SOL    HW1 2028   3.622   2.235   3.410
 2373SOL    HW2 2029   3.555   2.167   3.542
 2374SOL     OW 2030   3.592   2.796   3.379
 2374SOL    HW1 2031   3.630   2.887   3.394
 2374SOL    HW2 2032   3.584   2.779   3.280
 2375SOL     OW 2033   2.721   3.236   1.878
 2375SOL    HW1 2034   2.675   3.251   1.966
 2375SOL    HW2 2035   2.765   3.321   1.848
 2376SOL     OW 2036   2.523   3.652   2.815
 2376SOL    HW1 2037   2.477   3.740   2.802
 2376SOL    HW2 2038   2.622   3.664   2.808
 2377SOL     OW 2039   2.721   2.818   2.723
 2377SOL    HW1 2040   2.775   2.749   2.771
 2377SOL    HW2 2041   2.689   2.887   2.789
 2378SOL     OW 2042   2.945   2.846   1.949
 2378SOL    HW1 2043   2.922   2.899   1.867
 2378SOL    HW2 2044   3.026   2.790   1.930
 2379SOL     OW 2045   3.723   3.431   2.713
 2379SOL    HW1 2046   3.652   3.419   2.643
 2379SOL    HW2 2047   3.724   3.352   2.773
 2380SOL     OW 2048   2.083   3.176   3.706
 2380SOL    HW1 2049   2.018   3.103   3.685
 2380SOL    HW2 2050   2.087   3.190   3.804
 2381SOL     OW 2051   1.941   3.102   2.515
 2381SOL    HW1 2052   1.940   3.055   2.603
 2381SOL    HW2 2053   2.023   3.074   2.464
 2382SOL     OW 2054   2.534   3.253   3.486
 2382SOL    HW1 2055   2.456   3.203   3.524
 2382SOL    HW2 2056   2.531   3.348   3.517
 2383SOL     OW 2057   3.686   2.054   3.089
 2383SOL    HW1 2058   3.682   1.964   3.133
 2383SOL    HW2 2059   3.689   2.043   2.990
 2384SOL     OW 2060   3.567   3.349   2.966
 2384SOL    HW1 2061   3.474   3.324   2.939
 2384SOL    HW2 2062   3.593   3.299   3.048
 2385SOL     OW 2063   2.179   2.409   3.142
 2385SOL    HW1 2064   2.217   2.350   3.214
 2385SOL    HW2 2065   2.219   2.383   3.054
 2386SOL     OW 2066   2.674   3.448   2.549
 2386SOL    HW1 2067   2.706   3.458   2.455
 2386SOL    HW2 2068   2.595   3.386   2.551
 2387SOL     OW 2069   3.286   2.076   2.974
 2387SOL    HW1 2070   3.338   2.011   3.029
 2387SOL    HW2 2071   3.237   2.139   3.035
 2388SOL     OW 2072   2.863   1.896   3.016
 2388SOL    HW1 2073   2.800   1.824   2.985
 2388SOL    HW2 2074   2.956   1.860   3.016
 2389SOL     OW 2075   2.632   3.192   2.163
 2389SOL    HW1 2076   2.586   3.105   2.180
 2389SOL    HW2 2077   2.723   3.189   2.204
 2390SOL     OW 2078   2.480   3.429   3.146
 2390SOL    HW1 2079   2.475   3.511   3.203
 2390SOL    HW2 2080   2.569   3.426   3.101
 2391SOL     OW 2081   3.214   1.914   2.030
 2391SOL    HW1 2082   3.249   1.873   1.946
 2391SOL    HW2 2083   3.124   1.876   2.050
 2392SOL     OW 2084   3.162   2.315   2.553
 2392SOL    HW1 2085   3.103   2.395   2.557
 2392SOL    HW2 2086   3.177   2.280   2.646
 2393SOL     OW 2087   3.455   2.083   2.744
 2393SOL    HW1 2088   3.371   2.082   2.798
 2393SOL    HW2 2089   3.457   2.166   2.688
 2394SOL     OW 2090   1.901   2.939   2.162
 2394SOL    HW1 2091   2.000   2.928   2.153
 2394SOL    HW2 2092   1.861   2.853   2.194
 2395SOL     OW 2093   2.737   3.508   2.199
 2395SOL    HW1 2094   2.660   3.473   2.145
 2395SOL    HW2 2095   2.705   3.579   2.261
 2396SOL     OW 2096   2.092   2.490   3.837
 2396SOL    HW1 2097   1.999   2.488   3.874
 2396SOL    HW2 2098   2.093   2.451   3.745
 2409SOL     OW 2099   2.468   2.826   3.847
 2409SOL    HW1 2100   2.475   2.910   3.793
 2409SOL    HW2 2101   2.514   2.839   3.935
 2420SOL     OW 2102   2.460   2.591   3.994
 2420SOL    HW1 2103   2.484   2.660   3.926
 2420SOL    HW2 2104   2.382   2.624   4.048
 2425SOL     OW 2105   2.727   2.210   3.919
 2425SOL    HW1 2106   2.786   2.273   3.870
 2425SOL    HW2 2107   2.746   2.116   3.890
 2431SOL     OW 2108   2.183   2.805   3.966
 2431SOL    HW1 2109   2.265   2.844   3.924
 2431SOL    HW2 2110   2.156   2.723   3.917
 2439SOL     OW 2111   2.244   2.562   4.204
 2439SOL    HW1 2112   2.289   2.472   4.201
 2439SOL    HW2 2113   2.150   2.551   4.237
 2440SOL     OW 2114   2.476   1.984   3.841
 2440SOL    HW1 2115   2.574   1.962   3.848
 2440SOL    HW2 2116   2.445   1.967   3.748
 2444SOL     OW 2117   3.296   3.050   3.765
 2444SOL    HW1 2118   3.328   2.974   3.822
 2444SOL    HW2 2119   3.204   3.077   3.795
 2445SOL     OW 2120   2.159   1.897   3.895
 2445SOL    HW1 2121   2.208   1.981   3.874
 2445SOL    HW2 2122   2.221   1.832   3.940
 2450SOL     OW 2123   2.894   2.411   3.740
 2450SOL    HW1 2124   2.853   2.493   3.701
 2450SOL    HW2 2125   2.958   2.437   3.813
 2456SOL     OW 2126   2.350   3.247   3.898
 2456SOL    HW1 2127   2.263   3.232   3.945
 2456SOL    HW2 2128   2.333   3.273   3.803
 2458SOL     OW 2129   3.252   2.437   3.802
 2458SOL    HW1 2130   3.198   2.416   3.883
 2458SOL    HW2 2131   3.343   2.396   3.811
 2459SOL     OW 2132   2.389   2.118   4.052
 2459SOL    HW1 2133   2.416   2.059   3.977
 2459SOL    HW2 2134   2.389   2.213   4.021
 2461SOL     OW 2135   2.567   2.912   4.092
 2461SOL    HW1 2136   2.553   2.919   4.191
 2461SOL    HW2 2137   2.651   2.861   4.074
 2467SOL     OW 2138   3.071   2.387   3.999
 2467SOL    HW1 2139   3.084   2.303   4.053
 2467SOL    HW2 2140   3.042   2.461   4.059
 2473SOL     OW 2141   3.402   2.136   3.849
 2473SOL    HW1 2142   3.341   2.061   3.872
 2473SOL    HW2 2143   3.424   2.188   3.932
 2474SOL     OW 2144   3.165   2.700   3.766
 2474SOL    HW1 2145   3.199   2.607   3.781
 2474SOL    HW2 2146   3.183   2.727   3.671
 2478SOL     OW 2147   1.870   3.188   3.924
 2478SOL    HW1 2148   1.777   3.209   3.893
 2478SOL    HW2 2149   1.880   3.089   3.937
 2482SOL     OW 2150   2.677   2.434   4.049
 2482SOL    HW1 2151   2.684   2.345   4.003
 2482SOL    HW2 2152   2.583   2.468   4.041
 2484SOL     OW 2153   2.335   2.362   3.915
 2484SOL    HW1 2154   2.396   2.442   3.919
 2484SOL    HW2 2155   2.240   2.393   3.922
 2495SOL     OW 2156   2.778   2.772   4.015
 2495SOL    HW1 2157   2.841   2.810   3.947
 2495SOL    HW2 2158   2.818   2.689   4.054
 2501SOL     OW 2159   1.937   2.207   3.757
 2501SOL    HW1 2160   1.845   2.179   3.728
 2501SOL    HW2 2161   1.968   2.284   3.701
 2502SOL     OW 2162   1.934   2.028   4.042
 2502SOL    HW1 2163   1.917   2.111   3.988
 2502SOL    HW2 2164   2.024   1.991   4.020
 2503SOL     OW 2165   3.045   3.197   3.843
 2503SOL    HW1 2166   2.946   3.186   3.845
 2503SOL    HW2 2167   3.079   3.212   3.936
 2508SOL     OW 2168   2.721   3.236   3.740
 2508SOL    HW1 2169   2.675   3.251   3.828
 2508SOL    HW2 2170   2.765   3.321   3.710
 2511SOL     OW 2171   2.945   2.846   3.811
 2511SOL    HW1 2172   2.922   2.899   3.729
 2511SOL    HW2 2173   3.026   2.790   3.792
 2517SOL     OW 2174   2.632   3.192   4.025
 2517SOL    HW1 2175   2.586   3.105   4.042
 2517SOL    HW2 2176   2.723   3.189   4.066
 2518SOL     OW 2177   3.214   1.914   3.892
 2518SOL    HW1 2178   3.249   1.873   3.808
 2518SOL    HW2 2179   3.124   1.876   3.912
 2521SOL     OW 2180   1.901   2.939   4.024
 2521SOL    HW1 2181   2.000   2.928   4.015
 2521SOL    HW2 2182   1.861   2.853   4.056
 2542SOL     OW 2183   2.179   3.975   1.801
 2542SOL    HW1 2184   2.250   4.046   1.807
 2542SOL    HW2 2185   2.091   4.014   1.829
 2561SOL     OW 2186   2.643   3.988   1.749
 2561SOL    HW1 2187   2.710   3.927   1.792
 2561SOL    HW2 2188   2.570   4.007   1.814
 2578SOL     OW 2189   2.777   3.813   1.402
 2578SOL    HW1 2190   2.802   3.793   1.307
 2578SOL    HW2 2191   2.849   3.869   1.444
 2585SOL     OW 2192   2.875   3.829   1.770
 2585SOL    HW1 2193   2.881   3.914   1.718
 2585SOL    HW2 2194   2.907   3.753   1.713
 2586SOL     OW 2195   2.366   3.774   1.740
 2586SOL    HW1 2196   2.324   3.717   1.670
 2586SOL    HW2 2197   2.300   3.843   1.772
 2623SOL     OW 2198   2.534   3.927   1.489
 2623SOL    HW1 2199   2.624   3.911   1.449
 2623SOL    HW2 2200   2.542   3.932   1.588
 2647SOL     OW 2201   2.087   3.999   2.858
 2647SOL    HW1 2202   2.122   3.982   2.950
 2647SOL    HW2 2203   1.999   3.954   2.846
 2648SOL     OW 2204   1.881   4.092   2.509
 2648SOL    HW1 2205   1.799   4.135   2.548
 2648SOL    HW2 2206   1.853   4.019   2.446
 2662SOL     OW 2207   2.671   3.728   2.364
 2662SOL    HW1 2208   2.711   3.819   2.355
 2662SOL    HW2 2209   2.571   3.736   2.370
 2674SOL     OW 2210   2.727   4.072   2.057
 2674SOL    HW1 2211   2.786   4.135   2.008
 2674SOL    HW2 2212   2.746   3.978   2.028
 2676SOL     OW 2213   2.412   3.920   2.747
 2676SOL    HW1 2214   2.407   3.915   2.847
 2676SOL    HW2 2215   2.414   4.016   2.718
 2680SOL     OW 2216   3.262   3.831   2.288
 2680SOL    HW1 2217   3.238   3.794   2.198
 2680SOL    HW2 2218   3.361   3.847   2.292
 2683SOL     OW 2219   2.476   3.846   1.979
 2683SOL    HW1 2220   2.574   3.824   1.986
 2683SOL    HW2 2221   2.445   3.829   1.886
 2687SOL     OW 2222   2.401   3.788   2.374
 2687SOL    HW1 2223   2.320   3.789   2.432
 2687SOL    HW2 2224   2.404   3.871   2.319
 2688SOL     OW 2225   2.159   3.759   2.033
 2688SOL    HW1 2226   2.208   3.843   2.012
 2688SOL    HW2 2227   2.221   3.694   2.078
 2689SOL     OW 2228   2.797   3.960   2.342
 2689SOL    HW1 2229   2.749   4.001   2.264
 2689SOL    HW2 2230   2.896   3.958   2.323
 2693SOL     OW 2231   2.423   3.946   3.009
 2693SOL    HW1 2232   2.461   3.862   3.046
 2693SOL    HW2 2233   2.335   3.965   3.053
 2694SOL     OW 2234   2.728   4.178   2.504
 2694SOL    HW1 2235   2.696   4.250   2.442
 2694SOL    HW2 2236   2.752   4.097   2.451
 2695SOL     OW 2237   2.879   3.763   2.615
 2695SOL    HW1 2238   2.807   3.768   2.546
 2695SOL    HW2 2239   2.855   3.694   2.684
 2700SOL     OW 2240   2.389   3.980   2.190
 2700SOL    HW1 2241   2.416   3.921   2.115
 2700SOL    HW2 2242   2.389   4.075   2.159
 2702SOL     OW 2243   2.777   3.813   3.264
 2702SOL    HW1 2244   2.802   3.793   3.169
 2702SOL    HW2 2245   2.849   3.869   3.306
 2710SOL     OW 2246   2.366   3.774   3.602
 2710SOL    HW1 2247   2.324   3.717   3.532
 2710SOL    HW2 2248   2.300   3.843   3.634
 2714SOL     OW 2249   2.169   3.937   3.093
 2714SOL    HW1 2250   2.146   3.974   3.183
 2714SOL    HW2 2251   2.139   3.842   3.087
 2717SOL     OW 2252   2.169   3.787   2.480
 2717SOL    HW1 2253   2.158   3.881   2.513
 2717SOL    HW2 2254   2.164   3.724   2.557
 2741SOL     OW 2255   2.125   4.050   2.582
 2741SOL    HW1 2256   2.046   4.101   2.548
 2741SOL    HW2 2257   2.116   4.035   2.680
 2743SOL     OW 2258   2.876   3.960   2.833
 2743SOL    HW1 2259   2.868   3.924   2.740
 2743SOL    HW2 2260   2.874   3.884   2.898
 2746SOL     OW 2261   2.534   3.927   3.351
 2746SOL    HW1 2262   2.624   3.911   3.311
 2746SOL    HW2 2263   2.542   3.932   3.450
 2747SOL     OW 2264   1.937   4.069   1.895
 2747SOL    HW1 2265   1.845   4.041   1.866
 2747SOL    HW2 2266   1.968   4.146   1.839
 2749SOL     OW 2267   1.934   3.890   2.180
 2749SOL    HW1 2268   1.917   3.973   2.126
 2749SOL    HW2 2269   2.024   3.853   2.158
 2754SOL     OW 2270   3.087   4.049   2.311
 2754SOL    HW1 2271   3.152   3.975   2.300
 2754SOL    HW2 2272   3.107   4.099   2.395
 2761SOL     OW 2273   2.290   4.148   2.382
 2761SOL    HW1 2274   2.320   4.076   2.320
 2761SOL    HW2 2275   2.251   4.108   2.465
 2764SOL     OW 2276   2.863   3.758   3.016
 2764SOL    HW1 2277   2.800   3.686   2.985
 2764SOL    HW2 2278   2.956   3.722   3.016
 2765SOL     OW 2279   3.214   3.776   2.030
 2765SOL    HW1 2280   3.249   3.735   1.946
 2765SOL    HW2 2281   3.124   3.738   2.050
 2874SOL     OW 2282   3.854   1.821   1.571
 2874SOL    HW1 2283   3.844   1.806   1.670
 2874SOL    HW2 2284   3.768   1.857   1.535
 2942SOL     OW 2285   3.854   1.794   1.851
 2942SOL    HW1 2286   3.813   1.720   1.904
 2942SOL    HW2 2287   3.918   1.845   1.909
 2988SOL     OW 2288   3.955   1.713   2.345
 2988SOL    HW1 2289   3.989   1.790   2.399
 2988SOL    HW2 2290   3.999   1.713   2.255
 2995SOL     OW 2291   3.751   1.596   1.979
 2995SOL    HW1 2292   3.732   1.500   2.000
 2995SOL    HW2 2293   3.718   1.654   2.054
 3011SOL     OW 2294   4.075   1.801   2.715
 3011SOL    HW1 2295   4.125   1.715   2.721
 3011SOL    HW2 2296   4.140   1.878   2.712
 3040SOL     OW 2297   3.788   1.564   3.193
 3040SOL    HW1 2298   3.742   1.646   3.159
 3040SOL    HW2 2299   3.886   1.583   3.202
 3059SOL     OW 2300   3.732   1.326   2.062
 3059SOL    HW1 2301   3.639   1.347   2.031
 3059SOL    HW2 2302   3.742   1.227   2.075
 3060SOL     OW 2303   3.812   1.801   2.789
 3060SOL    HW1 2304   3.770   1.715   2.762
 3060SOL    HW2 2305   3.906   1.804   2.755
 3205SOL     OW 2306   3.837   2.599   1.597
 3205SOL    HW1 2307   3.925   2.586   1.642
 3205SOL    HW2 2308   3.824   2.696   1.575
 3209SOL     OW 2309   4.041   2.113   1.801
 3209SOL    HW1 2310   4.112   2.184   1.807
 3209SOL    HW2 2311   3.953   2.152   1.829
 3223SOL     OW 2312   3.926   2.147   1.498
 3223SOL    HW1 2313   3.846   2.207   1.485
 3223SOL    HW2 2314   3.916   2.098   1.584
 3239SOL     OW 2315   3.802   2.418   1.386
 3239SOL    HW1 2316   3.894   2.417   1.345
 3239SOL    HW2 2317   3.796   2.492   1.453
 3264SOL     OW 2318   4.074   2.760   1.804
 3264SOL    HW1 2319   4.150   2.804   1.852
 3264SOL    HW2 2320   4.109   2.713   1.722
 3273SOL     OW 2321   3.913   2.382   1.722
 3273SOL    HW1 2322   3.972   2.342   1.652
 3273SOL    HW2 2323   3.855   2.453   1.681
 3295SOL     OW 2324   3.829   2.875   1.726
 3295SOL    HW1 2325   3.752   2.842   1.780
 3295SOL    HW2 2326   3.914   2.845   1.768
 3308SOL     OW 2327   3.945   3.176   1.844
 3308SOL    HW1 2328   3.880   3.103   1.823
 3308SOL    HW2 2329   3.949   3.190   1.942
 3319SOL     OW 2330   3.954   2.490   1.975
 3319SOL    HW1 2331   3.861   2.488   2.012
 3319SOL    HW2 2332   3.955   2.451   1.883
 3320SOL     OW 2333   3.949   2.137   2.858
 3320SOL    HW1 2334   3.984   2.120   2.950
 3320SOL    HW2 2335   3.861   2.092   2.846
 3321SOL     OW 2336   3.743   2.230   2.509
 3321SOL    HW1 2337   3.661   2.273   2.548
 3321SOL    HW2 2338   3.715   2.157   2.446
 3331SOL     OW 2339   3.954   3.296   2.400
 3331SOL    HW1 2340   3.928   3.392   2.400
 3331SOL    HW2 2341   3.883   3.242   2.445
 3332SOL     OW 2342   3.964   2.953   2.748
 3332SOL    HW1 2343   3.978   2.869   2.800
 3332SOL    HW2 2344   3.909   3.017   2.803
 3335SOL     OW 2345   3.846   2.505   2.425
 3335SOL    HW1 2346   3.801   2.417   2.442
 3335SOL    HW2 2347   3.845   2.559   2.509
 3336SOL     OW 2348   3.751   3.458   1.979
 3336SOL    HW1 2349   3.732   3.362   2.000
 3336SOL    HW2 2350   3.718   3.516   2.054
 3337SOL     OW 2351   3.837   2.599   3.459
 3337SOL    HW1 2352   3.925   2.586   3.504
 3337SOL    HW2 2353   3.824   2.696   3.437
 3340SOL     OW 2354   3.921   2.838   3.126
 3340SOL    HW1 2355   4.010   2.793   3.112
 3340SOL    HW2 2356   3.848   2.773   3.107
 3347SOL     OW 2357   3.800   2.673   2.651
 3347SOL    HW1 2358   3.899   2.661   2.660
 3347SOL    HW2 2359   3.776   2.768   2.672
 3353SOL     OW 2360   4.045   2.805   2.104
 3353SOL    HW1 2361   4.127   2.844   2.062
 3353SOL    HW2 2362   4.018   2.723   2.055
 3355SOL     OW 2363   3.926   2.147   3.360
 3355SOL    HW1 2364   3.846   2.207   3.347
 3355SOL    HW2 2365   3.916   2.098   3.446
 3359SOL     OW 2366   4.106   2.562   2.342
 3359SOL    HW1 2367   4.151   2.472   2.339
 3359SOL    HW2 2368   4.012   2.551   2.375
 3366SOL     OW 2369   4.021   1.897   2.033
 3366SOL    HW1 2370   4.070   1.981   2.012
 3366SOL    HW2 2371   4.083   1.832   2.078
 3371SOL     OW 2372   3.802   2.418   3.248
 3371SOL    HW1 2373   3.894   2.417   3.207
 3371SOL    HW2 2374   3.796   2.492   3.315
 3382SOL     OW 2375   4.091   2.962   2.363
 3382SOL    HW1 2376   4.084   3.045   2.307
 3382SOL    HW2 2377   4.095   2.882   2.303
 3390SOL     OW 2378   4.031   2.075   3.093
 3390SOL    HW1 2379   4.008   2.112   3.183
 3390SOL    HW2 2380   4.001   1.980   3.087
 3391SOL     OW 2381   3.761   3.172   3.144
 3391SOL    HW1 2382   3.814   3.123   3.212
 3391SOL    HW2 2383   3.783   3.270   3.149
 3393SOL     OW 2384   4.031   1.925   2.480
 3393SOL    HW1 2385   4.020   2.019   2.513
 3393SOL    HW2 2386   4.026   1.862   2.557
 3398SOL     OW 2387   4.043   2.672   2.811
 3398SOL    HW1 2388   4.136   2.708   2.816
 3398SOL    HW2 2389   4.037   2.587   2.863
 3399SOL     OW 2390   4.063   2.371   2.868
 3399SOL    HW1 2391   4.011   2.288   2.851
 3399SOL    HW2 2392   4.140   2.376   2.804
 3400SOL     OW 2393   3.732   3.188   2.062
 3400SOL    HW1 2394   3.639   3.209   2.031
 3400SOL    HW2 2395   3.742   3.089   2.075
 3404SOL     OW 2396   3.764   2.406   2.976
 3404SOL    HW1 2397   3.849   2.373   2.935
 3404SOL    HW2 2398   3.777   2.421   3.074
 3412SOL     OW 2399   3.807   3.120   2.884
 3412SOL    HW1 2400   3.802   3.119   2.984
 3412SOL    HW2 2401   3.724   3.079   2.846
 3418SOL     OW 2402   3.987   2.188   2.582
 3418SOL    HW1 2403   3.908   2.239   2.548
 3418SOL    HW2 2404   3.978   2.173   2.680
 3425SOL     OW 2405   3.979   3.210   2.152
 3425SOL    HW1 2406   3.883   3.211   2.125
 3425SOL    HW2 2407   3.991   3.263   2.236
 3428SOL     OW 2408   3.799   2.207   1.895
 3428SOL    HW1 2409   3.707   2.179   1.866
 3428SOL    HW2 2410   3.830   2.284   1.839
 3429SOL     OW 2411   3.796   2.028   2.180
 3429SOL    HW1 2412   3.779   2.111   2.126
 3429SOL    HW2 2413   3.886   1.991   2.158
 3439SOL     OW 2414   3.803   3.102   2.515
 3439SOL    HW1 2415   3.802   3.055   2.603
 3439SOL    HW2 2416   3.885   3.074   2.464
 3441SOL     OW 2417   4.152   2.286   2.382
 3441SOL    HW1 2418   4.182   2.214   2.320
 3441SOL    HW2 2419   4.113   2.246   2.465
 3442SOL     OW 2420   4.041   2.409   3.142
 3442SOL    HW1 2421   4.079   2.350   3.214
 3442SOL    HW2 2422   4.081   2.383   3.054
 3447SOL     OW 2423   3.763   2.939   2.162
 3447SOL    HW1 2424   3.862   2.928   2.153
 3447SOL    HW2 2425   3.723   2.853   2.194
   4.84056   4.84056   4.84056
