mobley_3211679_GMX.gro created by acpype (v: 2023.10.27) on Tue May 19 12:42:46 2026
 2422
    1MOL     C1    1   2.094   2.252   2.240
    1MOL     C2    2   2.159   2.242   2.123
    1MOL     C3    3   2.164   2.258   2.372
    1MOL     C4    4   2.309   2.240   2.113
    1MOL     C5    5   2.312   2.220   2.364
    1MOL     C6    6   2.379   2.282   2.242
    1MOL     H1    7   1.986   2.256   2.240
    1MOL     H2    8   2.102   2.236   2.031
    1MOL     H3    9   2.155   2.360   2.412
    1MOL     H4   10   2.114   2.192   2.443
    1MOL     H5   11   2.340   2.138   2.085
    1MOL     H6   12   2.341   2.306   2.032
    1MOL     H7   13   2.364   2.251   2.456
    1MOL     H8   14   2.321   2.110   2.359
    1MOL     H9   15   2.485   2.253   2.238
    1MOL    H10   16   2.376   2.392   2.251
   14SOL     OW   17   1.460   1.505   1.339
   14SOL    HW1   18   1.484   1.599   1.365
   14SOL    HW2   19   1.444   1.451   1.421
   18SOL     OW   20   1.127   1.341   1.690
   18SOL    HW1   21   1.174   1.341   1.778
   18SOL    HW2   22   1.079   1.254   1.679
   31SOL     OW   23   1.293   1.228   1.423
   31SOL    HW1   24   1.330   1.155   1.365
   31SOL    HW2   25   1.345   1.233   1.508
   35SOL     OW   26   1.187   1.792   1.616
   35SOL    HW1   27   1.211   1.852   1.540
   35SOL    HW2   28   1.194   1.697   1.586
   37SOL     OW   29   1.466   1.417   0.953
   37SOL    HW1   30   1.407   1.423   1.033
   37SOL    HW2   31   1.451   1.329   0.907
   50SOL     OW   32   1.719   0.585   1.831
   50SOL    HW1   33   1.693   0.674   1.795
   50SOL    HW2   34   1.717   0.517   1.758
   56SOL     OW   35   1.227   1.550   1.506
   56SOL    HW1   36   1.233   1.473   1.570
   56SOL    HW2   37   1.175   1.524   1.426
   95SOL     OW   38   1.754   1.223   1.588
   95SOL    HW1   39   1.845   1.184   1.575
   95SOL    HW2   40   1.762   1.319   1.612
   96SOL     OW   41   1.064   1.347   1.340
   96SOL    HW1   42   0.984   1.324   1.395
   96SOL    HW2   43   1.147   1.321   1.389
   97SOL     OW   44   1.592   1.629   1.625
   97SOL    HW1   45   1.619   1.663   1.535
   97SOL    HW2   46   1.671   1.591   1.671
   99SOL     OW   47   1.638   1.099   1.079
   99SOL    HW1   48   1.643   1.180   1.138
   99SOL    HW2   49   1.552   1.101   1.028
  101SOL     OW   50   0.980   1.116   1.719
  101SOL    HW1   51   0.881   1.122   1.729
  101SOL    HW2   52   1.003   1.036   1.663
  109SOL     OW   53   1.272   1.445   1.142
  109SOL    HW1   54   1.319   1.458   1.229
  109SOL    HW2   55   1.206   1.371   1.151
  113SOL     OW   56   1.587   0.779   1.670
  113SOL    HW1   57   1.495   0.817   1.665
  113SOL    HW2   58   1.647   0.826   1.605
  122SOL     OW   59   1.728   0.935   1.854
  122SOL    HW1   60   1.682   0.928   1.765
  122SOL    HW2   61   1.666   0.979   1.920
  126SOL     OW   62   0.980   1.573   1.700
  126SOL    HW1   63   0.960   1.617   1.612
  126SOL    HW2   64   1.019   1.482   1.684
  127SOL     OW   65   1.859   1.518   1.605
  127SOL    HW1   66   1.873   1.545   1.510
  127SOL    HW2   67   1.942   1.540   1.658
  142SOL     OW   68   1.369   0.950   1.660
  142SOL    HW1   69   1.408   1.039   1.680
  142SOL    HW2   70   1.379   0.930   1.563
  147SOL     OW   71   0.930   1.678   1.465
  147SOL    HW1   72   0.906   1.660   1.370
  147SOL    HW2   73   0.960   1.772   1.475
  152SOL     OW   74   1.759   1.747   1.154
  152SOL    HW1   75   1.820   1.777   1.081
  152SOL    HW2   76   1.721   1.658   1.132
  153SOL     OW   77   1.252   1.731   1.128
  153SOL    HW1   78   1.336   1.736   1.074
  153SOL    HW2   79   1.229   1.635   1.146
  155SOL     OW   80   0.688   1.662   1.716
  155SOL    HW1   81   0.632   1.743   1.725
  155SOL    HW2   82   0.740   1.666   1.630
  163SOL     OW   83   1.650   1.720   1.394
  163SOL    HW1   84   1.703   1.730   1.310
  163SOL    HW2   85   1.623   1.810   1.428
  171SOL     OW   86   1.614   1.292   1.289
  171SOL    HW1   87   1.674   1.295   1.369
  171SOL    HW2   88   1.539   1.356   1.302
  184SOL     OW   89   1.493   1.767   0.959
  184SOL    HW1   90   1.526   1.831   0.890
  184SOL    HW2   91   1.559   1.761   1.034
  186SOL     OW   92   1.450   1.220   1.633
  186SOL    HW1   93   1.441   1.210   1.732
  186SOL    HW2   94   1.546   1.213   1.607
  188SOL     OW   95   1.674   0.883   1.254
  188SOL    HW1   96   1.647   0.794   1.217
  188SOL    HW2   97   1.675   0.951   1.181
  192SOL     OW   98   1.730   0.934   1.517
  192SOL    HW1   99   1.768   1.025   1.532
  192SOL    HW2  100   1.722   0.917   1.418
  197SOL     OW  101   1.861   1.569   0.851
  197SOL    HW1  102   1.790   1.557   0.781
  197SOL    HW2  103   1.862   1.490   0.911
  203SOL     OW  104   1.705   1.487   1.104
  203SOL    HW1  105   1.612   1.462   1.077
  203SOL    HW2  106   1.731   1.437   1.186
  219SOL     OW  107   1.555   1.511   2.565
  219SOL    HW1  108   1.498   1.495   2.646
  219SOL    HW2  109   1.496   1.521   2.485
  221SOL     OW  110   1.755   0.607   2.093
  221SOL    HW1  111   1.743   0.594   1.994
  221SOL    HW2  112   1.725   0.526   2.142
  227SOL     OW  113   1.460   1.505   3.201
  227SOL    HW1  114   1.484   1.599   3.227
  227SOL    HW2  115   1.444   1.451   3.283
  238SOL     OW  116   1.842   1.767   2.221
  238SOL    HW1  117   1.896   1.738   2.301
  238SOL    HW2  118   1.872   1.857   2.192
  240SOL     OW  119   1.689   0.922   2.474
  240SOL    HW1  120   1.784   0.893   2.482
  240SOL    HW2  121   1.681   0.987   2.399
  241SOL     OW  122   1.641   1.108   2.294
  241SOL    HW1  123   1.727   1.110   2.242
  241SOL    HW2  124   1.655   1.155   2.382
  244SOL     OW  125   1.293   1.228   3.285
  244SOL    HW1  126   1.330   1.155   3.227
  244SOL    HW2  127   1.345   1.233   3.370
  247SOL     OW  128   1.525   0.999   2.052
  247SOL    HW1  129   1.462   0.923   2.065
  247SOL    HW2  130   1.573   1.017   2.138
  248SOL     OW  131   1.187   1.792   3.478
  248SOL    HW1  132   1.211   1.852   3.402
  248SOL    HW2  133   1.194   1.697   3.448
  250SOL     OW  134   1.466   1.417   2.815
  250SOL    HW1  135   1.407   1.423   2.895
  250SOL    HW2  136   1.451   1.329   2.769
  251SOL     OW  137   1.667   1.714   2.434
  251SOL    HW1  138   1.626   1.691   2.346
  251SOL    HW2  139   1.649   1.640   2.499
  254SOL     OW  140   1.576   1.662   2.169
  254SOL    HW1  141   1.665   1.708   2.172
  254SOL    HW2  142   1.555   1.638   2.074
  264SOL     OW  143   1.362   1.144   2.407
  264SOL    HW1  144   1.445   1.115   2.359
  264SOL    HW2  145   1.313   1.211   2.351
  266SOL     OW  146   1.008   1.456   2.339
  266SOL    HW1  147   0.962   1.528   2.287
  266SOL    HW2  148   1.004   1.476   2.437
  268SOL     OW  149   1.795   1.066   2.735
  268SOL    HW1  150   1.733   1.051   2.659
  268SOL    HW2  151   1.743   1.077   2.820
  269SOL     OW  152   1.227   1.550   3.368
  269SOL    HW1  153   1.233   1.473   3.432
  269SOL    HW2  154   1.175   1.524   3.288
  271SOL     OW  155   1.458   0.735   2.590
  271SOL    HW1  156   1.453   0.670   2.665
  271SOL    HW2  157   1.538   0.794   2.603
  273SOL     OW  158   1.111   1.776   2.099
  273SOL    HW1  159   1.051   1.714   2.149
  273SOL    HW2  160   1.142   1.732   2.014
  275SOL     OW  161   1.632   1.377   1.943
  275SOL    HW1  162   1.600   1.471   1.933
  275SOL    HW2  163   1.556   1.314   1.931
  279SOL     OW  164   0.940   1.698   2.766
  279SOL    HW1  165   1.020   1.641   2.787
  279SOL    HW2  166   0.891   1.658   2.689
  284SOL     OW  167   0.888   1.514   3.057
  284SOL    HW1  168   0.865   1.489   2.963
  284SOL    HW2  169   0.949   1.445   3.096
  286SOL     OW  170   0.803   1.402   2.786
  286SOL    HW1  171   0.893   1.416   2.744
  286SOL    HW2  172   0.732   1.404   2.715
  289SOL     OW  173   1.434   1.188   1.903
  289SOL    HW1  174   1.466   1.112   1.960
  289SOL    HW2  175   1.342   1.215   1.933
  293SOL     OW  176   1.227   1.570   2.655
  293SOL    HW1  177   1.248   1.644   2.590
  293SOL    HW2  178   1.295   1.570   2.728
  295SOL     OW  179   1.271   1.797   2.453
  295SOL    HW1  180   1.315   1.861   2.389
  295SOL    HW2  181   1.221   1.849   2.523
  301SOL     OW  182   1.429   1.173   2.729
  301SOL    HW1  183   1.374   1.089   2.722
  301SOL    HW2  184   1.455   1.202   2.637
  303SOL     OW  185   1.857   0.833   2.239
  303SOL    HW1  186   1.899   0.769   2.303
  303SOL    HW2  187   1.819   0.782   2.161
  305SOL     OW  188   1.664   1.280   2.519
  305SOL    HW1  189   1.763   1.288   2.533
  305SOL    HW2  190   1.619   1.364   2.550
  308SOL     OW  191   1.754   1.223   3.450
  308SOL    HW1  192   1.845   1.184   3.437
  308SOL    HW2  193   1.762   1.319   3.474
  309SOL     OW  194   1.064   1.347   3.202
  309SOL    HW1  195   0.984   1.324   3.257
  309SOL    HW2  196   1.147   1.321   3.251
  310SOL     OW  197   1.592   1.629   3.487
  310SOL    HW1  198   1.619   1.663   3.397
  310SOL    HW2  199   1.671   1.591   3.533
  311SOL     OW  200   1.111   1.195   2.962
  311SOL    HW1  201   1.071   1.239   3.043
  311SOL    HW2  202   1.070   1.232   2.879
  312SOL     OW  203   1.638   1.099   2.941
  312SOL    HW1  204   1.643   1.180   3.000
  312SOL    HW2  205   1.552   1.101   2.890
  321SOL     OW  206   1.252   1.348   2.250
  321SOL    HW1  207   1.302   1.425   2.290
  321SOL    HW2  208   1.157   1.350   2.282
  322SOL     OW  209   1.272   1.445   3.004
  322SOL    HW1  210   1.319   1.458   3.091
  322SOL    HW2  211   1.206   1.371   3.013
  323SOL     OW  212   1.582   0.639   2.334
  323SOL    HW1  213   1.551   0.700   2.407
  323SOL    HW2  214   1.632   0.691   2.265
  330SOL     OW  215   1.360   0.862   2.907
  330SOL    HW1  216   1.285   0.862   2.841
  330SOL    HW2  217   1.397   0.770   2.916
  340SOL     OW  218   1.859   1.518   3.467
  340SOL    HW1  219   1.873   1.545   3.372
  340SOL    HW2  220   1.942   1.540   3.520
  343SOL     OW  221   1.303   0.838   1.904
  343SOL    HW1  222   1.337   0.745   1.919
  343SOL    HW2  223   1.321   0.865   1.809
  344SOL     OW  224   1.068   1.333   2.711
  344SOL    HW1  225   1.075   1.249   2.656
  344SOL    HW2  226   1.130   1.402   2.675
  360SOL     OW  227   0.930   1.678   3.327
  360SOL    HW1  228   0.906   1.660   3.232
  360SOL    HW2  229   0.960   1.772   3.337
  363SOL     OW  230   1.347   1.059   3.096
  363SOL    HW1  231   1.371   0.996   3.022
  363SOL    HW2  232   1.257   1.099   3.078
  364SOL     OW  233   1.302   0.855   2.171
  364SOL    HW1  234   1.216   0.824   2.213
  364SOL    HW2  235   1.298   0.841   2.072
  365SOL     OW  236   1.759   1.747   3.016
  365SOL    HW1  237   1.820   1.777   2.943
  365SOL    HW2  238   1.721   1.658   2.994
  366SOL     OW  239   1.252   1.731   2.990
  366SOL    HW1  240   1.336   1.736   2.936
  366SOL    HW2  241   1.229   1.635   3.008
  370SOL     OW  242   1.388   1.573   2.339
  370SOL    HW1  243   1.455   1.585   2.265
  370SOL    HW2  244   1.348   1.662   2.362
  372SOL     OW  245   1.280   0.927   2.534
  372SOL    HW1  246   1.340   0.846   2.536
  372SOL    HW2  247   1.320   0.996   2.474
  374SOL     OW  248   0.672   1.616   2.016
  374SOL    HW1  249   0.681   1.626   1.917
  374SOL    HW2  250   0.632   1.527   2.037
  375SOL     OW  251   1.650   1.720   3.256
  375SOL    HW1  252   1.703   1.730   3.172
  375SOL    HW2  253   1.623   1.810   3.290
  378SOL     OW  254   1.194   1.612   1.893
  378SOL    HW1  255   1.200   1.519   1.930
  378SOL    HW2  256   1.135   1.612   1.813
  381SOL     OW  257   1.504   1.607   1.906
  381SOL    HW1  258   1.412   1.644   1.913
  381SOL    HW2  259   1.542   1.627   1.816
  383SOL     OW  260   1.614   1.292   3.151
  383SOL    HW1  261   1.674   1.295   3.231
  383SOL    HW2  262   1.539   1.356   3.164
  384SOL     OW  263   1.039   1.098   2.558
  384SOL    HW1  264   0.969   1.051   2.612
  384SOL    HW2  265   1.098   1.030   2.515
  394SOL     OW  266   1.183   1.335   1.981
  394SOL    HW1  267   1.084   1.324   1.983
  394SOL    HW2  268   1.217   1.350   2.074
  396SOL     OW  269   1.493   1.767   2.821
  396SOL    HW1  270   1.526   1.831   2.752
  396SOL    HW2  271   1.559   1.761   2.896
  400SOL     OW  272   1.674   0.883   3.116
  400SOL    HW1  273   1.647   0.794   3.079
  400SOL    HW2  274   1.675   0.951   3.043
  405SOL     OW  275   0.859   1.374   1.878
  405SOL    HW1  276   0.813   1.389   1.966
  405SOL    HW2  277   0.903   1.459   1.848
  406SOL     OW  278   0.661   1.790   2.815
  406SOL    HW1  279   0.615   1.878   2.802
  406SOL    HW2  280   0.760   1.802   2.808
  408SOL     OW  281   1.083   0.984   1.949
  408SOL    HW1  282   1.060   1.037   1.867
  408SOL    HW2  283   1.164   0.928   1.930
  409SOL     OW  284   1.861   1.569   2.713
  409SOL    HW1  285   1.790   1.557   2.643
  409SOL    HW2  286   1.862   1.490   2.773
  415SOL     OW  287   1.705   1.487   2.966
  415SOL    HW1  288   1.612   1.462   2.939
  415SOL    HW2  289   1.731   1.437   3.048
  417SOL     OW  290   0.812   1.586   2.549
  417SOL    HW1  291   0.844   1.596   2.455
  417SOL    HW2  292   0.733   1.524   2.551
  420SOL     OW  293   0.770   1.330   2.163
  420SOL    HW1  294   0.724   1.243   2.180
  420SOL    HW2  295   0.861   1.327   2.204
  426SOL     OW  296   0.875   1.646   2.199
  426SOL    HW1  297   0.798   1.611   2.145
  426SOL    HW2  298   0.843   1.717   2.261
  520SOL     OW  299   0.850   2.660   1.823
  520SOL    HW1  300   0.846   2.736   1.888
  520SOL    HW2  301   0.872   2.696   1.732
  524SOL     OW  302   1.460   3.367   1.339
  524SOL    HW1  303   1.484   3.461   1.365
  524SOL    HW2  304   1.444   3.313   1.421
  526SOL     OW  305   1.603   2.309   0.737
  526SOL    HW1  306   1.529   2.355   0.687
  526SOL    HW2  307   1.654   2.377   0.790
  528SOL     OW  308   1.127   3.203   1.690
  528SOL    HW1  309   1.174   3.203   1.778
  528SOL    HW2  310   1.079   3.116   1.679
  533SOL     OW  311   1.594   1.976   1.480
  533SOL    HW1  312   1.576   2.043   1.408
  533SOL    HW2  313   1.591   2.022   1.569
  541SOL     OW  314   1.293   3.090   1.423
  541SOL    HW1  315   1.330   3.017   1.365
  541SOL    HW2  316   1.345   3.095   1.508
  550SOL     OW  317   1.281   2.207   0.944
  550SOL    HW1  318   1.195   2.157   0.931
  550SOL    HW2  319   1.343   2.153   1.000
  552SOL     OW  320   0.807   2.467   1.465
  552SOL    HW1  321   0.760   2.464   1.554
  552SOL    HW2  322   0.756   2.412   1.399
  553SOL     OW  323   1.394   2.331   1.674
  553SOL    HW1  324   1.374   2.374   1.762
  553SOL    HW2  325   1.472   2.269   1.683
  554SOL     OW  326   0.973   2.752   1.572
  554SOL    HW1  327   1.019   2.668   1.543
  554SOL    HW2  328   0.917   2.786   1.497
  555SOL     OW  329   0.991   2.272   1.242
  555SOL    HW1  330   0.914   2.306   1.296
  555SOL    HW2  331   0.957   2.221   1.163
  560SOL     OW  332   1.719   2.447   1.831
  560SOL    HW1  333   1.693   2.536   1.795
  560SOL    HW2  334   1.717   2.379   1.758
  565SOL     OW  335   1.795   2.928   0.873
  565SOL    HW1  336   1.733   2.913   0.797
  565SOL    HW2  337   1.743   2.939   0.958
  566SOL     OW  338   1.227   3.412   1.506
  566SOL    HW1  339   1.233   3.335   1.570
  566SOL    HW2  340   1.175   3.386   1.426
  568SOL     OW  341   1.458   2.597   0.728
  568SOL    HW1  342   1.453   2.532   0.803
  568SOL    HW2  343   1.538   2.656   0.741
  578SOL     OW  344   1.547   2.084   1.729
  578SOL    HW1  345   1.542   2.121   1.821
  578SOL    HW2  346   1.475   2.015   1.717
  580SOL     OW  347   0.781   2.126   1.749
  580SOL    HW1  348   0.848   2.065   1.792
  580SOL    HW2  349   0.708   2.145   1.814
  582SOL     OW  350   1.351   2.452   1.433
  582SOL    HW1  351   1.379   2.409   1.518
  582SOL    HW2  352   1.376   2.548   1.434
  588SOL     OW  353   1.076   2.545   1.464
  588SOL    HW1  354   0.996   2.484   1.467
  588SOL    HW2  355   1.157   2.492   1.440
  597SOL     OW  356   1.429   3.035   0.867
  597SOL    HW1  357   1.374   2.951   0.860
  597SOL    HW2  358   1.455   3.064   0.775
  598SOL     OW  359   1.466   2.452   0.992
  598SOL    HW1  360   1.436   2.357   0.999
  598SOL    HW2  361   1.539   2.468   1.058
  604SOL     OW  362   1.754   3.085   1.588
  604SOL    HW1  363   1.845   3.046   1.575
  604SOL    HW2  364   1.762   3.181   1.612
  605SOL     OW  365   1.064   3.209   1.340
  605SOL    HW1  366   0.984   3.186   1.395
  605SOL    HW2  367   1.147   3.183   1.389
  606SOL     OW  368   1.592   3.491   1.625
  606SOL    HW1  369   1.619   3.525   1.535
  606SOL    HW2  370   1.671   3.453   1.671
  608SOL     OW  371   1.638   2.961   1.079
  608SOL    HW1  372   1.643   3.042   1.138
  608SOL    HW2  373   1.552   2.963   1.028
  609SOL     OW  374   0.915   1.951   1.402
  609SOL    HW1  375   0.940   1.931   1.307
  609SOL    HW2  376   0.987   2.007   1.444
  610SOL     OW  377   0.980   2.978   1.719
  610SOL    HW1  378   0.881   2.984   1.729
  610SOL    HW2  379   1.003   2.898   1.663
  613SOL     OW  380   1.274   2.248   1.262
  613SOL    HW1  381   1.295   2.322   1.326
  613SOL    HW2  382   1.185   2.265   1.219
  622SOL     OW  383   1.587   2.641   1.670
  622SOL    HW1  384   1.495   2.679   1.665
  622SOL    HW2  385   1.647   2.688   1.605
  623SOL     OW  386   1.013   1.967   1.770
  623SOL    HW1  387   1.019   2.052   1.718
  623SOL    HW2  388   1.045   1.891   1.713
  626SOL     OW  389   1.360   2.724   1.045
  626SOL    HW1  390   1.285   2.724   0.979
  626SOL    HW2  391   1.397   2.632   1.054
  631SOL     OW  392   1.728   2.797   1.854
  631SOL    HW1  393   1.682   2.790   1.765
  631SOL    HW2  394   1.666   2.841   1.920
  636SOL     OW  395   1.859   3.380   1.605
  636SOL    HW1  396   1.873   3.407   1.510
  636SOL    HW2  397   1.942   3.402   1.658
  643SOL     OW  398   1.138   2.242   1.678
  643SOL    HW1  399   1.093   2.305   1.742
  643SOL    HW2  400   1.231   2.273   1.661
  644SOL     OW  401   1.160   2.069   1.477
  644SOL    HW1  402   1.160   2.133   1.554
  644SOL    HW2  403   1.188   2.117   1.394
  648SOL     OW  404   1.002   2.658   1.238
  648SOL    HW1  405   1.043   2.626   1.324
  648SOL    HW2  406   0.906   2.631   1.235
  651SOL     OW  407   1.369   2.812   1.660
  651SOL    HW1  408   1.408   2.901   1.680
  651SOL    HW2  409   1.379   2.792   1.563
  653SOL     OW  410   1.657   2.466   1.206
  653SOL    HW1  411   1.619   2.397   1.268
  653SOL    HW2  412   1.739   2.430   1.162
  659SOL     OW  413   1.347   2.921   1.234
  659SOL    HW1  414   1.371   2.858   1.160
  659SOL    HW2  415   1.257   2.961   1.216
  672SOL     OW  416   1.650   3.582   1.394
  672SOL    HW1  417   1.703   3.592   1.310
  672SOL    HW2  418   1.623   3.672   1.428
  673SOL     OW  419   1.841   2.037   0.963
  673SOL    HW1  420   1.880   1.952   0.927
  673SOL    HW2  421   1.743   2.039   0.944
  676SOL     OW  422   0.822   2.864   1.372
  676SOL    HW1  423   0.862   2.863   1.280
  676SOL    HW2  424   0.832   2.956   1.412
  680SOL     OW  425   1.614   3.154   1.289
  680SOL    HW1  426   1.674   3.157   1.369
  680SOL    HW2  427   1.539   3.218   1.302
  682SOL     OW  428   1.014   2.098   0.971
  682SOL    HW1  429   1.006   2.062   0.878
  682SOL    HW2  430   1.012   2.022   1.036
  684SOL     OW  431   1.709   2.247   1.381
  684SOL    HW1  432   1.782   2.316   1.385
  684SOL    HW2  433   1.737   2.172   1.322
  687SOL     OW  434   0.672   2.065   1.489
  687SOL    HW1  435   0.762   2.049   1.449
  687SOL    HW2  436   0.680   2.070   1.588
  689SOL     OW  437   1.440   2.718   1.398
  689SOL    HW1  438   1.383   2.770   1.335
  689SOL    HW2  439   1.536   2.730   1.374
  694SOL     OW  440   0.716   2.427   1.708
  694SOL    HW1  441   0.735   2.492   1.782
  694SOL    HW2  442   0.776   2.347   1.717
  695SOL     OW  443   1.450   3.082   1.633
  695SOL    HW1  444   1.441   3.072   1.732
  695SOL    HW2  445   1.546   3.075   1.607
  697SOL     OW  446   1.674   2.745   1.254
  697SOL    HW1  447   1.647   2.656   1.217
  697SOL    HW2  448   1.675   2.813   1.181
  700SOL     OW  449   1.777   2.204   1.642
  700SOL    HW1  450   1.760   2.235   1.548
  700SOL    HW2  451   1.693   2.167   1.680
  701SOL     OW  452   1.730   2.796   1.517
  701SOL    HW1  453   1.768   2.887   1.532
  701SOL    HW2  454   1.722   2.779   1.418
  710SOL     OW  455   1.824   2.054   1.227
  710SOL    HW1  456   1.820   1.964   1.271
  710SOL    HW2  457   1.827   2.043   1.128
  712SOL     OW  458   1.705   3.349   1.104
  712SOL    HW1  459   1.612   3.324   1.077
  712SOL    HW2  460   1.731   3.299   1.186
  715SOL     OW  461   1.424   2.076   1.112
  715SOL    HW1  462   1.476   2.011   1.167
  715SOL    HW2  463   1.375   2.139   1.173
  716SOL     OW  464   1.001   1.896   1.154
  716SOL    HW1  465   0.938   1.824   1.123
  716SOL    HW2  466   1.094   1.860   1.154
  721SOL     OW  467   1.593   2.083   0.882
  721SOL    HW1  468   1.509   2.082   0.936
  721SOL    HW2  469   1.595   2.166   0.826
  728SOL     OW  470   1.555   3.373   2.565
  728SOL    HW1  471   1.498   3.357   2.646
  728SOL    HW2  472   1.496   3.383   2.485
  729SOL     OW  473   1.135   2.565   2.579
  729SOL    HW1  474   1.192   2.643   2.554
  729SOL    HW2  475   1.075   2.591   2.655
  730SOL     OW  476   1.755   2.469   2.093
  730SOL    HW1  477   1.743   2.456   1.994
  730SOL    HW2  478   1.725   2.388   2.142
  731SOL     OW  479   0.768   3.006   2.885
  731SOL    HW1  480   0.690   3.023   2.945
  731SOL    HW2  481   0.802   3.093   2.849
  733SOL     OW  482   0.685   2.874   2.527
  733SOL    HW1  483   0.754   2.858   2.597
  733SOL    HW2  484   0.612   2.931   2.565
  736SOL     OW  485   1.460   3.367   3.201
  736SOL    HW1  486   1.484   3.461   3.227
  736SOL    HW2  487   1.444   3.313   3.283
  738SOL     OW  488   1.603   2.309   2.599
  738SOL    HW1  489   1.529   2.355   2.549
  738SOL    HW2  490   1.654   2.377   2.652
  744SOL     OW  491   0.606   2.826   1.985
  744SOL    HW1  492   0.613   2.910   1.931
  744SOL    HW2  493   0.652   2.839   2.073
  745SOL     OW  494   1.594   1.976   3.342
  745SOL    HW1  495   1.576   2.043   3.270
  745SOL    HW2  496   1.591   2.022   3.431
  747SOL     OW  497   1.842   3.629   2.221
  747SOL    HW1  498   1.896   3.600   2.301
  747SOL    HW2  499   1.872   3.719   2.192
  749SOL     OW  500   1.689   2.784   2.474
  749SOL    HW1  501   1.784   2.755   2.482
  749SOL    HW2  502   1.681   2.849   2.399
  750SOL     OW  503   1.641   2.970   2.294
  750SOL    HW1  504   1.727   2.972   2.242
  750SOL    HW2  505   1.655   3.017   2.382
  753SOL     OW  506   1.293   3.090   3.285
  753SOL    HW1  507   1.330   3.017   3.227
  753SOL    HW2  508   1.345   3.095   3.370
  754SOL     OW  509   0.809   1.866   2.364
  754SOL    HW1  510   0.849   1.957   2.355
  754SOL    HW2  511   0.709   1.874   2.370
  756SOL     OW  512   1.525   2.861   2.052
  756SOL    HW1  513   1.462   2.785   2.065
  756SOL    HW2  514   1.573   2.879   2.138
  759SOL     OW  515   1.466   3.279   2.815
  759SOL    HW1  516   1.407   3.285   2.895
  759SOL    HW2  517   1.451   3.191   2.769
  760SOL     OW  518   1.667   3.576   2.434
  760SOL    HW1  519   1.626   3.553   2.346
  760SOL    HW2  520   1.649   3.502   2.499
  761SOL     OW  521   0.598   2.591   2.132
  761SOL    HW1  522   0.622   2.660   2.064
  761SOL    HW2  523   0.520   2.624   2.186
  762SOL     OW  524   1.281   2.207   2.806
  762SOL    HW1  525   1.195   2.157   2.793
  762SOL    HW2  526   1.343   2.153   2.862
  763SOL     OW  527   1.576   3.524   2.169
  763SOL    HW1  528   1.665   3.570   2.172
  763SOL    HW2  529   1.555   3.500   2.074
  765SOL     OW  530   1.394   2.331   3.536
  765SOL    HW1  531   1.374   2.374   3.624
  765SOL    HW2  532   1.472   2.269   3.545
  767SOL     OW  533   0.991   2.272   3.104
  767SOL    HW1  534   0.914   2.306   3.158
  767SOL    HW2  535   0.957   2.221   3.025
  768SOL     OW  536   1.041   2.563   2.291
  768SOL    HW1  537   1.067   2.559   2.387
  768SOL    HW2  538   0.956   2.512   2.277
  771SOL     OW  539   0.865   2.210   2.057
  771SOL    HW1  540   0.924   2.273   2.008
  771SOL    HW2  541   0.884   2.116   2.028
  772SOL     OW  542   1.719   2.447   3.693
  772SOL    HW1  543   1.693   2.536   3.657
  772SOL    HW2  544   1.717   2.379   3.620
  773SOL     OW  545   1.362   3.006   2.407
  773SOL    HW1  546   1.445   2.977   2.359
  773SOL    HW2  547   1.313   3.073   2.351
  774SOL     OW  548   0.550   2.058   2.747
  774SOL    HW1  549   0.545   2.053   2.847
  774SOL    HW2  550   0.552   2.154   2.718
  775SOL     OW  551   1.008   3.318   2.339
  775SOL    HW1  552   0.962   3.390   2.287
  775SOL    HW2  553   1.004   3.338   2.437
  777SOL     OW  554   1.795   2.928   2.735
  777SOL    HW1  555   1.733   2.913   2.659
  777SOL    HW2  556   1.743   2.939   2.820
  780SOL     OW  557   1.458   2.597   2.590
  780SOL    HW1  558   1.453   2.532   2.665
  780SOL    HW2  559   1.538   2.656   2.603
  784SOL     OW  560   1.632   3.239   1.943
  784SOL    HW1  561   1.600   3.333   1.933
  784SOL    HW2  562   1.556   3.176   1.931
  786SOL     OW  563   1.400   1.969   2.288
  786SOL    HW1  564   1.376   1.932   2.198
  786SOL    HW2  565   1.499   1.985   2.292
  790SOL     OW  566   1.547   2.084   3.591
  790SOL    HW1  567   1.542   2.121   3.683
  790SOL    HW2  568   1.475   2.015   3.579
  791SOL     OW  569   0.614   1.984   1.979
  791SOL    HW1  570   0.712   1.962   1.986
  791SOL    HW2  571   0.583   1.967   1.886
  794SOL     OW  572   1.351   2.452   3.295
  794SOL    HW1  573   1.379   2.409   3.380
  794SOL    HW2  574   1.376   2.548   3.296
  796SOL     OW  575   0.922   2.365   2.761
  796SOL    HW1  576   0.897   2.356   2.665
  796SOL    HW2  577   0.970   2.283   2.792
  797SOL     OW  578   0.539   1.926   2.374
  797SOL    HW1  579   0.458   1.927   2.432
  797SOL    HW2  580   0.542   2.009   2.319
  798SOL     OW  581   1.434   3.050   1.903
  798SOL    HW1  582   1.466   2.974   1.960
  798SOL    HW2  583   1.342   3.077   1.933
  800SOL     OW  584   0.935   2.098   2.342
  800SOL    HW1  585   0.887   2.139   2.264
  800SOL    HW2  586   1.034   2.096   2.323
  801SOL     OW  587   1.076   2.545   3.326
  801SOL    HW1  588   0.996   2.484   3.329
  801SOL    HW2  589   1.157   2.492   3.302
  802SOL     OW  590   1.227   3.432   2.655
  802SOL    HW1  591   1.248   3.506   2.590
  802SOL    HW2  592   1.295   3.432   2.728
  804SOL     OW  593   1.271   3.659   2.453
  804SOL    HW1  594   1.315   3.723   2.389
  804SOL    HW2  595   1.221   3.711   2.523
  805SOL     OW  596   1.032   2.411   1.878
  805SOL    HW1  597   0.991   2.493   1.839
  805SOL    HW2  598   1.096   2.437   1.951
  808SOL     OW  599   0.866   2.316   2.504
  808SOL    HW1  600   0.834   2.388   2.442
  808SOL    HW2  601   0.890   2.235   2.451
  809SOL     OW  602   1.017   1.901   2.615
  809SOL    HW1  603   0.945   1.906   2.546
  809SOL    HW2  604   0.993   1.832   2.684
  810SOL     OW  605   1.429   3.035   2.729
  810SOL    HW1  606   1.374   2.951   2.722
  810SOL    HW2  607   1.455   3.064   2.637
  811SOL     OW  608   1.466   2.452   2.854
  811SOL    HW1  609   1.436   2.357   2.861
  811SOL    HW2  610   1.539   2.468   2.920
  812SOL     OW  611   1.857   2.695   2.239
  812SOL    HW1  612   1.899   2.631   2.303
  812SOL    HW2  613   1.819   2.644   2.161
  814SOL     OW  614   1.664   3.142   2.519
  814SOL    HW1  615   1.763   3.150   2.533
  814SOL    HW2  616   1.619   3.226   2.550
  815SOL     OW  617   1.390   2.437   1.940
  815SOL    HW1  618   1.336   2.416   2.021
  815SOL    HW2  619   1.481   2.396   1.949
  816SOL     OW  620   0.527   2.118   2.190
  816SOL    HW1  621   0.554   2.059   2.115
  816SOL    HW2  622   0.527   2.213   2.159
  817SOL     OW  623   1.754   3.085   3.450
  817SOL    HW1  624   1.845   3.046   3.437
  817SOL    HW2  625   1.762   3.181   3.474
  818SOL     OW  626   1.064   3.209   3.202
  818SOL    HW1  627   0.984   3.186   3.257
  818SOL    HW2  628   1.147   3.183   3.251
  820SOL     OW  629   1.111   3.057   2.962
  820SOL    HW1  630   1.071   3.101   3.043
  820SOL    HW2  631   1.070   3.094   2.879
  821SOL     OW  632   1.638   2.961   2.941
  821SOL    HW1  633   1.643   3.042   3.000
  821SOL    HW2  634   1.552   2.963   2.890
  822SOL     OW  635   0.915   1.951   3.264
  822SOL    HW1  636   0.940   1.931   3.169
  822SOL    HW2  637   0.987   2.007   3.306
  824SOL     OW  638   0.705   2.912   2.230
  824SOL    HW1  639   0.691   2.919   2.329
  824SOL    HW2  640   0.789   2.861   2.212
  826SOL     OW  641   1.274   2.248   3.124
  826SOL    HW1  642   1.295   2.322   3.188
  826SOL    HW2  643   1.185   2.265   3.081
  829SOL     OW  644   0.566   2.399   2.727
  829SOL    HW1  645   0.578   2.465   2.653
  829SOL    HW2  646   0.612   2.433   2.810
  830SOL     OW  647   1.252   3.210   2.250
  830SOL    HW1  648   1.302   3.287   2.290
  830SOL    HW2  649   1.157   3.212   2.282
  831SOL     OW  650   1.272   3.307   3.004
  831SOL    HW1  651   1.319   3.320   3.091
  831SOL    HW2  652   1.206   3.233   3.013
  832SOL     OW  653   1.582   2.501   2.334
  832SOL    HW1  654   1.551   2.562   2.407
  832SOL    HW2  655   1.632   2.553   2.265
  835SOL     OW  656   1.587   2.641   3.532
  835SOL    HW1  657   1.495   2.679   3.527
  835SOL    HW2  658   1.647   2.688   3.467
  839SOL     OW  659   1.360   2.724   2.907
  839SOL    HW1  660   1.285   2.724   2.841
  839SOL    HW2  661   1.397   2.632   2.916
  840SOL     OW  662   1.209   2.387   2.137
  840SOL    HW1  663   1.222   2.303   2.191
  840SOL    HW2  664   1.180   2.461   2.197
  843SOL     OW  665   0.732   2.496   2.926
  843SOL    HW1  666   0.791   2.470   2.850
  843SOL    HW2  667   0.704   2.592   2.915
  844SOL     OW  668   1.728   2.797   3.716
  844SOL    HW1  669   1.682   2.790   3.627
  844SOL    HW2  670   1.666   2.841   3.782
  846SOL     OW  671   1.622   2.229   2.236
  846SOL    HW1  672   1.624   2.153   2.300
  846SOL    HW2  673   1.574   2.306   2.276
  847SOL     OW  674   1.023   2.628   2.828
  847SOL    HW1  675   1.038   2.649   2.924
  847SOL    HW2  676   0.993   2.533   2.819
  849SOL     OW  677   1.859   3.380   3.467
  849SOL    HW1  678   1.873   3.407   3.372
  849SOL    HW2  679   1.942   3.402   3.520
  851SOL     OW  680   1.540   2.136   1.987
  851SOL    HW1  681   1.479   2.061   2.010
  851SOL    HW2  682   1.562   2.188   2.070
  852SOL     OW  683   1.303   2.700   1.904
  852SOL    HW1  684   1.337   2.607   1.919
  852SOL    HW2  685   1.321   2.727   1.809
  853SOL     OW  686   1.068   3.195   2.711
  853SOL    HW1  687   1.075   3.111   2.656
  853SOL    HW2  688   1.130   3.264   2.675
  856SOL     OW  689   1.138   2.242   3.540
  856SOL    HW1  690   1.093   2.305   3.604
  856SOL    HW2  691   1.231   2.273   3.523
  857SOL     OW  692   1.160   2.069   3.339
  857SOL    HW1  693   1.160   2.133   3.416
  857SOL    HW2  694   1.188   2.117   3.256
  861SOL     OW  695   1.002   2.658   3.100
  861SOL    HW1  696   1.043   2.626   3.186
  861SOL    HW2  697   0.906   2.631   3.097
  864SOL     OW  698   1.369   2.812   3.522
  864SOL    HW1  699   1.408   2.901   3.542
  864SOL    HW2  700   1.379   2.792   3.425
  865SOL     OW  701   0.815   2.434   2.187
  865SOL    HW1  702   0.822   2.345   2.141
  865SOL    HW2  703   0.721   2.468   2.179
  866SOL     OW  704   1.657   2.466   3.068
  866SOL    HW1  705   1.619   2.397   3.130
  866SOL    HW2  706   1.739   2.430   3.024
  870SOL     OW  707   0.473   2.362   2.053
  870SOL    HW1  708   0.534   2.442   2.057
  870SOL    HW2  709   0.378   2.393   2.060
  872SOL     OW  710   1.347   2.921   3.096
  872SOL    HW1  711   1.371   2.858   3.022
  872SOL    HW2  712   1.257   2.961   3.078
  873SOL     OW  713   1.302   2.717   2.171
  873SOL    HW1  714   1.216   2.686   2.213
  873SOL    HW2  715   1.298   2.703   2.072
  874SOL     OW  716   1.759   3.609   3.016
  874SOL    HW1  717   1.820   3.639   2.943
  874SOL    HW2  718   1.721   3.520   2.994
  878SOL     OW  719   1.726   1.997   2.385
  878SOL    HW1  720   1.799   1.980   2.318
  878SOL    HW2  721   1.695   1.910   2.423
  879SOL     OW  722   1.388   3.435   2.339
  879SOL    HW1  723   1.455   3.447   2.265
  879SOL    HW2  724   1.348   3.524   2.362
  881SOL     OW  725   1.280   2.789   2.534
  881SOL    HW1  726   1.340   2.708   2.536
  881SOL    HW2  727   1.320   2.858   2.474
  884SOL     OW  728   1.650   3.582   3.256
  884SOL    HW1  729   1.703   3.592   3.172
  884SOL    HW2  730   1.623   3.672   3.290
  885SOL     OW  731   1.841   2.037   2.825
  885SOL    HW1  732   1.880   1.952   2.789
  885SOL    HW2  733   1.743   2.039   2.806
  887SOL     OW  734   1.194   3.474   1.893
  887SOL    HW1  735   1.200   3.381   1.930
  887SOL    HW2  736   1.135   3.474   1.813
  889SOL     OW  737   0.916   2.772   2.153
  889SOL    HW1  738   0.979   2.810   2.085
  889SOL    HW2  739   0.956   2.689   2.192
  890SOL     OW  740   1.504   3.469   1.906
  890SOL    HW1  741   1.412   3.506   1.913
  890SOL    HW2  742   1.542   3.489   1.816
  892SOL     OW  743   1.614   3.154   3.151
  892SOL    HW1  744   1.674   3.157   3.231
  892SOL    HW2  745   1.539   3.218   3.164
  893SOL     OW  746   1.039   2.960   2.558
  893SOL    HW1  747   0.969   2.913   2.612
  893SOL    HW2  748   1.098   2.892   2.515
  894SOL     OW  749   1.014   2.098   2.833
  894SOL    HW1  750   1.006   2.062   2.740
  894SOL    HW2  751   1.012   2.022   2.898
  896SOL     OW  752   1.709   2.247   3.243
  896SOL    HW1  753   1.782   2.316   3.247
  896SOL    HW2  754   1.737   2.172   3.184
  901SOL     OW  755   1.440   2.718   3.260
  901SOL    HW1  756   1.383   2.770   3.197
  901SOL    HW2  757   1.536   2.730   3.236
  903SOL     OW  758   1.183   3.197   1.981
  903SOL    HW1  759   1.084   3.186   1.983
  903SOL    HW2  760   1.217   3.212   2.074
  905SOL     OW  761   1.493   3.629   2.821
  905SOL    HW1  762   1.526   3.693   2.752
  905SOL    HW2  763   1.559   3.623   2.896
  907SOL     OW  764   1.450   3.082   3.495
  907SOL    HW1  765   1.441   3.072   3.594
  907SOL    HW2  766   1.546   3.075   3.469
  909SOL     OW  767   1.674   2.745   3.116
  909SOL    HW1  768   1.647   2.656   3.079
  909SOL    HW2  769   1.675   2.813   3.043
  910SOL     OW  770   1.225   2.187   2.311
  910SOL    HW1  771   1.290   2.113   2.300
  910SOL    HW2  772   1.245   2.237   2.395
  911SOL     OW  773   0.594   2.607   2.514
  911SOL    HW1  774   0.644   2.692   2.495
  911SOL    HW2  775   0.506   2.609   2.466
  912SOL     OW  776   1.777   2.204   3.504
  912SOL    HW1  777   1.760   2.235   3.410
  912SOL    HW2  778   1.693   2.167   3.542
  913SOL     OW  779   1.730   2.796   3.379
  913SOL    HW1  780   1.768   2.887   3.394
  913SOL    HW2  781   1.722   2.779   3.280
  914SOL     OW  782   0.859   3.236   1.878
  914SOL    HW1  783   0.813   3.251   1.966
  914SOL    HW2  784   0.903   3.321   1.848
  916SOL     OW  785   0.859   2.818   2.723
  916SOL    HW1  786   0.913   2.749   2.771
  916SOL    HW2  787   0.827   2.887   2.789
  917SOL     OW  788   1.083   2.846   1.949
  917SOL    HW1  789   1.060   2.899   1.867
  917SOL    HW2  790   1.164   2.790   1.930
  918SOL     OW  791   1.861   3.431   2.713
  918SOL    HW1  792   1.790   3.419   2.643
  918SOL    HW2  793   1.862   3.352   2.773
  922SOL     OW  794   1.824   2.054   3.089
  922SOL    HW1  795   1.820   1.964   3.133
  922SOL    HW2  796   1.827   2.043   2.990
  924SOL     OW  797   1.705   3.349   2.966
  924SOL    HW1  798   1.612   3.324   2.939
  924SOL    HW2  799   1.731   3.299   3.048
  927SOL     OW  800   1.424   2.076   2.974
  927SOL    HW1  801   1.476   2.011   3.029
  927SOL    HW2  802   1.375   2.139   3.035
  928SOL     OW  803   1.001   1.896   3.016
  928SOL    HW1  804   0.938   1.824   2.985
  928SOL    HW2  805   1.094   1.860   3.016
  929SOL     OW  806   0.770   3.192   2.163
  929SOL    HW1  807   0.724   3.105   2.180
  929SOL    HW2  808   0.861   3.189   2.204
  931SOL     OW  809   1.352   1.914   2.030
  931SOL    HW1  810   1.387   1.873   1.946
  931SOL    HW2  811   1.262   1.876   2.050
  932SOL     OW  812   1.300   2.315   2.553
  932SOL    HW1  813   1.241   2.395   2.557
  932SOL    HW2  814   1.315   2.280   2.646
  933SOL     OW  815   1.593   2.083   2.744
  933SOL    HW1  816   1.509   2.082   2.798
  933SOL    HW2  817   1.595   2.166   2.688
  937SOL     OW  818   1.755   2.469   3.955
  937SOL    HW1  819   1.743   2.456   3.856
  937SOL    HW2  820   1.725   2.388   4.004
  981SOL     OW  821   1.390   2.437   3.802
  981SOL    HW1  822   1.336   2.416   3.883
  981SOL    HW2  823   1.481   2.396   3.811
  991SOL     OW  824   1.540   2.136   3.849
  991SOL    HW1  825   1.479   2.061   3.872
  991SOL    HW2  826   1.562   2.188   3.932
 1132SOL     OW  827   1.400   3.831   2.288
 1132SOL    HW1  828   1.376   3.794   2.198
 1132SOL    HW2  829   1.499   3.847   2.292
 1175SOL     OW  830   1.726   3.859   2.385
 1175SOL    HW1  831   1.799   3.842   2.318
 1175SOL    HW2  832   1.695   3.772   2.423
 1177SOL     OW  833   1.841   3.899   2.825
 1177SOL    HW1  834   1.880   3.814   2.789
 1177SOL    HW2  835   1.743   3.901   2.806
 1195SOL     OW  836   1.352   3.776   2.030
 1195SOL    HW1  837   1.387   3.735   1.946
 1195SOL    HW2  838   1.262   3.738   2.050
 1240SOL     OW  839   2.431   1.275   1.165
 1240SOL    HW1  840   2.338   1.268   1.128
 1240SOL    HW2  841   2.442   1.364   1.209
 1244SOL     OW  842   2.630   1.144   1.023
 1244SOL    HW1  843   2.552   1.161   1.083
 1244SOL    HW2  844   2.664   1.231   0.987
 1245SOL     OW  845   2.712   0.798   1.823
 1245SOL    HW1  846   2.708   0.874   1.888
 1245SOL    HW2  847   2.734   0.834   1.732
 1247SOL     OW  848   2.548   1.161   1.803
 1247SOL    HW1  849   2.608   1.240   1.817
 1247SOL    HW2  850   2.462   1.192   1.762
 1248SOL     OW  851   2.197   1.435   1.061
 1248SOL    HW1  852   2.119   1.404   1.008
 1248SOL    HW2  853   2.255   1.493   1.004
 1249SOL     OW  854   3.322   1.505   1.339
 1249SOL    HW1  855   3.346   1.599   1.365
 1249SOL    HW2  856   3.306   1.451   1.421
 1253SOL     OW  857   2.989   1.341   1.690
 1253SOL    HW1  858   3.036   1.341   1.778
 1253SOL    HW2  859   2.941   1.254   1.679
 1255SOL     OW  860   2.102   1.091   0.886
 1255SOL    HW1  861   2.116   1.007   0.938
 1255SOL    HW2  862   2.047   1.155   0.941
 1256SOL     OW  863   2.482   1.786   1.439
 1256SOL    HW1  864   2.390   1.769   1.474
 1256SOL    HW2  865   2.510   1.878   1.465
 1264SOL     OW  866   1.975   0.737   1.597
 1264SOL    HW1  867   2.063   0.724   1.642
 1264SOL    HW2  868   1.962   0.834   1.575
 1265SOL     OW  869   2.475   1.365   0.726
 1265SOL    HW1  870   2.426   1.278   0.735
 1265SOL    HW2  871   2.452   1.408   0.639
 1266SOL     OW  872   3.155   1.228   1.423
 1266SOL    HW1  873   3.192   1.155   1.365
 1266SOL    HW2  874   3.207   1.233   1.508
 1268SOL     OW  875   2.059   0.976   1.264
 1268SOL    HW1  876   2.148   0.931   1.250
 1268SOL    HW2  877   1.986   0.911   1.245
 1270SOL     OW  878   3.049   1.792   1.616
 1270SOL    HW1  879   3.073   1.852   1.540
 1270SOL    HW2  880   3.056   1.697   1.586
 1279SOL     OW  881   2.835   0.890   1.572
 1279SOL    HW1  882   2.881   0.806   1.543
 1279SOL    HW2  883   2.779   0.924   1.497
 1283SOL     OW  884   1.992   1.821   1.571
 1283SOL    HW1  885   1.982   1.806   1.670
 1283SOL    HW2  886   1.906   1.857   1.535
 1289SOL     OW  887   2.213   1.801   0.853
 1289SOL    HW1  888   2.263   1.715   0.859
 1289SOL    HW2  889   2.278   1.878   0.850
 1291SOL     OW  890   3.089   1.550   1.506
 1291SOL    HW1  891   3.095   1.473   1.570
 1291SOL    HW2  892   3.037   1.524   1.426
 1294SOL     OW  893   2.323   1.266   1.727
 1294SOL    HW1  894   2.273   1.267   1.641
 1294SOL    HW2  895   2.260   1.248   1.803
 1300SOL     OW  896   2.111   1.785   1.241
 1300SOL    HW1  897   2.168   1.720   1.291
 1300SOL    HW2  898   2.095   1.752   1.148
 1301SOL     OW  899   2.802   1.698   0.904
 1301SOL    HW1  900   2.882   1.641   0.925
 1301SOL    HW2  901   2.753   1.658   0.827
 1306SOL     OW  902   2.750   1.514   1.195
 1306SOL    HW1  903   2.727   1.489   1.101
 1306SOL    HW2  904   2.811   1.445   1.234
 1308SOL     OW  905   2.665   1.402   0.924
 1308SOL    HW1  906   2.755   1.416   0.882
 1308SOL    HW2  907   2.594   1.404   0.853
 1331SOL     OW  908   2.926   1.347   1.340
 1331SOL    HW1  909   2.846   1.324   1.395
 1331SOL    HW2  910   3.009   1.321   1.389
 1332SOL     OW  911   3.454   1.629   1.625
 1332SOL    HW1  912   3.481   1.663   1.535
 1332SOL    HW2  913   3.533   1.591   1.671
 1333SOL     OW  914   2.973   1.195   1.100
 1333SOL    HW1  915   2.933   1.239   1.181
 1333SOL    HW2  916   2.932   1.232   1.017
 1336SOL     OW  917   2.842   1.116   1.719
 1336SOL    HW1  918   2.743   1.122   1.729
 1336SOL    HW2  919   2.865   1.036   1.663
 1338SOL     OW  920   2.272   0.813   1.251
 1338SOL    HW1  921   2.358   0.825   1.301
 1338SOL    HW2  922   2.230   0.726   1.278
 1340SOL     OW  923   1.926   1.564   1.331
 1340SOL    HW1  924   1.880   1.646   1.297
 1340SOL    HW2  925   2.024   1.583   1.340
 1344SOL     OW  926   3.134   1.445   1.142
 1344SOL    HW1  927   3.181   1.458   1.229
 1344SOL    HW2  928   3.068   1.371   1.151
 1346SOL     OW  929   2.216   1.510   1.329
 1346SOL    HW1  930   2.195   1.466   1.242
 1346SOL    HW2  931   2.313   1.536   1.332
 1347SOL     OW  932   2.264   0.751   1.598
 1347SOL    HW1  933   2.332   0.806   1.551
 1347SOL    HW2  934   2.304   0.663   1.625
 1355SOL     OW  935   1.899   1.310   1.282
 1355SOL    HW1  936   1.952   1.261   1.350
 1355SOL    HW2  937   1.921   1.408   1.287
 1361SOL     OW  938   2.842   1.573   1.700
 1361SOL    HW1  939   2.822   1.617   1.612
 1361SOL    HW2  940   2.881   1.482   1.684
 1362SOL     OW  941   3.721   1.518   1.605
 1362SOL    HW1  942   3.735   1.545   1.510
 1362SOL    HW2  943   3.804   1.540   1.658
 1363SOL     OW  944   2.212   0.898   1.804
 1363SOL    HW1  945   2.288   0.942   1.852
 1363SOL    HW2  946   2.247   0.851   1.722
 1372SOL     OW  947   1.950   1.801   0.927
 1372SOL    HW1  948   1.908   1.715   0.900
 1372SOL    HW2  949   2.044   1.804   0.893
 1373SOL     OW  950   2.366   1.568   0.910
 1373SOL    HW1  951   2.432   1.642   0.919
 1373SOL    HW2  952   2.410   1.489   0.868
 1377SOL     OW  953   3.231   0.950   1.660
 1377SOL    HW1  954   3.270   1.039   1.680
 1377SOL    HW2  955   3.241   0.930   1.563
 1380SOL     OW  956   2.114   1.564   1.744
 1380SOL    HW1  957   2.084   1.621   1.820
 1380SOL    HW2  958   2.107   1.467   1.770
 1382SOL     OW  959   2.792   1.678   1.465
 1382SOL    HW1  960   2.768   1.660   1.370
 1382SOL    HW2  961   2.822   1.772   1.475
 1384SOL     OW  962   2.021   1.137   1.466
 1384SOL    HW1  963   2.043   1.076   1.542
 1384SOL    HW2  964   2.031   1.088   1.380
 1388SOL     OW  965   3.114   1.731   1.128
 1388SOL    HW1  966   3.198   1.736   1.074
 1388SOL    HW2  967   3.091   1.635   1.146
 1389SOL     OW  968   1.945   1.258   1.022
 1389SOL    HW1  969   1.940   1.257   1.122
 1389SOL    HW2  970   1.862   1.217   0.984
 1390SOL     OW  971   2.550   1.662   1.716
 1390SOL    HW1  972   2.494   1.743   1.725
 1390SOL    HW2  973   2.602   1.666   1.630
 1394SOL     OW  974   1.992   1.794   1.851
 1394SOL    HW1  975   1.951   1.720   1.904
 1394SOL    HW2  976   2.056   1.845   1.909
 1396SOL     OW  977   2.692   1.273   1.422
 1396SOL    HW1  978   2.687   1.306   1.517
 1396SOL    HW2  979   2.606   1.292   1.376
 1398SOL     OW  980   3.512   1.720   1.394
 1398SOL    HW1  981   3.565   1.730   1.310
 1398SOL    HW2  982   3.485   1.810   1.428
 1402SOL     OW  983   2.684   1.002   1.372
 1402SOL    HW1  984   2.724   1.001   1.280
 1402SOL    HW2  985   2.694   1.094   1.412
 1405SOL     OW  986   2.234   1.288   1.490
 1405SOL    HW1  987   2.221   1.381   1.456
 1405SOL    HW2  988   2.150   1.236   1.477
 1412SOL     OW  989   1.967   1.013   1.726
 1412SOL    HW1  990   1.890   0.980   1.780
 1412SOL    HW2  991   2.052   0.983   1.768
 1417SOL     OW  992   2.475   0.842   1.431
 1417SOL    HW1  993   2.531   0.923   1.414
 1417SOL    HW2  994   2.534   0.762   1.434
 1418SOL     OW  995   3.355   1.767   0.959
 1418SOL    HW1  996   3.388   1.831   0.890
 1418SOL    HW2  997   3.421   1.761   1.034
 1419SOL     OW  998   2.578   0.565   1.708
 1419SOL    HW1  999   2.597   0.630   1.782
 1419SOL    HW2 1000   2.638   0.485   1.717
 1420SOL     OW 1001   3.312   1.220   1.633
 1420SOL    HW1 1002   3.303   1.210   1.732
 1420SOL    HW2 1003   3.408   1.213   1.607
 1421SOL     OW 1004   2.252   1.741   1.560
 1421SOL    HW1 1005   2.161   1.782   1.558
 1421SOL    HW2 1006   2.245   1.647   1.592
 1428SOL     OW 1007   2.523   1.790   0.953
 1428SOL    HW1 1008   2.477   1.878   0.940
 1428SOL    HW2 1009   2.622   1.802   0.946
 1432SOL     OW 1010   2.083   1.314   1.844
 1432SOL    HW1 1011   2.018   1.241   1.823
 1432SOL    HW2 1012   2.087   1.328   1.942
 1434SOL     OW 1013   2.534   1.391   1.624
 1434SOL    HW1 1014   2.456   1.341   1.662
 1434SOL    HW2 1015   2.531   1.486   1.655
 1439SOL     OW 1016   2.674   1.586   0.687
 1439SOL    HW1 1017   2.706   1.596   0.593
 1439SOL    HW2 1018   2.595   1.524   0.689
 1443SOL     OW 1019   2.480   1.567   1.284
 1443SOL    HW1 1020   2.475   1.649   1.341
 1443SOL    HW2 1021   2.569   1.564   1.239
 1449SOL     OW 1022   2.092   0.628   1.975
 1449SOL    HW1 1023   1.999   0.626   2.012
 1449SOL    HW2 1024   2.093   0.589   1.883
 1452SOL     OW 1025   2.431   1.275   3.027
 1452SOL    HW1 1026   2.338   1.268   2.990
 1452SOL    HW2 1027   2.442   1.364   3.071
 1453SOL     OW 1028   3.417   1.511   2.565
 1453SOL    HW1 1029   3.360   1.495   2.646
 1453SOL    HW2 1030   3.358   1.521   2.485
 1454SOL     OW 1031   2.997   0.703   2.579
 1454SOL    HW1 1032   3.054   0.781   2.554
 1454SOL    HW2 1033   2.937   0.729   2.655
 1456SOL     OW 1034   2.630   1.144   2.885
 1456SOL    HW1 1035   2.552   1.161   2.945
 1456SOL    HW2 1036   2.664   1.231   2.849
 1458SOL     OW 1037   2.547   1.012   2.527
 1458SOL    HW1 1038   2.616   0.996   2.597
 1458SOL    HW2 1039   2.474   1.069   2.565
 1460SOL     OW 1040   2.197   1.435   2.923
 1460SOL    HW1 1041   2.119   1.404   2.870
 1460SOL    HW2 1042   2.255   1.493   2.866
 1461SOL     OW 1043   3.322   1.505   3.201
 1461SOL    HW1 1044   3.346   1.599   3.227
 1461SOL    HW2 1045   3.306   1.451   3.283
 1464SOL     OW 1046   2.093   1.713   2.345
 1464SOL    HW1 1047   2.127   1.790   2.399
 1464SOL    HW2 1048   2.137   1.713   2.255
 1465SOL     OW 1049   2.989   1.341   3.552
 1465SOL    HW1 1050   3.036   1.341   3.640
 1465SOL    HW2 1051   2.941   1.254   3.541
 1466SOL     OW 1052   2.092   1.434   2.400
 1466SOL    HW1 1053   2.066   1.530   2.400
 1466SOL    HW2 1054   2.021   1.380   2.445
 1467SOL     OW 1055   2.102   1.091   2.748
 1467SOL    HW1 1056   2.116   1.007   2.800
 1467SOL    HW2 1057   2.047   1.155   2.803
 1468SOL     OW 1058   2.482   1.786   3.301
 1468SOL    HW1 1059   2.390   1.769   3.336
 1468SOL    HW2 1060   2.510   1.878   3.327
 1469SOL     OW 1061   2.468   0.964   1.985
 1469SOL    HW1 1062   2.475   1.048   1.931
 1469SOL    HW2 1063   2.514   0.977   2.073
 1471SOL     OW 1064   1.984   0.643   2.425
 1471SOL    HW1 1065   1.939   0.555   2.442
 1471SOL    HW2 1066   1.983   0.697   2.509
 1472SOL     OW 1067   3.704   1.767   2.221
 1472SOL    HW1 1068   3.758   1.738   2.301
 1472SOL    HW2 1069   3.734   1.857   2.192
 1473SOL     OW 1070   1.889   1.596   1.979
 1473SOL    HW1 1071   1.870   1.500   2.000
 1473SOL    HW2 1072   1.856   1.654   2.054
 1475SOL     OW 1073   3.503   1.108   2.294
 1475SOL    HW1 1074   3.589   1.110   2.242
 1475SOL    HW2 1075   3.517   1.155   2.382
 1477SOL     OW 1076   2.475   1.365   2.588
 1477SOL    HW1 1077   2.426   1.278   2.597
 1477SOL    HW2 1078   2.452   1.408   2.501
 1478SOL     OW 1079   3.155   1.228   3.285
 1478SOL    HW1 1080   3.192   1.155   3.227
 1478SOL    HW2 1081   3.207   1.233   3.370
 1480SOL     OW 1082   2.059   0.976   3.126
 1480SOL    HW1 1083   2.148   0.931   3.112
 1480SOL    HW2 1084   1.986   0.911   3.107
 1481SOL     OW 1085   3.387   0.999   2.052
 1481SOL    HW1 1086   3.324   0.923   2.065
 1481SOL    HW2 1087   3.435   1.017   2.138
 1482SOL     OW 1088   3.049   1.792   3.478
 1482SOL    HW1 1089   3.073   1.852   3.402
 1482SOL    HW2 1090   3.056   1.697   3.448
 1484SOL     OW 1091   3.328   1.417   2.815
 1484SOL    HW1 1092   3.269   1.423   2.895
 1484SOL    HW2 1093   3.313   1.329   2.769
 1485SOL     OW 1094   3.529   1.714   2.434
 1485SOL    HW1 1095   3.488   1.691   2.346
 1485SOL    HW2 1096   3.511   1.640   2.499
 1486SOL     OW 1097   2.460   0.729   2.132
 1486SOL    HW1 1098   2.484   0.798   2.064
 1486SOL    HW2 1099   2.382   0.762   2.186
 1488SOL     OW 1100   3.438   1.662   2.169
 1488SOL    HW1 1101   3.527   1.708   2.172
 1488SOL    HW2 1102   3.417   1.638   2.074
 1493SOL     OW 1103   2.903   0.701   2.291
 1493SOL    HW1 1104   2.929   0.697   2.387
 1493SOL    HW2 1105   2.818   0.650   2.277
 1494SOL     OW 1106   1.938   0.811   2.651
 1494SOL    HW1 1107   2.037   0.799   2.660
 1494SOL    HW2 1108   1.914   0.906   2.672
 1495SOL     OW 1109   1.992   1.821   3.433
 1495SOL    HW1 1110   1.982   1.806   3.532
 1495SOL    HW2 1111   1.906   1.857   3.397
 1498SOL     OW 1112   3.224   1.144   2.407
 1498SOL    HW1 1113   3.307   1.115   2.359
 1498SOL    HW2 1114   3.175   1.211   2.351
 1500SOL     OW 1115   2.870   1.456   2.339
 1500SOL    HW1 1116   2.824   1.528   2.287
 1500SOL    HW2 1117   2.866   1.476   2.437
 1501SOL     OW 1118   2.213   1.801   2.715
 1501SOL    HW1 1119   2.263   1.715   2.721
 1501SOL    HW2 1120   2.278   1.878   2.712
 1503SOL     OW 1121   3.089   1.550   3.368
 1503SOL    HW1 1122   3.095   1.473   3.432
 1503SOL    HW2 1123   3.037   1.524   3.288
 1504SOL     OW 1124   2.183   0.943   2.104
 1504SOL    HW1 1125   2.265   0.982   2.062
 1504SOL    HW2 1126   2.156   0.861   2.055
 1506SOL     OW 1127   2.323   1.266   3.589
 1506SOL    HW1 1128   2.273   1.267   3.503
 1506SOL    HW2 1129   2.260   1.248   3.665
 1507SOL     OW 1130   2.973   1.776   2.099
 1507SOL    HW1 1131   2.913   1.714   2.149
 1507SOL    HW2 1132   3.004   1.732   2.014
 1509SOL     OW 1133   3.494   1.377   1.943
 1509SOL    HW1 1134   3.462   1.471   1.933
 1509SOL    HW2 1135   3.418   1.314   1.931
 1510SOL     OW 1136   2.326   1.743   2.185
 1510SOL    HW1 1137   2.359   1.782   2.271
 1510SOL    HW2 1138   2.402   1.736   2.120
 1512SOL     OW 1139   2.111   1.785   3.103
 1512SOL    HW1 1140   2.168   1.720   3.153
 1512SOL    HW2 1141   2.095   1.752   3.010
 1513SOL     OW 1142   2.802   1.698   2.766
 1513SOL    HW1 1143   2.882   1.641   2.787
 1513SOL    HW2 1144   2.753   1.658   2.689
 1514SOL     OW 1145   2.244   0.700   2.342
 1514SOL    HW1 1146   2.289   0.610   2.339
 1514SOL    HW2 1147   2.150   0.689   2.375
 1518SOL     OW 1148   2.750   1.514   3.057
 1518SOL    HW1 1149   2.727   1.489   2.963
 1518SOL    HW2 1150   2.811   1.445   3.096
 1520SOL     OW 1151   2.665   1.402   2.786
 1520SOL    HW1 1152   2.755   1.416   2.744
 1520SOL    HW2 1153   2.594   1.404   2.715
 1523SOL     OW 1154   3.296   1.188   1.903
 1523SOL    HW1 1155   3.328   1.112   1.960
 1523SOL    HW2 1156   3.204   1.215   1.933
 1527SOL     OW 1157   3.089   1.570   2.655
 1527SOL    HW1 1158   3.110   1.644   2.590
 1527SOL    HW2 1159   3.157   1.570   2.728
 1528SOL     OW 1160   2.321   1.152   2.603
 1528SOL    HW1 1161   2.250   1.125   2.668
 1528SOL    HW2 1162   2.295   1.124   2.510
 1529SOL     OW 1163   3.133   1.797   2.453
 1529SOL    HW1 1164   3.177   1.861   2.389
 1529SOL    HW2 1165   3.083   1.849   2.523
 1535SOL     OW 1166   3.291   1.173   2.729
 1535SOL    HW1 1167   3.236   1.089   2.722
 1535SOL    HW2 1168   3.317   1.202   2.637
 1538SOL     OW 1169   2.350   1.385   2.036
 1538SOL    HW1 1170   2.263   1.370   2.083
 1538SOL    HW2 1171   2.333   1.411   1.941
 1539SOL     OW 1172   3.526   1.280   2.519
 1539SOL    HW1 1173   3.625   1.288   2.533
 1539SOL    HW2 1174   3.481   1.364   2.550
 1543SOL     OW 1175   2.926   1.347   3.202
 1543SOL    HW1 1176   2.846   1.324   3.257
 1543SOL    HW2 1177   3.009   1.321   3.251
 1545SOL     OW 1178   2.973   1.195   2.962
 1545SOL    HW1 1179   2.933   1.239   3.043
 1545SOL    HW2 1180   2.932   1.232   2.879
 1549SOL     OW 1181   2.567   1.050   2.230
 1549SOL    HW1 1182   2.553   1.057   2.329
 1549SOL    HW2 1183   2.651   0.999   2.212
 1550SOL     OW 1184   2.272   0.813   3.113
 1550SOL    HW1 1185   2.358   0.825   3.163
 1550SOL    HW2 1186   2.230   0.726   3.140
 1552SOL     OW 1187   1.926   1.564   3.193
 1552SOL    HW1 1188   1.880   1.646   3.159
 1552SOL    HW2 1189   2.024   1.583   3.202
 1553SOL     OW 1190   2.229   1.100   2.363
 1553SOL    HW1 1191   2.222   1.183   2.307
 1553SOL    HW2 1192   2.233   1.020   2.303
 1554SOL     OW 1193   2.428   0.537   2.727
 1554SOL    HW1 1194   2.440   0.603   2.653
 1554SOL    HW2 1195   2.474   0.571   2.810
 1555SOL     OW 1196   3.114   1.348   2.250
 1555SOL    HW1 1197   3.164   1.425   2.290
 1555SOL    HW2 1198   3.019   1.350   2.282
 1556SOL     OW 1199   3.134   1.445   3.004
 1556SOL    HW1 1200   3.181   1.458   3.091
 1556SOL    HW2 1201   3.068   1.371   3.013
 1558SOL     OW 1202   2.216   1.510   3.191
 1558SOL    HW1 1203   2.195   1.466   3.104
 1558SOL    HW2 1204   2.313   1.536   3.194
 1563SOL     OW 1205   2.435   0.870   2.891
 1563SOL    HW1 1206   2.479   0.959   2.882
 1563SOL    HW2 1207   2.372   0.870   2.968
 1567SOL     OW 1208   1.899   1.310   3.144
 1567SOL    HW1 1209   1.952   1.261   3.212
 1567SOL    HW2 1210   1.921   1.408   3.149
 1568SOL     OW 1211   2.594   0.634   2.926
 1568SOL    HW1 1212   2.653   0.608   2.850
 1568SOL    HW2 1213   2.566   0.730   2.915
 1572SOL     OW 1214   2.885   0.766   2.828
 1572SOL    HW1 1215   2.900   0.787   2.924
 1572SOL    HW2 1216   2.855   0.671   2.819
 1573SOL     OW 1217   2.842   1.573   3.562
 1573SOL    HW1 1218   2.822   1.617   3.474
 1573SOL    HW2 1219   2.881   1.482   3.546
 1577SOL     OW 1220   3.165   0.838   1.904
 1577SOL    HW1 1221   3.199   0.745   1.919
 1577SOL    HW2 1222   3.183   0.865   1.809
 1578SOL     OW 1223   2.930   1.333   2.711
 1578SOL    HW1 1224   2.937   1.249   2.656
 1578SOL    HW2 1225   2.992   1.402   2.675
 1579SOL     OW 1226   2.181   0.810   2.811
 1579SOL    HW1 1227   2.274   0.846   2.816
 1579SOL    HW2 1228   2.175   0.725   2.863
 1583SOL     OW 1229   1.870   1.326   2.062
 1583SOL    HW1 1230   1.777   1.347   2.031
 1583SOL    HW2 1231   1.880   1.227   2.075
 1584SOL     OW 1232   1.950   1.801   2.789
 1584SOL    HW1 1233   1.908   1.715   2.762
 1584SOL    HW2 1234   2.044   1.804   2.755
 1585SOL     OW 1235   2.366   1.568   2.772
 1585SOL    HW1 1236   2.432   1.642   2.781
 1585SOL    HW2 1237   2.410   1.489   2.730
 1586SOL     OW 1238   2.864   0.796   3.100
 1586SOL    HW1 1239   2.905   0.764   3.186
 1586SOL    HW2 1240   2.768   0.769   3.097
 1590SOL     OW 1241   2.677   0.572   2.187
 1590SOL    HW1 1242   2.684   0.483   2.141
 1590SOL    HW2 1243   2.583   0.606   2.179
 1592SOL     OW 1244   2.114   1.564   3.606
 1592SOL    HW1 1245   2.084   1.621   3.682
 1592SOL    HW2 1246   2.107   1.467   3.632
 1594SOL     OW 1247   2.792   1.678   3.327
 1594SOL    HW1 1248   2.768   1.660   3.232
 1594SOL    HW2 1249   2.822   1.772   3.337
 1595SOL     OW 1250   2.335   0.500   2.053
 1595SOL    HW1 1251   2.396   0.580   2.057
 1595SOL    HW2 1252   2.240   0.531   2.060
 1596SOL     OW 1253   2.021   1.137   3.328
 1596SOL    HW1 1254   2.043   1.076   3.404
 1596SOL    HW2 1255   2.031   1.088   3.242
 1597SOL     OW 1256   3.209   1.059   3.096
 1597SOL    HW1 1257   3.233   0.996   3.022
 1597SOL    HW2 1258   3.119   1.099   3.078
 1598SOL     OW 1259   3.164   0.855   2.171
 1598SOL    HW1 1260   3.078   0.824   2.213
 1598SOL    HW2 1261   3.160   0.841   2.072
 1599SOL     OW 1262   3.621   1.747   3.016
 1599SOL    HW1 1263   3.682   1.777   2.943
 1599SOL    HW2 1264   3.583   1.658   2.994
 1600SOL     OW 1265   3.114   1.731   2.990
 1600SOL    HW1 1266   3.198   1.736   2.936
 1600SOL    HW2 1267   3.091   1.635   3.008
 1601SOL     OW 1268   1.945   1.258   2.884
 1601SOL    HW1 1269   1.940   1.257   2.984
 1601SOL    HW2 1270   1.862   1.217   2.846
 1602SOL     OW 1271   2.550   1.662   3.578
 1602SOL    HW1 1272   2.494   1.743   3.587
 1602SOL    HW2 1273   2.602   1.666   3.492
 1604SOL     OW 1274   3.250   1.573   2.339
 1604SOL    HW1 1275   3.317   1.585   2.265
 1604SOL    HW2 1276   3.210   1.662   2.362
 1605SOL     OW 1277   1.992   1.794   3.713
 1605SOL    HW1 1278   1.951   1.720   3.766
 1605SOL    HW2 1279   2.056   1.845   3.771
 1606SOL     OW 1280   3.142   0.927   2.534
 1606SOL    HW1 1281   3.202   0.846   2.536
 1606SOL    HW2 1282   3.182   0.996   2.474
 1607SOL     OW 1283   2.692   1.273   3.284
 1607SOL    HW1 1284   2.687   1.306   3.379
 1607SOL    HW2 1285   2.606   1.292   3.238
 1608SOL     OW 1286   2.534   1.616   2.016
 1608SOL    HW1 1287   2.543   1.626   1.917
 1608SOL    HW2 1288   2.494   1.527   2.037
 1609SOL     OW 1289   3.512   1.720   3.256
 1609SOL    HW1 1290   3.565   1.730   3.172
 1609SOL    HW2 1291   3.485   1.810   3.290
 1612SOL     OW 1292   3.056   1.612   1.893
 1612SOL    HW1 1293   3.062   1.519   1.930
 1612SOL    HW2 1294   2.997   1.612   1.813
 1613SOL     OW 1295   2.684   1.002   3.234
 1613SOL    HW1 1296   2.724   1.001   3.142
 1613SOL    HW2 1297   2.694   1.094   3.274
 1614SOL     OW 1298   2.778   0.910   2.153
 1614SOL    HW1 1299   2.841   0.948   2.085
 1614SOL    HW2 1300   2.818   0.827   2.192
 1615SOL     OW 1301   3.366   1.607   1.906
 1615SOL    HW1 1302   3.274   1.644   1.913
 1615SOL    HW2 1303   3.404   1.627   1.816
 1616SOL     OW 1304   2.234   1.288   3.352
 1616SOL    HW1 1305   2.221   1.381   3.318
 1616SOL    HW2 1306   2.150   1.236   3.339
 1617SOL     OW 1307   3.476   1.292   3.151
 1617SOL    HW1 1308   3.536   1.295   3.231
 1617SOL    HW2 1309   3.401   1.356   3.164
 1618SOL     OW 1310   2.901   1.098   2.558
 1618SOL    HW1 1311   2.831   1.051   2.612
 1618SOL    HW2 1312   2.960   1.030   2.515
 1620SOL     OW 1313   2.452   1.487   2.353
 1620SOL    HW1 1314   2.494   1.429   2.283
 1620SOL    HW2 1315   2.408   1.566   2.309
 1622SOL     OW 1316   2.117   1.348   2.152
 1622SOL    HW1 1317   2.021   1.349   2.125
 1622SOL    HW2 1318   2.129   1.401   2.236
 1628SOL     OW 1319   3.045   1.335   1.981
 1628SOL    HW1 1320   2.946   1.324   1.983
 1628SOL    HW2 1321   3.079   1.350   2.074
 1629SOL     OW 1322   2.475   0.842   3.293
 1629SOL    HW1 1323   2.531   0.923   3.276
 1629SOL    HW2 1324   2.534   0.762   3.296
 1630SOL     OW 1325   3.355   1.767   2.821
 1630SOL    HW1 1326   3.388   1.831   2.752
 1630SOL    HW2 1327   3.421   1.761   2.896
 1633SOL     OW 1328   2.252   1.741   3.422
 1633SOL    HW1 1329   2.161   1.782   3.420
 1633SOL    HW2 1330   2.245   1.647   3.454
 1636SOL     OW 1331   2.456   0.745   2.514
 1636SOL    HW1 1332   2.506   0.830   2.495
 1636SOL    HW2 1333   2.368   0.747   2.466
 1639SOL     OW 1334   2.721   1.374   1.878
 1639SOL    HW1 1335   2.675   1.389   1.966
 1639SOL    HW2 1336   2.765   1.459   1.848
 1640SOL     OW 1337   2.523   1.790   2.815
 1640SOL    HW1 1338   2.477   1.878   2.802
 1640SOL    HW2 1339   2.622   1.802   2.808
 1641SOL     OW 1340   2.721   0.956   2.723
 1641SOL    HW1 1341   2.775   0.887   2.771
 1641SOL    HW2 1342   2.689   1.025   2.789
 1642SOL     OW 1343   2.945   0.984   1.949
 1642SOL    HW1 1344   2.922   1.037   1.867
 1642SOL    HW2 1345   3.026   0.928   1.930
 1643SOL     OW 1346   3.723   1.569   2.713
 1643SOL    HW1 1347   3.652   1.557   2.643
 1643SOL    HW2 1348   3.724   1.490   2.773
 1644SOL     OW 1349   2.083   1.314   3.706
 1644SOL    HW1 1350   2.018   1.241   3.685
 1644SOL    HW2 1351   2.087   1.328   3.804
 1645SOL     OW 1352   1.941   1.240   2.515
 1645SOL    HW1 1353   1.940   1.193   2.603
 1645SOL    HW2 1354   2.023   1.212   2.464
 1646SOL     OW 1355   2.534   1.391   3.486
 1646SOL    HW1 1356   2.456   1.341   3.524
 1646SOL    HW2 1357   2.531   1.486   3.517
 1649SOL     OW 1358   3.567   1.487   2.966
 1649SOL    HW1 1359   3.474   1.462   2.939
 1649SOL    HW2 1360   3.593   1.437   3.048
 1651SOL     OW 1361   2.674   1.586   2.549
 1651SOL    HW1 1362   2.706   1.596   2.455
 1651SOL    HW2 1363   2.595   1.524   2.551
 1654SOL     OW 1364   2.632   1.330   2.163
 1654SOL    HW1 1365   2.586   1.243   2.180
 1654SOL    HW2 1366   2.723   1.327   2.204
 1655SOL     OW 1367   2.480   1.567   3.146
 1655SOL    HW1 1368   2.475   1.649   3.203
 1655SOL    HW2 1369   2.569   1.564   3.101
 1659SOL     OW 1370   1.901   1.077   2.162
 1659SOL    HW1 1371   2.000   1.066   2.153
 1659SOL    HW2 1372   1.861   0.991   2.194
 1660SOL     OW 1373   2.737   1.646   2.199
 1660SOL    HW1 1374   2.660   1.611   2.145
 1660SOL    HW2 1375   2.705   1.717   2.261
 1671SOL     OW 1376   1.889   1.596   3.841
 1671SOL    HW1 1377   1.870   1.500   3.862
 1671SOL    HW2 1378   1.856   1.654   3.916
 1725SOL     OW 1379   2.534   1.616   3.878
 1725SOL    HW1 1380   2.543   1.626   3.779
 1725SOL    HW2 1381   2.494   1.527   3.899
 1737SOL     OW 1382   2.721   1.374   3.740
 1737SOL    HW1 1383   2.675   1.389   3.828
 1737SOL    HW2 1384   2.765   1.459   3.710
 1748SOL     OW 1385   2.087   2.137   0.996
 1748SOL    HW1 1386   2.122   2.120   1.088
 1748SOL    HW2 1387   1.999   2.092   0.984
 1749SOL     OW 1388   1.881   2.230   0.647
 1749SOL    HW1 1389   1.799   2.273   0.686
 1749SOL    HW2 1390   1.853   2.157   0.584
 1750SOL     OW 1391   2.431   3.137   1.165
 1750SOL    HW1 1392   2.338   3.130   1.128
 1750SOL    HW2 1393   2.442   3.226   1.209
 1752SOL     OW 1394   2.997   2.565   0.717
 1752SOL    HW1 1395   3.054   2.643   0.692
 1752SOL    HW2 1396   2.937   2.591   0.793
 1754SOL     OW 1397   2.630   3.006   1.023
 1754SOL    HW1 1398   2.552   3.023   1.083
 1754SOL    HW2 1399   2.664   3.093   0.987
 1755SOL     OW 1400   2.712   2.660   1.823
 1755SOL    HW1 1401   2.708   2.736   1.888
 1755SOL    HW2 1402   2.734   2.696   1.732
 1756SOL     OW 1403   2.547   2.874   0.665
 1756SOL    HW1 1404   2.616   2.858   0.735
 1756SOL    HW2 1405   2.474   2.931   0.703
 1757SOL     OW 1406   2.548   3.023   1.803
 1757SOL    HW1 1407   2.608   3.102   1.817
 1757SOL    HW2 1408   2.462   3.054   1.762
 1758SOL     OW 1409   2.197   3.297   1.061
 1758SOL    HW1 1410   2.119   3.266   1.008
 1758SOL    HW2 1411   2.255   3.355   1.004
 1759SOL     OW 1412   3.322   3.367   1.339
 1759SOL    HW1 1413   3.346   3.461   1.365
 1759SOL    HW2 1414   3.306   3.313   1.421
 1760SOL     OW 1415   2.300   2.254   1.499
 1760SOL    HW1 1416   2.382   2.198   1.508
 1760SOL    HW2 1417   2.219   2.196   1.503
 1763SOL     OW 1418   2.989   3.203   1.690
 1763SOL    HW1 1419   3.036   3.203   1.778
 1763SOL    HW2 1420   2.941   3.116   1.679
 1765SOL     OW 1421   2.102   2.953   0.886
 1765SOL    HW1 1422   2.116   2.869   0.938
 1765SOL    HW2 1423   2.047   3.017   0.941
 1766SOL     OW 1424   2.482   3.648   1.439
 1766SOL    HW1 1425   2.390   3.631   1.474
 1766SOL    HW2 1426   2.510   3.740   1.465
 1768SOL     OW 1427   3.456   1.976   1.480
 1768SOL    HW1 1428   3.438   2.043   1.408
 1768SOL    HW2 1429   3.453   2.022   1.569
 1769SOL     OW 1430   1.984   2.505   0.563
 1769SOL    HW1 1431   1.939   2.417   0.580
 1769SOL    HW2 1432   1.983   2.559   0.647
 1774SOL     OW 1433   1.975   2.599   1.597
 1774SOL    HW1 1434   2.063   2.586   1.642
 1774SOL    HW2 1435   1.962   2.696   1.575
 1776SOL     OW 1436   3.155   3.090   1.423
 1776SOL    HW1 1437   3.192   3.017   1.365
 1776SOL    HW2 1438   3.207   3.095   1.508
 1778SOL     OW 1439   2.059   2.838   1.264
 1778SOL    HW1 1440   2.148   2.793   1.250
 1778SOL    HW2 1441   1.986   2.773   1.245
 1780SOL     OW 1442   3.049   3.654   1.616
 1780SOL    HW1 1443   3.073   3.714   1.540
 1780SOL    HW2 1444   3.056   3.559   1.586
 1781SOL     OW 1445   2.179   2.113   1.801
 1781SOL    HW1 1446   2.250   2.184   1.807
 1781SOL    HW2 1447   2.091   2.152   1.829
 1785SOL     OW 1448   3.143   2.207   0.944
 1785SOL    HW1 1449   3.057   2.157   0.931
 1785SOL    HW2 1450   3.205   2.153   1.000
 1787SOL     OW 1451   2.669   2.467   1.465
 1787SOL    HW1 1452   2.622   2.464   1.554
 1787SOL    HW2 1453   2.618   2.412   1.399
 1788SOL     OW 1454   3.256   2.331   1.674
 1788SOL    HW1 1455   3.236   2.374   1.762
 1788SOL    HW2 1456   3.334   2.269   1.683
 1789SOL     OW 1457   2.835   2.752   1.572
 1789SOL    HW1 1458   2.881   2.668   1.543
 1789SOL    HW2 1459   2.779   2.786   1.497
 1790SOL     OW 1460   2.853   2.272   1.242
 1790SOL    HW1 1461   2.776   2.306   1.296
 1790SOL    HW2 1462   2.819   2.221   1.163
 1792SOL     OW 1463   1.938   2.673   0.789
 1792SOL    HW1 1464   2.037   2.661   0.798
 1792SOL    HW2 1465   1.914   2.768   0.810
 1793SOL     OW 1466   1.992   3.683   1.571
 1793SOL    HW1 1467   1.982   3.668   1.670
 1793SOL    HW2 1468   1.906   3.719   1.535
 1795SOL     OW 1469   3.581   2.447   1.831
 1795SOL    HW1 1470   3.555   2.536   1.795
 1795SOL    HW2 1471   3.579   2.379   1.758
 1797SOL     OW 1472   2.412   2.058   0.885
 1797SOL    HW1 1473   2.407   2.053   0.985
 1797SOL    HW2 1474   2.414   2.154   0.856
 1801SOL     OW 1475   3.089   3.412   1.506
 1801SOL    HW1 1476   3.095   3.335   1.570
 1801SOL    HW2 1477   3.037   3.386   1.426
 1804SOL     OW 1478   2.323   3.128   1.727
 1804SOL    HW1 1479   2.273   3.129   1.641
 1804SOL    HW2 1480   2.260   3.110   1.803
 1806SOL     OW 1481   2.064   2.147   1.498
 1806SOL    HW1 1482   1.984   2.207   1.485
 1806SOL    HW2 1483   2.054   2.098   1.584
 1810SOL     OW 1484   2.111   3.647   1.241
 1810SOL    HW1 1485   2.168   3.582   1.291
 1810SOL    HW2 1486   2.095   3.614   1.148
 1812SOL     OW 1487   2.244   2.562   0.480
 1812SOL    HW1 1488   2.289   2.472   0.477
 1812SOL    HW2 1489   2.150   2.551   0.513
 1813SOL     OW 1490   3.409   2.084   1.729
 1813SOL    HW1 1491   3.404   2.121   1.821
 1813SOL    HW2 1492   3.337   2.015   1.717
 1815SOL     OW 1493   2.643   2.126   1.749
 1815SOL    HW1 1494   2.710   2.065   1.792
 1815SOL    HW2 1495   2.570   2.145   1.814
 1816SOL     OW 1496   2.750   3.376   1.195
 1816SOL    HW1 1497   2.727   3.351   1.101
 1816SOL    HW2 1498   2.811   3.307   1.234
 1817SOL     OW 1499   3.213   2.452   1.433
 1817SOL    HW1 1500   3.241   2.409   1.518
 1817SOL    HW2 1501   3.238   2.548   1.434
 1818SOL     OW 1502   2.665   3.264   0.924
 1818SOL    HW1 1503   2.755   3.278   0.882
 1818SOL    HW2 1504   2.594   3.266   0.853
 1819SOL     OW 1505   2.784   2.365   0.899
 1819SOL    HW1 1506   2.759   2.356   0.803
 1819SOL    HW2 1507   2.832   2.283   0.930
 1820SOL     OW 1508   2.401   1.926   0.512
 1820SOL    HW1 1509   2.320   1.927   0.570
 1820SOL    HW2 1510   2.404   2.009   0.457
 1823SOL     OW 1511   2.938   2.545   1.464
 1823SOL    HW1 1512   2.858   2.484   1.467
 1823SOL    HW2 1513   3.019   2.492   1.440
 1825SOL     OW 1514   2.321   3.014   0.741
 1825SOL    HW1 1515   2.250   2.987   0.806
 1825SOL    HW2 1516   2.295   2.986   0.648
 1828SOL     OW 1517   1.940   2.418   1.386
 1828SOL    HW1 1518   2.032   2.417   1.345
 1828SOL    HW2 1519   1.934   2.492   1.453
 1829SOL     OW 1520   2.423   2.084   1.147
 1829SOL    HW1 1521   2.461   2.000   1.184
 1829SOL    HW2 1522   2.335   2.103   1.191
 1830SOL     OW 1523   2.728   2.316   0.642
 1830SOL    HW1 1524   2.696   2.388   0.580
 1830SOL    HW2 1525   2.752   2.235   0.589
 1831SOL     OW 1526   2.879   1.901   0.753
 1831SOL    HW1 1527   2.807   1.906   0.684
 1831SOL    HW2 1528   2.855   1.832   0.822
 1833SOL     OW 1529   3.328   2.452   0.992
 1833SOL    HW1 1530   3.298   2.357   0.999
 1833SOL    HW2 1531   3.401   2.468   1.058
 1839SOL     OW 1532   3.616   3.085   1.588
 1839SOL    HW1 1533   3.707   3.046   1.575
 1839SOL    HW2 1534   3.624   3.181   1.612
 1840SOL     OW 1535   2.926   3.209   1.340
 1840SOL    HW1 1536   2.846   3.186   1.395
 1840SOL    HW2 1537   3.009   3.183   1.389
 1842SOL     OW 1538   2.973   3.057   1.100
 1842SOL    HW1 1539   2.933   3.101   1.181
 1842SOL    HW2 1540   2.932   3.094   1.017
 1844SOL     OW 1541   2.777   1.951   1.402
 1844SOL    HW1 1542   2.802   1.931   1.307
 1844SOL    HW2 1543   2.849   2.007   1.444
 1845SOL     OW 1544   2.842   2.978   1.719
 1845SOL    HW1 1545   2.743   2.984   1.729
 1845SOL    HW2 1546   2.865   2.898   1.663
 1847SOL     OW 1547   2.272   2.675   1.251
 1847SOL    HW1 1548   2.358   2.687   1.301
 1847SOL    HW2 1549   2.230   2.588   1.278
 1848SOL     OW 1550   3.136   2.248   1.262
 1848SOL    HW1 1551   3.157   2.322   1.326
 1848SOL    HW2 1552   3.047   2.265   1.219
 1849SOL     OW 1553   1.926   3.426   1.331
 1849SOL    HW1 1554   1.880   3.508   1.297
 1849SOL    HW2 1555   2.024   3.445   1.340
 1851SOL     OW 1556   2.428   2.399   0.865
 1851SOL    HW1 1557   2.440   2.465   0.791
 1851SOL    HW2 1558   2.474   2.433   0.948
 1853SOL     OW 1559   3.134   3.307   1.142
 1853SOL    HW1 1560   3.181   3.320   1.229
 1853SOL    HW2 1561   3.068   3.233   1.151
 1855SOL     OW 1562   2.216   3.372   1.329
 1855SOL    HW1 1563   2.195   3.328   1.242
 1855SOL    HW2 1564   2.313   3.398   1.332
 1856SOL     OW 1565   2.264   2.613   1.598
 1856SOL    HW1 1566   2.332   2.668   1.551
 1856SOL    HW2 1567   2.304   2.525   1.625
 1857SOL     OW 1568   3.449   2.641   1.670
 1857SOL    HW1 1569   3.357   2.679   1.665
 1857SOL    HW2 1570   3.509   2.688   1.605
 1858SOL     OW 1571   2.875   1.967   1.770
 1858SOL    HW1 1572   2.881   2.052   1.718
 1858SOL    HW2 1573   2.907   1.891   1.713
 1859SOL     OW 1574   2.366   1.912   1.740
 1859SOL    HW1 1575   2.324   1.855   1.670
 1859SOL    HW2 1576   2.300   1.981   1.772
 1860SOL     OW 1577   2.435   2.732   1.029
 1860SOL    HW1 1578   2.479   2.821   1.020
 1860SOL    HW2 1579   2.372   2.732   1.106
 1861SOL     OW 1580   3.222   2.724   1.045
 1861SOL    HW1 1581   3.147   2.724   0.979
 1861SOL    HW2 1582   3.259   2.632   1.054
 1863SOL     OW 1583   2.169   2.075   1.231
 1863SOL    HW1 1584   2.146   2.112   1.321
 1863SOL    HW2 1585   2.139   1.980   1.225
 1864SOL     OW 1586   1.899   3.172   1.282
 1864SOL    HW1 1587   1.952   3.123   1.350
 1864SOL    HW2 1588   1.921   3.270   1.287
 1865SOL     OW 1589   2.594   2.496   1.064
 1865SOL    HW1 1590   2.653   2.470   0.988
 1865SOL    HW2 1591   2.566   2.592   1.053
 1866SOL     OW 1592   3.590   2.797   1.854
 1866SOL    HW1 1593   3.544   2.790   1.765
 1866SOL    HW2 1594   3.528   2.841   1.920
 1867SOL     OW 1595   2.169   1.925   0.618
 1867SOL    HW1 1596   2.158   2.019   0.651
 1867SOL    HW2 1597   2.164   1.862   0.695
 1869SOL     OW 1598   2.885   2.628   0.966
 1869SOL    HW1 1599   2.900   2.649   1.062
 1869SOL    HW2 1600   2.855   2.533   0.957
 1870SOL     OW 1601   2.842   3.435   1.700
 1870SOL    HW1 1602   2.822   3.479   1.612
 1870SOL    HW2 1603   2.881   3.344   1.684
 1872SOL     OW 1604   2.212   2.760   1.804
 1872SOL    HW1 1605   2.288   2.804   1.852
 1872SOL    HW2 1606   2.247   2.713   1.722
 1876SOL     OW 1607   2.181   2.672   0.949
 1876SOL    HW1 1608   2.274   2.708   0.954
 1876SOL    HW2 1609   2.175   2.587   1.001
 1877SOL     OW 1610   2.201   2.371   1.006
 1877SOL    HW1 1611   2.149   2.288   0.989
 1877SOL    HW2 1612   2.278   2.376   0.942
 1878SOL     OW 1613   3.000   2.242   1.678
 1878SOL    HW1 1614   2.955   2.305   1.742
 1878SOL    HW2 1615   3.093   2.273   1.661
 1879SOL     OW 1616   3.022   2.069   1.477
 1879SOL    HW1 1617   3.022   2.133   1.554
 1879SOL    HW2 1618   3.050   2.117   1.394
 1882SOL     OW 1619   2.366   3.430   0.910
 1882SOL    HW1 1620   2.432   3.504   0.919
 1882SOL    HW2 1621   2.410   3.351   0.868
 1883SOL     OW 1622   2.864   2.658   1.238
 1883SOL    HW1 1623   2.905   2.626   1.324
 1883SOL    HW2 1624   2.768   2.631   1.235
 1884SOL     OW 1625   1.902   2.406   1.114
 1884SOL    HW1 1626   1.987   2.373   1.073
 1884SOL    HW2 1627   1.915   2.421   1.212
 1885SOL     OW 1628   2.051   2.382   1.722
 1885SOL    HW1 1629   2.110   2.342   1.652
 1885SOL    HW2 1630   1.993   2.453   1.681
 1886SOL     OW 1631   3.231   2.812   1.660
 1886SOL    HW1 1632   3.270   2.901   1.680
 1886SOL    HW2 1633   3.241   2.792   1.563
 1888SOL     OW 1634   3.519   2.466   1.206
 1888SOL    HW1 1635   3.481   2.397   1.268
 1888SOL    HW2 1636   3.601   2.430   1.162
 1889SOL     OW 1637   2.114   3.426   1.744
 1889SOL    HW1 1638   2.084   3.483   1.820
 1889SOL    HW2 1639   2.107   3.329   1.770
 1890SOL     OW 1640   2.533   2.326   1.269
 1890SOL    HW1 1641   2.499   2.237   1.239
 1890SOL    HW2 1642   2.559   2.380   1.189
 1891SOL     OW 1643   2.792   3.540   1.465
 1891SOL    HW1 1644   2.768   3.522   1.370
 1891SOL    HW2 1645   2.822   3.634   1.475
 1893SOL     OW 1646   2.021   2.999   1.466
 1893SOL    HW1 1647   2.043   2.938   1.542
 1893SOL    HW2 1648   2.031   2.950   1.380
 1894SOL     OW 1649   3.209   2.921   1.234
 1894SOL    HW1 1650   3.233   2.858   1.160
 1894SOL    HW2 1651   3.119   2.961   1.216
 1898SOL     OW 1652   1.945   3.120   1.022
 1898SOL    HW1 1653   1.940   3.119   1.122
 1898SOL    HW2 1654   1.862   3.079   0.984
 1899SOL     OW 1655   2.550   3.524   1.716
 1899SOL    HW1 1656   2.494   3.605   1.725
 1899SOL    HW2 1657   2.602   3.528   1.630
 1903SOL     OW 1658   1.992   3.656   1.851
 1903SOL    HW1 1659   1.951   3.582   1.904
 1903SOL    HW2 1660   2.056   3.707   1.909
 1905SOL     OW 1661   2.692   3.135   1.422
 1905SOL    HW1 1662   2.687   3.168   1.517
 1905SOL    HW2 1663   2.606   3.154   1.376
 1909SOL     OW 1664   2.125   2.188   0.720
 1909SOL    HW1 1665   2.046   2.239   0.686
 1909SOL    HW2 1666   2.116   2.173   0.818
 1911SOL     OW 1667   2.684   2.864   1.372
 1911SOL    HW1 1668   2.724   2.863   1.280
 1911SOL    HW2 1669   2.694   2.956   1.412
 1914SOL     OW 1670   2.234   3.150   1.490
 1914SOL    HW1 1671   2.221   3.243   1.456
 1914SOL    HW2 1672   2.150   3.098   1.477
 1917SOL     OW 1673   2.876   2.098   0.971
 1917SOL    HW1 1674   2.868   2.062   0.878
 1917SOL    HW2 1675   2.874   2.022   1.036
 1919SOL     OW 1676   3.571   2.247   1.381
 1919SOL    HW1 1677   3.644   2.316   1.385
 1919SOL    HW2 1678   3.599   2.172   1.322
 1921SOL     OW 1679   1.967   2.875   1.726
 1921SOL    HW1 1680   1.890   2.842   1.780
 1921SOL    HW2 1681   2.052   2.845   1.768
 1922SOL     OW 1682   2.534   2.065   1.489
 1922SOL    HW1 1683   2.624   2.049   1.449
 1922SOL    HW2 1684   2.542   2.070   1.588
 1924SOL     OW 1685   3.302   2.718   1.398
 1924SOL    HW1 1686   3.245   2.770   1.335
 1924SOL    HW2 1687   3.398   2.730   1.374
 1926SOL     OW 1688   2.475   2.704   1.431
 1926SOL    HW1 1689   2.531   2.785   1.414
 1926SOL    HW2 1690   2.534   2.624   1.434
 1928SOL     OW 1691   2.578   2.427   1.708
 1928SOL    HW1 1692   2.597   2.492   1.782
 1928SOL    HW2 1693   2.638   2.347   1.717
 1929SOL     OW 1694   3.312   3.082   1.633
 1929SOL    HW1 1695   3.303   3.072   1.732
 1929SOL    HW2 1696   3.408   3.075   1.607
 1930SOL     OW 1697   2.252   3.603   1.560
 1930SOL    HW1 1698   2.161   3.644   1.558
 1930SOL    HW2 1699   2.245   3.509   1.592
 1931SOL     OW 1700   3.536   2.745   1.254
 1931SOL    HW1 1701   3.509   2.656   1.217
 1931SOL    HW2 1702   3.537   2.813   1.181
 1933SOL     OW 1703   2.456   2.607   0.652
 1933SOL    HW1 1704   2.506   2.692   0.633
 1933SOL    HW2 1705   2.368   2.609   0.604
 1934SOL     OW 1706   3.639   2.204   1.642
 1934SOL    HW1 1707   3.622   2.235   1.548
 1934SOL    HW2 1708   3.555   2.167   1.680
 1935SOL     OW 1709   3.592   2.796   1.517
 1935SOL    HW1 1710   3.630   2.887   1.532
 1935SOL    HW2 1711   3.584   2.779   1.418
 1938SOL     OW 1712   2.721   2.818   0.861
 1938SOL    HW1 1713   2.775   2.749   0.909
 1938SOL    HW2 1714   2.689   2.887   0.927
 1941SOL     OW 1715   2.083   3.176   1.844
 1941SOL    HW1 1716   2.018   3.103   1.823
 1941SOL    HW2 1717   2.087   3.190   1.942
 1943SOL     OW 1718   2.534   3.253   1.624
 1943SOL    HW1 1719   2.456   3.203   1.662
 1943SOL    HW2 1720   2.531   3.348   1.655
 1944SOL     OW 1721   3.686   2.054   1.227
 1944SOL    HW1 1722   3.682   1.964   1.271
 1944SOL    HW2 1723   3.689   2.043   1.128
 1945SOL     OW 1724   2.290   2.286   0.520
 1945SOL    HW1 1725   2.320   2.214   0.458
 1945SOL    HW2 1726   2.251   2.246   0.603
 1947SOL     OW 1727   2.179   2.409   1.280
 1947SOL    HW1 1728   2.217   2.350   1.352
 1947SOL    HW2 1729   2.219   2.383   1.192
 1949SOL     OW 1730   3.286   2.076   1.112
 1949SOL    HW1 1731   3.338   2.011   1.167
 1949SOL    HW2 1732   3.237   2.139   1.173
 1950SOL     OW 1733   2.863   1.896   1.154
 1950SOL    HW1 1734   2.800   1.824   1.123
 1950SOL    HW2 1735   2.956   1.860   1.154
 1952SOL     OW 1736   2.480   3.429   1.284
 1952SOL    HW1 1737   2.475   3.511   1.341
 1952SOL    HW2 1738   2.569   3.426   1.239
 1958SOL     OW 1739   2.092   2.490   1.975
 1958SOL    HW1 1740   1.999   2.488   2.012
 1958SOL    HW2 1741   2.093   2.451   1.883
 1959SOL     OW 1742   2.087   2.137   2.858
 1959SOL    HW1 1743   2.122   2.120   2.950
 1959SOL    HW2 1744   1.999   2.092   2.846
 1960SOL     OW 1745   1.881   2.230   2.509
 1960SOL    HW1 1746   1.799   2.273   2.548
 1960SOL    HW2 1747   1.853   2.157   2.446
 1961SOL     OW 1748   2.431   3.137   3.027
 1961SOL    HW1 1749   2.338   3.130   2.990
 1961SOL    HW2 1750   2.442   3.226   3.071
 1962SOL     OW 1751   3.417   3.373   2.565
 1962SOL    HW1 1752   3.360   3.357   2.646
 1962SOL    HW2 1753   3.358   3.383   2.485
 1963SOL     OW 1754   2.997   2.565   2.579
 1963SOL    HW1 1755   3.054   2.643   2.554
 1963SOL    HW2 1756   2.937   2.591   2.655
 1964SOL     OW 1757   3.617   2.469   2.093
 1964SOL    HW1 1758   3.605   2.456   1.994
 1964SOL    HW2 1759   3.587   2.388   2.142
 1965SOL     OW 1760   2.630   3.006   2.885
 1965SOL    HW1 1761   2.552   3.023   2.945
 1965SOL    HW2 1762   2.664   3.093   2.849
 1966SOL     OW 1763   2.712   2.660   3.685
 1966SOL    HW1 1764   2.708   2.736   3.750
 1966SOL    HW2 1765   2.734   2.696   3.594
 1967SOL     OW 1766   2.547   2.874   2.527
 1967SOL    HW1 1767   2.616   2.858   2.597
 1967SOL    HW2 1768   2.474   2.931   2.565
 1968SOL     OW 1769   2.548   3.023   3.665
 1968SOL    HW1 1770   2.608   3.102   3.679
 1968SOL    HW2 1771   2.462   3.054   3.624
 1969SOL     OW 1772   2.197   3.297   2.923
 1969SOL    HW1 1773   2.119   3.266   2.870
 1969SOL    HW2 1774   2.255   3.355   2.866
 1971SOL     OW 1775   2.300   2.254   3.361
 1971SOL    HW1 1776   2.382   2.198   3.370
 1971SOL    HW2 1777   2.219   2.196   3.365
 1972SOL     OW 1778   3.465   2.309   2.599
 1972SOL    HW1 1779   3.391   2.355   2.549
 1972SOL    HW2 1780   3.516   2.377   2.652
 1973SOL     OW 1781   2.093   3.575   2.345
 1973SOL    HW1 1782   2.127   3.652   2.399
 1973SOL    HW2 1783   2.137   3.575   2.255
 1974SOL     OW 1784   2.989   3.203   3.552
 1974SOL    HW1 1785   3.036   3.203   3.640
 1974SOL    HW2 1786   2.941   3.116   3.541
 1975SOL     OW 1787   2.092   3.296   2.400
 1975SOL    HW1 1788   2.066   3.392   2.400
 1975SOL    HW2 1789   2.021   3.242   2.445
 1976SOL     OW 1790   2.102   2.953   2.748
 1976SOL    HW1 1791   2.116   2.869   2.800
 1976SOL    HW2 1792   2.047   3.017   2.803
 1977SOL     OW 1793   2.482   3.648   3.301
 1977SOL    HW1 1794   2.390   3.631   3.336
 1977SOL    HW2 1795   2.510   3.740   3.327
 1978SOL     OW 1796   2.468   2.826   1.985
 1978SOL    HW1 1797   2.475   2.910   1.931
 1978SOL    HW2 1798   2.514   2.839   2.073
 1979SOL     OW 1799   3.456   1.976   3.342
 1979SOL    HW1 1800   3.438   2.043   3.270
 1979SOL    HW2 1801   3.453   2.022   3.431
 1980SOL     OW 1802   1.984   2.505   2.425
 1980SOL    HW1 1803   1.939   2.417   2.442
 1980SOL    HW2 1804   1.983   2.559   2.509
 1982SOL     OW 1805   1.889   3.458   1.979
 1982SOL    HW1 1806   1.870   3.362   2.000
 1982SOL    HW2 1807   1.856   3.516   2.054
 1983SOL     OW 1808   3.551   2.784   2.474
 1983SOL    HW1 1809   3.646   2.755   2.482
 1983SOL    HW2 1810   3.543   2.849   2.399
 1984SOL     OW 1811   3.503   2.970   2.294
 1984SOL    HW1 1812   3.589   2.972   2.242
 1984SOL    HW2 1813   3.517   3.017   2.382
 1985SOL     OW 1814   1.975   2.599   3.459
 1985SOL    HW1 1815   2.063   2.586   3.504
 1985SOL    HW2 1816   1.962   2.696   3.437
 1986SOL     OW 1817   2.475   3.227   2.588
 1986SOL    HW1 1818   2.426   3.140   2.597
 1986SOL    HW2 1819   2.452   3.270   2.501
 1987SOL     OW 1820   3.155   3.090   3.285
 1987SOL    HW1 1821   3.192   3.017   3.227
 1987SOL    HW2 1822   3.207   3.095   3.370
 1988SOL     OW 1823   2.671   1.866   2.364
 1988SOL    HW1 1824   2.711   1.957   2.355
 1988SOL    HW2 1825   2.571   1.874   2.370
 1989SOL     OW 1826   2.059   2.838   3.126
 1989SOL    HW1 1827   2.148   2.793   3.112
 1989SOL    HW2 1828   1.986   2.773   3.107
 1990SOL     OW 1829   3.387   2.861   2.052
 1990SOL    HW1 1830   3.324   2.785   2.065
 1990SOL    HW2 1831   3.435   2.879   2.138
 1992SOL     OW 1832   2.179   2.113   3.663
 1992SOL    HW1 1833   2.250   2.184   3.669
 1992SOL    HW2 1834   2.091   2.152   3.691
 1993SOL     OW 1835   3.328   3.279   2.815
 1993SOL    HW1 1836   3.269   3.285   2.895
 1993SOL    HW2 1837   3.313   3.191   2.769
 1995SOL     OW 1838   2.460   2.591   2.132
 1995SOL    HW1 1839   2.484   2.660   2.064
 1995SOL    HW2 1840   2.382   2.624   2.186
 1996SOL     OW 1841   3.143   2.207   2.806
 1996SOL    HW1 1842   3.057   2.157   2.793
 1996SOL    HW2 1843   3.205   2.153   2.862
 1997SOL     OW 1844   3.438   3.524   2.169
 1997SOL    HW1 1845   3.527   3.570   2.172
 1997SOL    HW2 1846   3.417   3.500   2.074
 1998SOL     OW 1847   2.669   2.467   3.327
 1998SOL    HW1 1848   2.622   2.464   3.416
 1998SOL    HW2 1849   2.618   2.412   3.261
 1999SOL     OW 1850   3.256   2.331   3.536
 1999SOL    HW1 1851   3.236   2.374   3.624
 1999SOL    HW2 1852   3.334   2.269   3.545
 2000SOL     OW 1853   2.835   2.752   3.434
 2000SOL    HW1 1854   2.881   2.668   3.405
 2000SOL    HW2 1855   2.779   2.786   3.359
 2001SOL     OW 1856   2.853   2.272   3.104
 2001SOL    HW1 1857   2.776   2.306   3.158
 2001SOL    HW2 1858   2.819   2.221   3.025
 2002SOL     OW 1859   2.903   2.563   2.291
 2002SOL    HW1 1860   2.929   2.559   2.387
 2002SOL    HW2 1861   2.818   2.512   2.277
 2003SOL     OW 1862   1.938   2.673   2.651
 2003SOL    HW1 1863   2.037   2.661   2.660
 2003SOL    HW2 1864   1.914   2.768   2.672
 2005SOL     OW 1865   2.727   2.210   2.057
 2005SOL    HW1 1866   2.786   2.273   2.008
 2005SOL    HW2 1867   2.746   2.116   2.028
 2007SOL     OW 1868   3.224   3.006   2.407
 2007SOL    HW1 1869   3.307   2.977   2.359
 2007SOL    HW2 1870   3.175   3.073   2.351
 2008SOL     OW 1871   2.412   2.058   2.747
 2008SOL    HW1 1872   2.407   2.053   2.847
 2008SOL    HW2 1873   2.414   2.154   2.718
 2009SOL     OW 1874   2.870   3.318   2.339
 2009SOL    HW1 1875   2.824   3.390   2.287
 2009SOL    HW2 1876   2.866   3.338   2.437
 2010SOL     OW 1877   2.213   3.663   2.715
 2010SOL    HW1 1878   2.263   3.577   2.721
 2010SOL    HW2 1879   2.278   3.740   2.712
 2011SOL     OW 1880   3.657   2.928   2.735
 2011SOL    HW1 1881   3.595   2.913   2.659
 2011SOL    HW2 1882   3.605   2.939   2.820
 2013SOL     OW 1883   2.183   2.805   2.104
 2013SOL    HW1 1884   2.265   2.844   2.062
 2013SOL    HW2 1885   2.156   2.723   2.055
 2014SOL     OW 1886   3.320   2.597   2.590
 2014SOL    HW1 1887   3.315   2.532   2.665
 2014SOL    HW2 1888   3.400   2.656   2.603
 2015SOL     OW 1889   2.323   3.128   3.589
 2015SOL    HW1 1890   2.273   3.129   3.503
 2015SOL    HW2 1891   2.260   3.110   3.665
 2016SOL     OW 1892   2.973   3.638   2.099
 2016SOL    HW1 1893   2.913   3.576   2.149
 2016SOL    HW2 1894   3.004   3.594   2.014
 2017SOL     OW 1895   2.064   2.147   3.360
 2017SOL    HW1 1896   1.984   2.207   3.347
 2017SOL    HW2 1897   2.054   2.098   3.446
 2018SOL     OW 1898   3.494   3.239   1.943
 2018SOL    HW1 1899   3.462   3.333   1.933
 2018SOL    HW2 1900   3.418   3.176   1.931
 2019SOL     OW 1901   2.326   3.605   2.185
 2019SOL    HW1 1902   2.359   3.644   2.271
 2019SOL    HW2 1903   2.402   3.598   2.120
 2020SOL     OW 1904   3.262   1.969   2.288
 2020SOL    HW1 1905   3.238   1.932   2.198
 2020SOL    HW2 1906   3.361   1.985   2.292
 2021SOL     OW 1907   2.111   3.647   3.103
 2021SOL    HW1 1908   2.168   3.582   3.153
 2021SOL    HW2 1909   2.095   3.614   3.010
 2022SOL     OW 1910   2.802   3.560   2.766
 2022SOL    HW1 1911   2.882   3.503   2.787
 2022SOL    HW2 1912   2.753   3.520   2.689
 2023SOL     OW 1913   2.244   2.562   2.342
 2023SOL    HW1 1914   2.289   2.472   2.339
 2023SOL    HW2 1915   2.150   2.551   2.375
 2024SOL     OW 1916   3.409   2.084   3.591
 2024SOL    HW1 1917   3.404   2.121   3.683
 2024SOL    HW2 1918   3.337   2.015   3.579
 2025SOL     OW 1919   2.476   1.984   1.979
 2025SOL    HW1 1920   2.574   1.962   1.986
 2025SOL    HW2 1921   2.445   1.967   1.886
 2026SOL     OW 1922   2.643   2.126   3.611
 2026SOL    HW1 1923   2.710   2.065   3.654
 2026SOL    HW2 1924   2.570   2.145   3.676
 2027SOL     OW 1925   2.750   3.376   3.057
 2027SOL    HW1 1926   2.727   3.351   2.963
 2027SOL    HW2 1927   2.811   3.307   3.096
 2028SOL     OW 1928   3.213   2.452   3.295
 2028SOL    HW1 1929   3.241   2.409   3.380
 2028SOL    HW2 1930   3.238   2.548   3.296
 2029SOL     OW 1931   2.665   3.264   2.786
 2029SOL    HW1 1932   2.755   3.278   2.744
 2029SOL    HW2 1933   2.594   3.266   2.715
 2030SOL     OW 1934   2.784   2.365   2.761
 2030SOL    HW1 1935   2.759   2.356   2.665
 2030SOL    HW2 1936   2.832   2.283   2.792
 2031SOL     OW 1937   3.296   3.050   1.903
 2031SOL    HW1 1938   3.328   2.974   1.960
 2031SOL    HW2 1939   3.204   3.077   1.933
 2032SOL     OW 1940   2.159   1.897   2.033
 2032SOL    HW1 1941   2.208   1.981   2.012
 2032SOL    HW2 1942   2.221   1.832   2.078
 2033SOL     OW 1943   2.797   2.098   2.342
 2033SOL    HW1 1944   2.749   2.139   2.264
 2033SOL    HW2 1945   2.896   2.096   2.323
 2034SOL     OW 1946   2.938   2.545   3.326
 2034SOL    HW1 1947   2.858   2.484   3.329
 2034SOL    HW2 1948   3.019   2.492   3.302
 2035SOL     OW 1949   3.089   3.432   2.655
 2035SOL    HW1 1950   3.110   3.506   2.590
 2035SOL    HW2 1951   3.157   3.432   2.728
 2036SOL     OW 1952   2.321   3.014   2.603
 2036SOL    HW1 1953   2.250   2.987   2.668
 2036SOL    HW2 1954   2.295   2.986   2.510
 2037SOL     OW 1955   3.133   3.659   2.453
 2037SOL    HW1 1956   3.177   3.723   2.389
 2037SOL    HW2 1957   3.083   3.711   2.523
 2038SOL     OW 1958   2.894   2.411   1.878
 2038SOL    HW1 1959   2.853   2.493   1.839
 2038SOL    HW2 1960   2.958   2.437   1.951
 2039SOL     OW 1961   1.940   2.418   3.248
 2039SOL    HW1 1962   2.032   2.417   3.207
 2039SOL    HW2 1963   1.934   2.492   3.315
 2040SOL     OW 1964   2.423   2.084   3.009
 2040SOL    HW1 1965   2.461   2.000   3.046
 2040SOL    HW2 1966   2.335   2.103   3.053
 2041SOL     OW 1967   2.728   2.316   2.504
 2041SOL    HW1 1968   2.696   2.388   2.442
 2041SOL    HW2 1969   2.752   2.235   2.451
 2042SOL     OW 1970   2.879   1.901   2.615
 2042SOL    HW1 1971   2.807   1.906   2.546
 2042SOL    HW2 1972   2.855   1.832   2.684
 2043SOL     OW 1973   3.291   3.035   2.729
 2043SOL    HW1 1974   3.236   2.951   2.722
 2043SOL    HW2 1975   3.317   3.064   2.637
 2044SOL     OW 1976   3.328   2.452   2.854
 2044SOL    HW1 1977   3.298   2.357   2.861
 2044SOL    HW2 1978   3.401   2.468   2.920
 2045SOL     OW 1979   3.719   2.695   2.239
 2045SOL    HW1 1980   3.761   2.631   2.303
 2045SOL    HW2 1981   3.681   2.644   2.161
 2046SOL     OW 1982   2.350   3.247   2.036
 2046SOL    HW1 1983   2.263   3.232   2.083
 2046SOL    HW2 1984   2.333   3.273   1.941
 2047SOL     OW 1985   3.526   3.142   2.519
 2047SOL    HW1 1986   3.625   3.150   2.533
 2047SOL    HW2 1987   3.481   3.226   2.550
 2048SOL     OW 1988   3.252   2.437   1.940
 2048SOL    HW1 1989   3.198   2.416   2.021
 2048SOL    HW2 1990   3.343   2.396   1.949
 2050SOL     OW 1991   2.926   3.209   3.202
 2050SOL    HW1 1992   2.846   3.186   3.257
 2050SOL    HW2 1993   3.009   3.183   3.251
 2052SOL     OW 1994   2.973   3.057   2.962
 2052SOL    HW1 1995   2.933   3.101   3.043
 2052SOL    HW2 1996   2.932   3.094   2.879
 2053SOL     OW 1997   3.500   2.961   2.941
 2053SOL    HW1 1998   3.505   3.042   3.000
 2053SOL    HW2 1999   3.414   2.963   2.890
 2054SOL     OW 2000   2.777   1.951   3.264
 2054SOL    HW1 2001   2.802   1.931   3.169
 2054SOL    HW2 2002   2.849   2.007   3.306
 2055SOL     OW 2003   2.842   2.978   3.581
 2055SOL    HW1 2004   2.743   2.984   3.591
 2055SOL    HW2 2005   2.865   2.898   3.525
 2056SOL     OW 2006   2.567   2.912   2.230
 2056SOL    HW1 2007   2.553   2.919   2.329
 2056SOL    HW2 2008   2.651   2.861   2.212
 2057SOL     OW 2009   2.272   2.675   3.113
 2057SOL    HW1 2010   2.358   2.687   3.163
 2057SOL    HW2 2011   2.230   2.588   3.140
 2058SOL     OW 2012   3.136   2.248   3.124
 2058SOL    HW1 2013   3.157   2.322   3.188
 2058SOL    HW2 2014   3.047   2.265   3.081
 2059SOL     OW 2015   1.926   3.426   3.193
 2059SOL    HW1 2016   1.880   3.508   3.159
 2059SOL    HW2 2017   2.024   3.445   3.202
 2060SOL     OW 2018   2.229   2.962   2.363
 2060SOL    HW1 2019   2.222   3.045   2.307
 2060SOL    HW2 2020   2.233   2.882   2.303
 2061SOL     OW 2021   2.428   2.399   2.727
 2061SOL    HW1 2022   2.440   2.465   2.653
 2061SOL    HW2 2023   2.474   2.433   2.810
 2062SOL     OW 2024   3.114   3.210   2.250
 2062SOL    HW1 2025   3.164   3.287   2.290
 2062SOL    HW2 2026   3.019   3.212   2.282
 2063SOL     OW 2027   3.134   3.307   3.004
 2063SOL    HW1 2028   3.181   3.320   3.091
 2063SOL    HW2 2029   3.068   3.233   3.013
 2064SOL     OW 2030   3.444   2.501   2.334
 2064SOL    HW1 2031   3.413   2.562   2.407
 2064SOL    HW2 2032   3.494   2.553   2.265
 2065SOL     OW 2033   2.216   3.372   3.191
 2065SOL    HW1 2034   2.195   3.328   3.104
 2065SOL    HW2 2035   2.313   3.398   3.194
 2066SOL     OW 2036   2.264   2.613   3.460
 2066SOL    HW1 2037   2.332   2.668   3.413
 2066SOL    HW2 2038   2.304   2.525   3.487
 2067SOL     OW 2039   3.449   2.641   3.532
 2067SOL    HW1 2040   3.357   2.679   3.527
 2067SOL    HW2 2041   3.509   2.688   3.467
 2068SOL     OW 2042   2.875   1.967   3.632
 2068SOL    HW1 2043   2.881   2.052   3.580
 2068SOL    HW2 2044   2.907   1.891   3.575
 2069SOL     OW 2045   2.366   1.912   3.602
 2069SOL    HW1 2046   2.324   1.855   3.532
 2069SOL    HW2 2047   2.300   1.981   3.634
 2070SOL     OW 2048   2.435   2.732   2.891
 2070SOL    HW1 2049   2.479   2.821   2.882
 2070SOL    HW2 2050   2.372   2.732   2.968
 2071SOL     OW 2051   3.222   2.724   2.907
 2071SOL    HW1 2052   3.147   2.724   2.841
 2071SOL    HW2 2053   3.259   2.632   2.916
 2072SOL     OW 2054   3.071   2.387   2.137
 2072SOL    HW1 2055   3.084   2.303   2.191
 2072SOL    HW2 2056   3.042   2.461   2.197
 2073SOL     OW 2057   2.169   2.075   3.093
 2073SOL    HW1 2058   2.146   2.112   3.183
 2073SOL    HW2 2059   2.139   1.980   3.087
 2074SOL     OW 2060   1.899   3.172   3.144
 2074SOL    HW1 2061   1.952   3.123   3.212
 2074SOL    HW2 2062   1.921   3.270   3.149
 2075SOL     OW 2063   2.594   2.496   2.926
 2075SOL    HW1 2064   2.653   2.470   2.850
 2075SOL    HW2 2065   2.566   2.592   2.915
 2077SOL     OW 2066   2.169   1.925   2.480
 2077SOL    HW1 2067   2.158   2.019   2.513
 2077SOL    HW2 2068   2.164   1.862   2.557
 2078SOL     OW 2069   3.484   2.229   2.236
 2078SOL    HW1 2070   3.486   2.153   2.300
 2078SOL    HW2 2071   3.436   2.306   2.276
 2079SOL     OW 2072   2.885   2.628   2.828
 2079SOL    HW1 2073   2.900   2.649   2.924
 2079SOL    HW2 2074   2.855   2.533   2.819
 2082SOL     OW 2075   2.212   2.760   3.666
 2082SOL    HW1 2076   2.288   2.804   3.714
 2082SOL    HW2 2077   2.247   2.713   3.584
 2083SOL     OW 2078   3.402   2.136   1.987
 2083SOL    HW1 2079   3.341   2.061   2.010
 2083SOL    HW2 2080   3.424   2.188   2.070
 2084SOL     OW 2081   3.165   2.700   1.904
 2084SOL    HW1 2082   3.199   2.607   1.919
 2084SOL    HW2 2083   3.183   2.727   1.809
 2085SOL     OW 2084   2.930   3.195   2.711
 2085SOL    HW1 2085   2.937   3.111   2.656
 2085SOL    HW2 2086   2.992   3.264   2.675
 2086SOL     OW 2087   2.181   2.672   2.811
 2086SOL    HW1 2088   2.274   2.708   2.816
 2086SOL    HW2 2089   2.175   2.587   2.863
 2087SOL     OW 2090   2.201   2.371   2.868
 2087SOL    HW1 2091   2.149   2.288   2.851
 2087SOL    HW2 2092   2.278   2.376   2.804
 2088SOL     OW 2093   3.000   2.242   3.540
 2088SOL    HW1 2094   2.955   2.305   3.604
 2088SOL    HW2 2095   3.093   2.273   3.523
 2089SOL     OW 2096   3.022   2.069   3.339
 2089SOL    HW1 2097   3.022   2.133   3.416
 2089SOL    HW2 2098   3.050   2.117   3.256
 2090SOL     OW 2099   1.870   3.188   2.062
 2090SOL    HW1 2100   1.777   3.209   2.031
 2090SOL    HW2 2101   1.880   3.089   2.075
 2091SOL     OW 2102   1.950   3.663   2.789
 2091SOL    HW1 2103   1.908   3.577   2.762
 2091SOL    HW2 2104   2.044   3.666   2.755
 2092SOL     OW 2105   2.366   3.430   2.772
 2092SOL    HW1 2106   2.432   3.504   2.781
 2092SOL    HW2 2107   2.410   3.351   2.730
 2093SOL     OW 2108   2.864   2.658   3.100
 2093SOL    HW1 2109   2.905   2.626   3.186
 2093SOL    HW2 2110   2.768   2.631   3.097
 2094SOL     OW 2111   1.902   2.406   2.976
 2094SOL    HW1 2112   1.987   2.373   2.935
 2094SOL    HW2 2113   1.915   2.421   3.074
 2095SOL     OW 2114   2.051   2.382   3.584
 2095SOL    HW1 2115   2.110   2.342   3.514
 2095SOL    HW2 2116   1.993   2.453   3.543
 2096SOL     OW 2117   3.231   2.812   3.522
 2096SOL    HW1 2118   3.270   2.901   3.542
 2096SOL    HW2 2119   3.241   2.792   3.425
 2097SOL     OW 2120   2.677   2.434   2.187
 2097SOL    HW1 2121   2.684   2.345   2.141
 2097SOL    HW2 2122   2.583   2.468   2.179
 2098SOL     OW 2123   3.519   2.466   3.068
 2098SOL    HW1 2124   3.481   2.397   3.130
 2098SOL    HW2 2125   3.601   2.430   3.024
 2100SOL     OW 2126   2.533   2.326   3.131
 2100SOL    HW1 2127   2.499   2.237   3.101
 2100SOL    HW2 2128   2.559   2.380   3.051
 2101SOL     OW 2129   2.792   3.540   3.327
 2101SOL    HW1 2130   2.768   3.522   3.232
 2101SOL    HW2 2131   2.822   3.634   3.337
 2102SOL     OW 2132   2.021   2.999   3.328
 2102SOL    HW1 2133   2.043   2.938   3.404
 2102SOL    HW2 2134   2.031   2.950   3.242
 2103SOL     OW 2135   3.209   2.921   3.096
 2103SOL    HW1 2136   3.233   2.858   3.022
 2103SOL    HW2 2137   3.119   2.961   3.078
 2104SOL     OW 2138   3.164   2.717   2.171
 2104SOL    HW1 2139   3.078   2.686   2.213
 2104SOL    HW2 2140   3.160   2.703   2.072
 2106SOL     OW 2141   3.114   3.593   2.990
 2106SOL    HW1 2142   3.198   3.598   2.936
 2106SOL    HW2 2143   3.091   3.497   3.008
 2107SOL     OW 2144   1.945   3.120   2.884
 2107SOL    HW1 2145   1.940   3.119   2.984
 2107SOL    HW2 2146   1.862   3.079   2.846
 2109SOL     OW 2147   3.588   1.997   2.385
 2109SOL    HW1 2148   3.661   1.980   2.318
 2109SOL    HW2 2149   3.557   1.910   2.423
 2110SOL     OW 2150   3.250   3.435   2.339
 2110SOL    HW1 2151   3.317   3.447   2.265
 2110SOL    HW2 2152   3.210   3.524   2.362
 2112SOL     OW 2153   3.142   2.789   2.534
 2112SOL    HW1 2154   3.202   2.708   2.536
 2112SOL    HW2 2155   3.182   2.858   2.474
 2113SOL     OW 2156   2.692   3.135   3.284
 2113SOL    HW1 2157   2.687   3.168   3.379
 2113SOL    HW2 2158   2.606   3.154   3.238
 2114SOL     OW 2159   2.534   3.478   2.016
 2114SOL    HW1 2160   2.543   3.488   1.917
 2114SOL    HW2 2161   2.494   3.389   2.037
 2116SOL     OW 2162   3.703   2.037   2.825
 2116SOL    HW1 2163   3.742   1.952   2.789
 2116SOL    HW2 2164   3.605   2.039   2.806
 2117SOL     OW 2165   3.056   3.474   1.893
 2117SOL    HW1 2166   3.062   3.381   1.930
 2117SOL    HW2 2167   2.997   3.474   1.813
 2118SOL     OW 2168   2.684   2.864   3.234
 2118SOL    HW1 2169   2.724   2.863   3.142
 2118SOL    HW2 2170   2.694   2.956   3.274
 2119SOL     OW 2171   2.778   2.772   2.153
 2119SOL    HW1 2172   2.841   2.810   2.085
 2119SOL    HW2 2173   2.818   2.689   2.192
 2120SOL     OW 2174   3.366   3.469   1.906
 2120SOL    HW1 2175   3.274   3.506   1.913
 2120SOL    HW2 2176   3.404   3.489   1.816
 2121SOL     OW 2177   2.234   3.150   3.352
 2121SOL    HW1 2178   2.221   3.243   3.318
 2121SOL    HW2 2179   2.150   3.098   3.339
 2122SOL     OW 2180   3.476   3.154   3.151
 2122SOL    HW1 2181   3.536   3.157   3.231
 2122SOL    HW2 2182   3.401   3.218   3.164
 2123SOL     OW 2183   2.901   2.960   2.558
 2123SOL    HW1 2184   2.831   2.913   2.612
 2123SOL    HW2 2185   2.960   2.892   2.515
 2124SOL     OW 2186   2.876   2.098   2.833
 2124SOL    HW1 2187   2.868   2.062   2.740
 2124SOL    HW2 2188   2.874   2.022   2.898
 2125SOL     OW 2189   2.452   3.349   2.353
 2125SOL    HW1 2190   2.494   3.291   2.283
 2125SOL    HW2 2191   2.408   3.428   2.309
 2126SOL     OW 2192   3.571   2.247   3.243
 2126SOL    HW1 2193   3.644   2.316   3.247
 2126SOL    HW2 2194   3.599   2.172   3.184
 2127SOL     OW 2195   2.117   3.210   2.152
 2127SOL    HW1 2196   2.021   3.211   2.125
 2127SOL    HW2 2197   2.129   3.263   2.236
 2128SOL     OW 2198   1.967   2.875   3.588
 2128SOL    HW1 2199   1.890   2.842   3.642
 2128SOL    HW2 2200   2.052   2.845   3.630
 2129SOL     OW 2201   2.534   2.065   3.351
 2129SOL    HW1 2202   2.624   2.049   3.311
 2129SOL    HW2 2203   2.542   2.070   3.450
 2130SOL     OW 2204   1.937   2.207   1.895
 2130SOL    HW1 2205   1.845   2.179   1.866
 2130SOL    HW2 2206   1.968   2.284   1.839
 2131SOL     OW 2207   3.302   2.718   3.260
 2131SOL    HW1 2208   3.245   2.770   3.197
 2131SOL    HW2 2209   3.398   2.730   3.236
 2132SOL     OW 2210   1.934   2.028   2.180
 2132SOL    HW1 2211   1.917   2.111   2.126
 2132SOL    HW2 2212   2.024   1.991   2.158
 2133SOL     OW 2213   3.045   3.197   1.981
 2133SOL    HW1 2214   2.946   3.186   1.983
 2133SOL    HW2 2215   3.079   3.212   2.074
 2134SOL     OW 2216   2.475   2.704   3.293
 2134SOL    HW1 2217   2.531   2.785   3.276
 2134SOL    HW2 2218   2.534   2.624   3.296
 2136SOL     OW 2219   2.578   2.427   3.570
 2136SOL    HW1 2220   2.597   2.492   3.644
 2136SOL    HW2 2221   2.638   2.347   3.579
 2138SOL     OW 2222   2.252   3.603   3.422
 2138SOL    HW1 2223   2.161   3.644   3.420
 2138SOL    HW2 2224   2.245   3.509   3.454
 2139SOL     OW 2225   3.536   2.745   3.116
 2139SOL    HW1 2226   3.509   2.656   3.079
 2139SOL    HW2 2227   3.537   2.813   3.043
 2140SOL     OW 2228   3.087   2.187   2.311
 2140SOL    HW1 2229   3.152   2.113   2.300
 2140SOL    HW2 2230   3.107   2.237   2.395
 2141SOL     OW 2231   2.456   2.607   2.514
 2141SOL    HW1 2232   2.506   2.692   2.495
 2141SOL    HW2 2233   2.368   2.609   2.466
 2144SOL     OW 2234   2.721   3.236   1.878
 2144SOL    HW1 2235   2.675   3.251   1.966
 2144SOL    HW2 2236   2.765   3.321   1.848
 2145SOL     OW 2237   2.523   3.652   2.815
 2145SOL    HW1 2238   2.477   3.740   2.802
 2145SOL    HW2 2239   2.622   3.664   2.808
 2146SOL     OW 2240   2.721   2.818   2.723
 2146SOL    HW1 2241   2.775   2.749   2.771
 2146SOL    HW2 2242   2.689   2.887   2.789
 2147SOL     OW 2243   2.945   2.846   1.949
 2147SOL    HW1 2244   2.922   2.899   1.867
 2147SOL    HW2 2245   3.026   2.790   1.930
 2149SOL     OW 2246   2.083   3.176   3.706
 2149SOL    HW1 2247   2.018   3.103   3.685
 2149SOL    HW2 2248   2.087   3.190   3.804
 2150SOL     OW 2249   1.941   3.102   2.515
 2150SOL    HW1 2250   1.940   3.055   2.603
 2150SOL    HW2 2251   2.023   3.074   2.464
 2151SOL     OW 2252   2.534   3.253   3.486
 2151SOL    HW1 2253   2.456   3.203   3.524
 2151SOL    HW2 2254   2.531   3.348   3.517
 2152SOL     OW 2255   3.686   2.054   3.089
 2152SOL    HW1 2256   3.682   1.964   3.133
 2152SOL    HW2 2257   3.689   2.043   2.990
 2154SOL     OW 2258   2.179   2.409   3.142
 2154SOL    HW1 2259   2.217   2.350   3.214
 2154SOL    HW2 2260   2.219   2.383   3.054
 2155SOL     OW 2261   2.674   3.448   2.549
 2155SOL    HW1 2262   2.706   3.458   2.455
 2155SOL    HW2 2263   2.595   3.386   2.551
 2156SOL     OW 2264   3.286   2.076   2.974
 2156SOL    HW1 2265   3.338   2.011   3.029
 2156SOL    HW2 2266   3.237   2.139   3.035
 2157SOL     OW 2267   2.863   1.896   3.016
 2157SOL    HW1 2268   2.800   1.824   2.985
 2157SOL    HW2 2269   2.956   1.860   3.016
 2158SOL     OW 2270   2.632   3.192   2.163
 2158SOL    HW1 2271   2.586   3.105   2.180
 2158SOL    HW2 2272   2.723   3.189   2.204
 2159SOL     OW 2273   2.480   3.429   3.146
 2159SOL    HW1 2274   2.475   3.511   3.203
 2159SOL    HW2 2275   2.569   3.426   3.101
 2160SOL     OW 2276   3.214   1.914   2.030
 2160SOL    HW1 2277   3.249   1.873   1.946
 2160SOL    HW2 2278   3.124   1.876   2.050
 2161SOL     OW 2279   3.162   2.315   2.553
 2161SOL    HW1 2280   3.103   2.395   2.557
 2161SOL    HW2 2281   3.177   2.280   2.646
 2162SOL     OW 2282   3.455   2.083   2.744
 2162SOL    HW1 2283   3.371   2.082   2.798
 2162SOL    HW2 2284   3.457   2.166   2.688
 2163SOL     OW 2285   1.901   2.939   2.162
 2163SOL    HW1 2286   2.000   2.928   2.153
 2163SOL    HW2 2287   1.861   2.853   2.194
 2164SOL     OW 2288   2.737   3.508   2.199
 2164SOL    HW1 2289   2.660   3.473   2.145
 2164SOL    HW2 2290   2.705   3.579   2.261
 2165SOL     OW 2291   2.092   2.490   3.837
 2165SOL    HW1 2292   1.999   2.488   3.874
 2165SOL    HW2 2293   2.093   2.451   3.745
 2172SOL     OW 2294   2.468   2.826   3.847
 2172SOL    HW1 2295   2.475   2.910   3.793
 2172SOL    HW2 2296   2.514   2.839   3.935
 2182SOL     OW 2297   2.460   2.591   3.994
 2182SOL    HW1 2298   2.484   2.660   3.926
 2182SOL    HW2 2299   2.382   2.624   4.048
 2187SOL     OW 2300   2.727   2.210   3.919
 2187SOL    HW1 2301   2.786   2.273   3.870
 2187SOL    HW2 2302   2.746   2.116   3.890
 2199SOL     OW 2303   2.476   1.984   3.841
 2199SOL    HW1 2304   2.574   1.962   3.848
 2199SOL    HW2 2305   2.445   1.967   3.748
 2202SOL     OW 2306   2.159   1.897   3.895
 2202SOL    HW1 2307   2.208   1.981   3.874
 2202SOL    HW2 2308   2.221   1.832   3.940
 2206SOL     OW 2309   2.894   2.411   3.740
 2206SOL    HW1 2310   2.853   2.493   3.701
 2206SOL    HW2 2311   2.958   2.437   3.813
 2225SOL     OW 2312   2.335   2.362   3.915
 2225SOL    HW1 2313   2.396   2.442   3.919
 2225SOL    HW2 2314   2.240   2.393   3.922
 2236SOL     OW 2315   1.937   2.207   3.757
 2236SOL    HW1 2316   1.845   2.179   3.728
 2236SOL    HW2 2317   1.968   2.284   3.701
 2262SOL     OW 2318   2.179   3.975   1.801
 2262SOL    HW1 2319   2.250   4.046   1.807
 2262SOL    HW2 2320   2.091   4.014   1.829
 2296SOL     OW 2321   2.875   3.829   1.770
 2296SOL    HW1 2322   2.881   3.914   1.718
 2296SOL    HW2 2323   2.907   3.753   1.713
 2297SOL     OW 2324   2.366   3.774   1.740
 2297SOL    HW1 2325   2.324   3.717   1.670
 2297SOL    HW2 2326   2.300   3.843   1.772
 2347SOL     OW 2327   2.671   3.728   2.364
 2347SOL    HW1 2328   2.711   3.819   2.355
 2347SOL    HW2 2329   2.571   3.736   2.370
 2356SOL     OW 2330   2.412   3.920   2.747
 2356SOL    HW1 2331   2.407   3.915   2.847
 2356SOL    HW2 2332   2.414   4.016   2.718
 2362SOL     OW 2333   2.476   3.846   1.979
 2362SOL    HW1 2334   2.574   3.824   1.986
 2362SOL    HW2 2335   2.445   3.829   1.886
 2366SOL     OW 2336   2.401   3.788   2.374
 2366SOL    HW1 2337   2.320   3.789   2.432
 2366SOL    HW2 2338   2.404   3.871   2.319
 2367SOL     OW 2339   2.159   3.759   2.033
 2367SOL    HW1 2340   2.208   3.843   2.012
 2367SOL    HW2 2341   2.221   3.694   2.078
 2368SOL     OW 2342   2.797   3.960   2.342
 2368SOL    HW1 2343   2.749   4.001   2.264
 2368SOL    HW2 2344   2.896   3.958   2.323
 2374SOL     OW 2345   2.879   3.763   2.615
 2374SOL    HW1 2346   2.807   3.768   2.546
 2374SOL    HW2 2347   2.855   3.694   2.684
 2377SOL     OW 2348   2.389   3.980   2.190
 2377SOL    HW1 2349   2.416   3.921   2.115
 2377SOL    HW2 2350   2.389   4.075   2.159
 2389SOL     OW 2351   2.169   3.787   2.480
 2389SOL    HW1 2352   2.158   3.881   2.513
 2389SOL    HW2 2353   2.164   3.724   2.557
 2412SOL     OW 2354   1.934   3.890   2.180
 2412SOL    HW1 2355   1.917   3.973   2.126
 2412SOL    HW2 2356   2.024   3.853   2.158
 2421SOL     OW 2357   2.863   3.758   3.016
 2421SOL    HW1 2358   2.800   3.686   2.985
 2421SOL    HW2 2359   2.956   3.722   3.016
 2486SOL     OW 2360   3.854   1.821   1.571
 2486SOL    HW1 2361   3.844   1.806   1.670
 2486SOL    HW2 2362   3.768   1.857   1.535
 2530SOL     OW 2363   3.854   1.794   1.851
 2530SOL    HW1 2364   3.813   1.720   1.904
 2530SOL    HW2 2365   3.918   1.845   1.909
 2558SOL     OW 2366   3.955   1.713   2.345
 2558SOL    HW1 2367   3.989   1.790   2.399
 2558SOL    HW2 2368   3.999   1.713   2.255
 2564SOL     OW 2369   3.751   1.596   1.979
 2564SOL    HW1 2370   3.732   1.500   2.000
 2564SOL    HW2 2371   3.718   1.654   2.054
 2605SOL     OW 2372   3.732   1.326   2.062
 2605SOL    HW1 2373   3.639   1.347   2.031
 2605SOL    HW2 2374   3.742   1.227   2.075
 2606SOL     OW 2375   3.812   1.801   2.789
 2606SOL    HW1 2376   3.770   1.715   2.762
 2606SOL    HW2 2377   3.906   1.804   2.755
 2689SOL     OW 2378   3.837   2.599   1.597
 2689SOL    HW1 2379   3.925   2.586   1.642
 2689SOL    HW2 2380   3.824   2.696   1.575
 2710SOL     OW 2381   3.802   2.418   1.386
 2710SOL    HW1 2382   3.894   2.417   1.345
 2710SOL    HW2 2383   3.796   2.492   1.453
 2732SOL     OW 2384   3.913   2.382   1.722
 2732SOL    HW1 2385   3.972   2.342   1.652
 2732SOL    HW2 2386   3.855   2.453   1.681
 2744SOL     OW 2387   3.829   2.875   1.726
 2744SOL    HW1 2388   3.752   2.842   1.780
 2744SOL    HW2 2389   3.914   2.845   1.768
 2758SOL     OW 2390   3.954   2.490   1.975
 2758SOL    HW1 2391   3.861   2.488   2.012
 2758SOL    HW2 2392   3.955   2.451   1.883
 2760SOL     OW 2393   3.743   2.230   2.509
 2760SOL    HW1 2394   3.661   2.273   2.548
 2760SOL    HW2 2395   3.715   2.157   2.446
 2772SOL     OW 2396   3.846   2.505   2.425
 2772SOL    HW1 2397   3.801   2.417   2.442
 2772SOL    HW2 2398   3.845   2.559   2.509
 2780SOL     OW 2399   3.800   2.673   2.651
 2780SOL    HW1 2400   3.899   2.661   2.660
 2780SOL    HW2 2401   3.776   2.768   2.672
 2814SOL     OW 2402   3.732   3.188   2.062
 2814SOL    HW1 2403   3.639   3.209   2.031
 2814SOL    HW2 2404   3.742   3.089   2.075
 2817SOL     OW 2405   3.764   2.406   2.976
 2817SOL    HW1 2406   3.849   2.373   2.935
 2817SOL    HW2 2407   3.777   2.421   3.074
 2826SOL     OW 2408   3.987   2.188   2.582
 2826SOL    HW1 2409   3.908   2.239   2.548
 2826SOL    HW2 2410   3.978   2.173   2.680
 2832SOL     OW 2411   3.799   2.207   1.895
 2832SOL    HW1 2412   3.707   2.179   1.866
 2832SOL    HW2 2413   3.830   2.284   1.839
 2833SOL     OW 2414   3.796   2.028   2.180
 2833SOL    HW1 2415   3.779   2.111   2.126
 2833SOL    HW2 2416   3.886   1.991   2.158
 2839SOL     OW 2417   3.803   3.102   2.515
 2839SOL    HW1 2418   3.802   3.055   2.603
 2839SOL    HW2 2419   3.885   3.074   2.464
 2844SOL     OW 2420   3.763   2.939   2.162
 2844SOL    HW1 2421   3.862   2.928   2.153
 2844SOL    HW2 2422   3.723   2.853   2.194
   4.49949   4.49949   4.49949
