; mobley_7176248_GMX.itp created by acpype (v: 2023.10.27) on Wed May 20 23:57:05 2026

[ atomtypes ]
;name   bond_type     mass     charge   ptype   sigma         epsilon       Amb
 ca       ca          0.00000  0.00000   A     3.31521e-01   4.13379e-01 ; 1.86  0.0988
 c3       c3          0.00000  0.00000   A     3.39771e-01   4.51035e-01 ; 1.91  0.1078
 nh       nh          0.00000  0.00000   A     3.18995e-01   8.99560e-01 ; 1.79  0.2150
 no       no          0.00000  0.00000   A     3.36510e-01   3.58987e-01 ; 1.89  0.0858
 o        o           0.00000  0.00000   A     3.04812e-01   6.12119e-01 ; 1.71  0.1463
 f        f           0.00000  0.00000   A     3.03422e-01   3.48109e-01 ; 1.70  0.0832
 ha       ha          0.00000  0.00000   A     2.62548e-01   6.73624e-02 ; 1.47  0.0161
 hc       hc          0.00000  0.00000   A     2.60018e-01   8.70272e-02 ; 1.46  0.0208
 h1       h1          0.00000  0.00000   A     2.42200e-01   8.70272e-02 ; 1.36  0.0208

[ moleculetype ]
;name            nrexcl
 mobley_7176248   3

[ atoms ]
;   nr  type  resi  res  atom  cgnr     charge      mass       ; qtot   bond_type
     1   ca     1   MOL    C1    1    -0.006000     12.01000 ; qtot -0.006
     2   ca     1   MOL    C2    2    -0.006000     12.01000 ; qtot -0.012
     3   ca     1   MOL    C3    3    -0.184300     12.01000 ; qtot -0.196
     4   ca     1   MOL    C4    4    -0.186200     12.01000 ; qtot -0.383
     5   ca     1   MOL    C5    5    -0.186200     12.01000 ; qtot -0.569
     6   ca     1   MOL    C6    6     0.272600     12.01000 ; qtot -0.296
     7   c3     1   MOL    C7    7    -0.093100     12.01000 ; qtot -0.389
     8   c3     1   MOL    C8    8    -0.093100     12.01000 ; qtot -0.482
     9   c3     1   MOL    C9    9    -0.093900     12.01000 ; qtot -0.576
    10   c3     1   MOL   C10   10    -0.093900     12.01000 ; qtot -0.670
    11   c3     1   MOL   C11   11     0.195300     12.01000 ; qtot -0.475
    12   c3     1   MOL   C12   12     0.195300     12.01000 ; qtot -0.280
    13   c3     1   MOL   C13   13     0.696197     12.01000 ; qtot 0.417
    14   nh     1   MOL    N1   14    -0.695000     14.01000 ; qtot -0.278
    15   no     1   MOL    N2   15     0.323700     14.01000 ; qtot 0.045
    16   no     1   MOL    N3   16     0.323700     14.01000 ; qtot 0.369
    17    o     1   MOL    O1   17    -0.184250     16.00000 ; qtot 0.185
    18    o     1   MOL    O2   18    -0.184250     16.00000 ; qtot 0.001
    19    o     1   MOL    O3   19    -0.184250     16.00000 ; qtot -0.184
    20    o     1   MOL    O4   20    -0.184250     16.00000 ; qtot -0.368
    21    f     1   MOL    F1   21    -0.224633     19.00000 ; qtot -0.593
    22    f     1   MOL    F2   22    -0.224633     19.00000 ; qtot -0.817
    23    f     1   MOL    F3   23    -0.224633     19.00000 ; qtot -1.042
    24   ha     1   MOL    H1   24     0.188500      1.00800 ; qtot -0.853
    25   ha     1   MOL    H2   25     0.188500      1.00800 ; qtot -0.665
    26   hc     1   MOL    H3   26     0.038367      1.00800 ; qtot -0.626
    27   hc     1   MOL    H4   27     0.038367      1.00800 ; qtot -0.588
    28   hc     1   MOL    H5   28     0.038367      1.00800 ; qtot -0.550
    29   hc     1   MOL    H6   29     0.038367      1.00800 ; qtot -0.511
    30   hc     1   MOL    H7   30     0.038367      1.00800 ; qtot -0.473
    31   hc     1   MOL    H8   31     0.038367      1.00800 ; qtot -0.435
    32   hc     1   MOL    H9   32     0.054700      1.00800 ; qtot -0.380
    33   hc     1   MOL   H10   33     0.054700      1.00800 ; qtot -0.325
    34   hc     1   MOL   H11   34     0.054700      1.00800 ; qtot -0.271
    35   hc     1   MOL   H12   35     0.054700      1.00800 ; qtot -0.216
    36   h1     1   MOL   H13   36     0.053950      1.00800 ; qtot -0.162
    37   h1     1   MOL   H14   37     0.053950      1.00800 ; qtot -0.108
    38   h1     1   MOL   H15   38     0.053950      1.00800 ; qtot -0.054
    39   h1     1   MOL   H16   39     0.053950      1.00800 ; qtot -0.000

[ bonds ]
;   ai     aj funct   r             k
     1      3   1    1.3986e-01    2.9644e+05 ;     C1 - C3    
     1      4   1    1.3986e-01    2.9644e+05 ;     C1 - C4    
     1     24   1    1.0860e-01    3.0183e+05 ;     C1 - H1    
     2      3   1    1.3986e-01    2.9644e+05 ;     C2 - C3    
     2      5   1    1.3986e-01    2.9644e+05 ;     C2 - C5    
     2     25   1    1.0860e-01    3.0183e+05 ;     C2 - H2    
     3     13   1    1.5147e-01    2.0410e+05 ;     C3 - C13   
     4      6   1    1.3986e-01    2.9644e+05 ;     C4 - C6    
     4     15   1    1.4696e-01    2.0937e+05 ;     C4 - N2    
     5      6   1    1.3986e-01    2.9644e+05 ;     C5 - C6    
     5     16   1    1.4696e-01    2.0937e+05 ;     C5 - N3    
     6     14   1    1.4030e-01    2.6011e+05 ;     C6 - N1    
     7      9   1    1.5354e-01    1.9154e+05 ;     C7 - C9    
     7     26   1    1.0962e-01    2.8891e+05 ;     C7 - H3    
     7     27   1    1.0962e-01    2.8891e+05 ;     C7 - H4    
     7     28   1    1.0962e-01    2.8891e+05 ;     C7 - H5    
     8     10   1    1.5354e-01    1.9154e+05 ;     C8 - C10   
     8     29   1    1.0962e-01    2.8891e+05 ;     C8 - H6    
     8     30   1    1.0962e-01    2.8891e+05 ;     C8 - H7    
     8     31   1    1.0962e-01    2.8891e+05 ;     C8 - H8    
     9     11   1    1.5354e-01    1.9154e+05 ;     C9 - C11   
     9     32   1    1.0962e-01    2.8891e+05 ;     C9 - H9    
     9     33   1    1.0962e-01    2.8891e+05 ;     C9 - H10   
    10     12   1    1.5354e-01    1.9154e+05 ;    C10 - C12   
    10     34   1    1.0962e-01    2.8891e+05 ;    C10 - H11   
    10     35   1    1.0962e-01    2.8891e+05 ;    C10 - H12   
    11     14   1    1.4613e-01    2.1499e+05 ;    C11 - N1    
    11     36   1    1.0969e-01    2.8804e+05 ;    C11 - H13   
    11     37   1    1.0969e-01    2.8804e+05 ;    C11 - H14   
    12     14   1    1.4613e-01    2.1499e+05 ;    C12 - N1    
    12     38   1    1.0969e-01    2.8804e+05 ;    C12 - H15   
    12     39   1    1.0969e-01    2.8804e+05 ;    C12 - H16   
    13     21   1    1.3512e-01    2.7973e+05 ;    C13 - F1    
    13     22   1    1.3512e-01    2.7973e+05 ;    C13 - F2    
    13     23   1    1.3512e-01    2.7973e+05 ;    C13 - F3    
    15     17   1    1.2311e-01    3.0270e+05 ;     N2 - O1    
    15     18   1    1.2311e-01    3.0270e+05 ;     N2 - O2    
    16     19   1    1.2311e-01    3.0270e+05 ;     N3 - O3    
    16     20   1    1.2311e-01    3.0270e+05 ;     N3 - O4    

[ pairs ]
;   ai     aj    funct
     1      5      1 ;     C1 - C5    
     1     14      1 ;     C1 - N1    
     1     17      1 ;     C1 - O1    
     1     18      1 ;     C1 - O2    
     1     21      1 ;     C1 - F1    
     1     22      1 ;     C1 - F2    
     1     23      1 ;     C1 - F3    
     1     25      1 ;     C1 - H2    
     2     14      1 ;     C2 - N1    
     2     19      1 ;     C2 - O3    
     2     20      1 ;     C2 - O4    
     2     21      1 ;     C2 - F1    
     2     22      1 ;     C2 - F2    
     2     23      1 ;     C2 - F3    
     3      6      1 ;     C3 - C6    
     3     15      1 ;     C3 - N2    
     3     16      1 ;     C3 - N3    
     4      2      1 ;     C4 - C2    
     4     11      1 ;     C4 - C11   
     4     12      1 ;     C4 - C12   
     4     13      1 ;     C4 - C13   
     4     16      1 ;     C4 - N3    
     5     11      1 ;     C5 - C11   
     5     12      1 ;     C5 - C12   
     5     13      1 ;     C5 - C13   
     5     15      1 ;     C5 - N2    
     6      9      1 ;     C6 - C9    
     6     10      1 ;     C6 - C10   
     6     17      1 ;     C6 - O1    
     6     18      1 ;     C6 - O2    
     6     19      1 ;     C6 - O3    
     6     20      1 ;     C6 - O4    
     6     25      1 ;     C6 - H2    
     6     36      1 ;     C6 - H13   
     6     37      1 ;     C6 - H14   
     6     38      1 ;     C6 - H15   
     6     39      1 ;     C6 - H16   
     7     14      1 ;     C7 - N1    
     7     36      1 ;     C7 - H13   
     7     37      1 ;     C7 - H14   
     8     14      1 ;     C8 - N1    
     8     38      1 ;     C8 - H15   
     8     39      1 ;     C8 - H16   
     9     12      1 ;     C9 - C12   
    10     11      1 ;    C10 - C11   
    11     26      1 ;    C11 - H3    
    11     27      1 ;    C11 - H4    
    11     28      1 ;    C11 - H5    
    11     38      1 ;    C11 - H15   
    11     39      1 ;    C11 - H16   
    12     29      1 ;    C12 - H6    
    12     30      1 ;    C12 - H7    
    12     31      1 ;    C12 - H8    
    12     36      1 ;    C12 - H13   
    12     37      1 ;    C12 - H14   
    13     25      1 ;    C13 - H2    
    14     15      1 ;     N1 - N2    
    14     16      1 ;     N1 - N3    
    14     32      1 ;     N1 - H9    
    14     33      1 ;     N1 - H10   
    14     34      1 ;     N1 - H11   
    14     35      1 ;     N1 - H12   
    16     25      1 ;     N3 - H2    
    24      2      1 ;     H1 - C2    
    24      6      1 ;     H1 - C6    
    24     13      1 ;     H1 - C13   
    24     15      1 ;     H1 - N2    
    26     32      1 ;     H3 - H9    
    26     33      1 ;     H3 - H10   
    27     32      1 ;     H4 - H9    
    27     33      1 ;     H4 - H10   
    28     32      1 ;     H5 - H9    
    28     33      1 ;     H5 - H10   
    29     34      1 ;     H6 - H11   
    29     35      1 ;     H6 - H12   
    30     34      1 ;     H7 - H11   
    30     35      1 ;     H7 - H12   
    31     34      1 ;     H8 - H11   
    31     35      1 ;     H8 - H12   
    32     36      1 ;     H9 - H13   
    32     37      1 ;     H9 - H14   
    33     36      1 ;    H10 - H13   
    33     37      1 ;    H10 - H14   
    34     38      1 ;    H11 - H15   
    34     39      1 ;    H11 - H16   
    35     38      1 ;    H12 - H15   
    35     39      1 ;    H12 - H16   

[ angles ]
;   ai     aj     ak    funct   theta         cth
     1      3      2      1    1.2002e+02    5.3279e+02 ;     C1 - C3     - C2    
     1      3     13      1    1.2083e+02    5.0827e+02 ;     C1 - C3     - C13   
     1      4      6      1    1.2002e+02    5.3279e+02 ;     C1 - C4     - C6    
     1      4     15      1    1.1900e+02    5.5329e+02 ;     C1 - C4     - N2    
     2      3     13      1    1.2083e+02    5.0827e+02 ;     C2 - C3     - C13   
     2      5      6      1    1.2002e+02    5.3279e+02 ;     C2 - C5     - C6    
     2      5     16      1    1.1900e+02    5.5329e+02 ;     C2 - C5     - N3    
     3      1      4      1    1.2002e+02    5.3279e+02 ;     C3 - C1     - C4    
     3      1     24      1    1.1988e+02    3.7572e+02 ;     C3 - C1     - H1    
     3      2      5      1    1.2002e+02    5.3279e+02 ;     C3 - C2     - C5    
     3      2     25      1    1.1988e+02    3.7572e+02 ;     C3 - C2     - H2    
     3     13     21      1    1.1178e+02    6.6308e+02 ;     C3 - C13    - F1    
     3     13     22      1    1.1178e+02    6.6308e+02 ;     C3 - C13    - F2    
     3     13     23      1    1.1178e+02    6.6308e+02 ;     C3 - C13    - F3    
     4      1     24      1    1.1988e+02    3.7572e+02 ;     C4 - C1     - H1    
     4      6      5      1    1.2002e+02    5.3279e+02 ;     C4 - C6     - C5    
     4      6     14      1    1.2113e+02    5.6216e+02 ;     C4 - C6     - N1    
     4     15     17      1    1.1776e+02    8.2910e+02 ;     C4 - N2     - O1    
     4     15     18      1    1.1776e+02    8.2910e+02 ;     C4 - N2     - O2    
     5      2     25      1    1.1988e+02    3.7572e+02 ;     C5 - C2     - H2    
     5      6     14      1    1.2113e+02    5.6216e+02 ;     C5 - C6     - N1    
     5     16     19      1    1.1776e+02    8.2910e+02 ;     C5 - N3     - O3    
     5     16     20      1    1.1776e+02    8.2910e+02 ;     C5 - N3     - O4    
     6      4     15      1    1.1900e+02    5.5329e+02 ;     C6 - C4     - N2    
     6      5     16      1    1.1900e+02    5.5329e+02 ;     C6 - C5     - N3    
     6     14     11      1    1.1953e+02    6.4383e+02 ;     C6 - N1     - C11   
     6     14     12      1    1.1953e+02    6.4383e+02 ;     C6 - N1     - C12   
     7      9     11      1    1.1263e+02    5.0099e+02 ;     C7 - C9     - C11   
     7      9     32      1    1.0968e+02    3.6208e+02 ;     C7 - C9     - H9    
     7      9     33      1    1.0968e+02    3.6208e+02 ;     C7 - C9     - H10   
     8     10     12      1    1.1263e+02    5.0099e+02 ;     C8 - C10    - C12   
     8     10     34      1    1.0968e+02    3.6208e+02 ;     C8 - C10    - H11   
     8     10     35      1    1.0968e+02    3.6208e+02 ;     C8 - C10    - H12   
     9      7     26      1    1.0968e+02    3.6208e+02 ;     C9 - C7     - H3    
     9      7     27      1    1.0968e+02    3.6208e+02 ;     C9 - C7     - H4    
     9      7     28      1    1.0968e+02    3.6208e+02 ;     C9 - C7     - H5    
     9     11     14      1    1.1348e+02    5.4233e+02 ;     C9 - C11    - N1    
     9     11     36      1    1.0959e+02    3.6217e+02 ;     C9 - C11    - H13   
     9     11     37      1    1.0959e+02    3.6217e+02 ;     C9 - C11    - H14   
    10      8     29      1    1.0968e+02    3.6208e+02 ;    C10 - C8     - H6    
    10      8     30      1    1.0968e+02    3.6208e+02 ;    C10 - C8     - H7    
    10      8     31      1    1.0968e+02    3.6208e+02 ;    C10 - C8     - H8    
    10     12     14      1    1.1348e+02    5.4233e+02 ;    C10 - C12    - N1    
    10     12     38      1    1.0959e+02    3.6217e+02 ;    C10 - C12    - H15   
    10     12     39      1    1.0959e+02    3.6217e+02 ;    C10 - C12    - H16   
    11      9     32      1    1.0968e+02    3.6208e+02 ;    C11 - C9     - H9    
    11      9     33      1    1.0968e+02    3.6208e+02 ;    C11 - C9     - H10   
    11     14     12      1    1.1656e+02    6.3957e+02 ;    C11 - N1     - C12   
    12     10     34      1    1.0968e+02    3.6208e+02 ;    C12 - C10    - H11   
    12     10     35      1    1.0968e+02    3.6208e+02 ;    C12 - C10    - H12   
    14     11     36      1    1.0968e+02    4.0141e+02 ;     N1 - C11    - H13   
    14     11     37      1    1.0968e+02    4.0141e+02 ;     N1 - C11    - H14   
    14     12     38      1    1.0968e+02    4.0141e+02 ;     N1 - C12    - H15   
    14     12     39      1    1.0968e+02    4.0141e+02 ;     N1 - C12    - H16   
    17     15     18      1    1.2505e+02    1.0964e+03 ;     O1 - N2     - O2    
    19     16     20      1    1.2505e+02    1.0964e+03 ;     O3 - N3     - O4    
    21     13     22      1    1.0737e+02    8.9437e+02 ;     F1 - C13    - F2    
    21     13     23      1    1.0737e+02    8.9437e+02 ;     F1 - C13    - F3    
    22     13     23      1    1.0737e+02    8.9437e+02 ;     F2 - C13    - F3    
    26      7     27      1    1.0773e+02    2.9957e+02 ;     H3 - C7     - H4    
    26      7     28      1    1.0773e+02    2.9957e+02 ;     H3 - C7     - H5    
    27      7     28      1    1.0773e+02    2.9957e+02 ;     H4 - C7     - H5    
    29      8     30      1    1.0773e+02    2.9957e+02 ;     H6 - C8     - H7    
    29      8     31      1    1.0773e+02    2.9957e+02 ;     H6 - C8     - H8    
    30      8     31      1    1.0773e+02    2.9957e+02 ;     H7 - C8     - H8    
    32      9     33      1    1.0773e+02    2.9957e+02 ;     H9 - C9     - H10   
    34     10     35      1    1.0773e+02    2.9957e+02 ;    H11 - C10    - H12   
    36     11     37      1    1.0855e+02    2.9824e+02 ;    H13 - C11    - H14   
    38     12     39      1    1.0855e+02    2.9824e+02 ;    H15 - C12    - H16   

[ dihedrals ] ; propers
; for gromacs 4.5 or higher, using funct 9
;    i      j      k      l   func   phase     kd      pn
     1      3      2      5      9   180.00  15.16700   2 ;     C1-    C3-    C2-    C5
     1      3      2     25      9   180.00  15.16700   2 ;     C1-    C3-    C2-    H2
     1      3     13     21      9     0.00   0.00000   0 ;     C1-    C3-   C13-    F1
     1      3     13     22      9     0.00   0.00000   0 ;     C1-    C3-   C13-    F2
     1      3     13     23      9     0.00   0.00000   0 ;     C1-    C3-   C13-    F3
     1      4      6      5      9   180.00  15.16700   2 ;     C1-    C4-    C6-    C5
     1      4      6     14      9   180.00  15.16700   2 ;     C1-    C4-    C6-    N1
     1      4     15     17      9   180.00   3.01248   2 ;     C1-    C4-    N2-    O1
     1      4     15     18      9   180.00   3.01248   2 ;     C1-    C4-    N2-    O2
     2      3     13     21      9     0.00   0.00000   0 ;     C2-    C3-   C13-    F1
     2      3     13     22      9     0.00   0.00000   0 ;     C2-    C3-   C13-    F2
     2      3     13     23      9     0.00   0.00000   0 ;     C2-    C3-   C13-    F3
     2      5      6      4      9   180.00  15.16700   2 ;     C2-    C5-    C6-    C4
     2      5      6     14      9   180.00  15.16700   2 ;     C2-    C5-    C6-    N1
     2      5     16     19      9   180.00   3.01248   2 ;     C2-    C5-    N3-    O3
     2      5     16     20      9   180.00   3.01248   2 ;     C2-    C5-    N3-    O4
     3      1      4      6      9   180.00  15.16700   2 ;     C3-    C1-    C4-    C6
     3      1      4     15      9   180.00  15.16700   2 ;     C3-    C1-    C4-    N2
     3      2      5      6      9   180.00  15.16700   2 ;     C3-    C2-    C5-    C6
     3      2      5     16      9   180.00  15.16700   2 ;     C3-    C2-    C5-    N3
     4      1      3      2      9   180.00  15.16700   2 ;     C4-    C1-    C3-    C2
     4      1      3     13      9   180.00  15.16700   2 ;     C4-    C1-    C3-   C13
     4      6      5     16      9   180.00  15.16700   2 ;     C4-    C6-    C5-    N3
     4      6     14     11      9   180.00   3.15055   2 ;     C4-    C6-    N1-   C11
     4      6     14     12      9   180.00   3.15055   2 ;     C4-    C6-    N1-   C12
     5      2      3     13      9   180.00  15.16700   2 ;     C5-    C2-    C3-   C13
     5      6      4     15      9   180.00  15.16700   2 ;     C5-    C6-    C4-    N2
     5      6     14     11      9   180.00   3.15055   2 ;     C5-    C6-    N1-   C11
     5      6     14     12      9   180.00   3.15055   2 ;     C5-    C6-    N1-   C12
     6      4     15     17      9   180.00   3.01248   2 ;     C6-    C4-    N2-    O1
     6      4     15     18      9   180.00   3.01248   2 ;     C6-    C4-    N2-    O2
     6      5      2     25      9   180.00  15.16700   2 ;     C6-    C5-    C2-    H2
     6      5     16     19      9   180.00   3.01248   2 ;     C6-    C5-    N3-    O3
     6      5     16     20      9   180.00   3.01248   2 ;     C6-    C5-    N3-    O4
     6     14     11      9      9     0.00   0.00000   0 ;     C6-    N1-   C11-    C9
     6     14     11     36      9     0.00   1.38909   2 ;     C6-    N1-   C11-   H13
     6     14     11     37      9     0.00   1.38909   2 ;     C6-    N1-   C11-   H14
     6     14     12     10      9     0.00   0.00000   0 ;     C6-    N1-   C12-   C10
     6     14     12     38      9     0.00   1.38909   2 ;     C6-    N1-   C12-   H15
     6     14     12     39      9     0.00   1.38909   2 ;     C6-    N1-   C12-   H16
     7      9     11     14      9     0.00   0.87864   3 ;     C7-    C9-   C11-    N1
     7      9     11     36      9     0.00   0.65084   3 ;     C7-    C9-   C11-   H13
     7      9     11     37      9     0.00   0.65084   3 ;     C7-    C9-   C11-   H14
     8     10     12     14      9     0.00   0.87864   3 ;     C8-   C10-   C12-    N1
     8     10     12     38      9     0.00   0.65084   3 ;     C8-   C10-   C12-   H15
     8     10     12     39      9     0.00   0.65084   3 ;     C8-   C10-   C12-   H16
     9     11     14     12      9     0.00   0.00000   0 ;     C9-   C11-    N1-   C12
    10     12     14     11      9     0.00   0.00000   0 ;    C10-   C12-    N1-   C11
    11      9      7     26      9     0.00   0.54392   3 ;    C11-    C9-    C7-    H3
    11      9      7     27      9     0.00   0.54392   3 ;    C11-    C9-    C7-    H4
    11      9      7     28      9     0.00   0.54392   3 ;    C11-    C9-    C7-    H5
    11     14     12     38      9     0.00   0.00000   0 ;    C11-    N1-   C12-   H15
    11     14     12     39      9     0.00   0.00000   0 ;    C11-    N1-   C12-   H16
    12     10      8     29      9     0.00   0.54392   3 ;    C12-   C10-    C8-    H6
    12     10      8     30      9     0.00   0.54392   3 ;    C12-   C10-    C8-    H7
    12     10      8     31      9     0.00   0.54392   3 ;    C12-   C10-    C8-    H8
    12     14     11     36      9     0.00   0.00000   0 ;    C12-    N1-   C11-   H13
    12     14     11     37      9     0.00   0.00000   0 ;    C12-    N1-   C11-   H14
    13      3      2     25      9   180.00  15.16700   2 ;    C13-    C3-    C2-    H2
    14      6      4     15      9   180.00  15.16700   2 ;     N1-    C6-    C4-    N2
    14      6      5     16      9   180.00  15.16700   2 ;     N1-    C6-    C5-    N3
    14     11      9     32      9     0.00   0.65084   3 ;     N1-   C11-    C9-    H9
    14     11      9     33      9     0.00   0.65084   3 ;     N1-   C11-    C9-   H10
    14     12     10     34      9     0.00   0.65084   3 ;     N1-   C12-   C10-   H11
    14     12     10     35      9     0.00   0.65084   3 ;     N1-   C12-   C10-   H12
    16      5      2     25      9   180.00  15.16700   2 ;     N3-    C5-    C2-    H2
    24      1      3      2      9   180.00  15.16700   2 ;     H1-    C1-    C3-    C2
    24      1      3     13      9   180.00  15.16700   2 ;     H1-    C1-    C3-   C13
    24      1      4      6      9   180.00  15.16700   2 ;     H1-    C1-    C4-    C6
    24      1      4     15      9   180.00  15.16700   2 ;     H1-    C1-    C4-    N2
    26      7      9     32      9     0.00   0.50208   3 ;     H3-    C7-    C9-    H9
    26      7      9     33      9     0.00   0.50208   3 ;     H3-    C7-    C9-   H10
    27      7      9     32      9     0.00   0.50208   3 ;     H4-    C7-    C9-    H9
    27      7      9     33      9     0.00   0.50208   3 ;     H4-    C7-    C9-   H10
    28      7      9     32      9     0.00   0.50208   3 ;     H5-    C7-    C9-    H9
    28      7      9     33      9     0.00   0.50208   3 ;     H5-    C7-    C9-   H10
    29      8     10     34      9     0.00   0.50208   3 ;     H6-    C8-   C10-   H11
    29      8     10     35      9     0.00   0.50208   3 ;     H6-    C8-   C10-   H12
    30      8     10     34      9     0.00   0.50208   3 ;     H7-    C8-   C10-   H11
    30      8     10     35      9     0.00   0.50208   3 ;     H7-    C8-   C10-   H12
    31      8     10     34      9     0.00   0.50208   3 ;     H8-    C8-   C10-   H11
    31      8     10     35      9     0.00   0.50208   3 ;     H8-    C8-   C10-   H12
    32      9     11     36      9     0.00   0.65084   3 ;     H9-    C9-   C11-   H13
    32      9     11     37      9     0.00   0.65084   3 ;     H9-    C9-   C11-   H14
    33      9     11     36      9     0.00   0.65084   3 ;    H10-    C9-   C11-   H13
    33      9     11     37      9     0.00   0.65084   3 ;    H10-    C9-   C11-   H14
    34     10     12     38      9     0.00   0.65084   3 ;    H11-   C10-   C12-   H15
    34     10     12     39      9     0.00   0.65084   3 ;    H11-   C10-   C12-   H16
    35     10     12     38      9     0.00   0.65084   3 ;    H12-   C10-   C12-   H15
    35     10     12     39      9     0.00   0.65084   3 ;    H12-   C10-   C12-   H16

[ dihedrals ] ; impropers
; treated as propers in GROMACS to use correct AMBER analytical function
;    i      j      k      l   func   phase     kd      pn
     1      2      3     13      4   180.00   4.60240   2 ;     C1-    C2-    C3-   C13
     1      6      4     15      4   180.00   4.60240   2 ;     C1-    C6-    C4-    N2
     2      6      5     16      4   180.00   4.60240   2 ;     C2-    C6-    C5-    N3
     3      5      2     25      4   180.00   4.60240   2 ;     C3-    C5-    C2-    H2
     4      5      6     14      4   180.00   4.60240   2 ;     C4-    C5-    C6-    N1
     4     17     15     18      4   180.00   4.60240   2 ;     C4-    O1-    N2-    O2
     5     19     16     20      4   180.00   4.60240   2 ;     C5-    O3-    N3-    O4
    11     12     14      6      4   180.00   4.60240   2 ;    C11-   C12-    N1-    C6
    24      1      4      3      4   180.00   4.60240   2 ;     H1-    C1-    C4-    C3
