; mobley_7017274_GMX.itp created by acpype (v: 2023.10.27) on Thu May 21 00:15:34 2026

[ atomtypes ]
;name   bond_type     mass     charge   ptype   sigma         epsilon       Amb
 ca       ca          0.00000  0.00000   A     3.31521e-01   4.13379e-01 ; 1.86  0.0988
 ha       ha          0.00000  0.00000   A     2.62548e-01   6.73624e-02 ; 1.47  0.0161

[ moleculetype ]
;name            nrexcl
 mobley_7017274   3

[ atoms ]
;   nr  type  resi  res  atom  cgnr     charge      mass       ; qtot   bond_type
     1   ca     1   MOL    C1    1    -0.127000     12.01000 ; qtot -0.127
     2   ca     1   MOL    C2    2    -0.127000     12.01000 ; qtot -0.254
     3   ca     1   MOL    C3    3    -0.128000     12.01000 ; qtot -0.382
     4   ca     1   MOL    C4    4    -0.128000     12.01000 ; qtot -0.510
     5   ca     1   MOL    C5    5    -0.118000     12.01000 ; qtot -0.628
     6   ca     1   MOL    C6    6    -0.118000     12.01000 ; qtot -0.746
     7   ca     1   MOL    C7    7    -0.119000     12.01000 ; qtot -0.865
     8   ca     1   MOL    C8    8    -0.119000     12.01000 ; qtot -0.984
     9   ca     1   MOL    C9    9    -0.116000     12.01000 ; qtot -1.100
    10   ca     1   MOL   C10   10    -0.116000     12.01000 ; qtot -1.216
    11   ca     1   MOL   C11   11    -0.036000     12.01000 ; qtot -1.252
    12   ca     1   MOL   C12   12    -0.036000     12.01000 ; qtot -1.288
    13   ca     1   MOL   C13   13    -0.019000     12.01000 ; qtot -1.307
    14   ca     1   MOL   C14   14    -0.019000     12.01000 ; qtot -1.326
    15   ha     1   MOL    H1   15     0.133000      1.00800 ; qtot -1.193
    16   ha     1   MOL    H2   16     0.133000      1.00800 ; qtot -1.060
    17   ha     1   MOL    H3   17     0.132000      1.00800 ; qtot -0.928
    18   ha     1   MOL    H4   18     0.132000      1.00800 ; qtot -0.796
    19   ha     1   MOL    H5   19     0.133000      1.00800 ; qtot -0.663
    20   ha     1   MOL    H6   20     0.133000      1.00800 ; qtot -0.530
    21   ha     1   MOL    H7   21     0.132000      1.00800 ; qtot -0.398
    22   ha     1   MOL    H8   22     0.132000      1.00800 ; qtot -0.266
    23   ha     1   MOL    H9   23     0.133000      1.00800 ; qtot -0.133
    24   ha     1   MOL   H10   24     0.133000      1.00800 ; qtot -0.000

[ bonds ]
;   ai     aj funct   r             k
     1      3   1    1.3986e-01    2.9644e+05 ;     C1 - C3    
     1      5   1    1.3986e-01    2.9644e+05 ;     C1 - C5    
     1     15   1    1.0860e-01    3.0183e+05 ;     C1 - H1    
     2      4   1    1.3986e-01    2.9644e+05 ;     C2 - C4    
     2      6   1    1.3986e-01    2.9644e+05 ;     C2 - C6    
     2     16   1    1.0860e-01    3.0183e+05 ;     C2 - H2    
     3      7   1    1.3986e-01    2.9644e+05 ;     C3 - C7    
     3     17   1    1.0860e-01    3.0183e+05 ;     C3 - H3    
     4      8   1    1.3986e-01    2.9644e+05 ;     C4 - C8    
     4     18   1    1.0860e-01    3.0183e+05 ;     C4 - H4    
     5     11   1    1.3986e-01    2.9644e+05 ;     C5 - C11   
     5     19   1    1.0860e-01    3.0183e+05 ;     C5 - H5    
     6     12   1    1.3986e-01    2.9644e+05 ;     C6 - C12   
     6     20   1    1.0860e-01    3.0183e+05 ;     C6 - H6    
     7     13   1    1.3986e-01    2.9644e+05 ;     C7 - C13   
     7     21   1    1.0860e-01    3.0183e+05 ;     C7 - H7    
     8     14   1    1.3986e-01    2.9644e+05 ;     C8 - C14   
     8     22   1    1.0860e-01    3.0183e+05 ;     C8 - H8    
     9     10   1    1.3986e-01    2.9644e+05 ;     C9 - C10   
     9     11   1    1.3986e-01    2.9644e+05 ;     C9 - C11   
     9     23   1    1.0860e-01    3.0183e+05 ;     C9 - H9    
    10     12   1    1.3986e-01    2.9644e+05 ;    C10 - C12   
    10     24   1    1.0860e-01    3.0183e+05 ;    C10 - H10   
    11     13   1    1.3986e-01    2.9644e+05 ;    C11 - C13   
    12     14   1    1.3986e-01    2.9644e+05 ;    C12 - C14   
    13     14   1    1.3986e-01    2.9644e+05 ;    C13 - C14   

[ pairs ]
;   ai     aj    funct
     1      9      1 ;     C1 - C9    
     1     13      1 ;     C1 - C13   
     1     21      1 ;     C1 - H7    
     2     10      1 ;     C2 - C10   
     2     14      1 ;     C2 - C14   
     2     22      1 ;     C2 - H8    
     3     11      1 ;     C3 - C11   
     3     14      1 ;     C3 - C14   
     3     19      1 ;     C3 - H5    
     4     12      1 ;     C4 - C12   
     4     13      1 ;     C4 - C13   
     4     20      1 ;     C4 - H6    
     5      7      1 ;     C5 - C7    
     5     10      1 ;     C5 - C10   
     5     14      1 ;     C5 - C14   
     5     17      1 ;     C5 - H3    
     5     23      1 ;     C5 - H9    
     6      8      1 ;     C6 - C8    
     6      9      1 ;     C6 - C9    
     6     13      1 ;     C6 - C13   
     6     18      1 ;     C6 - H4    
     6     24      1 ;     C6 - H10   
     7      8      1 ;     C7 - C8    
     7      9      1 ;     C7 - C9    
     7     12      1 ;     C7 - C12   
     8     10      1 ;     C8 - C10   
     8     11      1 ;     C8 - C11   
     8     16      1 ;     C8 - H2    
     9     14      1 ;     C9 - C14   
     9     19      1 ;     C9 - H5    
    10     13      1 ;    C10 - C13   
    10     20      1 ;    C10 - H6    
    11     12      1 ;    C11 - C12   
    11     21      1 ;    C11 - H7    
    11     24      1 ;    C11 - H10   
    12     16      1 ;    C12 - H2    
    12     22      1 ;    C12 - H8    
    12     23      1 ;    C12 - H9    
    13     17      1 ;    C13 - H3    
    13     19      1 ;    C13 - H5    
    13     22      1 ;    C13 - H8    
    13     23      1 ;    C13 - H9    
    14     18      1 ;    C14 - H4    
    14     20      1 ;    C14 - H6    
    14     21      1 ;    C14 - H7    
    14     24      1 ;    C14 - H10   
    15      7      1 ;     H1 - C7    
    15     11      1 ;     H1 - C11   
    15     17      1 ;     H1 - H3    
    15     19      1 ;     H1 - H5    
    16     18      1 ;     H2 - H4    
    16     20      1 ;     H2 - H6    
    17     21      1 ;     H3 - H7    
    18     22      1 ;     H4 - H8    
    23     24      1 ;     H9 - H10   

[ angles ]
;   ai     aj     ak    funct   theta         cth
     1      3      7      1    1.2002e+02    5.3279e+02 ;     C1 - C3     - C7    
     1      3     17      1    1.1988e+02    3.7572e+02 ;     C1 - C3     - H3    
     1      5     11      1    1.2002e+02    5.3279e+02 ;     C1 - C5     - C11   
     1      5     19      1    1.1988e+02    3.7572e+02 ;     C1 - C5     - H5    
     2      4      8      1    1.2002e+02    5.3279e+02 ;     C2 - C4     - C8    
     2      4     18      1    1.1988e+02    3.7572e+02 ;     C2 - C4     - H4    
     2      6     12      1    1.2002e+02    5.3279e+02 ;     C2 - C6     - C12   
     2      6     20      1    1.1988e+02    3.7572e+02 ;     C2 - C6     - H6    
     3      1      5      1    1.2002e+02    5.3279e+02 ;     C3 - C1     - C5    
     3      1     15      1    1.1988e+02    3.7572e+02 ;     C3 - C1     - H1    
     3      7     13      1    1.2002e+02    5.3279e+02 ;     C3 - C7     - C13   
     3      7     21      1    1.1988e+02    3.7572e+02 ;     C3 - C7     - H7    
     4      2      6      1    1.2002e+02    5.3279e+02 ;     C4 - C2     - C6    
     4      2     16      1    1.1988e+02    3.7572e+02 ;     C4 - C2     - H2    
     4      8     14      1    1.2002e+02    5.3279e+02 ;     C4 - C8     - C14   
     4      8     22      1    1.1988e+02    3.7572e+02 ;     C4 - C8     - H8    
     5      1     15      1    1.1988e+02    3.7572e+02 ;     C5 - C1     - H1    
     5     11      9      1    1.2002e+02    5.3279e+02 ;     C5 - C11    - C9    
     5     11     13      1    1.2002e+02    5.3279e+02 ;     C5 - C11    - C13   
     6      2     16      1    1.1988e+02    3.7572e+02 ;     C6 - C2     - H2    
     6     12     10      1    1.2002e+02    5.3279e+02 ;     C6 - C12    - C10   
     6     12     14      1    1.2002e+02    5.3279e+02 ;     C6 - C12    - C14   
     7      3     17      1    1.1988e+02    3.7572e+02 ;     C7 - C3     - H3    
     7     13     11      1    1.2002e+02    5.3279e+02 ;     C7 - C13    - C11   
     7     13     14      1    1.2002e+02    5.3279e+02 ;     C7 - C13    - C14   
     8      4     18      1    1.1988e+02    3.7572e+02 ;     C8 - C4     - H4    
     8     14     12      1    1.2002e+02    5.3279e+02 ;     C8 - C14    - C12   
     8     14     13      1    1.2002e+02    5.3279e+02 ;     C8 - C14    - C13   
     9     10     12      1    1.2002e+02    5.3279e+02 ;     C9 - C10    - C12   
     9     10     24      1    1.1988e+02    3.7572e+02 ;     C9 - C10    - H10   
     9     11     13      1    1.2002e+02    5.3279e+02 ;     C9 - C11    - C13   
    10      9     11      1    1.2002e+02    5.3279e+02 ;    C10 - C9     - C11   
    10      9     23      1    1.1988e+02    3.7572e+02 ;    C10 - C9     - H9    
    10     12     14      1    1.2002e+02    5.3279e+02 ;    C10 - C12    - C14   
    11      5     19      1    1.1988e+02    3.7572e+02 ;    C11 - C5     - H5    
    11      9     23      1    1.1988e+02    3.7572e+02 ;    C11 - C9     - H9    
    11     13     14      1    1.2002e+02    5.3279e+02 ;    C11 - C13    - C14   
    12      6     20      1    1.1988e+02    3.7572e+02 ;    C12 - C6     - H6    
    12     10     24      1    1.1988e+02    3.7572e+02 ;    C12 - C10    - H10   
    12     14     13      1    1.2002e+02    5.3279e+02 ;    C12 - C14    - C13   
    13      7     21      1    1.1988e+02    3.7572e+02 ;    C13 - C7     - H7    
    14      8     22      1    1.1988e+02    3.7572e+02 ;    C14 - C8     - H8    

[ dihedrals ] ; propers
; for gromacs 4.5 or higher, using funct 9
;    i      j      k      l   func   phase     kd      pn
     1      3      7     13      9   180.00  15.16700   2 ;     C1-    C3-    C7-   C13
     1      3      7     21      9   180.00  15.16700   2 ;     C1-    C3-    C7-    H7
     1      5     11      9      9   180.00  15.16700   2 ;     C1-    C5-   C11-    C9
     1      5     11     13      9   180.00  15.16700   2 ;     C1-    C5-   C11-   C13
     2      4      8     14      9   180.00  15.16700   2 ;     C2-    C4-    C8-   C14
     2      4      8     22      9   180.00  15.16700   2 ;     C2-    C4-    C8-    H8
     2      6     12     10      9   180.00  15.16700   2 ;     C2-    C6-   C12-   C10
     2      6     12     14      9   180.00  15.16700   2 ;     C2-    C6-   C12-   C14
     3      1      5     11      9   180.00  15.16700   2 ;     C3-    C1-    C5-   C11
     3      1      5     19      9   180.00  15.16700   2 ;     C3-    C1-    C5-    H5
     3      7     13     11      9   180.00  15.16700   2 ;     C3-    C7-   C13-   C11
     3      7     13     14      9   180.00  15.16700   2 ;     C3-    C7-   C13-   C14
     4      2      6     12      9   180.00  15.16700   2 ;     C4-    C2-    C6-   C12
     4      2      6     20      9   180.00  15.16700   2 ;     C4-    C2-    C6-    H6
     4      8     14     12      9   180.00  15.16700   2 ;     C4-    C8-   C14-   C12
     4      8     14     13      9   180.00  15.16700   2 ;     C4-    C8-   C14-   C13
     5      1      3      7      9   180.00  15.16700   2 ;     C5-    C1-    C3-    C7
     5      1      3     17      9   180.00  15.16700   2 ;     C5-    C1-    C3-    H3
     5     11      9     10      9   180.00  15.16700   2 ;     C5-   C11-    C9-   C10
     5     11      9     23      9   180.00  15.16700   2 ;     C5-   C11-    C9-    H9
     5     11     13      7      9   180.00  15.16700   2 ;     C5-   C11-   C13-    C7
     5     11     13     14      9   180.00  15.16700   2 ;     C5-   C11-   C13-   C14
     6      2      4      8      9   180.00  15.16700   2 ;     C6-    C2-    C4-    C8
     6      2      4     18      9   180.00  15.16700   2 ;     C6-    C2-    C4-    H4
     6     12     10      9      9   180.00  15.16700   2 ;     C6-   C12-   C10-    C9
     6     12     10     24      9   180.00  15.16700   2 ;     C6-   C12-   C10-   H10
     6     12     14      8      9   180.00  15.16700   2 ;     C6-   C12-   C14-    C8
     6     12     14     13      9   180.00  15.16700   2 ;     C6-   C12-   C14-   C13
     7     13     11      9      9   180.00  15.16700   2 ;     C7-   C13-   C11-    C9
     7     13     14      8      9   180.00  15.16700   2 ;     C7-   C13-   C14-    C8
     7     13     14     12      9   180.00  15.16700   2 ;     C7-   C13-   C14-   C12
     8      4      2     16      9   180.00  15.16700   2 ;     C8-    C4-    C2-    H2
     8     14     12     10      9   180.00  15.16700   2 ;     C8-   C14-   C12-   C10
     8     14     13     11      9   180.00  15.16700   2 ;     C8-   C14-   C13-   C11
     9     10     12     14      9   180.00  15.16700   2 ;     C9-   C10-   C12-   C14
     9     11      5     19      9   180.00  15.16700   2 ;     C9-   C11-    C5-    H5
     9     11     13     14      9   180.00  15.16700   2 ;     C9-   C11-   C13-   C14
    10      9     11     13      9   180.00  15.16700   2 ;    C10-    C9-   C11-   C13
    10     12      6     20      9   180.00  15.16700   2 ;    C10-   C12-    C6-    H6
    10     12     14     13      9   180.00  15.16700   2 ;    C10-   C12-   C14-   C13
    11      9     10     12      9   180.00  15.16700   2 ;    C11-    C9-   C10-   C12
    11      9     10     24      9   180.00  15.16700   2 ;    C11-    C9-   C10-   H10
    11     13      7     21      9   180.00  15.16700   2 ;    C11-   C13-    C7-    H7
    11     13     14     12      9   180.00  15.16700   2 ;    C11-   C13-   C14-   C12
    12      6      2     16      9   180.00  15.16700   2 ;    C12-    C6-    C2-    H2
    12     10      9     23      9   180.00  15.16700   2 ;    C12-   C10-    C9-    H9
    12     14      8     22      9   180.00  15.16700   2 ;    C12-   C14-    C8-    H8
    13      7      3     17      9   180.00  15.16700   2 ;    C13-    C7-    C3-    H3
    13     11      5     19      9   180.00  15.16700   2 ;    C13-   C11-    C5-    H5
    13     11      9     23      9   180.00  15.16700   2 ;    C13-   C11-    C9-    H9
    13     14      8     22      9   180.00  15.16700   2 ;    C13-   C14-    C8-    H8
    14      8      4     18      9   180.00  15.16700   2 ;    C14-    C8-    C4-    H4
    14     12      6     20      9   180.00  15.16700   2 ;    C14-   C12-    C6-    H6
    14     12     10     24      9   180.00  15.16700   2 ;    C14-   C12-   C10-   H10
    14     13      7     21      9   180.00  15.16700   2 ;    C14-   C13-    C7-    H7
    15      1      3      7      9   180.00  15.16700   2 ;     H1-    C1-    C3-    C7
    15      1      3     17      9   180.00  15.16700   2 ;     H1-    C1-    C3-    H3
    15      1      5     11      9   180.00  15.16700   2 ;     H1-    C1-    C5-   C11
    15      1      5     19      9   180.00  15.16700   2 ;     H1-    C1-    C5-    H5
    16      2      4     18      9   180.00  15.16700   2 ;     H2-    C2-    C4-    H4
    16      2      6     20      9   180.00  15.16700   2 ;     H2-    C2-    C6-    H6
    17      3      7     21      9   180.00  15.16700   2 ;     H3-    C3-    C7-    H7
    18      4      8     22      9   180.00  15.16700   2 ;     H4-    C4-    C8-    H8
    23      9     10     24      9   180.00  15.16700   2 ;     H9-    C9-   C10-   H10

[ dihedrals ] ; impropers
; treated as propers in GROMACS to use correct AMBER analytical function
;    i      j      k      l   func   phase     kd      pn
     1      7      3     17      4   180.00   4.60240   2 ;     C1-    C7-    C3-    H3
     1     11      5     19      4   180.00   4.60240   2 ;     C1-   C11-    C5-    H5
     2      8      4     18      4   180.00   4.60240   2 ;     C2-    C8-    C4-    H4
     2     12      6     20      4   180.00   4.60240   2 ;     C2-   C12-    C6-    H6
     3     13      7     21      4   180.00   4.60240   2 ;     C3-   C13-    C7-    H7
     4      6      2     16      4   180.00   4.60240   2 ;     C4-    C6-    C2-    H2
     4     14      8     22      4   180.00   4.60240   2 ;     C4-   C14-    C8-    H8
     5      9     11     13      4   180.00   4.60240   2 ;     C5-    C9-   C11-   C13
     6     10     12     14      4   180.00   4.60240   2 ;     C6-   C10-   C12-   C14
     7     11     13     14      4   180.00   4.60240   2 ;     C7-   C11-   C13-   C14
     8     12     14     13      4   180.00   4.60240   2 ;     C8-   C12-   C14-   C13
     9     12     10     24      4   180.00   4.60240   2 ;     C9-   C12-   C10-   H10
    10     11      9     23      4   180.00   4.60240   2 ;    C10-   C11-    C9-    H9
    15      1      5      3      4   180.00   4.60240   2 ;     H1-    C1-    C5-    C3
