mobley_2213823_GMX.gro created by acpype (v: 2023.10.27) on Tue May 19 12:36:08 2026
 2411
    1MOL     C1    1   2.426   2.555   2.454
    1MOL     C2    2   2.257   2.156   2.181
    1MOL     C3    3   2.441   2.255   2.403
    1MOL     C4    4   2.310   2.472   2.402
    1MOL     C5    5   2.227   2.276   2.268
    1MOL     C6    6   2.353   2.349   2.320
    1MOL     H1    7   2.494   2.584   2.373
    1MOL     H2    8   2.389   2.647   2.500
    1MOL     H3    9   2.483   2.502   2.530
    1MOL     H4   10   2.164   2.117   2.137
    1MOL     H5   11   2.303   2.075   2.238
    1MOL     H6   12   2.324   2.182   2.098
    1MOL     H7   13   2.388   2.217   2.491
    1MOL     H8   14   2.532   2.305   2.438
    1MOL     H9   15   2.474   2.169   2.344
    1MOL    H10   16   2.248   2.537   2.339
    1MOL    H11   17   2.247   2.442   2.487
    1MOL    H12   18   2.164   2.245   2.352
    1MOL    H13   19   2.167   2.347   2.209
    1MOL    H14   20   2.411   2.383   2.234
   14SOL     OW   21   1.460   1.505   1.339
   14SOL    HW1   22   1.484   1.599   1.365
   14SOL    HW2   23   1.444   1.451   1.421
   18SOL     OW   24   1.127   1.341   1.690
   18SOL    HW1   25   1.174   1.341   1.778
   18SOL    HW2   26   1.079   1.254   1.679
   31SOL     OW   27   1.293   1.228   1.423
   31SOL    HW1   28   1.330   1.155   1.365
   31SOL    HW2   29   1.345   1.233   1.508
   35SOL     OW   30   1.187   1.792   1.616
   35SOL    HW1   31   1.211   1.852   1.540
   35SOL    HW2   32   1.194   1.697   1.586
   56SOL     OW   33   1.227   1.550   1.506
   56SOL    HW1   34   1.233   1.473   1.570
   56SOL    HW2   35   1.175   1.524   1.426
   95SOL     OW   36   1.754   1.223   1.588
   95SOL    HW1   37   1.845   1.184   1.575
   95SOL    HW2   38   1.762   1.319   1.612
   97SOL     OW   39   1.592   1.629   1.625
   97SOL    HW1   40   1.619   1.663   1.535
   97SOL    HW2   41   1.671   1.591   1.671
  122SOL     OW   42   1.728   0.935   1.854
  122SOL    HW1   43   1.682   0.928   1.765
  122SOL    HW2   44   1.666   0.979   1.920
  126SOL     OW   45   0.980   1.573   1.700
  126SOL    HW1   46   0.960   1.617   1.612
  126SOL    HW2   47   1.019   1.482   1.684
  127SOL     OW   48   1.859   1.518   1.605
  127SOL    HW1   49   1.873   1.545   1.510
  127SOL    HW2   50   1.942   1.540   1.658
  147SOL     OW   51   0.930   1.678   1.465
  147SOL    HW1   52   0.906   1.660   1.370
  147SOL    HW2   53   0.960   1.772   1.475
  152SOL     OW   54   1.759   1.747   1.154
  152SOL    HW1   55   1.820   1.777   1.081
  152SOL    HW2   56   1.721   1.658   1.132
  153SOL     OW   57   1.252   1.731   1.128
  153SOL    HW1   58   1.336   1.736   1.074
  153SOL    HW2   59   1.229   1.635   1.146
  163SOL     OW   60   1.650   1.720   1.394
  163SOL    HW1   61   1.703   1.730   1.310
  163SOL    HW2   62   1.623   1.810   1.428
  171SOL     OW   63   1.614   1.292   1.289
  171SOL    HW1   64   1.674   1.295   1.369
  171SOL    HW2   65   1.539   1.356   1.302
  184SOL     OW   66   1.493   1.767   0.959
  184SOL    HW1   67   1.526   1.831   0.890
  184SOL    HW2   68   1.559   1.761   1.034
  186SOL     OW   69   1.450   1.220   1.633
  186SOL    HW1   70   1.441   1.210   1.732
  186SOL    HW2   71   1.546   1.213   1.607
  192SOL     OW   72   1.730   0.934   1.517
  192SOL    HW1   73   1.768   1.025   1.532
  192SOL    HW2   74   1.722   0.917   1.418
  197SOL     OW   75   1.861   1.569   0.851
  197SOL    HW1   76   1.790   1.557   0.781
  197SOL    HW2   77   1.862   1.490   0.911
  203SOL     OW   78   1.705   1.487   1.104
  203SOL    HW1   79   1.612   1.462   1.077
  203SOL    HW2   80   1.731   1.437   1.186
  219SOL     OW   81   1.555   1.511   2.565
  219SOL    HW1   82   1.498   1.495   2.646
  219SOL    HW2   83   1.496   1.521   2.485
  227SOL     OW   84   1.460   1.505   3.201
  227SOL    HW1   85   1.484   1.599   3.227
  227SOL    HW2   86   1.444   1.451   3.283
  238SOL     OW   87   1.842   1.767   2.221
  238SOL    HW1   88   1.896   1.738   2.301
  238SOL    HW2   89   1.872   1.857   2.192
  240SOL     OW   90   1.689   0.922   2.474
  240SOL    HW1   91   1.784   0.893   2.482
  240SOL    HW2   92   1.681   0.987   2.399
  241SOL     OW   93   1.641   1.108   2.294
  241SOL    HW1   94   1.727   1.110   2.242
  241SOL    HW2   95   1.655   1.155   2.382
  244SOL     OW   96   1.293   1.228   3.285
  244SOL    HW1   97   1.330   1.155   3.227
  244SOL    HW2   98   1.345   1.233   3.370
  247SOL     OW   99   1.525   0.999   2.052
  247SOL    HW1  100   1.462   0.923   2.065
  247SOL    HW2  101   1.573   1.017   2.138
  248SOL     OW  102   1.187   1.792   3.478
  248SOL    HW1  103   1.211   1.852   3.402
  248SOL    HW2  104   1.194   1.697   3.448
  250SOL     OW  105   1.466   1.417   2.815
  250SOL    HW1  106   1.407   1.423   2.895
  250SOL    HW2  107   1.451   1.329   2.769
  251SOL     OW  108   1.667   1.714   2.434
  251SOL    HW1  109   1.626   1.691   2.346
  251SOL    HW2  110   1.649   1.640   2.499
  254SOL     OW  111   1.576   1.662   2.169
  254SOL    HW1  112   1.665   1.708   2.172
  254SOL    HW2  113   1.555   1.638   2.074
  264SOL     OW  114   1.362   1.144   2.407
  264SOL    HW1  115   1.445   1.115   2.359
  264SOL    HW2  116   1.313   1.211   2.351
  266SOL     OW  117   1.008   1.456   2.339
  266SOL    HW1  118   0.962   1.528   2.287
  266SOL    HW2  119   1.004   1.476   2.437
  268SOL     OW  120   1.795   1.066   2.735
  268SOL    HW1  121   1.733   1.051   2.659
  268SOL    HW2  122   1.743   1.077   2.820
  269SOL     OW  123   1.227   1.550   3.368
  269SOL    HW1  124   1.233   1.473   3.432
  269SOL    HW2  125   1.175   1.524   3.288
  273SOL     OW  126   1.111   1.776   2.099
  273SOL    HW1  127   1.051   1.714   2.149
  273SOL    HW2  128   1.142   1.732   2.014
  275SOL     OW  129   1.632   1.377   1.943
  275SOL    HW1  130   1.600   1.471   1.933
  275SOL    HW2  131   1.556   1.314   1.931
  279SOL     OW  132   0.940   1.698   2.766
  279SOL    HW1  133   1.020   1.641   2.787
  279SOL    HW2  134   0.891   1.658   2.689
  289SOL     OW  135   1.434   1.188   1.903
  289SOL    HW1  136   1.466   1.112   1.960
  289SOL    HW2  137   1.342   1.215   1.933
  293SOL     OW  138   1.227   1.570   2.655
  293SOL    HW1  139   1.248   1.644   2.590
  293SOL    HW2  140   1.295   1.570   2.728
  295SOL     OW  141   1.271   1.797   2.453
  295SOL    HW1  142   1.315   1.861   2.389
  295SOL    HW2  143   1.221   1.849   2.523
  301SOL     OW  144   1.429   1.173   2.729
  301SOL    HW1  145   1.374   1.089   2.722
  301SOL    HW2  146   1.455   1.202   2.637
  303SOL     OW  147   1.857   0.833   2.239
  303SOL    HW1  148   1.899   0.769   2.303
  303SOL    HW2  149   1.819   0.782   2.161
  305SOL     OW  150   1.664   1.280   2.519
  305SOL    HW1  151   1.763   1.288   2.533
  305SOL    HW2  152   1.619   1.364   2.550
  308SOL     OW  153   1.754   1.223   3.450
  308SOL    HW1  154   1.845   1.184   3.437
  308SOL    HW2  155   1.762   1.319   3.474
  310SOL     OW  156   1.592   1.629   3.487
  310SOL    HW1  157   1.619   1.663   3.397
  310SOL    HW2  158   1.671   1.591   3.533
  311SOL     OW  159   1.111   1.195   2.962
  311SOL    HW1  160   1.071   1.239   3.043
  311SOL    HW2  161   1.070   1.232   2.879
  312SOL     OW  162   1.638   1.099   2.941
  312SOL    HW1  163   1.643   1.180   3.000
  312SOL    HW2  164   1.552   1.101   2.890
  321SOL     OW  165   1.252   1.348   2.250
  321SOL    HW1  166   1.302   1.425   2.290
  321SOL    HW2  167   1.157   1.350   2.282
  322SOL     OW  168   1.272   1.445   3.004
  322SOL    HW1  169   1.319   1.458   3.091
  322SOL    HW2  170   1.206   1.371   3.013
  340SOL     OW  171   1.859   1.518   3.467
  340SOL    HW1  172   1.873   1.545   3.372
  340SOL    HW2  173   1.942   1.540   3.520
  344SOL     OW  174   1.068   1.333   2.711
  344SOL    HW1  175   1.075   1.249   2.656
  344SOL    HW2  176   1.130   1.402   2.675
  363SOL     OW  177   1.347   1.059   3.096
  363SOL    HW1  178   1.371   0.996   3.022
  363SOL    HW2  179   1.257   1.099   3.078
  365SOL     OW  180   1.759   1.747   3.016
  365SOL    HW1  181   1.820   1.777   2.943
  365SOL    HW2  182   1.721   1.658   2.994
  366SOL     OW  183   1.252   1.731   2.990
  366SOL    HW1  184   1.336   1.736   2.936
  366SOL    HW2  185   1.229   1.635   3.008
  370SOL     OW  186   1.388   1.573   2.339
  370SOL    HW1  187   1.455   1.585   2.265
  370SOL    HW2  188   1.348   1.662   2.362
  372SOL     OW  189   1.280   0.927   2.534
  372SOL    HW1  190   1.340   0.846   2.536
  372SOL    HW2  191   1.320   0.996   2.474
  375SOL     OW  192   1.650   1.720   3.256
  375SOL    HW1  193   1.703   1.730   3.172
  375SOL    HW2  194   1.623   1.810   3.290
  378SOL     OW  195   1.194   1.612   1.893
  378SOL    HW1  196   1.200   1.519   1.930
  378SOL    HW2  197   1.135   1.612   1.813
  381SOL     OW  198   1.504   1.607   1.906
  381SOL    HW1  199   1.412   1.644   1.913
  381SOL    HW2  200   1.542   1.627   1.816
  383SOL     OW  201   1.614   1.292   3.151
  383SOL    HW1  202   1.674   1.295   3.231
  383SOL    HW2  203   1.539   1.356   3.164
  394SOL     OW  204   1.183   1.335   1.981
  394SOL    HW1  205   1.084   1.324   1.983
  394SOL    HW2  206   1.217   1.350   2.074
  396SOL     OW  207   1.493   1.767   2.821
  396SOL    HW1  208   1.526   1.831   2.752
  396SOL    HW2  209   1.559   1.761   2.896
  400SOL     OW  210   1.674   0.883   3.116
  400SOL    HW1  211   1.647   0.794   3.079
  400SOL    HW2  212   1.675   0.951   3.043
  409SOL     OW  213   1.861   1.569   2.713
  409SOL    HW1  214   1.790   1.557   2.643
  409SOL    HW2  215   1.862   1.490   2.773
  415SOL     OW  216   1.705   1.487   2.966
  415SOL    HW1  217   1.612   1.462   2.939
  415SOL    HW2  218   1.731   1.437   3.048
  417SOL     OW  219   0.812   1.586   2.549
  417SOL    HW1  220   0.844   1.596   2.455
  417SOL    HW2  221   0.733   1.524   2.551
  426SOL     OW  222   0.875   1.646   2.199
  426SOL    HW1  223   0.798   1.611   2.145
  426SOL    HW2  224   0.843   1.717   2.261
  537SOL     OW  225   0.850   2.660   1.823
  537SOL    HW1  226   0.846   2.736   1.888
  537SOL    HW2  227   0.872   2.696   1.732
  541SOL     OW  228   1.460   3.367   1.339
  541SOL    HW1  229   1.484   3.461   1.365
  541SOL    HW2  230   1.444   3.313   1.421
  543SOL     OW  231   1.603   2.309   0.737
  543SOL    HW1  232   1.529   2.355   0.687
  543SOL    HW2  233   1.654   2.377   0.790
  545SOL     OW  234   1.127   3.203   1.690
  545SOL    HW1  235   1.174   3.203   1.778
  545SOL    HW2  236   1.079   3.116   1.679
  550SOL     OW  237   1.594   1.976   1.480
  550SOL    HW1  238   1.576   2.043   1.408
  550SOL    HW2  239   1.591   2.022   1.569
  558SOL     OW  240   1.293   3.090   1.423
  558SOL    HW1  241   1.330   3.017   1.365
  558SOL    HW2  242   1.345   3.095   1.508
  567SOL     OW  243   1.281   2.207   0.944
  567SOL    HW1  244   1.195   2.157   0.931
  567SOL    HW2  245   1.343   2.153   1.000
  569SOL     OW  246   0.807   2.467   1.465
  569SOL    HW1  247   0.760   2.464   1.554
  569SOL    HW2  248   0.756   2.412   1.399
  570SOL     OW  249   1.394   2.331   1.674
  570SOL    HW1  250   1.374   2.374   1.762
  570SOL    HW2  251   1.472   2.269   1.683
  571SOL     OW  252   0.973   2.752   1.572
  571SOL    HW1  253   1.019   2.668   1.543
  571SOL    HW2  254   0.917   2.786   1.497
  572SOL     OW  255   0.991   2.272   1.242
  572SOL    HW1  256   0.914   2.306   1.296
  572SOL    HW2  257   0.957   2.221   1.163
  577SOL     OW  258   1.719   2.447   1.831
  577SOL    HW1  259   1.693   2.536   1.795
  577SOL    HW2  260   1.717   2.379   1.758
  582SOL     OW  261   1.795   2.928   0.873
  582SOL    HW1  262   1.733   2.913   0.797
  582SOL    HW2  263   1.743   2.939   0.958
  583SOL     OW  264   1.227   3.412   1.506
  583SOL    HW1  265   1.233   3.335   1.570
  583SOL    HW2  266   1.175   3.386   1.426
  595SOL     OW  267   1.547   2.084   1.729
  595SOL    HW1  268   1.542   2.121   1.821
  595SOL    HW2  269   1.475   2.015   1.717
  596SOL     OW  270   0.781   2.126   1.749
  596SOL    HW1  271   0.848   2.065   1.792
  596SOL    HW2  272   0.708   2.145   1.814
  598SOL     OW  273   1.351   2.452   1.433
  598SOL    HW1  274   1.379   2.409   1.518
  598SOL    HW2  275   1.376   2.548   1.434
  605SOL     OW  276   1.076   2.545   1.464
  605SOL    HW1  277   0.996   2.484   1.467
  605SOL    HW2  278   1.157   2.492   1.440
  615SOL     OW  279   1.466   2.452   0.992
  615SOL    HW1  280   1.436   2.357   0.999
  615SOL    HW2  281   1.539   2.468   1.058
  621SOL     OW  282   1.754   3.085   1.588
  621SOL    HW1  283   1.845   3.046   1.575
  621SOL    HW2  284   1.762   3.181   1.612
  623SOL     OW  285   1.592   3.491   1.625
  623SOL    HW1  286   1.619   3.525   1.535
  623SOL    HW2  287   1.671   3.453   1.671
  625SOL     OW  288   1.638   2.961   1.079
  625SOL    HW1  289   1.643   3.042   1.138
  625SOL    HW2  290   1.552   2.963   1.028
  626SOL     OW  291   0.915   1.951   1.402
  626SOL    HW1  292   0.940   1.931   1.307
  626SOL    HW2  293   0.987   2.007   1.444
  627SOL     OW  294   0.980   2.978   1.719
  627SOL    HW1  295   0.881   2.984   1.729
  627SOL    HW2  296   1.003   2.898   1.663
  630SOL     OW  297   1.274   2.248   1.262
  630SOL    HW1  298   1.295   2.322   1.326
  630SOL    HW2  299   1.185   2.265   1.219
  639SOL     OW  300   1.587   2.641   1.670
  639SOL    HW1  301   1.495   2.679   1.665
  639SOL    HW2  302   1.647   2.688   1.605
  640SOL     OW  303   1.013   1.967   1.770
  640SOL    HW1  304   1.019   2.052   1.718
  640SOL    HW2  305   1.045   1.891   1.713
  643SOL     OW  306   1.360   2.724   1.045
  643SOL    HW1  307   1.285   2.724   0.979
  643SOL    HW2  308   1.397   2.632   1.054
  648SOL     OW  309   1.728   2.797   1.854
  648SOL    HW1  310   1.682   2.790   1.765
  648SOL    HW2  311   1.666   2.841   1.920
  653SOL     OW  312   1.859   3.380   1.605
  653SOL    HW1  313   1.873   3.407   1.510
  653SOL    HW2  314   1.942   3.402   1.658
  660SOL     OW  315   1.138   2.242   1.678
  660SOL    HW1  316   1.093   2.305   1.742
  660SOL    HW2  317   1.231   2.273   1.661
  661SOL     OW  318   1.160   2.069   1.477
  661SOL    HW1  319   1.160   2.133   1.554
  661SOL    HW2  320   1.188   2.117   1.394
  665SOL     OW  321   1.002   2.658   1.238
  665SOL    HW1  322   1.043   2.626   1.324
  665SOL    HW2  323   0.906   2.631   1.235
  668SOL     OW  324   1.369   2.812   1.660
  668SOL    HW1  325   1.408   2.901   1.680
  668SOL    HW2  326   1.379   2.792   1.563
  670SOL     OW  327   1.657   2.466   1.206
  670SOL    HW1  328   1.619   2.397   1.268
  670SOL    HW2  329   1.739   2.430   1.162
  676SOL     OW  330   1.347   2.921   1.234
  676SOL    HW1  331   1.371   2.858   1.160
  676SOL    HW2  332   1.257   2.961   1.216
  689SOL     OW  333   1.650   3.582   1.394
  689SOL    HW1  334   1.703   3.592   1.310
  689SOL    HW2  335   1.623   3.672   1.428
  690SOL     OW  336   1.841   2.037   0.963
  690SOL    HW1  337   1.880   1.952   0.927
  690SOL    HW2  338   1.743   2.039   0.944
  697SOL     OW  339   1.614   3.154   1.289
  697SOL    HW1  340   1.674   3.157   1.369
  697SOL    HW2  341   1.539   3.218   1.302
  701SOL     OW  342   1.709   2.247   1.381
  701SOL    HW1  343   1.782   2.316   1.385
  701SOL    HW2  344   1.737   2.172   1.322
  706SOL     OW  345   1.440   2.718   1.398
  706SOL    HW1  346   1.383   2.770   1.335
  706SOL    HW2  347   1.536   2.730   1.374
  711SOL     OW  348   0.716   2.427   1.708
  711SOL    HW1  349   0.735   2.492   1.782
  711SOL    HW2  350   0.776   2.347   1.717
  712SOL     OW  351   1.450   3.082   1.633
  712SOL    HW1  352   1.441   3.072   1.732
  712SOL    HW2  353   1.546   3.075   1.607
  714SOL     OW  354   1.674   2.745   1.254
  714SOL    HW1  355   1.647   2.656   1.217
  714SOL    HW2  356   1.675   2.813   1.181
  717SOL     OW  357   1.777   2.204   1.642
  717SOL    HW1  358   1.760   2.235   1.548
  717SOL    HW2  359   1.693   2.167   1.680
  718SOL     OW  360   1.730   2.796   1.517
  718SOL    HW1  361   1.768   2.887   1.532
  718SOL    HW2  362   1.722   2.779   1.418
  727SOL     OW  363   1.824   2.054   1.227
  727SOL    HW1  364   1.820   1.964   1.271
  727SOL    HW2  365   1.827   2.043   1.128
  729SOL     OW  366   1.705   3.349   1.104
  729SOL    HW1  367   1.612   3.324   1.077
  729SOL    HW2  368   1.731   3.299   1.186
  732SOL     OW  369   1.424   2.076   1.112
  732SOL    HW1  370   1.476   2.011   1.167
  732SOL    HW2  371   1.375   2.139   1.173
  738SOL     OW  372   1.593   2.083   0.882
  738SOL    HW1  373   1.509   2.082   0.936
  738SOL    HW2  374   1.595   2.166   0.826
  745SOL     OW  375   1.555   3.373   2.565
  745SOL    HW1  376   1.498   3.357   2.646
  745SOL    HW2  377   1.496   3.383   2.485
  746SOL     OW  378   1.135   2.565   2.579
  746SOL    HW1  379   1.192   2.643   2.554
  746SOL    HW2  380   1.075   2.591   2.655
  747SOL     OW  381   1.755   2.469   2.093
  747SOL    HW1  382   1.743   2.456   1.994
  747SOL    HW2  383   1.725   2.388   2.142
  748SOL     OW  384   0.768   3.006   2.885
  748SOL    HW1  385   0.690   3.023   2.945
  748SOL    HW2  386   0.802   3.093   2.849
  750SOL     OW  387   0.685   2.874   2.527
  750SOL    HW1  388   0.754   2.858   2.597
  750SOL    HW2  389   0.612   2.931   2.565
  753SOL     OW  390   1.460   3.367   3.201
  753SOL    HW1  391   1.484   3.461   3.227
  753SOL    HW2  392   1.444   3.313   3.283
  755SOL     OW  393   1.603   2.309   2.599
  755SOL    HW1  394   1.529   2.355   2.549
  755SOL    HW2  395   1.654   2.377   2.652
  762SOL     OW  396   1.594   1.976   3.342
  762SOL    HW1  397   1.576   2.043   3.270
  762SOL    HW2  398   1.591   2.022   3.431
  764SOL     OW  399   1.842   3.629   2.221
  764SOL    HW1  400   1.896   3.600   2.301
  764SOL    HW2  401   1.872   3.719   2.192
  766SOL     OW  402   1.689   2.784   2.474
  766SOL    HW1  403   1.784   2.755   2.482
  766SOL    HW2  404   1.681   2.849   2.399
  767SOL     OW  405   1.641   2.970   2.294
  767SOL    HW1  406   1.727   2.972   2.242
  767SOL    HW2  407   1.655   3.017   2.382
  770SOL     OW  408   1.293   3.090   3.285
  770SOL    HW1  409   1.330   3.017   3.227
  770SOL    HW2  410   1.345   3.095   3.370
  771SOL     OW  411   0.809   1.866   2.364
  771SOL    HW1  412   0.849   1.957   2.355
  771SOL    HW2  413   0.709   1.874   2.370
  773SOL     OW  414   1.525   2.861   2.052
  773SOL    HW1  415   1.462   2.785   2.065
  773SOL    HW2  416   1.573   2.879   2.138
  776SOL     OW  417   1.466   3.279   2.815
  776SOL    HW1  418   1.407   3.285   2.895
  776SOL    HW2  419   1.451   3.191   2.769
  777SOL     OW  420   1.667   3.576   2.434
  777SOL    HW1  421   1.626   3.553   2.346
  777SOL    HW2  422   1.649   3.502   2.499
  778SOL     OW  423   0.598   2.591   2.132
  778SOL    HW1  424   0.622   2.660   2.064
  778SOL    HW2  425   0.520   2.624   2.186
  779SOL     OW  426   1.281   2.207   2.806
  779SOL    HW1  427   1.195   2.157   2.793
  779SOL    HW2  428   1.343   2.153   2.862
  780SOL     OW  429   1.576   3.524   2.169
  780SOL    HW1  430   1.665   3.570   2.172
  780SOL    HW2  431   1.555   3.500   2.074
  782SOL     OW  432   1.394   2.331   3.536
  782SOL    HW1  433   1.374   2.374   3.624
  782SOL    HW2  434   1.472   2.269   3.545
  783SOL     OW  435   0.973   2.752   3.434
  783SOL    HW1  436   1.019   2.668   3.405
  783SOL    HW2  437   0.917   2.786   3.359
  784SOL     OW  438   0.991   2.272   3.104
  784SOL    HW1  439   0.914   2.306   3.158
  784SOL    HW2  440   0.957   2.221   3.025
  785SOL     OW  441   1.041   2.563   2.291
  785SOL    HW1  442   1.067   2.559   2.387
  785SOL    HW2  443   0.956   2.512   2.277
  788SOL     OW  444   0.865   2.210   2.057
  788SOL    HW1  445   0.924   2.273   2.008
  788SOL    HW2  446   0.884   2.116   2.028
  789SOL     OW  447   1.719   2.447   3.693
  789SOL    HW1  448   1.693   2.536   3.657
  789SOL    HW2  449   1.717   2.379   3.620
  790SOL     OW  450   1.362   3.006   2.407
  790SOL    HW1  451   1.445   2.977   2.359
  790SOL    HW2  452   1.313   3.073   2.351
  792SOL     OW  453   1.008   3.318   2.339
  792SOL    HW1  454   0.962   3.390   2.287
  792SOL    HW2  455   1.004   3.338   2.437
  794SOL     OW  456   1.795   2.928   2.735
  794SOL    HW1  457   1.733   2.913   2.659
  794SOL    HW2  458   1.743   2.939   2.820
  797SOL     OW  459   1.458   2.597   2.590
  797SOL    HW1  460   1.453   2.532   2.665
  797SOL    HW2  461   1.538   2.656   2.603
  801SOL     OW  462   1.632   3.239   1.943
  801SOL    HW1  463   1.600   3.333   1.933
  801SOL    HW2  464   1.556   3.176   1.931
  803SOL     OW  465   1.400   1.969   2.288
  803SOL    HW1  466   1.376   1.932   2.198
  803SOL    HW2  467   1.499   1.985   2.292
  807SOL     OW  468   1.547   2.084   3.591
  807SOL    HW1  469   1.542   2.121   3.683
  807SOL    HW2  470   1.475   2.015   3.579
  808SOL     OW  471   0.614   1.984   1.979
  808SOL    HW1  472   0.712   1.962   1.986
  808SOL    HW2  473   0.583   1.967   1.886
  811SOL     OW  474   1.351   2.452   3.295
  811SOL    HW1  475   1.379   2.409   3.380
  811SOL    HW2  476   1.376   2.548   3.296
  813SOL     OW  477   0.922   2.365   2.761
  813SOL    HW1  478   0.897   2.356   2.665
  813SOL    HW2  479   0.970   2.283   2.792
  815SOL     OW  480   1.434   3.050   1.903
  815SOL    HW1  481   1.466   2.974   1.960
  815SOL    HW2  482   1.342   3.077   1.933
  817SOL     OW  483   0.935   2.098   2.342
  817SOL    HW1  484   0.887   2.139   2.264
  817SOL    HW2  485   1.034   2.096   2.323
  818SOL     OW  486   1.076   2.545   3.326
  818SOL    HW1  487   0.996   2.484   3.329
  818SOL    HW2  488   1.157   2.492   3.302
  819SOL     OW  489   1.227   3.432   2.655
  819SOL    HW1  490   1.248   3.506   2.590
  819SOL    HW2  491   1.295   3.432   2.728
  821SOL     OW  492   1.271   3.659   2.453
  821SOL    HW1  493   1.315   3.723   2.389
  821SOL    HW2  494   1.221   3.711   2.523
  822SOL     OW  495   1.032   2.411   1.878
  822SOL    HW1  496   0.991   2.493   1.839
  822SOL    HW2  497   1.096   2.437   1.951
  825SOL     OW  498   0.866   2.316   2.504
  825SOL    HW1  499   0.834   2.388   2.442
  825SOL    HW2  500   0.890   2.235   2.451
  826SOL     OW  501   1.017   1.901   2.615
  826SOL    HW1  502   0.945   1.906   2.546
  826SOL    HW2  503   0.993   1.832   2.684
  827SOL     OW  504   1.429   3.035   2.729
  827SOL    HW1  505   1.374   2.951   2.722
  827SOL    HW2  506   1.455   3.064   2.637
  828SOL     OW  507   1.466   2.452   2.854
  828SOL    HW1  508   1.436   2.357   2.861
  828SOL    HW2  509   1.539   2.468   2.920
  829SOL     OW  510   1.857   2.695   2.239
  829SOL    HW1  511   1.899   2.631   2.303
  829SOL    HW2  512   1.819   2.644   2.161
  831SOL     OW  513   1.664   3.142   2.519
  831SOL    HW1  514   1.763   3.150   2.533
  831SOL    HW2  515   1.619   3.226   2.550
  832SOL     OW  516   1.390   2.437   1.940
  832SOL    HW1  517   1.336   2.416   2.021
  832SOL    HW2  518   1.481   2.396   1.949
  834SOL     OW  519   1.754   3.085   3.450
  834SOL    HW1  520   1.845   3.046   3.437
  834SOL    HW2  521   1.762   3.181   3.474
  835SOL     OW  522   1.064   3.209   3.202
  835SOL    HW1  523   0.984   3.186   3.257
  835SOL    HW2  524   1.147   3.183   3.251
  836SOL     OW  525   1.592   3.491   3.487
  836SOL    HW1  526   1.619   3.525   3.397
  836SOL    HW2  527   1.671   3.453   3.533
  837SOL     OW  528   1.111   3.057   2.962
  837SOL    HW1  529   1.071   3.101   3.043
  837SOL    HW2  530   1.070   3.094   2.879
  838SOL     OW  531   1.638   2.961   2.941
  838SOL    HW1  532   1.643   3.042   3.000
  838SOL    HW2  533   1.552   2.963   2.890
  839SOL     OW  534   0.915   1.951   3.264
  839SOL    HW1  535   0.940   1.931   3.169
  839SOL    HW2  536   0.987   2.007   3.306
  841SOL     OW  537   0.705   2.912   2.230
  841SOL    HW1  538   0.691   2.919   2.329
  841SOL    HW2  539   0.789   2.861   2.212
  843SOL     OW  540   1.274   2.248   3.124
  843SOL    HW1  541   1.295   2.322   3.188
  843SOL    HW2  542   1.185   2.265   3.081
  847SOL     OW  543   1.252   3.210   2.250
  847SOL    HW1  544   1.302   3.287   2.290
  847SOL    HW2  545   1.157   3.212   2.282
  848SOL     OW  546   1.272   3.307   3.004
  848SOL    HW1  547   1.319   3.320   3.091
  848SOL    HW2  548   1.206   3.233   3.013
  849SOL     OW  549   1.582   2.501   2.334
  849SOL    HW1  550   1.551   2.562   2.407
  849SOL    HW2  551   1.632   2.553   2.265
  852SOL     OW  552   1.587   2.641   3.532
  852SOL    HW1  553   1.495   2.679   3.527
  852SOL    HW2  554   1.647   2.688   3.467
  856SOL     OW  555   1.360   2.724   2.907
  856SOL    HW1  556   1.285   2.724   2.841
  856SOL    HW2  557   1.397   2.632   2.916
  857SOL     OW  558   1.209   2.387   2.137
  857SOL    HW1  559   1.222   2.303   2.191
  857SOL    HW2  560   1.180   2.461   2.197
  860SOL     OW  561   0.732   2.496   2.926
  860SOL    HW1  562   0.791   2.470   2.850
  860SOL    HW2  563   0.704   2.592   2.915
  861SOL     OW  564   1.728   2.797   3.716
  861SOL    HW1  565   1.682   2.790   3.627
  861SOL    HW2  566   1.666   2.841   3.782
  863SOL     OW  567   1.622   2.229   2.236
  863SOL    HW1  568   1.624   2.153   2.300
  863SOL    HW2  569   1.574   2.306   2.276
  864SOL     OW  570   1.023   2.628   2.828
  864SOL    HW1  571   1.038   2.649   2.924
  864SOL    HW2  572   0.993   2.533   2.819
  866SOL     OW  573   1.859   3.380   3.467
  866SOL    HW1  574   1.873   3.407   3.372
  866SOL    HW2  575   1.942   3.402   3.520
  868SOL     OW  576   1.540   2.136   1.987
  868SOL    HW1  577   1.479   2.061   2.010
  868SOL    HW2  578   1.562   2.188   2.070
  869SOL     OW  579   1.303   2.700   1.904
  869SOL    HW1  580   1.337   2.607   1.919
  869SOL    HW2  581   1.321   2.727   1.809
  870SOL     OW  582   1.068   3.195   2.711
  870SOL    HW1  583   1.075   3.111   2.656
  870SOL    HW2  584   1.130   3.264   2.675
  873SOL     OW  585   1.138   2.242   3.540
  873SOL    HW1  586   1.093   2.305   3.604
  873SOL    HW2  587   1.231   2.273   3.523
  874SOL     OW  588   1.160   2.069   3.339
  874SOL    HW1  589   1.160   2.133   3.416
  874SOL    HW2  590   1.188   2.117   3.256
  878SOL     OW  591   1.002   2.658   3.100
  878SOL    HW1  592   1.043   2.626   3.186
  878SOL    HW2  593   0.906   2.631   3.097
  881SOL     OW  594   1.369   2.812   3.522
  881SOL    HW1  595   1.408   2.901   3.542
  881SOL    HW2  596   1.379   2.792   3.425
  882SOL     OW  597   0.815   2.434   2.187
  882SOL    HW1  598   0.822   2.345   2.141
  882SOL    HW2  599   0.721   2.468   2.179
  883SOL     OW  600   1.657   2.466   3.068
  883SOL    HW1  601   1.619   2.397   3.130
  883SOL    HW2  602   1.739   2.430   3.024
  889SOL     OW  603   1.347   2.921   3.096
  889SOL    HW1  604   1.371   2.858   3.022
  889SOL    HW2  605   1.257   2.961   3.078
  890SOL     OW  606   1.302   2.717   2.171
  890SOL    HW1  607   1.216   2.686   2.213
  890SOL    HW2  608   1.298   2.703   2.072
  891SOL     OW  609   1.759   3.609   3.016
  891SOL    HW1  610   1.820   3.639   2.943
  891SOL    HW2  611   1.721   3.520   2.994
  892SOL     OW  612   1.252   3.593   2.990
  892SOL    HW1  613   1.336   3.598   2.936
  892SOL    HW2  614   1.229   3.497   3.008
  895SOL     OW  615   1.726   1.997   2.385
  895SOL    HW1  616   1.799   1.980   2.318
  895SOL    HW2  617   1.695   1.910   2.423
  896SOL     OW  618   1.388   3.435   2.339
  896SOL    HW1  619   1.455   3.447   2.265
  896SOL    HW2  620   1.348   3.524   2.362
  898SOL     OW  621   1.280   2.789   2.534
  898SOL    HW1  622   1.340   2.708   2.536
  898SOL    HW2  623   1.320   2.858   2.474
  901SOL     OW  624   1.650   3.582   3.256
  901SOL    HW1  625   1.703   3.592   3.172
  901SOL    HW2  626   1.623   3.672   3.290
  902SOL     OW  627   1.841   2.037   2.825
  902SOL    HW1  628   1.880   1.952   2.789
  902SOL    HW2  629   1.743   2.039   2.806
  904SOL     OW  630   1.194   3.474   1.893
  904SOL    HW1  631   1.200   3.381   1.930
  904SOL    HW2  632   1.135   3.474   1.813
  906SOL     OW  633   0.916   2.772   2.153
  906SOL    HW1  634   0.979   2.810   2.085
  906SOL    HW2  635   0.956   2.689   2.192
  907SOL     OW  636   1.504   3.469   1.906
  907SOL    HW1  637   1.412   3.506   1.913
  907SOL    HW2  638   1.542   3.489   1.816
  909SOL     OW  639   1.614   3.154   3.151
  909SOL    HW1  640   1.674   3.157   3.231
  909SOL    HW2  641   1.539   3.218   3.164
  910SOL     OW  642   1.039   2.960   2.558
  910SOL    HW1  643   0.969   2.913   2.612
  910SOL    HW2  644   1.098   2.892   2.515
  911SOL     OW  645   1.014   2.098   2.833
  911SOL    HW1  646   1.006   2.062   2.740
  911SOL    HW2  647   1.012   2.022   2.898
  913SOL     OW  648   1.709   2.247   3.243
  913SOL    HW1  649   1.782   2.316   3.247
  913SOL    HW2  650   1.737   2.172   3.184
  918SOL     OW  651   1.440   2.718   3.260
  918SOL    HW1  652   1.383   2.770   3.197
  918SOL    HW2  653   1.536   2.730   3.236
  920SOL     OW  654   1.183   3.197   1.981
  920SOL    HW1  655   1.084   3.186   1.983
  920SOL    HW2  656   1.217   3.212   2.074
  922SOL     OW  657   1.493   3.629   2.821
  922SOL    HW1  658   1.526   3.693   2.752
  922SOL    HW2  659   1.559   3.623   2.896
  924SOL     OW  660   1.450   3.082   3.495
  924SOL    HW1  661   1.441   3.072   3.594
  924SOL    HW2  662   1.546   3.075   3.469
  926SOL     OW  663   1.674   2.745   3.116
  926SOL    HW1  664   1.647   2.656   3.079
  926SOL    HW2  665   1.675   2.813   3.043
  927SOL     OW  666   1.225   2.187   2.311
  927SOL    HW1  667   1.290   2.113   2.300
  927SOL    HW2  668   1.245   2.237   2.395
  928SOL     OW  669   0.594   2.607   2.514
  928SOL    HW1  670   0.644   2.692   2.495
  928SOL    HW2  671   0.506   2.609   2.466
  929SOL     OW  672   1.777   2.204   3.504
  929SOL    HW1  673   1.760   2.235   3.410
  929SOL    HW2  674   1.693   2.167   3.542
  930SOL     OW  675   1.730   2.796   3.379
  930SOL    HW1  676   1.768   2.887   3.394
  930SOL    HW2  677   1.722   2.779   3.280
  931SOL     OW  678   0.859   3.236   1.878
  931SOL    HW1  679   0.813   3.251   1.966
  931SOL    HW2  680   0.903   3.321   1.848
  933SOL     OW  681   0.859   2.818   2.723
  933SOL    HW1  682   0.913   2.749   2.771
  933SOL    HW2  683   0.827   2.887   2.789
  934SOL     OW  684   1.083   2.846   1.949
  934SOL    HW1  685   1.060   2.899   1.867
  934SOL    HW2  686   1.164   2.790   1.930
  935SOL     OW  687   1.861   3.431   2.713
  935SOL    HW1  688   1.790   3.419   2.643
  935SOL    HW2  689   1.862   3.352   2.773
  939SOL     OW  690   1.824   2.054   3.089
  939SOL    HW1  691   1.820   1.964   3.133
  939SOL    HW2  692   1.827   2.043   2.990
  941SOL     OW  693   1.705   3.349   2.966
  941SOL    HW1  694   1.612   3.324   2.939
  941SOL    HW2  695   1.731   3.299   3.048
  944SOL     OW  696   1.424   2.076   2.974
  944SOL    HW1  697   1.476   2.011   3.029
  944SOL    HW2  698   1.375   2.139   3.035
  945SOL     OW  699   1.001   1.896   3.016
  945SOL    HW1  700   0.938   1.824   2.985
  945SOL    HW2  701   1.094   1.860   3.016
  946SOL     OW  702   0.770   3.192   2.163
  946SOL    HW1  703   0.724   3.105   2.180
  946SOL    HW2  704   0.861   3.189   2.204
  948SOL     OW  705   1.352   1.914   2.030
  948SOL    HW1  706   1.387   1.873   1.946
  948SOL    HW2  707   1.262   1.876   2.050
  949SOL     OW  708   1.300   2.315   2.553
  949SOL    HW1  709   1.241   2.395   2.557
  949SOL    HW2  710   1.315   2.280   2.646
  950SOL     OW  711   1.593   2.083   2.744
  950SOL    HW1  712   1.509   2.082   2.798
  950SOL    HW2  713   1.595   2.166   2.688
  957SOL     OW  714   1.755   2.469   3.955
  957SOL    HW1  715   1.743   2.456   3.856
  957SOL    HW2  716   1.725   2.388   4.004
 1004SOL     OW  717   1.390   2.437   3.802
 1004SOL    HW1  718   1.336   2.416   3.883
 1004SOL    HW2  719   1.481   2.396   3.811
 1015SOL     OW  720   1.540   2.136   3.849
 1015SOL    HW1  721   1.479   2.061   3.872
 1015SOL    HW2  722   1.562   2.188   3.932
 1016SOL     OW  723   1.303   2.700   3.766
 1016SOL    HW1  724   1.337   2.607   3.781
 1016SOL    HW2  725   1.321   2.727   3.671
 1184SOL     OW  726   1.400   3.831   2.288
 1184SOL    HW1  727   1.376   3.794   2.198
 1184SOL    HW2  728   1.499   3.847   2.292
 1235SOL     OW  729   1.726   3.859   2.385
 1235SOL    HW1  730   1.799   3.842   2.318
 1235SOL    HW2  731   1.695   3.772   2.423
 1237SOL     OW  732   1.841   3.899   2.825
 1237SOL    HW1  733   1.880   3.814   2.789
 1237SOL    HW2  734   1.743   3.901   2.806
 1259SOL     OW  735   1.352   3.776   2.030
 1259SOL    HW1  736   1.387   3.735   1.946
 1259SOL    HW2  737   1.262   3.738   2.050
 1318SOL     OW  738   2.431   1.275   1.165
 1318SOL    HW1  739   2.338   1.268   1.128
 1318SOL    HW2  740   2.442   1.364   1.209
 1323SOL     OW  741   2.712   0.798   1.823
 1323SOL    HW1  742   2.708   0.874   1.888
 1323SOL    HW2  743   2.734   0.834   1.732
 1325SOL     OW  744   2.548   1.161   1.803
 1325SOL    HW1  745   2.608   1.240   1.817
 1325SOL    HW2  746   2.462   1.192   1.762
 1326SOL     OW  747   2.197   1.435   1.061
 1326SOL    HW1  748   2.119   1.404   1.008
 1326SOL    HW2  749   2.255   1.493   1.004
 1327SOL     OW  750   3.322   1.505   1.339
 1327SOL    HW1  751   3.346   1.599   1.365
 1327SOL    HW2  752   3.306   1.451   1.421
 1331SOL     OW  753   2.989   1.341   1.690
 1331SOL    HW1  754   3.036   1.341   1.778
 1331SOL    HW2  755   2.941   1.254   1.679
 1334SOL     OW  756   2.482   1.786   1.439
 1334SOL    HW1  757   2.390   1.769   1.474
 1334SOL    HW2  758   2.510   1.878   1.465
 1344SOL     OW  759   3.155   1.228   1.423
 1344SOL    HW1  760   3.192   1.155   1.365
 1344SOL    HW2  761   3.207   1.233   1.508
 1346SOL     OW  762   2.059   0.976   1.264
 1346SOL    HW1  763   2.148   0.931   1.250
 1346SOL    HW2  764   1.986   0.911   1.245
 1348SOL     OW  765   3.049   1.792   1.616
 1348SOL    HW1  766   3.073   1.852   1.540
 1348SOL    HW2  767   3.056   1.697   1.586
 1357SOL     OW  768   2.835   0.890   1.572
 1357SOL    HW1  769   2.881   0.806   1.543
 1357SOL    HW2  770   2.779   0.924   1.497
 1361SOL     OW  771   1.992   1.821   1.571
 1361SOL    HW1  772   1.982   1.806   1.670
 1361SOL    HW2  773   1.906   1.857   1.535
 1367SOL     OW  774   2.213   1.801   0.853
 1367SOL    HW1  775   2.263   1.715   0.859
 1367SOL    HW2  776   2.278   1.878   0.850
 1369SOL     OW  777   3.089   1.550   1.506
 1369SOL    HW1  778   3.095   1.473   1.570
 1369SOL    HW2  779   3.037   1.524   1.426
 1372SOL     OW  780   2.323   1.266   1.727
 1372SOL    HW1  781   2.273   1.267   1.641
 1372SOL    HW2  782   2.260   1.248   1.803
 1378SOL     OW  783   2.111   1.785   1.241
 1378SOL    HW1  784   2.168   1.720   1.291
 1378SOL    HW2  785   2.095   1.752   1.148
 1379SOL     OW  786   2.802   1.698   0.904
 1379SOL    HW1  787   2.882   1.641   0.925
 1379SOL    HW2  788   2.753   1.658   0.827
 1384SOL     OW  789   2.750   1.514   1.195
 1384SOL    HW1  790   2.727   1.489   1.101
 1384SOL    HW2  791   2.811   1.445   1.234
 1386SOL     OW  792   2.665   1.402   0.924
 1386SOL    HW1  793   2.755   1.416   0.882
 1386SOL    HW2  794   2.594   1.404   0.853
 1409SOL     OW  795   2.926   1.347   1.340
 1409SOL    HW1  796   2.846   1.324   1.395
 1409SOL    HW2  797   3.009   1.321   1.389
 1410SOL     OW  798   3.454   1.629   1.625
 1410SOL    HW1  799   3.481   1.663   1.535
 1410SOL    HW2  800   3.533   1.591   1.671
 1414SOL     OW  801   2.842   1.116   1.719
 1414SOL    HW1  802   2.743   1.122   1.729
 1414SOL    HW2  803   2.865   1.036   1.663
 1418SOL     OW  804   1.926   1.564   1.331
 1418SOL    HW1  805   1.880   1.646   1.297
 1418SOL    HW2  806   2.024   1.583   1.340
 1422SOL     OW  807   3.134   1.445   1.142
 1422SOL    HW1  808   3.181   1.458   1.229
 1422SOL    HW2  809   3.068   1.371   1.151
 1424SOL     OW  810   2.216   1.510   1.329
 1424SOL    HW1  811   2.195   1.466   1.242
 1424SOL    HW2  812   2.313   1.536   1.332
 1425SOL     OW  813   2.264   0.751   1.598
 1425SOL    HW1  814   2.332   0.806   1.551
 1425SOL    HW2  815   2.304   0.663   1.625
 1433SOL     OW  816   1.899   1.310   1.282
 1433SOL    HW1  817   1.952   1.261   1.350
 1433SOL    HW2  818   1.921   1.408   1.287
 1439SOL     OW  819   2.842   1.573   1.700
 1439SOL    HW1  820   2.822   1.617   1.612
 1439SOL    HW2  821   2.881   1.482   1.684
 1440SOL     OW  822   3.721   1.518   1.605
 1440SOL    HW1  823   3.735   1.545   1.510
 1440SOL    HW2  824   3.804   1.540   1.658
 1441SOL     OW  825   2.212   0.898   1.804
 1441SOL    HW1  826   2.288   0.942   1.852
 1441SOL    HW2  827   2.247   0.851   1.722
 1450SOL     OW  828   1.950   1.801   0.927
 1450SOL    HW1  829   1.908   1.715   0.900
 1450SOL    HW2  830   2.044   1.804   0.893
 1451SOL     OW  831   2.366   1.568   0.910
 1451SOL    HW1  832   2.432   1.642   0.919
 1451SOL    HW2  833   2.410   1.489   0.868
 1455SOL     OW  834   3.231   0.950   1.660
 1455SOL    HW1  835   3.270   1.039   1.680
 1455SOL    HW2  836   3.241   0.930   1.563
 1458SOL     OW  837   2.114   1.564   1.744
 1458SOL    HW1  838   2.084   1.621   1.820
 1458SOL    HW2  839   2.107   1.467   1.770
 1460SOL     OW  840   2.792   1.678   1.465
 1460SOL    HW1  841   2.768   1.660   1.370
 1460SOL    HW2  842   2.822   1.772   1.475
 1462SOL     OW  843   2.021   1.137   1.466
 1462SOL    HW1  844   2.043   1.076   1.542
 1462SOL    HW2  845   2.031   1.088   1.380
 1466SOL     OW  846   3.114   1.731   1.128
 1466SOL    HW1  847   3.198   1.736   1.074
 1466SOL    HW2  848   3.091   1.635   1.146
 1467SOL     OW  849   1.945   1.258   1.022
 1467SOL    HW1  850   1.940   1.257   1.122
 1467SOL    HW2  851   1.862   1.217   0.984
 1468SOL     OW  852   2.550   1.662   1.716
 1468SOL    HW1  853   2.494   1.743   1.725
 1468SOL    HW2  854   2.602   1.666   1.630
 1472SOL     OW  855   1.992   1.794   1.851
 1472SOL    HW1  856   1.951   1.720   1.904
 1472SOL    HW2  857   2.056   1.845   1.909
 1474SOL     OW  858   2.692   1.273   1.422
 1474SOL    HW1  859   2.687   1.306   1.517
 1474SOL    HW2  860   2.606   1.292   1.376
 1476SOL     OW  861   3.512   1.720   1.394
 1476SOL    HW1  862   3.565   1.730   1.310
 1476SOL    HW2  863   3.485   1.810   1.428
 1480SOL     OW  864   2.684   1.002   1.372
 1480SOL    HW1  865   2.724   1.001   1.280
 1480SOL    HW2  866   2.694   1.094   1.412
 1483SOL     OW  867   2.234   1.288   1.490
 1483SOL    HW1  868   2.221   1.381   1.456
 1483SOL    HW2  869   2.150   1.236   1.477
 1490SOL     OW  870   1.967   1.013   1.726
 1490SOL    HW1  871   1.890   0.980   1.780
 1490SOL    HW2  872   2.052   0.983   1.768
 1494SOL     OW  873   2.475   0.842   1.431
 1494SOL    HW1  874   2.531   0.923   1.414
 1494SOL    HW2  875   2.534   0.762   1.434
 1497SOL     OW  876   3.312   1.220   1.633
 1497SOL    HW1  877   3.303   1.210   1.732
 1497SOL    HW2  878   3.408   1.213   1.607
 1498SOL     OW  879   2.252   1.741   1.560
 1498SOL    HW1  880   2.161   1.782   1.558
 1498SOL    HW2  881   2.245   1.647   1.592
 1505SOL     OW  882   2.523   1.790   0.953
 1505SOL    HW1  883   2.477   1.878   0.940
 1505SOL    HW2  884   2.622   1.802   0.946
 1509SOL     OW  885   2.083   1.314   1.844
 1509SOL    HW1  886   2.018   1.241   1.823
 1509SOL    HW2  887   2.087   1.328   1.942
 1511SOL     OW  888   2.534   1.391   1.624
 1511SOL    HW1  889   2.456   1.341   1.662
 1511SOL    HW2  890   2.531   1.486   1.655
 1520SOL     OW  891   2.480   1.567   1.284
 1520SOL    HW1  892   2.475   1.649   1.341
 1520SOL    HW2  893   2.569   1.564   1.239
 1526SOL     OW  894   2.092   0.628   1.975
 1526SOL    HW1  895   1.999   0.626   2.012
 1526SOL    HW2  896   2.093   0.589   1.883
 1529SOL     OW  897   2.431   1.275   3.027
 1529SOL    HW1  898   2.338   1.268   2.990
 1529SOL    HW2  899   2.442   1.364   3.071
 1530SOL     OW  900   3.417   1.511   2.565
 1530SOL    HW1  901   3.360   1.495   2.646
 1530SOL    HW2  902   3.358   1.521   2.485
 1531SOL     OW  903   2.997   0.703   2.579
 1531SOL    HW1  904   3.054   0.781   2.554
 1531SOL    HW2  905   2.937   0.729   2.655
 1533SOL     OW  906   2.630   1.144   2.885
 1533SOL    HW1  907   2.552   1.161   2.945
 1533SOL    HW2  908   2.664   1.231   2.849
 1535SOL     OW  909   2.547   1.012   2.527
 1535SOL    HW1  910   2.616   0.996   2.597
 1535SOL    HW2  911   2.474   1.069   2.565
 1536SOL     OW  912   2.548   1.161   3.665
 1536SOL    HW1  913   2.608   1.240   3.679
 1536SOL    HW2  914   2.462   1.192   3.624
 1537SOL     OW  915   2.197   1.435   2.923
 1537SOL    HW1  916   2.119   1.404   2.870
 1537SOL    HW2  917   2.255   1.493   2.866
 1538SOL     OW  918   3.322   1.505   3.201
 1538SOL    HW1  919   3.346   1.599   3.227
 1538SOL    HW2  920   3.306   1.451   3.283
 1541SOL     OW  921   2.093   1.713   2.345
 1541SOL    HW1  922   2.127   1.790   2.399
 1541SOL    HW2  923   2.137   1.713   2.255
 1542SOL     OW  924   2.989   1.341   3.552
 1542SOL    HW1  925   3.036   1.341   3.640
 1542SOL    HW2  926   2.941   1.254   3.541
 1543SOL     OW  927   2.092   1.434   2.400
 1543SOL    HW1  928   2.066   1.530   2.400
 1543SOL    HW2  929   2.021   1.380   2.445
 1544SOL     OW  930   2.102   1.091   2.748
 1544SOL    HW1  931   2.116   1.007   2.800
 1544SOL    HW2  932   2.047   1.155   2.803
 1545SOL     OW  933   2.482   1.786   3.301
 1545SOL    HW1  934   2.390   1.769   3.336
 1545SOL    HW2  935   2.510   1.878   3.327
 1546SOL     OW  936   2.468   0.964   1.985
 1546SOL    HW1  937   2.475   1.048   1.931
 1546SOL    HW2  938   2.514   0.977   2.073
 1548SOL     OW  939   1.984   0.643   2.425
 1548SOL    HW1  940   1.939   0.555   2.442
 1548SOL    HW2  941   1.983   0.697   2.509
 1549SOL     OW  942   3.704   1.767   2.221
 1549SOL    HW1  943   3.758   1.738   2.301
 1549SOL    HW2  944   3.734   1.857   2.192
 1550SOL     OW  945   1.889   1.596   1.979
 1550SOL    HW1  946   1.870   1.500   2.000
 1550SOL    HW2  947   1.856   1.654   2.054
 1552SOL     OW  948   3.503   1.108   2.294
 1552SOL    HW1  949   3.589   1.110   2.242
 1552SOL    HW2  950   3.517   1.155   2.382
 1554SOL     OW  951   2.475   1.365   2.588
 1554SOL    HW1  952   2.426   1.278   2.597
 1554SOL    HW2  953   2.452   1.408   2.501
 1555SOL     OW  954   3.155   1.228   3.285
 1555SOL    HW1  955   3.192   1.155   3.227
 1555SOL    HW2  956   3.207   1.233   3.370
 1557SOL     OW  957   2.059   0.976   3.126
 1557SOL    HW1  958   2.148   0.931   3.112
 1557SOL    HW2  959   1.986   0.911   3.107
 1558SOL     OW  960   3.387   0.999   2.052
 1558SOL    HW1  961   3.324   0.923   2.065
 1558SOL    HW2  962   3.435   1.017   2.138
 1559SOL     OW  963   3.049   1.792   3.478
 1559SOL    HW1  964   3.073   1.852   3.402
 1559SOL    HW2  965   3.056   1.697   3.448
 1561SOL     OW  966   3.328   1.417   2.815
 1561SOL    HW1  967   3.269   1.423   2.895
 1561SOL    HW2  968   3.313   1.329   2.769
 1562SOL     OW  969   3.529   1.714   2.434
 1562SOL    HW1  970   3.488   1.691   2.346
 1562SOL    HW2  971   3.511   1.640   2.499
 1563SOL     OW  972   2.460   0.729   2.132
 1563SOL    HW1  973   2.484   0.798   2.064
 1563SOL    HW2  974   2.382   0.762   2.186
 1565SOL     OW  975   3.438   1.662   2.169
 1565SOL    HW1  976   3.527   1.708   2.172
 1565SOL    HW2  977   3.417   1.638   2.074
 1570SOL     OW  978   2.903   0.701   2.291
 1570SOL    HW1  979   2.929   0.697   2.387
 1570SOL    HW2  980   2.818   0.650   2.277
 1571SOL     OW  981   1.938   0.811   2.651
 1571SOL    HW1  982   2.037   0.799   2.660
 1571SOL    HW2  983   1.914   0.906   2.672
 1572SOL     OW  984   1.992   1.821   3.433
 1572SOL    HW1  985   1.982   1.806   3.532
 1572SOL    HW2  986   1.906   1.857   3.397
 1575SOL     OW  987   3.224   1.144   2.407
 1575SOL    HW1  988   3.307   1.115   2.359
 1575SOL    HW2  989   3.175   1.211   2.351
 1577SOL     OW  990   2.870   1.456   2.339
 1577SOL    HW1  991   2.824   1.528   2.287
 1577SOL    HW2  992   2.866   1.476   2.437
 1578SOL     OW  993   2.213   1.801   2.715
 1578SOL    HW1  994   2.263   1.715   2.721
 1578SOL    HW2  995   2.278   1.878   2.712
 1580SOL     OW  996   3.089   1.550   3.368
 1580SOL    HW1  997   3.095   1.473   3.432
 1580SOL    HW2  998   3.037   1.524   3.288
 1581SOL     OW  999   2.183   0.943   2.104
 1581SOL    HW1 1000   2.265   0.982   2.062
 1581SOL    HW2 1001   2.156   0.861   2.055
 1583SOL     OW 1002   2.323   1.266   3.589
 1583SOL    HW1 1003   2.273   1.267   3.503
 1583SOL    HW2 1004   2.260   1.248   3.665
 1584SOL     OW 1005   2.973   1.776   2.099
 1584SOL    HW1 1006   2.913   1.714   2.149
 1584SOL    HW2 1007   3.004   1.732   2.014
 1586SOL     OW 1008   3.494   1.377   1.943
 1586SOL    HW1 1009   3.462   1.471   1.933
 1586SOL    HW2 1010   3.418   1.314   1.931
 1587SOL     OW 1011   2.326   1.743   2.185
 1587SOL    HW1 1012   2.359   1.782   2.271
 1587SOL    HW2 1013   2.402   1.736   2.120
 1589SOL     OW 1014   2.111   1.785   3.103
 1589SOL    HW1 1015   2.168   1.720   3.153
 1589SOL    HW2 1016   2.095   1.752   3.010
 1590SOL     OW 1017   2.802   1.698   2.766
 1590SOL    HW1 1018   2.882   1.641   2.787
 1590SOL    HW2 1019   2.753   1.658   2.689
 1591SOL     OW 1020   2.244   0.700   2.342
 1591SOL    HW1 1021   2.289   0.610   2.339
 1591SOL    HW2 1022   2.150   0.689   2.375
 1595SOL     OW 1023   2.750   1.514   3.057
 1595SOL    HW1 1024   2.727   1.489   2.963
 1595SOL    HW2 1025   2.811   1.445   3.096
 1597SOL     OW 1026   2.665   1.402   2.786
 1597SOL    HW1 1027   2.755   1.416   2.744
 1597SOL    HW2 1028   2.594   1.404   2.715
 1600SOL     OW 1029   3.296   1.188   1.903
 1600SOL    HW1 1030   3.328   1.112   1.960
 1600SOL    HW2 1031   3.204   1.215   1.933
 1604SOL     OW 1032   3.089   1.570   2.655
 1604SOL    HW1 1033   3.110   1.644   2.590
 1604SOL    HW2 1034   3.157   1.570   2.728
 1605SOL     OW 1035   2.321   1.152   2.603
 1605SOL    HW1 1036   2.250   1.125   2.668
 1605SOL    HW2 1037   2.295   1.124   2.510
 1606SOL     OW 1038   3.133   1.797   2.453
 1606SOL    HW1 1039   3.177   1.861   2.389
 1606SOL    HW2 1040   3.083   1.849   2.523
 1612SOL     OW 1041   3.291   1.173   2.729
 1612SOL    HW1 1042   3.236   1.089   2.722
 1612SOL    HW2 1043   3.317   1.202   2.637
 1615SOL     OW 1044   2.350   1.385   2.036
 1615SOL    HW1 1045   2.263   1.370   2.083
 1615SOL    HW2 1046   2.333   1.411   1.941
 1616SOL     OW 1047   3.526   1.280   2.519
 1616SOL    HW1 1048   3.625   1.288   2.533
 1616SOL    HW2 1049   3.481   1.364   2.550
 1620SOL     OW 1050   2.926   1.347   3.202
 1620SOL    HW1 1051   2.846   1.324   3.257
 1620SOL    HW2 1052   3.009   1.321   3.251
 1621SOL     OW 1053   3.454   1.629   3.487
 1621SOL    HW1 1054   3.481   1.663   3.397
 1621SOL    HW2 1055   3.533   1.591   3.533
 1622SOL     OW 1056   2.973   1.195   2.962
 1622SOL    HW1 1057   2.933   1.239   3.043
 1622SOL    HW2 1058   2.932   1.232   2.879
 1626SOL     OW 1059   2.567   1.050   2.230
 1626SOL    HW1 1060   2.553   1.057   2.329
 1626SOL    HW2 1061   2.651   0.999   2.212
 1627SOL     OW 1062   2.272   0.813   3.113
 1627SOL    HW1 1063   2.358   0.825   3.163
 1627SOL    HW2 1064   2.230   0.726   3.140
 1629SOL     OW 1065   1.926   1.564   3.193
 1629SOL    HW1 1066   1.880   1.646   3.159
 1629SOL    HW2 1067   2.024   1.583   3.202
 1630SOL     OW 1068   2.229   1.100   2.363
 1630SOL    HW1 1069   2.222   1.183   2.307
 1630SOL    HW2 1070   2.233   1.020   2.303
 1632SOL     OW 1071   3.114   1.348   2.250
 1632SOL    HW1 1072   3.164   1.425   2.290
 1632SOL    HW2 1073   3.019   1.350   2.282
 1633SOL     OW 1074   3.134   1.445   3.004
 1633SOL    HW1 1075   3.181   1.458   3.091
 1633SOL    HW2 1076   3.068   1.371   3.013
 1635SOL     OW 1077   2.216   1.510   3.191
 1635SOL    HW1 1078   2.195   1.466   3.104
 1635SOL    HW2 1079   2.313   1.536   3.194
 1640SOL     OW 1080   2.435   0.870   2.891
 1640SOL    HW1 1081   2.479   0.959   2.882
 1640SOL    HW2 1082   2.372   0.870   2.968
 1644SOL     OW 1083   1.899   1.310   3.144
 1644SOL    HW1 1084   1.952   1.261   3.212
 1644SOL    HW2 1085   1.921   1.408   3.149
 1649SOL     OW 1086   2.885   0.766   2.828
 1649SOL    HW1 1087   2.900   0.787   2.924
 1649SOL    HW2 1088   2.855   0.671   2.819
 1650SOL     OW 1089   2.842   1.573   3.562
 1650SOL    HW1 1090   2.822   1.617   3.474
 1650SOL    HW2 1091   2.881   1.482   3.546
 1654SOL     OW 1092   3.165   0.838   1.904
 1654SOL    HW1 1093   3.199   0.745   1.919
 1654SOL    HW2 1094   3.183   0.865   1.809
 1655SOL     OW 1095   2.930   1.333   2.711
 1655SOL    HW1 1096   2.937   1.249   2.656
 1655SOL    HW2 1097   2.992   1.402   2.675
 1656SOL     OW 1098   2.181   0.810   2.811
 1656SOL    HW1 1099   2.274   0.846   2.816
 1656SOL    HW2 1100   2.175   0.725   2.863
 1660SOL     OW 1101   1.870   1.326   2.062
 1660SOL    HW1 1102   1.777   1.347   2.031
 1660SOL    HW2 1103   1.880   1.227   2.075
 1661SOL     OW 1104   1.950   1.801   2.789
 1661SOL    HW1 1105   1.908   1.715   2.762
 1661SOL    HW2 1106   2.044   1.804   2.755
 1662SOL     OW 1107   2.366   1.568   2.772
 1662SOL    HW1 1108   2.432   1.642   2.781
 1662SOL    HW2 1109   2.410   1.489   2.730
 1663SOL     OW 1110   2.864   0.796   3.100
 1663SOL    HW1 1111   2.905   0.764   3.186
 1663SOL    HW2 1112   2.768   0.769   3.097
 1669SOL     OW 1113   2.114   1.564   3.606
 1669SOL    HW1 1114   2.084   1.621   3.682
 1669SOL    HW2 1115   2.107   1.467   3.632
 1671SOL     OW 1116   2.792   1.678   3.327
 1671SOL    HW1 1117   2.768   1.660   3.232
 1671SOL    HW2 1118   2.822   1.772   3.337
 1673SOL     OW 1119   2.021   1.137   3.328
 1673SOL    HW1 1120   2.043   1.076   3.404
 1673SOL    HW2 1121   2.031   1.088   3.242
 1674SOL     OW 1122   3.209   1.059   3.096
 1674SOL    HW1 1123   3.233   0.996   3.022
 1674SOL    HW2 1124   3.119   1.099   3.078
 1675SOL     OW 1125   3.164   0.855   2.171
 1675SOL    HW1 1126   3.078   0.824   2.213
 1675SOL    HW2 1127   3.160   0.841   2.072
 1676SOL     OW 1128   3.621   1.747   3.016
 1676SOL    HW1 1129   3.682   1.777   2.943
 1676SOL    HW2 1130   3.583   1.658   2.994
 1677SOL     OW 1131   3.114   1.731   2.990
 1677SOL    HW1 1132   3.198   1.736   2.936
 1677SOL    HW2 1133   3.091   1.635   3.008
 1678SOL     OW 1134   1.945   1.258   2.884
 1678SOL    HW1 1135   1.940   1.257   2.984
 1678SOL    HW2 1136   1.862   1.217   2.846
 1679SOL     OW 1137   2.550   1.662   3.578
 1679SOL    HW1 1138   2.494   1.743   3.587
 1679SOL    HW2 1139   2.602   1.666   3.492
 1681SOL     OW 1140   3.250   1.573   2.339
 1681SOL    HW1 1141   3.317   1.585   2.265
 1681SOL    HW2 1142   3.210   1.662   2.362
 1682SOL     OW 1143   1.992   1.794   3.713
 1682SOL    HW1 1144   1.951   1.720   3.766
 1682SOL    HW2 1145   2.056   1.845   3.771
 1683SOL     OW 1146   3.142   0.927   2.534
 1683SOL    HW1 1147   3.202   0.846   2.536
 1683SOL    HW2 1148   3.182   0.996   2.474
 1684SOL     OW 1149   2.692   1.273   3.284
 1684SOL    HW1 1150   2.687   1.306   3.379
 1684SOL    HW2 1151   2.606   1.292   3.238
 1685SOL     OW 1152   2.534   1.616   2.016
 1685SOL    HW1 1153   2.543   1.626   1.917
 1685SOL    HW2 1154   2.494   1.527   2.037
 1686SOL     OW 1155   3.512   1.720   3.256
 1686SOL    HW1 1156   3.565   1.730   3.172
 1686SOL    HW2 1157   3.485   1.810   3.290
 1689SOL     OW 1158   3.056   1.612   1.893
 1689SOL    HW1 1159   3.062   1.519   1.930
 1689SOL    HW2 1160   2.997   1.612   1.813
 1690SOL     OW 1161   2.684   1.002   3.234
 1690SOL    HW1 1162   2.724   1.001   3.142
 1690SOL    HW2 1163   2.694   1.094   3.274
 1691SOL     OW 1164   2.778   0.910   2.153
 1691SOL    HW1 1165   2.841   0.948   2.085
 1691SOL    HW2 1166   2.818   0.827   2.192
 1692SOL     OW 1167   3.366   1.607   1.906
 1692SOL    HW1 1168   3.274   1.644   1.913
 1692SOL    HW2 1169   3.404   1.627   1.816
 1693SOL     OW 1170   2.234   1.288   3.352
 1693SOL    HW1 1171   2.221   1.381   3.318
 1693SOL    HW2 1172   2.150   1.236   3.339
 1694SOL     OW 1173   3.476   1.292   3.151
 1694SOL    HW1 1174   3.536   1.295   3.231
 1694SOL    HW2 1175   3.401   1.356   3.164
 1695SOL     OW 1176   2.901   1.098   2.558
 1695SOL    HW1 1177   2.831   1.051   2.612
 1695SOL    HW2 1178   2.960   1.030   2.515
 1697SOL     OW 1179   2.452   1.487   2.353
 1697SOL    HW1 1180   2.494   1.429   2.283
 1697SOL    HW2 1181   2.408   1.566   2.309
 1699SOL     OW 1182   2.117   1.348   2.152
 1699SOL    HW1 1183   2.021   1.349   2.125
 1699SOL    HW2 1184   2.129   1.401   2.236
 1705SOL     OW 1185   3.045   1.335   1.981
 1705SOL    HW1 1186   2.946   1.324   1.983
 1705SOL    HW2 1187   3.079   1.350   2.074
 1706SOL     OW 1188   2.475   0.842   3.293
 1706SOL    HW1 1189   2.531   0.923   3.276
 1706SOL    HW2 1190   2.534   0.762   3.296
 1707SOL     OW 1191   3.355   1.767   2.821
 1707SOL    HW1 1192   3.388   1.831   2.752
 1707SOL    HW2 1193   3.421   1.761   2.896
 1710SOL     OW 1194   2.252   1.741   3.422
 1710SOL    HW1 1195   2.161   1.782   3.420
 1710SOL    HW2 1196   2.245   1.647   3.454
 1713SOL     OW 1197   2.456   0.745   2.514
 1713SOL    HW1 1198   2.506   0.830   2.495
 1713SOL    HW2 1199   2.368   0.747   2.466
 1716SOL     OW 1200   2.721   1.374   1.878
 1716SOL    HW1 1201   2.675   1.389   1.966
 1716SOL    HW2 1202   2.765   1.459   1.848
 1717SOL     OW 1203   2.523   1.790   2.815
 1717SOL    HW1 1204   2.477   1.878   2.802
 1717SOL    HW2 1205   2.622   1.802   2.808
 1718SOL     OW 1206   2.721   0.956   2.723
 1718SOL    HW1 1207   2.775   0.887   2.771
 1718SOL    HW2 1208   2.689   1.025   2.789
 1719SOL     OW 1209   2.945   0.984   1.949
 1719SOL    HW1 1210   2.922   1.037   1.867
 1719SOL    HW2 1211   3.026   0.928   1.930
 1720SOL     OW 1212   3.723   1.569   2.713
 1720SOL    HW1 1213   3.652   1.557   2.643
 1720SOL    HW2 1214   3.724   1.490   2.773
 1721SOL     OW 1215   2.083   1.314   3.706
 1721SOL    HW1 1216   2.018   1.241   3.685
 1721SOL    HW2 1217   2.087   1.328   3.804
 1722SOL     OW 1218   1.941   1.240   2.515
 1722SOL    HW1 1219   1.940   1.193   2.603
 1722SOL    HW2 1220   2.023   1.212   2.464
 1723SOL     OW 1221   2.534   1.391   3.486
 1723SOL    HW1 1222   2.456   1.341   3.524
 1723SOL    HW2 1223   2.531   1.486   3.517
 1726SOL     OW 1224   3.567   1.487   2.966
 1726SOL    HW1 1225   3.474   1.462   2.939
 1726SOL    HW2 1226   3.593   1.437   3.048
 1728SOL     OW 1227   2.674   1.586   2.549
 1728SOL    HW1 1228   2.706   1.596   2.455
 1728SOL    HW2 1229   2.595   1.524   2.551
 1731SOL     OW 1230   2.632   1.330   2.163
 1731SOL    HW1 1231   2.586   1.243   2.180
 1731SOL    HW2 1232   2.723   1.327   2.204
 1732SOL     OW 1233   2.480   1.567   3.146
 1732SOL    HW1 1234   2.475   1.649   3.203
 1732SOL    HW2 1235   2.569   1.564   3.101
 1736SOL     OW 1236   1.901   1.077   2.162
 1736SOL    HW1 1237   2.000   1.066   2.153
 1736SOL    HW2 1238   1.861   0.991   2.194
 1737SOL     OW 1239   2.737   1.646   2.199
 1737SOL    HW1 1240   2.660   1.611   2.145
 1737SOL    HW2 1241   2.705   1.717   2.261
 1752SOL     OW 1242   1.889   1.596   3.841
 1752SOL    HW1 1243   1.870   1.500   3.862
 1752SOL    HW2 1244   1.856   1.654   3.916
 1812SOL     OW 1245   2.534   1.616   3.878
 1812SOL    HW1 1246   2.543   1.626   3.779
 1812SOL    HW2 1247   2.494   1.527   3.899
 1815SOL     OW 1248   3.056   1.612   3.755
 1815SOL    HW1 1249   3.062   1.519   3.792
 1815SOL    HW2 1250   2.997   1.612   3.675
 1826SOL     OW 1251   2.721   1.374   3.740
 1826SOL    HW1 1252   2.675   1.389   3.828
 1826SOL    HW2 1253   2.765   1.459   3.710
 1842SOL     OW 1254   2.087   2.137   0.996
 1842SOL    HW1 1255   2.122   2.120   1.088
 1842SOL    HW2 1256   1.999   2.092   0.984
 1843SOL     OW 1257   1.881   2.230   0.647
 1843SOL    HW1 1258   1.799   2.273   0.686
 1843SOL    HW2 1259   1.853   2.157   0.584
 1844SOL     OW 1260   2.431   3.137   1.165
 1844SOL    HW1 1261   2.338   3.130   1.128
 1844SOL    HW2 1262   2.442   3.226   1.209
 1846SOL     OW 1263   2.997   2.565   0.717
 1846SOL    HW1 1264   3.054   2.643   0.692
 1846SOL    HW2 1265   2.937   2.591   0.793
 1848SOL     OW 1266   2.630   3.006   1.023
 1848SOL    HW1 1267   2.552   3.023   1.083
 1848SOL    HW2 1268   2.664   3.093   0.987
 1849SOL     OW 1269   2.712   2.660   1.823
 1849SOL    HW1 1270   2.708   2.736   1.888
 1849SOL    HW2 1271   2.734   2.696   1.732
 1850SOL     OW 1272   2.547   2.874   0.665
 1850SOL    HW1 1273   2.616   2.858   0.735
 1850SOL    HW2 1274   2.474   2.931   0.703
 1851SOL     OW 1275   2.548   3.023   1.803
 1851SOL    HW1 1276   2.608   3.102   1.817
 1851SOL    HW2 1277   2.462   3.054   1.762
 1852SOL     OW 1278   2.197   3.297   1.061
 1852SOL    HW1 1279   2.119   3.266   1.008
 1852SOL    HW2 1280   2.255   3.355   1.004
 1853SOL     OW 1281   3.322   3.367   1.339
 1853SOL    HW1 1282   3.346   3.461   1.365
 1853SOL    HW2 1283   3.306   3.313   1.421
 1854SOL     OW 1284   2.300   2.254   1.499
 1854SOL    HW1 1285   2.382   2.198   1.508
 1854SOL    HW2 1286   2.219   2.196   1.503
 1857SOL     OW 1287   2.989   3.203   1.690
 1857SOL    HW1 1288   3.036   3.203   1.778
 1857SOL    HW2 1289   2.941   3.116   1.679
 1859SOL     OW 1290   2.102   2.953   0.886
 1859SOL    HW1 1291   2.116   2.869   0.938
 1859SOL    HW2 1292   2.047   3.017   0.941
 1860SOL     OW 1293   2.482   3.648   1.439
 1860SOL    HW1 1294   2.390   3.631   1.474
 1860SOL    HW2 1295   2.510   3.740   1.465
 1862SOL     OW 1296   3.456   1.976   1.480
 1862SOL    HW1 1297   3.438   2.043   1.408
 1862SOL    HW2 1298   3.453   2.022   1.569
 1868SOL     OW 1299   1.975   2.599   1.597
 1868SOL    HW1 1300   2.063   2.586   1.642
 1868SOL    HW2 1301   1.962   2.696   1.575
 1870SOL     OW 1302   3.155   3.090   1.423
 1870SOL    HW1 1303   3.192   3.017   1.365
 1870SOL    HW2 1304   3.207   3.095   1.508
 1872SOL     OW 1305   2.059   2.838   1.264
 1872SOL    HW1 1306   2.148   2.793   1.250
 1872SOL    HW2 1307   1.986   2.773   1.245
 1874SOL     OW 1308   3.049   3.654   1.616
 1874SOL    HW1 1309   3.073   3.714   1.540
 1874SOL    HW2 1310   3.056   3.559   1.586
 1875SOL     OW 1311   2.179   2.113   1.801
 1875SOL    HW1 1312   2.250   2.184   1.807
 1875SOL    HW2 1313   2.091   2.152   1.829
 1879SOL     OW 1314   3.143   2.207   0.944
 1879SOL    HW1 1315   3.057   2.157   0.931
 1879SOL    HW2 1316   3.205   2.153   1.000
 1881SOL     OW 1317   2.669   2.467   1.465
 1881SOL    HW1 1318   2.622   2.464   1.554
 1881SOL    HW2 1319   2.618   2.412   1.399
 1882SOL     OW 1320   3.256   2.331   1.674
 1882SOL    HW1 1321   3.236   2.374   1.762
 1882SOL    HW2 1322   3.334   2.269   1.683
 1883SOL     OW 1323   2.835   2.752   1.572
 1883SOL    HW1 1324   2.881   2.668   1.543
 1883SOL    HW2 1325   2.779   2.786   1.497
 1884SOL     OW 1326   2.853   2.272   1.242
 1884SOL    HW1 1327   2.776   2.306   1.296
 1884SOL    HW2 1328   2.819   2.221   1.163
 1886SOL     OW 1329   1.938   2.673   0.789
 1886SOL    HW1 1330   2.037   2.661   0.798
 1886SOL    HW2 1331   1.914   2.768   0.810
 1887SOL     OW 1332   1.992   3.683   1.571
 1887SOL    HW1 1333   1.982   3.668   1.670
 1887SOL    HW2 1334   1.906   3.719   1.535
 1889SOL     OW 1335   3.581   2.447   1.831
 1889SOL    HW1 1336   3.555   2.536   1.795
 1889SOL    HW2 1337   3.579   2.379   1.758
 1891SOL     OW 1338   2.412   2.058   0.885
 1891SOL    HW1 1339   2.407   2.053   0.985
 1891SOL    HW2 1340   2.414   2.154   0.856
 1895SOL     OW 1341   3.089   3.412   1.506
 1895SOL    HW1 1342   3.095   3.335   1.570
 1895SOL    HW2 1343   3.037   3.386   1.426
 1898SOL     OW 1344   2.323   3.128   1.727
 1898SOL    HW1 1345   2.273   3.129   1.641
 1898SOL    HW2 1346   2.260   3.110   1.803
 1900SOL     OW 1347   2.064   2.147   1.498
 1900SOL    HW1 1348   1.984   2.207   1.485
 1900SOL    HW2 1349   2.054   2.098   1.584
 1904SOL     OW 1350   2.111   3.647   1.241
 1904SOL    HW1 1351   2.168   3.582   1.291
 1904SOL    HW2 1352   2.095   3.614   1.148
 1907SOL     OW 1353   3.409   2.084   1.729
 1907SOL    HW1 1354   3.404   2.121   1.821
 1907SOL    HW2 1355   3.337   2.015   1.717
 1908SOL     OW 1356   2.643   2.126   1.749
 1908SOL    HW1 1357   2.710   2.065   1.792
 1908SOL    HW2 1358   2.570   2.145   1.814
 1909SOL     OW 1359   2.750   3.376   1.195
 1909SOL    HW1 1360   2.727   3.351   1.101
 1909SOL    HW2 1361   2.811   3.307   1.234
 1910SOL     OW 1362   3.213   2.452   1.433
 1910SOL    HW1 1363   3.241   2.409   1.518
 1910SOL    HW2 1364   3.238   2.548   1.434
 1911SOL     OW 1365   2.665   3.264   0.924
 1911SOL    HW1 1366   2.755   3.278   0.882
 1911SOL    HW2 1367   2.594   3.266   0.853
 1912SOL     OW 1368   2.784   2.365   0.899
 1912SOL    HW1 1369   2.759   2.356   0.803
 1912SOL    HW2 1370   2.832   2.283   0.930
 1917SOL     OW 1371   2.938   2.545   1.464
 1917SOL    HW1 1372   2.858   2.484   1.467
 1917SOL    HW2 1373   3.019   2.492   1.440
 1919SOL     OW 1374   2.321   3.014   0.741
 1919SOL    HW1 1375   2.250   2.987   0.806
 1919SOL    HW2 1376   2.295   2.986   0.648
 1922SOL     OW 1377   1.940   2.418   1.386
 1922SOL    HW1 1378   2.032   2.417   1.345
 1922SOL    HW2 1379   1.934   2.492   1.453
 1923SOL     OW 1380   2.423   2.084   1.147
 1923SOL    HW1 1381   2.461   2.000   1.184
 1923SOL    HW2 1382   2.335   2.103   1.191
 1924SOL     OW 1383   2.728   2.316   0.642
 1924SOL    HW1 1384   2.696   2.388   0.580
 1924SOL    HW2 1385   2.752   2.235   0.589
 1925SOL     OW 1386   2.879   1.901   0.753
 1925SOL    HW1 1387   2.807   1.906   0.684
 1925SOL    HW2 1388   2.855   1.832   0.822
 1927SOL     OW 1389   3.328   2.452   0.992
 1927SOL    HW1 1390   3.298   2.357   0.999
 1927SOL    HW2 1391   3.401   2.468   1.058
 1933SOL     OW 1392   3.616   3.085   1.588
 1933SOL    HW1 1393   3.707   3.046   1.575
 1933SOL    HW2 1394   3.624   3.181   1.612
 1934SOL     OW 1395   2.926   3.209   1.340
 1934SOL    HW1 1396   2.846   3.186   1.395
 1934SOL    HW2 1397   3.009   3.183   1.389
 1935SOL     OW 1398   3.454   3.491   1.625
 1935SOL    HW1 1399   3.481   3.525   1.535
 1935SOL    HW2 1400   3.533   3.453   1.671
 1936SOL     OW 1401   2.973   3.057   1.100
 1936SOL    HW1 1402   2.933   3.101   1.181
 1936SOL    HW2 1403   2.932   3.094   1.017
 1938SOL     OW 1404   2.777   1.951   1.402
 1938SOL    HW1 1405   2.802   1.931   1.307
 1938SOL    HW2 1406   2.849   2.007   1.444
 1939SOL     OW 1407   2.842   2.978   1.719
 1939SOL    HW1 1408   2.743   2.984   1.729
 1939SOL    HW2 1409   2.865   2.898   1.663
 1941SOL     OW 1410   2.272   2.675   1.251
 1941SOL    HW1 1411   2.358   2.687   1.301
 1941SOL    HW2 1412   2.230   2.588   1.278
 1942SOL     OW 1413   3.136   2.248   1.262
 1942SOL    HW1 1414   3.157   2.322   1.326
 1942SOL    HW2 1415   3.047   2.265   1.219
 1943SOL     OW 1416   1.926   3.426   1.331
 1943SOL    HW1 1417   1.880   3.508   1.297
 1943SOL    HW2 1418   2.024   3.445   1.340
 1945SOL     OW 1419   2.428   2.399   0.865
 1945SOL    HW1 1420   2.440   2.465   0.791
 1945SOL    HW2 1421   2.474   2.433   0.948
 1947SOL     OW 1422   3.134   3.307   1.142
 1947SOL    HW1 1423   3.181   3.320   1.229
 1947SOL    HW2 1424   3.068   3.233   1.151
 1949SOL     OW 1425   2.216   3.372   1.329
 1949SOL    HW1 1426   2.195   3.328   1.242
 1949SOL    HW2 1427   2.313   3.398   1.332
 1950SOL     OW 1428   2.264   2.613   1.598
 1950SOL    HW1 1429   2.332   2.668   1.551
 1950SOL    HW2 1430   2.304   2.525   1.625
 1951SOL     OW 1431   3.449   2.641   1.670
 1951SOL    HW1 1432   3.357   2.679   1.665
 1951SOL    HW2 1433   3.509   2.688   1.605
 1952SOL     OW 1434   2.875   1.967   1.770
 1952SOL    HW1 1435   2.881   2.052   1.718
 1952SOL    HW2 1436   2.907   1.891   1.713
 1953SOL     OW 1437   2.366   1.912   1.740
 1953SOL    HW1 1438   2.324   1.855   1.670
 1953SOL    HW2 1439   2.300   1.981   1.772
 1954SOL     OW 1440   2.435   2.732   1.029
 1954SOL    HW1 1441   2.479   2.821   1.020
 1954SOL    HW2 1442   2.372   2.732   1.106
 1955SOL     OW 1443   3.222   2.724   1.045
 1955SOL    HW1 1444   3.147   2.724   0.979
 1955SOL    HW2 1445   3.259   2.632   1.054
 1957SOL     OW 1446   2.169   2.075   1.231
 1957SOL    HW1 1447   2.146   2.112   1.321
 1957SOL    HW2 1448   2.139   1.980   1.225
 1958SOL     OW 1449   1.899   3.172   1.282
 1958SOL    HW1 1450   1.952   3.123   1.350
 1958SOL    HW2 1451   1.921   3.270   1.287
 1959SOL     OW 1452   2.594   2.496   1.064
 1959SOL    HW1 1453   2.653   2.470   0.988
 1959SOL    HW2 1454   2.566   2.592   1.053
 1960SOL     OW 1455   3.590   2.797   1.854
 1960SOL    HW1 1456   3.544   2.790   1.765
 1960SOL    HW2 1457   3.528   2.841   1.920
 1961SOL     OW 1458   2.169   1.925   0.618
 1961SOL    HW1 1459   2.158   2.019   0.651
 1961SOL    HW2 1460   2.164   1.862   0.695
 1963SOL     OW 1461   2.885   2.628   0.966
 1963SOL    HW1 1462   2.900   2.649   1.062
 1963SOL    HW2 1463   2.855   2.533   0.957
 1964SOL     OW 1464   2.842   3.435   1.700
 1964SOL    HW1 1465   2.822   3.479   1.612
 1964SOL    HW2 1466   2.881   3.344   1.684
 1966SOL     OW 1467   2.212   2.760   1.804
 1966SOL    HW1 1468   2.288   2.804   1.852
 1966SOL    HW2 1469   2.247   2.713   1.722
 1970SOL     OW 1470   2.181   2.672   0.949
 1970SOL    HW1 1471   2.274   2.708   0.954
 1970SOL    HW2 1472   2.175   2.587   1.001
 1971SOL     OW 1473   2.201   2.371   1.006
 1971SOL    HW1 1474   2.149   2.288   0.989
 1971SOL    HW2 1475   2.278   2.376   0.942
 1972SOL     OW 1476   3.000   2.242   1.678
 1972SOL    HW1 1477   2.955   2.305   1.742
 1972SOL    HW2 1478   3.093   2.273   1.661
 1973SOL     OW 1479   3.022   2.069   1.477
 1973SOL    HW1 1480   3.022   2.133   1.554
 1973SOL    HW2 1481   3.050   2.117   1.394
 1976SOL     OW 1482   2.366   3.430   0.910
 1976SOL    HW1 1483   2.432   3.504   0.919
 1976SOL    HW2 1484   2.410   3.351   0.868
 1977SOL     OW 1485   2.864   2.658   1.238
 1977SOL    HW1 1486   2.905   2.626   1.324
 1977SOL    HW2 1487   2.768   2.631   1.235
 1978SOL     OW 1488   1.902   2.406   1.114
 1978SOL    HW1 1489   1.987   2.373   1.073
 1978SOL    HW2 1490   1.915   2.421   1.212
 1979SOL     OW 1491   2.051   2.382   1.722
 1979SOL    HW1 1492   2.110   2.342   1.652
 1979SOL    HW2 1493   1.993   2.453   1.681
 1980SOL     OW 1494   3.231   2.812   1.660
 1980SOL    HW1 1495   3.270   2.901   1.680
 1980SOL    HW2 1496   3.241   2.792   1.563
 1982SOL     OW 1497   3.519   2.466   1.206
 1982SOL    HW1 1498   3.481   2.397   1.268
 1982SOL    HW2 1499   3.601   2.430   1.162
 1983SOL     OW 1500   2.114   3.426   1.744
 1983SOL    HW1 1501   2.084   3.483   1.820
 1983SOL    HW2 1502   2.107   3.329   1.770
 1984SOL     OW 1503   2.533   2.326   1.269
 1984SOL    HW1 1504   2.499   2.237   1.239
 1984SOL    HW2 1505   2.559   2.380   1.189
 1985SOL     OW 1506   2.792   3.540   1.465
 1985SOL    HW1 1507   2.768   3.522   1.370
 1985SOL    HW2 1508   2.822   3.634   1.475
 1987SOL     OW 1509   2.021   2.999   1.466
 1987SOL    HW1 1510   2.043   2.938   1.542
 1987SOL    HW2 1511   2.031   2.950   1.380
 1988SOL     OW 1512   3.209   2.921   1.234
 1988SOL    HW1 1513   3.233   2.858   1.160
 1988SOL    HW2 1514   3.119   2.961   1.216
 1992SOL     OW 1515   1.945   3.120   1.022
 1992SOL    HW1 1516   1.940   3.119   1.122
 1992SOL    HW2 1517   1.862   3.079   0.984
 1993SOL     OW 1518   2.550   3.524   1.716
 1993SOL    HW1 1519   2.494   3.605   1.725
 1993SOL    HW2 1520   2.602   3.528   1.630
 1997SOL     OW 1521   1.992   3.656   1.851
 1997SOL    HW1 1522   1.951   3.582   1.904
 1997SOL    HW2 1523   2.056   3.707   1.909
 1999SOL     OW 1524   2.692   3.135   1.422
 1999SOL    HW1 1525   2.687   3.168   1.517
 1999SOL    HW2 1526   2.606   3.154   1.376
 2003SOL     OW 1527   2.125   2.188   0.720
 2003SOL    HW1 1528   2.046   2.239   0.686
 2003SOL    HW2 1529   2.116   2.173   0.818
 2005SOL     OW 1530   2.684   2.864   1.372
 2005SOL    HW1 1531   2.724   2.863   1.280
 2005SOL    HW2 1532   2.694   2.956   1.412
 2008SOL     OW 1533   2.234   3.150   1.490
 2008SOL    HW1 1534   2.221   3.243   1.456
 2008SOL    HW2 1535   2.150   3.098   1.477
 2009SOL     OW 1536   3.476   3.154   1.289
 2009SOL    HW1 1537   3.536   3.157   1.369
 2009SOL    HW2 1538   3.401   3.218   1.302
 2011SOL     OW 1539   2.876   2.098   0.971
 2011SOL    HW1 1540   2.868   2.062   0.878
 2011SOL    HW2 1541   2.874   2.022   1.036
 2013SOL     OW 1542   3.571   2.247   1.381
 2013SOL    HW1 1543   3.644   2.316   1.385
 2013SOL    HW2 1544   3.599   2.172   1.322
 2015SOL     OW 1545   1.967   2.875   1.726
 2015SOL    HW1 1546   1.890   2.842   1.780
 2015SOL    HW2 1547   2.052   2.845   1.768
 2016SOL     OW 1548   2.534   2.065   1.489
 2016SOL    HW1 1549   2.624   2.049   1.449
 2016SOL    HW2 1550   2.542   2.070   1.588
 2017SOL     OW 1551   3.302   2.718   1.398
 2017SOL    HW1 1552   3.245   2.770   1.335
 2017SOL    HW2 1553   3.398   2.730   1.374
 2020SOL     OW 1554   2.475   2.704   1.431
 2020SOL    HW1 1555   2.531   2.785   1.414
 2020SOL    HW2 1556   2.534   2.624   1.434
 2022SOL     OW 1557   2.578   2.427   1.708
 2022SOL    HW1 1558   2.597   2.492   1.782
 2022SOL    HW2 1559   2.638   2.347   1.717
 2023SOL     OW 1560   3.312   3.082   1.633
 2023SOL    HW1 1561   3.303   3.072   1.732
 2023SOL    HW2 1562   3.408   3.075   1.607
 2024SOL     OW 1563   2.252   3.603   1.560
 2024SOL    HW1 1564   2.161   3.644   1.558
 2024SOL    HW2 1565   2.245   3.509   1.592
 2025SOL     OW 1566   3.536   2.745   1.254
 2025SOL    HW1 1567   3.509   2.656   1.217
 2025SOL    HW2 1568   3.537   2.813   1.181
 2027SOL     OW 1569   2.456   2.607   0.652
 2027SOL    HW1 1570   2.506   2.692   0.633
 2027SOL    HW2 1571   2.368   2.609   0.604
 2028SOL     OW 1572   3.639   2.204   1.642
 2028SOL    HW1 1573   3.622   2.235   1.548
 2028SOL    HW2 1574   3.555   2.167   1.680
 2029SOL     OW 1575   3.592   2.796   1.517
 2029SOL    HW1 1576   3.630   2.887   1.532
 2029SOL    HW2 1577   3.584   2.779   1.418
 2032SOL     OW 1578   2.721   2.818   0.861
 2032SOL    HW1 1579   2.775   2.749   0.909
 2032SOL    HW2 1580   2.689   2.887   0.927
 2035SOL     OW 1581   2.083   3.176   1.844
 2035SOL    HW1 1582   2.018   3.103   1.823
 2035SOL    HW2 1583   2.087   3.190   1.942
 2037SOL     OW 1584   2.534   3.253   1.624
 2037SOL    HW1 1585   2.456   3.203   1.662
 2037SOL    HW2 1586   2.531   3.348   1.655
 2038SOL     OW 1587   3.686   2.054   1.227
 2038SOL    HW1 1588   3.682   1.964   1.271
 2038SOL    HW2 1589   3.689   2.043   1.128
 2041SOL     OW 1590   2.179   2.409   1.280
 2041SOL    HW1 1591   2.217   2.350   1.352
 2041SOL    HW2 1592   2.219   2.383   1.192
 2043SOL     OW 1593   3.286   2.076   1.112
 2043SOL    HW1 1594   3.338   2.011   1.167
 2043SOL    HW2 1595   3.237   2.139   1.173
 2044SOL     OW 1596   2.863   1.896   1.154
 2044SOL    HW1 1597   2.800   1.824   1.123
 2044SOL    HW2 1598   2.956   1.860   1.154
 2046SOL     OW 1599   2.480   3.429   1.284
 2046SOL    HW1 1600   2.475   3.511   1.341
 2046SOL    HW2 1601   2.569   3.426   1.239
 2052SOL     OW 1602   2.092   2.490   1.975
 2052SOL    HW1 1603   1.999   2.488   2.012
 2052SOL    HW2 1604   2.093   2.451   1.883
 2053SOL     OW 1605   2.087   2.137   2.858
 2053SOL    HW1 1606   2.122   2.120   2.950
 2053SOL    HW2 1607   1.999   2.092   2.846
 2054SOL     OW 1608   1.881   2.230   2.509
 2054SOL    HW1 1609   1.799   2.273   2.548
 2054SOL    HW2 1610   1.853   2.157   2.446
 2055SOL     OW 1611   2.431   3.137   3.027
 2055SOL    HW1 1612   2.338   3.130   2.990
 2055SOL    HW2 1613   2.442   3.226   3.071
 2056SOL     OW 1614   3.417   3.373   2.565
 2056SOL    HW1 1615   3.360   3.357   2.646
 2056SOL    HW2 1616   3.358   3.383   2.485
 2057SOL     OW 1617   2.997   2.565   2.579
 2057SOL    HW1 1618   3.054   2.643   2.554
 2057SOL    HW2 1619   2.937   2.591   2.655
 2058SOL     OW 1620   3.617   2.469   2.093
 2058SOL    HW1 1621   3.605   2.456   1.994
 2058SOL    HW2 1622   3.587   2.388   2.142
 2059SOL     OW 1623   2.630   3.006   2.885
 2059SOL    HW1 1624   2.552   3.023   2.945
 2059SOL    HW2 1625   2.664   3.093   2.849
 2060SOL     OW 1626   2.712   2.660   3.685
 2060SOL    HW1 1627   2.708   2.736   3.750
 2060SOL    HW2 1628   2.734   2.696   3.594
 2061SOL     OW 1629   2.547   2.874   2.527
 2061SOL    HW1 1630   2.616   2.858   2.597
 2061SOL    HW2 1631   2.474   2.931   2.565
 2062SOL     OW 1632   2.548   3.023   3.665
 2062SOL    HW1 1633   2.608   3.102   3.679
 2062SOL    HW2 1634   2.462   3.054   3.624
 2063SOL     OW 1635   2.197   3.297   2.923
 2063SOL    HW1 1636   2.119   3.266   2.870
 2063SOL    HW2 1637   2.255   3.355   2.866
 2064SOL     OW 1638   3.322   3.367   3.201
 2064SOL    HW1 1639   3.346   3.461   3.227
 2064SOL    HW2 1640   3.306   3.313   3.283
 2065SOL     OW 1641   2.300   2.254   3.361
 2065SOL    HW1 1642   2.382   2.198   3.370
 2065SOL    HW2 1643   2.219   2.196   3.365
 2066SOL     OW 1644   3.465   2.309   2.599
 2066SOL    HW1 1645   3.391   2.355   2.549
 2066SOL    HW2 1646   3.516   2.377   2.652
 2067SOL     OW 1647   2.093   3.575   2.345
 2067SOL    HW1 1648   2.127   3.652   2.399
 2067SOL    HW2 1649   2.137   3.575   2.255
 2068SOL     OW 1650   2.989   3.203   3.552
 2068SOL    HW1 1651   3.036   3.203   3.640
 2068SOL    HW2 1652   2.941   3.116   3.541
 2069SOL     OW 1653   2.092   3.296   2.400
 2069SOL    HW1 1654   2.066   3.392   2.400
 2069SOL    HW2 1655   2.021   3.242   2.445
 2070SOL     OW 1656   2.102   2.953   2.748
 2070SOL    HW1 1657   2.116   2.869   2.800
 2070SOL    HW2 1658   2.047   3.017   2.803
 2071SOL     OW 1659   2.482   3.648   3.301
 2071SOL    HW1 1660   2.390   3.631   3.336
 2071SOL    HW2 1661   2.510   3.740   3.327
 2072SOL     OW 1662   2.468   2.826   1.985
 2072SOL    HW1 1663   2.475   2.910   1.931
 2072SOL    HW2 1664   2.514   2.839   2.073
 2073SOL     OW 1665   3.456   1.976   3.342
 2073SOL    HW1 1666   3.438   2.043   3.270
 2073SOL    HW2 1667   3.453   2.022   3.431
 2074SOL     OW 1668   1.984   2.505   2.425
 2074SOL    HW1 1669   1.939   2.417   2.442
 2074SOL    HW2 1670   1.983   2.559   2.509
 2076SOL     OW 1671   1.889   3.458   1.979
 2076SOL    HW1 1672   1.870   3.362   2.000
 2076SOL    HW2 1673   1.856   3.516   2.054
 2077SOL     OW 1674   3.551   2.784   2.474
 2077SOL    HW1 1675   3.646   2.755   2.482
 2077SOL    HW2 1676   3.543   2.849   2.399
 2078SOL     OW 1677   3.503   2.970   2.294
 2078SOL    HW1 1678   3.589   2.972   2.242
 2078SOL    HW2 1679   3.517   3.017   2.382
 2079SOL     OW 1680   1.975   2.599   3.459
 2079SOL    HW1 1681   2.063   2.586   3.504
 2079SOL    HW2 1682   1.962   2.696   3.437
 2080SOL     OW 1683   2.475   3.227   2.588
 2080SOL    HW1 1684   2.426   3.140   2.597
 2080SOL    HW2 1685   2.452   3.270   2.501
 2081SOL     OW 1686   3.155   3.090   3.285
 2081SOL    HW1 1687   3.192   3.017   3.227
 2081SOL    HW2 1688   3.207   3.095   3.370
 2082SOL     OW 1689   2.671   1.866   2.364
 2082SOL    HW1 1690   2.711   1.957   2.355
 2082SOL    HW2 1691   2.571   1.874   2.370
 2083SOL     OW 1692   2.059   2.838   3.126
 2083SOL    HW1 1693   2.148   2.793   3.112
 2083SOL    HW2 1694   1.986   2.773   3.107
 2084SOL     OW 1695   3.387   2.861   2.052
 2084SOL    HW1 1696   3.324   2.785   2.065
 2084SOL    HW2 1697   3.435   2.879   2.138
 2086SOL     OW 1698   2.179   2.113   3.663
 2086SOL    HW1 1699   2.250   2.184   3.669
 2086SOL    HW2 1700   2.091   2.152   3.691
 2087SOL     OW 1701   3.328   3.279   2.815
 2087SOL    HW1 1702   3.269   3.285   2.895
 2087SOL    HW2 1703   3.313   3.191   2.769
 2088SOL     OW 1704   3.529   3.576   2.434
 2088SOL    HW1 1705   3.488   3.553   2.346
 2088SOL    HW2 1706   3.511   3.502   2.499
 2089SOL     OW 1707   2.460   2.591   2.132
 2089SOL    HW1 1708   2.484   2.660   2.064
 2089SOL    HW2 1709   2.382   2.624   2.186
 2090SOL     OW 1710   3.143   2.207   2.806
 2090SOL    HW1 1711   3.057   2.157   2.793
 2090SOL    HW2 1712   3.205   2.153   2.862
 2091SOL     OW 1713   3.438   3.524   2.169
 2091SOL    HW1 1714   3.527   3.570   2.172
 2091SOL    HW2 1715   3.417   3.500   2.074
 2092SOL     OW 1716   2.669   2.467   3.327
 2092SOL    HW1 1717   2.622   2.464   3.416
 2092SOL    HW2 1718   2.618   2.412   3.261
 2093SOL     OW 1719   3.256   2.331   3.536
 2093SOL    HW1 1720   3.236   2.374   3.624
 2093SOL    HW2 1721   3.334   2.269   3.545
 2094SOL     OW 1722   2.835   2.752   3.434
 2094SOL    HW1 1723   2.881   2.668   3.405
 2094SOL    HW2 1724   2.779   2.786   3.359
 2095SOL     OW 1725   2.853   2.272   3.104
 2095SOL    HW1 1726   2.776   2.306   3.158
 2095SOL    HW2 1727   2.819   2.221   3.025
 2096SOL     OW 1728   2.903   2.563   2.291
 2096SOL    HW1 1729   2.929   2.559   2.387
 2096SOL    HW2 1730   2.818   2.512   2.277
 2097SOL     OW 1731   1.938   2.673   2.651
 2097SOL    HW1 1732   2.037   2.661   2.660
 2097SOL    HW2 1733   1.914   2.768   2.672
 2098SOL     OW 1734   1.992   3.683   3.433
 2098SOL    HW1 1735   1.982   3.668   3.532
 2098SOL    HW2 1736   1.906   3.719   3.397
 2099SOL     OW 1737   2.727   2.210   2.057
 2099SOL    HW1 1738   2.786   2.273   2.008
 2099SOL    HW2 1739   2.746   2.116   2.028
 2101SOL     OW 1740   3.224   3.006   2.407
 2101SOL    HW1 1741   3.307   2.977   2.359
 2101SOL    HW2 1742   3.175   3.073   2.351
 2102SOL     OW 1743   2.412   2.058   2.747
 2102SOL    HW1 1744   2.407   2.053   2.847
 2102SOL    HW2 1745   2.414   2.154   2.718
 2103SOL     OW 1746   2.870   3.318   2.339
 2103SOL    HW1 1747   2.824   3.390   2.287
 2103SOL    HW2 1748   2.866   3.338   2.437
 2104SOL     OW 1749   2.213   3.663   2.715
 2104SOL    HW1 1750   2.263   3.577   2.721
 2104SOL    HW2 1751   2.278   3.740   2.712
 2105SOL     OW 1752   3.657   2.928   2.735
 2105SOL    HW1 1753   3.595   2.913   2.659
 2105SOL    HW2 1754   3.605   2.939   2.820
 2106SOL     OW 1755   3.089   3.412   3.368
 2106SOL    HW1 1756   3.095   3.335   3.432
 2106SOL    HW2 1757   3.037   3.386   3.288
 2107SOL     OW 1758   2.183   2.805   2.104
 2107SOL    HW1 1759   2.265   2.844   2.062
 2107SOL    HW2 1760   2.156   2.723   2.055
 2108SOL     OW 1761   3.320   2.597   2.590
 2108SOL    HW1 1762   3.315   2.532   2.665
 2108SOL    HW2 1763   3.400   2.656   2.603
 2109SOL     OW 1764   2.323   3.128   3.589
 2109SOL    HW1 1765   2.273   3.129   3.503
 2109SOL    HW2 1766   2.260   3.110   3.665
 2110SOL     OW 1767   2.973   3.638   2.099
 2110SOL    HW1 1768   2.913   3.576   2.149
 2110SOL    HW2 1769   3.004   3.594   2.014
 2111SOL     OW 1770   2.064   2.147   3.360
 2111SOL    HW1 1771   1.984   2.207   3.347
 2111SOL    HW2 1772   2.054   2.098   3.446
 2112SOL     OW 1773   3.494   3.239   1.943
 2112SOL    HW1 1774   3.462   3.333   1.933
 2112SOL    HW2 1775   3.418   3.176   1.931
 2113SOL     OW 1776   2.326   3.605   2.185
 2113SOL    HW1 1777   2.359   3.644   2.271
 2113SOL    HW2 1778   2.402   3.598   2.120
 2114SOL     OW 1779   3.262   1.969   2.288
 2114SOL    HW1 1780   3.238   1.932   2.198
 2114SOL    HW2 1781   3.361   1.985   2.292
 2115SOL     OW 1782   2.111   3.647   3.103
 2115SOL    HW1 1783   2.168   3.582   3.153
 2115SOL    HW2 1784   2.095   3.614   3.010
 2116SOL     OW 1785   2.802   3.560   2.766
 2116SOL    HW1 1786   2.882   3.503   2.787
 2116SOL    HW2 1787   2.753   3.520   2.689
 2117SOL     OW 1788   3.409   2.084   3.591
 2117SOL    HW1 1789   3.404   2.121   3.683
 2117SOL    HW2 1790   3.337   2.015   3.579
 2118SOL     OW 1791   2.476   1.984   1.979
 2118SOL    HW1 1792   2.574   1.962   1.986
 2118SOL    HW2 1793   2.445   1.967   1.886
 2119SOL     OW 1794   2.643   2.126   3.611
 2119SOL    HW1 1795   2.710   2.065   3.654
 2119SOL    HW2 1796   2.570   2.145   3.676
 2120SOL     OW 1797   2.750   3.376   3.057
 2120SOL    HW1 1798   2.727   3.351   2.963
 2120SOL    HW2 1799   2.811   3.307   3.096
 2121SOL     OW 1800   3.213   2.452   3.295
 2121SOL    HW1 1801   3.241   2.409   3.380
 2121SOL    HW2 1802   3.238   2.548   3.296
 2122SOL     OW 1803   2.665   3.264   2.786
 2122SOL    HW1 1804   2.755   3.278   2.744
 2122SOL    HW2 1805   2.594   3.266   2.715
 2123SOL     OW 1806   2.784   2.365   2.761
 2123SOL    HW1 1807   2.759   2.356   2.665
 2123SOL    HW2 1808   2.832   2.283   2.792
 2124SOL     OW 1809   2.401   1.926   2.374
 2124SOL    HW1 1810   2.320   1.927   2.432
 2124SOL    HW2 1811   2.404   2.009   2.319
 2125SOL     OW 1812   3.296   3.050   1.903
 2125SOL    HW1 1813   3.328   2.974   1.960
 2125SOL    HW2 1814   3.204   3.077   1.933
 2126SOL     OW 1815   2.159   1.897   2.033
 2126SOL    HW1 1816   2.208   1.981   2.012
 2126SOL    HW2 1817   2.221   1.832   2.078
 2127SOL     OW 1818   2.797   2.098   2.342
 2127SOL    HW1 1819   2.749   2.139   2.264
 2127SOL    HW2 1820   2.896   2.096   2.323
 2128SOL     OW 1821   2.938   2.545   3.326
 2128SOL    HW1 1822   2.858   2.484   3.329
 2128SOL    HW2 1823   3.019   2.492   3.302
 2129SOL     OW 1824   3.089   3.432   2.655
 2129SOL    HW1 1825   3.110   3.506   2.590
 2129SOL    HW2 1826   3.157   3.432   2.728
 2130SOL     OW 1827   2.321   3.014   2.603
 2130SOL    HW1 1828   2.250   2.987   2.668
 2130SOL    HW2 1829   2.295   2.986   2.510
 2131SOL     OW 1830   3.133   3.659   2.453
 2131SOL    HW1 1831   3.177   3.723   2.389
 2131SOL    HW2 1832   3.083   3.711   2.523
 2132SOL     OW 1833   2.894   2.411   1.878
 2132SOL    HW1 1834   2.853   2.493   1.839
 2132SOL    HW2 1835   2.958   2.437   1.951
 2133SOL     OW 1836   1.940   2.418   3.248
 2133SOL    HW1 1837   2.032   2.417   3.207
 2133SOL    HW2 1838   1.934   2.492   3.315
 2134SOL     OW 1839   2.423   2.084   3.009
 2134SOL    HW1 1840   2.461   2.000   3.046
 2134SOL    HW2 1841   2.335   2.103   3.053
 2135SOL     OW 1842   2.728   2.316   2.504
 2135SOL    HW1 1843   2.696   2.388   2.442
 2135SOL    HW2 1844   2.752   2.235   2.451
 2136SOL     OW 1845   2.879   1.901   2.615
 2136SOL    HW1 1846   2.807   1.906   2.546
 2136SOL    HW2 1847   2.855   1.832   2.684
 2137SOL     OW 1848   3.291   3.035   2.729
 2137SOL    HW1 1849   3.236   2.951   2.722
 2137SOL    HW2 1850   3.317   3.064   2.637
 2138SOL     OW 1851   3.328   2.452   2.854
 2138SOL    HW1 1852   3.298   2.357   2.861
 2138SOL    HW2 1853   3.401   2.468   2.920
 2139SOL     OW 1854   3.719   2.695   2.239
 2139SOL    HW1 1855   3.761   2.631   2.303
 2139SOL    HW2 1856   3.681   2.644   2.161
 2140SOL     OW 1857   2.350   3.247   2.036
 2140SOL    HW1 1858   2.263   3.232   2.083
 2140SOL    HW2 1859   2.333   3.273   1.941
 2141SOL     OW 1860   3.526   3.142   2.519
 2141SOL    HW1 1861   3.625   3.150   2.533
 2141SOL    HW2 1862   3.481   3.226   2.550
 2142SOL     OW 1863   3.252   2.437   1.940
 2142SOL    HW1 1864   3.198   2.416   2.021
 2142SOL    HW2 1865   3.343   2.396   1.949
 2144SOL     OW 1866   2.926   3.209   3.202
 2144SOL    HW1 1867   2.846   3.186   3.257
 2144SOL    HW2 1868   3.009   3.183   3.251
 2146SOL     OW 1869   2.973   3.057   2.962
 2146SOL    HW1 1870   2.933   3.101   3.043
 2146SOL    HW2 1871   2.932   3.094   2.879
 2147SOL     OW 1872   3.500   2.961   2.941
 2147SOL    HW1 1873   3.505   3.042   3.000
 2147SOL    HW2 1874   3.414   2.963   2.890
 2148SOL     OW 1875   2.777   1.951   3.264
 2148SOL    HW1 1876   2.802   1.931   3.169
 2148SOL    HW2 1877   2.849   2.007   3.306
 2149SOL     OW 1878   2.842   2.978   3.581
 2149SOL    HW1 1879   2.743   2.984   3.591
 2149SOL    HW2 1880   2.865   2.898   3.525
 2150SOL     OW 1881   2.567   2.912   2.230
 2150SOL    HW1 1882   2.553   2.919   2.329
 2150SOL    HW2 1883   2.651   2.861   2.212
 2151SOL     OW 1884   2.272   2.675   3.113
 2151SOL    HW1 1885   2.358   2.687   3.163
 2151SOL    HW2 1886   2.230   2.588   3.140
 2152SOL     OW 1887   3.136   2.248   3.124
 2152SOL    HW1 1888   3.157   2.322   3.188
 2152SOL    HW2 1889   3.047   2.265   3.081
 2153SOL     OW 1890   1.926   3.426   3.193
 2153SOL    HW1 1891   1.880   3.508   3.159
 2153SOL    HW2 1892   2.024   3.445   3.202
 2154SOL     OW 1893   2.229   2.962   2.363
 2154SOL    HW1 1894   2.222   3.045   2.307
 2154SOL    HW2 1895   2.233   2.882   2.303
 2155SOL     OW 1896   3.114   3.210   2.250
 2155SOL    HW1 1897   3.164   3.287   2.290
 2155SOL    HW2 1898   3.019   3.212   2.282
 2156SOL     OW 1899   3.134   3.307   3.004
 2156SOL    HW1 1900   3.181   3.320   3.091
 2156SOL    HW2 1901   3.068   3.233   3.013
 2157SOL     OW 1902   3.444   2.501   2.334
 2157SOL    HW1 1903   3.413   2.562   2.407
 2157SOL    HW2 1904   3.494   2.553   2.265
 2158SOL     OW 1905   2.216   3.372   3.191
 2158SOL    HW1 1906   2.195   3.328   3.104
 2158SOL    HW2 1907   2.313   3.398   3.194
 2159SOL     OW 1908   2.264   2.613   3.460
 2159SOL    HW1 1909   2.332   2.668   3.413
 2159SOL    HW2 1910   2.304   2.525   3.487
 2160SOL     OW 1911   3.449   2.641   3.532
 2160SOL    HW1 1912   3.357   2.679   3.527
 2160SOL    HW2 1913   3.509   2.688   3.467
 2161SOL     OW 1914   2.875   1.967   3.632
 2161SOL    HW1 1915   2.881   2.052   3.580
 2161SOL    HW2 1916   2.907   1.891   3.575
 2162SOL     OW 1917   2.366   1.912   3.602
 2162SOL    HW1 1918   2.324   1.855   3.532
 2162SOL    HW2 1919   2.300   1.981   3.634
 2163SOL     OW 1920   2.435   2.732   2.891
 2163SOL    HW1 1921   2.479   2.821   2.882
 2163SOL    HW2 1922   2.372   2.732   2.968
 2164SOL     OW 1923   3.222   2.724   2.907
 2164SOL    HW1 1924   3.147   2.724   2.841
 2164SOL    HW2 1925   3.259   2.632   2.916
 2165SOL     OW 1926   3.071   2.387   2.137
 2165SOL    HW1 1927   3.084   2.303   2.191
 2165SOL    HW2 1928   3.042   2.461   2.197
 2166SOL     OW 1929   2.169   2.075   3.093
 2166SOL    HW1 1930   2.146   2.112   3.183
 2166SOL    HW2 1931   2.139   1.980   3.087
 2167SOL     OW 1932   1.899   3.172   3.144
 2167SOL    HW1 1933   1.952   3.123   3.212
 2167SOL    HW2 1934   1.921   3.270   3.149
 2168SOL     OW 1935   2.594   2.496   2.926
 2168SOL    HW1 1936   2.653   2.470   2.850
 2168SOL    HW2 1937   2.566   2.592   2.915
 2170SOL     OW 1938   2.169   1.925   2.480
 2170SOL    HW1 1939   2.158   2.019   2.513
 2170SOL    HW2 1940   2.164   1.862   2.557
 2171SOL     OW 1941   3.484   2.229   2.236
 2171SOL    HW1 1942   3.486   2.153   2.300
 2171SOL    HW2 1943   3.436   2.306   2.276
 2172SOL     OW 1944   2.885   2.628   2.828
 2172SOL    HW1 1945   2.900   2.649   2.924
 2172SOL    HW2 1946   2.855   2.533   2.819
 2173SOL     OW 1947   2.842   3.435   3.562
 2173SOL    HW1 1948   2.822   3.479   3.474
 2173SOL    HW2 1949   2.881   3.344   3.546
 2175SOL     OW 1950   2.212   2.760   3.666
 2175SOL    HW1 1951   2.288   2.804   3.714
 2175SOL    HW2 1952   2.247   2.713   3.584
 2176SOL     OW 1953   3.402   2.136   1.987
 2176SOL    HW1 1954   3.341   2.061   2.010
 2176SOL    HW2 1955   3.424   2.188   2.070
 2177SOL     OW 1956   3.165   2.700   1.904
 2177SOL    HW1 1957   3.199   2.607   1.919
 2177SOL    HW2 1958   3.183   2.727   1.809
 2178SOL     OW 1959   2.930   3.195   2.711
 2178SOL    HW1 1960   2.937   3.111   2.656
 2178SOL    HW2 1961   2.992   3.264   2.675
 2179SOL     OW 1962   2.181   2.672   2.811
 2179SOL    HW1 1963   2.274   2.708   2.816
 2179SOL    HW2 1964   2.175   2.587   2.863
 2180SOL     OW 1965   2.201   2.371   2.868
 2180SOL    HW1 1966   2.149   2.288   2.851
 2180SOL    HW2 1967   2.278   2.376   2.804
 2181SOL     OW 1968   3.000   2.242   3.540
 2181SOL    HW1 1969   2.955   2.305   3.604
 2181SOL    HW2 1970   3.093   2.273   3.523
 2182SOL     OW 1971   3.022   2.069   3.339
 2182SOL    HW1 1972   3.022   2.133   3.416
 2182SOL    HW2 1973   3.050   2.117   3.256
 2183SOL     OW 1974   1.870   3.188   2.062
 2183SOL    HW1 1975   1.777   3.209   2.031
 2183SOL    HW2 1976   1.880   3.089   2.075
 2184SOL     OW 1977   1.950   3.663   2.789
 2184SOL    HW1 1978   1.908   3.577   2.762
 2184SOL    HW2 1979   2.044   3.666   2.755
 2185SOL     OW 1980   2.366   3.430   2.772
 2185SOL    HW1 1981   2.432   3.504   2.781
 2185SOL    HW2 1982   2.410   3.351   2.730
 2186SOL     OW 1983   2.864   2.658   3.100
 2186SOL    HW1 1984   2.905   2.626   3.186
 2186SOL    HW2 1985   2.768   2.631   3.097
 2187SOL     OW 1986   1.902   2.406   2.976
 2187SOL    HW1 1987   1.987   2.373   2.935
 2187SOL    HW2 1988   1.915   2.421   3.074
 2188SOL     OW 1989   2.051   2.382   3.584
 2188SOL    HW1 1990   2.110   2.342   3.514
 2188SOL    HW2 1991   1.993   2.453   3.543
 2189SOL     OW 1992   3.231   2.812   3.522
 2189SOL    HW1 1993   3.270   2.901   3.542
 2189SOL    HW2 1994   3.241   2.792   3.425
 2190SOL     OW 1995   2.677   2.434   2.187
 2190SOL    HW1 1996   2.684   2.345   2.141
 2190SOL    HW2 1997   2.583   2.468   2.179
 2191SOL     OW 1998   3.519   2.466   3.068
 2191SOL    HW1 1999   3.481   2.397   3.130
 2191SOL    HW2 2000   3.601   2.430   3.024
 2192SOL     OW 2001   2.114   3.426   3.606
 2192SOL    HW1 2002   2.084   3.483   3.682
 2192SOL    HW2 2003   2.107   3.329   3.632
 2193SOL     OW 2004   2.533   2.326   3.131
 2193SOL    HW1 2005   2.499   2.237   3.101
 2193SOL    HW2 2006   2.559   2.380   3.051
 2194SOL     OW 2007   2.792   3.540   3.327
 2194SOL    HW1 2008   2.768   3.522   3.232
 2194SOL    HW2 2009   2.822   3.634   3.337
 2195SOL     OW 2010   2.335   2.362   2.053
 2195SOL    HW1 2011   2.396   2.442   2.057
 2195SOL    HW2 2012   2.240   2.393   2.060
 2196SOL     OW 2013   2.021   2.999   3.328
 2196SOL    HW1 2014   2.043   2.938   3.404
 2196SOL    HW2 2015   2.031   2.950   3.242
 2197SOL     OW 2016   3.209   2.921   3.096
 2197SOL    HW1 2017   3.233   2.858   3.022
 2197SOL    HW2 2018   3.119   2.961   3.078
 2198SOL     OW 2019   3.164   2.717   2.171
 2198SOL    HW1 2020   3.078   2.686   2.213
 2198SOL    HW2 2021   3.160   2.703   2.072
 2200SOL     OW 2022   3.114   3.593   2.990
 2200SOL    HW1 2023   3.198   3.598   2.936
 2200SOL    HW2 2024   3.091   3.497   3.008
 2201SOL     OW 2025   1.945   3.120   2.884
 2201SOL    HW1 2026   1.940   3.119   2.984
 2201SOL    HW2 2027   1.862   3.079   2.846
 2202SOL     OW 2028   2.550   3.524   3.578
 2202SOL    HW1 2029   2.494   3.605   3.587
 2202SOL    HW2 2030   2.602   3.528   3.492
 2203SOL     OW 2031   3.588   1.997   2.385
 2203SOL    HW1 2032   3.661   1.980   2.318
 2203SOL    HW2 2033   3.557   1.910   2.423
 2204SOL     OW 2034   3.250   3.435   2.339
 2204SOL    HW1 2035   3.317   3.447   2.265
 2204SOL    HW2 2036   3.210   3.524   2.362
 2206SOL     OW 2037   3.142   2.789   2.534
 2206SOL    HW1 2038   3.202   2.708   2.536
 2206SOL    HW2 2039   3.182   2.858   2.474
 2207SOL     OW 2040   2.692   3.135   3.284
 2207SOL    HW1 2041   2.687   3.168   3.379
 2207SOL    HW2 2042   2.606   3.154   3.238
 2208SOL     OW 2043   2.534   3.478   2.016
 2208SOL    HW1 2044   2.543   3.488   1.917
 2208SOL    HW2 2045   2.494   3.389   2.037
 2210SOL     OW 2046   3.703   2.037   2.825
 2210SOL    HW1 2047   3.742   1.952   2.789
 2210SOL    HW2 2048   3.605   2.039   2.806
 2211SOL     OW 2049   2.125   2.188   2.582
 2211SOL    HW1 2050   2.046   2.239   2.548
 2211SOL    HW2 2051   2.116   2.173   2.680
 2212SOL     OW 2052   3.056   3.474   1.893
 2212SOL    HW1 2053   3.062   3.381   1.930
 2212SOL    HW2 2054   2.997   3.474   1.813
 2213SOL     OW 2055   2.684   2.864   3.234
 2213SOL    HW1 2056   2.724   2.863   3.142
 2213SOL    HW2 2057   2.694   2.956   3.274
 2214SOL     OW 2058   2.778   2.772   2.153
 2214SOL    HW1 2059   2.841   2.810   2.085
 2214SOL    HW2 2060   2.818   2.689   2.192
 2215SOL     OW 2061   3.366   3.469   1.906
 2215SOL    HW1 2062   3.274   3.506   1.913
 2215SOL    HW2 2063   3.404   3.489   1.816
 2216SOL     OW 2064   2.234   3.150   3.352
 2216SOL    HW1 2065   2.221   3.243   3.318
 2216SOL    HW2 2066   2.150   3.098   3.339
 2217SOL     OW 2067   3.476   3.154   3.151
 2217SOL    HW1 2068   3.536   3.157   3.231
 2217SOL    HW2 2069   3.401   3.218   3.164
 2218SOL     OW 2070   2.901   2.960   2.558
 2218SOL    HW1 2071   2.831   2.913   2.612
 2218SOL    HW2 2072   2.960   2.892   2.515
 2219SOL     OW 2073   2.876   2.098   2.833
 2219SOL    HW1 2074   2.868   2.062   2.740
 2219SOL    HW2 2075   2.874   2.022   2.898
 2220SOL     OW 2076   2.452   3.349   2.353
 2220SOL    HW1 2077   2.494   3.291   2.283
 2220SOL    HW2 2078   2.408   3.428   2.309
 2221SOL     OW 2079   3.571   2.247   3.243
 2221SOL    HW1 2080   3.644   2.316   3.247
 2221SOL    HW2 2081   3.599   2.172   3.184
 2222SOL     OW 2082   2.117   3.210   2.152
 2222SOL    HW1 2083   2.021   3.211   2.125
 2222SOL    HW2 2084   2.129   3.263   2.236
 2223SOL     OW 2085   1.967   2.875   3.588
 2223SOL    HW1 2086   1.890   2.842   3.642
 2223SOL    HW2 2087   2.052   2.845   3.630
 2224SOL     OW 2088   2.534   2.065   3.351
 2224SOL    HW1 2089   2.624   2.049   3.311
 2224SOL    HW2 2090   2.542   2.070   3.450
 2225SOL     OW 2091   1.937   2.207   1.895
 2225SOL    HW1 2092   1.845   2.179   1.866
 2225SOL    HW2 2093   1.968   2.284   1.839
 2226SOL     OW 2094   3.302   2.718   3.260
 2226SOL    HW1 2095   3.245   2.770   3.197
 2226SOL    HW2 2096   3.398   2.730   3.236
 2227SOL     OW 2097   1.934   2.028   2.180
 2227SOL    HW1 2098   1.917   2.111   2.126
 2227SOL    HW2 2099   2.024   1.991   2.158
 2228SOL     OW 2100   3.045   3.197   1.981
 2228SOL    HW1 2101   2.946   3.186   1.983
 2228SOL    HW2 2102   3.079   3.212   2.074
 2229SOL     OW 2103   2.475   2.704   3.293
 2229SOL    HW1 2104   2.531   2.785   3.276
 2229SOL    HW2 2105   2.534   2.624   3.296
 2230SOL     OW 2106   3.355   3.629   2.821
 2230SOL    HW1 2107   3.388   3.693   2.752
 2230SOL    HW2 2108   3.421   3.623   2.896
 2231SOL     OW 2109   2.578   2.427   3.570
 2231SOL    HW1 2110   2.597   2.492   3.644
 2231SOL    HW2 2111   2.638   2.347   3.579
 2232SOL     OW 2112   3.312   3.082   3.495
 2232SOL    HW1 2113   3.303   3.072   3.594
 2232SOL    HW2 2114   3.408   3.075   3.469
 2233SOL     OW 2115   2.252   3.603   3.422
 2233SOL    HW1 2116   2.161   3.644   3.420
 2233SOL    HW2 2117   2.245   3.509   3.454
 2234SOL     OW 2118   3.536   2.745   3.116
 2234SOL    HW1 2119   3.509   2.656   3.079
 2234SOL    HW2 2120   3.537   2.813   3.043
 2235SOL     OW 2121   3.087   2.187   2.311
 2235SOL    HW1 2122   3.152   2.113   2.300
 2235SOL    HW2 2123   3.107   2.237   2.395
 2236SOL     OW 2124   3.639   2.204   3.504
 2236SOL    HW1 2125   3.622   2.235   3.410
 2236SOL    HW2 2126   3.555   2.167   3.542
 2237SOL     OW 2127   3.592   2.796   3.379
 2237SOL    HW1 2128   3.630   2.887   3.394
 2237SOL    HW2 2129   3.584   2.779   3.280
 2238SOL     OW 2130   2.721   3.236   1.878
 2238SOL    HW1 2131   2.675   3.251   1.966
 2238SOL    HW2 2132   2.765   3.321   1.848
 2239SOL     OW 2133   2.523   3.652   2.815
 2239SOL    HW1 2134   2.477   3.740   2.802
 2239SOL    HW2 2135   2.622   3.664   2.808
 2240SOL     OW 2136   2.721   2.818   2.723
 2240SOL    HW1 2137   2.775   2.749   2.771
 2240SOL    HW2 2138   2.689   2.887   2.789
 2241SOL     OW 2139   2.945   2.846   1.949
 2241SOL    HW1 2140   2.922   2.899   1.867
 2241SOL    HW2 2141   3.026   2.790   1.930
 2243SOL     OW 2142   2.083   3.176   3.706
 2243SOL    HW1 2143   2.018   3.103   3.685
 2243SOL    HW2 2144   2.087   3.190   3.804
 2244SOL     OW 2145   1.941   3.102   2.515
 2244SOL    HW1 2146   1.940   3.055   2.603
 2244SOL    HW2 2147   2.023   3.074   2.464
 2245SOL     OW 2148   2.534   3.253   3.486
 2245SOL    HW1 2149   2.456   3.203   3.524
 2245SOL    HW2 2150   2.531   3.348   3.517
 2246SOL     OW 2151   3.686   2.054   3.089
 2246SOL    HW1 2152   3.682   1.964   3.133
 2246SOL    HW2 2153   3.689   2.043   2.990
 2247SOL     OW 2154   3.567   3.349   2.966
 2247SOL    HW1 2155   3.474   3.324   2.939
 2247SOL    HW2 2156   3.593   3.299   3.048
 2248SOL     OW 2157   2.179   2.409   3.142
 2248SOL    HW1 2158   2.217   2.350   3.214
 2248SOL    HW2 2159   2.219   2.383   3.054
 2249SOL     OW 2160   2.674   3.448   2.549
 2249SOL    HW1 2161   2.706   3.458   2.455
 2249SOL    HW2 2162   2.595   3.386   2.551
 2250SOL     OW 2163   3.286   2.076   2.974
 2250SOL    HW1 2164   3.338   2.011   3.029
 2250SOL    HW2 2165   3.237   2.139   3.035
 2251SOL     OW 2166   2.863   1.896   3.016
 2251SOL    HW1 2167   2.800   1.824   2.985
 2251SOL    HW2 2168   2.956   1.860   3.016
 2252SOL     OW 2169   2.632   3.192   2.163
 2252SOL    HW1 2170   2.586   3.105   2.180
 2252SOL    HW2 2171   2.723   3.189   2.204
 2253SOL     OW 2172   2.480   3.429   3.146
 2253SOL    HW1 2173   2.475   3.511   3.203
 2253SOL    HW2 2174   2.569   3.426   3.101
 2254SOL     OW 2175   3.214   1.914   2.030
 2254SOL    HW1 2176   3.249   1.873   1.946
 2254SOL    HW2 2177   3.124   1.876   2.050
 2255SOL     OW 2178   3.162   2.315   2.553
 2255SOL    HW1 2179   3.103   2.395   2.557
 2255SOL    HW2 2180   3.177   2.280   2.646
 2256SOL     OW 2181   3.455   2.083   2.744
 2256SOL    HW1 2182   3.371   2.082   2.798
 2256SOL    HW2 2183   3.457   2.166   2.688
 2257SOL     OW 2184   1.901   2.939   2.162
 2257SOL    HW1 2185   2.000   2.928   2.153
 2257SOL    HW2 2186   1.861   2.853   2.194
 2258SOL     OW 2187   2.737   3.508   2.199
 2258SOL    HW1 2188   2.660   3.473   2.145
 2258SOL    HW2 2189   2.705   3.579   2.261
 2259SOL     OW 2190   2.092   2.490   3.837
 2259SOL    HW1 2191   1.999   2.488   3.874
 2259SOL    HW2 2192   2.093   2.451   3.745
 2270SOL     OW 2193   2.468   2.826   3.847
 2270SOL    HW1 2194   2.475   2.910   3.793
 2270SOL    HW2 2195   2.514   2.839   3.935
 2280SOL     OW 2196   2.460   2.591   3.994
 2280SOL    HW1 2197   2.484   2.660   3.926
 2280SOL    HW2 2198   2.382   2.624   4.048
 2285SOL     OW 2199   2.727   2.210   3.919
 2285SOL    HW1 2200   2.786   2.273   3.870
 2285SOL    HW2 2201   2.746   2.116   3.890
 2291SOL     OW 2202   2.183   2.805   3.966
 2291SOL    HW1 2203   2.265   2.844   3.924
 2291SOL    HW2 2204   2.156   2.723   3.917
 2298SOL     OW 2205   2.476   1.984   3.841
 2298SOL    HW1 2206   2.574   1.962   3.848
 2298SOL    HW2 2207   2.445   1.967   3.748
 2301SOL     OW 2208   2.159   1.897   3.895
 2301SOL    HW1 2209   2.208   1.981   3.874
 2301SOL    HW2 2210   2.221   1.832   3.940
 2305SOL     OW 2211   2.894   2.411   3.740
 2305SOL    HW1 2212   2.853   2.493   3.701
 2305SOL    HW2 2213   2.958   2.437   3.813
 2311SOL     OW 2214   3.252   2.437   3.802
 2311SOL    HW1 2215   3.198   2.416   3.883
 2311SOL    HW2 2216   3.343   2.396   3.811
 2312SOL     OW 2217   2.389   2.118   4.052
 2312SOL    HW1 2218   2.416   2.059   3.977
 2312SOL    HW2 2219   2.389   2.213   4.021
 2323SOL     OW 2220   3.165   2.700   3.766
 2323SOL    HW1 2221   3.199   2.607   3.781
 2323SOL    HW2 2222   3.183   2.727   3.671
 2328SOL     OW 2223   2.677   2.434   4.049
 2328SOL    HW1 2224   2.684   2.345   4.003
 2328SOL    HW2 2225   2.583   2.468   4.041
 2329SOL     OW 2226   2.335   2.362   3.915
 2329SOL    HW1 2227   2.396   2.442   3.919
 2329SOL    HW2 2228   2.240   2.393   3.922
 2338SOL     OW 2229   2.778   2.772   4.015
 2338SOL    HW1 2230   2.841   2.810   3.947
 2338SOL    HW2 2231   2.818   2.689   4.054
 2343SOL     OW 2232   1.937   2.207   3.757
 2343SOL    HW1 2233   1.845   2.179   3.728
 2343SOL    HW2 2234   1.968   2.284   3.701
 2344SOL     OW 2235   1.934   2.028   4.042
 2344SOL    HW1 2236   1.917   2.111   3.988
 2344SOL    HW2 2237   2.024   1.991   4.020
 2348SOL     OW 2238   2.721   3.236   3.740
 2348SOL    HW1 2239   2.675   3.251   3.828
 2348SOL    HW2 2240   2.765   3.321   3.710
 2351SOL     OW 2241   2.945   2.846   3.811
 2351SOL    HW1 2242   2.922   2.899   3.729
 2351SOL    HW2 2243   3.026   2.790   3.792
 2375SOL     OW 2244   2.179   3.975   1.801
 2375SOL    HW1 2245   2.250   4.046   1.807
 2375SOL    HW2 2246   2.091   4.014   1.829
 2391SOL     OW 2247   2.643   3.988   1.749
 2391SOL    HW1 2248   2.710   3.927   1.792
 2391SOL    HW2 2249   2.570   4.007   1.814
 2407SOL     OW 2250   2.777   3.813   1.402
 2407SOL    HW1 2251   2.802   3.793   1.307
 2407SOL    HW2 2252   2.849   3.869   1.444
 2414SOL     OW 2253   2.875   3.829   1.770
 2414SOL    HW1 2254   2.881   3.914   1.718
 2414SOL    HW2 2255   2.907   3.753   1.713
 2415SOL     OW 2256   2.366   3.774   1.740
 2415SOL    HW1 2257   2.324   3.717   1.670
 2415SOL    HW2 2258   2.300   3.843   1.772
 2465SOL     OW 2259   2.087   3.999   2.858
 2465SOL    HW1 2260   2.122   3.982   2.950
 2465SOL    HW2 2261   1.999   3.954   2.846
 2476SOL     OW 2262   2.671   3.728   2.364
 2476SOL    HW1 2263   2.711   3.819   2.355
 2476SOL    HW2 2264   2.571   3.736   2.370
 2485SOL     OW 2265   2.727   4.072   2.057
 2485SOL    HW1 2266   2.786   4.135   2.008
 2485SOL    HW2 2267   2.746   3.978   2.028
 2487SOL     OW 2268   2.412   3.920   2.747
 2487SOL    HW1 2269   2.407   3.915   2.847
 2487SOL    HW2 2270   2.414   4.016   2.718
 2490SOL     OW 2271   3.262   3.831   2.288
 2490SOL    HW1 2272   3.238   3.794   2.198
 2490SOL    HW2 2273   3.361   3.847   2.292
 2493SOL     OW 2274   2.476   3.846   1.979
 2493SOL    HW1 2275   2.574   3.824   1.986
 2493SOL    HW2 2276   2.445   3.829   1.886
 2497SOL     OW 2277   2.401   3.788   2.374
 2497SOL    HW1 2278   2.320   3.789   2.432
 2497SOL    HW2 2279   2.404   3.871   2.319
 2498SOL     OW 2280   2.159   3.759   2.033
 2498SOL    HW1 2281   2.208   3.843   2.012
 2498SOL    HW2 2282   2.221   3.694   2.078
 2499SOL     OW 2283   2.797   3.960   2.342
 2499SOL    HW1 2284   2.749   4.001   2.264
 2499SOL    HW2 2285   2.896   3.958   2.323
 2503SOL     OW 2286   2.423   3.946   3.009
 2503SOL    HW1 2287   2.461   3.862   3.046
 2503SOL    HW2 2288   2.335   3.965   3.053
 2505SOL     OW 2289   2.879   3.763   2.615
 2505SOL    HW1 2290   2.807   3.768   2.546
 2505SOL    HW2 2291   2.855   3.694   2.684
 2509SOL     OW 2292   2.389   3.980   2.190
 2509SOL    HW1 2293   2.416   3.921   2.115
 2509SOL    HW2 2294   2.389   4.075   2.159
 2510SOL     OW 2295   2.777   3.813   3.264
 2510SOL    HW1 2296   2.802   3.793   3.169
 2510SOL    HW2 2297   2.849   3.869   3.306
 2522SOL     OW 2298   2.169   3.937   3.093
 2522SOL    HW1 2299   2.146   3.974   3.183
 2522SOL    HW2 2300   2.139   3.842   3.087
 2525SOL     OW 2301   2.169   3.787   2.480
 2525SOL    HW1 2302   2.158   3.881   2.513
 2525SOL    HW2 2303   2.164   3.724   2.557
 2544SOL     OW 2304   2.125   4.050   2.582
 2544SOL    HW1 2305   2.046   4.101   2.548
 2544SOL    HW2 2306   2.116   4.035   2.680
 2546SOL     OW 2307   2.876   3.960   2.833
 2546SOL    HW1 2308   2.868   3.924   2.740
 2546SOL    HW2 2309   2.874   3.884   2.898
 2552SOL     OW 2310   1.934   3.890   2.180
 2552SOL    HW1 2311   1.917   3.973   2.126
 2552SOL    HW2 2312   2.024   3.853   2.158
 2564SOL     OW 2313   2.863   3.758   3.016
 2564SOL    HW1 2314   2.800   3.686   2.985
 2564SOL    HW2 2315   2.956   3.722   3.016
 2565SOL     OW 2316   3.214   3.776   2.030
 2565SOL    HW1 2317   3.249   3.735   1.946
 2565SOL    HW2 2318   3.124   3.738   2.050
 2646SOL     OW 2319   3.854   1.821   1.571
 2646SOL    HW1 2320   3.844   1.806   1.670
 2646SOL    HW2 2321   3.768   1.857   1.535
 2701SOL     OW 2322   3.854   1.794   1.851
 2701SOL    HW1 2323   3.813   1.720   1.904
 2701SOL    HW2 2324   3.918   1.845   1.909
 2739SOL     OW 2325   3.955   1.713   2.345
 2739SOL    HW1 2326   3.989   1.790   2.399
 2739SOL    HW2 2327   3.999   1.713   2.255
 2745SOL     OW 2328   3.751   1.596   1.979
 2745SOL    HW1 2329   3.732   1.500   2.000
 2745SOL    HW2 2330   3.718   1.654   2.054
 2796SOL     OW 2331   3.732   1.326   2.062
 2796SOL    HW1 2332   3.639   1.347   2.031
 2796SOL    HW2 2333   3.742   1.227   2.075
 2797SOL     OW 2334   3.812   1.801   2.789
 2797SOL    HW1 2335   3.770   1.715   2.762
 2797SOL    HW2 2336   3.906   1.804   2.755
 2911SOL     OW 2337   3.837   2.599   1.597
 2911SOL    HW1 2338   3.925   2.586   1.642
 2911SOL    HW2 2339   3.824   2.696   1.575
 2915SOL     OW 2340   4.041   2.113   1.801
 2915SOL    HW1 2341   4.112   2.184   1.807
 2915SOL    HW2 2342   3.953   2.152   1.829
 2937SOL     OW 2343   3.802   2.418   1.386
 2937SOL    HW1 2344   3.894   2.417   1.345
 2937SOL    HW2 2345   3.796   2.492   1.453
 2964SOL     OW 2346   3.913   2.382   1.722
 2964SOL    HW1 2347   3.972   2.342   1.652
 2964SOL    HW2 2348   3.855   2.453   1.681
 2982SOL     OW 2349   3.829   2.875   1.726
 2982SOL    HW1 2350   3.752   2.842   1.780
 2982SOL    HW2 2351   3.914   2.845   1.768
 3002SOL     OW 2352   3.954   2.490   1.975
 3002SOL    HW1 2353   3.861   2.488   2.012
 3002SOL    HW2 2354   3.955   2.451   1.883
 3003SOL     OW 2355   3.949   2.137   2.858
 3003SOL    HW1 2356   3.984   2.120   2.950
 3003SOL    HW2 2357   3.861   2.092   2.846
 3004SOL     OW 2358   3.743   2.230   2.509
 3004SOL    HW1 2359   3.661   2.273   2.548
 3004SOL    HW2 2360   3.715   2.157   2.446
 3014SOL     OW 2361   3.964   2.953   2.748
 3014SOL    HW1 2362   3.978   2.869   2.800
 3014SOL    HW2 2363   3.909   3.017   2.803
 3017SOL     OW 2364   3.846   2.505   2.425
 3017SOL    HW1 2365   3.801   2.417   2.442
 3017SOL    HW2 2366   3.845   2.559   2.509
 3026SOL     OW 2367   3.800   2.673   2.651
 3026SOL    HW1 2368   3.899   2.661   2.660
 3026SOL    HW2 2369   3.776   2.768   2.672
 3032SOL     OW 2370   4.045   2.805   2.104
 3032SOL    HW1 2371   4.127   2.844   2.062
 3032SOL    HW2 2372   4.018   2.723   2.055
 3038SOL     OW 2373   4.106   2.562   2.342
 3038SOL    HW1 2374   4.151   2.472   2.339
 3038SOL    HW2 2375   4.012   2.551   2.375
 3044SOL     OW 2376   4.021   1.897   2.033
 3044SOL    HW1 2377   4.070   1.981   2.012
 3044SOL    HW2 2378   4.083   1.832   2.078
 3046SOL     OW 2379   3.802   2.418   3.248
 3046SOL    HW1 2380   3.894   2.417   3.207
 3046SOL    HW2 2381   3.796   2.492   3.315
 3063SOL     OW 2382   4.031   1.925   2.480
 3063SOL    HW1 2383   4.020   2.019   2.513
 3063SOL    HW2 2384   4.026   1.862   2.557
 3067SOL     OW 2385   4.043   2.672   2.811
 3067SOL    HW1 2386   4.136   2.708   2.816
 3067SOL    HW2 2387   4.037   2.587   2.863
 3069SOL     OW 2388   3.732   3.188   2.062
 3069SOL    HW1 2389   3.639   3.209   2.031
 3069SOL    HW2 2390   3.742   3.089   2.075
 3072SOL     OW 2391   3.764   2.406   2.976
 3072SOL    HW1 2392   3.849   2.373   2.935
 3072SOL    HW2 2393   3.777   2.421   3.074
 3079SOL     OW 2394   3.807   3.120   2.884
 3079SOL    HW1 2395   3.802   3.119   2.984
 3079SOL    HW2 2396   3.724   3.079   2.846
 3085SOL     OW 2397   3.987   2.188   2.582
 3085SOL    HW1 2398   3.908   2.239   2.548
 3085SOL    HW2 2399   3.978   2.173   2.680
 3092SOL     OW 2400   3.799   2.207   1.895
 3092SOL    HW1 2401   3.707   2.179   1.866
 3092SOL    HW2 2402   3.830   2.284   1.839
 3093SOL     OW 2403   3.796   2.028   2.180
 3093SOL    HW1 2404   3.779   2.111   2.126
 3093SOL    HW2 2405   3.886   1.991   2.158
 3101SOL     OW 2406   3.803   3.102   2.515
 3101SOL    HW1 2407   3.802   3.055   2.603
 3101SOL    HW2 2408   3.885   3.074   2.464
 3109SOL     OW 2409   3.763   2.939   2.162
 3109SOL    HW1 2410   3.862   2.928   2.153
 3109SOL    HW2 2411   3.723   2.853   2.194
   4.68066   4.68066   4.68066
