mobley_7829570_GMX.gro created by acpype (v: 2023.10.27) on Tue May 19 14:06:00 2026
 2403
    1MOL     C1    1   2.530   2.791   2.538
    1MOL     C2    2   2.737   2.673   2.506
    1MOL     C3    3   2.667   2.794   2.506
    1MOL     C4    4   2.467   2.669   2.570
    1MOL     C5    5   2.671   2.553   2.538
    1MOL     C6    6   2.534   2.545   2.570
    1MOL     C7    7   2.347   2.293   2.130
    1MOL     C8    8   2.495   2.252   2.778
    1MOL     C9    9   2.302   2.304   2.274
    1MOL    C10   10   2.413   2.361   2.363
    1MOL    C11   11   2.455   2.395   2.742
    1MOL    C12   12   2.368   2.372   2.509
    1MOL    C13   13   2.735   2.924   2.469
    1MOL     N1   14   2.476   2.419   2.598
    1MOL     N2   15   2.327   2.679   2.606
    1MOL     N3   16   2.752   2.433   2.537
    1MOL     O1   17   2.298   2.669   2.726
    1MOL     O2   18   2.247   2.702   2.514
    1MOL     O3   19   2.770   2.379   2.427
    1MOL     O4   20   2.802   2.398   2.645
    1MOL     F1   21   2.682   3.031   2.534
    1MOL     F2   22   2.868   2.924   2.498
    1MOL     F3   23   2.725   2.951   2.336
    1MOL     H1   24   2.473   2.884   2.539
    1MOL     H2   25   2.843   2.672   2.482
    1MOL     H3   26   2.434   2.227   2.120
    1MOL     H4   27   2.267   2.252   2.068
    1MOL     H5   28   2.375   2.391   2.089
    1MOL     H6   29   2.434   2.178   2.725
    1MOL     H7   30   2.600   2.233   2.752
    1MOL     H8   31   2.483   2.236   2.885
    1MOL     H9   32   2.214   2.369   2.280
    1MOL    H10   33   2.273   2.205   2.311
    1MOL    H11   34   2.502   2.297   2.357
    1MOL    H12   35   2.443   2.459   2.325
    1MOL    H13   36   2.514   2.463   2.803
    1MOL    H14   37   2.349   2.410   2.768
    1MOL    H15   38   2.336   2.273   2.542
    1MOL    H16   39   2.279   2.436   2.517
   35SOL     OW   40   1.187   1.792   1.616
   35SOL    HW1   41   1.211   1.852   1.540
   35SOL    HW2   42   1.194   1.697   1.586
   95SOL     OW   43   1.754   1.223   1.588
   95SOL    HW1   44   1.845   1.184   1.575
   95SOL    HW2   45   1.762   1.319   1.612
   97SOL     OW   46   1.592   1.629   1.625
   97SOL    HW1   47   1.619   1.663   1.535
   97SOL    HW2   48   1.671   1.591   1.671
  127SOL     OW   49   1.859   1.518   1.605
  127SOL    HW1   50   1.873   1.545   1.510
  127SOL    HW2   51   1.942   1.540   1.658
  152SOL     OW   52   1.759   1.747   1.154
  152SOL    HW1   53   1.820   1.777   1.081
  152SOL    HW2   54   1.721   1.658   1.132
  163SOL     OW   55   1.650   1.720   1.394
  163SOL    HW1   56   1.703   1.730   1.310
  163SOL    HW2   57   1.623   1.810   1.428
  219SOL     OW   58   1.555   1.511   2.565
  219SOL    HW1   59   1.498   1.495   2.646
  219SOL    HW2   60   1.496   1.521   2.485
  227SOL     OW   61   1.460   1.505   3.201
  227SOL    HW1   62   1.484   1.599   3.227
  227SOL    HW2   63   1.444   1.451   3.283
  238SOL     OW   64   1.842   1.767   2.221
  238SOL    HW1   65   1.896   1.738   2.301
  238SOL    HW2   66   1.872   1.857   2.192
  240SOL     OW   67   1.689   0.922   2.474
  240SOL    HW1   68   1.784   0.893   2.482
  240SOL    HW2   69   1.681   0.987   2.399
  241SOL     OW   70   1.641   1.108   2.294
  241SOL    HW1   71   1.727   1.110   2.242
  241SOL    HW2   72   1.655   1.155   2.382
  248SOL     OW   73   1.187   1.792   3.478
  248SOL    HW1   74   1.211   1.852   3.402
  248SOL    HW2   75   1.194   1.697   3.448
  250SOL     OW   76   1.466   1.417   2.815
  250SOL    HW1   77   1.407   1.423   2.895
  250SOL    HW2   78   1.451   1.329   2.769
  251SOL     OW   79   1.667   1.714   2.434
  251SOL    HW1   80   1.626   1.691   2.346
  251SOL    HW2   81   1.649   1.640   2.499
  254SOL     OW   82   1.576   1.662   2.169
  254SOL    HW1   83   1.665   1.708   2.172
  254SOL    HW2   84   1.555   1.638   2.074
  264SOL     OW   85   1.362   1.144   2.407
  264SOL    HW1   86   1.445   1.115   2.359
  264SOL    HW2   87   1.313   1.211   2.351
  268SOL     OW   88   1.795   1.066   2.735
  268SOL    HW1   89   1.733   1.051   2.659
  268SOL    HW2   90   1.743   1.077   2.820
  273SOL     OW   91   1.111   1.776   2.099
  273SOL    HW1   92   1.051   1.714   2.149
  273SOL    HW2   93   1.142   1.732   2.014
  275SOL     OW   94   1.632   1.377   1.943
  275SOL    HW1   95   1.600   1.471   1.933
  275SOL    HW2   96   1.556   1.314   1.931
  279SOL     OW   97   0.940   1.698   2.766
  279SOL    HW1   98   1.020   1.641   2.787
  279SOL    HW2   99   0.891   1.658   2.689
  289SOL     OW  100   1.434   1.188   1.903
  289SOL    HW1  101   1.466   1.112   1.960
  289SOL    HW2  102   1.342   1.215   1.933
  293SOL     OW  103   1.227   1.570   2.655
  293SOL    HW1  104   1.248   1.644   2.590
  293SOL    HW2  105   1.295   1.570   2.728
  295SOL     OW  106   1.271   1.797   2.453
  295SOL    HW1  107   1.315   1.861   2.389
  295SOL    HW2  108   1.221   1.849   2.523
  301SOL     OW  109   1.429   1.173   2.729
  301SOL    HW1  110   1.374   1.089   2.722
  301SOL    HW2  111   1.455   1.202   2.637
  305SOL     OW  112   1.664   1.280   2.519
  305SOL    HW1  113   1.763   1.288   2.533
  305SOL    HW2  114   1.619   1.364   2.550
  308SOL     OW  115   1.754   1.223   3.450
  308SOL    HW1  116   1.845   1.184   3.437
  308SOL    HW2  117   1.762   1.319   3.474
  310SOL     OW  118   1.592   1.629   3.487
  310SOL    HW1  119   1.619   1.663   3.397
  310SOL    HW2  120   1.671   1.591   3.533
  312SOL     OW  121   1.638   1.099   2.941
  312SOL    HW1  122   1.643   1.180   3.000
  312SOL    HW2  123   1.552   1.101   2.890
  321SOL     OW  124   1.252   1.348   2.250
  321SOL    HW1  125   1.302   1.425   2.290
  321SOL    HW2  126   1.157   1.350   2.282
  322SOL     OW  127   1.272   1.445   3.004
  322SOL    HW1  128   1.319   1.458   3.091
  322SOL    HW2  129   1.206   1.371   3.013
  340SOL     OW  130   1.859   1.518   3.467
  340SOL    HW1  131   1.873   1.545   3.372
  340SOL    HW2  132   1.942   1.540   3.520
  365SOL     OW  133   1.759   1.747   3.016
  365SOL    HW1  134   1.820   1.777   2.943
  365SOL    HW2  135   1.721   1.658   2.994
  366SOL     OW  136   1.252   1.731   2.990
  366SOL    HW1  137   1.336   1.736   2.936
  366SOL    HW2  138   1.229   1.635   3.008
  370SOL     OW  139   1.388   1.573   2.339
  370SOL    HW1  140   1.455   1.585   2.265
  370SOL    HW2  141   1.348   1.662   2.362
  375SOL     OW  142   1.650   1.720   3.256
  375SOL    HW1  143   1.703   1.730   3.172
  375SOL    HW2  144   1.623   1.810   3.290
  378SOL     OW  145   1.194   1.612   1.893
  378SOL    HW1  146   1.200   1.519   1.930
  378SOL    HW2  147   1.135   1.612   1.813
  381SOL     OW  148   1.504   1.607   1.906
  381SOL    HW1  149   1.412   1.644   1.913
  381SOL    HW2  150   1.542   1.627   1.816
  383SOL     OW  151   1.614   1.292   3.151
  383SOL    HW1  152   1.674   1.295   3.231
  383SOL    HW2  153   1.539   1.356   3.164
  396SOL     OW  154   1.493   1.767   2.821
  396SOL    HW1  155   1.526   1.831   2.752
  396SOL    HW2  156   1.559   1.761   2.896
  409SOL     OW  157   1.861   1.569   2.713
  409SOL    HW1  158   1.790   1.557   2.643
  409SOL    HW2  159   1.862   1.490   2.773
  415SOL     OW  160   1.705   1.487   2.966
  415SOL    HW1  161   1.612   1.462   2.939
  415SOL    HW2  162   1.731   1.437   3.048
  580SOL     OW  163   0.850   2.660   1.823
  580SOL    HW1  164   0.846   2.736   1.888
  580SOL    HW2  165   0.872   2.696   1.732
  584SOL     OW  166   1.460   3.367   1.339
  584SOL    HW1  167   1.484   3.461   1.365
  584SOL    HW2  168   1.444   3.313   1.421
  588SOL     OW  169   1.127   3.203   1.690
  588SOL    HW1  170   1.174   3.203   1.778
  588SOL    HW2  171   1.079   3.116   1.679
  593SOL     OW  172   1.594   1.976   1.480
  593SOL    HW1  173   1.576   2.043   1.408
  593SOL    HW2  174   1.591   2.022   1.569
  601SOL     OW  175   1.293   3.090   1.423
  601SOL    HW1  176   1.330   3.017   1.365
  601SOL    HW2  177   1.345   3.095   1.508
  613SOL     OW  178   1.394   2.331   1.674
  613SOL    HW1  179   1.374   2.374   1.762
  613SOL    HW2  180   1.472   2.269   1.683
  620SOL     OW  181   1.719   2.447   1.831
  620SOL    HW1  182   1.693   2.536   1.795
  620SOL    HW2  183   1.717   2.379   1.758
  638SOL     OW  184   1.547   2.084   1.729
  638SOL    HW1  185   1.542   2.121   1.821
  638SOL    HW2  186   1.475   2.015   1.717
  642SOL     OW  187   1.351   2.452   1.433
  642SOL    HW1  188   1.379   2.409   1.518
  642SOL    HW2  189   1.376   2.548   1.434
  649SOL     OW  190   1.076   2.545   1.464
  649SOL    HW1  191   0.996   2.484   1.467
  649SOL    HW2  192   1.157   2.492   1.440
  665SOL     OW  193   1.754   3.085   1.588
  665SOL    HW1  194   1.845   3.046   1.575
  665SOL    HW2  195   1.762   3.181   1.612
  667SOL     OW  196   1.592   3.491   1.625
  667SOL    HW1  197   1.619   3.525   1.535
  667SOL    HW2  198   1.671   3.453   1.671
  669SOL     OW  199   1.638   2.961   1.079
  669SOL    HW1  200   1.643   3.042   1.138
  669SOL    HW2  201   1.552   2.963   1.028
  671SOL     OW  202   0.980   2.978   1.719
  671SOL    HW1  203   0.881   2.984   1.729
  671SOL    HW2  204   1.003   2.898   1.663
  674SOL     OW  205   1.274   2.248   1.262
  674SOL    HW1  206   1.295   2.322   1.326
  674SOL    HW2  207   1.185   2.265   1.219
  683SOL     OW  208   1.587   2.641   1.670
  683SOL    HW1  209   1.495   2.679   1.665
  683SOL    HW2  210   1.647   2.688   1.605
  684SOL     OW  211   1.013   1.967   1.770
  684SOL    HW1  212   1.019   2.052   1.718
  684SOL    HW2  213   1.045   1.891   1.713
  692SOL     OW  214   1.728   2.797   1.854
  692SOL    HW1  215   1.682   2.790   1.765
  692SOL    HW2  216   1.666   2.841   1.920
  697SOL     OW  217   1.859   3.380   1.605
  697SOL    HW1  218   1.873   3.407   1.510
  697SOL    HW2  219   1.942   3.402   1.658
  704SOL     OW  220   1.138   2.242   1.678
  704SOL    HW1  221   1.093   2.305   1.742
  704SOL    HW2  222   1.231   2.273   1.661
  705SOL     OW  223   1.160   2.069   1.477
  705SOL    HW1  224   1.160   2.133   1.554
  705SOL    HW2  225   1.188   2.117   1.394
  712SOL     OW  226   1.369   2.812   1.660
  712SOL    HW1  227   1.408   2.901   1.680
  712SOL    HW2  228   1.379   2.792   1.563
  714SOL     OW  229   1.657   2.466   1.206
  714SOL    HW1  230   1.619   2.397   1.268
  714SOL    HW2  231   1.739   2.430   1.162
  720SOL     OW  232   1.347   2.921   1.234
  720SOL    HW1  233   1.371   2.858   1.160
  720SOL    HW2  234   1.257   2.961   1.216
  733SOL     OW  235   1.650   3.582   1.394
  733SOL    HW1  236   1.703   3.592   1.310
  733SOL    HW2  237   1.623   3.672   1.428
  734SOL     OW  238   1.841   2.037   0.963
  734SOL    HW1  239   1.880   1.952   0.927
  734SOL    HW2  240   1.743   2.039   0.944
  741SOL     OW  241   1.614   3.154   1.289
  741SOL    HW1  242   1.674   3.157   1.369
  741SOL    HW2  243   1.539   3.218   1.302
  745SOL     OW  244   1.709   2.247   1.381
  745SOL    HW1  245   1.782   2.316   1.385
  745SOL    HW2  246   1.737   2.172   1.322
  750SOL     OW  247   1.440   2.718   1.398
  750SOL    HW1  248   1.383   2.770   1.335
  750SOL    HW2  249   1.536   2.730   1.374
  756SOL     OW  250   1.450   3.082   1.633
  756SOL    HW1  251   1.441   3.072   1.732
  756SOL    HW2  252   1.546   3.075   1.607
  758SOL     OW  253   1.674   2.745   1.254
  758SOL    HW1  254   1.647   2.656   1.217
  758SOL    HW2  255   1.675   2.813   1.181
  761SOL     OW  256   1.777   2.204   1.642
  761SOL    HW1  257   1.760   2.235   1.548
  761SOL    HW2  258   1.693   2.167   1.680
  762SOL     OW  259   1.730   2.796   1.517
  762SOL    HW1  260   1.768   2.887   1.532
  762SOL    HW2  261   1.722   2.779   1.418
  771SOL     OW  262   1.824   2.054   1.227
  771SOL    HW1  263   1.820   1.964   1.271
  771SOL    HW2  264   1.827   2.043   1.128
  789SOL     OW  265   1.555   3.373   2.565
  789SOL    HW1  266   1.498   3.357   2.646
  789SOL    HW2  267   1.496   3.383   2.485
  790SOL     OW  268   1.135   2.565   2.579
  790SOL    HW1  269   1.192   2.643   2.554
  790SOL    HW2  270   1.075   2.591   2.655
  791SOL     OW  271   1.755   2.469   2.093
  791SOL    HW1  272   1.743   2.456   1.994
  791SOL    HW2  273   1.725   2.388   2.142
  797SOL     OW  274   1.460   3.367   3.201
  797SOL    HW1  275   1.484   3.461   3.227
  797SOL    HW2  276   1.444   3.313   3.283
  799SOL     OW  277   1.603   2.309   2.599
  799SOL    HW1  278   1.529   2.355   2.549
  799SOL    HW2  279   1.654   2.377   2.652
  806SOL     OW  280   1.594   1.976   3.342
  806SOL    HW1  281   1.576   2.043   3.270
  806SOL    HW2  282   1.591   2.022   3.431
  808SOL     OW  283   1.842   3.629   2.221
  808SOL    HW1  284   1.896   3.600   2.301
  808SOL    HW2  285   1.872   3.719   2.192
  810SOL     OW  286   1.689   2.784   2.474
  810SOL    HW1  287   1.784   2.755   2.482
  810SOL    HW2  288   1.681   2.849   2.399
  811SOL     OW  289   1.641   2.970   2.294
  811SOL    HW1  290   1.727   2.972   2.242
  811SOL    HW2  291   1.655   3.017   2.382
  814SOL     OW  292   1.293   3.090   3.285
  814SOL    HW1  293   1.330   3.017   3.227
  814SOL    HW2  294   1.345   3.095   3.370
  817SOL     OW  295   1.525   2.861   2.052
  817SOL    HW1  296   1.462   2.785   2.065
  817SOL    HW2  297   1.573   2.879   2.138
  820SOL     OW  298   1.466   3.279   2.815
  820SOL    HW1  299   1.407   3.285   2.895
  820SOL    HW2  300   1.451   3.191   2.769
  821SOL     OW  301   1.667   3.576   2.434
  821SOL    HW1  302   1.626   3.553   2.346
  821SOL    HW2  303   1.649   3.502   2.499
  823SOL     OW  304   1.281   2.207   2.806
  823SOL    HW1  305   1.195   2.157   2.793
  823SOL    HW2  306   1.343   2.153   2.862
  824SOL     OW  307   1.576   3.524   2.169
  824SOL    HW1  308   1.665   3.570   2.172
  824SOL    HW2  309   1.555   3.500   2.074
  826SOL     OW  310   1.394   2.331   3.536
  826SOL    HW1  311   1.374   2.374   3.624
  826SOL    HW2  312   1.472   2.269   3.545
  828SOL     OW  313   0.991   2.272   3.104
  828SOL    HW1  314   0.914   2.306   3.158
  828SOL    HW2  315   0.957   2.221   3.025
  829SOL     OW  316   1.041   2.563   2.291
  829SOL    HW1  317   1.067   2.559   2.387
  829SOL    HW2  318   0.956   2.512   2.277
  832SOL     OW  319   0.865   2.210   2.057
  832SOL    HW1  320   0.924   2.273   2.008
  832SOL    HW2  321   0.884   2.116   2.028
  833SOL     OW  322   1.719   2.447   3.693
  833SOL    HW1  323   1.693   2.536   3.657
  833SOL    HW2  324   1.717   2.379   3.620
  834SOL     OW  325   1.362   3.006   2.407
  834SOL    HW1  326   1.445   2.977   2.359
  834SOL    HW2  327   1.313   3.073   2.351
  836SOL     OW  328   1.008   3.318   2.339
  836SOL    HW1  329   0.962   3.390   2.287
  836SOL    HW2  330   1.004   3.338   2.437
  838SOL     OW  331   1.795   2.928   2.735
  838SOL    HW1  332   1.733   2.913   2.659
  838SOL    HW2  333   1.743   2.939   2.820
  839SOL     OW  334   1.227   3.412   3.368
  839SOL    HW1  335   1.233   3.335   3.432
  839SOL    HW2  336   1.175   3.386   3.288
  841SOL     OW  337   1.458   2.597   2.590
  841SOL    HW1  338   1.453   2.532   2.665
  841SOL    HW2  339   1.538   2.656   2.603
  845SOL     OW  340   1.632   3.239   1.943
  845SOL    HW1  341   1.600   3.333   1.933
  845SOL    HW2  342   1.556   3.176   1.931
  847SOL     OW  343   1.400   1.969   2.288
  847SOL    HW1  344   1.376   1.932   2.198
  847SOL    HW2  345   1.499   1.985   2.292
  851SOL     OW  346   1.547   2.084   3.591
  851SOL    HW1  347   1.542   2.121   3.683
  851SOL    HW2  348   1.475   2.015   3.579
  855SOL     OW  349   1.351   2.452   3.295
  855SOL    HW1  350   1.379   2.409   3.380
  855SOL    HW2  351   1.376   2.548   3.296
  857SOL     OW  352   0.922   2.365   2.761
  857SOL    HW1  353   0.897   2.356   2.665
  857SOL    HW2  354   0.970   2.283   2.792
  859SOL     OW  355   1.434   3.050   1.903
  859SOL    HW1  356   1.466   2.974   1.960
  859SOL    HW2  357   1.342   3.077   1.933
  861SOL     OW  358   0.935   2.098   2.342
  861SOL    HW1  359   0.887   2.139   2.264
  861SOL    HW2  360   1.034   2.096   2.323
  862SOL     OW  361   1.076   2.545   3.326
  862SOL    HW1  362   0.996   2.484   3.329
  862SOL    HW2  363   1.157   2.492   3.302
  863SOL     OW  364   1.227   3.432   2.655
  863SOL    HW1  365   1.248   3.506   2.590
  863SOL    HW2  366   1.295   3.432   2.728
  865SOL     OW  367   1.271   3.659   2.453
  865SOL    HW1  368   1.315   3.723   2.389
  865SOL    HW2  369   1.221   3.711   2.523
  866SOL     OW  370   1.032   2.411   1.878
  866SOL    HW1  371   0.991   2.493   1.839
  866SOL    HW2  372   1.096   2.437   1.951
  869SOL     OW  373   0.866   2.316   2.504
  869SOL    HW1  374   0.834   2.388   2.442
  869SOL    HW2  375   0.890   2.235   2.451
  870SOL     OW  376   1.017   1.901   2.615
  870SOL    HW1  377   0.945   1.906   2.546
  870SOL    HW2  378   0.993   1.832   2.684
  871SOL     OW  379   1.429   3.035   2.729
  871SOL    HW1  380   1.374   2.951   2.722
  871SOL    HW2  381   1.455   3.064   2.637
  872SOL     OW  382   1.466   2.452   2.854
  872SOL    HW1  383   1.436   2.357   2.861
  872SOL    HW2  384   1.539   2.468   2.920
  873SOL     OW  385   1.857   2.695   2.239
  873SOL    HW1  386   1.899   2.631   2.303
  873SOL    HW2  387   1.819   2.644   2.161
  875SOL     OW  388   1.664   3.142   2.519
  875SOL    HW1  389   1.763   3.150   2.533
  875SOL    HW2  390   1.619   3.226   2.550
  876SOL     OW  391   1.390   2.437   1.940
  876SOL    HW1  392   1.336   2.416   2.021
  876SOL    HW2  393   1.481   2.396   1.949
  878SOL     OW  394   1.754   3.085   3.450
  878SOL    HW1  395   1.845   3.046   3.437
  878SOL    HW2  396   1.762   3.181   3.474
  879SOL     OW  397   1.064   3.209   3.202
  879SOL    HW1  398   0.984   3.186   3.257
  879SOL    HW2  399   1.147   3.183   3.251
  880SOL     OW  400   1.592   3.491   3.487
  880SOL    HW1  401   1.619   3.525   3.397
  880SOL    HW2  402   1.671   3.453   3.533
  881SOL     OW  403   1.111   3.057   2.962
  881SOL    HW1  404   1.071   3.101   3.043
  881SOL    HW2  405   1.070   3.094   2.879
  882SOL     OW  406   1.638   2.961   2.941
  882SOL    HW1  407   1.643   3.042   3.000
  882SOL    HW2  408   1.552   2.963   2.890
  887SOL     OW  409   1.274   2.248   3.124
  887SOL    HW1  410   1.295   2.322   3.188
  887SOL    HW2  411   1.185   2.265   3.081
  891SOL     OW  412   1.252   3.210   2.250
  891SOL    HW1  413   1.302   3.287   2.290
  891SOL    HW2  414   1.157   3.212   2.282
  892SOL     OW  415   1.272   3.307   3.004
  892SOL    HW1  416   1.319   3.320   3.091
  892SOL    HW2  417   1.206   3.233   3.013
  893SOL     OW  418   1.582   2.501   2.334
  893SOL    HW1  419   1.551   2.562   2.407
  893SOL    HW2  420   1.632   2.553   2.265
  896SOL     OW  421   1.587   2.641   3.532
  896SOL    HW1  422   1.495   2.679   3.527
  896SOL    HW2  423   1.647   2.688   3.467
  900SOL     OW  424   1.360   2.724   2.907
  900SOL    HW1  425   1.285   2.724   2.841
  900SOL    HW2  426   1.397   2.632   2.916
  901SOL     OW  427   1.209   2.387   2.137
  901SOL    HW1  428   1.222   2.303   2.191
  901SOL    HW2  429   1.180   2.461   2.197
  905SOL     OW  430   1.728   2.797   3.716
  905SOL    HW1  431   1.682   2.790   3.627
  905SOL    HW2  432   1.666   2.841   3.782
  907SOL     OW  433   1.622   2.229   2.236
  907SOL    HW1  434   1.624   2.153   2.300
  907SOL    HW2  435   1.574   2.306   2.276
  908SOL     OW  436   1.023   2.628   2.828
  908SOL    HW1  437   1.038   2.649   2.924
  908SOL    HW2  438   0.993   2.533   2.819
  910SOL     OW  439   1.859   3.380   3.467
  910SOL    HW1  440   1.873   3.407   3.372
  910SOL    HW2  441   1.942   3.402   3.520
  912SOL     OW  442   1.540   2.136   1.987
  912SOL    HW1  443   1.479   2.061   2.010
  912SOL    HW2  444   1.562   2.188   2.070
  913SOL     OW  445   1.303   2.700   1.904
  913SOL    HW1  446   1.337   2.607   1.919
  913SOL    HW2  447   1.321   2.727   1.809
  914SOL     OW  448   1.068   3.195   2.711
  914SOL    HW1  449   1.075   3.111   2.656
  914SOL    HW2  450   1.130   3.264   2.675
  917SOL     OW  451   1.138   2.242   3.540
  917SOL    HW1  452   1.093   2.305   3.604
  917SOL    HW2  453   1.231   2.273   3.523
  918SOL     OW  454   1.160   2.069   3.339
  918SOL    HW1  455   1.160   2.133   3.416
  918SOL    HW2  456   1.188   2.117   3.256
  922SOL     OW  457   1.002   2.658   3.100
  922SOL    HW1  458   1.043   2.626   3.186
  922SOL    HW2  459   0.906   2.631   3.097
  925SOL     OW  460   1.369   2.812   3.522
  925SOL    HW1  461   1.408   2.901   3.542
  925SOL    HW2  462   1.379   2.792   3.425
  926SOL     OW  463   0.815   2.434   2.187
  926SOL    HW1  464   0.822   2.345   2.141
  926SOL    HW2  465   0.721   2.468   2.179
  927SOL     OW  466   1.657   2.466   3.068
  927SOL    HW1  467   1.619   2.397   3.130
  927SOL    HW2  468   1.739   2.430   3.024
  933SOL     OW  469   1.347   2.921   3.096
  933SOL    HW1  470   1.371   2.858   3.022
  933SOL    HW2  471   1.257   2.961   3.078
  934SOL     OW  472   1.302   2.717   2.171
  934SOL    HW1  473   1.216   2.686   2.213
  934SOL    HW2  474   1.298   2.703   2.072
  935SOL     OW  475   1.759   3.609   3.016
  935SOL    HW1  476   1.820   3.639   2.943
  935SOL    HW2  477   1.721   3.520   2.994
  936SOL     OW  478   1.252   3.593   2.990
  936SOL    HW1  479   1.336   3.598   2.936
  936SOL    HW2  480   1.229   3.497   3.008
  939SOL     OW  481   1.726   1.997   2.385
  939SOL    HW1  482   1.799   1.980   2.318
  939SOL    HW2  483   1.695   1.910   2.423
  940SOL     OW  484   1.388   3.435   2.339
  940SOL    HW1  485   1.455   3.447   2.265
  940SOL    HW2  486   1.348   3.524   2.362
  942SOL     OW  487   1.280   2.789   2.534
  942SOL    HW1  488   1.340   2.708   2.536
  942SOL    HW2  489   1.320   2.858   2.474
  945SOL     OW  490   1.650   3.582   3.256
  945SOL    HW1  491   1.703   3.592   3.172
  945SOL    HW2  492   1.623   3.672   3.290
  946SOL     OW  493   1.841   2.037   2.825
  946SOL    HW1  494   1.880   1.952   2.789
  946SOL    HW2  495   1.743   2.039   2.806
  948SOL     OW  496   1.194   3.474   1.893
  948SOL    HW1  497   1.200   3.381   1.930
  948SOL    HW2  498   1.135   3.474   1.813
  950SOL     OW  499   0.916   2.772   2.153
  950SOL    HW1  500   0.979   2.810   2.085
  950SOL    HW2  501   0.956   2.689   2.192
  951SOL     OW  502   1.504   3.469   1.906
  951SOL    HW1  503   1.412   3.506   1.913
  951SOL    HW2  504   1.542   3.489   1.816
  953SOL     OW  505   1.614   3.154   3.151
  953SOL    HW1  506   1.674   3.157   3.231
  953SOL    HW2  507   1.539   3.218   3.164
  954SOL     OW  508   1.039   2.960   2.558
  954SOL    HW1  509   0.969   2.913   2.612
  954SOL    HW2  510   1.098   2.892   2.515
  955SOL     OW  511   1.014   2.098   2.833
  955SOL    HW1  512   1.006   2.062   2.740
  955SOL    HW2  513   1.012   2.022   2.898
  957SOL     OW  514   1.709   2.247   3.243
  957SOL    HW1  515   1.782   2.316   3.247
  957SOL    HW2  516   1.737   2.172   3.184
  962SOL     OW  517   1.440   2.718   3.260
  962SOL    HW1  518   1.383   2.770   3.197
  962SOL    HW2  519   1.536   2.730   3.236
  964SOL     OW  520   1.183   3.197   1.981
  964SOL    HW1  521   1.084   3.186   1.983
  964SOL    HW2  522   1.217   3.212   2.074
  966SOL     OW  523   1.493   3.629   2.821
  966SOL    HW1  524   1.526   3.693   2.752
  966SOL    HW2  525   1.559   3.623   2.896
  968SOL     OW  526   1.450   3.082   3.495
  968SOL    HW1  527   1.441   3.072   3.594
  968SOL    HW2  528   1.546   3.075   3.469
  970SOL     OW  529   1.674   2.745   3.116
  970SOL    HW1  530   1.647   2.656   3.079
  970SOL    HW2  531   1.675   2.813   3.043
  971SOL     OW  532   1.225   2.187   2.311
  971SOL    HW1  533   1.290   2.113   2.300
  971SOL    HW2  534   1.245   2.237   2.395
  973SOL     OW  535   1.777   2.204   3.504
  973SOL    HW1  536   1.760   2.235   3.410
  973SOL    HW2  537   1.693   2.167   3.542
  974SOL     OW  538   1.730   2.796   3.379
  974SOL    HW1  539   1.768   2.887   3.394
  974SOL    HW2  540   1.722   2.779   3.280
  977SOL     OW  541   0.859   2.818   2.723
  977SOL    HW1  542   0.913   2.749   2.771
  977SOL    HW2  543   0.827   2.887   2.789
  978SOL     OW  544   1.083   2.846   1.949
  978SOL    HW1  545   1.060   2.899   1.867
  978SOL    HW2  546   1.164   2.790   1.930
  979SOL     OW  547   1.861   3.431   2.713
  979SOL    HW1  548   1.790   3.419   2.643
  979SOL    HW2  549   1.862   3.352   2.773
  983SOL     OW  550   1.824   2.054   3.089
  983SOL    HW1  551   1.820   1.964   3.133
  983SOL    HW2  552   1.827   2.043   2.990
  985SOL     OW  553   1.705   3.349   2.966
  985SOL    HW1  554   1.612   3.324   2.939
  985SOL    HW2  555   1.731   3.299   3.048
  988SOL     OW  556   1.424   2.076   2.974
  988SOL    HW1  557   1.476   2.011   3.029
  988SOL    HW2  558   1.375   2.139   3.035
  989SOL     OW  559   1.001   1.896   3.016
  989SOL    HW1  560   0.938   1.824   2.985
  989SOL    HW2  561   1.094   1.860   3.016
  992SOL     OW  562   1.352   1.914   2.030
  992SOL    HW1  563   1.387   1.873   1.946
  992SOL    HW2  564   1.262   1.876   2.050
  993SOL     OW  565   1.300   2.315   2.553
  993SOL    HW1  566   1.241   2.395   2.557
  993SOL    HW2  567   1.315   2.280   2.646
  994SOL     OW  568   1.593   2.083   2.744
  994SOL    HW1  569   1.509   2.082   2.798
  994SOL    HW2  570   1.595   2.166   2.688
 1003SOL     OW  571   1.755   2.469   3.955
 1003SOL    HW1  572   1.743   2.456   3.856
 1003SOL    HW2  573   1.725   2.388   4.004
 1020SOL     OW  574   1.525   2.861   3.914
 1020SOL    HW1  575   1.462   2.785   3.927
 1020SOL    HW2  576   1.573   2.879   4.000
 1037SOL     OW  577   1.632   3.239   3.805
 1037SOL    HW1  578   1.600   3.333   3.795
 1037SOL    HW2  579   1.556   3.176   3.793
 1047SOL     OW  580   1.434   3.050   3.765
 1047SOL    HW1  581   1.466   2.974   3.822
 1047SOL    HW2  582   1.342   3.077   3.795
 1058SOL     OW  583   1.857   2.695   4.101
 1058SOL    HW1  584   1.899   2.631   4.165
 1058SOL    HW2  585   1.819   2.644   4.023
 1061SOL     OW  586   1.390   2.437   3.802
 1061SOL    HW1  587   1.336   2.416   3.883
 1061SOL    HW2  588   1.481   2.396   3.811
 1081SOL     OW  589   1.540   2.136   3.849
 1081SOL    HW1  590   1.479   2.061   3.872
 1081SOL    HW2  591   1.562   2.188   3.932
 1082SOL     OW  592   1.303   2.700   3.766
 1082SOL    HW1  593   1.337   2.607   3.781
 1082SOL    HW2  594   1.321   2.727   3.671
 1324SOL     OW  595   1.400   3.831   2.288
 1324SOL    HW1  596   1.376   3.794   2.198
 1324SOL    HW2  597   1.499   3.847   2.292
 1390SOL     OW  598   1.726   3.859   2.385
 1390SOL    HW1  599   1.799   3.842   2.318
 1390SOL    HW2  600   1.695   3.772   2.423
 1392SOL     OW  601   1.841   3.899   2.825
 1392SOL    HW1  602   1.880   3.814   2.789
 1392SOL    HW2  603   1.743   3.901   2.806
 1417SOL     OW  604   1.824   3.916   3.089
 1417SOL    HW1  605   1.820   3.826   3.133
 1417SOL    HW2  606   1.827   3.905   2.990
 1423SOL     OW  607   1.352   3.776   2.030
 1423SOL    HW1  608   1.387   3.735   1.946
 1423SOL    HW2  609   1.262   3.738   2.050
 1425SOL     OW  610   1.593   3.945   2.744
 1425SOL    HW1  611   1.509   3.944   2.798
 1425SOL    HW2  612   1.595   4.028   2.688
 1537SOL     OW  613   2.548   1.161   1.803
 1537SOL    HW1  614   2.608   1.240   1.817
 1537SOL    HW2  615   2.462   1.192   1.762
 1539SOL     OW  616   3.322   1.505   1.339
 1539SOL    HW1  617   3.346   1.599   1.365
 1539SOL    HW2  618   3.306   1.451   1.421
 1543SOL     OW  619   2.989   1.341   1.690
 1543SOL    HW1  620   3.036   1.341   1.778
 1543SOL    HW2  621   2.941   1.254   1.679
 1546SOL     OW  622   2.482   1.786   1.439
 1546SOL    HW1  623   2.390   1.769   1.474
 1546SOL    HW2  624   2.510   1.878   1.465
 1556SOL     OW  625   3.155   1.228   1.423
 1556SOL    HW1  626   3.192   1.155   1.365
 1556SOL    HW2  627   3.207   1.233   1.508
 1560SOL     OW  628   3.049   1.792   1.616
 1560SOL    HW1  629   3.073   1.852   1.540
 1560SOL    HW2  630   3.056   1.697   1.586
 1573SOL     OW  631   1.992   1.821   1.571
 1573SOL    HW1  632   1.982   1.806   1.670
 1573SOL    HW2  633   1.906   1.857   1.535
 1581SOL     OW  634   3.089   1.550   1.506
 1581SOL    HW1  635   3.095   1.473   1.570
 1581SOL    HW2  636   3.037   1.524   1.426
 1584SOL     OW  637   2.323   1.266   1.727
 1584SOL    HW1  638   2.273   1.267   1.641
 1584SOL    HW2  639   2.260   1.248   1.803
 1590SOL     OW  640   2.111   1.785   1.241
 1590SOL    HW1  641   2.168   1.720   1.291
 1590SOL    HW2  642   2.095   1.752   1.148
 1596SOL     OW  643   2.750   1.514   1.195
 1596SOL    HW1  644   2.727   1.489   1.101
 1596SOL    HW2  645   2.811   1.445   1.234
 1621SOL     OW  646   2.926   1.347   1.340
 1621SOL    HW1  647   2.846   1.324   1.395
 1621SOL    HW2  648   3.009   1.321   1.389
 1622SOL     OW  649   3.454   1.629   1.625
 1622SOL    HW1  650   3.481   1.663   1.535
 1622SOL    HW2  651   3.533   1.591   1.671
 1626SOL     OW  652   2.842   1.116   1.719
 1626SOL    HW1  653   2.743   1.122   1.729
 1626SOL    HW2  654   2.865   1.036   1.663
 1630SOL     OW  655   1.926   1.564   1.331
 1630SOL    HW1  656   1.880   1.646   1.297
 1630SOL    HW2  657   2.024   1.583   1.340
 1636SOL     OW  658   2.216   1.510   1.329
 1636SOL    HW1  659   2.195   1.466   1.242
 1636SOL    HW2  660   2.313   1.536   1.332
 1651SOL     OW  661   2.842   1.573   1.700
 1651SOL    HW1  662   2.822   1.617   1.612
 1651SOL    HW2  663   2.881   1.482   1.684
 1653SOL     OW  664   2.212   0.898   1.804
 1653SOL    HW1  665   2.288   0.942   1.852
 1653SOL    HW2  666   2.247   0.851   1.722
 1670SOL     OW  667   2.114   1.564   1.744
 1670SOL    HW1  668   2.084   1.621   1.820
 1670SOL    HW2  669   2.107   1.467   1.770
 1672SOL     OW  670   2.792   1.678   1.465
 1672SOL    HW1  671   2.768   1.660   1.370
 1672SOL    HW2  672   2.822   1.772   1.475
 1674SOL     OW  673   2.021   1.137   1.466
 1674SOL    HW1  674   2.043   1.076   1.542
 1674SOL    HW2  675   2.031   1.088   1.380
 1678SOL     OW  676   3.114   1.731   1.128
 1678SOL    HW1  677   3.198   1.736   1.074
 1678SOL    HW2  678   3.091   1.635   1.146
 1680SOL     OW  679   2.550   1.662   1.716
 1680SOL    HW1  680   2.494   1.743   1.725
 1680SOL    HW2  681   2.602   1.666   1.630
 1684SOL     OW  682   1.992   1.794   1.851
 1684SOL    HW1  683   1.951   1.720   1.904
 1684SOL    HW2  684   2.056   1.845   1.909
 1686SOL     OW  685   2.692   1.273   1.422
 1686SOL    HW1  686   2.687   1.306   1.517
 1686SOL    HW2  687   2.606   1.292   1.376
 1688SOL     OW  688   3.512   1.720   1.394
 1688SOL    HW1  689   3.565   1.730   1.310
 1688SOL    HW2  690   3.485   1.810   1.428
 1695SOL     OW  691   2.234   1.288   1.490
 1695SOL    HW1  692   2.221   1.381   1.456
 1695SOL    HW2  693   2.150   1.236   1.477
 1702SOL     OW  694   1.967   1.013   1.726
 1702SOL    HW1  695   1.890   0.980   1.780
 1702SOL    HW2  696   2.052   0.983   1.768
 1710SOL     OW  697   3.312   1.220   1.633
 1710SOL    HW1  698   3.303   1.210   1.732
 1710SOL    HW2  699   3.408   1.213   1.607
 1711SOL     OW  700   2.252   1.741   1.560
 1711SOL    HW1  701   2.161   1.782   1.558
 1711SOL    HW2  702   2.245   1.647   1.592
 1718SOL     OW  703   2.523   1.790   0.953
 1718SOL    HW1  704   2.477   1.878   0.940
 1718SOL    HW2  705   2.622   1.802   0.946
 1722SOL     OW  706   2.083   1.314   1.844
 1722SOL    HW1  707   2.018   1.241   1.823
 1722SOL    HW2  708   2.087   1.328   1.942
 1724SOL     OW  709   2.534   1.391   1.624
 1724SOL    HW1  710   2.456   1.341   1.662
 1724SOL    HW2  711   2.531   1.486   1.655
 1733SOL     OW  712   2.480   1.567   1.284
 1733SOL    HW1  713   2.475   1.649   1.341
 1733SOL    HW2  714   2.569   1.564   1.239
 1741SOL     OW  715   2.431   1.275   3.027
 1741SOL    HW1  716   2.338   1.268   2.990
 1741SOL    HW2  717   2.442   1.364   3.071
 1742SOL     OW  718   3.417   1.511   2.565
 1742SOL    HW1  719   3.360   1.495   2.646
 1742SOL    HW2  720   3.358   1.521   2.485
 1745SOL     OW  721   2.630   1.144   2.885
 1745SOL    HW1  722   2.552   1.161   2.945
 1745SOL    HW2  723   2.664   1.231   2.849
 1747SOL     OW  724   2.547   1.012   2.527
 1747SOL    HW1  725   2.616   0.996   2.597
 1747SOL    HW2  726   2.474   1.069   2.565
 1748SOL     OW  727   2.548   1.161   3.665
 1748SOL    HW1  728   2.608   1.240   3.679
 1748SOL    HW2  729   2.462   1.192   3.624
 1749SOL     OW  730   2.197   1.435   2.923
 1749SOL    HW1  731   2.119   1.404   2.870
 1749SOL    HW2  732   2.255   1.493   2.866
 1750SOL     OW  733   3.322   1.505   3.201
 1750SOL    HW1  734   3.346   1.599   3.227
 1750SOL    HW2  735   3.306   1.451   3.283
 1753SOL     OW  736   2.093   1.713   2.345
 1753SOL    HW1  737   2.127   1.790   2.399
 1753SOL    HW2  738   2.137   1.713   2.255
 1754SOL     OW  739   2.989   1.341   3.552
 1754SOL    HW1  740   3.036   1.341   3.640
 1754SOL    HW2  741   2.941   1.254   3.541
 1755SOL     OW  742   2.092   1.434   2.400
 1755SOL    HW1  743   2.066   1.530   2.400
 1755SOL    HW2  744   2.021   1.380   2.445
 1756SOL     OW  745   2.102   1.091   2.748
 1756SOL    HW1  746   2.116   1.007   2.800
 1756SOL    HW2  747   2.047   1.155   2.803
 1757SOL     OW  748   2.482   1.786   3.301
 1757SOL    HW1  749   2.390   1.769   3.336
 1757SOL    HW2  750   2.510   1.878   3.327
 1758SOL     OW  751   2.468   0.964   1.985
 1758SOL    HW1  752   2.475   1.048   1.931
 1758SOL    HW2  753   2.514   0.977   2.073
 1761SOL     OW  754   3.704   1.767   2.221
 1761SOL    HW1  755   3.758   1.738   2.301
 1761SOL    HW2  756   3.734   1.857   2.192
 1762SOL     OW  757   1.889   1.596   1.979
 1762SOL    HW1  758   1.870   1.500   2.000
 1762SOL    HW2  759   1.856   1.654   2.054
 1764SOL     OW  760   3.503   1.108   2.294
 1764SOL    HW1  761   3.589   1.110   2.242
 1764SOL    HW2  762   3.517   1.155   2.382
 1766SOL     OW  763   2.475   1.365   2.588
 1766SOL    HW1  764   2.426   1.278   2.597
 1766SOL    HW2  765   2.452   1.408   2.501
 1767SOL     OW  766   3.155   1.228   3.285
 1767SOL    HW1  767   3.192   1.155   3.227
 1767SOL    HW2  768   3.207   1.233   3.370
 1769SOL     OW  769   2.059   0.976   3.126
 1769SOL    HW1  770   2.148   0.931   3.112
 1769SOL    HW2  771   1.986   0.911   3.107
 1771SOL     OW  772   3.049   1.792   3.478
 1771SOL    HW1  773   3.073   1.852   3.402
 1771SOL    HW2  774   3.056   1.697   3.448
 1773SOL     OW  775   3.328   1.417   2.815
 1773SOL    HW1  776   3.269   1.423   2.895
 1773SOL    HW2  777   3.313   1.329   2.769
 1774SOL     OW  778   3.529   1.714   2.434
 1774SOL    HW1  779   3.488   1.691   2.346
 1774SOL    HW2  780   3.511   1.640   2.499
 1777SOL     OW  781   3.438   1.662   2.169
 1777SOL    HW1  782   3.527   1.708   2.172
 1777SOL    HW2  783   3.417   1.638   2.074
 1783SOL     OW  784   1.938   0.811   2.651
 1783SOL    HW1  785   2.037   0.799   2.660
 1783SOL    HW2  786   1.914   0.906   2.672
 1784SOL     OW  787   1.992   1.821   3.433
 1784SOL    HW1  788   1.982   1.806   3.532
 1784SOL    HW2  789   1.906   1.857   3.397
 1787SOL     OW  790   3.224   1.144   2.407
 1787SOL    HW1  791   3.307   1.115   2.359
 1787SOL    HW2  792   3.175   1.211   2.351
 1789SOL     OW  793   2.870   1.456   2.339
 1789SOL    HW1  794   2.824   1.528   2.287
 1789SOL    HW2  795   2.866   1.476   2.437
 1790SOL     OW  796   2.213   1.801   2.715
 1790SOL    HW1  797   2.263   1.715   2.721
 1790SOL    HW2  798   2.278   1.878   2.712
 1792SOL     OW  799   3.089   1.550   3.368
 1792SOL    HW1  800   3.095   1.473   3.432
 1792SOL    HW2  801   3.037   1.524   3.288
 1793SOL     OW  802   2.183   0.943   2.104
 1793SOL    HW1  803   2.265   0.982   2.062
 1793SOL    HW2  804   2.156   0.861   2.055
 1795SOL     OW  805   2.323   1.266   3.589
 1795SOL    HW1  806   2.273   1.267   3.503
 1795SOL    HW2  807   2.260   1.248   3.665
 1796SOL     OW  808   2.973   1.776   2.099
 1796SOL    HW1  809   2.913   1.714   2.149
 1796SOL    HW2  810   3.004   1.732   2.014
 1798SOL     OW  811   3.494   1.377   1.943
 1798SOL    HW1  812   3.462   1.471   1.933
 1798SOL    HW2  813   3.418   1.314   1.931
 1799SOL     OW  814   2.326   1.743   2.185
 1799SOL    HW1  815   2.359   1.782   2.271
 1799SOL    HW2  816   2.402   1.736   2.120
 1801SOL     OW  817   2.111   1.785   3.103
 1801SOL    HW1  818   2.168   1.720   3.153
 1801SOL    HW2  819   2.095   1.752   3.010
 1802SOL     OW  820   2.802   1.698   2.766
 1802SOL    HW1  821   2.882   1.641   2.787
 1802SOL    HW2  822   2.753   1.658   2.689
 1807SOL     OW  823   2.750   1.514   3.057
 1807SOL    HW1  824   2.727   1.489   2.963
 1807SOL    HW2  825   2.811   1.445   3.096
 1809SOL     OW  826   2.665   1.402   2.786
 1809SOL    HW1  827   2.755   1.416   2.744
 1809SOL    HW2  828   2.594   1.404   2.715
 1812SOL     OW  829   3.296   1.188   1.903
 1812SOL    HW1  830   3.328   1.112   1.960
 1812SOL    HW2  831   3.204   1.215   1.933
 1816SOL     OW  832   3.089   1.570   2.655
 1816SOL    HW1  833   3.110   1.644   2.590
 1816SOL    HW2  834   3.157   1.570   2.728
 1817SOL     OW  835   2.321   1.152   2.603
 1817SOL    HW1  836   2.250   1.125   2.668
 1817SOL    HW2  837   2.295   1.124   2.510
 1818SOL     OW  838   3.133   1.797   2.453
 1818SOL    HW1  839   3.177   1.861   2.389
 1818SOL    HW2  840   3.083   1.849   2.523
 1824SOL     OW  841   3.291   1.173   2.729
 1824SOL    HW1  842   3.236   1.089   2.722
 1824SOL    HW2  843   3.317   1.202   2.637
 1827SOL     OW  844   2.350   1.385   2.036
 1827SOL    HW1  845   2.263   1.370   2.083
 1827SOL    HW2  846   2.333   1.411   1.941
 1828SOL     OW  847   3.526   1.280   2.519
 1828SOL    HW1  848   3.625   1.288   2.533
 1828SOL    HW2  849   3.481   1.364   2.550
 1832SOL     OW  850   2.926   1.347   3.202
 1832SOL    HW1  851   2.846   1.324   3.257
 1832SOL    HW2  852   3.009   1.321   3.251
 1833SOL     OW  853   3.454   1.629   3.487
 1833SOL    HW1  854   3.481   1.663   3.397
 1833SOL    HW2  855   3.533   1.591   3.533
 1834SOL     OW  856   2.973   1.195   2.962
 1834SOL    HW1  857   2.933   1.239   3.043
 1834SOL    HW2  858   2.932   1.232   2.879
 1835SOL     OW  859   3.500   1.099   2.941
 1835SOL    HW1  860   3.505   1.180   3.000
 1835SOL    HW2  861   3.414   1.101   2.890
 1837SOL     OW  862   2.842   1.116   3.581
 1837SOL    HW1  863   2.743   1.122   3.591
 1837SOL    HW2  864   2.865   1.036   3.525
 1838SOL     OW  865   2.567   1.050   2.230
 1838SOL    HW1  866   2.553   1.057   2.329
 1838SOL    HW2  867   2.651   0.999   2.212
 1841SOL     OW  868   1.926   1.564   3.193
 1841SOL    HW1  869   1.880   1.646   3.159
 1841SOL    HW2  870   2.024   1.583   3.202
 1842SOL     OW  871   2.229   1.100   2.363
 1842SOL    HW1  872   2.222   1.183   2.307
 1842SOL    HW2  873   2.233   1.020   2.303
 1844SOL     OW  874   3.114   1.348   2.250
 1844SOL    HW1  875   3.164   1.425   2.290
 1844SOL    HW2  876   3.019   1.350   2.282
 1845SOL     OW  877   3.134   1.445   3.004
 1845SOL    HW1  878   3.181   1.458   3.091
 1845SOL    HW2  879   3.068   1.371   3.013
 1847SOL     OW  880   2.216   1.510   3.191
 1847SOL    HW1  881   2.195   1.466   3.104
 1847SOL    HW2  882   2.313   1.536   3.194
 1852SOL     OW  883   2.435   0.870   2.891
 1852SOL    HW1  884   2.479   0.959   2.882
 1852SOL    HW2  885   2.372   0.870   2.968
 1856SOL     OW  886   1.899   1.310   3.144
 1856SOL    HW1  887   1.952   1.261   3.212
 1856SOL    HW2  888   1.921   1.408   3.149
 1862SOL     OW  889   2.842   1.573   3.562
 1862SOL    HW1  890   2.822   1.617   3.474
 1862SOL    HW2  891   2.881   1.482   3.546
 1867SOL     OW  892   2.930   1.333   2.711
 1867SOL    HW1  893   2.937   1.249   2.656
 1867SOL    HW2  894   2.992   1.402   2.675
 1868SOL     OW  895   2.181   0.810   2.811
 1868SOL    HW1  896   2.274   0.846   2.816
 1868SOL    HW2  897   2.175   0.725   2.863
 1872SOL     OW  898   1.870   1.326   2.062
 1872SOL    HW1  899   1.777   1.347   2.031
 1872SOL    HW2  900   1.880   1.227   2.075
 1873SOL     OW  901   1.950   1.801   2.789
 1873SOL    HW1  902   1.908   1.715   2.762
 1873SOL    HW2  903   2.044   1.804   2.755
 1874SOL     OW  904   2.366   1.568   2.772
 1874SOL    HW1  905   2.432   1.642   2.781
 1874SOL    HW2  906   2.410   1.489   2.730
 1881SOL     OW  907   2.114   1.564   3.606
 1881SOL    HW1  908   2.084   1.621   3.682
 1881SOL    HW2  909   2.107   1.467   3.632
 1883SOL     OW  910   2.792   1.678   3.327
 1883SOL    HW1  911   2.768   1.660   3.232
 1883SOL    HW2  912   2.822   1.772   3.337
 1885SOL     OW  913   2.021   1.137   3.328
 1885SOL    HW1  914   2.043   1.076   3.404
 1885SOL    HW2  915   2.031   1.088   3.242
 1886SOL     OW  916   3.209   1.059   3.096
 1886SOL    HW1  917   3.233   0.996   3.022
 1886SOL    HW2  918   3.119   1.099   3.078
 1888SOL     OW  919   3.621   1.747   3.016
 1888SOL    HW1  920   3.682   1.777   2.943
 1888SOL    HW2  921   3.583   1.658   2.994
 1889SOL     OW  922   3.114   1.731   2.990
 1889SOL    HW1  923   3.198   1.736   2.936
 1889SOL    HW2  924   3.091   1.635   3.008
 1890SOL     OW  925   1.945   1.258   2.884
 1890SOL    HW1  926   1.940   1.257   2.984
 1890SOL    HW2  927   1.862   1.217   2.846
 1891SOL     OW  928   2.550   1.662   3.578
 1891SOL    HW1  929   2.494   1.743   3.587
 1891SOL    HW2  930   2.602   1.666   3.492
 1893SOL     OW  931   3.250   1.573   2.339
 1893SOL    HW1  932   3.317   1.585   2.265
 1893SOL    HW2  933   3.210   1.662   2.362
 1894SOL     OW  934   1.992   1.794   3.713
 1894SOL    HW1  935   1.951   1.720   3.766
 1894SOL    HW2  936   2.056   1.845   3.771
 1895SOL     OW  937   3.142   0.927   2.534
 1895SOL    HW1  938   3.202   0.846   2.536
 1895SOL    HW2  939   3.182   0.996   2.474
 1896SOL     OW  940   2.692   1.273   3.284
 1896SOL    HW1  941   2.687   1.306   3.379
 1896SOL    HW2  942   2.606   1.292   3.238
 1897SOL     OW  943   2.534   1.616   2.016
 1897SOL    HW1  944   2.543   1.626   1.917
 1897SOL    HW2  945   2.494   1.527   2.037
 1898SOL     OW  946   3.512   1.720   3.256
 1898SOL    HW1  947   3.565   1.730   3.172
 1898SOL    HW2  948   3.485   1.810   3.290
 1901SOL     OW  949   3.056   1.612   1.893
 1901SOL    HW1  950   3.062   1.519   1.930
 1901SOL    HW2  951   2.997   1.612   1.813
 1902SOL     OW  952   2.684   1.002   3.234
 1902SOL    HW1  953   2.724   1.001   3.142
 1902SOL    HW2  954   2.694   1.094   3.274
 1903SOL     OW  955   2.778   0.910   2.153
 1903SOL    HW1  956   2.841   0.948   2.085
 1903SOL    HW2  957   2.818   0.827   2.192
 1904SOL     OW  958   3.366   1.607   1.906
 1904SOL    HW1  959   3.274   1.644   1.913
 1904SOL    HW2  960   3.404   1.627   1.816
 1905SOL     OW  961   2.234   1.288   3.352
 1905SOL    HW1  962   2.221   1.381   3.318
 1905SOL    HW2  963   2.150   1.236   3.339
 1906SOL     OW  964   3.476   1.292   3.151
 1906SOL    HW1  965   3.536   1.295   3.231
 1906SOL    HW2  966   3.401   1.356   3.164
 1907SOL     OW  967   2.901   1.098   2.558
 1907SOL    HW1  968   2.831   1.051   2.612
 1907SOL    HW2  969   2.960   1.030   2.515
 1909SOL     OW  970   2.452   1.487   2.353
 1909SOL    HW1  971   2.494   1.429   2.283
 1909SOL    HW2  972   2.408   1.566   2.309
 1911SOL     OW  973   2.117   1.348   2.152
 1911SOL    HW1  974   2.021   1.349   2.125
 1911SOL    HW2  975   2.129   1.401   2.236
 1917SOL     OW  976   3.045   1.335   1.981
 1917SOL    HW1  977   2.946   1.324   1.983
 1917SOL    HW2  978   3.079   1.350   2.074
 1919SOL     OW  979   3.355   1.767   2.821
 1919SOL    HW1  980   3.388   1.831   2.752
 1919SOL    HW2  981   3.421   1.761   2.896
 1922SOL     OW  982   2.252   1.741   3.422
 1922SOL    HW1  983   2.161   1.782   3.420
 1922SOL    HW2  984   2.245   1.647   3.454
 1925SOL     OW  985   2.456   0.745   2.514
 1925SOL    HW1  986   2.506   0.830   2.495
 1925SOL    HW2  987   2.368   0.747   2.466
 1928SOL     OW  988   2.721   1.374   1.878
 1928SOL    HW1  989   2.675   1.389   1.966
 1928SOL    HW2  990   2.765   1.459   1.848
 1929SOL     OW  991   2.523   1.790   2.815
 1929SOL    HW1  992   2.477   1.878   2.802
 1929SOL    HW2  993   2.622   1.802   2.808
 1930SOL     OW  994   2.721   0.956   2.723
 1930SOL    HW1  995   2.775   0.887   2.771
 1930SOL    HW2  996   2.689   1.025   2.789
 1931SOL     OW  997   2.945   0.984   1.949
 1931SOL    HW1  998   2.922   1.037   1.867
 1931SOL    HW2  999   3.026   0.928   1.930
 1932SOL     OW 1000   3.723   1.569   2.713
 1932SOL    HW1 1001   3.652   1.557   2.643
 1932SOL    HW2 1002   3.724   1.490   2.773
 1933SOL     OW 1003   2.083   1.314   3.706
 1933SOL    HW1 1004   2.018   1.241   3.685
 1933SOL    HW2 1005   2.087   1.328   3.804
 1934SOL     OW 1006   1.941   1.240   2.515
 1934SOL    HW1 1007   1.940   1.193   2.603
 1934SOL    HW2 1008   2.023   1.212   2.464
 1935SOL     OW 1009   2.534   1.391   3.486
 1935SOL    HW1 1010   2.456   1.341   3.524
 1935SOL    HW2 1011   2.531   1.486   3.517
 1938SOL     OW 1012   3.567   1.487   2.966
 1938SOL    HW1 1013   3.474   1.462   2.939
 1938SOL    HW2 1014   3.593   1.437   3.048
 1940SOL     OW 1015   2.674   1.586   2.549
 1940SOL    HW1 1016   2.706   1.596   2.455
 1940SOL    HW2 1017   2.595   1.524   2.551
 1943SOL     OW 1018   2.632   1.330   2.163
 1943SOL    HW1 1019   2.586   1.243   2.180
 1943SOL    HW2 1020   2.723   1.327   2.204
 1944SOL     OW 1021   2.480   1.567   3.146
 1944SOL    HW1 1022   2.475   1.649   3.203
 1944SOL    HW2 1023   2.569   1.564   3.101
 1948SOL     OW 1024   1.901   1.077   2.162
 1948SOL    HW1 1025   2.000   1.066   2.153
 1948SOL    HW2 1026   1.861   0.991   2.194
 1949SOL     OW 1027   2.737   1.646   2.199
 1949SOL    HW1 1028   2.660   1.611   2.145
 1949SOL    HW2 1029   2.705   1.717   2.261
 1967SOL     OW 1030   1.889   1.596   3.841
 1967SOL    HW1 1031   1.870   1.500   3.862
 1967SOL    HW2 1032   1.856   1.654   3.916
 1989SOL     OW 1033   2.973   1.776   3.961
 1989SOL    HW1 1034   2.913   1.714   4.011
 1989SOL    HW2 1035   3.004   1.732   3.876
 1991SOL     OW 1036   2.326   1.743   4.047
 1991SOL    HW1 1037   2.359   1.782   4.133
 1991SOL    HW2 1038   2.402   1.736   3.982
 2012SOL     OW 1039   2.350   1.385   3.898
 2012SOL    HW1 1040   2.263   1.370   3.945
 2012SOL    HW2 1041   2.333   1.411   3.803
 2057SOL     OW 1042   2.534   1.616   3.878
 2057SOL    HW1 1043   2.543   1.626   3.779
 2057SOL    HW2 1044   2.494   1.527   3.899
 2061SOL     OW 1045   3.056   1.612   3.755
 2061SOL    HW1 1046   3.062   1.519   3.792
 2061SOL    HW2 1047   2.997   1.612   3.675
 2064SOL     OW 1048   3.366   1.607   3.768
 2064SOL    HW1 1049   3.274   1.644   3.775
 2064SOL    HW2 1050   3.404   1.627   3.678
 2078SOL     OW 1051   2.721   1.374   3.740
 2078SOL    HW1 1052   2.675   1.389   3.828
 2078SOL    HW2 1053   2.765   1.459   3.710
 2095SOL     OW 1054   2.737   1.646   4.061
 2095SOL    HW1 1055   2.660   1.611   4.007
 2095SOL    HW2 1056   2.705   1.717   4.123
 2097SOL     OW 1057   2.087   2.137   0.996
 2097SOL    HW1 1058   2.122   2.120   1.088
 2097SOL    HW2 1059   1.999   2.092   0.984
 2099SOL     OW 1060   2.431   3.137   1.165
 2099SOL    HW1 1061   2.338   3.130   1.128
 2099SOL    HW2 1062   2.442   3.226   1.209
 2103SOL     OW 1063   2.630   3.006   1.023
 2103SOL    HW1 1064   2.552   3.023   1.083
 2103SOL    HW2 1065   2.664   3.093   0.987
 2104SOL     OW 1066   2.712   2.660   1.823
 2104SOL    HW1 1067   2.708   2.736   1.888
 2104SOL    HW2 1068   2.734   2.696   1.732
 2106SOL     OW 1069   2.548   3.023   1.803
 2106SOL    HW1 1070   2.608   3.102   1.817
 2106SOL    HW2 1071   2.462   3.054   1.762
 2107SOL     OW 1072   2.197   3.297   1.061
 2107SOL    HW1 1073   2.119   3.266   1.008
 2107SOL    HW2 1074   2.255   3.355   1.004
 2108SOL     OW 1075   3.322   3.367   1.339
 2108SOL    HW1 1076   3.346   3.461   1.365
 2108SOL    HW2 1077   3.306   3.313   1.421
 2109SOL     OW 1078   2.300   2.254   1.499
 2109SOL    HW1 1079   2.382   2.198   1.508
 2109SOL    HW2 1080   2.219   2.196   1.503
 2112SOL     OW 1081   2.989   3.203   1.690
 2112SOL    HW1 1082   3.036   3.203   1.778
 2112SOL    HW2 1083   2.941   3.116   1.679
 2114SOL     OW 1084   2.102   2.953   0.886
 2114SOL    HW1 1085   2.116   2.869   0.938
 2114SOL    HW2 1086   2.047   3.017   0.941
 2115SOL     OW 1087   2.482   3.648   1.439
 2115SOL    HW1 1088   2.390   3.631   1.474
 2115SOL    HW2 1089   2.510   3.740   1.465
 2117SOL     OW 1090   3.456   1.976   1.480
 2117SOL    HW1 1091   3.438   2.043   1.408
 2117SOL    HW2 1092   3.453   2.022   1.569
 2123SOL     OW 1093   1.975   2.599   1.597
 2123SOL    HW1 1094   2.063   2.586   1.642
 2123SOL    HW2 1095   1.962   2.696   1.575
 2125SOL     OW 1096   3.155   3.090   1.423
 2125SOL    HW1 1097   3.192   3.017   1.365
 2125SOL    HW2 1098   3.207   3.095   1.508
 2127SOL     OW 1099   2.059   2.838   1.264
 2127SOL    HW1 1100   2.148   2.793   1.250
 2127SOL    HW2 1101   1.986   2.773   1.245
 2129SOL     OW 1102   3.049   3.654   1.616
 2129SOL    HW1 1103   3.073   3.714   1.540
 2129SOL    HW2 1104   3.056   3.559   1.586
 2130SOL     OW 1105   2.179   2.113   1.801
 2130SOL    HW1 1106   2.250   2.184   1.807
 2130SOL    HW2 1107   2.091   2.152   1.829
 2134SOL     OW 1108   3.143   2.207   0.944
 2134SOL    HW1 1109   3.057   2.157   0.931
 2134SOL    HW2 1110   3.205   2.153   1.000
 2136SOL     OW 1111   2.669   2.467   1.465
 2136SOL    HW1 1112   2.622   2.464   1.554
 2136SOL    HW2 1113   2.618   2.412   1.399
 2137SOL     OW 1114   3.256   2.331   1.674
 2137SOL    HW1 1115   3.236   2.374   1.762
 2137SOL    HW2 1116   3.334   2.269   1.683
 2138SOL     OW 1117   2.835   2.752   1.572
 2138SOL    HW1 1118   2.881   2.668   1.543
 2138SOL    HW2 1119   2.779   2.786   1.497
 2139SOL     OW 1120   2.853   2.272   1.242
 2139SOL    HW1 1121   2.776   2.306   1.296
 2139SOL    HW2 1122   2.819   2.221   1.163
 2142SOL     OW 1123   1.992   3.683   1.571
 2142SOL    HW1 1124   1.982   3.668   1.670
 2142SOL    HW2 1125   1.906   3.719   1.535
 2144SOL     OW 1126   3.581   2.447   1.831
 2144SOL    HW1 1127   3.555   2.536   1.795
 2144SOL    HW2 1128   3.579   2.379   1.758
 2146SOL     OW 1129   2.412   2.058   0.885
 2146SOL    HW1 1130   2.407   2.053   0.985
 2146SOL    HW2 1131   2.414   2.154   0.856
 2150SOL     OW 1132   3.089   3.412   1.506
 2150SOL    HW1 1133   3.095   3.335   1.570
 2150SOL    HW2 1134   3.037   3.386   1.426
 2153SOL     OW 1135   2.323   3.128   1.727
 2153SOL    HW1 1136   2.273   3.129   1.641
 2153SOL    HW2 1137   2.260   3.110   1.803
 2155SOL     OW 1138   2.064   2.147   1.498
 2155SOL    HW1 1139   1.984   2.207   1.485
 2155SOL    HW2 1140   2.054   2.098   1.584
 2159SOL     OW 1141   2.111   3.647   1.241
 2159SOL    HW1 1142   2.168   3.582   1.291
 2159SOL    HW2 1143   2.095   3.614   1.148
 2162SOL     OW 1144   3.409   2.084   1.729
 2162SOL    HW1 1145   3.404   2.121   1.821
 2162SOL    HW2 1146   3.337   2.015   1.717
 2164SOL     OW 1147   2.643   2.126   1.749
 2164SOL    HW1 1148   2.710   2.065   1.792
 2164SOL    HW2 1149   2.570   2.145   1.814
 2165SOL     OW 1150   2.750   3.376   1.195
 2165SOL    HW1 1151   2.727   3.351   1.101
 2165SOL    HW2 1152   2.811   3.307   1.234
 2166SOL     OW 1153   3.213   2.452   1.433
 2166SOL    HW1 1154   3.241   2.409   1.518
 2166SOL    HW2 1155   3.238   2.548   1.434
 2167SOL     OW 1156   2.665   3.264   0.924
 2167SOL    HW1 1157   2.755   3.278   0.882
 2167SOL    HW2 1158   2.594   3.266   0.853
 2168SOL     OW 1159   2.784   2.365   0.899
 2168SOL    HW1 1160   2.759   2.356   0.803
 2168SOL    HW2 1161   2.832   2.283   0.930
 2173SOL     OW 1162   2.938   2.545   1.464
 2173SOL    HW1 1163   2.858   2.484   1.467
 2173SOL    HW2 1164   3.019   2.492   1.440
 2178SOL     OW 1165   1.940   2.418   1.386
 2178SOL    HW1 1166   2.032   2.417   1.345
 2178SOL    HW2 1167   1.934   2.492   1.453
 2179SOL     OW 1168   2.423   2.084   1.147
 2179SOL    HW1 1169   2.461   2.000   1.184
 2179SOL    HW2 1170   2.335   2.103   1.191
 2183SOL     OW 1171   3.328   2.452   0.992
 2183SOL    HW1 1172   3.298   2.357   0.999
 2183SOL    HW2 1173   3.401   2.468   1.058
 2189SOL     OW 1174   3.616   3.085   1.588
 2189SOL    HW1 1175   3.707   3.046   1.575
 2189SOL    HW2 1176   3.624   3.181   1.612
 2190SOL     OW 1177   2.926   3.209   1.340
 2190SOL    HW1 1178   2.846   3.186   1.395
 2190SOL    HW2 1179   3.009   3.183   1.389
 2191SOL     OW 1180   3.454   3.491   1.625
 2191SOL    HW1 1181   3.481   3.525   1.535
 2191SOL    HW2 1182   3.533   3.453   1.671
 2192SOL     OW 1183   2.973   3.057   1.100
 2192SOL    HW1 1184   2.933   3.101   1.181
 2192SOL    HW2 1185   2.932   3.094   1.017
 2193SOL     OW 1186   3.500   2.961   1.079
 2193SOL    HW1 1187   3.505   3.042   1.138
 2193SOL    HW2 1188   3.414   2.963   1.028
 2194SOL     OW 1189   2.777   1.951   1.402
 2194SOL    HW1 1190   2.802   1.931   1.307
 2194SOL    HW2 1191   2.849   2.007   1.444
 2195SOL     OW 1192   2.842   2.978   1.719
 2195SOL    HW1 1193   2.743   2.984   1.729
 2195SOL    HW2 1194   2.865   2.898   1.663
 2197SOL     OW 1195   2.272   2.675   1.251
 2197SOL    HW1 1196   2.358   2.687   1.301
 2197SOL    HW2 1197   2.230   2.588   1.278
 2198SOL     OW 1198   3.136   2.248   1.262
 2198SOL    HW1 1199   3.157   2.322   1.326
 2198SOL    HW2 1200   3.047   2.265   1.219
 2199SOL     OW 1201   1.926   3.426   1.331
 2199SOL    HW1 1202   1.880   3.508   1.297
 2199SOL    HW2 1203   2.024   3.445   1.340
 2201SOL     OW 1204   2.428   2.399   0.865
 2201SOL    HW1 1205   2.440   2.465   0.791
 2201SOL    HW2 1206   2.474   2.433   0.948
 2203SOL     OW 1207   3.134   3.307   1.142
 2203SOL    HW1 1208   3.181   3.320   1.229
 2203SOL    HW2 1209   3.068   3.233   1.151
 2205SOL     OW 1210   2.216   3.372   1.329
 2205SOL    HW1 1211   2.195   3.328   1.242
 2205SOL    HW2 1212   2.313   3.398   1.332
 2206SOL     OW 1213   2.264   2.613   1.598
 2206SOL    HW1 1214   2.332   2.668   1.551
 2206SOL    HW2 1215   2.304   2.525   1.625
 2207SOL     OW 1216   3.449   2.641   1.670
 2207SOL    HW1 1217   3.357   2.679   1.665
 2207SOL    HW2 1218   3.509   2.688   1.605
 2208SOL     OW 1219   2.875   1.967   1.770
 2208SOL    HW1 1220   2.881   2.052   1.718
 2208SOL    HW2 1221   2.907   1.891   1.713
 2209SOL     OW 1222   2.366   1.912   1.740
 2209SOL    HW1 1223   2.324   1.855   1.670
 2209SOL    HW2 1224   2.300   1.981   1.772
 2210SOL     OW 1225   2.435   2.732   1.029
 2210SOL    HW1 1226   2.479   2.821   1.020
 2210SOL    HW2 1227   2.372   2.732   1.106
 2211SOL     OW 1228   3.222   2.724   1.045
 2211SOL    HW1 1229   3.147   2.724   0.979
 2211SOL    HW2 1230   3.259   2.632   1.054
 2213SOL     OW 1231   2.169   2.075   1.231
 2213SOL    HW1 1232   2.146   2.112   1.321
 2213SOL    HW2 1233   2.139   1.980   1.225
 2214SOL     OW 1234   1.899   3.172   1.282
 2214SOL    HW1 1235   1.952   3.123   1.350
 2214SOL    HW2 1236   1.921   3.270   1.287
 2215SOL     OW 1237   2.594   2.496   1.064
 2215SOL    HW1 1238   2.653   2.470   0.988
 2215SOL    HW2 1239   2.566   2.592   1.053
 2216SOL     OW 1240   3.590   2.797   1.854
 2216SOL    HW1 1241   3.544   2.790   1.765
 2216SOL    HW2 1242   3.528   2.841   1.920
 2219SOL     OW 1243   2.885   2.628   0.966
 2219SOL    HW1 1244   2.900   2.649   1.062
 2219SOL    HW2 1245   2.855   2.533   0.957
 2220SOL     OW 1246   2.842   3.435   1.700
 2220SOL    HW1 1247   2.822   3.479   1.612
 2220SOL    HW2 1248   2.881   3.344   1.684
 2221SOL     OW 1249   3.721   3.380   1.605
 2221SOL    HW1 1250   3.735   3.407   1.510
 2221SOL    HW2 1251   3.804   3.402   1.658
 2222SOL     OW 1252   2.212   2.760   1.804
 2222SOL    HW1 1253   2.288   2.804   1.852
 2222SOL    HW2 1254   2.247   2.713   1.722
 2226SOL     OW 1255   2.181   2.672   0.949
 2226SOL    HW1 1256   2.274   2.708   0.954
 2226SOL    HW2 1257   2.175   2.587   1.001
 2227SOL     OW 1258   2.201   2.371   1.006
 2227SOL    HW1 1259   2.149   2.288   0.989
 2227SOL    HW2 1260   2.278   2.376   0.942
 2228SOL     OW 1261   3.000   2.242   1.678
 2228SOL    HW1 1262   2.955   2.305   1.742
 2228SOL    HW2 1263   3.093   2.273   1.661
 2229SOL     OW 1264   3.022   2.069   1.477
 2229SOL    HW1 1265   3.022   2.133   1.554
 2229SOL    HW2 1266   3.050   2.117   1.394
 2233SOL     OW 1267   2.864   2.658   1.238
 2233SOL    HW1 1268   2.905   2.626   1.324
 2233SOL    HW2 1269   2.768   2.631   1.235
 2234SOL     OW 1270   1.902   2.406   1.114
 2234SOL    HW1 1271   1.987   2.373   1.073
 2234SOL    HW2 1272   1.915   2.421   1.212
 2235SOL     OW 1273   2.051   2.382   1.722
 2235SOL    HW1 1274   2.110   2.342   1.652
 2235SOL    HW2 1275   1.993   2.453   1.681
 2236SOL     OW 1276   3.231   2.812   1.660
 2236SOL    HW1 1277   3.270   2.901   1.680
 2236SOL    HW2 1278   3.241   2.792   1.563
 2238SOL     OW 1279   3.519   2.466   1.206
 2238SOL    HW1 1280   3.481   2.397   1.268
 2238SOL    HW2 1281   3.601   2.430   1.162
 2239SOL     OW 1282   2.114   3.426   1.744
 2239SOL    HW1 1283   2.084   3.483   1.820
 2239SOL    HW2 1284   2.107   3.329   1.770
 2240SOL     OW 1285   2.533   2.326   1.269
 2240SOL    HW1 1286   2.499   2.237   1.239
 2240SOL    HW2 1287   2.559   2.380   1.189
 2241SOL     OW 1288   2.792   3.540   1.465
 2241SOL    HW1 1289   2.768   3.522   1.370
 2241SOL    HW2 1290   2.822   3.634   1.475
 2243SOL     OW 1291   2.021   2.999   1.466
 2243SOL    HW1 1292   2.043   2.938   1.542
 2243SOL    HW2 1293   2.031   2.950   1.380
 2244SOL     OW 1294   3.209   2.921   1.234
 2244SOL    HW1 1295   3.233   2.858   1.160
 2244SOL    HW2 1296   3.119   2.961   1.216
 2248SOL     OW 1297   1.945   3.120   1.022
 2248SOL    HW1 1298   1.940   3.119   1.122
 2248SOL    HW2 1299   1.862   3.079   0.984
 2249SOL     OW 1300   2.550   3.524   1.716
 2249SOL    HW1 1301   2.494   3.605   1.725
 2249SOL    HW2 1302   2.602   3.528   1.630
 2253SOL     OW 1303   1.992   3.656   1.851
 2253SOL    HW1 1304   1.951   3.582   1.904
 2253SOL    HW2 1305   2.056   3.707   1.909
 2255SOL     OW 1306   2.692   3.135   1.422
 2255SOL    HW1 1307   2.687   3.168   1.517
 2255SOL    HW2 1308   2.606   3.154   1.376
 2261SOL     OW 1309   2.684   2.864   1.372
 2261SOL    HW1 1310   2.724   2.863   1.280
 2261SOL    HW2 1311   2.694   2.956   1.412
 2264SOL     OW 1312   2.234   3.150   1.490
 2264SOL    HW1 1313   2.221   3.243   1.456
 2264SOL    HW2 1314   2.150   3.098   1.477
 2265SOL     OW 1315   3.476   3.154   1.289
 2265SOL    HW1 1316   3.536   3.157   1.369
 2265SOL    HW2 1317   3.401   3.218   1.302
 2267SOL     OW 1318   2.876   2.098   0.971
 2267SOL    HW1 1319   2.868   2.062   0.878
 2267SOL    HW2 1320   2.874   2.022   1.036
 2269SOL     OW 1321   3.571   2.247   1.381
 2269SOL    HW1 1322   3.644   2.316   1.385
 2269SOL    HW2 1323   3.599   2.172   1.322
 2271SOL     OW 1324   1.967   2.875   1.726
 2271SOL    HW1 1325   1.890   2.842   1.780
 2271SOL    HW2 1326   2.052   2.845   1.768
 2272SOL     OW 1327   2.534   2.065   1.489
 2272SOL    HW1 1328   2.624   2.049   1.449
 2272SOL    HW2 1329   2.542   2.070   1.588
 2273SOL     OW 1330   3.302   2.718   1.398
 2273SOL    HW1 1331   3.245   2.770   1.335
 2273SOL    HW2 1332   3.398   2.730   1.374
 2276SOL     OW 1333   2.475   2.704   1.431
 2276SOL    HW1 1334   2.531   2.785   1.414
 2276SOL    HW2 1335   2.534   2.624   1.434
 2278SOL     OW 1336   2.578   2.427   1.708
 2278SOL    HW1 1337   2.597   2.492   1.782
 2278SOL    HW2 1338   2.638   2.347   1.717
 2279SOL     OW 1339   3.312   3.082   1.633
 2279SOL    HW1 1340   3.303   3.072   1.732
 2279SOL    HW2 1341   3.408   3.075   1.607
 2280SOL     OW 1342   2.252   3.603   1.560
 2280SOL    HW1 1343   2.161   3.644   1.558
 2280SOL    HW2 1344   2.245   3.509   1.592
 2281SOL     OW 1345   3.536   2.745   1.254
 2281SOL    HW1 1346   3.509   2.656   1.217
 2281SOL    HW2 1347   3.537   2.813   1.181
 2284SOL     OW 1348   3.639   2.204   1.642
 2284SOL    HW1 1349   3.622   2.235   1.548
 2284SOL    HW2 1350   3.555   2.167   1.680
 2285SOL     OW 1351   3.592   2.796   1.517
 2285SOL    HW1 1352   3.630   2.887   1.532
 2285SOL    HW2 1353   3.584   2.779   1.418
 2288SOL     OW 1354   2.721   2.818   0.861
 2288SOL    HW1 1355   2.775   2.749   0.909
 2288SOL    HW2 1356   2.689   2.887   0.927
 2291SOL     OW 1357   2.083   3.176   1.844
 2291SOL    HW1 1358   2.018   3.103   1.823
 2291SOL    HW2 1359   2.087   3.190   1.942
 2293SOL     OW 1360   2.534   3.253   1.624
 2293SOL    HW1 1361   2.456   3.203   1.662
 2293SOL    HW2 1362   2.531   3.348   1.655
 2294SOL     OW 1363   3.686   2.054   1.227
 2294SOL    HW1 1364   3.682   1.964   1.271
 2294SOL    HW2 1365   3.689   2.043   1.128
 2297SOL     OW 1366   2.179   2.409   1.280
 2297SOL    HW1 1367   2.217   2.350   1.352
 2297SOL    HW2 1368   2.219   2.383   1.192
 2299SOL     OW 1369   3.286   2.076   1.112
 2299SOL    HW1 1370   3.338   2.011   1.167
 2299SOL    HW2 1371   3.237   2.139   1.173
 2300SOL     OW 1372   2.863   1.896   1.154
 2300SOL    HW1 1373   2.800   1.824   1.123
 2300SOL    HW2 1374   2.956   1.860   1.154
 2302SOL     OW 1375   2.480   3.429   1.284
 2302SOL    HW1 1376   2.475   3.511   1.341
 2302SOL    HW2 1377   2.569   3.426   1.239
 2307SOL     OW 1378   2.092   2.490   1.975
 2307SOL    HW1 1379   1.999   2.488   2.012
 2307SOL    HW2 1380   2.093   2.451   1.883
 2308SOL     OW 1381   2.087   2.137   2.858
 2308SOL    HW1 1382   2.122   2.120   2.950
 2308SOL    HW2 1383   1.999   2.092   2.846
 2309SOL     OW 1384   1.881   2.230   2.509
 2309SOL    HW1 1385   1.799   2.273   2.548
 2309SOL    HW2 1386   1.853   2.157   2.446
 2310SOL     OW 1387   2.431   3.137   3.027
 2310SOL    HW1 1388   2.338   3.130   2.990
 2310SOL    HW2 1389   2.442   3.226   3.071
 2311SOL     OW 1390   3.417   3.373   2.565
 2311SOL    HW1 1391   3.360   3.357   2.646
 2311SOL    HW2 1392   3.358   3.383   2.485
 2312SOL     OW 1393   2.997   2.565   2.579
 2312SOL    HW1 1394   3.054   2.643   2.554
 2312SOL    HW2 1395   2.937   2.591   2.655
 2313SOL     OW 1396   3.617   2.469   2.093
 2313SOL    HW1 1397   3.605   2.456   1.994
 2313SOL    HW2 1398   3.587   2.388   2.142
 2314SOL     OW 1399   2.630   3.006   2.885
 2314SOL    HW1 1400   2.552   3.023   2.945
 2314SOL    HW2 1401   2.664   3.093   2.849
 2315SOL     OW 1402   2.712   2.660   3.685
 2315SOL    HW1 1403   2.708   2.736   3.750
 2315SOL    HW2 1404   2.734   2.696   3.594
 2316SOL     OW 1405   2.548   3.023   3.665
 2316SOL    HW1 1406   2.608   3.102   3.679
 2316SOL    HW2 1407   2.462   3.054   3.624
 2317SOL     OW 1408   2.197   3.297   2.923
 2317SOL    HW1 1409   2.119   3.266   2.870
 2317SOL    HW2 1410   2.255   3.355   2.866
 2318SOL     OW 1411   3.322   3.367   3.201
 2318SOL    HW1 1412   3.346   3.461   3.227
 2318SOL    HW2 1413   3.306   3.313   3.283
 2319SOL     OW 1414   2.300   2.254   3.361
 2319SOL    HW1 1415   2.382   2.198   3.370
 2319SOL    HW2 1416   2.219   2.196   3.365
 2320SOL     OW 1417   3.465   2.309   2.599
 2320SOL    HW1 1418   3.391   2.355   2.549
 2320SOL    HW2 1419   3.516   2.377   2.652
 2321SOL     OW 1420   2.093   3.575   2.345
 2321SOL    HW1 1421   2.127   3.652   2.399
 2321SOL    HW2 1422   2.137   3.575   2.255
 2322SOL     OW 1423   2.989   3.203   3.552
 2322SOL    HW1 1424   3.036   3.203   3.640
 2322SOL    HW2 1425   2.941   3.116   3.541
 2323SOL     OW 1426   2.092   3.296   2.400
 2323SOL    HW1 1427   2.066   3.392   2.400
 2323SOL    HW2 1428   2.021   3.242   2.445
 2324SOL     OW 1429   2.102   2.953   2.748
 2324SOL    HW1 1430   2.116   2.869   2.800
 2324SOL    HW2 1431   2.047   3.017   2.803
 2325SOL     OW 1432   2.482   3.648   3.301
 2325SOL    HW1 1433   2.390   3.631   3.336
 2325SOL    HW2 1434   2.510   3.740   3.327
 2326SOL     OW 1435   2.468   2.826   1.985
 2326SOL    HW1 1436   2.475   2.910   1.931
 2326SOL    HW2 1437   2.514   2.839   2.073
 2327SOL     OW 1438   3.456   1.976   3.342
 2327SOL    HW1 1439   3.438   2.043   3.270
 2327SOL    HW2 1440   3.453   2.022   3.431
 2328SOL     OW 1441   1.984   2.505   2.425
 2328SOL    HW1 1442   1.939   2.417   2.442
 2328SOL    HW2 1443   1.983   2.559   2.509
 2329SOL     OW 1444   3.704   3.629   2.221
 2329SOL    HW1 1445   3.758   3.600   2.301
 2329SOL    HW2 1446   3.734   3.719   2.192
 2330SOL     OW 1447   1.889   3.458   1.979
 2330SOL    HW1 1448   1.870   3.362   2.000
 2330SOL    HW2 1449   1.856   3.516   2.054
 2331SOL     OW 1450   3.551   2.784   2.474
 2331SOL    HW1 1451   3.646   2.755   2.482
 2331SOL    HW2 1452   3.543   2.849   2.399
 2332SOL     OW 1453   3.503   2.970   2.294
 2332SOL    HW1 1454   3.589   2.972   2.242
 2332SOL    HW2 1455   3.517   3.017   2.382
 2333SOL     OW 1456   1.975   2.599   3.459
 2333SOL    HW1 1457   2.063   2.586   3.504
 2333SOL    HW2 1458   1.962   2.696   3.437
 2334SOL     OW 1459   2.475   3.227   2.588
 2334SOL    HW1 1460   2.426   3.140   2.597
 2334SOL    HW2 1461   2.452   3.270   2.501
 2335SOL     OW 1462   3.155   3.090   3.285
 2335SOL    HW1 1463   3.192   3.017   3.227
 2335SOL    HW2 1464   3.207   3.095   3.370
 2336SOL     OW 1465   2.671   1.866   2.364
 2336SOL    HW1 1466   2.711   1.957   2.355
 2336SOL    HW2 1467   2.571   1.874   2.370
 2337SOL     OW 1468   2.059   2.838   3.126
 2337SOL    HW1 1469   2.148   2.793   3.112
 2337SOL    HW2 1470   1.986   2.773   3.107
 2338SOL     OW 1471   3.387   2.861   2.052
 2338SOL    HW1 1472   3.324   2.785   2.065
 2338SOL    HW2 1473   3.435   2.879   2.138
 2339SOL     OW 1474   3.049   3.654   3.478
 2339SOL    HW1 1475   3.073   3.714   3.402
 2339SOL    HW2 1476   3.056   3.559   3.448
 2340SOL     OW 1477   2.179   2.113   3.663
 2340SOL    HW1 1478   2.250   2.184   3.669
 2340SOL    HW2 1479   2.091   2.152   3.691
 2341SOL     OW 1480   3.328   3.279   2.815
 2341SOL    HW1 1481   3.269   3.285   2.895
 2341SOL    HW2 1482   3.313   3.191   2.769
 2342SOL     OW 1483   3.529   3.576   2.434
 2342SOL    HW1 1484   3.488   3.553   2.346
 2342SOL    HW2 1485   3.511   3.502   2.499
 2343SOL     OW 1486   2.460   2.591   2.132
 2343SOL    HW1 1487   2.484   2.660   2.064
 2343SOL    HW2 1488   2.382   2.624   2.186
 2344SOL     OW 1489   3.143   2.207   2.806
 2344SOL    HW1 1490   3.057   2.157   2.793
 2344SOL    HW2 1491   3.205   2.153   2.862
 2345SOL     OW 1492   3.438   3.524   2.169
 2345SOL    HW1 1493   3.527   3.570   2.172
 2345SOL    HW2 1494   3.417   3.500   2.074
 2346SOL     OW 1495   2.669   2.467   3.327
 2346SOL    HW1 1496   2.622   2.464   3.416
 2346SOL    HW2 1497   2.618   2.412   3.261
 2347SOL     OW 1498   3.256   2.331   3.536
 2347SOL    HW1 1499   3.236   2.374   3.624
 2347SOL    HW2 1500   3.334   2.269   3.545
 2348SOL     OW 1501   2.835   2.752   3.434
 2348SOL    HW1 1502   2.881   2.668   3.405
 2348SOL    HW2 1503   2.779   2.786   3.359
 2349SOL     OW 1504   2.853   2.272   3.104
 2349SOL    HW1 1505   2.776   2.306   3.158
 2349SOL    HW2 1506   2.819   2.221   3.025
 2350SOL     OW 1507   2.903   2.563   2.291
 2350SOL    HW1 1508   2.929   2.559   2.387
 2350SOL    HW2 1509   2.818   2.512   2.277
 2351SOL     OW 1510   1.938   2.673   2.651
 2351SOL    HW1 1511   2.037   2.661   2.660
 2351SOL    HW2 1512   1.914   2.768   2.672
 2352SOL     OW 1513   1.992   3.683   3.433
 2352SOL    HW1 1514   1.982   3.668   3.532
 2352SOL    HW2 1515   1.906   3.719   3.397
 2353SOL     OW 1516   2.727   2.210   2.057
 2353SOL    HW1 1517   2.786   2.273   2.008
 2353SOL    HW2 1518   2.746   2.116   2.028
 2354SOL     OW 1519   3.581   2.447   3.693
 2354SOL    HW1 1520   3.555   2.536   3.657
 2354SOL    HW2 1521   3.579   2.379   3.620
 2355SOL     OW 1522   3.224   3.006   2.407
 2355SOL    HW1 1523   3.307   2.977   2.359
 2355SOL    HW2 1524   3.175   3.073   2.351
 2356SOL     OW 1525   2.870   3.318   2.339
 2356SOL    HW1 1526   2.824   3.390   2.287
 2356SOL    HW2 1527   2.866   3.338   2.437
 2357SOL     OW 1528   2.213   3.663   2.715
 2357SOL    HW1 1529   2.263   3.577   2.721
 2357SOL    HW2 1530   2.278   3.740   2.712
 2358SOL     OW 1531   3.657   2.928   2.735
 2358SOL    HW1 1532   3.595   2.913   2.659
 2358SOL    HW2 1533   3.605   2.939   2.820
 2359SOL     OW 1534   3.089   3.412   3.368
 2359SOL    HW1 1535   3.095   3.335   3.432
 2359SOL    HW2 1536   3.037   3.386   3.288
 2360SOL     OW 1537   2.183   2.805   2.104
 2360SOL    HW1 1538   2.265   2.844   2.062
 2360SOL    HW2 1539   2.156   2.723   2.055
 2361SOL     OW 1540   3.320   2.597   2.590
 2361SOL    HW1 1541   3.315   2.532   2.665
 2361SOL    HW2 1542   3.400   2.656   2.603
 2362SOL     OW 1543   2.323   3.128   3.589
 2362SOL    HW1 1544   2.273   3.129   3.503
 2362SOL    HW2 1545   2.260   3.110   3.665
 2363SOL     OW 1546   2.973   3.638   2.099
 2363SOL    HW1 1547   2.913   3.576   2.149
 2363SOL    HW2 1548   3.004   3.594   2.014
 2364SOL     OW 1549   2.064   2.147   3.360
 2364SOL    HW1 1550   1.984   2.207   3.347
 2364SOL    HW2 1551   2.054   2.098   3.446
 2365SOL     OW 1552   3.494   3.239   1.943
 2365SOL    HW1 1553   3.462   3.333   1.933
 2365SOL    HW2 1554   3.418   3.176   1.931
 2366SOL     OW 1555   2.326   3.605   2.185
 2366SOL    HW1 1556   2.359   3.644   2.271
 2366SOL    HW2 1557   2.402   3.598   2.120
 2367SOL     OW 1558   3.262   1.969   2.288
 2367SOL    HW1 1559   3.238   1.932   2.198
 2367SOL    HW2 1560   3.361   1.985   2.292
 2368SOL     OW 1561   2.111   3.647   3.103
 2368SOL    HW1 1562   2.168   3.582   3.153
 2368SOL    HW2 1563   2.095   3.614   3.010
 2369SOL     OW 1564   2.802   3.560   2.766
 2369SOL    HW1 1565   2.882   3.503   2.787
 2369SOL    HW2 1566   2.753   3.520   2.689
 2370SOL     OW 1567   2.244   2.562   2.342
 2370SOL    HW1 1568   2.289   2.472   2.339
 2370SOL    HW2 1569   2.150   2.551   2.375
 2371SOL     OW 1570   3.409   2.084   3.591
 2371SOL    HW1 1571   3.404   2.121   3.683
 2371SOL    HW2 1572   3.337   2.015   3.579
 2372SOL     OW 1573   2.476   1.984   1.979
 2372SOL    HW1 1574   2.574   1.962   1.986
 2372SOL    HW2 1575   2.445   1.967   1.886
 2373SOL     OW 1576   2.643   2.126   3.611
 2373SOL    HW1 1577   2.710   2.065   3.654
 2373SOL    HW2 1578   2.570   2.145   3.676
 2374SOL     OW 1579   2.750   3.376   3.057
 2374SOL    HW1 1580   2.727   3.351   2.963
 2374SOL    HW2 1581   2.811   3.307   3.096
 2375SOL     OW 1582   3.213   2.452   3.295
 2375SOL    HW1 1583   3.241   2.409   3.380
 2375SOL    HW2 1584   3.238   2.548   3.296
 2376SOL     OW 1585   2.665   3.264   2.786
 2376SOL    HW1 1586   2.755   3.278   2.744
 2376SOL    HW2 1587   2.594   3.266   2.715
 2377SOL     OW 1588   2.401   1.926   2.374
 2377SOL    HW1 1589   2.320   1.927   2.432
 2377SOL    HW2 1590   2.404   2.009   2.319
 2378SOL     OW 1591   3.296   3.050   1.903
 2378SOL    HW1 1592   3.328   2.974   1.960
 2378SOL    HW2 1593   3.204   3.077   1.933
 2379SOL     OW 1594   2.159   1.897   2.033
 2379SOL    HW1 1595   2.208   1.981   2.012
 2379SOL    HW2 1596   2.221   1.832   2.078
 2380SOL     OW 1597   2.797   2.098   2.342
 2380SOL    HW1 1598   2.749   2.139   2.264
 2380SOL    HW2 1599   2.896   2.096   2.323
 2381SOL     OW 1600   2.938   2.545   3.326
 2381SOL    HW1 1601   2.858   2.484   3.329
 2381SOL    HW2 1602   3.019   2.492   3.302
 2382SOL     OW 1603   3.089   3.432   2.655
 2382SOL    HW1 1604   3.110   3.506   2.590
 2382SOL    HW2 1605   3.157   3.432   2.728
 2383SOL     OW 1606   2.321   3.014   2.603
 2383SOL    HW1 1607   2.250   2.987   2.668
 2383SOL    HW2 1608   2.295   2.986   2.510
 2384SOL     OW 1609   3.133   3.659   2.453
 2384SOL    HW1 1610   3.177   3.723   2.389
 2384SOL    HW2 1611   3.083   3.711   2.523
 2385SOL     OW 1612   2.894   2.411   1.878
 2385SOL    HW1 1613   2.853   2.493   1.839
 2385SOL    HW2 1614   2.958   2.437   1.951
 2386SOL     OW 1615   1.940   2.418   3.248
 2386SOL    HW1 1616   2.032   2.417   3.207
 2386SOL    HW2 1617   1.934   2.492   3.315
 2387SOL     OW 1618   2.423   2.084   3.009
 2387SOL    HW1 1619   2.461   2.000   3.046
 2387SOL    HW2 1620   2.335   2.103   3.053
 2388SOL     OW 1621   2.879   1.901   2.615
 2388SOL    HW1 1622   2.807   1.906   2.546
 2388SOL    HW2 1623   2.855   1.832   2.684
 2389SOL     OW 1624   3.291   3.035   2.729
 2389SOL    HW1 1625   3.236   2.951   2.722
 2389SOL    HW2 1626   3.317   3.064   2.637
 2390SOL     OW 1627   3.328   2.452   2.854
 2390SOL    HW1 1628   3.298   2.357   2.861
 2390SOL    HW2 1629   3.401   2.468   2.920
 2391SOL     OW 1630   3.719   2.695   2.239
 2391SOL    HW1 1631   3.761   2.631   2.303
 2391SOL    HW2 1632   3.681   2.644   2.161
 2392SOL     OW 1633   2.350   3.247   2.036
 2392SOL    HW1 1634   2.263   3.232   2.083
 2392SOL    HW2 1635   2.333   3.273   1.941
 2393SOL     OW 1636   3.526   3.142   2.519
 2393SOL    HW1 1637   3.625   3.150   2.533
 2393SOL    HW2 1638   3.481   3.226   2.550
 2394SOL     OW 1639   3.252   2.437   1.940
 2394SOL    HW1 1640   3.198   2.416   2.021
 2394SOL    HW2 1641   3.343   2.396   1.949
 2395SOL     OW 1642   3.616   3.085   3.450
 2395SOL    HW1 1643   3.707   3.046   3.437
 2395SOL    HW2 1644   3.624   3.181   3.474
 2396SOL     OW 1645   2.926   3.209   3.202
 2396SOL    HW1 1646   2.846   3.186   3.257
 2396SOL    HW2 1647   3.009   3.183   3.251
 2397SOL     OW 1648   3.454   3.491   3.487
 2397SOL    HW1 1649   3.481   3.525   3.397
 2397SOL    HW2 1650   3.533   3.453   3.533
 2398SOL     OW 1651   2.973   3.057   2.962
 2398SOL    HW1 1652   2.933   3.101   3.043
 2398SOL    HW2 1653   2.932   3.094   2.879
 2399SOL     OW 1654   3.500   2.961   2.941
 2399SOL    HW1 1655   3.505   3.042   3.000
 2399SOL    HW2 1656   3.414   2.963   2.890
 2400SOL     OW 1657   2.777   1.951   3.264
 2400SOL    HW1 1658   2.802   1.931   3.169
 2400SOL    HW2 1659   2.849   2.007   3.306
 2401SOL     OW 1660   2.842   2.978   3.581
 2401SOL    HW1 1661   2.743   2.984   3.591
 2401SOL    HW2 1662   2.865   2.898   3.525
 2402SOL     OW 1663   2.567   2.912   2.230
 2402SOL    HW1 1664   2.553   2.919   2.329
 2402SOL    HW2 1665   2.651   2.861   2.212
 2403SOL     OW 1666   2.272   2.675   3.113
 2403SOL    HW1 1667   2.358   2.687   3.163
 2403SOL    HW2 1668   2.230   2.588   3.140
 2404SOL     OW 1669   3.136   2.248   3.124
 2404SOL    HW1 1670   3.157   2.322   3.188
 2404SOL    HW2 1671   3.047   2.265   3.081
 2405SOL     OW 1672   1.926   3.426   3.193
 2405SOL    HW1 1673   1.880   3.508   3.159
 2405SOL    HW2 1674   2.024   3.445   3.202
 2406SOL     OW 1675   2.229   2.962   2.363
 2406SOL    HW1 1676   2.222   3.045   2.307
 2406SOL    HW2 1677   2.233   2.882   2.303
 2407SOL     OW 1678   3.114   3.210   2.250
 2407SOL    HW1 1679   3.164   3.287   2.290
 2407SOL    HW2 1680   3.019   3.212   2.282
 2408SOL     OW 1681   3.134   3.307   3.004
 2408SOL    HW1 1682   3.181   3.320   3.091
 2408SOL    HW2 1683   3.068   3.233   3.013
 2409SOL     OW 1684   3.444   2.501   2.334
 2409SOL    HW1 1685   3.413   2.562   2.407
 2409SOL    HW2 1686   3.494   2.553   2.265
 2410SOL     OW 1687   2.216   3.372   3.191
 2410SOL    HW1 1688   2.195   3.328   3.104
 2410SOL    HW2 1689   2.313   3.398   3.194
 2411SOL     OW 1690   2.264   2.613   3.460
 2411SOL    HW1 1691   2.332   2.668   3.413
 2411SOL    HW2 1692   2.304   2.525   3.487
 2412SOL     OW 1693   3.449   2.641   3.532
 2412SOL    HW1 1694   3.357   2.679   3.527
 2412SOL    HW2 1695   3.509   2.688   3.467
 2413SOL     OW 1696   2.875   1.967   3.632
 2413SOL    HW1 1697   2.881   2.052   3.580
 2413SOL    HW2 1698   2.907   1.891   3.575
 2414SOL     OW 1699   2.366   1.912   3.602
 2414SOL    HW1 1700   2.324   1.855   3.532
 2414SOL    HW2 1701   2.300   1.981   3.634
 2415SOL     OW 1702   2.435   2.732   2.891
 2415SOL    HW1 1703   2.479   2.821   2.882
 2415SOL    HW2 1704   2.372   2.732   2.968
 2416SOL     OW 1705   3.222   2.724   2.907
 2416SOL    HW1 1706   3.147   2.724   2.841
 2416SOL    HW2 1707   3.259   2.632   2.916
 2417SOL     OW 1708   3.071   2.387   2.137
 2417SOL    HW1 1709   3.084   2.303   2.191
 2417SOL    HW2 1710   3.042   2.461   2.197
 2418SOL     OW 1711   2.169   2.075   3.093
 2418SOL    HW1 1712   2.146   2.112   3.183
 2418SOL    HW2 1713   2.139   1.980   3.087
 2419SOL     OW 1714   1.899   3.172   3.144
 2419SOL    HW1 1715   1.952   3.123   3.212
 2419SOL    HW2 1716   1.921   3.270   3.149
 2420SOL     OW 1717   3.590   2.797   3.716
 2420SOL    HW1 1718   3.544   2.790   3.627
 2420SOL    HW2 1719   3.528   2.841   3.782
 2421SOL     OW 1720   2.169   1.925   2.480
 2421SOL    HW1 1721   2.158   2.019   2.513
 2421SOL    HW2 1722   2.164   1.862   2.557
 2422SOL     OW 1723   3.484   2.229   2.236
 2422SOL    HW1 1724   3.486   2.153   2.300
 2422SOL    HW2 1725   3.436   2.306   2.276
 2423SOL     OW 1726   2.885   2.628   2.828
 2423SOL    HW1 1727   2.900   2.649   2.924
 2423SOL    HW2 1728   2.855   2.533   2.819
 2424SOL     OW 1729   2.842   3.435   3.562
 2424SOL    HW1 1730   2.822   3.479   3.474
 2424SOL    HW2 1731   2.881   3.344   3.546
 2425SOL     OW 1732   3.721   3.380   3.467
 2425SOL    HW1 1733   3.735   3.407   3.372
 2425SOL    HW2 1734   3.804   3.402   3.520
 2426SOL     OW 1735   2.212   2.760   3.666
 2426SOL    HW1 1736   2.288   2.804   3.714
 2426SOL    HW2 1737   2.247   2.713   3.584
 2427SOL     OW 1738   3.402   2.136   1.987
 2427SOL    HW1 1739   3.341   2.061   2.010
 2427SOL    HW2 1740   3.424   2.188   2.070
 2428SOL     OW 1741   3.165   2.700   1.904
 2428SOL    HW1 1742   3.199   2.607   1.919
 2428SOL    HW2 1743   3.183   2.727   1.809
 2429SOL     OW 1744   2.930   3.195   2.711
 2429SOL    HW1 1745   2.937   3.111   2.656
 2429SOL    HW2 1746   2.992   3.264   2.675
 2430SOL     OW 1747   3.000   2.242   3.540
 2430SOL    HW1 1748   2.955   2.305   3.604
 2430SOL    HW2 1749   3.093   2.273   3.523
 2431SOL     OW 1750   3.022   2.069   3.339
 2431SOL    HW1 1751   3.022   2.133   3.416
 2431SOL    HW2 1752   3.050   2.117   3.256
 2432SOL     OW 1753   1.870   3.188   2.062
 2432SOL    HW1 1754   1.777   3.209   2.031
 2432SOL    HW2 1755   1.880   3.089   2.075
 2433SOL     OW 1756   1.950   3.663   2.789
 2433SOL    HW1 1757   1.908   3.577   2.762
 2433SOL    HW2 1758   2.044   3.666   2.755
 2434SOL     OW 1759   2.366   3.430   2.772
 2434SOL    HW1 1760   2.432   3.504   2.781
 2434SOL    HW2 1761   2.410   3.351   2.730
 2435SOL     OW 1762   2.864   2.658   3.100
 2435SOL    HW1 1763   2.905   2.626   3.186
 2435SOL    HW2 1764   2.768   2.631   3.097
 2436SOL     OW 1765   1.902   2.406   2.976
 2436SOL    HW1 1766   1.987   2.373   2.935
 2436SOL    HW2 1767   1.915   2.421   3.074
 2437SOL     OW 1768   2.051   2.382   3.584
 2437SOL    HW1 1769   2.110   2.342   3.514
 2437SOL    HW2 1770   1.993   2.453   3.543
 2438SOL     OW 1771   3.231   2.812   3.522
 2438SOL    HW1 1772   3.270   2.901   3.542
 2438SOL    HW2 1773   3.241   2.792   3.425
 2439SOL     OW 1774   2.677   2.434   2.187
 2439SOL    HW1 1775   2.684   2.345   2.141
 2439SOL    HW2 1776   2.583   2.468   2.179
 2440SOL     OW 1777   3.519   2.466   3.068
 2440SOL    HW1 1778   3.481   2.397   3.130
 2440SOL    HW2 1779   3.601   2.430   3.024
 2441SOL     OW 1780   2.114   3.426   3.606
 2441SOL    HW1 1781   2.084   3.483   3.682
 2441SOL    HW2 1782   2.107   3.329   3.632
 2442SOL     OW 1783   2.533   2.326   3.131
 2442SOL    HW1 1784   2.499   2.237   3.101
 2442SOL    HW2 1785   2.559   2.380   3.051
 2443SOL     OW 1786   2.792   3.540   3.327
 2443SOL    HW1 1787   2.768   3.522   3.232
 2443SOL    HW2 1788   2.822   3.634   3.337
 2444SOL     OW 1789   2.021   2.999   3.328
 2444SOL    HW1 1790   2.043   2.938   3.404
 2444SOL    HW2 1791   2.031   2.950   3.242
 2445SOL     OW 1792   3.209   2.921   3.096
 2445SOL    HW1 1793   3.233   2.858   3.022
 2445SOL    HW2 1794   3.119   2.961   3.078
 2446SOL     OW 1795   3.164   2.717   2.171
 2446SOL    HW1 1796   3.078   2.686   2.213
 2446SOL    HW2 1797   3.160   2.703   2.072
 2447SOL     OW 1798   3.621   3.609   3.016
 2447SOL    HW1 1799   3.682   3.639   2.943
 2447SOL    HW2 1800   3.583   3.520   2.994
 2448SOL     OW 1801   3.114   3.593   2.990
 2448SOL    HW1 1802   3.198   3.598   2.936
 2448SOL    HW2 1803   3.091   3.497   3.008
 2449SOL     OW 1804   1.945   3.120   2.884
 2449SOL    HW1 1805   1.940   3.119   2.984
 2449SOL    HW2 1806   1.862   3.079   2.846
 2450SOL     OW 1807   2.550   3.524   3.578
 2450SOL    HW1 1808   2.494   3.605   3.587
 2450SOL    HW2 1809   2.602   3.528   3.492
 2451SOL     OW 1810   3.588   1.997   2.385
 2451SOL    HW1 1811   3.661   1.980   2.318
 2451SOL    HW2 1812   3.557   1.910   2.423
 2452SOL     OW 1813   3.250   3.435   2.339
 2452SOL    HW1 1814   3.317   3.447   2.265
 2452SOL    HW2 1815   3.210   3.524   2.362
 2453SOL     OW 1816   1.992   3.656   3.713
 2453SOL    HW1 1817   1.951   3.582   3.766
 2453SOL    HW2 1818   2.056   3.707   3.771
 2454SOL     OW 1819   3.142   2.789   2.534
 2454SOL    HW1 1820   3.202   2.708   2.536
 2454SOL    HW2 1821   3.182   2.858   2.474
 2455SOL     OW 1822   2.692   3.135   3.284
 2455SOL    HW1 1823   2.687   3.168   3.379
 2455SOL    HW2 1824   2.606   3.154   3.238
 2456SOL     OW 1825   2.534   3.478   2.016
 2456SOL    HW1 1826   2.543   3.488   1.917
 2456SOL    HW2 1827   2.494   3.389   2.037
 2457SOL     OW 1828   3.512   3.582   3.256
 2457SOL    HW1 1829   3.565   3.592   3.172
 2457SOL    HW2 1830   3.485   3.672   3.290
 2458SOL     OW 1831   3.703   2.037   2.825
 2458SOL    HW1 1832   3.742   1.952   2.789
 2458SOL    HW2 1833   3.605   2.039   2.806
 2459SOL     OW 1834   2.125   2.188   2.582
 2459SOL    HW1 1835   2.046   2.239   2.548
 2459SOL    HW2 1836   2.116   2.173   2.680
 2460SOL     OW 1837   3.056   3.474   1.893
 2460SOL    HW1 1838   3.062   3.381   1.930
 2460SOL    HW2 1839   2.997   3.474   1.813
 2461SOL     OW 1840   2.684   2.864   3.234
 2461SOL    HW1 1841   2.724   2.863   3.142
 2461SOL    HW2 1842   2.694   2.956   3.274
 2462SOL     OW 1843   2.778   2.772   2.153
 2462SOL    HW1 1844   2.841   2.810   2.085
 2462SOL    HW2 1845   2.818   2.689   2.192
 2463SOL     OW 1846   3.366   3.469   1.906
 2463SOL    HW1 1847   3.274   3.506   1.913
 2463SOL    HW2 1848   3.404   3.489   1.816
 2464SOL     OW 1849   2.234   3.150   3.352
 2464SOL    HW1 1850   2.221   3.243   3.318
 2464SOL    HW2 1851   2.150   3.098   3.339
 2465SOL     OW 1852   3.476   3.154   3.151
 2465SOL    HW1 1853   3.536   3.157   3.231
 2465SOL    HW2 1854   3.401   3.218   3.164
 2466SOL     OW 1855   2.876   2.098   2.833
 2466SOL    HW1 1856   2.868   2.062   2.740
 2466SOL    HW2 1857   2.874   2.022   2.898
 2467SOL     OW 1858   2.452   3.349   2.353
 2467SOL    HW1 1859   2.494   3.291   2.283
 2467SOL    HW2 1860   2.408   3.428   2.309
 2468SOL     OW 1861   3.571   2.247   3.243
 2468SOL    HW1 1862   3.644   2.316   3.247
 2468SOL    HW2 1863   3.599   2.172   3.184
 2469SOL     OW 1864   2.117   3.210   2.152
 2469SOL    HW1 1865   2.021   3.211   2.125
 2469SOL    HW2 1866   2.129   3.263   2.236
 2470SOL     OW 1867   1.967   2.875   3.588
 2470SOL    HW1 1868   1.890   2.842   3.642
 2470SOL    HW2 1869   2.052   2.845   3.630
 2471SOL     OW 1870   2.534   2.065   3.351
 2471SOL    HW1 1871   2.624   2.049   3.311
 2471SOL    HW2 1872   2.542   2.070   3.450
 2472SOL     OW 1873   1.937   2.207   1.895
 2472SOL    HW1 1874   1.845   2.179   1.866
 2472SOL    HW2 1875   1.968   2.284   1.839
 2473SOL     OW 1876   3.302   2.718   3.260
 2473SOL    HW1 1877   3.245   2.770   3.197
 2473SOL    HW2 1878   3.398   2.730   3.236
 2474SOL     OW 1879   1.934   2.028   2.180
 2474SOL    HW1 1880   1.917   2.111   2.126
 2474SOL    HW2 1881   2.024   1.991   2.158
 2475SOL     OW 1882   3.045   3.197   1.981
 2475SOL    HW1 1883   2.946   3.186   1.983
 2475SOL    HW2 1884   3.079   3.212   2.074
 2476SOL     OW 1885   2.475   2.704   3.293
 2476SOL    HW1 1886   2.531   2.785   3.276
 2476SOL    HW2 1887   2.534   2.624   3.296
 2477SOL     OW 1888   3.355   3.629   2.821
 2477SOL    HW1 1889   3.388   3.693   2.752
 2477SOL    HW2 1890   3.421   3.623   2.896
 2478SOL     OW 1891   2.578   2.427   3.570
 2478SOL    HW1 1892   2.597   2.492   3.644
 2478SOL    HW2 1893   2.638   2.347   3.579
 2479SOL     OW 1894   3.312   3.082   3.495
 2479SOL    HW1 1895   3.303   3.072   3.594
 2479SOL    HW2 1896   3.408   3.075   3.469
 2480SOL     OW 1897   2.252   3.603   3.422
 2480SOL    HW1 1898   2.161   3.644   3.420
 2480SOL    HW2 1899   2.245   3.509   3.454
 2481SOL     OW 1900   3.536   2.745   3.116
 2481SOL    HW1 1901   3.509   2.656   3.079
 2481SOL    HW2 1902   3.537   2.813   3.043
 2482SOL     OW 1903   3.087   2.187   2.311
 2482SOL    HW1 1904   3.152   2.113   2.300
 2482SOL    HW2 1905   3.107   2.237   2.395
 2483SOL     OW 1906   3.639   2.204   3.504
 2483SOL    HW1 1907   3.622   2.235   3.410
 2483SOL    HW2 1908   3.555   2.167   3.542
 2484SOL     OW 1909   3.592   2.796   3.379
 2484SOL    HW1 1910   3.630   2.887   3.394
 2484SOL    HW2 1911   3.584   2.779   3.280
 2485SOL     OW 1912   2.721   3.236   1.878
 2485SOL    HW1 1913   2.675   3.251   1.966
 2485SOL    HW2 1914   2.765   3.321   1.848
 2486SOL     OW 1915   2.523   3.652   2.815
 2486SOL    HW1 1916   2.477   3.740   2.802
 2486SOL    HW2 1917   2.622   3.664   2.808
 2487SOL     OW 1918   2.721   2.818   2.723
 2487SOL    HW1 1919   2.775   2.749   2.771
 2487SOL    HW2 1920   2.689   2.887   2.789
 2488SOL     OW 1921   2.945   2.846   1.949
 2488SOL    HW1 1922   2.922   2.899   1.867
 2488SOL    HW2 1923   3.026   2.790   1.930
 2489SOL     OW 1924   3.723   3.431   2.713
 2489SOL    HW1 1925   3.652   3.419   2.643
 2489SOL    HW2 1926   3.724   3.352   2.773
 2490SOL     OW 1927   2.083   3.176   3.706
 2490SOL    HW1 1928   2.018   3.103   3.685
 2490SOL    HW2 1929   2.087   3.190   3.804
 2491SOL     OW 1930   1.941   3.102   2.515
 2491SOL    HW1 1931   1.940   3.055   2.603
 2491SOL    HW2 1932   2.023   3.074   2.464
 2492SOL     OW 1933   2.534   3.253   3.486
 2492SOL    HW1 1934   2.456   3.203   3.524
 2492SOL    HW2 1935   2.531   3.348   3.517
 2493SOL     OW 1936   3.686   2.054   3.089
 2493SOL    HW1 1937   3.682   1.964   3.133
 2493SOL    HW2 1938   3.689   2.043   2.990
 2494SOL     OW 1939   3.567   3.349   2.966
 2494SOL    HW1 1940   3.474   3.324   2.939
 2494SOL    HW2 1941   3.593   3.299   3.048
 2495SOL     OW 1942   2.179   2.409   3.142
 2495SOL    HW1 1943   2.217   2.350   3.214
 2495SOL    HW2 1944   2.219   2.383   3.054
 2496SOL     OW 1945   2.674   3.448   2.549
 2496SOL    HW1 1946   2.706   3.458   2.455
 2496SOL    HW2 1947   2.595   3.386   2.551
 2497SOL     OW 1948   3.286   2.076   2.974
 2497SOL    HW1 1949   3.338   2.011   3.029
 2497SOL    HW2 1950   3.237   2.139   3.035
 2498SOL     OW 1951   2.863   1.896   3.016
 2498SOL    HW1 1952   2.800   1.824   2.985
 2498SOL    HW2 1953   2.956   1.860   3.016
 2499SOL     OW 1954   2.632   3.192   2.163
 2499SOL    HW1 1955   2.586   3.105   2.180
 2499SOL    HW2 1956   2.723   3.189   2.204
 2500SOL     OW 1957   2.480   3.429   3.146
 2500SOL    HW1 1958   2.475   3.511   3.203
 2500SOL    HW2 1959   2.569   3.426   3.101
 2501SOL     OW 1960   3.214   1.914   2.030
 2501SOL    HW1 1961   3.249   1.873   1.946
 2501SOL    HW2 1962   3.124   1.876   2.050
 2502SOL     OW 1963   3.162   2.315   2.553
 2502SOL    HW1 1964   3.103   2.395   2.557
 2502SOL    HW2 1965   3.177   2.280   2.646
 2503SOL     OW 1966   3.455   2.083   2.744
 2503SOL    HW1 1967   3.371   2.082   2.798
 2503SOL    HW2 1968   3.457   2.166   2.688
 2504SOL     OW 1969   1.901   2.939   2.162
 2504SOL    HW1 1970   2.000   2.928   2.153
 2504SOL    HW2 1971   1.861   2.853   2.194
 2505SOL     OW 1972   2.737   3.508   2.199
 2505SOL    HW1 1973   2.660   3.473   2.145
 2505SOL    HW2 1974   2.705   3.579   2.261
 2506SOL     OW 1975   2.092   2.490   3.837
 2506SOL    HW1 1976   1.999   2.488   3.874
 2506SOL    HW2 1977   2.093   2.451   3.745
 2520SOL     OW 1978   2.468   2.826   3.847
 2520SOL    HW1 1979   2.475   2.910   3.793
 2520SOL    HW2 1980   2.514   2.839   3.935
 2523SOL     OW 1981   1.889   3.458   3.841
 2523SOL    HW1 1982   1.870   3.362   3.862
 2523SOL    HW2 1983   1.856   3.516   3.916
 2529SOL     OW 1984   3.387   2.861   3.914
 2529SOL    HW1 1985   3.324   2.785   3.927
 2529SOL    HW2 1986   3.435   2.879   4.000
 2532SOL     OW 1987   2.460   2.591   3.994
 2532SOL    HW1 1988   2.484   2.660   3.926
 2532SOL    HW2 1989   2.382   2.624   4.048
 2535SOL     OW 1990   2.903   2.563   4.153
 2535SOL    HW1 1991   2.929   2.559   4.249
 2535SOL    HW2 1992   2.818   2.512   4.139
 2537SOL     OW 1993   2.727   2.210   3.919
 2537SOL    HW1 1994   2.786   2.273   3.870
 2537SOL    HW2 1995   2.746   2.116   3.890
 2543SOL     OW 1996   2.183   2.805   3.966
 2543SOL    HW1 1997   2.265   2.844   3.924
 2543SOL    HW2 1998   2.156   2.723   3.917
 2546SOL     OW 1999   3.494   3.239   3.805
 2546SOL    HW1 2000   3.462   3.333   3.795
 2546SOL    HW2 2001   3.418   3.176   3.793
 2551SOL     OW 2002   2.244   2.562   4.204
 2551SOL    HW1 2003   2.289   2.472   4.201
 2551SOL    HW2 2004   2.150   2.551   4.237
 2552SOL     OW 2005   2.476   1.984   3.841
 2552SOL    HW1 2006   2.574   1.962   3.848
 2552SOL    HW2 2007   2.445   1.967   3.748
 2556SOL     OW 2008   3.296   3.050   3.765
 2556SOL    HW1 2009   3.328   2.974   3.822
 2556SOL    HW2 2010   3.204   3.077   3.795
 2557SOL     OW 2011   2.159   1.897   3.895
 2557SOL    HW1 2012   2.208   1.981   3.874
 2557SOL    HW2 2013   2.221   1.832   3.940
 2558SOL     OW 2014   2.797   2.098   4.204
 2558SOL    HW1 2015   2.749   2.139   4.126
 2558SOL    HW2 2016   2.896   2.096   4.185
 2562SOL     OW 2017   2.894   2.411   3.740
 2562SOL    HW1 2018   2.853   2.493   3.701
 2562SOL    HW2 2019   2.958   2.437   3.813
 2568SOL     OW 2020   2.350   3.247   3.898
 2568SOL    HW1 2021   2.263   3.232   3.945
 2568SOL    HW2 2022   2.333   3.273   3.803
 2570SOL     OW 2023   3.252   2.437   3.802
 2570SOL    HW1 2024   3.198   2.416   3.883
 2570SOL    HW2 2025   3.343   2.396   3.811
 2571SOL     OW 2026   2.389   2.118   4.052
 2571SOL    HW1 2027   2.416   2.059   3.977
 2571SOL    HW2 2028   2.389   2.213   4.021
 2574SOL     OW 2029   2.567   2.912   4.092
 2574SOL    HW1 2030   2.553   2.919   4.191
 2574SOL    HW2 2031   2.651   2.861   4.074
 2583SOL     OW 2032   3.071   2.387   3.999
 2583SOL    HW1 2033   3.084   2.303   4.053
 2583SOL    HW2 2034   3.042   2.461   4.059
 2590SOL     OW 2035   3.402   2.136   3.849
 2590SOL    HW1 2036   3.341   2.061   3.872
 2590SOL    HW2 2037   3.424   2.188   3.932
 2591SOL     OW 2038   3.165   2.700   3.766
 2591SOL    HW1 2039   3.199   2.607   3.781
 2591SOL    HW2 2040   3.183   2.727   3.671
 2596SOL     OW 2041   1.870   3.188   3.924
 2596SOL    HW1 2042   1.777   3.209   3.893
 2596SOL    HW2 2043   1.880   3.089   3.937
 2601SOL     OW 2044   2.677   2.434   4.049
 2601SOL    HW1 2045   2.684   2.345   4.003
 2601SOL    HW2 2046   2.583   2.468   4.041
 2604SOL     OW 2047   2.335   2.362   3.915
 2604SOL    HW1 2048   2.396   2.442   3.919
 2604SOL    HW2 2049   2.240   2.393   3.922
 2607SOL     OW 2050   3.164   2.717   4.033
 2607SOL    HW1 2051   3.078   2.686   4.075
 2607SOL    HW2 2052   3.160   2.703   3.934
 2613SOL     OW 2053   2.534   3.478   3.878
 2613SOL    HW1 2054   2.543   3.488   3.779
 2613SOL    HW2 2055   2.494   3.389   3.899
 2617SOL     OW 2056   3.056   3.474   3.755
 2617SOL    HW1 2057   3.062   3.381   3.792
 2617SOL    HW2 2058   2.997   3.474   3.675
 2619SOL     OW 2059   2.778   2.772   4.015
 2619SOL    HW1 2060   2.841   2.810   3.947
 2619SOL    HW2 2061   2.818   2.689   4.054
 2625SOL     OW 2062   2.117   3.210   4.014
 2625SOL    HW1 2063   2.021   3.211   3.987
 2625SOL    HW2 2064   2.129   3.263   4.098
 2626SOL     OW 2065   1.937   2.207   3.757
 2626SOL    HW1 2066   1.845   2.179   3.728
 2626SOL    HW2 2067   1.968   2.284   3.701
 2627SOL     OW 2068   1.934   2.028   4.042
 2627SOL    HW1 2069   1.917   2.111   3.988
 2627SOL    HW2 2070   2.024   1.991   4.020
 2628SOL     OW 2071   3.045   3.197   3.843
 2628SOL    HW1 2072   2.946   3.186   3.845
 2628SOL    HW2 2073   3.079   3.212   3.936
 2634SOL     OW 2074   2.721   3.236   3.740
 2634SOL    HW1 2075   2.675   3.251   3.828
 2634SOL    HW2 2076   2.765   3.321   3.710
 2637SOL     OW 2077   2.945   2.846   3.811
 2637SOL    HW1 2078   2.922   2.899   3.729
 2637SOL    HW2 2079   3.026   2.790   3.792
 2641SOL     OW 2080   2.290   2.286   4.244
 2641SOL    HW1 2081   2.320   2.214   4.182
 2641SOL    HW2 2082   2.251   2.246   4.327
 2646SOL     OW 2083   2.632   3.192   4.025
 2646SOL    HW1 2084   2.586   3.105   4.042
 2646SOL    HW2 2085   2.723   3.189   4.066
 2647SOL     OW 2086   3.214   1.914   3.892
 2647SOL    HW1 2087   3.249   1.873   3.808
 2647SOL    HW2 2088   3.124   1.876   3.912
 2650SOL     OW 2089   1.901   2.939   4.024
 2650SOL    HW1 2090   2.000   2.928   4.015
 2650SOL    HW2 2091   1.861   2.853   4.056
 2674SOL     OW 2092   2.179   3.975   1.801
 2674SOL    HW1 2093   2.250   4.046   1.807
 2674SOL    HW2 2094   2.091   4.014   1.829
 2695SOL     OW 2095   2.643   3.988   1.749
 2695SOL    HW1 2096   2.710   3.927   1.792
 2695SOL    HW2 2097   2.570   4.007   1.814
 2715SOL     OW 2098   2.777   3.813   1.402
 2715SOL    HW1 2099   2.802   3.793   1.307
 2715SOL    HW2 2100   2.849   3.869   1.444
 2725SOL     OW 2101   2.875   3.829   1.770
 2725SOL    HW1 2102   2.881   3.914   1.718
 2725SOL    HW2 2103   2.907   3.753   1.713
 2726SOL     OW 2104   2.366   3.774   1.740
 2726SOL    HW1 2105   2.324   3.717   1.670
 2726SOL    HW2 2106   2.300   3.843   1.772
 2769SOL     OW 2107   2.534   3.927   1.489
 2769SOL    HW1 2108   2.624   3.911   1.449
 2769SOL    HW2 2109   2.542   3.932   1.588
 2793SOL     OW 2110   2.087   3.999   2.858
 2793SOL    HW1 2111   2.122   3.982   2.950
 2793SOL    HW2 2112   1.999   3.954   2.846
 2794SOL     OW 2113   1.881   4.092   2.509
 2794SOL    HW1 2114   1.799   4.135   2.548
 2794SOL    HW2 2115   1.853   4.019   2.446
 2811SOL     OW 2116   2.671   3.728   2.364
 2811SOL    HW1 2117   2.711   3.819   2.355
 2811SOL    HW2 2118   2.571   3.736   2.370
 2816SOL     OW 2119   3.143   4.069   2.806
 2816SOL    HW1 2120   3.057   4.019   2.793
 2816SOL    HW2 2121   3.205   4.015   2.862
 2820SOL     OW 2122   2.853   4.134   3.104
 2820SOL    HW1 2123   2.776   4.168   3.158
 2820SOL    HW2 2124   2.819   4.083   3.025
 2823SOL     OW 2125   2.727   4.072   2.057
 2823SOL    HW1 2126   2.786   4.135   2.008
 2823SOL    HW2 2127   2.746   3.978   2.028
 2826SOL     OW 2128   2.412   3.920   2.747
 2826SOL    HW1 2129   2.407   3.915   2.847
 2826SOL    HW2 2130   2.414   4.016   2.718
 2830SOL     OW 2131   2.064   4.009   3.360
 2830SOL    HW1 2132   1.984   4.069   3.347
 2830SOL    HW2 2133   2.054   3.960   3.446
 2831SOL     OW 2134   3.262   3.831   2.288
 2831SOL    HW1 2135   3.238   3.794   2.198
 2831SOL    HW2 2136   3.361   3.847   2.292
 2834SOL     OW 2137   2.476   3.846   1.979
 2834SOL    HW1 2138   2.574   3.824   1.986
 2834SOL    HW2 2139   2.445   3.829   1.886
 2837SOL     OW 2140   2.784   4.227   2.761
 2837SOL    HW1 2141   2.759   4.218   2.665
 2837SOL    HW2 2142   2.832   4.145   2.792
 2838SOL     OW 2143   2.401   3.788   2.374
 2838SOL    HW1 2144   2.320   3.789   2.432
 2838SOL    HW2 2145   2.404   3.871   2.319
 2839SOL     OW 2146   2.159   3.759   2.033
 2839SOL    HW1 2147   2.208   3.843   2.012
 2839SOL    HW2 2148   2.221   3.694   2.078
 2840SOL     OW 2149   2.797   3.960   2.342
 2840SOL    HW1 2150   2.749   4.001   2.264
 2840SOL    HW2 2151   2.896   3.958   2.323
 2845SOL     OW 2152   2.423   3.946   3.009
 2845SOL    HW1 2153   2.461   3.862   3.046
 2845SOL    HW2 2154   2.335   3.965   3.053
 2846SOL     OW 2155   2.728   4.178   2.504
 2846SOL    HW1 2156   2.696   4.250   2.442
 2846SOL    HW2 2157   2.752   4.097   2.451
 2847SOL     OW 2158   2.879   3.763   2.615
 2847SOL    HW1 2159   2.807   3.768   2.546
 2847SOL    HW2 2160   2.855   3.694   2.684
 2852SOL     OW 2161   2.389   3.980   2.190
 2852SOL    HW1 2162   2.416   3.921   2.115
 2852SOL    HW2 2163   2.389   4.075   2.159
 2855SOL     OW 2164   2.777   3.813   3.264
 2855SOL    HW1 2165   2.802   3.793   3.169
 2855SOL    HW2 2166   2.849   3.869   3.306
 2861SOL     OW 2167   2.428   4.261   2.727
 2861SOL    HW1 2168   2.440   4.327   2.653
 2861SOL    HW2 2169   2.474   4.295   2.810
 2865SOL     OW 2170   2.875   3.829   3.632
 2865SOL    HW1 2171   2.881   3.914   3.580
 2865SOL    HW2 2172   2.907   3.753   3.575
 2866SOL     OW 2173   2.366   3.774   3.602
 2866SOL    HW1 2174   2.324   3.717   3.532
 2866SOL    HW2 2175   2.300   3.843   3.634
 2870SOL     OW 2176   2.169   3.937   3.093
 2870SOL    HW1 2177   2.146   3.974   3.183
 2870SOL    HW2 2178   2.139   3.842   3.087
 2873SOL     OW 2179   2.169   3.787   2.480
 2873SOL    HW1 2180   2.158   3.881   2.513
 2873SOL    HW2 2181   2.164   3.724   2.557
 2880SOL     OW 2182   2.201   4.233   2.868
 2880SOL    HW1 2183   2.149   4.150   2.851
 2880SOL    HW2 2184   2.278   4.238   2.804
 2882SOL     OW 2185   3.022   3.931   3.339
 2882SOL    HW1 2186   3.022   3.995   3.416
 2882SOL    HW2 2187   3.050   3.979   3.256
 2891SOL     OW 2188   2.335   4.224   2.053
 2891SOL    HW1 2189   2.396   4.304   2.057
 2891SOL    HW2 2190   2.240   4.255   2.060
 2896SOL     OW 2191   3.588   3.859   2.385
 2896SOL    HW1 2192   3.661   3.842   2.318
 2896SOL    HW2 2193   3.557   3.772   2.423
 2899SOL     OW 2194   2.125   4.050   2.582
 2899SOL    HW1 2195   2.046   4.101   2.548
 2899SOL    HW2 2196   2.116   4.035   2.680
 2905SOL     OW 2197   2.876   3.960   2.833
 2905SOL    HW1 2198   2.868   3.924   2.740
 2905SOL    HW2 2199   2.874   3.884   2.898
 2908SOL     OW 2200   2.534   3.927   3.351
 2908SOL    HW1 2201   2.624   3.911   3.311
 2908SOL    HW2 2202   2.542   3.932   3.450
 2909SOL     OW 2203   1.937   4.069   1.895
 2909SOL    HW1 2204   1.845   4.041   1.866
 2909SOL    HW2 2205   1.968   4.146   1.839
 2911SOL     OW 2206   1.934   3.890   2.180
 2911SOL    HW1 2207   1.917   3.973   2.126
 2911SOL    HW2 2208   2.024   3.853   2.158
 2916SOL     OW 2209   3.087   4.049   2.311
 2916SOL    HW1 2210   3.152   3.975   2.300
 2916SOL    HW2 2211   3.107   4.099   2.395
 2924SOL     OW 2212   2.290   4.148   2.382
 2924SOL    HW1 2213   2.320   4.076   2.320
 2924SOL    HW2 2214   2.251   4.108   2.465
 2926SOL     OW 2215   3.286   3.938   2.974
 2926SOL    HW1 2216   3.338   3.873   3.029
 2926SOL    HW2 2217   3.237   4.001   3.035
 2927SOL     OW 2218   2.863   3.758   3.016
 2927SOL    HW1 2219   2.800   3.686   2.985
 2927SOL    HW2 2220   2.956   3.722   3.016
 2929SOL     OW 2221   3.214   3.776   2.030
 2929SOL    HW1 2222   3.249   3.735   1.946
 2929SOL    HW2 2223   3.124   3.738   2.050
 2931SOL     OW 2224   3.455   3.945   2.744
 2931SOL    HW1 2225   3.371   3.944   2.798
 2931SOL    HW2 2226   3.457   4.028   2.688
 3063SOL     OW 2227   3.854   1.821   1.571
 3063SOL    HW1 2228   3.844   1.806   1.670
 3063SOL    HW2 2229   3.768   1.857   1.535
 3141SOL     OW 2230   3.854   1.794   1.851
 3141SOL    HW1 2231   3.813   1.720   1.904
 3141SOL    HW2 2232   3.918   1.845   1.909
 3184SOL     OW 2233   3.955   1.713   2.345
 3184SOL    HW1 2234   3.989   1.790   2.399
 3184SOL    HW2 2235   3.999   1.713   2.255
 3191SOL     OW 2236   3.751   1.596   1.979
 3191SOL    HW1 2237   3.732   1.500   2.000
 3191SOL    HW2 2238   3.718   1.654   2.054
 3203SOL     OW 2239   3.854   1.821   3.433
 3203SOL    HW1 2240   3.844   1.806   3.532
 3203SOL    HW2 2241   3.768   1.857   3.397
 3207SOL     OW 2242   4.075   1.801   2.715
 3207SOL    HW1 2243   4.125   1.715   2.721
 3207SOL    HW2 2244   4.140   1.878   2.712
 3214SOL     OW 2245   3.973   1.785   3.103
 3214SOL    HW1 2246   4.030   1.720   3.153
 3214SOL    HW2 2247   3.957   1.752   3.010
 3242SOL     OW 2248   3.788   1.564   3.193
 3242SOL    HW1 2249   3.742   1.646   3.159
 3242SOL    HW2 2250   3.886   1.583   3.202
 3266SOL     OW 2251   3.732   1.326   2.062
 3266SOL    HW1 2252   3.639   1.347   2.031
 3266SOL    HW2 2253   3.742   1.227   2.075
 3267SOL     OW 2254   3.812   1.801   2.789
 3267SOL    HW1 2255   3.770   1.715   2.762
 3267SOL    HW2 2256   3.906   1.804   2.755
 3430SOL     OW 2257   3.837   2.599   1.597
 3430SOL    HW1 2258   3.925   2.586   1.642
 3430SOL    HW2 2259   3.824   2.696   1.575
 3434SOL     OW 2260   4.041   2.113   1.801
 3434SOL    HW1 2261   4.112   2.184   1.807
 3434SOL    HW2 2262   3.953   2.152   1.829
 3450SOL     OW 2263   3.926   2.147   1.498
 3450SOL    HW1 2264   3.846   2.207   1.485
 3450SOL    HW2 2265   3.916   2.098   1.584
 3468SOL     OW 2266   3.802   2.418   1.386
 3468SOL    HW1 2267   3.894   2.417   1.345
 3468SOL    HW2 2268   3.796   2.492   1.453
 3497SOL     OW 2269   4.074   2.760   1.804
 3497SOL    HW1 2270   4.150   2.804   1.852
 3497SOL    HW2 2271   4.109   2.713   1.722
 3508SOL     OW 2272   3.913   2.382   1.722
 3508SOL    HW1 2273   3.972   2.342   1.652
 3508SOL    HW2 2274   3.855   2.453   1.681
 3514SOL     OW 2275   3.883   2.999   1.466
 3514SOL    HW1 2276   3.905   2.938   1.542
 3514SOL    HW2 2277   3.893   2.950   1.380
 3530SOL     OW 2278   3.829   2.875   1.726
 3530SOL    HW1 2279   3.752   2.842   1.780
 3530SOL    HW2 2280   3.914   2.845   1.768
 3541SOL     OW 2281   3.945   3.176   1.844
 3541SOL    HW1 2282   3.880   3.103   1.823
 3541SOL    HW2 2283   3.949   3.190   1.942
 3552SOL     OW 2284   3.954   2.490   1.975
 3552SOL    HW1 2285   3.861   2.488   2.012
 3552SOL    HW2 2286   3.955   2.451   1.883
 3553SOL     OW 2287   3.949   2.137   2.858
 3553SOL    HW1 2288   3.984   2.120   2.950
 3553SOL    HW2 2289   3.861   2.092   2.846
 3554SOL     OW 2290   3.743   2.230   2.509
 3554SOL    HW1 2291   3.661   2.273   2.548
 3554SOL    HW2 2292   3.715   2.157   2.446
 3565SOL     OW 2293   3.954   3.296   2.400
 3565SOL    HW1 2294   3.928   3.392   2.400
 3565SOL    HW2 2295   3.883   3.242   2.445
 3566SOL     OW 2296   3.964   2.953   2.748
 3566SOL    HW1 2297   3.978   2.869   2.800
 3566SOL    HW2 2298   3.909   3.017   2.803
 3569SOL     OW 2299   3.846   2.505   2.425
 3569SOL    HW1 2300   3.801   2.417   2.442
 3569SOL    HW2 2301   3.845   2.559   2.509
 3570SOL     OW 2302   3.751   3.458   1.979
 3570SOL    HW1 2303   3.732   3.362   2.000
 3570SOL    HW2 2304   3.718   3.516   2.054
 3571SOL     OW 2305   3.837   2.599   3.459
 3571SOL    HW1 2306   3.925   2.586   3.504
 3571SOL    HW2 2307   3.824   2.696   3.437
 3574SOL     OW 2308   3.921   2.838   3.126
 3574SOL    HW1 2309   4.010   2.793   3.112
 3574SOL    HW2 2310   3.848   2.773   3.107
 3581SOL     OW 2311   3.800   2.673   2.651
 3581SOL    HW1 2312   3.899   2.661   2.660
 3581SOL    HW2 2313   3.776   2.768   2.672
 3588SOL     OW 2314   4.045   2.805   2.104
 3588SOL    HW1 2315   4.127   2.844   2.062
 3588SOL    HW2 2316   4.018   2.723   2.055
 3591SOL     OW 2317   3.926   2.147   3.360
 3591SOL    HW1 2318   3.846   2.207   3.347
 3591SOL    HW2 2319   3.916   2.098   3.446
 3595SOL     OW 2320   4.106   2.562   2.342
 3595SOL    HW1 2321   4.151   2.472   2.339
 3595SOL    HW2 2322   4.012   2.551   2.375
 3602SOL     OW 2323   4.021   1.897   2.033
 3602SOL    HW1 2324   4.070   1.981   2.012
 3602SOL    HW2 2325   4.083   1.832   2.078
 3606SOL     OW 2326   4.183   3.014   2.603
 3606SOL    HW1 2327   4.112   2.987   2.668
 3606SOL    HW2 2328   4.157   2.986   2.510
 3609SOL     OW 2329   3.802   2.418   3.248
 3609SOL    HW1 2330   3.894   2.417   3.207
 3609SOL    HW2 2331   3.796   2.492   3.315
 3620SOL     OW 2332   4.134   2.675   3.113
 3620SOL    HW1 2333   4.220   2.687   3.163
 3620SOL    HW2 2334   4.092   2.588   3.140
 3621SOL     OW 2335   3.788   3.426   3.193
 3621SOL    HW1 2336   3.742   3.508   3.159
 3621SOL    HW2 2337   3.886   3.445   3.202
 3622SOL     OW 2338   4.091   2.962   2.363
 3622SOL    HW1 2339   4.084   3.045   2.307
 3622SOL    HW2 2340   4.095   2.882   2.303
 3632SOL     OW 2341   4.031   2.075   3.093
 3632SOL    HW1 2342   4.008   2.112   3.183
 3632SOL    HW2 2343   4.001   1.980   3.087
 3633SOL     OW 2344   3.761   3.172   3.144
 3633SOL    HW1 2345   3.814   3.123   3.212
 3633SOL    HW2 2346   3.783   3.270   3.149
 3635SOL     OW 2347   4.031   1.925   2.480
 3635SOL    HW1 2348   4.020   2.019   2.513
 3635SOL    HW2 2349   4.026   1.862   2.557
 3641SOL     OW 2350   4.043   2.672   2.811
 3641SOL    HW1 2351   4.136   2.708   2.816
 3641SOL    HW2 2352   4.037   2.587   2.863
 3642SOL     OW 2353   4.063   2.371   2.868
 3642SOL    HW1 2354   4.011   2.288   2.851
 3642SOL    HW2 2355   4.140   2.376   2.804
 3645SOL     OW 2356   3.732   3.188   2.062
 3645SOL    HW1 2357   3.639   3.209   2.031
 3645SOL    HW2 2358   3.742   3.089   2.075
 3646SOL     OW 2359   3.812   3.663   2.789
 3646SOL    HW1 2360   3.770   3.577   2.762
 3646SOL    HW2 2361   3.906   3.666   2.755
 3649SOL     OW 2362   3.764   2.406   2.976
 3649SOL    HW1 2363   3.849   2.373   2.935
 3649SOL    HW2 2364   3.777   2.421   3.074
 3650SOL     OW 2365   3.913   2.382   3.584
 3650SOL    HW1 2366   3.972   2.342   3.514
 3650SOL    HW2 2367   3.855   2.453   3.543
 3655SOL     OW 2368   4.197   2.362   2.053
 3655SOL    HW1 2369   4.258   2.442   2.057
 3655SOL    HW2 2370   4.102   2.393   2.060
 3656SOL     OW 2371   3.883   2.999   3.328
 3656SOL    HW1 2372   3.905   2.938   3.404
 3656SOL    HW2 2373   3.893   2.950   3.242
 3658SOL     OW 2374   3.807   3.120   2.884
 3658SOL    HW1 2375   3.802   3.119   2.984
 3658SOL    HW2 2376   3.724   3.079   2.846
 3663SOL     OW 2377   3.987   2.188   2.582
 3663SOL    HW1 2378   3.908   2.239   2.548
 3663SOL    HW2 2379   3.978   2.173   2.680
 3670SOL     OW 2380   3.979   3.210   2.152
 3670SOL    HW1 2381   3.883   3.211   2.125
 3670SOL    HW2 2382   3.991   3.263   2.236
 3671SOL     OW 2383   3.829   2.875   3.588
 3671SOL    HW1 2384   3.752   2.842   3.642
 3671SOL    HW2 2385   3.914   2.845   3.630
 3673SOL     OW 2386   3.799   2.207   1.895
 3673SOL    HW1 2387   3.707   2.179   1.866
 3673SOL    HW2 2388   3.830   2.284   1.839
 3674SOL     OW 2389   3.796   2.028   2.180
 3674SOL    HW1 2390   3.779   2.111   2.126
 3674SOL    HW2 2391   3.886   1.991   2.158
 3684SOL     OW 2392   3.803   3.102   2.515
 3684SOL    HW1 2393   3.802   3.055   2.603
 3684SOL    HW2 2394   3.885   3.074   2.464
 3686SOL     OW 2395   4.152   2.286   2.382
 3686SOL    HW1 2396   4.182   2.214   2.320
 3686SOL    HW2 2397   4.113   2.246   2.465
 3687SOL     OW 2398   4.041   2.409   3.142
 3687SOL    HW1 2399   4.079   2.350   3.214
 3687SOL    HW2 2400   4.081   2.383   3.054
 3692SOL     OW 2401   3.763   2.939   2.162
 3692SOL    HW1 2402   3.862   2.928   2.153
 3692SOL    HW2 2403   3.723   2.853   2.194
   4.99884   4.99884   4.99884
