mobley_6739648_GMX.gro created by acpype (v: 2023.10.27) on Tue May 19 12:57:10 2026
 2396
    1MOL     C1    1   2.230   2.296   2.113
    1MOL     C2    2   2.264   2.149   2.137
    1MOL     C3    3   2.218   2.333   2.345
    1MOL     C4    4   2.251   2.186   2.369
    1MOL     O1    5   2.278   2.375   2.222
    1MOL     O2    6   2.204   2.107   2.260
    1MOL     H1    7   2.279   2.331   2.021
    1MOL     H2    8   2.122   2.311   2.102
    1MOL     H3    9   2.224   2.087   2.057
    1MOL     H4   10   2.372   2.134   2.143
    1MOL     H5   11   2.110   2.348   2.339
    1MOL     H6   12   2.258   2.395   2.425
    1MOL     H7   13   2.360   2.171   2.380
    1MOL     H8   14   2.203   2.151   2.461
   14SOL     OW   15   1.460   1.505   1.339
   14SOL    HW1   16   1.484   1.599   1.365
   14SOL    HW2   17   1.444   1.451   1.421
   18SOL     OW   18   1.127   1.341   1.690
   18SOL    HW1   19   1.174   1.341   1.778
   18SOL    HW2   20   1.079   1.254   1.679
   31SOL     OW   21   1.293   1.228   1.423
   31SOL    HW1   22   1.330   1.155   1.365
   31SOL    HW2   23   1.345   1.233   1.508
   35SOL     OW   24   1.187   1.792   1.616
   35SOL    HW1   25   1.211   1.852   1.540
   35SOL    HW2   26   1.194   1.697   1.586
   37SOL     OW   27   1.466   1.417   0.953
   37SOL    HW1   28   1.407   1.423   1.033
   37SOL    HW2   29   1.451   1.329   0.907
   50SOL     OW   30   1.719   0.585   1.831
   50SOL    HW1   31   1.693   0.674   1.795
   50SOL    HW2   32   1.717   0.517   1.758
   56SOL     OW   33   1.227   1.550   1.506
   56SOL    HW1   34   1.233   1.473   1.570
   56SOL    HW2   35   1.175   1.524   1.426
   95SOL     OW   36   1.754   1.223   1.588
   95SOL    HW1   37   1.845   1.184   1.575
   95SOL    HW2   38   1.762   1.319   1.612
   96SOL     OW   39   1.064   1.347   1.340
   96SOL    HW1   40   0.984   1.324   1.395
   96SOL    HW2   41   1.147   1.321   1.389
   97SOL     OW   42   1.592   1.629   1.625
   97SOL    HW1   43   1.619   1.663   1.535
   97SOL    HW2   44   1.671   1.591   1.671
   99SOL     OW   45   1.638   1.099   1.079
   99SOL    HW1   46   1.643   1.180   1.138
   99SOL    HW2   47   1.552   1.101   1.028
  101SOL     OW   48   0.980   1.116   1.719
  101SOL    HW1   49   0.881   1.122   1.729
  101SOL    HW2   50   1.003   1.036   1.663
  109SOL     OW   51   1.272   1.445   1.142
  109SOL    HW1   52   1.319   1.458   1.229
  109SOL    HW2   53   1.206   1.371   1.151
  113SOL     OW   54   1.587   0.779   1.670
  113SOL    HW1   55   1.495   0.817   1.665
  113SOL    HW2   56   1.647   0.826   1.605
  122SOL     OW   57   1.728   0.935   1.854
  122SOL    HW1   58   1.682   0.928   1.765
  122SOL    HW2   59   1.666   0.979   1.920
  126SOL     OW   60   0.980   1.573   1.700
  126SOL    HW1   61   0.960   1.617   1.612
  126SOL    HW2   62   1.019   1.482   1.684
  127SOL     OW   63   1.859   1.518   1.605
  127SOL    HW1   64   1.873   1.545   1.510
  127SOL    HW2   65   1.942   1.540   1.658
  142SOL     OW   66   1.369   0.950   1.660
  142SOL    HW1   67   1.408   1.039   1.680
  142SOL    HW2   68   1.379   0.930   1.563
  147SOL     OW   69   0.930   1.678   1.465
  147SOL    HW1   70   0.906   1.660   1.370
  147SOL    HW2   71   0.960   1.772   1.475
  150SOL     OW   72   1.347   1.059   1.234
  150SOL    HW1   73   1.371   0.996   1.160
  150SOL    HW2   74   1.257   1.099   1.216
  152SOL     OW   75   1.759   1.747   1.154
  152SOL    HW1   76   1.820   1.777   1.081
  152SOL    HW2   77   1.721   1.658   1.132
  153SOL     OW   78   1.252   1.731   1.128
  153SOL    HW1   79   1.336   1.736   1.074
  153SOL    HW2   80   1.229   1.635   1.146
  155SOL     OW   81   0.688   1.662   1.716
  155SOL    HW1   82   0.632   1.743   1.725
  155SOL    HW2   83   0.740   1.666   1.630
  163SOL     OW   84   1.650   1.720   1.394
  163SOL    HW1   85   1.703   1.730   1.310
  163SOL    HW2   86   1.623   1.810   1.428
  171SOL     OW   87   1.614   1.292   1.289
  171SOL    HW1   88   1.674   1.295   1.369
  171SOL    HW2   89   1.539   1.356   1.302
  184SOL     OW   90   1.493   1.767   0.959
  184SOL    HW1   91   1.526   1.831   0.890
  184SOL    HW2   92   1.559   1.761   1.034
  186SOL     OW   93   1.450   1.220   1.633
  186SOL    HW1   94   1.441   1.210   1.732
  186SOL    HW2   95   1.546   1.213   1.607
  188SOL     OW   96   1.674   0.883   1.254
  188SOL    HW1   97   1.647   0.794   1.217
  188SOL    HW2   98   1.675   0.951   1.181
  192SOL     OW   99   1.730   0.934   1.517
  192SOL    HW1  100   1.768   1.025   1.532
  192SOL    HW2  101   1.722   0.917   1.418
  197SOL     OW  102   1.861   1.569   0.851
  197SOL    HW1  103   1.790   1.557   0.781
  197SOL    HW2  104   1.862   1.490   0.911
  203SOL     OW  105   1.705   1.487   1.104
  203SOL    HW1  106   1.612   1.462   1.077
  203SOL    HW2  107   1.731   1.437   1.186
  219SOL     OW  108   1.555   1.511   2.565
  219SOL    HW1  109   1.498   1.495   2.646
  219SOL    HW2  110   1.496   1.521   2.485
  221SOL     OW  111   1.755   0.607   2.093
  221SOL    HW1  112   1.743   0.594   1.994
  221SOL    HW2  113   1.725   0.526   2.142
  227SOL     OW  114   1.460   1.505   3.201
  227SOL    HW1  115   1.484   1.599   3.227
  227SOL    HW2  116   1.444   1.451   3.283
  238SOL     OW  117   1.842   1.767   2.221
  238SOL    HW1  118   1.896   1.738   2.301
  238SOL    HW2  119   1.872   1.857   2.192
  240SOL     OW  120   1.689   0.922   2.474
  240SOL    HW1  121   1.784   0.893   2.482
  240SOL    HW2  122   1.681   0.987   2.399
  241SOL     OW  123   1.641   1.108   2.294
  241SOL    HW1  124   1.727   1.110   2.242
  241SOL    HW2  125   1.655   1.155   2.382
  244SOL     OW  126   1.293   1.228   3.285
  244SOL    HW1  127   1.330   1.155   3.227
  244SOL    HW2  128   1.345   1.233   3.370
  247SOL     OW  129   1.525   0.999   2.052
  247SOL    HW1  130   1.462   0.923   2.065
  247SOL    HW2  131   1.573   1.017   2.138
  248SOL     OW  132   1.187   1.792   3.478
  248SOL    HW1  133   1.211   1.852   3.402
  248SOL    HW2  134   1.194   1.697   3.448
  250SOL     OW  135   1.466   1.417   2.815
  250SOL    HW1  136   1.407   1.423   2.895
  250SOL    HW2  137   1.451   1.329   2.769
  251SOL     OW  138   1.667   1.714   2.434
  251SOL    HW1  139   1.626   1.691   2.346
  251SOL    HW2  140   1.649   1.640   2.499
  254SOL     OW  141   1.576   1.662   2.169
  254SOL    HW1  142   1.665   1.708   2.172
  254SOL    HW2  143   1.555   1.638   2.074
  264SOL     OW  144   1.362   1.144   2.407
  264SOL    HW1  145   1.445   1.115   2.359
  264SOL    HW2  146   1.313   1.211   2.351
  266SOL     OW  147   1.008   1.456   2.339
  266SOL    HW1  148   0.962   1.528   2.287
  266SOL    HW2  149   1.004   1.476   2.437
  268SOL     OW  150   1.795   1.066   2.735
  268SOL    HW1  151   1.733   1.051   2.659
  268SOL    HW2  152   1.743   1.077   2.820
  269SOL     OW  153   1.227   1.550   3.368
  269SOL    HW1  154   1.233   1.473   3.432
  269SOL    HW2  155   1.175   1.524   3.288
  271SOL     OW  156   1.458   0.735   2.590
  271SOL    HW1  157   1.453   0.670   2.665
  271SOL    HW2  158   1.538   0.794   2.603
  273SOL     OW  159   1.111   1.776   2.099
  273SOL    HW1  160   1.051   1.714   2.149
  273SOL    HW2  161   1.142   1.732   2.014
  275SOL     OW  162   1.632   1.377   1.943
  275SOL    HW1  163   1.600   1.471   1.933
  275SOL    HW2  164   1.556   1.314   1.931
  279SOL     OW  165   0.940   1.698   2.766
  279SOL    HW1  166   1.020   1.641   2.787
  279SOL    HW2  167   0.891   1.658   2.689
  284SOL     OW  168   0.888   1.514   3.057
  284SOL    HW1  169   0.865   1.489   2.963
  284SOL    HW2  170   0.949   1.445   3.096
  286SOL     OW  171   0.803   1.402   2.786
  286SOL    HW1  172   0.893   1.416   2.744
  286SOL    HW2  173   0.732   1.404   2.715
  289SOL     OW  174   1.434   1.188   1.903
  289SOL    HW1  175   1.466   1.112   1.960
  289SOL    HW2  176   1.342   1.215   1.933
  293SOL     OW  177   1.227   1.570   2.655
  293SOL    HW1  178   1.248   1.644   2.590
  293SOL    HW2  179   1.295   1.570   2.728
  295SOL     OW  180   1.271   1.797   2.453
  295SOL    HW1  181   1.315   1.861   2.389
  295SOL    HW2  182   1.221   1.849   2.523
  301SOL     OW  183   1.429   1.173   2.729
  301SOL    HW1  184   1.374   1.089   2.722
  301SOL    HW2  185   1.455   1.202   2.637
  303SOL     OW  186   1.857   0.833   2.239
  303SOL    HW1  187   1.899   0.769   2.303
  303SOL    HW2  188   1.819   0.782   2.161
  305SOL     OW  189   1.664   1.280   2.519
  305SOL    HW1  190   1.763   1.288   2.533
  305SOL    HW2  191   1.619   1.364   2.550
  308SOL     OW  192   1.754   1.223   3.450
  308SOL    HW1  193   1.845   1.184   3.437
  308SOL    HW2  194   1.762   1.319   3.474
  309SOL     OW  195   1.064   1.347   3.202
  309SOL    HW1  196   0.984   1.324   3.257
  309SOL    HW2  197   1.147   1.321   3.251
  310SOL     OW  198   1.592   1.629   3.487
  310SOL    HW1  199   1.619   1.663   3.397
  310SOL    HW2  200   1.671   1.591   3.533
  311SOL     OW  201   1.111   1.195   2.962
  311SOL    HW1  202   1.071   1.239   3.043
  311SOL    HW2  203   1.070   1.232   2.879
  312SOL     OW  204   1.638   1.099   2.941
  312SOL    HW1  205   1.643   1.180   3.000
  312SOL    HW2  206   1.552   1.101   2.890
  321SOL     OW  207   1.252   1.348   2.250
  321SOL    HW1  208   1.302   1.425   2.290
  321SOL    HW2  209   1.157   1.350   2.282
  322SOL     OW  210   1.272   1.445   3.004
  322SOL    HW1  211   1.319   1.458   3.091
  322SOL    HW2  212   1.206   1.371   3.013
  323SOL     OW  213   1.582   0.639   2.334
  323SOL    HW1  214   1.551   0.700   2.407
  323SOL    HW2  215   1.632   0.691   2.265
  330SOL     OW  216   1.360   0.862   2.907
  330SOL    HW1  217   1.285   0.862   2.841
  330SOL    HW2  218   1.397   0.770   2.916
  340SOL     OW  219   1.859   1.518   3.467
  340SOL    HW1  220   1.873   1.545   3.372
  340SOL    HW2  221   1.942   1.540   3.520
  343SOL     OW  222   1.303   0.838   1.904
  343SOL    HW1  223   1.337   0.745   1.919
  343SOL    HW2  224   1.321   0.865   1.809
  344SOL     OW  225   1.068   1.333   2.711
  344SOL    HW1  226   1.075   1.249   2.656
  344SOL    HW2  227   1.130   1.402   2.675
  360SOL     OW  228   0.930   1.678   3.327
  360SOL    HW1  229   0.906   1.660   3.232
  360SOL    HW2  230   0.960   1.772   3.337
  363SOL     OW  231   1.347   1.059   3.096
  363SOL    HW1  232   1.371   0.996   3.022
  363SOL    HW2  233   1.257   1.099   3.078
  364SOL     OW  234   1.302   0.855   2.171
  364SOL    HW1  235   1.216   0.824   2.213
  364SOL    HW2  236   1.298   0.841   2.072
  365SOL     OW  237   1.759   1.747   3.016
  365SOL    HW1  238   1.820   1.777   2.943
  365SOL    HW2  239   1.721   1.658   2.994
  366SOL     OW  240   1.252   1.731   2.990
  366SOL    HW1  241   1.336   1.736   2.936
  366SOL    HW2  242   1.229   1.635   3.008
  370SOL     OW  243   1.388   1.573   2.339
  370SOL    HW1  244   1.455   1.585   2.265
  370SOL    HW2  245   1.348   1.662   2.362
  372SOL     OW  246   1.280   0.927   2.534
  372SOL    HW1  247   1.340   0.846   2.536
  372SOL    HW2  248   1.320   0.996   2.474
  374SOL     OW  249   0.672   1.616   2.016
  374SOL    HW1  250   0.681   1.626   1.917
  374SOL    HW2  251   0.632   1.527   2.037
  375SOL     OW  252   1.650   1.720   3.256
  375SOL    HW1  253   1.703   1.730   3.172
  375SOL    HW2  254   1.623   1.810   3.290
  378SOL     OW  255   1.194   1.612   1.893
  378SOL    HW1  256   1.200   1.519   1.930
  378SOL    HW2  257   1.135   1.612   1.813
  381SOL     OW  258   1.504   1.607   1.906
  381SOL    HW1  259   1.412   1.644   1.913
  381SOL    HW2  260   1.542   1.627   1.816
  383SOL     OW  261   1.614   1.292   3.151
  383SOL    HW1  262   1.674   1.295   3.231
  383SOL    HW2  263   1.539   1.356   3.164
  384SOL     OW  264   1.039   1.098   2.558
  384SOL    HW1  265   0.969   1.051   2.612
  384SOL    HW2  266   1.098   1.030   2.515
  394SOL     OW  267   1.183   1.335   1.981
  394SOL    HW1  268   1.084   1.324   1.983
  394SOL    HW2  269   1.217   1.350   2.074
  396SOL     OW  270   1.493   1.767   2.821
  396SOL    HW1  271   1.526   1.831   2.752
  396SOL    HW2  272   1.559   1.761   2.896
  400SOL     OW  273   1.674   0.883   3.116
  400SOL    HW1  274   1.647   0.794   3.079
  400SOL    HW2  275   1.675   0.951   3.043
  405SOL     OW  276   0.859   1.374   1.878
  405SOL    HW1  277   0.813   1.389   1.966
  405SOL    HW2  278   0.903   1.459   1.848
  406SOL     OW  279   0.661   1.790   2.815
  406SOL    HW1  280   0.615   1.878   2.802
  406SOL    HW2  281   0.760   1.802   2.808
  408SOL     OW  282   1.083   0.984   1.949
  408SOL    HW1  283   1.060   1.037   1.867
  408SOL    HW2  284   1.164   0.928   1.930
  409SOL     OW  285   1.861   1.569   2.713
  409SOL    HW1  286   1.790   1.557   2.643
  409SOL    HW2  287   1.862   1.490   2.773
  415SOL     OW  288   1.705   1.487   2.966
  415SOL    HW1  289   1.612   1.462   2.939
  415SOL    HW2  290   1.731   1.437   3.048
  417SOL     OW  291   0.812   1.586   2.549
  417SOL    HW1  292   0.844   1.596   2.455
  417SOL    HW2  293   0.733   1.524   2.551
  420SOL     OW  294   0.770   1.330   2.163
  420SOL    HW1  295   0.724   1.243   2.180
  420SOL    HW2  296   0.861   1.327   2.204
  426SOL     OW  297   0.875   1.646   2.199
  426SOL    HW1  298   0.798   1.611   2.145
  426SOL    HW2  299   0.843   1.717   2.261
  518SOL     OW  300   0.850   2.660   1.823
  518SOL    HW1  301   0.846   2.736   1.888
  518SOL    HW2  302   0.872   2.696   1.732
  520SOL     OW  303   0.686   3.023   1.803
  520SOL    HW1  304   0.746   3.102   1.817
  520SOL    HW2  305   0.600   3.054   1.762
  522SOL     OW  306   1.460   3.367   1.339
  522SOL    HW1  307   1.484   3.461   1.365
  522SOL    HW2  308   1.444   3.313   1.421
  524SOL     OW  309   1.603   2.309   0.737
  524SOL    HW1  310   1.529   2.355   0.687
  524SOL    HW2  311   1.654   2.377   0.790
  526SOL     OW  312   1.127   3.203   1.690
  526SOL    HW1  313   1.174   3.203   1.778
  526SOL    HW2  314   1.079   3.116   1.679
  531SOL     OW  315   1.594   1.976   1.480
  531SOL    HW1  316   1.576   2.043   1.408
  531SOL    HW2  317   1.591   2.022   1.569
  539SOL     OW  318   1.293   3.090   1.423
  539SOL    HW1  319   1.330   3.017   1.365
  539SOL    HW2  320   1.345   3.095   1.508
  548SOL     OW  321   1.281   2.207   0.944
  548SOL    HW1  322   1.195   2.157   0.931
  548SOL    HW2  323   1.343   2.153   1.000
  550SOL     OW  324   0.807   2.467   1.465
  550SOL    HW1  325   0.760   2.464   1.554
  550SOL    HW2  326   0.756   2.412   1.399
  551SOL     OW  327   1.394   2.331   1.674
  551SOL    HW1  328   1.374   2.374   1.762
  551SOL    HW2  329   1.472   2.269   1.683
  552SOL     OW  330   0.973   2.752   1.572
  552SOL    HW1  331   1.019   2.668   1.543
  552SOL    HW2  332   0.917   2.786   1.497
  553SOL     OW  333   0.991   2.272   1.242
  553SOL    HW1  334   0.914   2.306   1.296
  553SOL    HW2  335   0.957   2.221   1.163
  558SOL     OW  336   1.719   2.447   1.831
  558SOL    HW1  337   1.693   2.536   1.795
  558SOL    HW2  338   1.717   2.379   1.758
  563SOL     OW  339   1.795   2.928   0.873
  563SOL    HW1  340   1.733   2.913   0.797
  563SOL    HW2  341   1.743   2.939   0.958
  564SOL     OW  342   1.227   3.412   1.506
  564SOL    HW1  343   1.233   3.335   1.570
  564SOL    HW2  344   1.175   3.386   1.426
  566SOL     OW  345   1.458   2.597   0.728
  566SOL    HW1  346   1.453   2.532   0.803
  566SOL    HW2  347   1.538   2.656   0.741
  576SOL     OW  348   1.547   2.084   1.729
  576SOL    HW1  349   1.542   2.121   1.821
  576SOL    HW2  350   1.475   2.015   1.717
  578SOL     OW  351   0.781   2.126   1.749
  578SOL    HW1  352   0.848   2.065   1.792
  578SOL    HW2  353   0.708   2.145   1.814
  580SOL     OW  354   1.351   2.452   1.433
  580SOL    HW1  355   1.379   2.409   1.518
  580SOL    HW2  356   1.376   2.548   1.434
  586SOL     OW  357   1.076   2.545   1.464
  586SOL    HW1  358   0.996   2.484   1.467
  586SOL    HW2  359   1.157   2.492   1.440
  595SOL     OW  360   1.429   3.035   0.867
  595SOL    HW1  361   1.374   2.951   0.860
  595SOL    HW2  362   1.455   3.064   0.775
  596SOL     OW  363   1.466   2.452   0.992
  596SOL    HW1  364   1.436   2.357   0.999
  596SOL    HW2  365   1.539   2.468   1.058
  602SOL     OW  366   1.754   3.085   1.588
  602SOL    HW1  367   1.845   3.046   1.575
  602SOL    HW2  368   1.762   3.181   1.612
  603SOL     OW  369   1.064   3.209   1.340
  603SOL    HW1  370   0.984   3.186   1.395
  603SOL    HW2  371   1.147   3.183   1.389
  604SOL     OW  372   1.592   3.491   1.625
  604SOL    HW1  373   1.619   3.525   1.535
  604SOL    HW2  374   1.671   3.453   1.671
  606SOL     OW  375   1.638   2.961   1.079
  606SOL    HW1  376   1.643   3.042   1.138
  606SOL    HW2  377   1.552   2.963   1.028
  607SOL     OW  378   0.915   1.951   1.402
  607SOL    HW1  379   0.940   1.931   1.307
  607SOL    HW2  380   0.987   2.007   1.444
  608SOL     OW  381   0.980   2.978   1.719
  608SOL    HW1  382   0.881   2.984   1.729
  608SOL    HW2  383   1.003   2.898   1.663
  611SOL     OW  384   1.274   2.248   1.262
  611SOL    HW1  385   1.295   2.322   1.326
  611SOL    HW2  386   1.185   2.265   1.219
  620SOL     OW  387   1.587   2.641   1.670
  620SOL    HW1  388   1.495   2.679   1.665
  620SOL    HW2  389   1.647   2.688   1.605
  621SOL     OW  390   1.013   1.967   1.770
  621SOL    HW1  391   1.019   2.052   1.718
  621SOL    HW2  392   1.045   1.891   1.713
  624SOL     OW  393   1.360   2.724   1.045
  624SOL    HW1  394   1.285   2.724   0.979
  624SOL    HW2  395   1.397   2.632   1.054
  629SOL     OW  396   1.728   2.797   1.854
  629SOL    HW1  397   1.682   2.790   1.765
  629SOL    HW2  398   1.666   2.841   1.920
  634SOL     OW  399   1.859   3.380   1.605
  634SOL    HW1  400   1.873   3.407   1.510
  634SOL    HW2  401   1.942   3.402   1.658
  641SOL     OW  402   1.138   2.242   1.678
  641SOL    HW1  403   1.093   2.305   1.742
  641SOL    HW2  404   1.231   2.273   1.661
  642SOL     OW  405   1.160   2.069   1.477
  642SOL    HW1  406   1.160   2.133   1.554
  642SOL    HW2  407   1.188   2.117   1.394
  646SOL     OW  408   1.002   2.658   1.238
  646SOL    HW1  409   1.043   2.626   1.324
  646SOL    HW2  410   0.906   2.631   1.235
  649SOL     OW  411   1.369   2.812   1.660
  649SOL    HW1  412   1.408   2.901   1.680
  649SOL    HW2  413   1.379   2.792   1.563
  651SOL     OW  414   1.657   2.466   1.206
  651SOL    HW1  415   1.619   2.397   1.268
  651SOL    HW2  416   1.739   2.430   1.162
  657SOL     OW  417   1.347   2.921   1.234
  657SOL    HW1  418   1.371   2.858   1.160
  657SOL    HW2  419   1.257   2.961   1.216
  670SOL     OW  420   1.650   3.582   1.394
  670SOL    HW1  421   1.703   3.592   1.310
  670SOL    HW2  422   1.623   3.672   1.428
  671SOL     OW  423   1.841   2.037   0.963
  671SOL    HW1  424   1.880   1.952   0.927
  671SOL    HW2  425   1.743   2.039   0.944
  674SOL     OW  426   0.822   2.864   1.372
  674SOL    HW1  427   0.862   2.863   1.280
  674SOL    HW2  428   0.832   2.956   1.412
  678SOL     OW  429   1.614   3.154   1.289
  678SOL    HW1  430   1.674   3.157   1.369
  678SOL    HW2  431   1.539   3.218   1.302
  680SOL     OW  432   1.014   2.098   0.971
  680SOL    HW1  433   1.006   2.062   0.878
  680SOL    HW2  434   1.012   2.022   1.036
  682SOL     OW  435   1.709   2.247   1.381
  682SOL    HW1  436   1.782   2.316   1.385
  682SOL    HW2  437   1.737   2.172   1.322
  685SOL     OW  438   0.672   2.065   1.489
  685SOL    HW1  439   0.762   2.049   1.449
  685SOL    HW2  440   0.680   2.070   1.588
  687SOL     OW  441   1.440   2.718   1.398
  687SOL    HW1  442   1.383   2.770   1.335
  687SOL    HW2  443   1.536   2.730   1.374
  692SOL     OW  444   0.716   2.427   1.708
  692SOL    HW1  445   0.735   2.492   1.782
  692SOL    HW2  446   0.776   2.347   1.717
  693SOL     OW  447   1.450   3.082   1.633
  693SOL    HW1  448   1.441   3.072   1.732
  693SOL    HW2  449   1.546   3.075   1.607
  695SOL     OW  450   1.674   2.745   1.254
  695SOL    HW1  451   1.647   2.656   1.217
  695SOL    HW2  452   1.675   2.813   1.181
  698SOL     OW  453   1.777   2.204   1.642
  698SOL    HW1  454   1.760   2.235   1.548
  698SOL    HW2  455   1.693   2.167   1.680
  699SOL     OW  456   1.730   2.796   1.517
  699SOL    HW1  457   1.768   2.887   1.532
  699SOL    HW2  458   1.722   2.779   1.418
  708SOL     OW  459   1.824   2.054   1.227
  708SOL    HW1  460   1.820   1.964   1.271
  708SOL    HW2  461   1.827   2.043   1.128
  710SOL     OW  462   1.705   3.349   1.104
  710SOL    HW1  463   1.612   3.324   1.077
  710SOL    HW2  464   1.731   3.299   1.186
  713SOL     OW  465   1.424   2.076   1.112
  713SOL    HW1  466   1.476   2.011   1.167
  713SOL    HW2  467   1.375   2.139   1.173
  714SOL     OW  468   1.001   1.896   1.154
  714SOL    HW1  469   0.938   1.824   1.123
  714SOL    HW2  470   1.094   1.860   1.154
  719SOL     OW  471   1.593   2.083   0.882
  719SOL    HW1  472   1.509   2.082   0.936
  719SOL    HW2  473   1.595   2.166   0.826
  726SOL     OW  474   1.555   3.373   2.565
  726SOL    HW1  475   1.498   3.357   2.646
  726SOL    HW2  476   1.496   3.383   2.485
  727SOL     OW  477   1.135   2.565   2.579
  727SOL    HW1  478   1.192   2.643   2.554
  727SOL    HW2  479   1.075   2.591   2.655
  728SOL     OW  480   1.755   2.469   2.093
  728SOL    HW1  481   1.743   2.456   1.994
  728SOL    HW2  482   1.725   2.388   2.142
  729SOL     OW  483   0.768   3.006   2.885
  729SOL    HW1  484   0.690   3.023   2.945
  729SOL    HW2  485   0.802   3.093   2.849
  731SOL     OW  486   0.685   2.874   2.527
  731SOL    HW1  487   0.754   2.858   2.597
  731SOL    HW2  488   0.612   2.931   2.565
  734SOL     OW  489   1.460   3.367   3.201
  734SOL    HW1  490   1.484   3.461   3.227
  734SOL    HW2  491   1.444   3.313   3.283
  736SOL     OW  492   1.603   2.309   2.599
  736SOL    HW1  493   1.529   2.355   2.549
  736SOL    HW2  494   1.654   2.377   2.652
  742SOL     OW  495   0.606   2.826   1.985
  742SOL    HW1  496   0.613   2.910   1.931
  742SOL    HW2  497   0.652   2.839   2.073
  743SOL     OW  498   1.594   1.976   3.342
  743SOL    HW1  499   1.576   2.043   3.270
  743SOL    HW2  500   1.591   2.022   3.431
  745SOL     OW  501   1.842   3.629   2.221
  745SOL    HW1  502   1.896   3.600   2.301
  745SOL    HW2  503   1.872   3.719   2.192
  747SOL     OW  504   1.689   2.784   2.474
  747SOL    HW1  505   1.784   2.755   2.482
  747SOL    HW2  506   1.681   2.849   2.399
  748SOL     OW  507   1.641   2.970   2.294
  748SOL    HW1  508   1.727   2.972   2.242
  748SOL    HW2  509   1.655   3.017   2.382
  751SOL     OW  510   1.293   3.090   3.285
  751SOL    HW1  511   1.330   3.017   3.227
  751SOL    HW2  512   1.345   3.095   3.370
  752SOL     OW  513   0.809   1.866   2.364
  752SOL    HW1  514   0.849   1.957   2.355
  752SOL    HW2  515   0.709   1.874   2.370
  754SOL     OW  516   1.525   2.861   2.052
  754SOL    HW1  517   1.462   2.785   2.065
  754SOL    HW2  518   1.573   2.879   2.138
  757SOL     OW  519   1.466   3.279   2.815
  757SOL    HW1  520   1.407   3.285   2.895
  757SOL    HW2  521   1.451   3.191   2.769
  758SOL     OW  522   1.667   3.576   2.434
  758SOL    HW1  523   1.626   3.553   2.346
  758SOL    HW2  524   1.649   3.502   2.499
  759SOL     OW  525   0.598   2.591   2.132
  759SOL    HW1  526   0.622   2.660   2.064
  759SOL    HW2  527   0.520   2.624   2.186
  760SOL     OW  528   1.281   2.207   2.806
  760SOL    HW1  529   1.195   2.157   2.793
  760SOL    HW2  530   1.343   2.153   2.862
  761SOL     OW  531   1.576   3.524   2.169
  761SOL    HW1  532   1.665   3.570   2.172
  761SOL    HW2  533   1.555   3.500   2.074
  763SOL     OW  534   1.394   2.331   3.536
  763SOL    HW1  535   1.374   2.374   3.624
  763SOL    HW2  536   1.472   2.269   3.545
  765SOL     OW  537   0.991   2.272   3.104
  765SOL    HW1  538   0.914   2.306   3.158
  765SOL    HW2  539   0.957   2.221   3.025
  766SOL     OW  540   1.041   2.563   2.291
  766SOL    HW1  541   1.067   2.559   2.387
  766SOL    HW2  542   0.956   2.512   2.277
  769SOL     OW  543   0.865   2.210   2.057
  769SOL    HW1  544   0.924   2.273   2.008
  769SOL    HW2  545   0.884   2.116   2.028
  770SOL     OW  546   1.719   2.447   3.693
  770SOL    HW1  547   1.693   2.536   3.657
  770SOL    HW2  548   1.717   2.379   3.620
  771SOL     OW  549   1.362   3.006   2.407
  771SOL    HW1  550   1.445   2.977   2.359
  771SOL    HW2  551   1.313   3.073   2.351
  772SOL     OW  552   0.550   2.058   2.747
  772SOL    HW1  553   0.545   2.053   2.847
  772SOL    HW2  554   0.552   2.154   2.718
  773SOL     OW  555   1.008   3.318   2.339
  773SOL    HW1  556   0.962   3.390   2.287
  773SOL    HW2  557   1.004   3.338   2.437
  775SOL     OW  558   1.795   2.928   2.735
  775SOL    HW1  559   1.733   2.913   2.659
  775SOL    HW2  560   1.743   2.939   2.820
  778SOL     OW  561   1.458   2.597   2.590
  778SOL    HW1  562   1.453   2.532   2.665
  778SOL    HW2  563   1.538   2.656   2.603
  782SOL     OW  564   1.632   3.239   1.943
  782SOL    HW1  565   1.600   3.333   1.933
  782SOL    HW2  566   1.556   3.176   1.931
  784SOL     OW  567   1.400   1.969   2.288
  784SOL    HW1  568   1.376   1.932   2.198
  784SOL    HW2  569   1.499   1.985   2.292
  788SOL     OW  570   1.547   2.084   3.591
  788SOL    HW1  571   1.542   2.121   3.683
  788SOL    HW2  572   1.475   2.015   3.579
  789SOL     OW  573   0.614   1.984   1.979
  789SOL    HW1  574   0.712   1.962   1.986
  789SOL    HW2  575   0.583   1.967   1.886
  792SOL     OW  576   1.351   2.452   3.295
  792SOL    HW1  577   1.379   2.409   3.380
  792SOL    HW2  578   1.376   2.548   3.296
  794SOL     OW  579   0.922   2.365   2.761
  794SOL    HW1  580   0.897   2.356   2.665
  794SOL    HW2  581   0.970   2.283   2.792
  795SOL     OW  582   0.539   1.926   2.374
  795SOL    HW1  583   0.458   1.927   2.432
  795SOL    HW2  584   0.542   2.009   2.319
  796SOL     OW  585   1.434   3.050   1.903
  796SOL    HW1  586   1.466   2.974   1.960
  796SOL    HW2  587   1.342   3.077   1.933
  798SOL     OW  588   0.935   2.098   2.342
  798SOL    HW1  589   0.887   2.139   2.264
  798SOL    HW2  590   1.034   2.096   2.323
  799SOL     OW  591   1.076   2.545   3.326
  799SOL    HW1  592   0.996   2.484   3.329
  799SOL    HW2  593   1.157   2.492   3.302
  800SOL     OW  594   1.227   3.432   2.655
  800SOL    HW1  595   1.248   3.506   2.590
  800SOL    HW2  596   1.295   3.432   2.728
  802SOL     OW  597   1.271   3.659   2.453
  802SOL    HW1  598   1.315   3.723   2.389
  802SOL    HW2  599   1.221   3.711   2.523
  803SOL     OW  600   1.032   2.411   1.878
  803SOL    HW1  601   0.991   2.493   1.839
  803SOL    HW2  602   1.096   2.437   1.951
  806SOL     OW  603   0.866   2.316   2.504
  806SOL    HW1  604   0.834   2.388   2.442
  806SOL    HW2  605   0.890   2.235   2.451
  807SOL     OW  606   1.017   1.901   2.615
  807SOL    HW1  607   0.945   1.906   2.546
  807SOL    HW2  608   0.993   1.832   2.684
  808SOL     OW  609   1.429   3.035   2.729
  808SOL    HW1  610   1.374   2.951   2.722
  808SOL    HW2  611   1.455   3.064   2.637
  809SOL     OW  612   1.466   2.452   2.854
  809SOL    HW1  613   1.436   2.357   2.861
  809SOL    HW2  614   1.539   2.468   2.920
  810SOL     OW  615   1.857   2.695   2.239
  810SOL    HW1  616   1.899   2.631   2.303
  810SOL    HW2  617   1.819   2.644   2.161
  812SOL     OW  618   1.664   3.142   2.519
  812SOL    HW1  619   1.763   3.150   2.533
  812SOL    HW2  620   1.619   3.226   2.550
  813SOL     OW  621   1.390   2.437   1.940
  813SOL    HW1  622   1.336   2.416   2.021
  813SOL    HW2  623   1.481   2.396   1.949
  814SOL     OW  624   0.527   2.118   2.190
  814SOL    HW1  625   0.554   2.059   2.115
  814SOL    HW2  626   0.527   2.213   2.159
  815SOL     OW  627   1.754   3.085   3.450
  815SOL    HW1  628   1.845   3.046   3.437
  815SOL    HW2  629   1.762   3.181   3.474
  818SOL     OW  630   1.111   3.057   2.962
  818SOL    HW1  631   1.071   3.101   3.043
  818SOL    HW2  632   1.070   3.094   2.879
  819SOL     OW  633   1.638   2.961   2.941
  819SOL    HW1  634   1.643   3.042   3.000
  819SOL    HW2  635   1.552   2.963   2.890
  820SOL     OW  636   0.915   1.951   3.264
  820SOL    HW1  637   0.940   1.931   3.169
  820SOL    HW2  638   0.987   2.007   3.306
  822SOL     OW  639   0.705   2.912   2.230
  822SOL    HW1  640   0.691   2.919   2.329
  822SOL    HW2  641   0.789   2.861   2.212
  824SOL     OW  642   1.274   2.248   3.124
  824SOL    HW1  643   1.295   2.322   3.188
  824SOL    HW2  644   1.185   2.265   3.081
  827SOL     OW  645   0.566   2.399   2.727
  827SOL    HW1  646   0.578   2.465   2.653
  827SOL    HW2  647   0.612   2.433   2.810
  828SOL     OW  648   1.252   3.210   2.250
  828SOL    HW1  649   1.302   3.287   2.290
  828SOL    HW2  650   1.157   3.212   2.282
  829SOL     OW  651   1.272   3.307   3.004
  829SOL    HW1  652   1.319   3.320   3.091
  829SOL    HW2  653   1.206   3.233   3.013
  830SOL     OW  654   1.582   2.501   2.334
  830SOL    HW1  655   1.551   2.562   2.407
  830SOL    HW2  656   1.632   2.553   2.265
  833SOL     OW  657   1.587   2.641   3.532
  833SOL    HW1  658   1.495   2.679   3.527
  833SOL    HW2  659   1.647   2.688   3.467
  837SOL     OW  660   1.360   2.724   2.907
  837SOL    HW1  661   1.285   2.724   2.841
  837SOL    HW2  662   1.397   2.632   2.916
  838SOL     OW  663   1.209   2.387   2.137
  838SOL    HW1  664   1.222   2.303   2.191
  838SOL    HW2  665   1.180   2.461   2.197
  841SOL     OW  666   0.732   2.496   2.926
  841SOL    HW1  667   0.791   2.470   2.850
  841SOL    HW2  668   0.704   2.592   2.915
  842SOL     OW  669   1.728   2.797   3.716
  842SOL    HW1  670   1.682   2.790   3.627
  842SOL    HW2  671   1.666   2.841   3.782
  844SOL     OW  672   1.622   2.229   2.236
  844SOL    HW1  673   1.624   2.153   2.300
  844SOL    HW2  674   1.574   2.306   2.276
  845SOL     OW  675   1.023   2.628   2.828
  845SOL    HW1  676   1.038   2.649   2.924
  845SOL    HW2  677   0.993   2.533   2.819
  847SOL     OW  678   1.859   3.380   3.467
  847SOL    HW1  679   1.873   3.407   3.372
  847SOL    HW2  680   1.942   3.402   3.520
  849SOL     OW  681   1.540   2.136   1.987
  849SOL    HW1  682   1.479   2.061   2.010
  849SOL    HW2  683   1.562   2.188   2.070
  850SOL     OW  684   1.303   2.700   1.904
  850SOL    HW1  685   1.337   2.607   1.919
  850SOL    HW2  686   1.321   2.727   1.809
  851SOL     OW  687   1.068   3.195   2.711
  851SOL    HW1  688   1.075   3.111   2.656
  851SOL    HW2  689   1.130   3.264   2.675
  854SOL     OW  690   1.138   2.242   3.540
  854SOL    HW1  691   1.093   2.305   3.604
  854SOL    HW2  692   1.231   2.273   3.523
  855SOL     OW  693   1.160   2.069   3.339
  855SOL    HW1  694   1.160   2.133   3.416
  855SOL    HW2  695   1.188   2.117   3.256
  859SOL     OW  696   1.002   2.658   3.100
  859SOL    HW1  697   1.043   2.626   3.186
  859SOL    HW2  698   0.906   2.631   3.097
  862SOL     OW  699   1.369   2.812   3.522
  862SOL    HW1  700   1.408   2.901   3.542
  862SOL    HW2  701   1.379   2.792   3.425
  863SOL     OW  702   0.815   2.434   2.187
  863SOL    HW1  703   0.822   2.345   2.141
  863SOL    HW2  704   0.721   2.468   2.179
  864SOL     OW  705   1.657   2.466   3.068
  864SOL    HW1  706   1.619   2.397   3.130
  864SOL    HW2  707   1.739   2.430   3.024
  868SOL     OW  708   0.473   2.362   2.053
  868SOL    HW1  709   0.534   2.442   2.057
  868SOL    HW2  710   0.378   2.393   2.060
  870SOL     OW  711   1.347   2.921   3.096
  870SOL    HW1  712   1.371   2.858   3.022
  870SOL    HW2  713   1.257   2.961   3.078
  871SOL     OW  714   1.302   2.717   2.171
  871SOL    HW1  715   1.216   2.686   2.213
  871SOL    HW2  716   1.298   2.703   2.072
  872SOL     OW  717   1.759   3.609   3.016
  872SOL    HW1  718   1.820   3.639   2.943
  872SOL    HW2  719   1.721   3.520   2.994
  876SOL     OW  720   1.726   1.997   2.385
  876SOL    HW1  721   1.799   1.980   2.318
  876SOL    HW2  722   1.695   1.910   2.423
  877SOL     OW  723   1.388   3.435   2.339
  877SOL    HW1  724   1.455   3.447   2.265
  877SOL    HW2  725   1.348   3.524   2.362
  879SOL     OW  726   1.280   2.789   2.534
  879SOL    HW1  727   1.340   2.708   2.536
  879SOL    HW2  728   1.320   2.858   2.474
  882SOL     OW  729   1.650   3.582   3.256
  882SOL    HW1  730   1.703   3.592   3.172
  882SOL    HW2  731   1.623   3.672   3.290
  883SOL     OW  732   1.841   2.037   2.825
  883SOL    HW1  733   1.880   1.952   2.789
  883SOL    HW2  734   1.743   2.039   2.806
  885SOL     OW  735   1.194   3.474   1.893
  885SOL    HW1  736   1.200   3.381   1.930
  885SOL    HW2  737   1.135   3.474   1.813
  887SOL     OW  738   0.916   2.772   2.153
  887SOL    HW1  739   0.979   2.810   2.085
  887SOL    HW2  740   0.956   2.689   2.192
  888SOL     OW  741   1.504   3.469   1.906
  888SOL    HW1  742   1.412   3.506   1.913
  888SOL    HW2  743   1.542   3.489   1.816
  890SOL     OW  744   1.614   3.154   3.151
  890SOL    HW1  745   1.674   3.157   3.231
  890SOL    HW2  746   1.539   3.218   3.164
  891SOL     OW  747   1.039   2.960   2.558
  891SOL    HW1  748   0.969   2.913   2.612
  891SOL    HW2  749   1.098   2.892   2.515
  892SOL     OW  750   1.014   2.098   2.833
  892SOL    HW1  751   1.006   2.062   2.740
  892SOL    HW2  752   1.012   2.022   2.898
  894SOL     OW  753   1.709   2.247   3.243
  894SOL    HW1  754   1.782   2.316   3.247
  894SOL    HW2  755   1.737   2.172   3.184
  899SOL     OW  756   1.440   2.718   3.260
  899SOL    HW1  757   1.383   2.770   3.197
  899SOL    HW2  758   1.536   2.730   3.236
  901SOL     OW  759   1.183   3.197   1.981
  901SOL    HW1  760   1.084   3.186   1.983
  901SOL    HW2  761   1.217   3.212   2.074
  903SOL     OW  762   1.493   3.629   2.821
  903SOL    HW1  763   1.526   3.693   2.752
  903SOL    HW2  764   1.559   3.623   2.896
  905SOL     OW  765   1.450   3.082   3.495
  905SOL    HW1  766   1.441   3.072   3.594
  905SOL    HW2  767   1.546   3.075   3.469
  907SOL     OW  768   1.674   2.745   3.116
  907SOL    HW1  769   1.647   2.656   3.079
  907SOL    HW2  770   1.675   2.813   3.043
  908SOL     OW  771   1.225   2.187   2.311
  908SOL    HW1  772   1.290   2.113   2.300
  908SOL    HW2  773   1.245   2.237   2.395
  909SOL     OW  774   0.594   2.607   2.514
  909SOL    HW1  775   0.644   2.692   2.495
  909SOL    HW2  776   0.506   2.609   2.466
  910SOL     OW  777   1.777   2.204   3.504
  910SOL    HW1  778   1.760   2.235   3.410
  910SOL    HW2  779   1.693   2.167   3.542
  911SOL     OW  780   1.730   2.796   3.379
  911SOL    HW1  781   1.768   2.887   3.394
  911SOL    HW2  782   1.722   2.779   3.280
  912SOL     OW  783   0.859   3.236   1.878
  912SOL    HW1  784   0.813   3.251   1.966
  912SOL    HW2  785   0.903   3.321   1.848
  914SOL     OW  786   0.859   2.818   2.723
  914SOL    HW1  787   0.913   2.749   2.771
  914SOL    HW2  788   0.827   2.887   2.789
  915SOL     OW  789   1.083   2.846   1.949
  915SOL    HW1  790   1.060   2.899   1.867
  915SOL    HW2  791   1.164   2.790   1.930
  916SOL     OW  792   1.861   3.431   2.713
  916SOL    HW1  793   1.790   3.419   2.643
  916SOL    HW2  794   1.862   3.352   2.773
  920SOL     OW  795   1.824   2.054   3.089
  920SOL    HW1  796   1.820   1.964   3.133
  920SOL    HW2  797   1.827   2.043   2.990
  922SOL     OW  798   1.705   3.349   2.966
  922SOL    HW1  799   1.612   3.324   2.939
  922SOL    HW2  800   1.731   3.299   3.048
  925SOL     OW  801   1.424   2.076   2.974
  925SOL    HW1  802   1.476   2.011   3.029
  925SOL    HW2  803   1.375   2.139   3.035
  926SOL     OW  804   1.001   1.896   3.016
  926SOL    HW1  805   0.938   1.824   2.985
  926SOL    HW2  806   1.094   1.860   3.016
  927SOL     OW  807   0.770   3.192   2.163
  927SOL    HW1  808   0.724   3.105   2.180
  927SOL    HW2  809   0.861   3.189   2.204
  929SOL     OW  810   1.352   1.914   2.030
  929SOL    HW1  811   1.387   1.873   1.946
  929SOL    HW2  812   1.262   1.876   2.050
  930SOL     OW  813   1.300   2.315   2.553
  930SOL    HW1  814   1.241   2.395   2.557
  930SOL    HW2  815   1.315   2.280   2.646
  931SOL     OW  816   1.593   2.083   2.744
  931SOL    HW1  817   1.509   2.082   2.798
  931SOL    HW2  818   1.595   2.166   2.688
  936SOL     OW  819   1.755   2.469   3.955
  936SOL    HW1  820   1.743   2.456   3.856
  936SOL    HW2  821   1.725   2.388   4.004
  977SOL     OW  822   1.390   2.437   3.802
  977SOL    HW1  823   1.336   2.416   3.883
  977SOL    HW2  824   1.481   2.396   3.811
  987SOL     OW  825   1.540   2.136   3.849
  987SOL    HW1  826   1.479   2.061   3.872
  987SOL    HW2  827   1.562   2.188   3.932
 1125SOL     OW  828   1.400   3.831   2.288
 1125SOL    HW1  829   1.376   3.794   2.198
 1125SOL    HW2  830   1.499   3.847   2.292
 1166SOL     OW  831   1.726   3.859   2.385
 1166SOL    HW1  832   1.799   3.842   2.318
 1166SOL    HW2  833   1.695   3.772   2.423
 1184SOL     OW  834   1.352   3.776   2.030
 1184SOL    HW1  835   1.387   3.735   1.946
 1184SOL    HW2  836   1.262   3.738   2.050
 1229SOL     OW  837   2.431   1.275   1.165
 1229SOL    HW1  838   2.338   1.268   1.128
 1229SOL    HW2  839   2.442   1.364   1.209
 1233SOL     OW  840   2.630   1.144   1.023
 1233SOL    HW1  841   2.552   1.161   1.083
 1233SOL    HW2  842   2.664   1.231   0.987
 1234SOL     OW  843   2.712   0.798   1.823
 1234SOL    HW1  844   2.708   0.874   1.888
 1234SOL    HW2  845   2.734   0.834   1.732
 1236SOL     OW  846   2.548   1.161   1.803
 1236SOL    HW1  847   2.608   1.240   1.817
 1236SOL    HW2  848   2.462   1.192   1.762
 1237SOL     OW  849   2.197   1.435   1.061
 1237SOL    HW1  850   2.119   1.404   1.008
 1237SOL    HW2  851   2.255   1.493   1.004
 1238SOL     OW  852   3.322   1.505   1.339
 1238SOL    HW1  853   3.346   1.599   1.365
 1238SOL    HW2  854   3.306   1.451   1.421
 1242SOL     OW  855   2.989   1.341   1.690
 1242SOL    HW1  856   3.036   1.341   1.778
 1242SOL    HW2  857   2.941   1.254   1.679
 1244SOL     OW  858   2.102   1.091   0.886
 1244SOL    HW1  859   2.116   1.007   0.938
 1244SOL    HW2  860   2.047   1.155   0.941
 1245SOL     OW  861   2.482   1.786   1.439
 1245SOL    HW1  862   2.390   1.769   1.474
 1245SOL    HW2  863   2.510   1.878   1.465
 1253SOL     OW  864   1.975   0.737   1.597
 1253SOL    HW1  865   2.063   0.724   1.642
 1253SOL    HW2  866   1.962   0.834   1.575
 1254SOL     OW  867   2.475   1.365   0.726
 1254SOL    HW1  868   2.426   1.278   0.735
 1254SOL    HW2  869   2.452   1.408   0.639
 1255SOL     OW  870   3.155   1.228   1.423
 1255SOL    HW1  871   3.192   1.155   1.365
 1255SOL    HW2  872   3.207   1.233   1.508
 1257SOL     OW  873   2.059   0.976   1.264
 1257SOL    HW1  874   2.148   0.931   1.250
 1257SOL    HW2  875   1.986   0.911   1.245
 1259SOL     OW  876   3.049   1.792   1.616
 1259SOL    HW1  877   3.073   1.852   1.540
 1259SOL    HW2  878   3.056   1.697   1.586
 1268SOL     OW  879   2.835   0.890   1.572
 1268SOL    HW1  880   2.881   0.806   1.543
 1268SOL    HW2  881   2.779   0.924   1.497
 1272SOL     OW  882   1.992   1.821   1.571
 1272SOL    HW1  883   1.982   1.806   1.670
 1272SOL    HW2  884   1.906   1.857   1.535
 1278SOL     OW  885   2.213   1.801   0.853
 1278SOL    HW1  886   2.263   1.715   0.859
 1278SOL    HW2  887   2.278   1.878   0.850
 1280SOL     OW  888   3.089   1.550   1.506
 1280SOL    HW1  889   3.095   1.473   1.570
 1280SOL    HW2  890   3.037   1.524   1.426
 1283SOL     OW  891   2.323   1.266   1.727
 1283SOL    HW1  892   2.273   1.267   1.641
 1283SOL    HW2  893   2.260   1.248   1.803
 1289SOL     OW  894   2.111   1.785   1.241
 1289SOL    HW1  895   2.168   1.720   1.291
 1289SOL    HW2  896   2.095   1.752   1.148
 1290SOL     OW  897   2.802   1.698   0.904
 1290SOL    HW1  898   2.882   1.641   0.925
 1290SOL    HW2  899   2.753   1.658   0.827
 1295SOL     OW  900   2.750   1.514   1.195
 1295SOL    HW1  901   2.727   1.489   1.101
 1295SOL    HW2  902   2.811   1.445   1.234
 1297SOL     OW  903   2.665   1.402   0.924
 1297SOL    HW1  904   2.755   1.416   0.882
 1297SOL    HW2  905   2.594   1.404   0.853
 1320SOL     OW  906   2.926   1.347   1.340
 1320SOL    HW1  907   2.846   1.324   1.395
 1320SOL    HW2  908   3.009   1.321   1.389
 1321SOL     OW  909   3.454   1.629   1.625
 1321SOL    HW1  910   3.481   1.663   1.535
 1321SOL    HW2  911   3.533   1.591   1.671
 1322SOL     OW  912   2.973   1.195   1.100
 1322SOL    HW1  913   2.933   1.239   1.181
 1322SOL    HW2  914   2.932   1.232   1.017
 1325SOL     OW  915   2.842   1.116   1.719
 1325SOL    HW1  916   2.743   1.122   1.729
 1325SOL    HW2  917   2.865   1.036   1.663
 1327SOL     OW  918   2.272   0.813   1.251
 1327SOL    HW1  919   2.358   0.825   1.301
 1327SOL    HW2  920   2.230   0.726   1.278
 1329SOL     OW  921   1.926   1.564   1.331
 1329SOL    HW1  922   1.880   1.646   1.297
 1329SOL    HW2  923   2.024   1.583   1.340
 1333SOL     OW  924   3.134   1.445   1.142
 1333SOL    HW1  925   3.181   1.458   1.229
 1333SOL    HW2  926   3.068   1.371   1.151
 1335SOL     OW  927   2.216   1.510   1.329
 1335SOL    HW1  928   2.195   1.466   1.242
 1335SOL    HW2  929   2.313   1.536   1.332
 1336SOL     OW  930   2.264   0.751   1.598
 1336SOL    HW1  931   2.332   0.806   1.551
 1336SOL    HW2  932   2.304   0.663   1.625
 1344SOL     OW  933   1.899   1.310   1.282
 1344SOL    HW1  934   1.952   1.261   1.350
 1344SOL    HW2  935   1.921   1.408   1.287
 1350SOL     OW  936   2.842   1.573   1.700
 1350SOL    HW1  937   2.822   1.617   1.612
 1350SOL    HW2  938   2.881   1.482   1.684
 1351SOL     OW  939   3.721   1.518   1.605
 1351SOL    HW1  940   3.735   1.545   1.510
 1351SOL    HW2  941   3.804   1.540   1.658
 1352SOL     OW  942   2.212   0.898   1.804
 1352SOL    HW1  943   2.288   0.942   1.852
 1352SOL    HW2  944   2.247   0.851   1.722
 1355SOL     OW  945   2.930   1.333   0.849
 1355SOL    HW1  946   2.937   1.249   0.794
 1355SOL    HW2  947   2.992   1.402   0.813
 1361SOL     OW  948   1.950   1.801   0.927
 1361SOL    HW1  949   1.908   1.715   0.900
 1361SOL    HW2  950   2.044   1.804   0.893
 1362SOL     OW  951   2.366   1.568   0.910
 1362SOL    HW1  952   2.432   1.642   0.919
 1362SOL    HW2  953   2.410   1.489   0.868
 1366SOL     OW  954   3.231   0.950   1.660
 1366SOL    HW1  955   3.270   1.039   1.680
 1366SOL    HW2  956   3.241   0.930   1.563
 1369SOL     OW  957   2.114   1.564   1.744
 1369SOL    HW1  958   2.084   1.621   1.820
 1369SOL    HW2  959   2.107   1.467   1.770
 1371SOL     OW  960   2.792   1.678   1.465
 1371SOL    HW1  961   2.768   1.660   1.370
 1371SOL    HW2  962   2.822   1.772   1.475
 1373SOL     OW  963   2.021   1.137   1.466
 1373SOL    HW1  964   2.043   1.076   1.542
 1373SOL    HW2  965   2.031   1.088   1.380
 1377SOL     OW  966   3.114   1.731   1.128
 1377SOL    HW1  967   3.198   1.736   1.074
 1377SOL    HW2  968   3.091   1.635   1.146
 1378SOL     OW  969   1.945   1.258   1.022
 1378SOL    HW1  970   1.940   1.257   1.122
 1378SOL    HW2  971   1.862   1.217   0.984
 1379SOL     OW  972   2.550   1.662   1.716
 1379SOL    HW1  973   2.494   1.743   1.725
 1379SOL    HW2  974   2.602   1.666   1.630
 1383SOL     OW  975   1.992   1.794   1.851
 1383SOL    HW1  976   1.951   1.720   1.904
 1383SOL    HW2  977   2.056   1.845   1.909
 1385SOL     OW  978   2.692   1.273   1.422
 1385SOL    HW1  979   2.687   1.306   1.517
 1385SOL    HW2  980   2.606   1.292   1.376
 1387SOL     OW  981   3.512   1.720   1.394
 1387SOL    HW1  982   3.565   1.730   1.310
 1387SOL    HW2  983   3.485   1.810   1.428
 1391SOL     OW  984   2.684   1.002   1.372
 1391SOL    HW1  985   2.724   1.001   1.280
 1391SOL    HW2  986   2.694   1.094   1.412
 1394SOL     OW  987   2.234   1.288   1.490
 1394SOL    HW1  988   2.221   1.381   1.456
 1394SOL    HW2  989   2.150   1.236   1.477
 1401SOL     OW  990   1.967   1.013   1.726
 1401SOL    HW1  991   1.890   0.980   1.780
 1401SOL    HW2  992   2.052   0.983   1.768
 1406SOL     OW  993   2.475   0.842   1.431
 1406SOL    HW1  994   2.531   0.923   1.414
 1406SOL    HW2  995   2.534   0.762   1.434
 1407SOL     OW  996   3.355   1.767   0.959
 1407SOL    HW1  997   3.388   1.831   0.890
 1407SOL    HW2  998   3.421   1.761   1.034
 1408SOL     OW  999   2.578   0.565   1.708
 1408SOL    HW1 1000   2.597   0.630   1.782
 1408SOL    HW2 1001   2.638   0.485   1.717
 1409SOL     OW 1002   3.312   1.220   1.633
 1409SOL    HW1 1003   3.303   1.210   1.732
 1409SOL    HW2 1004   3.408   1.213   1.607
 1410SOL     OW 1005   2.252   1.741   1.560
 1410SOL    HW1 1006   2.161   1.782   1.558
 1410SOL    HW2 1007   2.245   1.647   1.592
 1417SOL     OW 1008   2.523   1.790   0.953
 1417SOL    HW1 1009   2.477   1.878   0.940
 1417SOL    HW2 1010   2.622   1.802   0.946
 1421SOL     OW 1011   2.083   1.314   1.844
 1421SOL    HW1 1012   2.018   1.241   1.823
 1421SOL    HW2 1013   2.087   1.328   1.942
 1423SOL     OW 1014   2.534   1.391   1.624
 1423SOL    HW1 1015   2.456   1.341   1.662
 1423SOL    HW2 1016   2.531   1.486   1.655
 1428SOL     OW 1017   2.674   1.586   0.687
 1428SOL    HW1 1018   2.706   1.596   0.593
 1428SOL    HW2 1019   2.595   1.524   0.689
 1432SOL     OW 1020   2.480   1.567   1.284
 1432SOL    HW1 1021   2.475   1.649   1.341
 1432SOL    HW2 1022   2.569   1.564   1.239
 1438SOL     OW 1023   2.092   0.628   1.975
 1438SOL    HW1 1024   1.999   0.626   2.012
 1438SOL    HW2 1025   2.093   0.589   1.883
 1441SOL     OW 1026   2.431   1.275   3.027
 1441SOL    HW1 1027   2.338   1.268   2.990
 1441SOL    HW2 1028   2.442   1.364   3.071
 1442SOL     OW 1029   3.417   1.511   2.565
 1442SOL    HW1 1030   3.360   1.495   2.646
 1442SOL    HW2 1031   3.358   1.521   2.485
 1443SOL     OW 1032   2.997   0.703   2.579
 1443SOL    HW1 1033   3.054   0.781   2.554
 1443SOL    HW2 1034   2.937   0.729   2.655
 1445SOL     OW 1035   2.630   1.144   2.885
 1445SOL    HW1 1036   2.552   1.161   2.945
 1445SOL    HW2 1037   2.664   1.231   2.849
 1447SOL     OW 1038   2.547   1.012   2.527
 1447SOL    HW1 1039   2.616   0.996   2.597
 1447SOL    HW2 1040   2.474   1.069   2.565
 1449SOL     OW 1041   2.197   1.435   2.923
 1449SOL    HW1 1042   2.119   1.404   2.870
 1449SOL    HW2 1043   2.255   1.493   2.866
 1450SOL     OW 1044   3.322   1.505   3.201
 1450SOL    HW1 1045   3.346   1.599   3.227
 1450SOL    HW2 1046   3.306   1.451   3.283
 1453SOL     OW 1047   2.093   1.713   2.345
 1453SOL    HW1 1048   2.127   1.790   2.399
 1453SOL    HW2 1049   2.137   1.713   2.255
 1454SOL     OW 1050   2.989   1.341   3.552
 1454SOL    HW1 1051   3.036   1.341   3.640
 1454SOL    HW2 1052   2.941   1.254   3.541
 1455SOL     OW 1053   2.092   1.434   2.400
 1455SOL    HW1 1054   2.066   1.530   2.400
 1455SOL    HW2 1055   2.021   1.380   2.445
 1456SOL     OW 1056   2.102   1.091   2.748
 1456SOL    HW1 1057   2.116   1.007   2.800
 1456SOL    HW2 1058   2.047   1.155   2.803
 1457SOL     OW 1059   2.482   1.786   3.301
 1457SOL    HW1 1060   2.390   1.769   3.336
 1457SOL    HW2 1061   2.510   1.878   3.327
 1458SOL     OW 1062   2.468   0.964   1.985
 1458SOL    HW1 1063   2.475   1.048   1.931
 1458SOL    HW2 1064   2.514   0.977   2.073
 1460SOL     OW 1065   1.984   0.643   2.425
 1460SOL    HW1 1066   1.939   0.555   2.442
 1460SOL    HW2 1067   1.983   0.697   2.509
 1461SOL     OW 1068   3.704   1.767   2.221
 1461SOL    HW1 1069   3.758   1.738   2.301
 1461SOL    HW2 1070   3.734   1.857   2.192
 1462SOL     OW 1071   1.889   1.596   1.979
 1462SOL    HW1 1072   1.870   1.500   2.000
 1462SOL    HW2 1073   1.856   1.654   2.054
 1464SOL     OW 1074   3.503   1.108   2.294
 1464SOL    HW1 1075   3.589   1.110   2.242
 1464SOL    HW2 1076   3.517   1.155   2.382
 1466SOL     OW 1077   2.475   1.365   2.588
 1466SOL    HW1 1078   2.426   1.278   2.597
 1466SOL    HW2 1079   2.452   1.408   2.501
 1467SOL     OW 1080   3.155   1.228   3.285
 1467SOL    HW1 1081   3.192   1.155   3.227
 1467SOL    HW2 1082   3.207   1.233   3.370
 1469SOL     OW 1083   2.059   0.976   3.126
 1469SOL    HW1 1084   2.148   0.931   3.112
 1469SOL    HW2 1085   1.986   0.911   3.107
 1470SOL     OW 1086   3.387   0.999   2.052
 1470SOL    HW1 1087   3.324   0.923   2.065
 1470SOL    HW2 1088   3.435   1.017   2.138
 1471SOL     OW 1089   3.049   1.792   3.478
 1471SOL    HW1 1090   3.073   1.852   3.402
 1471SOL    HW2 1091   3.056   1.697   3.448
 1473SOL     OW 1092   3.328   1.417   2.815
 1473SOL    HW1 1093   3.269   1.423   2.895
 1473SOL    HW2 1094   3.313   1.329   2.769
 1474SOL     OW 1095   3.529   1.714   2.434
 1474SOL    HW1 1096   3.488   1.691   2.346
 1474SOL    HW2 1097   3.511   1.640   2.499
 1475SOL     OW 1098   2.460   0.729   2.132
 1475SOL    HW1 1099   2.484   0.798   2.064
 1475SOL    HW2 1100   2.382   0.762   2.186
 1477SOL     OW 1101   3.438   1.662   2.169
 1477SOL    HW1 1102   3.527   1.708   2.172
 1477SOL    HW2 1103   3.417   1.638   2.074
 1482SOL     OW 1104   2.903   0.701   2.291
 1482SOL    HW1 1105   2.929   0.697   2.387
 1482SOL    HW2 1106   2.818   0.650   2.277
 1483SOL     OW 1107   1.938   0.811   2.651
 1483SOL    HW1 1108   2.037   0.799   2.660
 1483SOL    HW2 1109   1.914   0.906   2.672
 1484SOL     OW 1110   1.992   1.821   3.433
 1484SOL    HW1 1111   1.982   1.806   3.532
 1484SOL    HW2 1112   1.906   1.857   3.397
 1487SOL     OW 1113   3.224   1.144   2.407
 1487SOL    HW1 1114   3.307   1.115   2.359
 1487SOL    HW2 1115   3.175   1.211   2.351
 1489SOL     OW 1116   2.870   1.456   2.339
 1489SOL    HW1 1117   2.824   1.528   2.287
 1489SOL    HW2 1118   2.866   1.476   2.437
 1490SOL     OW 1119   2.213   1.801   2.715
 1490SOL    HW1 1120   2.263   1.715   2.721
 1490SOL    HW2 1121   2.278   1.878   2.712
 1492SOL     OW 1122   3.089   1.550   3.368
 1492SOL    HW1 1123   3.095   1.473   3.432
 1492SOL    HW2 1124   3.037   1.524   3.288
 1493SOL     OW 1125   2.183   0.943   2.104
 1493SOL    HW1 1126   2.265   0.982   2.062
 1493SOL    HW2 1127   2.156   0.861   2.055
 1495SOL     OW 1128   2.323   1.266   3.589
 1495SOL    HW1 1129   2.273   1.267   3.503
 1495SOL    HW2 1130   2.260   1.248   3.665
 1496SOL     OW 1131   2.973   1.776   2.099
 1496SOL    HW1 1132   2.913   1.714   2.149
 1496SOL    HW2 1133   3.004   1.732   2.014
 1498SOL     OW 1134   3.494   1.377   1.943
 1498SOL    HW1 1135   3.462   1.471   1.933
 1498SOL    HW2 1136   3.418   1.314   1.931
 1499SOL     OW 1137   2.326   1.743   2.185
 1499SOL    HW1 1138   2.359   1.782   2.271
 1499SOL    HW2 1139   2.402   1.736   2.120
 1501SOL     OW 1140   2.111   1.785   3.103
 1501SOL    HW1 1141   2.168   1.720   3.153
 1501SOL    HW2 1142   2.095   1.752   3.010
 1502SOL     OW 1143   2.802   1.698   2.766
 1502SOL    HW1 1144   2.882   1.641   2.787
 1502SOL    HW2 1145   2.753   1.658   2.689
 1503SOL     OW 1146   2.244   0.700   2.342
 1503SOL    HW1 1147   2.289   0.610   2.339
 1503SOL    HW2 1148   2.150   0.689   2.375
 1507SOL     OW 1149   2.750   1.514   3.057
 1507SOL    HW1 1150   2.727   1.489   2.963
 1507SOL    HW2 1151   2.811   1.445   3.096
 1509SOL     OW 1152   2.665   1.402   2.786
 1509SOL    HW1 1153   2.755   1.416   2.744
 1509SOL    HW2 1154   2.594   1.404   2.715
 1512SOL     OW 1155   3.296   1.188   1.903
 1512SOL    HW1 1156   3.328   1.112   1.960
 1512SOL    HW2 1157   3.204   1.215   1.933
 1516SOL     OW 1158   3.089   1.570   2.655
 1516SOL    HW1 1159   3.110   1.644   2.590
 1516SOL    HW2 1160   3.157   1.570   2.728
 1517SOL     OW 1161   2.321   1.152   2.603
 1517SOL    HW1 1162   2.250   1.125   2.668
 1517SOL    HW2 1163   2.295   1.124   2.510
 1518SOL     OW 1164   3.133   1.797   2.453
 1518SOL    HW1 1165   3.177   1.861   2.389
 1518SOL    HW2 1166   3.083   1.849   2.523
 1524SOL     OW 1167   3.291   1.173   2.729
 1524SOL    HW1 1168   3.236   1.089   2.722
 1524SOL    HW2 1169   3.317   1.202   2.637
 1527SOL     OW 1170   2.350   1.385   2.036
 1527SOL    HW1 1171   2.263   1.370   2.083
 1527SOL    HW2 1172   2.333   1.411   1.941
 1528SOL     OW 1173   3.526   1.280   2.519
 1528SOL    HW1 1174   3.625   1.288   2.533
 1528SOL    HW2 1175   3.481   1.364   2.550
 1532SOL     OW 1176   2.926   1.347   3.202
 1532SOL    HW1 1177   2.846   1.324   3.257
 1532SOL    HW2 1178   3.009   1.321   3.251
 1534SOL     OW 1179   2.973   1.195   2.962
 1534SOL    HW1 1180   2.933   1.239   3.043
 1534SOL    HW2 1181   2.932   1.232   2.879
 1538SOL     OW 1182   2.567   1.050   2.230
 1538SOL    HW1 1183   2.553   1.057   2.329
 1538SOL    HW2 1184   2.651   0.999   2.212
 1539SOL     OW 1185   2.272   0.813   3.113
 1539SOL    HW1 1186   2.358   0.825   3.163
 1539SOL    HW2 1187   2.230   0.726   3.140
 1541SOL     OW 1188   1.926   1.564   3.193
 1541SOL    HW1 1189   1.880   1.646   3.159
 1541SOL    HW2 1190   2.024   1.583   3.202
 1542SOL     OW 1191   2.229   1.100   2.363
 1542SOL    HW1 1192   2.222   1.183   2.307
 1542SOL    HW2 1193   2.233   1.020   2.303
 1543SOL     OW 1194   2.428   0.537   2.727
 1543SOL    HW1 1195   2.440   0.603   2.653
 1543SOL    HW2 1196   2.474   0.571   2.810
 1544SOL     OW 1197   3.114   1.348   2.250
 1544SOL    HW1 1198   3.164   1.425   2.290
 1544SOL    HW2 1199   3.019   1.350   2.282
 1545SOL     OW 1200   3.134   1.445   3.004
 1545SOL    HW1 1201   3.181   1.458   3.091
 1545SOL    HW2 1202   3.068   1.371   3.013
 1547SOL     OW 1203   2.216   1.510   3.191
 1547SOL    HW1 1204   2.195   1.466   3.104
 1547SOL    HW2 1205   2.313   1.536   3.194
 1552SOL     OW 1206   2.435   0.870   2.891
 1552SOL    HW1 1207   2.479   0.959   2.882
 1552SOL    HW2 1208   2.372   0.870   2.968
 1556SOL     OW 1209   1.899   1.310   3.144
 1556SOL    HW1 1210   1.952   1.261   3.212
 1556SOL    HW2 1211   1.921   1.408   3.149
 1557SOL     OW 1212   2.594   0.634   2.926
 1557SOL    HW1 1213   2.653   0.608   2.850
 1557SOL    HW2 1214   2.566   0.730   2.915
 1561SOL     OW 1215   2.885   0.766   2.828
 1561SOL    HW1 1216   2.900   0.787   2.924
 1561SOL    HW2 1217   2.855   0.671   2.819
 1562SOL     OW 1218   2.842   1.573   3.562
 1562SOL    HW1 1219   2.822   1.617   3.474
 1562SOL    HW2 1220   2.881   1.482   3.546
 1566SOL     OW 1221   3.165   0.838   1.904
 1566SOL    HW1 1222   3.199   0.745   1.919
 1566SOL    HW2 1223   3.183   0.865   1.809
 1567SOL     OW 1224   2.930   1.333   2.711
 1567SOL    HW1 1225   2.937   1.249   2.656
 1567SOL    HW2 1226   2.992   1.402   2.675
 1568SOL     OW 1227   2.181   0.810   2.811
 1568SOL    HW1 1228   2.274   0.846   2.816
 1568SOL    HW2 1229   2.175   0.725   2.863
 1572SOL     OW 1230   1.870   1.326   2.062
 1572SOL    HW1 1231   1.777   1.347   2.031
 1572SOL    HW2 1232   1.880   1.227   2.075
 1573SOL     OW 1233   1.950   1.801   2.789
 1573SOL    HW1 1234   1.908   1.715   2.762
 1573SOL    HW2 1235   2.044   1.804   2.755
 1574SOL     OW 1236   2.366   1.568   2.772
 1574SOL    HW1 1237   2.432   1.642   2.781
 1574SOL    HW2 1238   2.410   1.489   2.730
 1575SOL     OW 1239   2.864   0.796   3.100
 1575SOL    HW1 1240   2.905   0.764   3.186
 1575SOL    HW2 1241   2.768   0.769   3.097
 1579SOL     OW 1242   2.677   0.572   2.187
 1579SOL    HW1 1243   2.684   0.483   2.141
 1579SOL    HW2 1244   2.583   0.606   2.179
 1581SOL     OW 1245   2.114   1.564   3.606
 1581SOL    HW1 1246   2.084   1.621   3.682
 1581SOL    HW2 1247   2.107   1.467   3.632
 1583SOL     OW 1248   2.792   1.678   3.327
 1583SOL    HW1 1249   2.768   1.660   3.232
 1583SOL    HW2 1250   2.822   1.772   3.337
 1584SOL     OW 1251   2.335   0.500   2.053
 1584SOL    HW1 1252   2.396   0.580   2.057
 1584SOL    HW2 1253   2.240   0.531   2.060
 1585SOL     OW 1254   2.021   1.137   3.328
 1585SOL    HW1 1255   2.043   1.076   3.404
 1585SOL    HW2 1256   2.031   1.088   3.242
 1586SOL     OW 1257   3.209   1.059   3.096
 1586SOL    HW1 1258   3.233   0.996   3.022
 1586SOL    HW2 1259   3.119   1.099   3.078
 1587SOL     OW 1260   3.164   0.855   2.171
 1587SOL    HW1 1261   3.078   0.824   2.213
 1587SOL    HW2 1262   3.160   0.841   2.072
 1588SOL     OW 1263   3.621   1.747   3.016
 1588SOL    HW1 1264   3.682   1.777   2.943
 1588SOL    HW2 1265   3.583   1.658   2.994
 1589SOL     OW 1266   3.114   1.731   2.990
 1589SOL    HW1 1267   3.198   1.736   2.936
 1589SOL    HW2 1268   3.091   1.635   3.008
 1590SOL     OW 1269   1.945   1.258   2.884
 1590SOL    HW1 1270   1.940   1.257   2.984
 1590SOL    HW2 1271   1.862   1.217   2.846
 1591SOL     OW 1272   2.550   1.662   3.578
 1591SOL    HW1 1273   2.494   1.743   3.587
 1591SOL    HW2 1274   2.602   1.666   3.492
 1593SOL     OW 1275   3.250   1.573   2.339
 1593SOL    HW1 1276   3.317   1.585   2.265
 1593SOL    HW2 1277   3.210   1.662   2.362
 1594SOL     OW 1278   1.992   1.794   3.713
 1594SOL    HW1 1279   1.951   1.720   3.766
 1594SOL    HW2 1280   2.056   1.845   3.771
 1595SOL     OW 1281   3.142   0.927   2.534
 1595SOL    HW1 1282   3.202   0.846   2.536
 1595SOL    HW2 1283   3.182   0.996   2.474
 1596SOL     OW 1284   2.692   1.273   3.284
 1596SOL    HW1 1285   2.687   1.306   3.379
 1596SOL    HW2 1286   2.606   1.292   3.238
 1597SOL     OW 1287   2.534   1.616   2.016
 1597SOL    HW1 1288   2.543   1.626   1.917
 1597SOL    HW2 1289   2.494   1.527   2.037
 1598SOL     OW 1290   3.512   1.720   3.256
 1598SOL    HW1 1291   3.565   1.730   3.172
 1598SOL    HW2 1292   3.485   1.810   3.290
 1601SOL     OW 1293   3.056   1.612   1.893
 1601SOL    HW1 1294   3.062   1.519   1.930
 1601SOL    HW2 1295   2.997   1.612   1.813
 1602SOL     OW 1296   2.684   1.002   3.234
 1602SOL    HW1 1297   2.724   1.001   3.142
 1602SOL    HW2 1298   2.694   1.094   3.274
 1603SOL     OW 1299   2.778   0.910   2.153
 1603SOL    HW1 1300   2.841   0.948   2.085
 1603SOL    HW2 1301   2.818   0.827   2.192
 1604SOL     OW 1302   3.366   1.607   1.906
 1604SOL    HW1 1303   3.274   1.644   1.913
 1604SOL    HW2 1304   3.404   1.627   1.816
 1605SOL     OW 1305   2.234   1.288   3.352
 1605SOL    HW1 1306   2.221   1.381   3.318
 1605SOL    HW2 1307   2.150   1.236   3.339
 1607SOL     OW 1308   2.901   1.098   2.558
 1607SOL    HW1 1309   2.831   1.051   2.612
 1607SOL    HW2 1310   2.960   1.030   2.515
 1609SOL     OW 1311   2.452   1.487   2.353
 1609SOL    HW1 1312   2.494   1.429   2.283
 1609SOL    HW2 1313   2.408   1.566   2.309
 1611SOL     OW 1314   2.117   1.348   2.152
 1611SOL    HW1 1315   2.021   1.349   2.125
 1611SOL    HW2 1316   2.129   1.401   2.236
 1617SOL     OW 1317   3.045   1.335   1.981
 1617SOL    HW1 1318   2.946   1.324   1.983
 1617SOL    HW2 1319   3.079   1.350   2.074
 1618SOL     OW 1320   2.475   0.842   3.293
 1618SOL    HW1 1321   2.531   0.923   3.276
 1618SOL    HW2 1322   2.534   0.762   3.296
 1619SOL     OW 1323   3.355   1.767   2.821
 1619SOL    HW1 1324   3.388   1.831   2.752
 1619SOL    HW2 1325   3.421   1.761   2.896
 1622SOL     OW 1326   2.252   1.741   3.422
 1622SOL    HW1 1327   2.161   1.782   3.420
 1622SOL    HW2 1328   2.245   1.647   3.454
 1625SOL     OW 1329   2.456   0.745   2.514
 1625SOL    HW1 1330   2.506   0.830   2.495
 1625SOL    HW2 1331   2.368   0.747   2.466
 1628SOL     OW 1332   2.721   1.374   1.878
 1628SOL    HW1 1333   2.675   1.389   1.966
 1628SOL    HW2 1334   2.765   1.459   1.848
 1629SOL     OW 1335   2.523   1.790   2.815
 1629SOL    HW1 1336   2.477   1.878   2.802
 1629SOL    HW2 1337   2.622   1.802   2.808
 1630SOL     OW 1338   2.721   0.956   2.723
 1630SOL    HW1 1339   2.775   0.887   2.771
 1630SOL    HW2 1340   2.689   1.025   2.789
 1631SOL     OW 1341   2.945   0.984   1.949
 1631SOL    HW1 1342   2.922   1.037   1.867
 1631SOL    HW2 1343   3.026   0.928   1.930
 1632SOL     OW 1344   3.723   1.569   2.713
 1632SOL    HW1 1345   3.652   1.557   2.643
 1632SOL    HW2 1346   3.724   1.490   2.773
 1633SOL     OW 1347   2.083   1.314   3.706
 1633SOL    HW1 1348   2.018   1.241   3.685
 1633SOL    HW2 1349   2.087   1.328   3.804
 1634SOL     OW 1350   1.941   1.240   2.515
 1634SOL    HW1 1351   1.940   1.193   2.603
 1634SOL    HW2 1352   2.023   1.212   2.464
 1635SOL     OW 1353   2.534   1.391   3.486
 1635SOL    HW1 1354   2.456   1.341   3.524
 1635SOL    HW2 1355   2.531   1.486   3.517
 1638SOL     OW 1356   3.567   1.487   2.966
 1638SOL    HW1 1357   3.474   1.462   2.939
 1638SOL    HW2 1358   3.593   1.437   3.048
 1640SOL     OW 1359   2.674   1.586   2.549
 1640SOL    HW1 1360   2.706   1.596   2.455
 1640SOL    HW2 1361   2.595   1.524   2.551
 1643SOL     OW 1362   2.632   1.330   2.163
 1643SOL    HW1 1363   2.586   1.243   2.180
 1643SOL    HW2 1364   2.723   1.327   2.204
 1644SOL     OW 1365   2.480   1.567   3.146
 1644SOL    HW1 1366   2.475   1.649   3.203
 1644SOL    HW2 1367   2.569   1.564   3.101
 1648SOL     OW 1368   1.901   1.077   2.162
 1648SOL    HW1 1369   2.000   1.066   2.153
 1648SOL    HW2 1370   1.861   0.991   2.194
 1649SOL     OW 1371   2.737   1.646   2.199
 1649SOL    HW1 1372   2.660   1.611   2.145
 1649SOL    HW2 1373   2.705   1.717   2.261
 1660SOL     OW 1374   1.889   1.596   3.841
 1660SOL    HW1 1375   1.870   1.500   3.862
 1660SOL    HW2 1376   1.856   1.654   3.916
 1712SOL     OW 1377   2.534   1.616   3.878
 1712SOL    HW1 1378   2.543   1.626   3.779
 1712SOL    HW2 1379   2.494   1.527   3.899
 1724SOL     OW 1380   2.721   1.374   3.740
 1724SOL    HW1 1381   2.675   1.389   3.828
 1724SOL    HW2 1382   2.765   1.459   3.710
 1735SOL     OW 1383   2.087   2.137   0.996
 1735SOL    HW1 1384   2.122   2.120   1.088
 1735SOL    HW2 1385   1.999   2.092   0.984
 1736SOL     OW 1386   1.881   2.230   0.647
 1736SOL    HW1 1387   1.799   2.273   0.686
 1736SOL    HW2 1388   1.853   2.157   0.584
 1737SOL     OW 1389   2.431   3.137   1.165
 1737SOL    HW1 1390   2.338   3.130   1.128
 1737SOL    HW2 1391   2.442   3.226   1.209
 1739SOL     OW 1392   2.997   2.565   0.717
 1739SOL    HW1 1393   3.054   2.643   0.692
 1739SOL    HW2 1394   2.937   2.591   0.793
 1741SOL     OW 1395   2.630   3.006   1.023
 1741SOL    HW1 1396   2.552   3.023   1.083
 1741SOL    HW2 1397   2.664   3.093   0.987
 1742SOL     OW 1398   2.712   2.660   1.823
 1742SOL    HW1 1399   2.708   2.736   1.888
 1742SOL    HW2 1400   2.734   2.696   1.732
 1743SOL     OW 1401   2.547   2.874   0.665
 1743SOL    HW1 1402   2.616   2.858   0.735
 1743SOL    HW2 1403   2.474   2.931   0.703
 1744SOL     OW 1404   2.548   3.023   1.803
 1744SOL    HW1 1405   2.608   3.102   1.817
 1744SOL    HW2 1406   2.462   3.054   1.762
 1745SOL     OW 1407   2.197   3.297   1.061
 1745SOL    HW1 1408   2.119   3.266   1.008
 1745SOL    HW2 1409   2.255   3.355   1.004
 1747SOL     OW 1410   2.300   2.254   1.499
 1747SOL    HW1 1411   2.382   2.198   1.508
 1747SOL    HW2 1412   2.219   2.196   1.503
 1750SOL     OW 1413   2.989   3.203   1.690
 1750SOL    HW1 1414   3.036   3.203   1.778
 1750SOL    HW2 1415   2.941   3.116   1.679
 1752SOL     OW 1416   2.102   2.953   0.886
 1752SOL    HW1 1417   2.116   2.869   0.938
 1752SOL    HW2 1418   2.047   3.017   0.941
 1753SOL     OW 1419   2.482   3.648   1.439
 1753SOL    HW1 1420   2.390   3.631   1.474
 1753SOL    HW2 1421   2.510   3.740   1.465
 1755SOL     OW 1422   3.456   1.976   1.480
 1755SOL    HW1 1423   3.438   2.043   1.408
 1755SOL    HW2 1424   3.453   2.022   1.569
 1756SOL     OW 1425   1.984   2.505   0.563
 1756SOL    HW1 1426   1.939   2.417   0.580
 1756SOL    HW2 1427   1.983   2.559   0.647
 1761SOL     OW 1428   1.975   2.599   1.597
 1761SOL    HW1 1429   2.063   2.586   1.642
 1761SOL    HW2 1430   1.962   2.696   1.575
 1763SOL     OW 1431   3.155   3.090   1.423
 1763SOL    HW1 1432   3.192   3.017   1.365
 1763SOL    HW2 1433   3.207   3.095   1.508
 1765SOL     OW 1434   2.059   2.838   1.264
 1765SOL    HW1 1435   2.148   2.793   1.250
 1765SOL    HW2 1436   1.986   2.773   1.245
 1767SOL     OW 1437   3.049   3.654   1.616
 1767SOL    HW1 1438   3.073   3.714   1.540
 1767SOL    HW2 1439   3.056   3.559   1.586
 1768SOL     OW 1440   2.179   2.113   1.801
 1768SOL    HW1 1441   2.250   2.184   1.807
 1768SOL    HW2 1442   2.091   2.152   1.829
 1772SOL     OW 1443   3.143   2.207   0.944
 1772SOL    HW1 1444   3.057   2.157   0.931
 1772SOL    HW2 1445   3.205   2.153   1.000
 1774SOL     OW 1446   2.669   2.467   1.465
 1774SOL    HW1 1447   2.622   2.464   1.554
 1774SOL    HW2 1448   2.618   2.412   1.399
 1775SOL     OW 1449   3.256   2.331   1.674
 1775SOL    HW1 1450   3.236   2.374   1.762
 1775SOL    HW2 1451   3.334   2.269   1.683
 1776SOL     OW 1452   2.835   2.752   1.572
 1776SOL    HW1 1453   2.881   2.668   1.543
 1776SOL    HW2 1454   2.779   2.786   1.497
 1777SOL     OW 1455   2.853   2.272   1.242
 1777SOL    HW1 1456   2.776   2.306   1.296
 1777SOL    HW2 1457   2.819   2.221   1.163
 1779SOL     OW 1458   1.938   2.673   0.789
 1779SOL    HW1 1459   2.037   2.661   0.798
 1779SOL    HW2 1460   1.914   2.768   0.810
 1780SOL     OW 1461   1.992   3.683   1.571
 1780SOL    HW1 1462   1.982   3.668   1.670
 1780SOL    HW2 1463   1.906   3.719   1.535
 1782SOL     OW 1464   3.581   2.447   1.831
 1782SOL    HW1 1465   3.555   2.536   1.795
 1782SOL    HW2 1466   3.579   2.379   1.758
 1784SOL     OW 1467   2.412   2.058   0.885
 1784SOL    HW1 1468   2.407   2.053   0.985
 1784SOL    HW2 1469   2.414   2.154   0.856
 1788SOL     OW 1470   3.089   3.412   1.506
 1788SOL    HW1 1471   3.095   3.335   1.570
 1788SOL    HW2 1472   3.037   3.386   1.426
 1791SOL     OW 1473   2.323   3.128   1.727
 1791SOL    HW1 1474   2.273   3.129   1.641
 1791SOL    HW2 1475   2.260   3.110   1.803
 1793SOL     OW 1476   2.064   2.147   1.498
 1793SOL    HW1 1477   1.984   2.207   1.485
 1793SOL    HW2 1478   2.054   2.098   1.584
 1797SOL     OW 1479   2.111   3.647   1.241
 1797SOL    HW1 1480   2.168   3.582   1.291
 1797SOL    HW2 1481   2.095   3.614   1.148
 1799SOL     OW 1482   2.244   2.562   0.480
 1799SOL    HW1 1483   2.289   2.472   0.477
 1799SOL    HW2 1484   2.150   2.551   0.513
 1800SOL     OW 1485   3.409   2.084   1.729
 1800SOL    HW1 1486   3.404   2.121   1.821
 1800SOL    HW2 1487   3.337   2.015   1.717
 1802SOL     OW 1488   2.643   2.126   1.749
 1802SOL    HW1 1489   2.710   2.065   1.792
 1802SOL    HW2 1490   2.570   2.145   1.814
 1803SOL     OW 1491   2.750   3.376   1.195
 1803SOL    HW1 1492   2.727   3.351   1.101
 1803SOL    HW2 1493   2.811   3.307   1.234
 1804SOL     OW 1494   3.213   2.452   1.433
 1804SOL    HW1 1495   3.241   2.409   1.518
 1804SOL    HW2 1496   3.238   2.548   1.434
 1805SOL     OW 1497   2.665   3.264   0.924
 1805SOL    HW1 1498   2.755   3.278   0.882
 1805SOL    HW2 1499   2.594   3.266   0.853
 1806SOL     OW 1500   2.784   2.365   0.899
 1806SOL    HW1 1501   2.759   2.356   0.803
 1806SOL    HW2 1502   2.832   2.283   0.930
 1807SOL     OW 1503   2.401   1.926   0.512
 1807SOL    HW1 1504   2.320   1.927   0.570
 1807SOL    HW2 1505   2.404   2.009   0.457
 1810SOL     OW 1506   2.938   2.545   1.464
 1810SOL    HW1 1507   2.858   2.484   1.467
 1810SOL    HW2 1508   3.019   2.492   1.440
 1812SOL     OW 1509   2.321   3.014   0.741
 1812SOL    HW1 1510   2.250   2.987   0.806
 1812SOL    HW2 1511   2.295   2.986   0.648
 1815SOL     OW 1512   1.940   2.418   1.386
 1815SOL    HW1 1513   2.032   2.417   1.345
 1815SOL    HW2 1514   1.934   2.492   1.453
 1816SOL     OW 1515   2.423   2.084   1.147
 1816SOL    HW1 1516   2.461   2.000   1.184
 1816SOL    HW2 1517   2.335   2.103   1.191
 1817SOL     OW 1518   2.728   2.316   0.642
 1817SOL    HW1 1519   2.696   2.388   0.580
 1817SOL    HW2 1520   2.752   2.235   0.589
 1818SOL     OW 1521   2.879   1.901   0.753
 1818SOL    HW1 1522   2.807   1.906   0.684
 1818SOL    HW2 1523   2.855   1.832   0.822
 1820SOL     OW 1524   3.328   2.452   0.992
 1820SOL    HW1 1525   3.298   2.357   0.999
 1820SOL    HW2 1526   3.401   2.468   1.058
 1826SOL     OW 1527   3.616   3.085   1.588
 1826SOL    HW1 1528   3.707   3.046   1.575
 1826SOL    HW2 1529   3.624   3.181   1.612
 1827SOL     OW 1530   2.926   3.209   1.340
 1827SOL    HW1 1531   2.846   3.186   1.395
 1827SOL    HW2 1532   3.009   3.183   1.389
 1829SOL     OW 1533   2.973   3.057   1.100
 1829SOL    HW1 1534   2.933   3.101   1.181
 1829SOL    HW2 1535   2.932   3.094   1.017
 1831SOL     OW 1536   2.777   1.951   1.402
 1831SOL    HW1 1537   2.802   1.931   1.307
 1831SOL    HW2 1538   2.849   2.007   1.444
 1832SOL     OW 1539   2.842   2.978   1.719
 1832SOL    HW1 1540   2.743   2.984   1.729
 1832SOL    HW2 1541   2.865   2.898   1.663
 1834SOL     OW 1542   2.272   2.675   1.251
 1834SOL    HW1 1543   2.358   2.687   1.301
 1834SOL    HW2 1544   2.230   2.588   1.278
 1835SOL     OW 1545   3.136   2.248   1.262
 1835SOL    HW1 1546   3.157   2.322   1.326
 1835SOL    HW2 1547   3.047   2.265   1.219
 1836SOL     OW 1548   1.926   3.426   1.331
 1836SOL    HW1 1549   1.880   3.508   1.297
 1836SOL    HW2 1550   2.024   3.445   1.340
 1838SOL     OW 1551   2.428   2.399   0.865
 1838SOL    HW1 1552   2.440   2.465   0.791
 1838SOL    HW2 1553   2.474   2.433   0.948
 1840SOL     OW 1554   3.134   3.307   1.142
 1840SOL    HW1 1555   3.181   3.320   1.229
 1840SOL    HW2 1556   3.068   3.233   1.151
 1842SOL     OW 1557   2.216   3.372   1.329
 1842SOL    HW1 1558   2.195   3.328   1.242
 1842SOL    HW2 1559   2.313   3.398   1.332
 1843SOL     OW 1560   2.264   2.613   1.598
 1843SOL    HW1 1561   2.332   2.668   1.551
 1843SOL    HW2 1562   2.304   2.525   1.625
 1844SOL     OW 1563   3.449   2.641   1.670
 1844SOL    HW1 1564   3.357   2.679   1.665
 1844SOL    HW2 1565   3.509   2.688   1.605
 1845SOL     OW 1566   2.875   1.967   1.770
 1845SOL    HW1 1567   2.881   2.052   1.718
 1845SOL    HW2 1568   2.907   1.891   1.713
 1846SOL     OW 1569   2.366   1.912   1.740
 1846SOL    HW1 1570   2.324   1.855   1.670
 1846SOL    HW2 1571   2.300   1.981   1.772
 1847SOL     OW 1572   2.435   2.732   1.029
 1847SOL    HW1 1573   2.479   2.821   1.020
 1847SOL    HW2 1574   2.372   2.732   1.106
 1848SOL     OW 1575   3.222   2.724   1.045
 1848SOL    HW1 1576   3.147   2.724   0.979
 1848SOL    HW2 1577   3.259   2.632   1.054
 1850SOL     OW 1578   2.169   2.075   1.231
 1850SOL    HW1 1579   2.146   2.112   1.321
 1850SOL    HW2 1580   2.139   1.980   1.225
 1851SOL     OW 1581   1.899   3.172   1.282
 1851SOL    HW1 1582   1.952   3.123   1.350
 1851SOL    HW2 1583   1.921   3.270   1.287
 1852SOL     OW 1584   2.594   2.496   1.064
 1852SOL    HW1 1585   2.653   2.470   0.988
 1852SOL    HW2 1586   2.566   2.592   1.053
 1853SOL     OW 1587   3.590   2.797   1.854
 1853SOL    HW1 1588   3.544   2.790   1.765
 1853SOL    HW2 1589   3.528   2.841   1.920
 1854SOL     OW 1590   2.169   1.925   0.618
 1854SOL    HW1 1591   2.158   2.019   0.651
 1854SOL    HW2 1592   2.164   1.862   0.695
 1856SOL     OW 1593   2.885   2.628   0.966
 1856SOL    HW1 1594   2.900   2.649   1.062
 1856SOL    HW2 1595   2.855   2.533   0.957
 1857SOL     OW 1596   2.842   3.435   1.700
 1857SOL    HW1 1597   2.822   3.479   1.612
 1857SOL    HW2 1598   2.881   3.344   1.684
 1859SOL     OW 1599   2.212   2.760   1.804
 1859SOL    HW1 1600   2.288   2.804   1.852
 1859SOL    HW2 1601   2.247   2.713   1.722
 1863SOL     OW 1602   2.181   2.672   0.949
 1863SOL    HW1 1603   2.274   2.708   0.954
 1863SOL    HW2 1604   2.175   2.587   1.001
 1864SOL     OW 1605   2.201   2.371   1.006
 1864SOL    HW1 1606   2.149   2.288   0.989
 1864SOL    HW2 1607   2.278   2.376   0.942
 1865SOL     OW 1608   3.000   2.242   1.678
 1865SOL    HW1 1609   2.955   2.305   1.742
 1865SOL    HW2 1610   3.093   2.273   1.661
 1866SOL     OW 1611   3.022   2.069   1.477
 1866SOL    HW1 1612   3.022   2.133   1.554
 1866SOL    HW2 1613   3.050   2.117   1.394
 1869SOL     OW 1614   2.366   3.430   0.910
 1869SOL    HW1 1615   2.432   3.504   0.919
 1869SOL    HW2 1616   2.410   3.351   0.868
 1870SOL     OW 1617   2.864   2.658   1.238
 1870SOL    HW1 1618   2.905   2.626   1.324
 1870SOL    HW2 1619   2.768   2.631   1.235
 1871SOL     OW 1620   1.902   2.406   1.114
 1871SOL    HW1 1621   1.987   2.373   1.073
 1871SOL    HW2 1622   1.915   2.421   1.212
 1872SOL     OW 1623   2.051   2.382   1.722
 1872SOL    HW1 1624   2.110   2.342   1.652
 1872SOL    HW2 1625   1.993   2.453   1.681
 1873SOL     OW 1626   3.231   2.812   1.660
 1873SOL    HW1 1627   3.270   2.901   1.680
 1873SOL    HW2 1628   3.241   2.792   1.563
 1875SOL     OW 1629   3.519   2.466   1.206
 1875SOL    HW1 1630   3.481   2.397   1.268
 1875SOL    HW2 1631   3.601   2.430   1.162
 1876SOL     OW 1632   2.114   3.426   1.744
 1876SOL    HW1 1633   2.084   3.483   1.820
 1876SOL    HW2 1634   2.107   3.329   1.770
 1877SOL     OW 1635   2.533   2.326   1.269
 1877SOL    HW1 1636   2.499   2.237   1.239
 1877SOL    HW2 1637   2.559   2.380   1.189
 1878SOL     OW 1638   2.792   3.540   1.465
 1878SOL    HW1 1639   2.768   3.522   1.370
 1878SOL    HW2 1640   2.822   3.634   1.475
 1880SOL     OW 1641   2.021   2.999   1.466
 1880SOL    HW1 1642   2.043   2.938   1.542
 1880SOL    HW2 1643   2.031   2.950   1.380
 1881SOL     OW 1644   3.209   2.921   1.234
 1881SOL    HW1 1645   3.233   2.858   1.160
 1881SOL    HW2 1646   3.119   2.961   1.216
 1885SOL     OW 1647   1.945   3.120   1.022
 1885SOL    HW1 1648   1.940   3.119   1.122
 1885SOL    HW2 1649   1.862   3.079   0.984
 1886SOL     OW 1650   2.550   3.524   1.716
 1886SOL    HW1 1651   2.494   3.605   1.725
 1886SOL    HW2 1652   2.602   3.528   1.630
 1890SOL     OW 1653   1.992   3.656   1.851
 1890SOL    HW1 1654   1.951   3.582   1.904
 1890SOL    HW2 1655   2.056   3.707   1.909
 1892SOL     OW 1656   2.692   3.135   1.422
 1892SOL    HW1 1657   2.687   3.168   1.517
 1892SOL    HW2 1658   2.606   3.154   1.376
 1896SOL     OW 1659   2.125   2.188   0.720
 1896SOL    HW1 1660   2.046   2.239   0.686
 1896SOL    HW2 1661   2.116   2.173   0.818
 1898SOL     OW 1662   2.684   2.864   1.372
 1898SOL    HW1 1663   2.724   2.863   1.280
 1898SOL    HW2 1664   2.694   2.956   1.412
 1901SOL     OW 1665   2.234   3.150   1.490
 1901SOL    HW1 1666   2.221   3.243   1.456
 1901SOL    HW2 1667   2.150   3.098   1.477
 1904SOL     OW 1668   2.876   2.098   0.971
 1904SOL    HW1 1669   2.868   2.062   0.878
 1904SOL    HW2 1670   2.874   2.022   1.036
 1906SOL     OW 1671   3.571   2.247   1.381
 1906SOL    HW1 1672   3.644   2.316   1.385
 1906SOL    HW2 1673   3.599   2.172   1.322
 1908SOL     OW 1674   1.967   2.875   1.726
 1908SOL    HW1 1675   1.890   2.842   1.780
 1908SOL    HW2 1676   2.052   2.845   1.768
 1909SOL     OW 1677   2.534   2.065   1.489
 1909SOL    HW1 1678   2.624   2.049   1.449
 1909SOL    HW2 1679   2.542   2.070   1.588
 1911SOL     OW 1680   3.302   2.718   1.398
 1911SOL    HW1 1681   3.245   2.770   1.335
 1911SOL    HW2 1682   3.398   2.730   1.374
 1913SOL     OW 1683   2.475   2.704   1.431
 1913SOL    HW1 1684   2.531   2.785   1.414
 1913SOL    HW2 1685   2.534   2.624   1.434
 1915SOL     OW 1686   2.578   2.427   1.708
 1915SOL    HW1 1687   2.597   2.492   1.782
 1915SOL    HW2 1688   2.638   2.347   1.717
 1916SOL     OW 1689   3.312   3.082   1.633
 1916SOL    HW1 1690   3.303   3.072   1.732
 1916SOL    HW2 1691   3.408   3.075   1.607
 1917SOL     OW 1692   2.252   3.603   1.560
 1917SOL    HW1 1693   2.161   3.644   1.558
 1917SOL    HW2 1694   2.245   3.509   1.592
 1918SOL     OW 1695   3.536   2.745   1.254
 1918SOL    HW1 1696   3.509   2.656   1.217
 1918SOL    HW2 1697   3.537   2.813   1.181
 1920SOL     OW 1698   2.456   2.607   0.652
 1920SOL    HW1 1699   2.506   2.692   0.633
 1920SOL    HW2 1700   2.368   2.609   0.604
 1921SOL     OW 1701   3.639   2.204   1.642
 1921SOL    HW1 1702   3.622   2.235   1.548
 1921SOL    HW2 1703   3.555   2.167   1.680
 1922SOL     OW 1704   3.592   2.796   1.517
 1922SOL    HW1 1705   3.630   2.887   1.532
 1922SOL    HW2 1706   3.584   2.779   1.418
 1925SOL     OW 1707   2.721   2.818   0.861
 1925SOL    HW1 1708   2.775   2.749   0.909
 1925SOL    HW2 1709   2.689   2.887   0.927
 1928SOL     OW 1710   2.083   3.176   1.844
 1928SOL    HW1 1711   2.018   3.103   1.823
 1928SOL    HW2 1712   2.087   3.190   1.942
 1930SOL     OW 1713   2.534   3.253   1.624
 1930SOL    HW1 1714   2.456   3.203   1.662
 1930SOL    HW2 1715   2.531   3.348   1.655
 1931SOL     OW 1716   3.686   2.054   1.227
 1931SOL    HW1 1717   3.682   1.964   1.271
 1931SOL    HW2 1718   3.689   2.043   1.128
 1932SOL     OW 1719   2.290   2.286   0.520
 1932SOL    HW1 1720   2.320   2.214   0.458
 1932SOL    HW2 1721   2.251   2.246   0.603
 1934SOL     OW 1722   2.179   2.409   1.280
 1934SOL    HW1 1723   2.217   2.350   1.352
 1934SOL    HW2 1724   2.219   2.383   1.192
 1936SOL     OW 1725   3.286   2.076   1.112
 1936SOL    HW1 1726   3.338   2.011   1.167
 1936SOL    HW2 1727   3.237   2.139   1.173
 1937SOL     OW 1728   2.863   1.896   1.154
 1937SOL    HW1 1729   2.800   1.824   1.123
 1937SOL    HW2 1730   2.956   1.860   1.154
 1939SOL     OW 1731   2.480   3.429   1.284
 1939SOL    HW1 1732   2.475   3.511   1.341
 1939SOL    HW2 1733   2.569   3.426   1.239
 1945SOL     OW 1734   2.092   2.490   1.975
 1945SOL    HW1 1735   1.999   2.488   2.012
 1945SOL    HW2 1736   2.093   2.451   1.883
 1946SOL     OW 1737   2.087   2.137   2.858
 1946SOL    HW1 1738   2.122   2.120   2.950
 1946SOL    HW2 1739   1.999   2.092   2.846
 1947SOL     OW 1740   1.881   2.230   2.509
 1947SOL    HW1 1741   1.799   2.273   2.548
 1947SOL    HW2 1742   1.853   2.157   2.446
 1948SOL     OW 1743   2.431   3.137   3.027
 1948SOL    HW1 1744   2.338   3.130   2.990
 1948SOL    HW2 1745   2.442   3.226   3.071
 1949SOL     OW 1746   3.417   3.373   2.565
 1949SOL    HW1 1747   3.360   3.357   2.646
 1949SOL    HW2 1748   3.358   3.383   2.485
 1950SOL     OW 1749   2.997   2.565   2.579
 1950SOL    HW1 1750   3.054   2.643   2.554
 1950SOL    HW2 1751   2.937   2.591   2.655
 1951SOL     OW 1752   3.617   2.469   2.093
 1951SOL    HW1 1753   3.605   2.456   1.994
 1951SOL    HW2 1754   3.587   2.388   2.142
 1952SOL     OW 1755   2.630   3.006   2.885
 1952SOL    HW1 1756   2.552   3.023   2.945
 1952SOL    HW2 1757   2.664   3.093   2.849
 1953SOL     OW 1758   2.712   2.660   3.685
 1953SOL    HW1 1759   2.708   2.736   3.750
 1953SOL    HW2 1760   2.734   2.696   3.594
 1954SOL     OW 1761   2.547   2.874   2.527
 1954SOL    HW1 1762   2.616   2.858   2.597
 1954SOL    HW2 1763   2.474   2.931   2.565
 1955SOL     OW 1764   2.548   3.023   3.665
 1955SOL    HW1 1765   2.608   3.102   3.679
 1955SOL    HW2 1766   2.462   3.054   3.624
 1956SOL     OW 1767   2.197   3.297   2.923
 1956SOL    HW1 1768   2.119   3.266   2.870
 1956SOL    HW2 1769   2.255   3.355   2.866
 1958SOL     OW 1770   2.300   2.254   3.361
 1958SOL    HW1 1771   2.382   2.198   3.370
 1958SOL    HW2 1772   2.219   2.196   3.365
 1959SOL     OW 1773   3.465   2.309   2.599
 1959SOL    HW1 1774   3.391   2.355   2.549
 1959SOL    HW2 1775   3.516   2.377   2.652
 1960SOL     OW 1776   2.093   3.575   2.345
 1960SOL    HW1 1777   2.127   3.652   2.399
 1960SOL    HW2 1778   2.137   3.575   2.255
 1961SOL     OW 1779   2.989   3.203   3.552
 1961SOL    HW1 1780   3.036   3.203   3.640
 1961SOL    HW2 1781   2.941   3.116   3.541
 1962SOL     OW 1782   2.092   3.296   2.400
 1962SOL    HW1 1783   2.066   3.392   2.400
 1962SOL    HW2 1784   2.021   3.242   2.445
 1963SOL     OW 1785   2.102   2.953   2.748
 1963SOL    HW1 1786   2.116   2.869   2.800
 1963SOL    HW2 1787   2.047   3.017   2.803
 1964SOL     OW 1788   2.482   3.648   3.301
 1964SOL    HW1 1789   2.390   3.631   3.336
 1964SOL    HW2 1790   2.510   3.740   3.327
 1965SOL     OW 1791   2.468   2.826   1.985
 1965SOL    HW1 1792   2.475   2.910   1.931
 1965SOL    HW2 1793   2.514   2.839   2.073
 1966SOL     OW 1794   3.456   1.976   3.342
 1966SOL    HW1 1795   3.438   2.043   3.270
 1966SOL    HW2 1796   3.453   2.022   3.431
 1967SOL     OW 1797   1.984   2.505   2.425
 1967SOL    HW1 1798   1.939   2.417   2.442
 1967SOL    HW2 1799   1.983   2.559   2.509
 1969SOL     OW 1800   1.889   3.458   1.979
 1969SOL    HW1 1801   1.870   3.362   2.000
 1969SOL    HW2 1802   1.856   3.516   2.054
 1970SOL     OW 1803   3.551   2.784   2.474
 1970SOL    HW1 1804   3.646   2.755   2.482
 1970SOL    HW2 1805   3.543   2.849   2.399
 1971SOL     OW 1806   3.503   2.970   2.294
 1971SOL    HW1 1807   3.589   2.972   2.242
 1971SOL    HW2 1808   3.517   3.017   2.382
 1972SOL     OW 1809   1.975   2.599   3.459
 1972SOL    HW1 1810   2.063   2.586   3.504
 1972SOL    HW2 1811   1.962   2.696   3.437
 1973SOL     OW 1812   2.475   3.227   2.588
 1973SOL    HW1 1813   2.426   3.140   2.597
 1973SOL    HW2 1814   2.452   3.270   2.501
 1974SOL     OW 1815   3.155   3.090   3.285
 1974SOL    HW1 1816   3.192   3.017   3.227
 1974SOL    HW2 1817   3.207   3.095   3.370
 1975SOL     OW 1818   2.671   1.866   2.364
 1975SOL    HW1 1819   2.711   1.957   2.355
 1975SOL    HW2 1820   2.571   1.874   2.370
 1976SOL     OW 1821   2.059   2.838   3.126
 1976SOL    HW1 1822   2.148   2.793   3.112
 1976SOL    HW2 1823   1.986   2.773   3.107
 1977SOL     OW 1824   3.387   2.861   2.052
 1977SOL    HW1 1825   3.324   2.785   2.065
 1977SOL    HW2 1826   3.435   2.879   2.138
 1979SOL     OW 1827   2.179   2.113   3.663
 1979SOL    HW1 1828   2.250   2.184   3.669
 1979SOL    HW2 1829   2.091   2.152   3.691
 1980SOL     OW 1830   3.328   3.279   2.815
 1980SOL    HW1 1831   3.269   3.285   2.895
 1980SOL    HW2 1832   3.313   3.191   2.769
 1982SOL     OW 1833   2.460   2.591   2.132
 1982SOL    HW1 1834   2.484   2.660   2.064
 1982SOL    HW2 1835   2.382   2.624   2.186
 1983SOL     OW 1836   3.143   2.207   2.806
 1983SOL    HW1 1837   3.057   2.157   2.793
 1983SOL    HW2 1838   3.205   2.153   2.862
 1984SOL     OW 1839   3.438   3.524   2.169
 1984SOL    HW1 1840   3.527   3.570   2.172
 1984SOL    HW2 1841   3.417   3.500   2.074
 1985SOL     OW 1842   2.669   2.467   3.327
 1985SOL    HW1 1843   2.622   2.464   3.416
 1985SOL    HW2 1844   2.618   2.412   3.261
 1986SOL     OW 1845   3.256   2.331   3.536
 1986SOL    HW1 1846   3.236   2.374   3.624
 1986SOL    HW2 1847   3.334   2.269   3.545
 1987SOL     OW 1848   2.835   2.752   3.434
 1987SOL    HW1 1849   2.881   2.668   3.405
 1987SOL    HW2 1850   2.779   2.786   3.359
 1988SOL     OW 1851   2.853   2.272   3.104
 1988SOL    HW1 1852   2.776   2.306   3.158
 1988SOL    HW2 1853   2.819   2.221   3.025
 1989SOL     OW 1854   2.903   2.563   2.291
 1989SOL    HW1 1855   2.929   2.559   2.387
 1989SOL    HW2 1856   2.818   2.512   2.277
 1990SOL     OW 1857   1.938   2.673   2.651
 1990SOL    HW1 1858   2.037   2.661   2.660
 1990SOL    HW2 1859   1.914   2.768   2.672
 1992SOL     OW 1860   2.727   2.210   2.057
 1992SOL    HW1 1861   2.786   2.273   2.008
 1992SOL    HW2 1862   2.746   2.116   2.028
 1994SOL     OW 1863   3.224   3.006   2.407
 1994SOL    HW1 1864   3.307   2.977   2.359
 1994SOL    HW2 1865   3.175   3.073   2.351
 1995SOL     OW 1866   2.412   2.058   2.747
 1995SOL    HW1 1867   2.407   2.053   2.847
 1995SOL    HW2 1868   2.414   2.154   2.718
 1996SOL     OW 1869   2.870   3.318   2.339
 1996SOL    HW1 1870   2.824   3.390   2.287
 1996SOL    HW2 1871   2.866   3.338   2.437
 1997SOL     OW 1872   2.213   3.663   2.715
 1997SOL    HW1 1873   2.263   3.577   2.721
 1997SOL    HW2 1874   2.278   3.740   2.712
 1998SOL     OW 1875   3.657   2.928   2.735
 1998SOL    HW1 1876   3.595   2.913   2.659
 1998SOL    HW2 1877   3.605   2.939   2.820
 2000SOL     OW 1878   2.183   2.805   2.104
 2000SOL    HW1 1879   2.265   2.844   2.062
 2000SOL    HW2 1880   2.156   2.723   2.055
 2001SOL     OW 1881   3.320   2.597   2.590
 2001SOL    HW1 1882   3.315   2.532   2.665
 2001SOL    HW2 1883   3.400   2.656   2.603
 2002SOL     OW 1884   2.323   3.128   3.589
 2002SOL    HW1 1885   2.273   3.129   3.503
 2002SOL    HW2 1886   2.260   3.110   3.665
 2003SOL     OW 1887   2.973   3.638   2.099
 2003SOL    HW1 1888   2.913   3.576   2.149
 2003SOL    HW2 1889   3.004   3.594   2.014
 2004SOL     OW 1890   2.064   2.147   3.360
 2004SOL    HW1 1891   1.984   2.207   3.347
 2004SOL    HW2 1892   2.054   2.098   3.446
 2005SOL     OW 1893   3.494   3.239   1.943
 2005SOL    HW1 1894   3.462   3.333   1.933
 2005SOL    HW2 1895   3.418   3.176   1.931
 2006SOL     OW 1896   2.326   3.605   2.185
 2006SOL    HW1 1897   2.359   3.644   2.271
 2006SOL    HW2 1898   2.402   3.598   2.120
 2007SOL     OW 1899   3.262   1.969   2.288
 2007SOL    HW1 1900   3.238   1.932   2.198
 2007SOL    HW2 1901   3.361   1.985   2.292
 2008SOL     OW 1902   2.111   3.647   3.103
 2008SOL    HW1 1903   2.168   3.582   3.153
 2008SOL    HW2 1904   2.095   3.614   3.010
 2009SOL     OW 1905   2.802   3.560   2.766
 2009SOL    HW1 1906   2.882   3.503   2.787
 2009SOL    HW2 1907   2.753   3.520   2.689
 2010SOL     OW 1908   3.409   2.084   3.591
 2010SOL    HW1 1909   3.404   2.121   3.683
 2010SOL    HW2 1910   3.337   2.015   3.579
 2011SOL     OW 1911   2.476   1.984   1.979
 2011SOL    HW1 1912   2.574   1.962   1.986
 2011SOL    HW2 1913   2.445   1.967   1.886
 2012SOL     OW 1914   2.643   2.126   3.611
 2012SOL    HW1 1915   2.710   2.065   3.654
 2012SOL    HW2 1916   2.570   2.145   3.676
 2013SOL     OW 1917   2.750   3.376   3.057
 2013SOL    HW1 1918   2.727   3.351   2.963
 2013SOL    HW2 1919   2.811   3.307   3.096
 2014SOL     OW 1920   3.213   2.452   3.295
 2014SOL    HW1 1921   3.241   2.409   3.380
 2014SOL    HW2 1922   3.238   2.548   3.296
 2015SOL     OW 1923   2.665   3.264   2.786
 2015SOL    HW1 1924   2.755   3.278   2.744
 2015SOL    HW2 1925   2.594   3.266   2.715
 2016SOL     OW 1926   2.784   2.365   2.761
 2016SOL    HW1 1927   2.759   2.356   2.665
 2016SOL    HW2 1928   2.832   2.283   2.792
 2017SOL     OW 1929   2.401   1.926   2.374
 2017SOL    HW1 1930   2.320   1.927   2.432
 2017SOL    HW2 1931   2.404   2.009   2.319
 2018SOL     OW 1932   3.296   3.050   1.903
 2018SOL    HW1 1933   3.328   2.974   1.960
 2018SOL    HW2 1934   3.204   3.077   1.933
 2019SOL     OW 1935   2.797   2.098   2.342
 2019SOL    HW1 1936   2.749   2.139   2.264
 2019SOL    HW2 1937   2.896   2.096   2.323
 2020SOL     OW 1938   2.938   2.545   3.326
 2020SOL    HW1 1939   2.858   2.484   3.329
 2020SOL    HW2 1940   3.019   2.492   3.302
 2021SOL     OW 1941   3.089   3.432   2.655
 2021SOL    HW1 1942   3.110   3.506   2.590
 2021SOL    HW2 1943   3.157   3.432   2.728
 2022SOL     OW 1944   2.321   3.014   2.603
 2022SOL    HW1 1945   2.250   2.987   2.668
 2022SOL    HW2 1946   2.295   2.986   2.510
 2023SOL     OW 1947   3.133   3.659   2.453
 2023SOL    HW1 1948   3.177   3.723   2.389
 2023SOL    HW2 1949   3.083   3.711   2.523
 2024SOL     OW 1950   2.894   2.411   1.878
 2024SOL    HW1 1951   2.853   2.493   1.839
 2024SOL    HW2 1952   2.958   2.437   1.951
 2025SOL     OW 1953   1.940   2.418   3.248
 2025SOL    HW1 1954   2.032   2.417   3.207
 2025SOL    HW2 1955   1.934   2.492   3.315
 2026SOL     OW 1956   2.423   2.084   3.009
 2026SOL    HW1 1957   2.461   2.000   3.046
 2026SOL    HW2 1958   2.335   2.103   3.053
 2027SOL     OW 1959   2.728   2.316   2.504
 2027SOL    HW1 1960   2.696   2.388   2.442
 2027SOL    HW2 1961   2.752   2.235   2.451
 2028SOL     OW 1962   2.879   1.901   2.615
 2028SOL    HW1 1963   2.807   1.906   2.546
 2028SOL    HW2 1964   2.855   1.832   2.684
 2029SOL     OW 1965   3.291   3.035   2.729
 2029SOL    HW1 1966   3.236   2.951   2.722
 2029SOL    HW2 1967   3.317   3.064   2.637
 2030SOL     OW 1968   3.328   2.452   2.854
 2030SOL    HW1 1969   3.298   2.357   2.861
 2030SOL    HW2 1970   3.401   2.468   2.920
 2031SOL     OW 1971   3.719   2.695   2.239
 2031SOL    HW1 1972   3.761   2.631   2.303
 2031SOL    HW2 1973   3.681   2.644   2.161
 2032SOL     OW 1974   2.350   3.247   2.036
 2032SOL    HW1 1975   2.263   3.232   2.083
 2032SOL    HW2 1976   2.333   3.273   1.941
 2033SOL     OW 1977   3.526   3.142   2.519
 2033SOL    HW1 1978   3.625   3.150   2.533
 2033SOL    HW2 1979   3.481   3.226   2.550
 2034SOL     OW 1980   3.252   2.437   1.940
 2034SOL    HW1 1981   3.198   2.416   2.021
 2034SOL    HW2 1982   3.343   2.396   1.949
 2036SOL     OW 1983   2.926   3.209   3.202
 2036SOL    HW1 1984   2.846   3.186   3.257
 2036SOL    HW2 1985   3.009   3.183   3.251
 2038SOL     OW 1986   2.973   3.057   2.962
 2038SOL    HW1 1987   2.933   3.101   3.043
 2038SOL    HW2 1988   2.932   3.094   2.879
 2039SOL     OW 1989   3.500   2.961   2.941
 2039SOL    HW1 1990   3.505   3.042   3.000
 2039SOL    HW2 1991   3.414   2.963   2.890
 2040SOL     OW 1992   2.777   1.951   3.264
 2040SOL    HW1 1993   2.802   1.931   3.169
 2040SOL    HW2 1994   2.849   2.007   3.306
 2041SOL     OW 1995   2.842   2.978   3.581
 2041SOL    HW1 1996   2.743   2.984   3.591
 2041SOL    HW2 1997   2.865   2.898   3.525
 2042SOL     OW 1998   2.567   2.912   2.230
 2042SOL    HW1 1999   2.553   2.919   2.329
 2042SOL    HW2 2000   2.651   2.861   2.212
 2043SOL     OW 2001   2.272   2.675   3.113
 2043SOL    HW1 2002   2.358   2.687   3.163
 2043SOL    HW2 2003   2.230   2.588   3.140
 2044SOL     OW 2004   3.136   2.248   3.124
 2044SOL    HW1 2005   3.157   2.322   3.188
 2044SOL    HW2 2006   3.047   2.265   3.081
 2045SOL     OW 2007   1.926   3.426   3.193
 2045SOL    HW1 2008   1.880   3.508   3.159
 2045SOL    HW2 2009   2.024   3.445   3.202
 2046SOL     OW 2010   2.229   2.962   2.363
 2046SOL    HW1 2011   2.222   3.045   2.307
 2046SOL    HW2 2012   2.233   2.882   2.303
 2047SOL     OW 2013   2.428   2.399   2.727
 2047SOL    HW1 2014   2.440   2.465   2.653
 2047SOL    HW2 2015   2.474   2.433   2.810
 2048SOL     OW 2016   3.114   3.210   2.250
 2048SOL    HW1 2017   3.164   3.287   2.290
 2048SOL    HW2 2018   3.019   3.212   2.282
 2049SOL     OW 2019   3.134   3.307   3.004
 2049SOL    HW1 2020   3.181   3.320   3.091
 2049SOL    HW2 2021   3.068   3.233   3.013
 2050SOL     OW 2022   3.444   2.501   2.334
 2050SOL    HW1 2023   3.413   2.562   2.407
 2050SOL    HW2 2024   3.494   2.553   2.265
 2051SOL     OW 2025   2.216   3.372   3.191
 2051SOL    HW1 2026   2.195   3.328   3.104
 2051SOL    HW2 2027   2.313   3.398   3.194
 2052SOL     OW 2028   2.264   2.613   3.460
 2052SOL    HW1 2029   2.332   2.668   3.413
 2052SOL    HW2 2030   2.304   2.525   3.487
 2054SOL     OW 2031   2.875   1.967   3.632
 2054SOL    HW1 2032   2.881   2.052   3.580
 2054SOL    HW2 2033   2.907   1.891   3.575
 2055SOL     OW 2034   2.366   1.912   3.602
 2055SOL    HW1 2035   2.324   1.855   3.532
 2055SOL    HW2 2036   2.300   1.981   3.634
 2056SOL     OW 2037   2.435   2.732   2.891
 2056SOL    HW1 2038   2.479   2.821   2.882
 2056SOL    HW2 2039   2.372   2.732   2.968
 2057SOL     OW 2040   3.222   2.724   2.907
 2057SOL    HW1 2041   3.147   2.724   2.841
 2057SOL    HW2 2042   3.259   2.632   2.916
 2058SOL     OW 2043   3.071   2.387   2.137
 2058SOL    HW1 2044   3.084   2.303   2.191
 2058SOL    HW2 2045   3.042   2.461   2.197
 2059SOL     OW 2046   2.169   2.075   3.093
 2059SOL    HW1 2047   2.146   2.112   3.183
 2059SOL    HW2 2048   2.139   1.980   3.087
 2060SOL     OW 2049   1.899   3.172   3.144
 2060SOL    HW1 2050   1.952   3.123   3.212
 2060SOL    HW2 2051   1.921   3.270   3.149
 2061SOL     OW 2052   2.594   2.496   2.926
 2061SOL    HW1 2053   2.653   2.470   2.850
 2061SOL    HW2 2054   2.566   2.592   2.915
 2063SOL     OW 2055   2.169   1.925   2.480
 2063SOL    HW1 2056   2.158   2.019   2.513
 2063SOL    HW2 2057   2.164   1.862   2.557
 2064SOL     OW 2058   3.484   2.229   2.236
 2064SOL    HW1 2059   3.486   2.153   2.300
 2064SOL    HW2 2060   3.436   2.306   2.276
 2065SOL     OW 2061   2.885   2.628   2.828
 2065SOL    HW1 2062   2.900   2.649   2.924
 2065SOL    HW2 2063   2.855   2.533   2.819
 2068SOL     OW 2064   2.212   2.760   3.666
 2068SOL    HW1 2065   2.288   2.804   3.714
 2068SOL    HW2 2066   2.247   2.713   3.584
 2069SOL     OW 2067   3.402   2.136   1.987
 2069SOL    HW1 2068   3.341   2.061   2.010
 2069SOL    HW2 2069   3.424   2.188   2.070
 2070SOL     OW 2070   3.165   2.700   1.904
 2070SOL    HW1 2071   3.199   2.607   1.919
 2070SOL    HW2 2072   3.183   2.727   1.809
 2071SOL     OW 2073   2.930   3.195   2.711
 2071SOL    HW1 2074   2.937   3.111   2.656
 2071SOL    HW2 2075   2.992   3.264   2.675
 2072SOL     OW 2076   2.181   2.672   2.811
 2072SOL    HW1 2077   2.274   2.708   2.816
 2072SOL    HW2 2078   2.175   2.587   2.863
 2073SOL     OW 2079   2.201   2.371   2.868
 2073SOL    HW1 2080   2.149   2.288   2.851
 2073SOL    HW2 2081   2.278   2.376   2.804
 2074SOL     OW 2082   3.000   2.242   3.540
 2074SOL    HW1 2083   2.955   2.305   3.604
 2074SOL    HW2 2084   3.093   2.273   3.523
 2075SOL     OW 2085   3.022   2.069   3.339
 2075SOL    HW1 2086   3.022   2.133   3.416
 2075SOL    HW2 2087   3.050   2.117   3.256
 2076SOL     OW 2088   1.870   3.188   2.062
 2076SOL    HW1 2089   1.777   3.209   2.031
 2076SOL    HW2 2090   1.880   3.089   2.075
 2077SOL     OW 2091   1.950   3.663   2.789
 2077SOL    HW1 2092   1.908   3.577   2.762
 2077SOL    HW2 2093   2.044   3.666   2.755
 2078SOL     OW 2094   2.366   3.430   2.772
 2078SOL    HW1 2095   2.432   3.504   2.781
 2078SOL    HW2 2096   2.410   3.351   2.730
 2079SOL     OW 2097   2.864   2.658   3.100
 2079SOL    HW1 2098   2.905   2.626   3.186
 2079SOL    HW2 2099   2.768   2.631   3.097
 2080SOL     OW 2100   1.902   2.406   2.976
 2080SOL    HW1 2101   1.987   2.373   2.935
 2080SOL    HW2 2102   1.915   2.421   3.074
 2081SOL     OW 2103   2.051   2.382   3.584
 2081SOL    HW1 2104   2.110   2.342   3.514
 2081SOL    HW2 2105   1.993   2.453   3.543
 2082SOL     OW 2106   3.231   2.812   3.522
 2082SOL    HW1 2107   3.270   2.901   3.542
 2082SOL    HW2 2108   3.241   2.792   3.425
 2083SOL     OW 2109   2.677   2.434   2.187
 2083SOL    HW1 2110   2.684   2.345   2.141
 2083SOL    HW2 2111   2.583   2.468   2.179
 2084SOL     OW 2112   3.519   2.466   3.068
 2084SOL    HW1 2113   3.481   2.397   3.130
 2084SOL    HW2 2114   3.601   2.430   3.024
 2086SOL     OW 2115   2.533   2.326   3.131
 2086SOL    HW1 2116   2.499   2.237   3.101
 2086SOL    HW2 2117   2.559   2.380   3.051
 2087SOL     OW 2118   2.792   3.540   3.327
 2087SOL    HW1 2119   2.768   3.522   3.232
 2087SOL    HW2 2120   2.822   3.634   3.337
 2088SOL     OW 2121   2.021   2.999   3.328
 2088SOL    HW1 2122   2.043   2.938   3.404
 2088SOL    HW2 2123   2.031   2.950   3.242
 2089SOL     OW 2124   3.209   2.921   3.096
 2089SOL    HW1 2125   3.233   2.858   3.022
 2089SOL    HW2 2126   3.119   2.961   3.078
 2090SOL     OW 2127   3.164   2.717   2.171
 2090SOL    HW1 2128   3.078   2.686   2.213
 2090SOL    HW2 2129   3.160   2.703   2.072
 2092SOL     OW 2130   3.114   3.593   2.990
 2092SOL    HW1 2131   3.198   3.598   2.936
 2092SOL    HW2 2132   3.091   3.497   3.008
 2093SOL     OW 2133   1.945   3.120   2.884
 2093SOL    HW1 2134   1.940   3.119   2.984
 2093SOL    HW2 2135   1.862   3.079   2.846
 2095SOL     OW 2136   3.588   1.997   2.385
 2095SOL    HW1 2137   3.661   1.980   2.318
 2095SOL    HW2 2138   3.557   1.910   2.423
 2096SOL     OW 2139   3.250   3.435   2.339
 2096SOL    HW1 2140   3.317   3.447   2.265
 2096SOL    HW2 2141   3.210   3.524   2.362
 2098SOL     OW 2142   3.142   2.789   2.534
 2098SOL    HW1 2143   3.202   2.708   2.536
 2098SOL    HW2 2144   3.182   2.858   2.474
 2099SOL     OW 2145   2.692   3.135   3.284
 2099SOL    HW1 2146   2.687   3.168   3.379
 2099SOL    HW2 2147   2.606   3.154   3.238
 2100SOL     OW 2148   2.534   3.478   2.016
 2100SOL    HW1 2149   2.543   3.488   1.917
 2100SOL    HW2 2150   2.494   3.389   2.037
 2102SOL     OW 2151   3.703   2.037   2.825
 2102SOL    HW1 2152   3.742   1.952   2.789
 2102SOL    HW2 2153   3.605   2.039   2.806
 2103SOL     OW 2154   3.056   3.474   1.893
 2103SOL    HW1 2155   3.062   3.381   1.930
 2103SOL    HW2 2156   2.997   3.474   1.813
 2104SOL     OW 2157   2.684   2.864   3.234
 2104SOL    HW1 2158   2.724   2.863   3.142
 2104SOL    HW2 2159   2.694   2.956   3.274
 2105SOL     OW 2160   2.778   2.772   2.153
 2105SOL    HW1 2161   2.841   2.810   2.085
 2105SOL    HW2 2162   2.818   2.689   2.192
 2106SOL     OW 2163   3.366   3.469   1.906
 2106SOL    HW1 2164   3.274   3.506   1.913
 2106SOL    HW2 2165   3.404   3.489   1.816
 2107SOL     OW 2166   2.234   3.150   3.352
 2107SOL    HW1 2167   2.221   3.243   3.318
 2107SOL    HW2 2168   2.150   3.098   3.339
 2108SOL     OW 2169   3.476   3.154   3.151
 2108SOL    HW1 2170   3.536   3.157   3.231
 2108SOL    HW2 2171   3.401   3.218   3.164
 2109SOL     OW 2172   2.901   2.960   2.558
 2109SOL    HW1 2173   2.831   2.913   2.612
 2109SOL    HW2 2174   2.960   2.892   2.515
 2110SOL     OW 2175   2.876   2.098   2.833
 2110SOL    HW1 2176   2.868   2.062   2.740
 2110SOL    HW2 2177   2.874   2.022   2.898
 2111SOL     OW 2178   2.452   3.349   2.353
 2111SOL    HW1 2179   2.494   3.291   2.283
 2111SOL    HW2 2180   2.408   3.428   2.309
 2112SOL     OW 2181   3.571   2.247   3.243
 2112SOL    HW1 2182   3.644   2.316   3.247
 2112SOL    HW2 2183   3.599   2.172   3.184
 2113SOL     OW 2184   2.117   3.210   2.152
 2113SOL    HW1 2185   2.021   3.211   2.125
 2113SOL    HW2 2186   2.129   3.263   2.236
 2114SOL     OW 2187   1.967   2.875   3.588
 2114SOL    HW1 2188   1.890   2.842   3.642
 2114SOL    HW2 2189   2.052   2.845   3.630
 2115SOL     OW 2190   2.534   2.065   3.351
 2115SOL    HW1 2191   2.624   2.049   3.311
 2115SOL    HW2 2192   2.542   2.070   3.450
 2116SOL     OW 2193   1.937   2.207   1.895
 2116SOL    HW1 2194   1.845   2.179   1.866
 2116SOL    HW2 2195   1.968   2.284   1.839
 2117SOL     OW 2196   3.302   2.718   3.260
 2117SOL    HW1 2197   3.245   2.770   3.197
 2117SOL    HW2 2198   3.398   2.730   3.236
 2118SOL     OW 2199   1.934   2.028   2.180
 2118SOL    HW1 2200   1.917   2.111   2.126
 2118SOL    HW2 2201   2.024   1.991   2.158
 2119SOL     OW 2202   3.045   3.197   1.981
 2119SOL    HW1 2203   2.946   3.186   1.983
 2119SOL    HW2 2204   3.079   3.212   2.074
 2120SOL     OW 2205   2.475   2.704   3.293
 2120SOL    HW1 2206   2.531   2.785   3.276
 2120SOL    HW2 2207   2.534   2.624   3.296
 2122SOL     OW 2208   2.578   2.427   3.570
 2122SOL    HW1 2209   2.597   2.492   3.644
 2122SOL    HW2 2210   2.638   2.347   3.579
 2125SOL     OW 2211   3.536   2.745   3.116
 2125SOL    HW1 2212   3.509   2.656   3.079
 2125SOL    HW2 2213   3.537   2.813   3.043
 2126SOL     OW 2214   3.087   2.187   2.311
 2126SOL    HW1 2215   3.152   2.113   2.300
 2126SOL    HW2 2216   3.107   2.237   2.395
 2127SOL     OW 2217   2.456   2.607   2.514
 2127SOL    HW1 2218   2.506   2.692   2.495
 2127SOL    HW2 2219   2.368   2.609   2.466
 2130SOL     OW 2220   2.721   3.236   1.878
 2130SOL    HW1 2221   2.675   3.251   1.966
 2130SOL    HW2 2222   2.765   3.321   1.848
 2131SOL     OW 2223   2.523   3.652   2.815
 2131SOL    HW1 2224   2.477   3.740   2.802
 2131SOL    HW2 2225   2.622   3.664   2.808
 2132SOL     OW 2226   2.721   2.818   2.723
 2132SOL    HW1 2227   2.775   2.749   2.771
 2132SOL    HW2 2228   2.689   2.887   2.789
 2133SOL     OW 2229   2.945   2.846   1.949
 2133SOL    HW1 2230   2.922   2.899   1.867
 2133SOL    HW2 2231   3.026   2.790   1.930
 2135SOL     OW 2232   2.083   3.176   3.706
 2135SOL    HW1 2233   2.018   3.103   3.685
 2135SOL    HW2 2234   2.087   3.190   3.804
 2136SOL     OW 2235   1.941   3.102   2.515
 2136SOL    HW1 2236   1.940   3.055   2.603
 2136SOL    HW2 2237   2.023   3.074   2.464
 2137SOL     OW 2238   2.534   3.253   3.486
 2137SOL    HW1 2239   2.456   3.203   3.524
 2137SOL    HW2 2240   2.531   3.348   3.517
 2138SOL     OW 2241   3.686   2.054   3.089
 2138SOL    HW1 2242   3.682   1.964   3.133
 2138SOL    HW2 2243   3.689   2.043   2.990
 2140SOL     OW 2244   2.179   2.409   3.142
 2140SOL    HW1 2245   2.217   2.350   3.214
 2140SOL    HW2 2246   2.219   2.383   3.054
 2141SOL     OW 2247   2.674   3.448   2.549
 2141SOL    HW1 2248   2.706   3.458   2.455
 2141SOL    HW2 2249   2.595   3.386   2.551
 2142SOL     OW 2250   3.286   2.076   2.974
 2142SOL    HW1 2251   3.338   2.011   3.029
 2142SOL    HW2 2252   3.237   2.139   3.035
 2143SOL     OW 2253   2.863   1.896   3.016
 2143SOL    HW1 2254   2.800   1.824   2.985
 2143SOL    HW2 2255   2.956   1.860   3.016
 2144SOL     OW 2256   2.632   3.192   2.163
 2144SOL    HW1 2257   2.586   3.105   2.180
 2144SOL    HW2 2258   2.723   3.189   2.204
 2145SOL     OW 2259   2.480   3.429   3.146
 2145SOL    HW1 2260   2.475   3.511   3.203
 2145SOL    HW2 2261   2.569   3.426   3.101
 2146SOL     OW 2262   3.214   1.914   2.030
 2146SOL    HW1 2263   3.249   1.873   1.946
 2146SOL    HW2 2264   3.124   1.876   2.050
 2147SOL     OW 2265   3.162   2.315   2.553
 2147SOL    HW1 2266   3.103   2.395   2.557
 2147SOL    HW2 2267   3.177   2.280   2.646
 2148SOL     OW 2268   3.455   2.083   2.744
 2148SOL    HW1 2269   3.371   2.082   2.798
 2148SOL    HW2 2270   3.457   2.166   2.688
 2149SOL     OW 2271   1.901   2.939   2.162
 2149SOL    HW1 2272   2.000   2.928   2.153
 2149SOL    HW2 2273   1.861   2.853   2.194
 2150SOL     OW 2274   2.737   3.508   2.199
 2150SOL    HW1 2275   2.660   3.473   2.145
 2150SOL    HW2 2276   2.705   3.579   2.261
 2151SOL     OW 2277   2.092   2.490   3.837
 2151SOL    HW1 2278   1.999   2.488   3.874
 2151SOL    HW2 2279   2.093   2.451   3.745
 2158SOL     OW 2280   2.468   2.826   3.847
 2158SOL    HW1 2281   2.475   2.910   3.793
 2158SOL    HW2 2282   2.514   2.839   3.935
 2172SOL     OW 2283   2.727   2.210   3.919
 2172SOL    HW1 2284   2.786   2.273   3.870
 2172SOL    HW2 2285   2.746   2.116   3.890
 2184SOL     OW 2286   2.476   1.984   3.841
 2184SOL    HW1 2287   2.574   1.962   3.848
 2184SOL    HW2 2288   2.445   1.967   3.748
 2187SOL     OW 2289   2.159   1.897   3.895
 2187SOL    HW1 2290   2.208   1.981   3.874
 2187SOL    HW2 2291   2.221   1.832   3.940
 2191SOL     OW 2292   2.894   2.411   3.740
 2191SOL    HW1 2293   2.853   2.493   3.701
 2191SOL    HW2 2294   2.958   2.437   3.813
 2209SOL     OW 2295   2.335   2.362   3.915
 2209SOL    HW1 2296   2.396   2.442   3.919
 2209SOL    HW2 2297   2.240   2.393   3.922
 2220SOL     OW 2298   1.937   2.207   3.757
 2220SOL    HW1 2299   1.845   2.179   3.728
 2220SOL    HW2 2300   1.968   2.284   3.701
 2246SOL     OW 2301   2.179   3.975   1.801
 2246SOL    HW1 2302   2.250   4.046   1.807
 2246SOL    HW2 2303   2.091   4.014   1.829
 2279SOL     OW 2304   2.875   3.829   1.770
 2279SOL    HW1 2305   2.881   3.914   1.718
 2279SOL    HW2 2306   2.907   3.753   1.713
 2280SOL     OW 2307   2.366   3.774   1.740
 2280SOL    HW1 2308   2.324   3.717   1.670
 2280SOL    HW2 2309   2.300   3.843   1.772
 2328SOL     OW 2310   2.671   3.728   2.364
 2328SOL    HW1 2311   2.711   3.819   2.355
 2328SOL    HW2 2312   2.571   3.736   2.370
 2337SOL     OW 2313   2.412   3.920   2.747
 2337SOL    HW1 2314   2.407   3.915   2.847
 2337SOL    HW2 2315   2.414   4.016   2.718
 2343SOL     OW 2316   2.476   3.846   1.979
 2343SOL    HW1 2317   2.574   3.824   1.986
 2343SOL    HW2 2318   2.445   3.829   1.886
 2347SOL     OW 2319   2.401   3.788   2.374
 2347SOL    HW1 2320   2.320   3.789   2.432
 2347SOL    HW2 2321   2.404   3.871   2.319
 2348SOL     OW 2322   2.159   3.759   2.033
 2348SOL    HW1 2323   2.208   3.843   2.012
 2348SOL    HW2 2324   2.221   3.694   2.078
 2355SOL     OW 2325   2.879   3.763   2.615
 2355SOL    HW1 2326   2.807   3.768   2.546
 2355SOL    HW2 2327   2.855   3.694   2.684
 2358SOL     OW 2328   2.389   3.980   2.190
 2358SOL    HW1 2329   2.416   3.921   2.115
 2358SOL    HW2 2330   2.389   4.075   2.159
 2368SOL     OW 2331   2.169   3.787   2.480
 2368SOL    HW1 2332   2.158   3.881   2.513
 2368SOL    HW2 2333   2.164   3.724   2.557
 2389SOL     OW 2334   1.934   3.890   2.180
 2389SOL    HW1 2335   1.917   3.973   2.126
 2389SOL    HW2 2336   2.024   3.853   2.158
 2461SOL     OW 2337   3.854   1.821   1.571
 2461SOL    HW1 2338   3.844   1.806   1.670
 2461SOL    HW2 2339   3.768   1.857   1.535
 2503SOL     OW 2340   3.854   1.794   1.851
 2503SOL    HW1 2341   3.813   1.720   1.904
 2503SOL    HW2 2342   3.918   1.845   1.909
 2530SOL     OW 2343   3.955   1.713   2.345
 2530SOL    HW1 2344   3.989   1.790   2.399
 2530SOL    HW2 2345   3.999   1.713   2.255
 2536SOL     OW 2346   3.751   1.596   1.979
 2536SOL    HW1 2347   3.732   1.500   2.000
 2536SOL    HW2 2348   3.718   1.654   2.054
 2575SOL     OW 2349   3.732   1.326   2.062
 2575SOL    HW1 2350   3.639   1.347   2.031
 2575SOL    HW2 2351   3.742   1.227   2.075
 2576SOL     OW 2352   3.812   1.801   2.789
 2576SOL    HW1 2353   3.770   1.715   2.762
 2576SOL    HW2 2354   3.906   1.804   2.755
 2655SOL     OW 2355   3.837   2.599   1.597
 2655SOL    HW1 2356   3.925   2.586   1.642
 2655SOL    HW2 2357   3.824   2.696   1.575
 2675SOL     OW 2358   3.802   2.418   1.386
 2675SOL    HW1 2359   3.894   2.417   1.345
 2675SOL    HW2 2360   3.796   2.492   1.453
 2697SOL     OW 2361   3.913   2.382   1.722
 2697SOL    HW1 2362   3.972   2.342   1.652
 2697SOL    HW2 2363   3.855   2.453   1.681
 2709SOL     OW 2364   3.829   2.875   1.726
 2709SOL    HW1 2365   3.752   2.842   1.780
 2709SOL    HW2 2366   3.914   2.845   1.768
 2723SOL     OW 2367   3.954   2.490   1.975
 2723SOL    HW1 2368   3.861   2.488   2.012
 2723SOL    HW2 2369   3.955   2.451   1.883
 2725SOL     OW 2370   3.743   2.230   2.509
 2725SOL    HW1 2371   3.661   2.273   2.548
 2725SOL    HW2 2372   3.715   2.157   2.446
 2736SOL     OW 2373   3.846   2.505   2.425
 2736SOL    HW1 2374   3.801   2.417   2.442
 2736SOL    HW2 2375   3.845   2.559   2.509
 2744SOL     OW 2376   3.800   2.673   2.651
 2744SOL    HW1 2377   3.899   2.661   2.660
 2744SOL    HW2 2378   3.776   2.768   2.672
 2777SOL     OW 2379   3.732   3.188   2.062
 2777SOL    HW1 2380   3.639   3.209   2.031
 2777SOL    HW2 2381   3.742   3.089   2.075
 2780SOL     OW 2382   3.764   2.406   2.976
 2780SOL    HW1 2383   3.849   2.373   2.935
 2780SOL    HW2 2384   3.777   2.421   3.074
 2789SOL     OW 2385   3.987   2.188   2.582
 2789SOL    HW1 2386   3.908   2.239   2.548
 2789SOL    HW2 2387   3.978   2.173   2.680
 2795SOL     OW 2388   3.799   2.207   1.895
 2795SOL    HW1 2389   3.707   2.179   1.866
 2795SOL    HW2 2390   3.830   2.284   1.839
 2796SOL     OW 2391   3.796   2.028   2.180
 2796SOL    HW1 2392   3.779   2.111   2.126
 2796SOL    HW2 2393   3.886   1.991   2.158
 2807SOL     OW 2394   3.763   2.939   2.162
 2807SOL    HW1 2395   3.862   2.928   2.153
 2807SOL    HW2 2396   3.723   2.853   2.194
   4.48143   4.48143   4.48143
