; mobley_52782_GMX.itp created by acpype (v: 2023.10.27) on Thu May 21 00:15:48 2026

[ atomtypes ]
;name   bond_type     mass     charge   ptype   sigma         epsilon       Amb
 c3       c3          0.00000  0.00000   A     3.39771e-01   4.51035e-01 ; 1.91  0.1078
 no       no          0.00000  0.00000   A     3.36510e-01   3.58987e-01 ; 1.89  0.0858
 o        o           0.00000  0.00000   A     3.04812e-01   6.12119e-01 ; 1.71  0.1463
 os       os          0.00000  0.00000   A     3.15610e-01   3.03758e-01 ; 1.77  0.0726
 h1       h1          0.00000  0.00000   A     2.42200e-01   8.70272e-02 ; 1.36  0.0208

[ moleculetype ]
;name            nrexcl
 mobley_52782     3

[ atoms ]
;   nr  type  resi  res  atom  cgnr     charge      mass       ; qtot   bond_type
     1   c3     1   MOL    C1    1     0.126400     12.01000 ; qtot 0.126
     2   c3     1   MOL    C2    2     0.126400     12.01000 ; qtot 0.253
     3   no     1   MOL    N1    3     0.381200     14.01000 ; qtot 0.634
     4   no     1   MOL    N2    4     0.381200     14.01000 ; qtot 1.015
     5    o     1   MOL    O1    5    -0.170000     16.00000 ; qtot 0.845
     6    o     1   MOL    O2    6    -0.170000     16.00000 ; qtot 0.675
     7    o     1   MOL    O3    7    -0.170000     16.00000 ; qtot 0.505
     8    o     1   MOL    O4    8    -0.170000     16.00000 ; qtot 0.335
     9   os     1   MOL    O5    9    -0.357000     16.00000 ; qtot -0.022
    10   os     1   MOL    O6   10    -0.357000     16.00000 ; qtot -0.379
    11   h1     1   MOL    H1   11     0.094700      1.00800 ; qtot -0.284
    12   h1     1   MOL    H2   12     0.094700      1.00800 ; qtot -0.189
    13   h1     1   MOL    H3   13     0.094700      1.00800 ; qtot -0.095
    14   h1     1   MOL    H4   14     0.094700      1.00800 ; qtot 0.000

[ bonds ]
;   ai     aj funct   r             k
     1      2   1    1.5354e-01    1.9154e+05 ;     C1 - C2    
     1      9   1    1.4273e-01    2.3620e+05 ;     C1 - O5    
     1     11   1    1.0969e-01    2.8804e+05 ;     C1 - H1    
     1     12   1    1.0969e-01    2.8804e+05 ;     C1 - H2    
     2     10   1    1.4273e-01    2.3620e+05 ;     C2 - O6    
     2     13   1    1.0969e-01    2.8804e+05 ;     C2 - H3    
     2     14   1    1.0969e-01    2.8804e+05 ;     C2 - H4    
     3      5   1    1.2311e-01    3.0270e+05 ;     N1 - O1    
     3      6   1    1.2311e-01    3.0270e+05 ;     N1 - O2    
     3      9   1    1.4202e-01    1.5509e+05 ;     N1 - O5    
     4      7   1    1.2311e-01    3.0270e+05 ;     N2 - O3    
     4      8   1    1.2311e-01    3.0270e+05 ;     N2 - O4    
     4     10   1    1.4202e-01    1.5509e+05 ;     N2 - O6    

[ pairs ]
;   ai     aj    funct
     1      4      1 ;     C1 - N2    
     1      5      1 ;     C1 - O1    
     1      6      1 ;     C1 - O2    
     2      3      1 ;     C2 - N1    
     2      7      1 ;     C2 - O3    
     2      8      1 ;     C2 - O4    
     4     13      1 ;     N2 - H3    
     4     14      1 ;     N2 - H4    
     9     10      1 ;     O5 - O6    
     9     13      1 ;     O5 - H3    
     9     14      1 ;     O5 - H4    
    11      3      1 ;     H1 - N1    
    11     10      1 ;     H1 - O6    
    11     13      1 ;     H1 - H3    
    11     14      1 ;     H1 - H4    
    12      3      1 ;     H2 - N1    
    12     10      1 ;     H2 - O6    
    12     13      1 ;     H2 - H3    
    12     14      1 ;     H2 - H4    

[ angles ]
;   ai     aj     ak    funct   theta         cth
     1      2     10      1    1.0762e+02    6.4802e+02 ;     C1 - C2     - O6    
     1      2     13      1    1.0959e+02    3.6217e+02 ;     C1 - C2     - H3    
     1      2     14      1    1.0959e+02    3.6217e+02 ;     C1 - C2     - H4    
     1      9      3      1    1.1387e+02    7.8567e+02 ;     C1 - O5     - N1    
     2      1      9      1    1.0762e+02    6.4802e+02 ;     C2 - C1     - O5    
     2      1     11      1    1.0959e+02    3.6217e+02 ;     C2 - C1     - H1    
     2      1     12      1    1.0959e+02    3.6217e+02 ;     C2 - C1     - H2    
     2     10      4      1    1.1387e+02    7.8567e+02 ;     C2 - O6     - N2    
     5      3      6      1    1.2505e+02    1.0964e+03 ;     O1 - N1     - O2    
     5      3      9      1    1.1480e+02    1.0519e+03 ;     O1 - N1     - O5    
     6      3      9      1    1.1480e+02    1.0519e+03 ;     O2 - N1     - O5    
     7      4      8      1    1.2505e+02    1.0964e+03 ;     O3 - N2     - O4    
     7      4     10      1    1.1480e+02    1.0519e+03 ;     O3 - N2     - O6    
     8      4     10      1    1.1480e+02    1.0519e+03 ;     O4 - N2     - O6    
     9      1     11      1    1.1034e+02    4.7028e+02 ;     O5 - C1     - H1    
     9      1     12      1    1.1034e+02    4.7028e+02 ;     O5 - C1     - H2    
    10      2     13      1    1.1034e+02    4.7028e+02 ;     O6 - C2     - H3    
    10      2     14      1    1.1034e+02    4.7028e+02 ;     O6 - C2     - H4    
    11      1     12      1    1.0855e+02    2.9824e+02 ;     H1 - C1     - H2    
    13      2     14      1    1.0855e+02    2.9824e+02 ;     H3 - C2     - H4    

[ dihedrals ] ; propers
; for gromacs 4.5 or higher, using funct 9
;    i      j      k      l   func   phase     kd      pn
     1      2     10      4      9     0.00   1.60387   3 ;     C1-    C2-    O6-    N2
     1      9      3      5      9   180.00  10.60644   2 ;     C1-    O5-    N1-    O1
     1      9      3      6      9   180.00  10.60644   2 ;     C1-    O5-    N1-    O2
     2      1      9      3      9     0.00   1.60387   3 ;     C2-    C1-    O5-    N1
     2     10      4      7      9   180.00  10.60644   2 ;     C2-    O6-    N2-    O3
     2     10      4      8      9   180.00  10.60644   2 ;     C2-    O6-    N2-    O4
     4     10      2     13      9     0.00   1.60387   3 ;     N2-    O6-    C2-    H3
     4     10      2     14      9     0.00   1.60387   3 ;     N2-    O6-    C2-    H4
     9      1      2     10      9     0.00   0.75312   1 ;     O5-    C1-    C2-    O6
     9      1      2     10      9     0.00   2.09200   3 ;     O5-    C1-    C2-    O6
     9      1      2     10      9     0.00   3.76560   2 ;     O5-    C1-    C2-    O6
     9      1      2     13      9     0.00   0.00000   0 ;     O5-    C1-    C2-    H3
     9      1      2     13      9     0.00   1.04600   1 ;     O5-    C1-    C2-    H3
     9      1      2     14      9     0.00   0.00000   0 ;     O5-    C1-    C2-    H4
     9      1      2     14      9     0.00   1.04600   1 ;     O5-    C1-    C2-    H4
    11      1      2     10      9     0.00   0.00000   0 ;     H1-    C1-    C2-    O6
    11      1      2     10      9     0.00   1.04600   1 ;     H1-    C1-    C2-    O6
    11      1      2     13      9     0.00   0.65084   3 ;     H1-    C1-    C2-    H3
    11      1      2     14      9     0.00   0.65084   3 ;     H1-    C1-    C2-    H4
    11      1      9      3      9     0.00   1.60387   3 ;     H1-    C1-    O5-    N1
    12      1      2     10      9     0.00   0.00000   0 ;     H2-    C1-    C2-    O6
    12      1      2     10      9     0.00   1.04600   1 ;     H2-    C1-    C2-    O6
    12      1      2     13      9     0.00   0.65084   3 ;     H2-    C1-    C2-    H3
    12      1      2     14      9     0.00   0.65084   3 ;     H2-    C1-    C2-    H4
    12      1      9      3      9     0.00   1.60387   3 ;     H2-    C1-    O5-    N1

[ dihedrals ] ; impropers
; treated as propers in GROMACS to use correct AMBER analytical function
;    i      j      k      l   func   phase     kd      pn
     5      6      3      9      4   180.00   4.60240   2 ;     O1-    O2-    N1-    O5
     7      8      4     10      4   180.00   4.60240   2 ;     O3-    O4-    N2-    O6
