mobley_2390199_GMX.gro created by acpype (v: 2023.10.27) on Tue May 19 12:36:58 2026
 2428
    1MOL     C1    1   2.431   2.476   2.498
    1MOL     C2    2   2.267   2.255   2.225
    1MOL     C3    3   2.714   2.671   2.677
    1MOL     C4    4   2.418   2.394   2.371
    1MOL     C5    5   2.569   2.537   2.523
    1MOL     C6    6   2.279   2.334   2.354
    1MOL     C7    7   2.575   2.615   2.653
    1MOL     O1    8   2.337   2.493   2.575
    1MOL     H1    9   2.339   2.172   2.223
    1MOL     H2   10   2.167   2.212   2.215
    1MOL     H3   11   2.286   2.318   2.138
    1MOL     H4   12   2.744   2.739   2.597
    1MOL     H5   13   2.717   2.728   2.771
    1MOL     H6   14   2.788   2.591   2.684
    1MOL     H7   15   2.441   2.459   2.286
    1MOL     H8   16   2.493   2.314   2.375
    1MOL     H9   17   2.592   2.602   2.438
    1MOL    H10   18   2.641   2.455   2.525
    1MOL    H11   19   2.256   2.268   2.439
    1MOL    H12   20   2.203   2.414   2.354
    1MOL    H13   21   2.503   2.698   2.651
    1MOL    H14   22   2.547   2.551   2.737
   14SOL     OW   23   1.460   1.505   1.339
   14SOL    HW1   24   1.484   1.599   1.365
   14SOL    HW2   25   1.444   1.451   1.421
   35SOL     OW   26   1.187   1.792   1.616
   35SOL    HW1   27   1.211   1.852   1.540
   35SOL    HW2   28   1.194   1.697   1.586
   95SOL     OW   29   1.754   1.223   1.588
   95SOL    HW1   30   1.845   1.184   1.575
   95SOL    HW2   31   1.762   1.319   1.612
   97SOL     OW   32   1.592   1.629   1.625
   97SOL    HW1   33   1.619   1.663   1.535
   97SOL    HW2   34   1.671   1.591   1.671
  127SOL     OW   35   1.859   1.518   1.605
  127SOL    HW1   36   1.873   1.545   1.510
  127SOL    HW2   37   1.942   1.540   1.658
  152SOL     OW   38   1.759   1.747   1.154
  152SOL    HW1   39   1.820   1.777   1.081
  152SOL    HW2   40   1.721   1.658   1.132
  163SOL     OW   41   1.650   1.720   1.394
  163SOL    HW1   42   1.703   1.730   1.310
  163SOL    HW2   43   1.623   1.810   1.428
  219SOL     OW   44   1.555   1.511   2.565
  219SOL    HW1   45   1.498   1.495   2.646
  219SOL    HW2   46   1.496   1.521   2.485
  227SOL     OW   47   1.460   1.505   3.201
  227SOL    HW1   48   1.484   1.599   3.227
  227SOL    HW2   49   1.444   1.451   3.283
  238SOL     OW   50   1.842   1.767   2.221
  238SOL    HW1   51   1.896   1.738   2.301
  238SOL    HW2   52   1.872   1.857   2.192
  240SOL     OW   53   1.689   0.922   2.474
  240SOL    HW1   54   1.784   0.893   2.482
  240SOL    HW2   55   1.681   0.987   2.399
  241SOL     OW   56   1.641   1.108   2.294
  241SOL    HW1   57   1.727   1.110   2.242
  241SOL    HW2   58   1.655   1.155   2.382
  247SOL     OW   59   1.525   0.999   2.052
  247SOL    HW1   60   1.462   0.923   2.065
  247SOL    HW2   61   1.573   1.017   2.138
  248SOL     OW   62   1.187   1.792   3.478
  248SOL    HW1   63   1.211   1.852   3.402
  248SOL    HW2   64   1.194   1.697   3.448
  250SOL     OW   65   1.466   1.417   2.815
  250SOL    HW1   66   1.407   1.423   2.895
  250SOL    HW2   67   1.451   1.329   2.769
  251SOL     OW   68   1.667   1.714   2.434
  251SOL    HW1   69   1.626   1.691   2.346
  251SOL    HW2   70   1.649   1.640   2.499
  254SOL     OW   71   1.576   1.662   2.169
  254SOL    HW1   72   1.665   1.708   2.172
  254SOL    HW2   73   1.555   1.638   2.074
  264SOL     OW   74   1.362   1.144   2.407
  264SOL    HW1   75   1.445   1.115   2.359
  264SOL    HW2   76   1.313   1.211   2.351
  266SOL     OW   77   1.008   1.456   2.339
  266SOL    HW1   78   0.962   1.528   2.287
  266SOL    HW2   79   1.004   1.476   2.437
  268SOL     OW   80   1.795   1.066   2.735
  268SOL    HW1   81   1.733   1.051   2.659
  268SOL    HW2   82   1.743   1.077   2.820
  269SOL     OW   83   1.227   1.550   3.368
  269SOL    HW1   84   1.233   1.473   3.432
  269SOL    HW2   85   1.175   1.524   3.288
  273SOL     OW   86   1.111   1.776   2.099
  273SOL    HW1   87   1.051   1.714   2.149
  273SOL    HW2   88   1.142   1.732   2.014
  275SOL     OW   89   1.632   1.377   1.943
  275SOL    HW1   90   1.600   1.471   1.933
  275SOL    HW2   91   1.556   1.314   1.931
  279SOL     OW   92   0.940   1.698   2.766
  279SOL    HW1   93   1.020   1.641   2.787
  279SOL    HW2   94   0.891   1.658   2.689
  289SOL     OW   95   1.434   1.188   1.903
  289SOL    HW1   96   1.466   1.112   1.960
  289SOL    HW2   97   1.342   1.215   1.933
  293SOL     OW   98   1.227   1.570   2.655
  293SOL    HW1   99   1.248   1.644   2.590
  293SOL    HW2  100   1.295   1.570   2.728
  295SOL     OW  101   1.271   1.797   2.453
  295SOL    HW1  102   1.315   1.861   2.389
  295SOL    HW2  103   1.221   1.849   2.523
  301SOL     OW  104   1.429   1.173   2.729
  301SOL    HW1  105   1.374   1.089   2.722
  301SOL    HW2  106   1.455   1.202   2.637
  303SOL     OW  107   1.857   0.833   2.239
  303SOL    HW1  108   1.899   0.769   2.303
  303SOL    HW2  109   1.819   0.782   2.161
  305SOL     OW  110   1.664   1.280   2.519
  305SOL    HW1  111   1.763   1.288   2.533
  305SOL    HW2  112   1.619   1.364   2.550
  308SOL     OW  113   1.754   1.223   3.450
  308SOL    HW1  114   1.845   1.184   3.437
  308SOL    HW2  115   1.762   1.319   3.474
  310SOL     OW  116   1.592   1.629   3.487
  310SOL    HW1  117   1.619   1.663   3.397
  310SOL    HW2  118   1.671   1.591   3.533
  312SOL     OW  119   1.638   1.099   2.941
  312SOL    HW1  120   1.643   1.180   3.000
  312SOL    HW2  121   1.552   1.101   2.890
  321SOL     OW  122   1.252   1.348   2.250
  321SOL    HW1  123   1.302   1.425   2.290
  321SOL    HW2  124   1.157   1.350   2.282
  322SOL     OW  125   1.272   1.445   3.004
  322SOL    HW1  126   1.319   1.458   3.091
  322SOL    HW2  127   1.206   1.371   3.013
  340SOL     OW  128   1.859   1.518   3.467
  340SOL    HW1  129   1.873   1.545   3.372
  340SOL    HW2  130   1.942   1.540   3.520
  365SOL     OW  131   1.759   1.747   3.016
  365SOL    HW1  132   1.820   1.777   2.943
  365SOL    HW2  133   1.721   1.658   2.994
  366SOL     OW  134   1.252   1.731   2.990
  366SOL    HW1  135   1.336   1.736   2.936
  366SOL    HW2  136   1.229   1.635   3.008
  370SOL     OW  137   1.388   1.573   2.339
  370SOL    HW1  138   1.455   1.585   2.265
  370SOL    HW2  139   1.348   1.662   2.362
  375SOL     OW  140   1.650   1.720   3.256
  375SOL    HW1  141   1.703   1.730   3.172
  375SOL    HW2  142   1.623   1.810   3.290
  378SOL     OW  143   1.194   1.612   1.893
  378SOL    HW1  144   1.200   1.519   1.930
  378SOL    HW2  145   1.135   1.612   1.813
  381SOL     OW  146   1.504   1.607   1.906
  381SOL    HW1  147   1.412   1.644   1.913
  381SOL    HW2  148   1.542   1.627   1.816
  383SOL     OW  149   1.614   1.292   3.151
  383SOL    HW1  150   1.674   1.295   3.231
  383SOL    HW2  151   1.539   1.356   3.164
  394SOL     OW  152   1.183   1.335   1.981
  394SOL    HW1  153   1.084   1.324   1.983
  394SOL    HW2  154   1.217   1.350   2.074
  396SOL     OW  155   1.493   1.767   2.821
  396SOL    HW1  156   1.526   1.831   2.752
  396SOL    HW2  157   1.559   1.761   2.896
  409SOL     OW  158   1.861   1.569   2.713
  409SOL    HW1  159   1.790   1.557   2.643
  409SOL    HW2  160   1.862   1.490   2.773
  415SOL     OW  161   1.705   1.487   2.966
  415SOL    HW1  162   1.612   1.462   2.939
  415SOL    HW2  163   1.731   1.437   3.048
  573SOL     OW  164   0.850   2.660   1.823
  573SOL    HW1  165   0.846   2.736   1.888
  573SOL    HW2  166   0.872   2.696   1.732
  577SOL     OW  167   1.460   3.367   1.339
  577SOL    HW1  168   1.484   3.461   1.365
  577SOL    HW2  169   1.444   3.313   1.421
  581SOL     OW  170   1.127   3.203   1.690
  581SOL    HW1  171   1.174   3.203   1.778
  581SOL    HW2  172   1.079   3.116   1.679
  586SOL     OW  173   1.594   1.976   1.480
  586SOL    HW1  174   1.576   2.043   1.408
  586SOL    HW2  175   1.591   2.022   1.569
  594SOL     OW  176   1.293   3.090   1.423
  594SOL    HW1  177   1.330   3.017   1.365
  594SOL    HW2  178   1.345   3.095   1.508
  606SOL     OW  179   1.394   2.331   1.674
  606SOL    HW1  180   1.374   2.374   1.762
  606SOL    HW2  181   1.472   2.269   1.683
  607SOL     OW  182   0.973   2.752   1.572
  607SOL    HW1  183   1.019   2.668   1.543
  607SOL    HW2  184   0.917   2.786   1.497
  613SOL     OW  185   1.719   2.447   1.831
  613SOL    HW1  186   1.693   2.536   1.795
  613SOL    HW2  187   1.717   2.379   1.758
  618SOL     OW  188   1.795   2.928   0.873
  618SOL    HW1  189   1.733   2.913   0.797
  618SOL    HW2  190   1.743   2.939   0.958
  631SOL     OW  191   1.547   2.084   1.729
  631SOL    HW1  192   1.542   2.121   1.821
  631SOL    HW2  193   1.475   2.015   1.717
  635SOL     OW  194   1.351   2.452   1.433
  635SOL    HW1  195   1.379   2.409   1.518
  635SOL    HW2  196   1.376   2.548   1.434
  642SOL     OW  197   1.076   2.545   1.464
  642SOL    HW1  198   0.996   2.484   1.467
  642SOL    HW2  199   1.157   2.492   1.440
  652SOL     OW  200   1.466   2.452   0.992
  652SOL    HW1  201   1.436   2.357   0.999
  652SOL    HW2  202   1.539   2.468   1.058
  658SOL     OW  203   1.754   3.085   1.588
  658SOL    HW1  204   1.845   3.046   1.575
  658SOL    HW2  205   1.762   3.181   1.612
  660SOL     OW  206   1.592   3.491   1.625
  660SOL    HW1  207   1.619   3.525   1.535
  660SOL    HW2  208   1.671   3.453   1.671
  662SOL     OW  209   1.638   2.961   1.079
  662SOL    HW1  210   1.643   3.042   1.138
  662SOL    HW2  211   1.552   2.963   1.028
  664SOL     OW  212   0.980   2.978   1.719
  664SOL    HW1  213   0.881   2.984   1.729
  664SOL    HW2  214   1.003   2.898   1.663
  667SOL     OW  215   1.274   2.248   1.262
  667SOL    HW1  216   1.295   2.322   1.326
  667SOL    HW2  217   1.185   2.265   1.219
  676SOL     OW  218   1.587   2.641   1.670
  676SOL    HW1  219   1.495   2.679   1.665
  676SOL    HW2  220   1.647   2.688   1.605
  677SOL     OW  221   1.013   1.967   1.770
  677SOL    HW1  222   1.019   2.052   1.718
  677SOL    HW2  223   1.045   1.891   1.713
  685SOL     OW  224   1.728   2.797   1.854
  685SOL    HW1  225   1.682   2.790   1.765
  685SOL    HW2  226   1.666   2.841   1.920
  690SOL     OW  227   1.859   3.380   1.605
  690SOL    HW1  228   1.873   3.407   1.510
  690SOL    HW2  229   1.942   3.402   1.658
  697SOL     OW  230   1.138   2.242   1.678
  697SOL    HW1  231   1.093   2.305   1.742
  697SOL    HW2  232   1.231   2.273   1.661
  698SOL     OW  233   1.160   2.069   1.477
  698SOL    HW1  234   1.160   2.133   1.554
  698SOL    HW2  235   1.188   2.117   1.394
  705SOL     OW  236   1.369   2.812   1.660
  705SOL    HW1  237   1.408   2.901   1.680
  705SOL    HW2  238   1.379   2.792   1.563
  707SOL     OW  239   1.657   2.466   1.206
  707SOL    HW1  240   1.619   2.397   1.268
  707SOL    HW2  241   1.739   2.430   1.162
  713SOL     OW  242   1.347   2.921   1.234
  713SOL    HW1  243   1.371   2.858   1.160
  713SOL    HW2  244   1.257   2.961   1.216
  726SOL     OW  245   1.650   3.582   1.394
  726SOL    HW1  246   1.703   3.592   1.310
  726SOL    HW2  247   1.623   3.672   1.428
  727SOL     OW  248   1.841   2.037   0.963
  727SOL    HW1  249   1.880   1.952   0.927
  727SOL    HW2  250   1.743   2.039   0.944
  734SOL     OW  251   1.614   3.154   1.289
  734SOL    HW1  252   1.674   3.157   1.369
  734SOL    HW2  253   1.539   3.218   1.302
  738SOL     OW  254   1.709   2.247   1.381
  738SOL    HW1  255   1.782   2.316   1.385
  738SOL    HW2  256   1.737   2.172   1.322
  743SOL     OW  257   1.440   2.718   1.398
  743SOL    HW1  258   1.383   2.770   1.335
  743SOL    HW2  259   1.536   2.730   1.374
  749SOL     OW  260   1.450   3.082   1.633
  749SOL    HW1  261   1.441   3.072   1.732
  749SOL    HW2  262   1.546   3.075   1.607
  751SOL     OW  263   1.674   2.745   1.254
  751SOL    HW1  264   1.647   2.656   1.217
  751SOL    HW2  265   1.675   2.813   1.181
  754SOL     OW  266   1.777   2.204   1.642
  754SOL    HW1  267   1.760   2.235   1.548
  754SOL    HW2  268   1.693   2.167   1.680
  755SOL     OW  269   1.730   2.796   1.517
  755SOL    HW1  270   1.768   2.887   1.532
  755SOL    HW2  271   1.722   2.779   1.418
  764SOL     OW  272   1.824   2.054   1.227
  764SOL    HW1  273   1.820   1.964   1.271
  764SOL    HW2  274   1.827   2.043   1.128
  766SOL     OW  275   1.705   3.349   1.104
  766SOL    HW1  276   1.612   3.324   1.077
  766SOL    HW2  277   1.731   3.299   1.186
  769SOL     OW  278   1.424   2.076   1.112
  769SOL    HW1  279   1.476   2.011   1.167
  769SOL    HW2  280   1.375   2.139   1.173
  782SOL     OW  281   1.555   3.373   2.565
  782SOL    HW1  282   1.498   3.357   2.646
  782SOL    HW2  283   1.496   3.383   2.485
  783SOL     OW  284   1.135   2.565   2.579
  783SOL    HW1  285   1.192   2.643   2.554
  783SOL    HW2  286   1.075   2.591   2.655
  784SOL     OW  287   1.755   2.469   2.093
  784SOL    HW1  288   1.743   2.456   1.994
  784SOL    HW2  289   1.725   2.388   2.142
  790SOL     OW  290   1.460   3.367   3.201
  790SOL    HW1  291   1.484   3.461   3.227
  790SOL    HW2  292   1.444   3.313   3.283
  792SOL     OW  293   1.603   2.309   2.599
  792SOL    HW1  294   1.529   2.355   2.549
  792SOL    HW2  295   1.654   2.377   2.652
  799SOL     OW  296   1.594   1.976   3.342
  799SOL    HW1  297   1.576   2.043   3.270
  799SOL    HW2  298   1.591   2.022   3.431
  801SOL     OW  299   1.842   3.629   2.221
  801SOL    HW1  300   1.896   3.600   2.301
  801SOL    HW2  301   1.872   3.719   2.192
  803SOL     OW  302   1.689   2.784   2.474
  803SOL    HW1  303   1.784   2.755   2.482
  803SOL    HW2  304   1.681   2.849   2.399
  804SOL     OW  305   1.641   2.970   2.294
  804SOL    HW1  306   1.727   2.972   2.242
  804SOL    HW2  307   1.655   3.017   2.382
  807SOL     OW  308   1.293   3.090   3.285
  807SOL    HW1  309   1.330   3.017   3.227
  807SOL    HW2  310   1.345   3.095   3.370
  808SOL     OW  311   0.809   1.866   2.364
  808SOL    HW1  312   0.849   1.957   2.355
  808SOL    HW2  313   0.709   1.874   2.370
  810SOL     OW  314   1.525   2.861   2.052
  810SOL    HW1  315   1.462   2.785   2.065
  810SOL    HW2  316   1.573   2.879   2.138
  813SOL     OW  317   1.466   3.279   2.815
  813SOL    HW1  318   1.407   3.285   2.895
  813SOL    HW2  319   1.451   3.191   2.769
  814SOL     OW  320   1.667   3.576   2.434
  814SOL    HW1  321   1.626   3.553   2.346
  814SOL    HW2  322   1.649   3.502   2.499
  816SOL     OW  323   1.281   2.207   2.806
  816SOL    HW1  324   1.195   2.157   2.793
  816SOL    HW2  325   1.343   2.153   2.862
  817SOL     OW  326   1.576   3.524   2.169
  817SOL    HW1  327   1.665   3.570   2.172
  817SOL    HW2  328   1.555   3.500   2.074
  819SOL     OW  329   1.394   2.331   3.536
  819SOL    HW1  330   1.374   2.374   3.624
  819SOL    HW2  331   1.472   2.269   3.545
  821SOL     OW  332   0.991   2.272   3.104
  821SOL    HW1  333   0.914   2.306   3.158
  821SOL    HW2  334   0.957   2.221   3.025
  822SOL     OW  335   1.041   2.563   2.291
  822SOL    HW1  336   1.067   2.559   2.387
  822SOL    HW2  337   0.956   2.512   2.277
  825SOL     OW  338   0.865   2.210   2.057
  825SOL    HW1  339   0.924   2.273   2.008
  825SOL    HW2  340   0.884   2.116   2.028
  826SOL     OW  341   1.719   2.447   3.693
  826SOL    HW1  342   1.693   2.536   3.657
  826SOL    HW2  343   1.717   2.379   3.620
  827SOL     OW  344   1.362   3.006   2.407
  827SOL    HW1  345   1.445   2.977   2.359
  827SOL    HW2  346   1.313   3.073   2.351
  829SOL     OW  347   1.008   3.318   2.339
  829SOL    HW1  348   0.962   3.390   2.287
  829SOL    HW2  349   1.004   3.338   2.437
  831SOL     OW  350   1.795   2.928   2.735
  831SOL    HW1  351   1.733   2.913   2.659
  831SOL    HW2  352   1.743   2.939   2.820
  834SOL     OW  353   1.458   2.597   2.590
  834SOL    HW1  354   1.453   2.532   2.665
  834SOL    HW2  355   1.538   2.656   2.603
  838SOL     OW  356   1.632   3.239   1.943
  838SOL    HW1  357   1.600   3.333   1.933
  838SOL    HW2  358   1.556   3.176   1.931
  840SOL     OW  359   1.400   1.969   2.288
  840SOL    HW1  360   1.376   1.932   2.198
  840SOL    HW2  361   1.499   1.985   2.292
  844SOL     OW  362   1.547   2.084   3.591
  844SOL    HW1  363   1.542   2.121   3.683
  844SOL    HW2  364   1.475   2.015   3.579
  848SOL     OW  365   1.351   2.452   3.295
  848SOL    HW1  366   1.379   2.409   3.380
  848SOL    HW2  367   1.376   2.548   3.296
  850SOL     OW  368   0.922   2.365   2.761
  850SOL    HW1  369   0.897   2.356   2.665
  850SOL    HW2  370   0.970   2.283   2.792
  852SOL     OW  371   1.434   3.050   1.903
  852SOL    HW1  372   1.466   2.974   1.960
  852SOL    HW2  373   1.342   3.077   1.933
  854SOL     OW  374   0.935   2.098   2.342
  854SOL    HW1  375   0.887   2.139   2.264
  854SOL    HW2  376   1.034   2.096   2.323
  855SOL     OW  377   1.076   2.545   3.326
  855SOL    HW1  378   0.996   2.484   3.329
  855SOL    HW2  379   1.157   2.492   3.302
  856SOL     OW  380   1.227   3.432   2.655
  856SOL    HW1  381   1.248   3.506   2.590
  856SOL    HW2  382   1.295   3.432   2.728
  858SOL     OW  383   1.271   3.659   2.453
  858SOL    HW1  384   1.315   3.723   2.389
  858SOL    HW2  385   1.221   3.711   2.523
  859SOL     OW  386   1.032   2.411   1.878
  859SOL    HW1  387   0.991   2.493   1.839
  859SOL    HW2  388   1.096   2.437   1.951
  862SOL     OW  389   0.866   2.316   2.504
  862SOL    HW1  390   0.834   2.388   2.442
  862SOL    HW2  391   0.890   2.235   2.451
  863SOL     OW  392   1.017   1.901   2.615
  863SOL    HW1  393   0.945   1.906   2.546
  863SOL    HW2  394   0.993   1.832   2.684
  864SOL     OW  395   1.429   3.035   2.729
  864SOL    HW1  396   1.374   2.951   2.722
  864SOL    HW2  397   1.455   3.064   2.637
  865SOL     OW  398   1.466   2.452   2.854
  865SOL    HW1  399   1.436   2.357   2.861
  865SOL    HW2  400   1.539   2.468   2.920
  866SOL     OW  401   1.857   2.695   2.239
  866SOL    HW1  402   1.899   2.631   2.303
  866SOL    HW2  403   1.819   2.644   2.161
  868SOL     OW  404   1.664   3.142   2.519
  868SOL    HW1  405   1.763   3.150   2.533
  868SOL    HW2  406   1.619   3.226   2.550
  869SOL     OW  407   1.390   2.437   1.940
  869SOL    HW1  408   1.336   2.416   2.021
  869SOL    HW2  409   1.481   2.396   1.949
  871SOL     OW  410   1.754   3.085   3.450
  871SOL    HW1  411   1.845   3.046   3.437
  871SOL    HW2  412   1.762   3.181   3.474
  872SOL     OW  413   1.064   3.209   3.202
  872SOL    HW1  414   0.984   3.186   3.257
  872SOL    HW2  415   1.147   3.183   3.251
  873SOL     OW  416   1.592   3.491   3.487
  873SOL    HW1  417   1.619   3.525   3.397
  873SOL    HW2  418   1.671   3.453   3.533
  874SOL     OW  419   1.111   3.057   2.962
  874SOL    HW1  420   1.071   3.101   3.043
  874SOL    HW2  421   1.070   3.094   2.879
  875SOL     OW  422   1.638   2.961   2.941
  875SOL    HW1  423   1.643   3.042   3.000
  875SOL    HW2  424   1.552   2.963   2.890
  880SOL     OW  425   1.274   2.248   3.124
  880SOL    HW1  426   1.295   2.322   3.188
  880SOL    HW2  427   1.185   2.265   3.081
  884SOL     OW  428   1.252   3.210   2.250
  884SOL    HW1  429   1.302   3.287   2.290
  884SOL    HW2  430   1.157   3.212   2.282
  885SOL     OW  431   1.272   3.307   3.004
  885SOL    HW1  432   1.319   3.320   3.091
  885SOL    HW2  433   1.206   3.233   3.013
  886SOL     OW  434   1.582   2.501   2.334
  886SOL    HW1  435   1.551   2.562   2.407
  886SOL    HW2  436   1.632   2.553   2.265
  889SOL     OW  437   1.587   2.641   3.532
  889SOL    HW1  438   1.495   2.679   3.527
  889SOL    HW2  439   1.647   2.688   3.467
  893SOL     OW  440   1.360   2.724   2.907
  893SOL    HW1  441   1.285   2.724   2.841
  893SOL    HW2  442   1.397   2.632   2.916
  894SOL     OW  443   1.209   2.387   2.137
  894SOL    HW1  444   1.222   2.303   2.191
  894SOL    HW2  445   1.180   2.461   2.197
  897SOL     OW  446   0.732   2.496   2.926
  897SOL    HW1  447   0.791   2.470   2.850
  897SOL    HW2  448   0.704   2.592   2.915
  898SOL     OW  449   1.728   2.797   3.716
  898SOL    HW1  450   1.682   2.790   3.627
  898SOL    HW2  451   1.666   2.841   3.782
  900SOL     OW  452   1.622   2.229   2.236
  900SOL    HW1  453   1.624   2.153   2.300
  900SOL    HW2  454   1.574   2.306   2.276
  901SOL     OW  455   1.023   2.628   2.828
  901SOL    HW1  456   1.038   2.649   2.924
  901SOL    HW2  457   0.993   2.533   2.819
  903SOL     OW  458   1.859   3.380   3.467
  903SOL    HW1  459   1.873   3.407   3.372
  903SOL    HW2  460   1.942   3.402   3.520
  905SOL     OW  461   1.540   2.136   1.987
  905SOL    HW1  462   1.479   2.061   2.010
  905SOL    HW2  463   1.562   2.188   2.070
  906SOL     OW  464   1.303   2.700   1.904
  906SOL    HW1  465   1.337   2.607   1.919
  906SOL    HW2  466   1.321   2.727   1.809
  907SOL     OW  467   1.068   3.195   2.711
  907SOL    HW1  468   1.075   3.111   2.656
  907SOL    HW2  469   1.130   3.264   2.675
  910SOL     OW  470   1.138   2.242   3.540
  910SOL    HW1  471   1.093   2.305   3.604
  910SOL    HW2  472   1.231   2.273   3.523
  911SOL     OW  473   1.160   2.069   3.339
  911SOL    HW1  474   1.160   2.133   3.416
  911SOL    HW2  475   1.188   2.117   3.256
  915SOL     OW  476   1.002   2.658   3.100
  915SOL    HW1  477   1.043   2.626   3.186
  915SOL    HW2  478   0.906   2.631   3.097
  918SOL     OW  479   1.369   2.812   3.522
  918SOL    HW1  480   1.408   2.901   3.542
  918SOL    HW2  481   1.379   2.792   3.425
  919SOL     OW  482   0.815   2.434   2.187
  919SOL    HW1  483   0.822   2.345   2.141
  919SOL    HW2  484   0.721   2.468   2.179
  920SOL     OW  485   1.657   2.466   3.068
  920SOL    HW1  486   1.619   2.397   3.130
  920SOL    HW2  487   1.739   2.430   3.024
  926SOL     OW  488   1.347   2.921   3.096
  926SOL    HW1  489   1.371   2.858   3.022
  926SOL    HW2  490   1.257   2.961   3.078
  927SOL     OW  491   1.302   2.717   2.171
  927SOL    HW1  492   1.216   2.686   2.213
  927SOL    HW2  493   1.298   2.703   2.072
  928SOL     OW  494   1.759   3.609   3.016
  928SOL    HW1  495   1.820   3.639   2.943
  928SOL    HW2  496   1.721   3.520   2.994
  929SOL     OW  497   1.252   3.593   2.990
  929SOL    HW1  498   1.336   3.598   2.936
  929SOL    HW2  499   1.229   3.497   3.008
  932SOL     OW  500   1.726   1.997   2.385
  932SOL    HW1  501   1.799   1.980   2.318
  932SOL    HW2  502   1.695   1.910   2.423
  933SOL     OW  503   1.388   3.435   2.339
  933SOL    HW1  504   1.455   3.447   2.265
  933SOL    HW2  505   1.348   3.524   2.362
  935SOL     OW  506   1.280   2.789   2.534
  935SOL    HW1  507   1.340   2.708   2.536
  935SOL    HW2  508   1.320   2.858   2.474
  938SOL     OW  509   1.650   3.582   3.256
  938SOL    HW1  510   1.703   3.592   3.172
  938SOL    HW2  511   1.623   3.672   3.290
  939SOL     OW  512   1.841   2.037   2.825
  939SOL    HW1  513   1.880   1.952   2.789
  939SOL    HW2  514   1.743   2.039   2.806
  941SOL     OW  515   1.194   3.474   1.893
  941SOL    HW1  516   1.200   3.381   1.930
  941SOL    HW2  517   1.135   3.474   1.813
  943SOL     OW  518   0.916   2.772   2.153
  943SOL    HW1  519   0.979   2.810   2.085
  943SOL    HW2  520   0.956   2.689   2.192
  944SOL     OW  521   1.504   3.469   1.906
  944SOL    HW1  522   1.412   3.506   1.913
  944SOL    HW2  523   1.542   3.489   1.816
  946SOL     OW  524   1.614   3.154   3.151
  946SOL    HW1  525   1.674   3.157   3.231
  946SOL    HW2  526   1.539   3.218   3.164
  947SOL     OW  527   1.039   2.960   2.558
  947SOL    HW1  528   0.969   2.913   2.612
  947SOL    HW2  529   1.098   2.892   2.515
  948SOL     OW  530   1.014   2.098   2.833
  948SOL    HW1  531   1.006   2.062   2.740
  948SOL    HW2  532   1.012   2.022   2.898
  950SOL     OW  533   1.709   2.247   3.243
  950SOL    HW1  534   1.782   2.316   3.247
  950SOL    HW2  535   1.737   2.172   3.184
  955SOL     OW  536   1.440   2.718   3.260
  955SOL    HW1  537   1.383   2.770   3.197
  955SOL    HW2  538   1.536   2.730   3.236
  957SOL     OW  539   1.183   3.197   1.981
  957SOL    HW1  540   1.084   3.186   1.983
  957SOL    HW2  541   1.217   3.212   2.074
  959SOL     OW  542   1.493   3.629   2.821
  959SOL    HW1  543   1.526   3.693   2.752
  959SOL    HW2  544   1.559   3.623   2.896
  961SOL     OW  545   1.450   3.082   3.495
  961SOL    HW1  546   1.441   3.072   3.594
  961SOL    HW2  547   1.546   3.075   3.469
  963SOL     OW  548   1.674   2.745   3.116
  963SOL    HW1  549   1.647   2.656   3.079
  963SOL    HW2  550   1.675   2.813   3.043
  964SOL     OW  551   1.225   2.187   2.311
  964SOL    HW1  552   1.290   2.113   2.300
  964SOL    HW2  553   1.245   2.237   2.395
  966SOL     OW  554   1.777   2.204   3.504
  966SOL    HW1  555   1.760   2.235   3.410
  966SOL    HW2  556   1.693   2.167   3.542
  967SOL     OW  557   1.730   2.796   3.379
  967SOL    HW1  558   1.768   2.887   3.394
  967SOL    HW2  559   1.722   2.779   3.280
  970SOL     OW  560   0.859   2.818   2.723
  970SOL    HW1  561   0.913   2.749   2.771
  970SOL    HW2  562   0.827   2.887   2.789
  971SOL     OW  563   1.083   2.846   1.949
  971SOL    HW1  564   1.060   2.899   1.867
  971SOL    HW2  565   1.164   2.790   1.930
  972SOL     OW  566   1.861   3.431   2.713
  972SOL    HW1  567   1.790   3.419   2.643
  972SOL    HW2  568   1.862   3.352   2.773
  976SOL     OW  569   1.824   2.054   3.089
  976SOL    HW1  570   1.820   1.964   3.133
  976SOL    HW2  571   1.827   2.043   2.990
  978SOL     OW  572   1.705   3.349   2.966
  978SOL    HW1  573   1.612   3.324   2.939
  978SOL    HW2  574   1.731   3.299   3.048
  981SOL     OW  575   1.424   2.076   2.974
  981SOL    HW1  576   1.476   2.011   3.029
  981SOL    HW2  577   1.375   2.139   3.035
  982SOL     OW  578   1.001   1.896   3.016
  982SOL    HW1  579   0.938   1.824   2.985
  982SOL    HW2  580   1.094   1.860   3.016
  985SOL     OW  581   1.352   1.914   2.030
  985SOL    HW1  582   1.387   1.873   1.946
  985SOL    HW2  583   1.262   1.876   2.050
  986SOL     OW  584   1.300   2.315   2.553
  986SOL    HW1  585   1.241   2.395   2.557
  986SOL    HW2  586   1.315   2.280   2.646
  987SOL     OW  587   1.593   2.083   2.744
  987SOL    HW1  588   1.509   2.082   2.798
  987SOL    HW2  589   1.595   2.166   2.688
  996SOL     OW  590   1.755   2.469   3.955
  996SOL    HW1  591   1.743   2.456   3.856
  996SOL    HW2  592   1.725   2.388   4.004
 1013SOL     OW  593   1.525   2.861   3.914
 1013SOL    HW1  594   1.462   2.785   3.927
 1013SOL    HW2  595   1.573   2.879   4.000
 1030SOL     OW  596   1.632   3.239   3.805
 1030SOL    HW1  597   1.600   3.333   3.795
 1030SOL    HW2  598   1.556   3.176   3.793
 1040SOL     OW  599   1.434   3.050   3.765
 1040SOL    HW1  600   1.466   2.974   3.822
 1040SOL    HW2  601   1.342   3.077   3.795
 1051SOL     OW  602   1.857   2.695   4.101
 1051SOL    HW1  603   1.899   2.631   4.165
 1051SOL    HW2  604   1.819   2.644   4.023
 1054SOL     OW  605   1.390   2.437   3.802
 1054SOL    HW1  606   1.336   2.416   3.883
 1054SOL    HW2  607   1.481   2.396   3.811
 1072SOL     OW  608   1.540   2.136   3.849
 1072SOL    HW1  609   1.479   2.061   3.872
 1072SOL    HW2  610   1.562   2.188   3.932
 1073SOL     OW  611   1.303   2.700   3.766
 1073SOL    HW1  612   1.337   2.607   3.781
 1073SOL    HW2  613   1.321   2.727   3.671
 1304SOL     OW  614   1.400   3.831   2.288
 1304SOL    HW1  615   1.376   3.794   2.198
 1304SOL    HW2  616   1.499   3.847   2.292
 1368SOL     OW  617   1.726   3.859   2.385
 1368SOL    HW1  618   1.799   3.842   2.318
 1368SOL    HW2  619   1.695   3.772   2.423
 1370SOL     OW  620   1.841   3.899   2.825
 1370SOL    HW1  621   1.880   3.814   2.789
 1370SOL    HW2  622   1.743   3.901   2.806
 1393SOL     OW  623   1.824   3.916   3.089
 1393SOL    HW1  624   1.820   3.826   3.133
 1393SOL    HW2  625   1.827   3.905   2.990
 1399SOL     OW  626   1.352   3.776   2.030
 1399SOL    HW1  627   1.387   3.735   1.946
 1399SOL    HW2  628   1.262   3.738   2.050
 1401SOL     OW  629   1.593   3.945   2.744
 1401SOL    HW1  630   1.509   3.944   2.798
 1401SOL    HW2  631   1.595   4.028   2.688
 1501SOL     OW  632   2.431   1.275   1.165
 1501SOL    HW1  633   2.338   1.268   1.128
 1501SOL    HW2  634   2.442   1.364   1.209
 1508SOL     OW  635   2.548   1.161   1.803
 1508SOL    HW1  636   2.608   1.240   1.817
 1508SOL    HW2  637   2.462   1.192   1.762
 1509SOL     OW  638   2.197   1.435   1.061
 1509SOL    HW1  639   2.119   1.404   1.008
 1509SOL    HW2  640   2.255   1.493   1.004
 1510SOL     OW  641   3.322   1.505   1.339
 1510SOL    HW1  642   3.346   1.599   1.365
 1510SOL    HW2  643   3.306   1.451   1.421
 1514SOL     OW  644   2.989   1.341   1.690
 1514SOL    HW1  645   3.036   1.341   1.778
 1514SOL    HW2  646   2.941   1.254   1.679
 1517SOL     OW  647   2.482   1.786   1.439
 1517SOL    HW1  648   2.390   1.769   1.474
 1517SOL    HW2  649   2.510   1.878   1.465
 1527SOL     OW  650   3.155   1.228   1.423
 1527SOL    HW1  651   3.192   1.155   1.365
 1527SOL    HW2  652   3.207   1.233   1.508
 1531SOL     OW  653   3.049   1.792   1.616
 1531SOL    HW1  654   3.073   1.852   1.540
 1531SOL    HW2  655   3.056   1.697   1.586
 1544SOL     OW  656   1.992   1.821   1.571
 1544SOL    HW1  657   1.982   1.806   1.670
 1544SOL    HW2  658   1.906   1.857   1.535
 1550SOL     OW  659   2.213   1.801   0.853
 1550SOL    HW1  660   2.263   1.715   0.859
 1550SOL    HW2  661   2.278   1.878   0.850
 1552SOL     OW  662   3.089   1.550   1.506
 1552SOL    HW1  663   3.095   1.473   1.570
 1552SOL    HW2  664   3.037   1.524   1.426
 1555SOL     OW  665   2.323   1.266   1.727
 1555SOL    HW1  666   2.273   1.267   1.641
 1555SOL    HW2  667   2.260   1.248   1.803
 1561SOL     OW  668   2.111   1.785   1.241
 1561SOL    HW1  669   2.168   1.720   1.291
 1561SOL    HW2  670   2.095   1.752   1.148
 1562SOL     OW  671   2.802   1.698   0.904
 1562SOL    HW1  672   2.882   1.641   0.925
 1562SOL    HW2  673   2.753   1.658   0.827
 1567SOL     OW  674   2.750   1.514   1.195
 1567SOL    HW1  675   2.727   1.489   1.101
 1567SOL    HW2  676   2.811   1.445   1.234
 1592SOL     OW  677   2.926   1.347   1.340
 1592SOL    HW1  678   2.846   1.324   1.395
 1592SOL    HW2  679   3.009   1.321   1.389
 1593SOL     OW  680   3.454   1.629   1.625
 1593SOL    HW1  681   3.481   1.663   1.535
 1593SOL    HW2  682   3.533   1.591   1.671
 1597SOL     OW  683   2.842   1.116   1.719
 1597SOL    HW1  684   2.743   1.122   1.729
 1597SOL    HW2  685   2.865   1.036   1.663
 1601SOL     OW  686   1.926   1.564   1.331
 1601SOL    HW1  687   1.880   1.646   1.297
 1601SOL    HW2  688   2.024   1.583   1.340
 1607SOL     OW  689   2.216   1.510   1.329
 1607SOL    HW1  690   2.195   1.466   1.242
 1607SOL    HW2  691   2.313   1.536   1.332
 1616SOL     OW  692   1.899   1.310   1.282
 1616SOL    HW1  693   1.952   1.261   1.350
 1616SOL    HW2  694   1.921   1.408   1.287
 1622SOL     OW  695   2.842   1.573   1.700
 1622SOL    HW1  696   2.822   1.617   1.612
 1622SOL    HW2  697   2.881   1.482   1.684
 1623SOL     OW  698   3.721   1.518   1.605
 1623SOL    HW1  699   3.735   1.545   1.510
 1623SOL    HW2  700   3.804   1.540   1.658
 1624SOL     OW  701   2.212   0.898   1.804
 1624SOL    HW1  702   2.288   0.942   1.852
 1624SOL    HW2  703   2.247   0.851   1.722
 1633SOL     OW  704   1.950   1.801   0.927
 1633SOL    HW1  705   1.908   1.715   0.900
 1633SOL    HW2  706   2.044   1.804   0.893
 1641SOL     OW  707   2.114   1.564   1.744
 1641SOL    HW1  708   2.084   1.621   1.820
 1641SOL    HW2  709   2.107   1.467   1.770
 1643SOL     OW  710   2.792   1.678   1.465
 1643SOL    HW1  711   2.768   1.660   1.370
 1643SOL    HW2  712   2.822   1.772   1.475
 1645SOL     OW  713   2.021   1.137   1.466
 1645SOL    HW1  714   2.043   1.076   1.542
 1645SOL    HW2  715   2.031   1.088   1.380
 1649SOL     OW  716   3.114   1.731   1.128
 1649SOL    HW1  717   3.198   1.736   1.074
 1649SOL    HW2  718   3.091   1.635   1.146
 1651SOL     OW  719   2.550   1.662   1.716
 1651SOL    HW1  720   2.494   1.743   1.725
 1651SOL    HW2  721   2.602   1.666   1.630
 1655SOL     OW  722   1.992   1.794   1.851
 1655SOL    HW1  723   1.951   1.720   1.904
 1655SOL    HW2  724   2.056   1.845   1.909
 1657SOL     OW  725   2.692   1.273   1.422
 1657SOL    HW1  726   2.687   1.306   1.517
 1657SOL    HW2  727   2.606   1.292   1.376
 1659SOL     OW  728   3.512   1.720   1.394
 1659SOL    HW1  729   3.565   1.730   1.310
 1659SOL    HW2  730   3.485   1.810   1.428
 1666SOL     OW  731   2.234   1.288   1.490
 1666SOL    HW1  732   2.221   1.381   1.456
 1666SOL    HW2  733   2.150   1.236   1.477
 1673SOL     OW  734   1.967   1.013   1.726
 1673SOL    HW1  735   1.890   0.980   1.780
 1673SOL    HW2  736   2.052   0.983   1.768
 1681SOL     OW  737   3.312   1.220   1.633
 1681SOL    HW1  738   3.303   1.210   1.732
 1681SOL    HW2  739   3.408   1.213   1.607
 1682SOL     OW  740   2.252   1.741   1.560
 1682SOL    HW1  741   2.161   1.782   1.558
 1682SOL    HW2  742   2.245   1.647   1.592
 1689SOL     OW  743   2.523   1.790   0.953
 1689SOL    HW1  744   2.477   1.878   0.940
 1689SOL    HW2  745   2.622   1.802   0.946
 1693SOL     OW  746   2.083   1.314   1.844
 1693SOL    HW1  747   2.018   1.241   1.823
 1693SOL    HW2  748   2.087   1.328   1.942
 1695SOL     OW  749   2.534   1.391   1.624
 1695SOL    HW1  750   2.456   1.341   1.662
 1695SOL    HW2  751   2.531   1.486   1.655
 1704SOL     OW  752   2.480   1.567   1.284
 1704SOL    HW1  753   2.475   1.649   1.341
 1704SOL    HW2  754   2.569   1.564   1.239
 1713SOL     OW  755   2.431   1.275   3.027
 1713SOL    HW1  756   2.338   1.268   2.990
 1713SOL    HW2  757   2.442   1.364   3.071
 1714SOL     OW  758   3.417   1.511   2.565
 1714SOL    HW1  759   3.360   1.495   2.646
 1714SOL    HW2  760   3.358   1.521   2.485
 1717SOL     OW  761   2.630   1.144   2.885
 1717SOL    HW1  762   2.552   1.161   2.945
 1717SOL    HW2  763   2.664   1.231   2.849
 1719SOL     OW  764   2.547   1.012   2.527
 1719SOL    HW1  765   2.616   0.996   2.597
 1719SOL    HW2  766   2.474   1.069   2.565
 1720SOL     OW  767   2.548   1.161   3.665
 1720SOL    HW1  768   2.608   1.240   3.679
 1720SOL    HW2  769   2.462   1.192   3.624
 1721SOL     OW  770   2.197   1.435   2.923
 1721SOL    HW1  771   2.119   1.404   2.870
 1721SOL    HW2  772   2.255   1.493   2.866
 1722SOL     OW  773   3.322   1.505   3.201
 1722SOL    HW1  774   3.346   1.599   3.227
 1722SOL    HW2  775   3.306   1.451   3.283
 1725SOL     OW  776   2.093   1.713   2.345
 1725SOL    HW1  777   2.127   1.790   2.399
 1725SOL    HW2  778   2.137   1.713   2.255
 1726SOL     OW  779   2.989   1.341   3.552
 1726SOL    HW1  780   3.036   1.341   3.640
 1726SOL    HW2  781   2.941   1.254   3.541
 1727SOL     OW  782   2.092   1.434   2.400
 1727SOL    HW1  783   2.066   1.530   2.400
 1727SOL    HW2  784   2.021   1.380   2.445
 1728SOL     OW  785   2.102   1.091   2.748
 1728SOL    HW1  786   2.116   1.007   2.800
 1728SOL    HW2  787   2.047   1.155   2.803
 1729SOL     OW  788   2.482   1.786   3.301
 1729SOL    HW1  789   2.390   1.769   3.336
 1729SOL    HW2  790   2.510   1.878   3.327
 1730SOL     OW  791   2.468   0.964   1.985
 1730SOL    HW1  792   2.475   1.048   1.931
 1730SOL    HW2  793   2.514   0.977   2.073
 1733SOL     OW  794   3.704   1.767   2.221
 1733SOL    HW1  795   3.758   1.738   2.301
 1733SOL    HW2  796   3.734   1.857   2.192
 1734SOL     OW  797   1.889   1.596   1.979
 1734SOL    HW1  798   1.870   1.500   2.000
 1734SOL    HW2  799   1.856   1.654   2.054
 1736SOL     OW  800   3.503   1.108   2.294
 1736SOL    HW1  801   3.589   1.110   2.242
 1736SOL    HW2  802   3.517   1.155   2.382
 1738SOL     OW  803   2.475   1.365   2.588
 1738SOL    HW1  804   2.426   1.278   2.597
 1738SOL    HW2  805   2.452   1.408   2.501
 1739SOL     OW  806   3.155   1.228   3.285
 1739SOL    HW1  807   3.192   1.155   3.227
 1739SOL    HW2  808   3.207   1.233   3.370
 1741SOL     OW  809   2.059   0.976   3.126
 1741SOL    HW1  810   2.148   0.931   3.112
 1741SOL    HW2  811   1.986   0.911   3.107
 1742SOL     OW  812   3.387   0.999   2.052
 1742SOL    HW1  813   3.324   0.923   2.065
 1742SOL    HW2  814   3.435   1.017   2.138
 1743SOL     OW  815   3.049   1.792   3.478
 1743SOL    HW1  816   3.073   1.852   3.402
 1743SOL    HW2  817   3.056   1.697   3.448
 1745SOL     OW  818   3.328   1.417   2.815
 1745SOL    HW1  819   3.269   1.423   2.895
 1745SOL    HW2  820   3.313   1.329   2.769
 1746SOL     OW  821   3.529   1.714   2.434
 1746SOL    HW1  822   3.488   1.691   2.346
 1746SOL    HW2  823   3.511   1.640   2.499
 1747SOL     OW  824   2.460   0.729   2.132
 1747SOL    HW1  825   2.484   0.798   2.064
 1747SOL    HW2  826   2.382   0.762   2.186
 1749SOL     OW  827   3.438   1.662   2.169
 1749SOL    HW1  828   3.527   1.708   2.172
 1749SOL    HW2  829   3.417   1.638   2.074
 1755SOL     OW  830   1.938   0.811   2.651
 1755SOL    HW1  831   2.037   0.799   2.660
 1755SOL    HW2  832   1.914   0.906   2.672
 1756SOL     OW  833   1.992   1.821   3.433
 1756SOL    HW1  834   1.982   1.806   3.532
 1756SOL    HW2  835   1.906   1.857   3.397
 1759SOL     OW  836   3.224   1.144   2.407
 1759SOL    HW1  837   3.307   1.115   2.359
 1759SOL    HW2  838   3.175   1.211   2.351
 1761SOL     OW  839   2.870   1.456   2.339
 1761SOL    HW1  840   2.824   1.528   2.287
 1761SOL    HW2  841   2.866   1.476   2.437
 1762SOL     OW  842   2.213   1.801   2.715
 1762SOL    HW1  843   2.263   1.715   2.721
 1762SOL    HW2  844   2.278   1.878   2.712
 1764SOL     OW  845   3.089   1.550   3.368
 1764SOL    HW1  846   3.095   1.473   3.432
 1764SOL    HW2  847   3.037   1.524   3.288
 1765SOL     OW  848   2.183   0.943   2.104
 1765SOL    HW1  849   2.265   0.982   2.062
 1765SOL    HW2  850   2.156   0.861   2.055
 1767SOL     OW  851   2.323   1.266   3.589
 1767SOL    HW1  852   2.273   1.267   3.503
 1767SOL    HW2  853   2.260   1.248   3.665
 1768SOL     OW  854   2.973   1.776   2.099
 1768SOL    HW1  855   2.913   1.714   2.149
 1768SOL    HW2  856   3.004   1.732   2.014
 1770SOL     OW  857   3.494   1.377   1.943
 1770SOL    HW1  858   3.462   1.471   1.933
 1770SOL    HW2  859   3.418   1.314   1.931
 1771SOL     OW  860   2.326   1.743   2.185
 1771SOL    HW1  861   2.359   1.782   2.271
 1771SOL    HW2  862   2.402   1.736   2.120
 1773SOL     OW  863   2.111   1.785   3.103
 1773SOL    HW1  864   2.168   1.720   3.153
 1773SOL    HW2  865   2.095   1.752   3.010
 1774SOL     OW  866   2.802   1.698   2.766
 1774SOL    HW1  867   2.882   1.641   2.787
 1774SOL    HW2  868   2.753   1.658   2.689
 1775SOL     OW  869   2.244   0.700   2.342
 1775SOL    HW1  870   2.289   0.610   2.339
 1775SOL    HW2  871   2.150   0.689   2.375
 1779SOL     OW  872   2.750   1.514   3.057
 1779SOL    HW1  873   2.727   1.489   2.963
 1779SOL    HW2  874   2.811   1.445   3.096
 1781SOL     OW  875   2.665   1.402   2.786
 1781SOL    HW1  876   2.755   1.416   2.744
 1781SOL    HW2  877   2.594   1.404   2.715
 1784SOL     OW  878   3.296   1.188   1.903
 1784SOL    HW1  879   3.328   1.112   1.960
 1784SOL    HW2  880   3.204   1.215   1.933
 1788SOL     OW  881   3.089   1.570   2.655
 1788SOL    HW1  882   3.110   1.644   2.590
 1788SOL    HW2  883   3.157   1.570   2.728
 1789SOL     OW  884   2.321   1.152   2.603
 1789SOL    HW1  885   2.250   1.125   2.668
 1789SOL    HW2  886   2.295   1.124   2.510
 1790SOL     OW  887   3.133   1.797   2.453
 1790SOL    HW1  888   3.177   1.861   2.389
 1790SOL    HW2  889   3.083   1.849   2.523
 1796SOL     OW  890   3.291   1.173   2.729
 1796SOL    HW1  891   3.236   1.089   2.722
 1796SOL    HW2  892   3.317   1.202   2.637
 1799SOL     OW  893   2.350   1.385   2.036
 1799SOL    HW1  894   2.263   1.370   2.083
 1799SOL    HW2  895   2.333   1.411   1.941
 1800SOL     OW  896   3.526   1.280   2.519
 1800SOL    HW1  897   3.625   1.288   2.533
 1800SOL    HW2  898   3.481   1.364   2.550
 1804SOL     OW  899   2.926   1.347   3.202
 1804SOL    HW1  900   2.846   1.324   3.257
 1804SOL    HW2  901   3.009   1.321   3.251
 1805SOL     OW  902   3.454   1.629   3.487
 1805SOL    HW1  903   3.481   1.663   3.397
 1805SOL    HW2  904   3.533   1.591   3.533
 1806SOL     OW  905   2.973   1.195   2.962
 1806SOL    HW1  906   2.933   1.239   3.043
 1806SOL    HW2  907   2.932   1.232   2.879
 1807SOL     OW  908   3.500   1.099   2.941
 1807SOL    HW1  909   3.505   1.180   3.000
 1807SOL    HW2  910   3.414   1.101   2.890
 1809SOL     OW  911   2.842   1.116   3.581
 1809SOL    HW1  912   2.743   1.122   3.591
 1809SOL    HW2  913   2.865   1.036   3.525
 1810SOL     OW  914   2.567   1.050   2.230
 1810SOL    HW1  915   2.553   1.057   2.329
 1810SOL    HW2  916   2.651   0.999   2.212
 1811SOL     OW  917   2.272   0.813   3.113
 1811SOL    HW1  918   2.358   0.825   3.163
 1811SOL    HW2  919   2.230   0.726   3.140
 1813SOL     OW  920   1.926   1.564   3.193
 1813SOL    HW1  921   1.880   1.646   3.159
 1813SOL    HW2  922   2.024   1.583   3.202
 1814SOL     OW  923   2.229   1.100   2.363
 1814SOL    HW1  924   2.222   1.183   2.307
 1814SOL    HW2  925   2.233   1.020   2.303
 1816SOL     OW  926   3.114   1.348   2.250
 1816SOL    HW1  927   3.164   1.425   2.290
 1816SOL    HW2  928   3.019   1.350   2.282
 1817SOL     OW  929   3.134   1.445   3.004
 1817SOL    HW1  930   3.181   1.458   3.091
 1817SOL    HW2  931   3.068   1.371   3.013
 1819SOL     OW  932   2.216   1.510   3.191
 1819SOL    HW1  933   2.195   1.466   3.104
 1819SOL    HW2  934   2.313   1.536   3.194
 1824SOL     OW  935   2.435   0.870   2.891
 1824SOL    HW1  936   2.479   0.959   2.882
 1824SOL    HW2  937   2.372   0.870   2.968
 1828SOL     OW  938   1.899   1.310   3.144
 1828SOL    HW1  939   1.952   1.261   3.212
 1828SOL    HW2  940   1.921   1.408   3.149
 1833SOL     OW  941   2.885   0.766   2.828
 1833SOL    HW1  942   2.900   0.787   2.924
 1833SOL    HW2  943   2.855   0.671   2.819
 1834SOL     OW  944   2.842   1.573   3.562
 1834SOL    HW1  945   2.822   1.617   3.474
 1834SOL    HW2  946   2.881   1.482   3.546
 1839SOL     OW  947   2.930   1.333   2.711
 1839SOL    HW1  948   2.937   1.249   2.656
 1839SOL    HW2  949   2.992   1.402   2.675
 1840SOL     OW  950   2.181   0.810   2.811
 1840SOL    HW1  951   2.274   0.846   2.816
 1840SOL    HW2  952   2.175   0.725   2.863
 1844SOL     OW  953   1.870   1.326   2.062
 1844SOL    HW1  954   1.777   1.347   2.031
 1844SOL    HW2  955   1.880   1.227   2.075
 1845SOL     OW  956   1.950   1.801   2.789
 1845SOL    HW1  957   1.908   1.715   2.762
 1845SOL    HW2  958   2.044   1.804   2.755
 1846SOL     OW  959   2.366   1.568   2.772
 1846SOL    HW1  960   2.432   1.642   2.781
 1846SOL    HW2  961   2.410   1.489   2.730
 1853SOL     OW  962   2.114   1.564   3.606
 1853SOL    HW1  963   2.084   1.621   3.682
 1853SOL    HW2  964   2.107   1.467   3.632
 1855SOL     OW  965   2.792   1.678   3.327
 1855SOL    HW1  966   2.768   1.660   3.232
 1855SOL    HW2  967   2.822   1.772   3.337
 1857SOL     OW  968   2.021   1.137   3.328
 1857SOL    HW1  969   2.043   1.076   3.404
 1857SOL    HW2  970   2.031   1.088   3.242
 1858SOL     OW  971   3.209   1.059   3.096
 1858SOL    HW1  972   3.233   0.996   3.022
 1858SOL    HW2  973   3.119   1.099   3.078
 1859SOL     OW  974   3.164   0.855   2.171
 1859SOL    HW1  975   3.078   0.824   2.213
 1859SOL    HW2  976   3.160   0.841   2.072
 1860SOL     OW  977   3.621   1.747   3.016
 1860SOL    HW1  978   3.682   1.777   2.943
 1860SOL    HW2  979   3.583   1.658   2.994
 1861SOL     OW  980   3.114   1.731   2.990
 1861SOL    HW1  981   3.198   1.736   2.936
 1861SOL    HW2  982   3.091   1.635   3.008
 1862SOL     OW  983   1.945   1.258   2.884
 1862SOL    HW1  984   1.940   1.257   2.984
 1862SOL    HW2  985   1.862   1.217   2.846
 1863SOL     OW  986   2.550   1.662   3.578
 1863SOL    HW1  987   2.494   1.743   3.587
 1863SOL    HW2  988   2.602   1.666   3.492
 1865SOL     OW  989   3.250   1.573   2.339
 1865SOL    HW1  990   3.317   1.585   2.265
 1865SOL    HW2  991   3.210   1.662   2.362
 1866SOL     OW  992   1.992   1.794   3.713
 1866SOL    HW1  993   1.951   1.720   3.766
 1866SOL    HW2  994   2.056   1.845   3.771
 1867SOL     OW  995   3.142   0.927   2.534
 1867SOL    HW1  996   3.202   0.846   2.536
 1867SOL    HW2  997   3.182   0.996   2.474
 1868SOL     OW  998   2.692   1.273   3.284
 1868SOL    HW1  999   2.687   1.306   3.379
 1868SOL    HW2 1000   2.606   1.292   3.238
 1869SOL     OW 1001   2.534   1.616   2.016
 1869SOL    HW1 1002   2.543   1.626   1.917
 1869SOL    HW2 1003   2.494   1.527   2.037
 1870SOL     OW 1004   3.512   1.720   3.256
 1870SOL    HW1 1005   3.565   1.730   3.172
 1870SOL    HW2 1006   3.485   1.810   3.290
 1873SOL     OW 1007   3.056   1.612   1.893
 1873SOL    HW1 1008   3.062   1.519   1.930
 1873SOL    HW2 1009   2.997   1.612   1.813
 1874SOL     OW 1010   2.684   1.002   3.234
 1874SOL    HW1 1011   2.724   1.001   3.142
 1874SOL    HW2 1012   2.694   1.094   3.274
 1875SOL     OW 1013   2.778   0.910   2.153
 1875SOL    HW1 1014   2.841   0.948   2.085
 1875SOL    HW2 1015   2.818   0.827   2.192
 1876SOL     OW 1016   3.366   1.607   1.906
 1876SOL    HW1 1017   3.274   1.644   1.913
 1876SOL    HW2 1018   3.404   1.627   1.816
 1877SOL     OW 1019   2.234   1.288   3.352
 1877SOL    HW1 1020   2.221   1.381   3.318
 1877SOL    HW2 1021   2.150   1.236   3.339
 1878SOL     OW 1022   3.476   1.292   3.151
 1878SOL    HW1 1023   3.536   1.295   3.231
 1878SOL    HW2 1024   3.401   1.356   3.164
 1879SOL     OW 1025   2.901   1.098   2.558
 1879SOL    HW1 1026   2.831   1.051   2.612
 1879SOL    HW2 1027   2.960   1.030   2.515
 1881SOL     OW 1028   2.452   1.487   2.353
 1881SOL    HW1 1029   2.494   1.429   2.283
 1881SOL    HW2 1030   2.408   1.566   2.309
 1883SOL     OW 1031   2.117   1.348   2.152
 1883SOL    HW1 1032   2.021   1.349   2.125
 1883SOL    HW2 1033   2.129   1.401   2.236
 1889SOL     OW 1034   3.045   1.335   1.981
 1889SOL    HW1 1035   2.946   1.324   1.983
 1889SOL    HW2 1036   3.079   1.350   2.074
 1891SOL     OW 1037   3.355   1.767   2.821
 1891SOL    HW1 1038   3.388   1.831   2.752
 1891SOL    HW2 1039   3.421   1.761   2.896
 1894SOL     OW 1040   2.252   1.741   3.422
 1894SOL    HW1 1041   2.161   1.782   3.420
 1894SOL    HW2 1042   2.245   1.647   3.454
 1897SOL     OW 1043   2.456   0.745   2.514
 1897SOL    HW1 1044   2.506   0.830   2.495
 1897SOL    HW2 1045   2.368   0.747   2.466
 1900SOL     OW 1046   2.721   1.374   1.878
 1900SOL    HW1 1047   2.675   1.389   1.966
 1900SOL    HW2 1048   2.765   1.459   1.848
 1901SOL     OW 1049   2.523   1.790   2.815
 1901SOL    HW1 1050   2.477   1.878   2.802
 1901SOL    HW2 1051   2.622   1.802   2.808
 1902SOL     OW 1052   2.721   0.956   2.723
 1902SOL    HW1 1053   2.775   0.887   2.771
 1902SOL    HW2 1054   2.689   1.025   2.789
 1903SOL     OW 1055   2.945   0.984   1.949
 1903SOL    HW1 1056   2.922   1.037   1.867
 1903SOL    HW2 1057   3.026   0.928   1.930
 1904SOL     OW 1058   3.723   1.569   2.713
 1904SOL    HW1 1059   3.652   1.557   2.643
 1904SOL    HW2 1060   3.724   1.490   2.773
 1905SOL     OW 1061   2.083   1.314   3.706
 1905SOL    HW1 1062   2.018   1.241   3.685
 1905SOL    HW2 1063   2.087   1.328   3.804
 1906SOL     OW 1064   1.941   1.240   2.515
 1906SOL    HW1 1065   1.940   1.193   2.603
 1906SOL    HW2 1066   2.023   1.212   2.464
 1907SOL     OW 1067   2.534   1.391   3.486
 1907SOL    HW1 1068   2.456   1.341   3.524
 1907SOL    HW2 1069   2.531   1.486   3.517
 1910SOL     OW 1070   3.567   1.487   2.966
 1910SOL    HW1 1071   3.474   1.462   2.939
 1910SOL    HW2 1072   3.593   1.437   3.048
 1912SOL     OW 1073   2.674   1.586   2.549
 1912SOL    HW1 1074   2.706   1.596   2.455
 1912SOL    HW2 1075   2.595   1.524   2.551
 1915SOL     OW 1076   2.632   1.330   2.163
 1915SOL    HW1 1077   2.586   1.243   2.180
 1915SOL    HW2 1078   2.723   1.327   2.204
 1916SOL     OW 1079   2.480   1.567   3.146
 1916SOL    HW1 1080   2.475   1.649   3.203
 1916SOL    HW2 1081   2.569   1.564   3.101
 1920SOL     OW 1082   1.901   1.077   2.162
 1920SOL    HW1 1083   2.000   1.066   2.153
 1920SOL    HW2 1084   1.861   0.991   2.194
 1921SOL     OW 1085   2.737   1.646   2.199
 1921SOL    HW1 1086   2.660   1.611   2.145
 1921SOL    HW2 1087   2.705   1.717   2.261
 1939SOL     OW 1088   1.889   1.596   3.841
 1939SOL    HW1 1089   1.870   1.500   3.862
 1939SOL    HW2 1090   1.856   1.654   3.916
 1961SOL     OW 1091   2.973   1.776   3.961
 1961SOL    HW1 1092   2.913   1.714   4.011
 1961SOL    HW2 1093   3.004   1.732   3.876
 1963SOL     OW 1094   2.326   1.743   4.047
 1963SOL    HW1 1095   2.359   1.782   4.133
 1963SOL    HW2 1096   2.402   1.736   3.982
 1984SOL     OW 1097   2.350   1.385   3.898
 1984SOL    HW1 1098   2.263   1.370   3.945
 1984SOL    HW2 1099   2.333   1.411   3.803
 2024SOL     OW 1100   2.534   1.616   3.878
 2024SOL    HW1 1101   2.543   1.626   3.779
 2024SOL    HW2 1102   2.494   1.527   3.899
 2027SOL     OW 1103   3.056   1.612   3.755
 2027SOL    HW1 1104   3.062   1.519   3.792
 2027SOL    HW2 1105   2.997   1.612   3.675
 2030SOL     OW 1106   3.366   1.607   3.768
 2030SOL    HW1 1107   3.274   1.644   3.775
 2030SOL    HW2 1108   3.404   1.627   3.678
 2043SOL     OW 1109   2.721   1.374   3.740
 2043SOL    HW1 1110   2.675   1.389   3.828
 2043SOL    HW2 1111   2.765   1.459   3.710
 2061SOL     OW 1112   2.087   2.137   0.996
 2061SOL    HW1 1113   2.122   2.120   1.088
 2061SOL    HW2 1114   1.999   2.092   0.984
 2063SOL     OW 1115   2.431   3.137   1.165
 2063SOL    HW1 1116   2.338   3.130   1.128
 2063SOL    HW2 1117   2.442   3.226   1.209
 2067SOL     OW 1118   2.630   3.006   1.023
 2067SOL    HW1 1119   2.552   3.023   1.083
 2067SOL    HW2 1120   2.664   3.093   0.987
 2068SOL     OW 1121   2.712   2.660   1.823
 2068SOL    HW1 1122   2.708   2.736   1.888
 2068SOL    HW2 1123   2.734   2.696   1.732
 2070SOL     OW 1124   2.548   3.023   1.803
 2070SOL    HW1 1125   2.608   3.102   1.817
 2070SOL    HW2 1126   2.462   3.054   1.762
 2071SOL     OW 1127   2.197   3.297   1.061
 2071SOL    HW1 1128   2.119   3.266   1.008
 2071SOL    HW2 1129   2.255   3.355   1.004
 2072SOL     OW 1130   3.322   3.367   1.339
 2072SOL    HW1 1131   3.346   3.461   1.365
 2072SOL    HW2 1132   3.306   3.313   1.421
 2073SOL     OW 1133   2.300   2.254   1.499
 2073SOL    HW1 1134   2.382   2.198   1.508
 2073SOL    HW2 1135   2.219   2.196   1.503
 2076SOL     OW 1136   2.989   3.203   1.690
 2076SOL    HW1 1137   3.036   3.203   1.778
 2076SOL    HW2 1138   2.941   3.116   1.679
 2078SOL     OW 1139   2.102   2.953   0.886
 2078SOL    HW1 1140   2.116   2.869   0.938
 2078SOL    HW2 1141   2.047   3.017   0.941
 2079SOL     OW 1142   2.482   3.648   1.439
 2079SOL    HW1 1143   2.390   3.631   1.474
 2079SOL    HW2 1144   2.510   3.740   1.465
 2081SOL     OW 1145   3.456   1.976   1.480
 2081SOL    HW1 1146   3.438   2.043   1.408
 2081SOL    HW2 1147   3.453   2.022   1.569
 2087SOL     OW 1148   1.975   2.599   1.597
 2087SOL    HW1 1149   2.063   2.586   1.642
 2087SOL    HW2 1150   1.962   2.696   1.575
 2089SOL     OW 1151   3.155   3.090   1.423
 2089SOL    HW1 1152   3.192   3.017   1.365
 2089SOL    HW2 1153   3.207   3.095   1.508
 2091SOL     OW 1154   2.059   2.838   1.264
 2091SOL    HW1 1155   2.148   2.793   1.250
 2091SOL    HW2 1156   1.986   2.773   1.245
 2093SOL     OW 1157   3.049   3.654   1.616
 2093SOL    HW1 1158   3.073   3.714   1.540
 2093SOL    HW2 1159   3.056   3.559   1.586
 2094SOL     OW 1160   2.179   2.113   1.801
 2094SOL    HW1 1161   2.250   2.184   1.807
 2094SOL    HW2 1162   2.091   2.152   1.829
 2098SOL     OW 1163   3.143   2.207   0.944
 2098SOL    HW1 1164   3.057   2.157   0.931
 2098SOL    HW2 1165   3.205   2.153   1.000
 2100SOL     OW 1166   2.669   2.467   1.465
 2100SOL    HW1 1167   2.622   2.464   1.554
 2100SOL    HW2 1168   2.618   2.412   1.399
 2101SOL     OW 1169   3.256   2.331   1.674
 2101SOL    HW1 1170   3.236   2.374   1.762
 2101SOL    HW2 1171   3.334   2.269   1.683
 2102SOL     OW 1172   2.835   2.752   1.572
 2102SOL    HW1 1173   2.881   2.668   1.543
 2102SOL    HW2 1174   2.779   2.786   1.497
 2103SOL     OW 1175   2.853   2.272   1.242
 2103SOL    HW1 1176   2.776   2.306   1.296
 2103SOL    HW2 1177   2.819   2.221   1.163
 2105SOL     OW 1178   1.938   2.673   0.789
 2105SOL    HW1 1179   2.037   2.661   0.798
 2105SOL    HW2 1180   1.914   2.768   0.810
 2106SOL     OW 1181   1.992   3.683   1.571
 2106SOL    HW1 1182   1.982   3.668   1.670
 2106SOL    HW2 1183   1.906   3.719   1.535
 2108SOL     OW 1184   3.581   2.447   1.831
 2108SOL    HW1 1185   3.555   2.536   1.795
 2108SOL    HW2 1186   3.579   2.379   1.758
 2110SOL     OW 1187   2.412   2.058   0.885
 2110SOL    HW1 1188   2.407   2.053   0.985
 2110SOL    HW2 1189   2.414   2.154   0.856
 2114SOL     OW 1190   3.089   3.412   1.506
 2114SOL    HW1 1191   3.095   3.335   1.570
 2114SOL    HW2 1192   3.037   3.386   1.426
 2117SOL     OW 1193   2.323   3.128   1.727
 2117SOL    HW1 1194   2.273   3.129   1.641
 2117SOL    HW2 1195   2.260   3.110   1.803
 2119SOL     OW 1196   2.064   2.147   1.498
 2119SOL    HW1 1197   1.984   2.207   1.485
 2119SOL    HW2 1198   2.054   2.098   1.584
 2123SOL     OW 1199   2.111   3.647   1.241
 2123SOL    HW1 1200   2.168   3.582   1.291
 2123SOL    HW2 1201   2.095   3.614   1.148
 2126SOL     OW 1202   3.409   2.084   1.729
 2126SOL    HW1 1203   3.404   2.121   1.821
 2126SOL    HW2 1204   3.337   2.015   1.717
 2128SOL     OW 1205   2.643   2.126   1.749
 2128SOL    HW1 1206   2.710   2.065   1.792
 2128SOL    HW2 1207   2.570   2.145   1.814
 2129SOL     OW 1208   2.750   3.376   1.195
 2129SOL    HW1 1209   2.727   3.351   1.101
 2129SOL    HW2 1210   2.811   3.307   1.234
 2130SOL     OW 1211   3.213   2.452   1.433
 2130SOL    HW1 1212   3.241   2.409   1.518
 2130SOL    HW2 1213   3.238   2.548   1.434
 2131SOL     OW 1214   2.665   3.264   0.924
 2131SOL    HW1 1215   2.755   3.278   0.882
 2131SOL    HW2 1216   2.594   3.266   0.853
 2132SOL     OW 1217   2.784   2.365   0.899
 2132SOL    HW1 1218   2.759   2.356   0.803
 2132SOL    HW2 1219   2.832   2.283   0.930
 2137SOL     OW 1220   2.938   2.545   1.464
 2137SOL    HW1 1221   2.858   2.484   1.467
 2137SOL    HW2 1222   3.019   2.492   1.440
 2142SOL     OW 1223   1.940   2.418   1.386
 2142SOL    HW1 1224   2.032   2.417   1.345
 2142SOL    HW2 1225   1.934   2.492   1.453
 2143SOL     OW 1226   2.423   2.084   1.147
 2143SOL    HW1 1227   2.461   2.000   1.184
 2143SOL    HW2 1228   2.335   2.103   1.191
 2147SOL     OW 1229   3.328   2.452   0.992
 2147SOL    HW1 1230   3.298   2.357   0.999
 2147SOL    HW2 1231   3.401   2.468   1.058
 2153SOL     OW 1232   3.616   3.085   1.588
 2153SOL    HW1 1233   3.707   3.046   1.575
 2153SOL    HW2 1234   3.624   3.181   1.612
 2154SOL     OW 1235   2.926   3.209   1.340
 2154SOL    HW1 1236   2.846   3.186   1.395
 2154SOL    HW2 1237   3.009   3.183   1.389
 2155SOL     OW 1238   3.454   3.491   1.625
 2155SOL    HW1 1239   3.481   3.525   1.535
 2155SOL    HW2 1240   3.533   3.453   1.671
 2156SOL     OW 1241   2.973   3.057   1.100
 2156SOL    HW1 1242   2.933   3.101   1.181
 2156SOL    HW2 1243   2.932   3.094   1.017
 2157SOL     OW 1244   3.500   2.961   1.079
 2157SOL    HW1 1245   3.505   3.042   1.138
 2157SOL    HW2 1246   3.414   2.963   1.028
 2158SOL     OW 1247   2.777   1.951   1.402
 2158SOL    HW1 1248   2.802   1.931   1.307
 2158SOL    HW2 1249   2.849   2.007   1.444
 2159SOL     OW 1250   2.842   2.978   1.719
 2159SOL    HW1 1251   2.743   2.984   1.729
 2159SOL    HW2 1252   2.865   2.898   1.663
 2161SOL     OW 1253   2.272   2.675   1.251
 2161SOL    HW1 1254   2.358   2.687   1.301
 2161SOL    HW2 1255   2.230   2.588   1.278
 2162SOL     OW 1256   3.136   2.248   1.262
 2162SOL    HW1 1257   3.157   2.322   1.326
 2162SOL    HW2 1258   3.047   2.265   1.219
 2163SOL     OW 1259   1.926   3.426   1.331
 2163SOL    HW1 1260   1.880   3.508   1.297
 2163SOL    HW2 1261   2.024   3.445   1.340
 2165SOL     OW 1262   2.428   2.399   0.865
 2165SOL    HW1 1263   2.440   2.465   0.791
 2165SOL    HW2 1264   2.474   2.433   0.948
 2167SOL     OW 1265   3.134   3.307   1.142
 2167SOL    HW1 1266   3.181   3.320   1.229
 2167SOL    HW2 1267   3.068   3.233   1.151
 2169SOL     OW 1268   2.216   3.372   1.329
 2169SOL    HW1 1269   2.195   3.328   1.242
 2169SOL    HW2 1270   2.313   3.398   1.332
 2170SOL     OW 1271   2.264   2.613   1.598
 2170SOL    HW1 1272   2.332   2.668   1.551
 2170SOL    HW2 1273   2.304   2.525   1.625
 2171SOL     OW 1274   3.449   2.641   1.670
 2171SOL    HW1 1275   3.357   2.679   1.665
 2171SOL    HW2 1276   3.509   2.688   1.605
 2172SOL     OW 1277   2.875   1.967   1.770
 2172SOL    HW1 1278   2.881   2.052   1.718
 2172SOL    HW2 1279   2.907   1.891   1.713
 2173SOL     OW 1280   2.366   1.912   1.740
 2173SOL    HW1 1281   2.324   1.855   1.670
 2173SOL    HW2 1282   2.300   1.981   1.772
 2174SOL     OW 1283   2.435   2.732   1.029
 2174SOL    HW1 1284   2.479   2.821   1.020
 2174SOL    HW2 1285   2.372   2.732   1.106
 2175SOL     OW 1286   3.222   2.724   1.045
 2175SOL    HW1 1287   3.147   2.724   0.979
 2175SOL    HW2 1288   3.259   2.632   1.054
 2177SOL     OW 1289   2.169   2.075   1.231
 2177SOL    HW1 1290   2.146   2.112   1.321
 2177SOL    HW2 1291   2.139   1.980   1.225
 2178SOL     OW 1292   1.899   3.172   1.282
 2178SOL    HW1 1293   1.952   3.123   1.350
 2178SOL    HW2 1294   1.921   3.270   1.287
 2179SOL     OW 1295   2.594   2.496   1.064
 2179SOL    HW1 1296   2.653   2.470   0.988
 2179SOL    HW2 1297   2.566   2.592   1.053
 2180SOL     OW 1298   3.590   2.797   1.854
 2180SOL    HW1 1299   3.544   2.790   1.765
 2180SOL    HW2 1300   3.528   2.841   1.920
 2183SOL     OW 1301   2.885   2.628   0.966
 2183SOL    HW1 1302   2.900   2.649   1.062
 2183SOL    HW2 1303   2.855   2.533   0.957
 2184SOL     OW 1304   2.842   3.435   1.700
 2184SOL    HW1 1305   2.822   3.479   1.612
 2184SOL    HW2 1306   2.881   3.344   1.684
 2185SOL     OW 1307   3.721   3.380   1.605
 2185SOL    HW1 1308   3.735   3.407   1.510
 2185SOL    HW2 1309   3.804   3.402   1.658
 2186SOL     OW 1310   2.212   2.760   1.804
 2186SOL    HW1 1311   2.288   2.804   1.852
 2186SOL    HW2 1312   2.247   2.713   1.722
 2190SOL     OW 1313   2.181   2.672   0.949
 2190SOL    HW1 1314   2.274   2.708   0.954
 2190SOL    HW2 1315   2.175   2.587   1.001
 2191SOL     OW 1316   2.201   2.371   1.006
 2191SOL    HW1 1317   2.149   2.288   0.989
 2191SOL    HW2 1318   2.278   2.376   0.942
 2192SOL     OW 1319   3.000   2.242   1.678
 2192SOL    HW1 1320   2.955   2.305   1.742
 2192SOL    HW2 1321   3.093   2.273   1.661
 2193SOL     OW 1322   3.022   2.069   1.477
 2193SOL    HW1 1323   3.022   2.133   1.554
 2193SOL    HW2 1324   3.050   2.117   1.394
 2197SOL     OW 1325   2.864   2.658   1.238
 2197SOL    HW1 1326   2.905   2.626   1.324
 2197SOL    HW2 1327   2.768   2.631   1.235
 2198SOL     OW 1328   1.902   2.406   1.114
 2198SOL    HW1 1329   1.987   2.373   1.073
 2198SOL    HW2 1330   1.915   2.421   1.212
 2199SOL     OW 1331   2.051   2.382   1.722
 2199SOL    HW1 1332   2.110   2.342   1.652
 2199SOL    HW2 1333   1.993   2.453   1.681
 2200SOL     OW 1334   3.231   2.812   1.660
 2200SOL    HW1 1335   3.270   2.901   1.680
 2200SOL    HW2 1336   3.241   2.792   1.563
 2202SOL     OW 1337   3.519   2.466   1.206
 2202SOL    HW1 1338   3.481   2.397   1.268
 2202SOL    HW2 1339   3.601   2.430   1.162
 2203SOL     OW 1340   2.114   3.426   1.744
 2203SOL    HW1 1341   2.084   3.483   1.820
 2203SOL    HW2 1342   2.107   3.329   1.770
 2204SOL     OW 1343   2.533   2.326   1.269
 2204SOL    HW1 1344   2.499   2.237   1.239
 2204SOL    HW2 1345   2.559   2.380   1.189
 2205SOL     OW 1346   2.792   3.540   1.465
 2205SOL    HW1 1347   2.768   3.522   1.370
 2205SOL    HW2 1348   2.822   3.634   1.475
 2207SOL     OW 1349   2.021   2.999   1.466
 2207SOL    HW1 1350   2.043   2.938   1.542
 2207SOL    HW2 1351   2.031   2.950   1.380
 2208SOL     OW 1352   3.209   2.921   1.234
 2208SOL    HW1 1353   3.233   2.858   1.160
 2208SOL    HW2 1354   3.119   2.961   1.216
 2212SOL     OW 1355   1.945   3.120   1.022
 2212SOL    HW1 1356   1.940   3.119   1.122
 2212SOL    HW2 1357   1.862   3.079   0.984
 2213SOL     OW 1358   2.550   3.524   1.716
 2213SOL    HW1 1359   2.494   3.605   1.725
 2213SOL    HW2 1360   2.602   3.528   1.630
 2217SOL     OW 1361   1.992   3.656   1.851
 2217SOL    HW1 1362   1.951   3.582   1.904
 2217SOL    HW2 1363   2.056   3.707   1.909
 2219SOL     OW 1364   2.692   3.135   1.422
 2219SOL    HW1 1365   2.687   3.168   1.517
 2219SOL    HW2 1366   2.606   3.154   1.376
 2225SOL     OW 1367   2.684   2.864   1.372
 2225SOL    HW1 1368   2.724   2.863   1.280
 2225SOL    HW2 1369   2.694   2.956   1.412
 2228SOL     OW 1370   2.234   3.150   1.490
 2228SOL    HW1 1371   2.221   3.243   1.456
 2228SOL    HW2 1372   2.150   3.098   1.477
 2229SOL     OW 1373   3.476   3.154   1.289
 2229SOL    HW1 1374   3.536   3.157   1.369
 2229SOL    HW2 1375   3.401   3.218   1.302
 2231SOL     OW 1376   2.876   2.098   0.971
 2231SOL    HW1 1377   2.868   2.062   0.878
 2231SOL    HW2 1378   2.874   2.022   1.036
 2233SOL     OW 1379   3.571   2.247   1.381
 2233SOL    HW1 1380   3.644   2.316   1.385
 2233SOL    HW2 1381   3.599   2.172   1.322
 2235SOL     OW 1382   1.967   2.875   1.726
 2235SOL    HW1 1383   1.890   2.842   1.780
 2235SOL    HW2 1384   2.052   2.845   1.768
 2236SOL     OW 1385   2.534   2.065   1.489
 2236SOL    HW1 1386   2.624   2.049   1.449
 2236SOL    HW2 1387   2.542   2.070   1.588
 2237SOL     OW 1388   3.302   2.718   1.398
 2237SOL    HW1 1389   3.245   2.770   1.335
 2237SOL    HW2 1390   3.398   2.730   1.374
 2240SOL     OW 1391   2.475   2.704   1.431
 2240SOL    HW1 1392   2.531   2.785   1.414
 2240SOL    HW2 1393   2.534   2.624   1.434
 2242SOL     OW 1394   2.578   2.427   1.708
 2242SOL    HW1 1395   2.597   2.492   1.782
 2242SOL    HW2 1396   2.638   2.347   1.717
 2243SOL     OW 1397   3.312   3.082   1.633
 2243SOL    HW1 1398   3.303   3.072   1.732
 2243SOL    HW2 1399   3.408   3.075   1.607
 2244SOL     OW 1400   2.252   3.603   1.560
 2244SOL    HW1 1401   2.161   3.644   1.558
 2244SOL    HW2 1402   2.245   3.509   1.592
 2245SOL     OW 1403   3.536   2.745   1.254
 2245SOL    HW1 1404   3.509   2.656   1.217
 2245SOL    HW2 1405   3.537   2.813   1.181
 2248SOL     OW 1406   3.639   2.204   1.642
 2248SOL    HW1 1407   3.622   2.235   1.548
 2248SOL    HW2 1408   3.555   2.167   1.680
 2249SOL     OW 1409   3.592   2.796   1.517
 2249SOL    HW1 1410   3.630   2.887   1.532
 2249SOL    HW2 1411   3.584   2.779   1.418
 2252SOL     OW 1412   2.721   2.818   0.861
 2252SOL    HW1 1413   2.775   2.749   0.909
 2252SOL    HW2 1414   2.689   2.887   0.927
 2255SOL     OW 1415   2.083   3.176   1.844
 2255SOL    HW1 1416   2.018   3.103   1.823
 2255SOL    HW2 1417   2.087   3.190   1.942
 2257SOL     OW 1418   2.534   3.253   1.624
 2257SOL    HW1 1419   2.456   3.203   1.662
 2257SOL    HW2 1420   2.531   3.348   1.655
 2258SOL     OW 1421   3.686   2.054   1.227
 2258SOL    HW1 1422   3.682   1.964   1.271
 2258SOL    HW2 1423   3.689   2.043   1.128
 2261SOL     OW 1424   2.179   2.409   1.280
 2261SOL    HW1 1425   2.217   2.350   1.352
 2261SOL    HW2 1426   2.219   2.383   1.192
 2263SOL     OW 1427   3.286   2.076   1.112
 2263SOL    HW1 1428   3.338   2.011   1.167
 2263SOL    HW2 1429   3.237   2.139   1.173
 2264SOL     OW 1430   2.863   1.896   1.154
 2264SOL    HW1 1431   2.800   1.824   1.123
 2264SOL    HW2 1432   2.956   1.860   1.154
 2266SOL     OW 1433   2.480   3.429   1.284
 2266SOL    HW1 1434   2.475   3.511   1.341
 2266SOL    HW2 1435   2.569   3.426   1.239
 2272SOL     OW 1436   2.092   2.490   1.975
 2272SOL    HW1 1437   1.999   2.488   2.012
 2272SOL    HW2 1438   2.093   2.451   1.883
 2273SOL     OW 1439   2.087   2.137   2.858
 2273SOL    HW1 1440   2.122   2.120   2.950
 2273SOL    HW2 1441   1.999   2.092   2.846
 2274SOL     OW 1442   1.881   2.230   2.509
 2274SOL    HW1 1443   1.799   2.273   2.548
 2274SOL    HW2 1444   1.853   2.157   2.446
 2275SOL     OW 1445   2.431   3.137   3.027
 2275SOL    HW1 1446   2.338   3.130   2.990
 2275SOL    HW2 1447   2.442   3.226   3.071
 2276SOL     OW 1448   3.417   3.373   2.565
 2276SOL    HW1 1449   3.360   3.357   2.646
 2276SOL    HW2 1450   3.358   3.383   2.485
 2277SOL     OW 1451   2.997   2.565   2.579
 2277SOL    HW1 1452   3.054   2.643   2.554
 2277SOL    HW2 1453   2.937   2.591   2.655
 2278SOL     OW 1454   3.617   2.469   2.093
 2278SOL    HW1 1455   3.605   2.456   1.994
 2278SOL    HW2 1456   3.587   2.388   2.142
 2279SOL     OW 1457   2.630   3.006   2.885
 2279SOL    HW1 1458   2.552   3.023   2.945
 2279SOL    HW2 1459   2.664   3.093   2.849
 2280SOL     OW 1460   2.712   2.660   3.685
 2280SOL    HW1 1461   2.708   2.736   3.750
 2280SOL    HW2 1462   2.734   2.696   3.594
 2281SOL     OW 1463   2.547   2.874   2.527
 2281SOL    HW1 1464   2.616   2.858   2.597
 2281SOL    HW2 1465   2.474   2.931   2.565
 2282SOL     OW 1466   2.548   3.023   3.665
 2282SOL    HW1 1467   2.608   3.102   3.679
 2282SOL    HW2 1468   2.462   3.054   3.624
 2283SOL     OW 1469   2.197   3.297   2.923
 2283SOL    HW1 1470   2.119   3.266   2.870
 2283SOL    HW2 1471   2.255   3.355   2.866
 2284SOL     OW 1472   3.322   3.367   3.201
 2284SOL    HW1 1473   3.346   3.461   3.227
 2284SOL    HW2 1474   3.306   3.313   3.283
 2285SOL     OW 1475   2.300   2.254   3.361
 2285SOL    HW1 1476   2.382   2.198   3.370
 2285SOL    HW2 1477   2.219   2.196   3.365
 2286SOL     OW 1478   3.465   2.309   2.599
 2286SOL    HW1 1479   3.391   2.355   2.549
 2286SOL    HW2 1480   3.516   2.377   2.652
 2287SOL     OW 1481   2.093   3.575   2.345
 2287SOL    HW1 1482   2.127   3.652   2.399
 2287SOL    HW2 1483   2.137   3.575   2.255
 2288SOL     OW 1484   2.989   3.203   3.552
 2288SOL    HW1 1485   3.036   3.203   3.640
 2288SOL    HW2 1486   2.941   3.116   3.541
 2289SOL     OW 1487   2.092   3.296   2.400
 2289SOL    HW1 1488   2.066   3.392   2.400
 2289SOL    HW2 1489   2.021   3.242   2.445
 2290SOL     OW 1490   2.102   2.953   2.748
 2290SOL    HW1 1491   2.116   2.869   2.800
 2290SOL    HW2 1492   2.047   3.017   2.803
 2291SOL     OW 1493   2.482   3.648   3.301
 2291SOL    HW1 1494   2.390   3.631   3.336
 2291SOL    HW2 1495   2.510   3.740   3.327
 2292SOL     OW 1496   2.468   2.826   1.985
 2292SOL    HW1 1497   2.475   2.910   1.931
 2292SOL    HW2 1498   2.514   2.839   2.073
 2293SOL     OW 1499   3.456   1.976   3.342
 2293SOL    HW1 1500   3.438   2.043   3.270
 2293SOL    HW2 1501   3.453   2.022   3.431
 2294SOL     OW 1502   1.984   2.505   2.425
 2294SOL    HW1 1503   1.939   2.417   2.442
 2294SOL    HW2 1504   1.983   2.559   2.509
 2295SOL     OW 1505   3.704   3.629   2.221
 2295SOL    HW1 1506   3.758   3.600   2.301
 2295SOL    HW2 1507   3.734   3.719   2.192
 2296SOL     OW 1508   1.889   3.458   1.979
 2296SOL    HW1 1509   1.870   3.362   2.000
 2296SOL    HW2 1510   1.856   3.516   2.054
 2297SOL     OW 1511   3.551   2.784   2.474
 2297SOL    HW1 1512   3.646   2.755   2.482
 2297SOL    HW2 1513   3.543   2.849   2.399
 2298SOL     OW 1514   3.503   2.970   2.294
 2298SOL    HW1 1515   3.589   2.972   2.242
 2298SOL    HW2 1516   3.517   3.017   2.382
 2299SOL     OW 1517   1.975   2.599   3.459
 2299SOL    HW1 1518   2.063   2.586   3.504
 2299SOL    HW2 1519   1.962   2.696   3.437
 2300SOL     OW 1520   2.475   3.227   2.588
 2300SOL    HW1 1521   2.426   3.140   2.597
 2300SOL    HW2 1522   2.452   3.270   2.501
 2301SOL     OW 1523   3.155   3.090   3.285
 2301SOL    HW1 1524   3.192   3.017   3.227
 2301SOL    HW2 1525   3.207   3.095   3.370
 2302SOL     OW 1526   2.671   1.866   2.364
 2302SOL    HW1 1527   2.711   1.957   2.355
 2302SOL    HW2 1528   2.571   1.874   2.370
 2303SOL     OW 1529   2.059   2.838   3.126
 2303SOL    HW1 1530   2.148   2.793   3.112
 2303SOL    HW2 1531   1.986   2.773   3.107
 2304SOL     OW 1532   3.387   2.861   2.052
 2304SOL    HW1 1533   3.324   2.785   2.065
 2304SOL    HW2 1534   3.435   2.879   2.138
 2305SOL     OW 1535   3.049   3.654   3.478
 2305SOL    HW1 1536   3.073   3.714   3.402
 2305SOL    HW2 1537   3.056   3.559   3.448
 2306SOL     OW 1538   2.179   2.113   3.663
 2306SOL    HW1 1539   2.250   2.184   3.669
 2306SOL    HW2 1540   2.091   2.152   3.691
 2307SOL     OW 1541   3.328   3.279   2.815
 2307SOL    HW1 1542   3.269   3.285   2.895
 2307SOL    HW2 1543   3.313   3.191   2.769
 2308SOL     OW 1544   3.529   3.576   2.434
 2308SOL    HW1 1545   3.488   3.553   2.346
 2308SOL    HW2 1546   3.511   3.502   2.499
 2309SOL     OW 1547   2.460   2.591   2.132
 2309SOL    HW1 1548   2.484   2.660   2.064
 2309SOL    HW2 1549   2.382   2.624   2.186
 2310SOL     OW 1550   3.143   2.207   2.806
 2310SOL    HW1 1551   3.057   2.157   2.793
 2310SOL    HW2 1552   3.205   2.153   2.862
 2311SOL     OW 1553   3.438   3.524   2.169
 2311SOL    HW1 1554   3.527   3.570   2.172
 2311SOL    HW2 1555   3.417   3.500   2.074
 2312SOL     OW 1556   2.669   2.467   3.327
 2312SOL    HW1 1557   2.622   2.464   3.416
 2312SOL    HW2 1558   2.618   2.412   3.261
 2313SOL     OW 1559   3.256   2.331   3.536
 2313SOL    HW1 1560   3.236   2.374   3.624
 2313SOL    HW2 1561   3.334   2.269   3.545
 2314SOL     OW 1562   2.835   2.752   3.434
 2314SOL    HW1 1563   2.881   2.668   3.405
 2314SOL    HW2 1564   2.779   2.786   3.359
 2315SOL     OW 1565   2.853   2.272   3.104
 2315SOL    HW1 1566   2.776   2.306   3.158
 2315SOL    HW2 1567   2.819   2.221   3.025
 2316SOL     OW 1568   2.903   2.563   2.291
 2316SOL    HW1 1569   2.929   2.559   2.387
 2316SOL    HW2 1570   2.818   2.512   2.277
 2317SOL     OW 1571   1.938   2.673   2.651
 2317SOL    HW1 1572   2.037   2.661   2.660
 2317SOL    HW2 1573   1.914   2.768   2.672
 2318SOL     OW 1574   1.992   3.683   3.433
 2318SOL    HW1 1575   1.982   3.668   3.532
 2318SOL    HW2 1576   1.906   3.719   3.397
 2319SOL     OW 1577   2.727   2.210   2.057
 2319SOL    HW1 1578   2.786   2.273   2.008
 2319SOL    HW2 1579   2.746   2.116   2.028
 2320SOL     OW 1580   3.581   2.447   3.693
 2320SOL    HW1 1581   3.555   2.536   3.657
 2320SOL    HW2 1582   3.579   2.379   3.620
 2321SOL     OW 1583   3.224   3.006   2.407
 2321SOL    HW1 1584   3.307   2.977   2.359
 2321SOL    HW2 1585   3.175   3.073   2.351
 2322SOL     OW 1586   2.412   2.058   2.747
 2322SOL    HW1 1587   2.407   2.053   2.847
 2322SOL    HW2 1588   2.414   2.154   2.718
 2323SOL     OW 1589   2.870   3.318   2.339
 2323SOL    HW1 1590   2.824   3.390   2.287
 2323SOL    HW2 1591   2.866   3.338   2.437
 2324SOL     OW 1592   2.213   3.663   2.715
 2324SOL    HW1 1593   2.263   3.577   2.721
 2324SOL    HW2 1594   2.278   3.740   2.712
 2325SOL     OW 1595   3.657   2.928   2.735
 2325SOL    HW1 1596   3.595   2.913   2.659
 2325SOL    HW2 1597   3.605   2.939   2.820
 2326SOL     OW 1598   3.089   3.412   3.368
 2326SOL    HW1 1599   3.095   3.335   3.432
 2326SOL    HW2 1600   3.037   3.386   3.288
 2327SOL     OW 1601   2.183   2.805   2.104
 2327SOL    HW1 1602   2.265   2.844   2.062
 2327SOL    HW2 1603   2.156   2.723   2.055
 2328SOL     OW 1604   3.320   2.597   2.590
 2328SOL    HW1 1605   3.315   2.532   2.665
 2328SOL    HW2 1606   3.400   2.656   2.603
 2329SOL     OW 1607   2.323   3.128   3.589
 2329SOL    HW1 1608   2.273   3.129   3.503
 2329SOL    HW2 1609   2.260   3.110   3.665
 2330SOL     OW 1610   2.973   3.638   2.099
 2330SOL    HW1 1611   2.913   3.576   2.149
 2330SOL    HW2 1612   3.004   3.594   2.014
 2331SOL     OW 1613   2.064   2.147   3.360
 2331SOL    HW1 1614   1.984   2.207   3.347
 2331SOL    HW2 1615   2.054   2.098   3.446
 2332SOL     OW 1616   3.494   3.239   1.943
 2332SOL    HW1 1617   3.462   3.333   1.933
 2332SOL    HW2 1618   3.418   3.176   1.931
 2333SOL     OW 1619   2.326   3.605   2.185
 2333SOL    HW1 1620   2.359   3.644   2.271
 2333SOL    HW2 1621   2.402   3.598   2.120
 2334SOL     OW 1622   3.262   1.969   2.288
 2334SOL    HW1 1623   3.238   1.932   2.198
 2334SOL    HW2 1624   3.361   1.985   2.292
 2335SOL     OW 1625   2.111   3.647   3.103
 2335SOL    HW1 1626   2.168   3.582   3.153
 2335SOL    HW2 1627   2.095   3.614   3.010
 2336SOL     OW 1628   2.802   3.560   2.766
 2336SOL    HW1 1629   2.882   3.503   2.787
 2336SOL    HW2 1630   2.753   3.520   2.689
 2337SOL     OW 1631   3.409   2.084   3.591
 2337SOL    HW1 1632   3.404   2.121   3.683
 2337SOL    HW2 1633   3.337   2.015   3.579
 2338SOL     OW 1634   2.476   1.984   1.979
 2338SOL    HW1 1635   2.574   1.962   1.986
 2338SOL    HW2 1636   2.445   1.967   1.886
 2339SOL     OW 1637   2.643   2.126   3.611
 2339SOL    HW1 1638   2.710   2.065   3.654
 2339SOL    HW2 1639   2.570   2.145   3.676
 2340SOL     OW 1640   2.750   3.376   3.057
 2340SOL    HW1 1641   2.727   3.351   2.963
 2340SOL    HW2 1642   2.811   3.307   3.096
 2341SOL     OW 1643   3.213   2.452   3.295
 2341SOL    HW1 1644   3.241   2.409   3.380
 2341SOL    HW2 1645   3.238   2.548   3.296
 2342SOL     OW 1646   2.665   3.264   2.786
 2342SOL    HW1 1647   2.755   3.278   2.744
 2342SOL    HW2 1648   2.594   3.266   2.715
 2343SOL     OW 1649   2.784   2.365   2.761
 2343SOL    HW1 1650   2.759   2.356   2.665
 2343SOL    HW2 1651   2.832   2.283   2.792
 2344SOL     OW 1652   2.401   1.926   2.374
 2344SOL    HW1 1653   2.320   1.927   2.432
 2344SOL    HW2 1654   2.404   2.009   2.319
 2345SOL     OW 1655   3.296   3.050   1.903
 2345SOL    HW1 1656   3.328   2.974   1.960
 2345SOL    HW2 1657   3.204   3.077   1.933
 2346SOL     OW 1658   2.159   1.897   2.033
 2346SOL    HW1 1659   2.208   1.981   2.012
 2346SOL    HW2 1660   2.221   1.832   2.078
 2347SOL     OW 1661   2.797   2.098   2.342
 2347SOL    HW1 1662   2.749   2.139   2.264
 2347SOL    HW2 1663   2.896   2.096   2.323
 2348SOL     OW 1664   2.938   2.545   3.326
 2348SOL    HW1 1665   2.858   2.484   3.329
 2348SOL    HW2 1666   3.019   2.492   3.302
 2349SOL     OW 1667   3.089   3.432   2.655
 2349SOL    HW1 1668   3.110   3.506   2.590
 2349SOL    HW2 1669   3.157   3.432   2.728
 2350SOL     OW 1670   2.321   3.014   2.603
 2350SOL    HW1 1671   2.250   2.987   2.668
 2350SOL    HW2 1672   2.295   2.986   2.510
 2351SOL     OW 1673   3.133   3.659   2.453
 2351SOL    HW1 1674   3.177   3.723   2.389
 2351SOL    HW2 1675   3.083   3.711   2.523
 2352SOL     OW 1676   2.894   2.411   1.878
 2352SOL    HW1 1677   2.853   2.493   1.839
 2352SOL    HW2 1678   2.958   2.437   1.951
 2353SOL     OW 1679   1.940   2.418   3.248
 2353SOL    HW1 1680   2.032   2.417   3.207
 2353SOL    HW2 1681   1.934   2.492   3.315
 2354SOL     OW 1682   2.423   2.084   3.009
 2354SOL    HW1 1683   2.461   2.000   3.046
 2354SOL    HW2 1684   2.335   2.103   3.053
 2355SOL     OW 1685   2.879   1.901   2.615
 2355SOL    HW1 1686   2.807   1.906   2.546
 2355SOL    HW2 1687   2.855   1.832   2.684
 2356SOL     OW 1688   3.291   3.035   2.729
 2356SOL    HW1 1689   3.236   2.951   2.722
 2356SOL    HW2 1690   3.317   3.064   2.637
 2357SOL     OW 1691   3.328   2.452   2.854
 2357SOL    HW1 1692   3.298   2.357   2.861
 2357SOL    HW2 1693   3.401   2.468   2.920
 2358SOL     OW 1694   3.719   2.695   2.239
 2358SOL    HW1 1695   3.761   2.631   2.303
 2358SOL    HW2 1696   3.681   2.644   2.161
 2359SOL     OW 1697   2.350   3.247   2.036
 2359SOL    HW1 1698   2.263   3.232   2.083
 2359SOL    HW2 1699   2.333   3.273   1.941
 2360SOL     OW 1700   3.526   3.142   2.519
 2360SOL    HW1 1701   3.625   3.150   2.533
 2360SOL    HW2 1702   3.481   3.226   2.550
 2361SOL     OW 1703   3.252   2.437   1.940
 2361SOL    HW1 1704   3.198   2.416   2.021
 2361SOL    HW2 1705   3.343   2.396   1.949
 2362SOL     OW 1706   3.616   3.085   3.450
 2362SOL    HW1 1707   3.707   3.046   3.437
 2362SOL    HW2 1708   3.624   3.181   3.474
 2363SOL     OW 1709   2.926   3.209   3.202
 2363SOL    HW1 1710   2.846   3.186   3.257
 2363SOL    HW2 1711   3.009   3.183   3.251
 2364SOL     OW 1712   3.454   3.491   3.487
 2364SOL    HW1 1713   3.481   3.525   3.397
 2364SOL    HW2 1714   3.533   3.453   3.533
 2365SOL     OW 1715   2.973   3.057   2.962
 2365SOL    HW1 1716   2.933   3.101   3.043
 2365SOL    HW2 1717   2.932   3.094   2.879
 2366SOL     OW 1718   3.500   2.961   2.941
 2366SOL    HW1 1719   3.505   3.042   3.000
 2366SOL    HW2 1720   3.414   2.963   2.890
 2367SOL     OW 1721   2.777   1.951   3.264
 2367SOL    HW1 1722   2.802   1.931   3.169
 2367SOL    HW2 1723   2.849   2.007   3.306
 2368SOL     OW 1724   2.842   2.978   3.581
 2368SOL    HW1 1725   2.743   2.984   3.591
 2368SOL    HW2 1726   2.865   2.898   3.525
 2369SOL     OW 1727   2.567   2.912   2.230
 2369SOL    HW1 1728   2.553   2.919   2.329
 2369SOL    HW2 1729   2.651   2.861   2.212
 2370SOL     OW 1730   2.272   2.675   3.113
 2370SOL    HW1 1731   2.358   2.687   3.163
 2370SOL    HW2 1732   2.230   2.588   3.140
 2371SOL     OW 1733   3.136   2.248   3.124
 2371SOL    HW1 1734   3.157   2.322   3.188
 2371SOL    HW2 1735   3.047   2.265   3.081
 2372SOL     OW 1736   1.926   3.426   3.193
 2372SOL    HW1 1737   1.880   3.508   3.159
 2372SOL    HW2 1738   2.024   3.445   3.202
 2373SOL     OW 1739   2.229   2.962   2.363
 2373SOL    HW1 1740   2.222   3.045   2.307
 2373SOL    HW2 1741   2.233   2.882   2.303
 2374SOL     OW 1742   3.114   3.210   2.250
 2374SOL    HW1 1743   3.164   3.287   2.290
 2374SOL    HW2 1744   3.019   3.212   2.282
 2375SOL     OW 1745   3.134   3.307   3.004
 2375SOL    HW1 1746   3.181   3.320   3.091
 2375SOL    HW2 1747   3.068   3.233   3.013
 2376SOL     OW 1748   3.444   2.501   2.334
 2376SOL    HW1 1749   3.413   2.562   2.407
 2376SOL    HW2 1750   3.494   2.553   2.265
 2377SOL     OW 1751   2.216   3.372   3.191
 2377SOL    HW1 1752   2.195   3.328   3.104
 2377SOL    HW2 1753   2.313   3.398   3.194
 2378SOL     OW 1754   2.264   2.613   3.460
 2378SOL    HW1 1755   2.332   2.668   3.413
 2378SOL    HW2 1756   2.304   2.525   3.487
 2379SOL     OW 1757   3.449   2.641   3.532
 2379SOL    HW1 1758   3.357   2.679   3.527
 2379SOL    HW2 1759   3.509   2.688   3.467
 2380SOL     OW 1760   2.875   1.967   3.632
 2380SOL    HW1 1761   2.881   2.052   3.580
 2380SOL    HW2 1762   2.907   1.891   3.575
 2381SOL     OW 1763   2.366   1.912   3.602
 2381SOL    HW1 1764   2.324   1.855   3.532
 2381SOL    HW2 1765   2.300   1.981   3.634
 2382SOL     OW 1766   2.435   2.732   2.891
 2382SOL    HW1 1767   2.479   2.821   2.882
 2382SOL    HW2 1768   2.372   2.732   2.968
 2383SOL     OW 1769   3.222   2.724   2.907
 2383SOL    HW1 1770   3.147   2.724   2.841
 2383SOL    HW2 1771   3.259   2.632   2.916
 2384SOL     OW 1772   3.071   2.387   2.137
 2384SOL    HW1 1773   3.084   2.303   2.191
 2384SOL    HW2 1774   3.042   2.461   2.197
 2385SOL     OW 1775   2.169   2.075   3.093
 2385SOL    HW1 1776   2.146   2.112   3.183
 2385SOL    HW2 1777   2.139   1.980   3.087
 2386SOL     OW 1778   1.899   3.172   3.144
 2386SOL    HW1 1779   1.952   3.123   3.212
 2386SOL    HW2 1780   1.921   3.270   3.149
 2387SOL     OW 1781   2.594   2.496   2.926
 2387SOL    HW1 1782   2.653   2.470   2.850
 2387SOL    HW2 1783   2.566   2.592   2.915
 2388SOL     OW 1784   3.590   2.797   3.716
 2388SOL    HW1 1785   3.544   2.790   3.627
 2388SOL    HW2 1786   3.528   2.841   3.782
 2389SOL     OW 1787   2.169   1.925   2.480
 2389SOL    HW1 1788   2.158   2.019   2.513
 2389SOL    HW2 1789   2.164   1.862   2.557
 2390SOL     OW 1790   3.484   2.229   2.236
 2390SOL    HW1 1791   3.486   2.153   2.300
 2390SOL    HW2 1792   3.436   2.306   2.276
 2391SOL     OW 1793   2.885   2.628   2.828
 2391SOL    HW1 1794   2.900   2.649   2.924
 2391SOL    HW2 1795   2.855   2.533   2.819
 2392SOL     OW 1796   2.842   3.435   3.562
 2392SOL    HW1 1797   2.822   3.479   3.474
 2392SOL    HW2 1798   2.881   3.344   3.546
 2394SOL     OW 1799   2.212   2.760   3.666
 2394SOL    HW1 1800   2.288   2.804   3.714
 2394SOL    HW2 1801   2.247   2.713   3.584
 2395SOL     OW 1802   3.402   2.136   1.987
 2395SOL    HW1 1803   3.341   2.061   2.010
 2395SOL    HW2 1804   3.424   2.188   2.070
 2396SOL     OW 1805   3.165   2.700   1.904
 2396SOL    HW1 1806   3.199   2.607   1.919
 2396SOL    HW2 1807   3.183   2.727   1.809
 2397SOL     OW 1808   2.930   3.195   2.711
 2397SOL    HW1 1809   2.937   3.111   2.656
 2397SOL    HW2 1810   2.992   3.264   2.675
 2398SOL     OW 1811   2.181   2.672   2.811
 2398SOL    HW1 1812   2.274   2.708   2.816
 2398SOL    HW2 1813   2.175   2.587   2.863
 2399SOL     OW 1814   2.201   2.371   2.868
 2399SOL    HW1 1815   2.149   2.288   2.851
 2399SOL    HW2 1816   2.278   2.376   2.804
 2400SOL     OW 1817   3.000   2.242   3.540
 2400SOL    HW1 1818   2.955   2.305   3.604
 2400SOL    HW2 1819   3.093   2.273   3.523
 2401SOL     OW 1820   3.022   2.069   3.339
 2401SOL    HW1 1821   3.022   2.133   3.416
 2401SOL    HW2 1822   3.050   2.117   3.256
 2402SOL     OW 1823   1.870   3.188   2.062
 2402SOL    HW1 1824   1.777   3.209   2.031
 2402SOL    HW2 1825   1.880   3.089   2.075
 2403SOL     OW 1826   1.950   3.663   2.789
 2403SOL    HW1 1827   1.908   3.577   2.762
 2403SOL    HW2 1828   2.044   3.666   2.755
 2404SOL     OW 1829   2.366   3.430   2.772
 2404SOL    HW1 1830   2.432   3.504   2.781
 2404SOL    HW2 1831   2.410   3.351   2.730
 2405SOL     OW 1832   2.864   2.658   3.100
 2405SOL    HW1 1833   2.905   2.626   3.186
 2405SOL    HW2 1834   2.768   2.631   3.097
 2406SOL     OW 1835   1.902   2.406   2.976
 2406SOL    HW1 1836   1.987   2.373   2.935
 2406SOL    HW2 1837   1.915   2.421   3.074
 2407SOL     OW 1838   2.051   2.382   3.584
 2407SOL    HW1 1839   2.110   2.342   3.514
 2407SOL    HW2 1840   1.993   2.453   3.543
 2408SOL     OW 1841   3.231   2.812   3.522
 2408SOL    HW1 1842   3.270   2.901   3.542
 2408SOL    HW2 1843   3.241   2.792   3.425
 2409SOL     OW 1844   2.677   2.434   2.187
 2409SOL    HW1 1845   2.684   2.345   2.141
 2409SOL    HW2 1846   2.583   2.468   2.179
 2410SOL     OW 1847   3.519   2.466   3.068
 2410SOL    HW1 1848   3.481   2.397   3.130
 2410SOL    HW2 1849   3.601   2.430   3.024
 2411SOL     OW 1850   2.114   3.426   3.606
 2411SOL    HW1 1851   2.084   3.483   3.682
 2411SOL    HW2 1852   2.107   3.329   3.632
 2412SOL     OW 1853   2.533   2.326   3.131
 2412SOL    HW1 1854   2.499   2.237   3.101
 2412SOL    HW2 1855   2.559   2.380   3.051
 2413SOL     OW 1856   2.792   3.540   3.327
 2413SOL    HW1 1857   2.768   3.522   3.232
 2413SOL    HW2 1858   2.822   3.634   3.337
 2414SOL     OW 1859   2.021   2.999   3.328
 2414SOL    HW1 1860   2.043   2.938   3.404
 2414SOL    HW2 1861   2.031   2.950   3.242
 2415SOL     OW 1862   3.209   2.921   3.096
 2415SOL    HW1 1863   3.233   2.858   3.022
 2415SOL    HW2 1864   3.119   2.961   3.078
 2416SOL     OW 1865   3.164   2.717   2.171
 2416SOL    HW1 1866   3.078   2.686   2.213
 2416SOL    HW2 1867   3.160   2.703   2.072
 2417SOL     OW 1868   3.621   3.609   3.016
 2417SOL    HW1 1869   3.682   3.639   2.943
 2417SOL    HW2 1870   3.583   3.520   2.994
 2418SOL     OW 1871   3.114   3.593   2.990
 2418SOL    HW1 1872   3.198   3.598   2.936
 2418SOL    HW2 1873   3.091   3.497   3.008
 2419SOL     OW 1874   1.945   3.120   2.884
 2419SOL    HW1 1875   1.940   3.119   2.984
 2419SOL    HW2 1876   1.862   3.079   2.846
 2420SOL     OW 1877   2.550   3.524   3.578
 2420SOL    HW1 1878   2.494   3.605   3.587
 2420SOL    HW2 1879   2.602   3.528   3.492
 2421SOL     OW 1880   3.588   1.997   2.385
 2421SOL    HW1 1881   3.661   1.980   2.318
 2421SOL    HW2 1882   3.557   1.910   2.423
 2422SOL     OW 1883   3.250   3.435   2.339
 2422SOL    HW1 1884   3.317   3.447   2.265
 2422SOL    HW2 1885   3.210   3.524   2.362
 2423SOL     OW 1886   1.992   3.656   3.713
 2423SOL    HW1 1887   1.951   3.582   3.766
 2423SOL    HW2 1888   2.056   3.707   3.771
 2424SOL     OW 1889   3.142   2.789   2.534
 2424SOL    HW1 1890   3.202   2.708   2.536
 2424SOL    HW2 1891   3.182   2.858   2.474
 2425SOL     OW 1892   2.692   3.135   3.284
 2425SOL    HW1 1893   2.687   3.168   3.379
 2425SOL    HW2 1894   2.606   3.154   3.238
 2426SOL     OW 1895   2.534   3.478   2.016
 2426SOL    HW1 1896   2.543   3.488   1.917
 2426SOL    HW2 1897   2.494   3.389   2.037
 2427SOL     OW 1898   3.512   3.582   3.256
 2427SOL    HW1 1899   3.565   3.592   3.172
 2427SOL    HW2 1900   3.485   3.672   3.290
 2428SOL     OW 1901   3.703   2.037   2.825
 2428SOL    HW1 1902   3.742   1.952   2.789
 2428SOL    HW2 1903   3.605   2.039   2.806
 2429SOL     OW 1904   2.125   2.188   2.582
 2429SOL    HW1 1905   2.046   2.239   2.548
 2429SOL    HW2 1906   2.116   2.173   2.680
 2430SOL     OW 1907   3.056   3.474   1.893
 2430SOL    HW1 1908   3.062   3.381   1.930
 2430SOL    HW2 1909   2.997   3.474   1.813
 2431SOL     OW 1910   2.684   2.864   3.234
 2431SOL    HW1 1911   2.724   2.863   3.142
 2431SOL    HW2 1912   2.694   2.956   3.274
 2432SOL     OW 1913   2.778   2.772   2.153
 2432SOL    HW1 1914   2.841   2.810   2.085
 2432SOL    HW2 1915   2.818   2.689   2.192
 2433SOL     OW 1916   3.366   3.469   1.906
 2433SOL    HW1 1917   3.274   3.506   1.913
 2433SOL    HW2 1918   3.404   3.489   1.816
 2434SOL     OW 1919   2.234   3.150   3.352
 2434SOL    HW1 1920   2.221   3.243   3.318
 2434SOL    HW2 1921   2.150   3.098   3.339
 2435SOL     OW 1922   3.476   3.154   3.151
 2435SOL    HW1 1923   3.536   3.157   3.231
 2435SOL    HW2 1924   3.401   3.218   3.164
 2436SOL     OW 1925   2.901   2.960   2.558
 2436SOL    HW1 1926   2.831   2.913   2.612
 2436SOL    HW2 1927   2.960   2.892   2.515
 2437SOL     OW 1928   2.876   2.098   2.833
 2437SOL    HW1 1929   2.868   2.062   2.740
 2437SOL    HW2 1930   2.874   2.022   2.898
 2438SOL     OW 1931   2.452   3.349   2.353
 2438SOL    HW1 1932   2.494   3.291   2.283
 2438SOL    HW2 1933   2.408   3.428   2.309
 2439SOL     OW 1934   3.571   2.247   3.243
 2439SOL    HW1 1935   3.644   2.316   3.247
 2439SOL    HW2 1936   3.599   2.172   3.184
 2440SOL     OW 1937   2.117   3.210   2.152
 2440SOL    HW1 1938   2.021   3.211   2.125
 2440SOL    HW2 1939   2.129   3.263   2.236
 2441SOL     OW 1940   1.967   2.875   3.588
 2441SOL    HW1 1941   1.890   2.842   3.642
 2441SOL    HW2 1942   2.052   2.845   3.630
 2442SOL     OW 1943   2.534   2.065   3.351
 2442SOL    HW1 1944   2.624   2.049   3.311
 2442SOL    HW2 1945   2.542   2.070   3.450
 2443SOL     OW 1946   1.937   2.207   1.895
 2443SOL    HW1 1947   1.845   2.179   1.866
 2443SOL    HW2 1948   1.968   2.284   1.839
 2444SOL     OW 1949   3.302   2.718   3.260
 2444SOL    HW1 1950   3.245   2.770   3.197
 2444SOL    HW2 1951   3.398   2.730   3.236
 2445SOL     OW 1952   1.934   2.028   2.180
 2445SOL    HW1 1953   1.917   2.111   2.126
 2445SOL    HW2 1954   2.024   1.991   2.158
 2446SOL     OW 1955   3.045   3.197   1.981
 2446SOL    HW1 1956   2.946   3.186   1.983
 2446SOL    HW2 1957   3.079   3.212   2.074
 2447SOL     OW 1958   2.475   2.704   3.293
 2447SOL    HW1 1959   2.531   2.785   3.276
 2447SOL    HW2 1960   2.534   2.624   3.296
 2448SOL     OW 1961   3.355   3.629   2.821
 2448SOL    HW1 1962   3.388   3.693   2.752
 2448SOL    HW2 1963   3.421   3.623   2.896
 2449SOL     OW 1964   2.578   2.427   3.570
 2449SOL    HW1 1965   2.597   2.492   3.644
 2449SOL    HW2 1966   2.638   2.347   3.579
 2450SOL     OW 1967   3.312   3.082   3.495
 2450SOL    HW1 1968   3.303   3.072   3.594
 2450SOL    HW2 1969   3.408   3.075   3.469
 2451SOL     OW 1970   2.252   3.603   3.422
 2451SOL    HW1 1971   2.161   3.644   3.420
 2451SOL    HW2 1972   2.245   3.509   3.454
 2452SOL     OW 1973   3.536   2.745   3.116
 2452SOL    HW1 1974   3.509   2.656   3.079
 2452SOL    HW2 1975   3.537   2.813   3.043
 2453SOL     OW 1976   3.087   2.187   2.311
 2453SOL    HW1 1977   3.152   2.113   2.300
 2453SOL    HW2 1978   3.107   2.237   2.395
 2454SOL     OW 1979   3.639   2.204   3.504
 2454SOL    HW1 1980   3.622   2.235   3.410
 2454SOL    HW2 1981   3.555   2.167   3.542
 2455SOL     OW 1982   3.592   2.796   3.379
 2455SOL    HW1 1983   3.630   2.887   3.394
 2455SOL    HW2 1984   3.584   2.779   3.280
 2456SOL     OW 1985   2.721   3.236   1.878
 2456SOL    HW1 1986   2.675   3.251   1.966
 2456SOL    HW2 1987   2.765   3.321   1.848
 2457SOL     OW 1988   2.523   3.652   2.815
 2457SOL    HW1 1989   2.477   3.740   2.802
 2457SOL    HW2 1990   2.622   3.664   2.808
 2458SOL     OW 1991   2.945   2.846   1.949
 2458SOL    HW1 1992   2.922   2.899   1.867
 2458SOL    HW2 1993   3.026   2.790   1.930
 2459SOL     OW 1994   3.723   3.431   2.713
 2459SOL    HW1 1995   3.652   3.419   2.643
 2459SOL    HW2 1996   3.724   3.352   2.773
 2460SOL     OW 1997   2.083   3.176   3.706
 2460SOL    HW1 1998   2.018   3.103   3.685
 2460SOL    HW2 1999   2.087   3.190   3.804
 2461SOL     OW 2000   1.941   3.102   2.515
 2461SOL    HW1 2001   1.940   3.055   2.603
 2461SOL    HW2 2002   2.023   3.074   2.464
 2462SOL     OW 2003   2.534   3.253   3.486
 2462SOL    HW1 2004   2.456   3.203   3.524
 2462SOL    HW2 2005   2.531   3.348   3.517
 2463SOL     OW 2006   3.686   2.054   3.089
 2463SOL    HW1 2007   3.682   1.964   3.133
 2463SOL    HW2 2008   3.689   2.043   2.990
 2464SOL     OW 2009   3.567   3.349   2.966
 2464SOL    HW1 2010   3.474   3.324   2.939
 2464SOL    HW2 2011   3.593   3.299   3.048
 2465SOL     OW 2012   2.179   2.409   3.142
 2465SOL    HW1 2013   2.217   2.350   3.214
 2465SOL    HW2 2014   2.219   2.383   3.054
 2466SOL     OW 2015   2.674   3.448   2.549
 2466SOL    HW1 2016   2.706   3.458   2.455
 2466SOL    HW2 2017   2.595   3.386   2.551
 2467SOL     OW 2018   3.286   2.076   2.974
 2467SOL    HW1 2019   3.338   2.011   3.029
 2467SOL    HW2 2020   3.237   2.139   3.035
 2468SOL     OW 2021   2.863   1.896   3.016
 2468SOL    HW1 2022   2.800   1.824   2.985
 2468SOL    HW2 2023   2.956   1.860   3.016
 2469SOL     OW 2024   2.632   3.192   2.163
 2469SOL    HW1 2025   2.586   3.105   2.180
 2469SOL    HW2 2026   2.723   3.189   2.204
 2470SOL     OW 2027   2.480   3.429   3.146
 2470SOL    HW1 2028   2.475   3.511   3.203
 2470SOL    HW2 2029   2.569   3.426   3.101
 2471SOL     OW 2030   3.214   1.914   2.030
 2471SOL    HW1 2031   3.249   1.873   1.946
 2471SOL    HW2 2032   3.124   1.876   2.050
 2472SOL     OW 2033   3.162   2.315   2.553
 2472SOL    HW1 2034   3.103   2.395   2.557
 2472SOL    HW2 2035   3.177   2.280   2.646
 2473SOL     OW 2036   3.455   2.083   2.744
 2473SOL    HW1 2037   3.371   2.082   2.798
 2473SOL    HW2 2038   3.457   2.166   2.688
 2474SOL     OW 2039   1.901   2.939   2.162
 2474SOL    HW1 2040   2.000   2.928   2.153
 2474SOL    HW2 2041   1.861   2.853   2.194
 2475SOL     OW 2042   2.737   3.508   2.199
 2475SOL    HW1 2043   2.660   3.473   2.145
 2475SOL    HW2 2044   2.705   3.579   2.261
 2476SOL     OW 2045   2.092   2.490   3.837
 2476SOL    HW1 2046   1.999   2.488   3.874
 2476SOL    HW2 2047   2.093   2.451   3.745
 2490SOL     OW 2048   2.468   2.826   3.847
 2490SOL    HW1 2049   2.475   2.910   3.793
 2490SOL    HW2 2050   2.514   2.839   3.935
 2493SOL     OW 2051   1.889   3.458   3.841
 2493SOL    HW1 2052   1.870   3.362   3.862
 2493SOL    HW2 2053   1.856   3.516   3.916
 2499SOL     OW 2054   3.387   2.861   3.914
 2499SOL    HW1 2055   3.324   2.785   3.927
 2499SOL    HW2 2056   3.435   2.879   4.000
 2502SOL     OW 2057   2.460   2.591   3.994
 2502SOL    HW1 2058   2.484   2.660   3.926
 2502SOL    HW2 2059   2.382   2.624   4.048
 2505SOL     OW 2060   2.903   2.563   4.153
 2505SOL    HW1 2061   2.929   2.559   4.249
 2505SOL    HW2 2062   2.818   2.512   4.139
 2507SOL     OW 2063   2.727   2.210   3.919
 2507SOL    HW1 2064   2.786   2.273   3.870
 2507SOL    HW2 2065   2.746   2.116   3.890
 2513SOL     OW 2066   2.183   2.805   3.966
 2513SOL    HW1 2067   2.265   2.844   3.924
 2513SOL    HW2 2068   2.156   2.723   3.917
 2521SOL     OW 2069   2.244   2.562   4.204
 2521SOL    HW1 2070   2.289   2.472   4.201
 2521SOL    HW2 2071   2.150   2.551   4.237
 2522SOL     OW 2072   2.476   1.984   3.841
 2522SOL    HW1 2073   2.574   1.962   3.848
 2522SOL    HW2 2074   2.445   1.967   3.748
 2526SOL     OW 2075   3.296   3.050   3.765
 2526SOL    HW1 2076   3.328   2.974   3.822
 2526SOL    HW2 2077   3.204   3.077   3.795
 2527SOL     OW 2078   2.159   1.897   3.895
 2527SOL    HW1 2079   2.208   1.981   3.874
 2527SOL    HW2 2080   2.221   1.832   3.940
 2532SOL     OW 2081   2.894   2.411   3.740
 2532SOL    HW1 2082   2.853   2.493   3.701
 2532SOL    HW2 2083   2.958   2.437   3.813
 2538SOL     OW 2084   2.350   3.247   3.898
 2538SOL    HW1 2085   2.263   3.232   3.945
 2538SOL    HW2 2086   2.333   3.273   3.803
 2540SOL     OW 2087   3.252   2.437   3.802
 2540SOL    HW1 2088   3.198   2.416   3.883
 2540SOL    HW2 2089   3.343   2.396   3.811
 2541SOL     OW 2090   2.389   2.118   4.052
 2541SOL    HW1 2091   2.416   2.059   3.977
 2541SOL    HW2 2092   2.389   2.213   4.021
 2544SOL     OW 2093   2.567   2.912   4.092
 2544SOL    HW1 2094   2.553   2.919   4.191
 2544SOL    HW2 2095   2.651   2.861   4.074
 2552SOL     OW 2096   3.071   2.387   3.999
 2552SOL    HW1 2097   3.084   2.303   4.053
 2552SOL    HW2 2098   3.042   2.461   4.059
 2558SOL     OW 2099   3.402   2.136   3.849
 2558SOL    HW1 2100   3.341   2.061   3.872
 2558SOL    HW2 2101   3.424   2.188   3.932
 2559SOL     OW 2102   3.165   2.700   3.766
 2559SOL    HW1 2103   3.199   2.607   3.781
 2559SOL    HW2 2104   3.183   2.727   3.671
 2563SOL     OW 2105   1.870   3.188   3.924
 2563SOL    HW1 2106   1.777   3.209   3.893
 2563SOL    HW2 2107   1.880   3.089   3.937
 2568SOL     OW 2108   2.677   2.434   4.049
 2568SOL    HW1 2109   2.684   2.345   4.003
 2568SOL    HW2 2110   2.583   2.468   4.041
 2571SOL     OW 2111   2.335   2.362   3.915
 2571SOL    HW1 2112   2.396   2.442   3.919
 2571SOL    HW2 2113   2.240   2.393   3.922
 2572SOL     OW 2114   3.164   2.717   4.033
 2572SOL    HW1 2115   3.078   2.686   4.075
 2572SOL    HW2 2116   3.160   2.703   3.934
 2578SOL     OW 2117   2.534   3.478   3.878
 2578SOL    HW1 2118   2.543   3.488   3.779
 2578SOL    HW2 2119   2.494   3.389   3.899
 2581SOL     OW 2120   3.056   3.474   3.755
 2581SOL    HW1 2121   3.062   3.381   3.792
 2581SOL    HW2 2122   2.997   3.474   3.675
 2583SOL     OW 2123   2.778   2.772   4.015
 2583SOL    HW1 2124   2.841   2.810   3.947
 2583SOL    HW2 2125   2.818   2.689   4.054
 2589SOL     OW 2126   2.117   3.210   4.014
 2589SOL    HW1 2127   2.021   3.211   3.987
 2589SOL    HW2 2128   2.129   3.263   4.098
 2590SOL     OW 2129   1.937   2.207   3.757
 2590SOL    HW1 2130   1.845   2.179   3.728
 2590SOL    HW2 2131   1.968   2.284   3.701
 2591SOL     OW 2132   1.934   2.028   4.042
 2591SOL    HW1 2133   1.917   2.111   3.988
 2591SOL    HW2 2134   2.024   1.991   4.020
 2592SOL     OW 2135   3.045   3.197   3.843
 2592SOL    HW1 2136   2.946   3.186   3.845
 2592SOL    HW2 2137   3.079   3.212   3.936
 2597SOL     OW 2138   2.721   3.236   3.740
 2597SOL    HW1 2139   2.675   3.251   3.828
 2597SOL    HW2 2140   2.765   3.321   3.710
 2600SOL     OW 2141   2.945   2.846   3.811
 2600SOL    HW1 2142   2.922   2.899   3.729
 2600SOL    HW2 2143   3.026   2.790   3.792
 2604SOL     OW 2144   2.290   2.286   4.244
 2604SOL    HW1 2145   2.320   2.214   4.182
 2604SOL    HW2 2146   2.251   2.246   4.327
 2608SOL     OW 2147   2.632   3.192   4.025
 2608SOL    HW1 2148   2.586   3.105   4.042
 2608SOL    HW2 2149   2.723   3.189   4.066
 2609SOL     OW 2150   3.214   1.914   3.892
 2609SOL    HW1 2151   3.249   1.873   3.808
 2609SOL    HW2 2152   3.124   1.876   3.912
 2612SOL     OW 2153   1.901   2.939   4.024
 2612SOL    HW1 2154   2.000   2.928   4.015
 2612SOL    HW2 2155   1.861   2.853   4.056
 2636SOL     OW 2156   2.179   3.975   1.801
 2636SOL    HW1 2157   2.250   4.046   1.807
 2636SOL    HW2 2158   2.091   4.014   1.829
 2656SOL     OW 2159   2.643   3.988   1.749
 2656SOL    HW1 2160   2.710   3.927   1.792
 2656SOL    HW2 2161   2.570   4.007   1.814
 2676SOL     OW 2162   2.777   3.813   1.402
 2676SOL    HW1 2163   2.802   3.793   1.307
 2676SOL    HW2 2164   2.849   3.869   1.444
 2685SOL     OW 2165   2.875   3.829   1.770
 2685SOL    HW1 2166   2.881   3.914   1.718
 2685SOL    HW2 2167   2.907   3.753   1.713
 2686SOL     OW 2168   2.366   3.774   1.740
 2686SOL    HW1 2169   2.324   3.717   1.670
 2686SOL    HW2 2170   2.300   3.843   1.772
 2725SOL     OW 2171   2.534   3.927   1.489
 2725SOL    HW1 2172   2.624   3.911   1.449
 2725SOL    HW2 2173   2.542   3.932   1.588
 2749SOL     OW 2174   2.087   3.999   2.858
 2749SOL    HW1 2175   2.122   3.982   2.950
 2749SOL    HW2 2176   1.999   3.954   2.846
 2750SOL     OW 2177   1.881   4.092   2.509
 2750SOL    HW1 2178   1.799   4.135   2.548
 2750SOL    HW2 2179   1.853   4.019   2.446
 2767SOL     OW 2180   2.671   3.728   2.364
 2767SOL    HW1 2181   2.711   3.819   2.355
 2767SOL    HW2 2182   2.571   3.736   2.370
 2772SOL     OW 2183   3.143   4.069   2.806
 2772SOL    HW1 2184   3.057   4.019   2.793
 2772SOL    HW2 2185   3.205   4.015   2.862
 2779SOL     OW 2186   2.727   4.072   2.057
 2779SOL    HW1 2187   2.786   4.135   2.008
 2779SOL    HW2 2188   2.746   3.978   2.028
 2781SOL     OW 2189   2.412   3.920   2.747
 2781SOL    HW1 2190   2.407   3.915   2.847
 2781SOL    HW2 2191   2.414   4.016   2.718
 2786SOL     OW 2192   3.262   3.831   2.288
 2786SOL    HW1 2193   3.238   3.794   2.198
 2786SOL    HW2 2194   3.361   3.847   2.292
 2789SOL     OW 2195   2.476   3.846   1.979
 2789SOL    HW1 2196   2.574   3.824   1.986
 2789SOL    HW2 2197   2.445   3.829   1.886
 2793SOL     OW 2198   2.401   3.788   2.374
 2793SOL    HW1 2199   2.320   3.789   2.432
 2793SOL    HW2 2200   2.404   3.871   2.319
 2794SOL     OW 2201   2.159   3.759   2.033
 2794SOL    HW1 2202   2.208   3.843   2.012
 2794SOL    HW2 2203   2.221   3.694   2.078
 2795SOL     OW 2204   2.797   3.960   2.342
 2795SOL    HW1 2205   2.749   4.001   2.264
 2795SOL    HW2 2206   2.896   3.958   2.323
 2800SOL     OW 2207   2.423   3.946   3.009
 2800SOL    HW1 2208   2.461   3.862   3.046
 2800SOL    HW2 2209   2.335   3.965   3.053
 2801SOL     OW 2210   2.728   4.178   2.504
 2801SOL    HW1 2211   2.696   4.250   2.442
 2801SOL    HW2 2212   2.752   4.097   2.451
 2802SOL     OW 2213   2.879   3.763   2.615
 2802SOL    HW1 2214   2.807   3.768   2.546
 2802SOL    HW2 2215   2.855   3.694   2.684
 2807SOL     OW 2216   2.389   3.980   2.190
 2807SOL    HW1 2217   2.416   3.921   2.115
 2807SOL    HW2 2218   2.389   4.075   2.159
 2810SOL     OW 2219   2.777   3.813   3.264
 2810SOL    HW1 2220   2.802   3.793   3.169
 2810SOL    HW2 2221   2.849   3.869   3.306
 2820SOL     OW 2222   2.366   3.774   3.602
 2820SOL    HW1 2223   2.324   3.717   3.532
 2820SOL    HW2 2224   2.300   3.843   3.634
 2824SOL     OW 2225   2.169   3.937   3.093
 2824SOL    HW1 2226   2.146   3.974   3.183
 2824SOL    HW2 2227   2.139   3.842   3.087
 2827SOL     OW 2228   2.169   3.787   2.480
 2827SOL    HW1 2229   2.158   3.881   2.513
 2827SOL    HW2 2230   2.164   3.724   2.557
 2836SOL     OW 2231   3.022   3.931   3.339
 2836SOL    HW1 2232   3.022   3.995   3.416
 2836SOL    HW2 2233   3.050   3.979   3.256
 2848SOL     OW 2234   3.588   3.859   2.385
 2848SOL    HW1 2235   3.661   3.842   2.318
 2848SOL    HW2 2236   3.557   3.772   2.423
 2851SOL     OW 2237   2.125   4.050   2.582
 2851SOL    HW1 2238   2.046   4.101   2.548
 2851SOL    HW2 2239   2.116   4.035   2.680
 2855SOL     OW 2240   2.876   3.960   2.833
 2855SOL    HW1 2241   2.868   3.924   2.740
 2855SOL    HW2 2242   2.874   3.884   2.898
 2858SOL     OW 2243   2.534   3.927   3.351
 2858SOL    HW1 2244   2.624   3.911   3.311
 2858SOL    HW2 2245   2.542   3.932   3.450
 2859SOL     OW 2246   1.937   4.069   1.895
 2859SOL    HW1 2247   1.845   4.041   1.866
 2859SOL    HW2 2248   1.968   4.146   1.839
 2861SOL     OW 2249   1.934   3.890   2.180
 2861SOL    HW1 2250   1.917   3.973   2.126
 2861SOL    HW2 2251   2.024   3.853   2.158
 2866SOL     OW 2252   3.087   4.049   2.311
 2866SOL    HW1 2253   3.152   3.975   2.300
 2866SOL    HW2 2254   3.107   4.099   2.395
 2874SOL     OW 2255   2.290   4.148   2.382
 2874SOL    HW1 2256   2.320   4.076   2.320
 2874SOL    HW2 2257   2.251   4.108   2.465
 2876SOL     OW 2258   3.286   3.938   2.974
 2876SOL    HW1 2259   3.338   3.873   3.029
 2876SOL    HW2 2260   3.237   4.001   3.035
 2877SOL     OW 2261   2.863   3.758   3.016
 2877SOL    HW1 2262   2.800   3.686   2.985
 2877SOL    HW2 2263   2.956   3.722   3.016
 2879SOL     OW 2264   3.214   3.776   2.030
 2879SOL    HW1 2265   3.249   3.735   1.946
 2879SOL    HW2 2266   3.124   3.738   2.050
 2881SOL     OW 2267   3.455   3.945   2.744
 2881SOL    HW1 2268   3.371   3.944   2.798
 2881SOL    HW2 2269   3.457   4.028   2.688
 3006SOL     OW 2270   3.854   1.821   1.571
 3006SOL    HW1 2271   3.844   1.806   1.670
 3006SOL    HW2 2272   3.768   1.857   1.535
 3080SOL     OW 2273   3.854   1.794   1.851
 3080SOL    HW1 2274   3.813   1.720   1.904
 3080SOL    HW2 2275   3.918   1.845   1.909
 3123SOL     OW 2276   3.955   1.713   2.345
 3123SOL    HW1 2277   3.989   1.790   2.399
 3123SOL    HW2 2278   3.999   1.713   2.255
 3130SOL     OW 2279   3.751   1.596   1.979
 3130SOL    HW1 2280   3.732   1.500   2.000
 3130SOL    HW2 2281   3.718   1.654   2.054
 3146SOL     OW 2282   4.075   1.801   2.715
 3146SOL    HW1 2283   4.125   1.715   2.721
 3146SOL    HW2 2284   4.140   1.878   2.712
 3151SOL     OW 2285   3.973   1.785   3.103
 3151SOL    HW1 2286   4.030   1.720   3.153
 3151SOL    HW2 2287   3.957   1.752   3.010
 3177SOL     OW 2288   3.788   1.564   3.193
 3177SOL    HW1 2289   3.742   1.646   3.159
 3177SOL    HW2 2290   3.886   1.583   3.202
 3201SOL     OW 2291   3.732   1.326   2.062
 3201SOL    HW1 2292   3.639   1.347   2.031
 3201SOL    HW2 2293   3.742   1.227   2.075
 3202SOL     OW 2294   3.812   1.801   2.789
 3202SOL    HW1 2295   3.770   1.715   2.762
 3202SOL    HW2 2296   3.906   1.804   2.755
 3359SOL     OW 2297   3.837   2.599   1.597
 3359SOL    HW1 2298   3.925   2.586   1.642
 3359SOL    HW2 2299   3.824   2.696   1.575
 3363SOL     OW 2300   4.041   2.113   1.801
 3363SOL    HW1 2301   4.112   2.184   1.807
 3363SOL    HW2 2302   3.953   2.152   1.829
 3377SOL     OW 2303   3.926   2.147   1.498
 3377SOL    HW1 2304   3.846   2.207   1.485
 3377SOL    HW2 2305   3.916   2.098   1.584
 3394SOL     OW 2306   3.802   2.418   1.386
 3394SOL    HW1 2307   3.894   2.417   1.345
 3394SOL    HW2 2308   3.796   2.492   1.453
 3422SOL     OW 2309   4.074   2.760   1.804
 3422SOL    HW1 2310   4.150   2.804   1.852
 3422SOL    HW2 2311   4.109   2.713   1.722
 3433SOL     OW 2312   3.913   2.382   1.722
 3433SOL    HW1 2313   3.972   2.342   1.652
 3433SOL    HW2 2314   3.855   2.453   1.681
 3455SOL     OW 2315   3.829   2.875   1.726
 3455SOL    HW1 2316   3.752   2.842   1.780
 3455SOL    HW2 2317   3.914   2.845   1.768
 3466SOL     OW 2318   3.945   3.176   1.844
 3466SOL    HW1 2319   3.880   3.103   1.823
 3466SOL    HW2 2320   3.949   3.190   1.942
 3477SOL     OW 2321   3.954   2.490   1.975
 3477SOL    HW1 2322   3.861   2.488   2.012
 3477SOL    HW2 2323   3.955   2.451   1.883
 3478SOL     OW 2324   3.949   2.137   2.858
 3478SOL    HW1 2325   3.984   2.120   2.950
 3478SOL    HW2 2326   3.861   2.092   2.846
 3479SOL     OW 2327   3.743   2.230   2.509
 3479SOL    HW1 2328   3.661   2.273   2.548
 3479SOL    HW2 2329   3.715   2.157   2.446
 3489SOL     OW 2330   3.954   3.296   2.400
 3489SOL    HW1 2331   3.928   3.392   2.400
 3489SOL    HW2 2332   3.883   3.242   2.445
 3490SOL     OW 2333   3.964   2.953   2.748
 3490SOL    HW1 2334   3.978   2.869   2.800
 3490SOL    HW2 2335   3.909   3.017   2.803
 3493SOL     OW 2336   3.846   2.505   2.425
 3493SOL    HW1 2337   3.801   2.417   2.442
 3493SOL    HW2 2338   3.845   2.559   2.509
 3494SOL     OW 2339   3.751   3.458   1.979
 3494SOL    HW1 2340   3.732   3.362   2.000
 3494SOL    HW2 2341   3.718   3.516   2.054
 3495SOL     OW 2342   3.837   2.599   3.459
 3495SOL    HW1 2343   3.925   2.586   3.504
 3495SOL    HW2 2344   3.824   2.696   3.437
 3498SOL     OW 2345   3.921   2.838   3.126
 3498SOL    HW1 2346   4.010   2.793   3.112
 3498SOL    HW2 2347   3.848   2.773   3.107
 3505SOL     OW 2348   3.800   2.673   2.651
 3505SOL    HW1 2349   3.899   2.661   2.660
 3505SOL    HW2 2350   3.776   2.768   2.672
 3511SOL     OW 2351   4.045   2.805   2.104
 3511SOL    HW1 2352   4.127   2.844   2.062
 3511SOL    HW2 2353   4.018   2.723   2.055
 3513SOL     OW 2354   3.926   2.147   3.360
 3513SOL    HW1 2355   3.846   2.207   3.347
 3513SOL    HW2 2356   3.916   2.098   3.446
 3517SOL     OW 2357   4.106   2.562   2.342
 3517SOL    HW1 2358   4.151   2.472   2.339
 3517SOL    HW2 2359   4.012   2.551   2.375
 3524SOL     OW 2360   4.021   1.897   2.033
 3524SOL    HW1 2361   4.070   1.981   2.012
 3524SOL    HW2 2362   4.083   1.832   2.078
 3530SOL     OW 2363   3.802   2.418   3.248
 3530SOL    HW1 2364   3.894   2.417   3.207
 3530SOL    HW2 2365   3.796   2.492   3.315
 3540SOL     OW 2366   4.134   2.675   3.113
 3540SOL    HW1 2367   4.220   2.687   3.163
 3540SOL    HW2 2368   4.092   2.588   3.140
 3541SOL     OW 2369   3.788   3.426   3.193
 3541SOL    HW1 2370   3.742   3.508   3.159
 3541SOL    HW2 2371   3.886   3.445   3.202
 3542SOL     OW 2372   4.091   2.962   2.363
 3542SOL    HW1 2373   4.084   3.045   2.307
 3542SOL    HW2 2374   4.095   2.882   2.303
 3552SOL     OW 2375   4.031   2.075   3.093
 3552SOL    HW1 2376   4.008   2.112   3.183
 3552SOL    HW2 2377   4.001   1.980   3.087
 3553SOL     OW 2378   3.761   3.172   3.144
 3553SOL    HW1 2379   3.814   3.123   3.212
 3553SOL    HW2 2380   3.783   3.270   3.149
 3555SOL     OW 2381   4.031   1.925   2.480
 3555SOL    HW1 2382   4.020   2.019   2.513
 3555SOL    HW2 2383   4.026   1.862   2.557
 3561SOL     OW 2384   4.043   2.672   2.811
 3561SOL    HW1 2385   4.136   2.708   2.816
 3561SOL    HW2 2386   4.037   2.587   2.863
 3562SOL     OW 2387   4.063   2.371   2.868
 3562SOL    HW1 2388   4.011   2.288   2.851
 3562SOL    HW2 2389   4.140   2.376   2.804
 3565SOL     OW 2390   3.732   3.188   2.062
 3565SOL    HW1 2391   3.639   3.209   2.031
 3565SOL    HW2 2392   3.742   3.089   2.075
 3569SOL     OW 2393   3.764   2.406   2.976
 3569SOL    HW1 2394   3.849   2.373   2.935
 3569SOL    HW2 2395   3.777   2.421   3.074
 3575SOL     OW 2396   4.197   2.362   2.053
 3575SOL    HW1 2397   4.258   2.442   2.057
 3575SOL    HW2 2398   4.102   2.393   2.060
 3576SOL     OW 2399   3.883   2.999   3.328
 3576SOL    HW1 2400   3.905   2.938   3.404
 3576SOL    HW2 2401   3.893   2.950   3.242
 3578SOL     OW 2402   3.807   3.120   2.884
 3578SOL    HW1 2403   3.802   3.119   2.984
 3578SOL    HW2 2404   3.724   3.079   2.846
 3583SOL     OW 2405   3.987   2.188   2.582
 3583SOL    HW1 2406   3.908   2.239   2.548
 3583SOL    HW2 2407   3.978   2.173   2.680
 3590SOL     OW 2408   3.979   3.210   2.152
 3590SOL    HW1 2409   3.883   3.211   2.125
 3590SOL    HW2 2410   3.991   3.263   2.236
 3593SOL     OW 2411   3.799   2.207   1.895
 3593SOL    HW1 2412   3.707   2.179   1.866
 3593SOL    HW2 2413   3.830   2.284   1.839
 3594SOL     OW 2414   3.796   2.028   2.180
 3594SOL    HW1 2415   3.779   2.111   2.126
 3594SOL    HW2 2416   3.886   1.991   2.158
 3604SOL     OW 2417   3.803   3.102   2.515
 3604SOL    HW1 2418   3.802   3.055   2.603
 3604SOL    HW2 2419   3.885   3.074   2.464
 3606SOL     OW 2420   4.152   2.286   2.382
 3606SOL    HW1 2421   4.182   2.214   2.320
 3606SOL    HW2 2422   4.113   2.246   2.465
 3607SOL     OW 2423   4.041   2.409   3.142
 3607SOL    HW1 2424   4.079   2.350   3.214
 3607SOL    HW2 2425   4.081   2.383   3.054
 3612SOL     OW 2426   3.763   2.939   2.162
 3612SOL    HW1 2427   3.862   2.928   2.153
 3612SOL    HW2 2428   3.723   2.853   2.194
   4.93696   4.93696   4.93696
