mobley_8337722_GMX.gro created by acpype (v: 2023.10.27) on Thu May 21 00:12:37 2026
 2425
    1MOL     C1    1   2.362   2.413   2.238
    1MOL     C2    2   2.328   2.356   2.376
    1MOL     C3    3   2.557   2.538   2.338
    1MOL     C4    4   2.511   2.444   2.225
    1MOL     C5    5   2.374   2.448   2.489
    1MOL     C6    6   2.524   2.481   2.476
    1MOL     C7    7   2.542   2.506   2.089
    1MOL     C8    8   2.191   2.365   2.640
    1MOL     C9    9   2.416   2.253   2.641
    1MOL    C10   10   2.342   2.385   2.625
    1MOL     O1   11   2.560   2.577   2.575
    1MOL     H1   12   2.332   2.342   2.161
    1MOL     H2   13   2.303   2.505   2.222
    1MOL     H3   14   2.220   2.339   2.382
    1MOL     H4   15   2.375   2.257   2.386
    1MOL     H5   16   2.665   2.555   2.331
    1MOL     H6   17   2.511   2.636   2.327
    1MOL     H7   18   2.567   2.350   2.233
    1MOL     H8   19   2.317   2.542   2.483
    1MOL     H9   20   2.583   2.390   2.494
    1MOL    H10   21   2.488   2.600   2.078
    1MOL    H11   22   2.511   2.438   2.010
    1MOL    H12   23   2.649   2.525   2.080
    1MOL    H13   24   2.152   2.297   2.564
    1MOL    H14   25   2.138   2.460   2.631
    1MOL    H15   26   2.168   2.323   2.739
    1MOL    H16   27   2.386   2.180   2.565
    1MOL    H17   28   2.396   2.209   2.739
    1MOL    H18   29   2.524   2.267   2.632
    1MOL    H19   30   2.376   2.454   2.703
    1MOL    H20   31   2.655   2.591   2.566
   14SOL     OW   32   1.460   1.505   1.339
   14SOL    HW1   33   1.484   1.599   1.365
   14SOL    HW2   34   1.444   1.451   1.421
   35SOL     OW   35   1.187   1.792   1.616
   35SOL    HW1   36   1.211   1.852   1.540
   35SOL    HW2   37   1.194   1.697   1.586
   56SOL     OW   38   1.227   1.550   1.506
   56SOL    HW1   39   1.233   1.473   1.570
   56SOL    HW2   40   1.175   1.524   1.426
   95SOL     OW   41   1.754   1.223   1.588
   95SOL    HW1   42   1.845   1.184   1.575
   95SOL    HW2   43   1.762   1.319   1.612
   97SOL     OW   44   1.592   1.629   1.625
   97SOL    HW1   45   1.619   1.663   1.535
   97SOL    HW2   46   1.671   1.591   1.671
  122SOL     OW   47   1.728   0.935   1.854
  122SOL    HW1   48   1.682   0.928   1.765
  122SOL    HW2   49   1.666   0.979   1.920
  127SOL     OW   50   1.859   1.518   1.605
  127SOL    HW1   51   1.873   1.545   1.510
  127SOL    HW2   52   1.942   1.540   1.658
  152SOL     OW   53   1.759   1.747   1.154
  152SOL    HW1   54   1.820   1.777   1.081
  152SOL    HW2   55   1.721   1.658   1.132
  163SOL     OW   56   1.650   1.720   1.394
  163SOL    HW1   57   1.703   1.730   1.310
  163SOL    HW2   58   1.623   1.810   1.428
  171SOL     OW   59   1.614   1.292   1.289
  171SOL    HW1   60   1.674   1.295   1.369
  171SOL    HW2   61   1.539   1.356   1.302
  186SOL     OW   62   1.450   1.220   1.633
  186SOL    HW1   63   1.441   1.210   1.732
  186SOL    HW2   64   1.546   1.213   1.607
  203SOL     OW   65   1.705   1.487   1.104
  203SOL    HW1   66   1.612   1.462   1.077
  203SOL    HW2   67   1.731   1.437   1.186
  219SOL     OW   68   1.555   1.511   2.565
  219SOL    HW1   69   1.498   1.495   2.646
  219SOL    HW2   70   1.496   1.521   2.485
  227SOL     OW   71   1.460   1.505   3.201
  227SOL    HW1   72   1.484   1.599   3.227
  227SOL    HW2   73   1.444   1.451   3.283
  238SOL     OW   74   1.842   1.767   2.221
  238SOL    HW1   75   1.896   1.738   2.301
  238SOL    HW2   76   1.872   1.857   2.192
  240SOL     OW   77   1.689   0.922   2.474
  240SOL    HW1   78   1.784   0.893   2.482
  240SOL    HW2   79   1.681   0.987   2.399
  241SOL     OW   80   1.641   1.108   2.294
  241SOL    HW1   81   1.727   1.110   2.242
  241SOL    HW2   82   1.655   1.155   2.382
  247SOL     OW   83   1.525   0.999   2.052
  247SOL    HW1   84   1.462   0.923   2.065
  247SOL    HW2   85   1.573   1.017   2.138
  248SOL     OW   86   1.187   1.792   3.478
  248SOL    HW1   87   1.211   1.852   3.402
  248SOL    HW2   88   1.194   1.697   3.448
  250SOL     OW   89   1.466   1.417   2.815
  250SOL    HW1   90   1.407   1.423   2.895
  250SOL    HW2   91   1.451   1.329   2.769
  251SOL     OW   92   1.667   1.714   2.434
  251SOL    HW1   93   1.626   1.691   2.346
  251SOL    HW2   94   1.649   1.640   2.499
  254SOL     OW   95   1.576   1.662   2.169
  254SOL    HW1   96   1.665   1.708   2.172
  254SOL    HW2   97   1.555   1.638   2.074
  264SOL     OW   98   1.362   1.144   2.407
  264SOL    HW1   99   1.445   1.115   2.359
  264SOL    HW2  100   1.313   1.211   2.351
  266SOL     OW  101   1.008   1.456   2.339
  266SOL    HW1  102   0.962   1.528   2.287
  266SOL    HW2  103   1.004   1.476   2.437
  268SOL     OW  104   1.795   1.066   2.735
  268SOL    HW1  105   1.733   1.051   2.659
  268SOL    HW2  106   1.743   1.077   2.820
  269SOL     OW  107   1.227   1.550   3.368
  269SOL    HW1  108   1.233   1.473   3.432
  269SOL    HW2  109   1.175   1.524   3.288
  273SOL     OW  110   1.111   1.776   2.099
  273SOL    HW1  111   1.051   1.714   2.149
  273SOL    HW2  112   1.142   1.732   2.014
  275SOL     OW  113   1.632   1.377   1.943
  275SOL    HW1  114   1.600   1.471   1.933
  275SOL    HW2  115   1.556   1.314   1.931
  279SOL     OW  116   0.940   1.698   2.766
  279SOL    HW1  117   1.020   1.641   2.787
  279SOL    HW2  118   0.891   1.658   2.689
  289SOL     OW  119   1.434   1.188   1.903
  289SOL    HW1  120   1.466   1.112   1.960
  289SOL    HW2  121   1.342   1.215   1.933
  293SOL     OW  122   1.227   1.570   2.655
  293SOL    HW1  123   1.248   1.644   2.590
  293SOL    HW2  124   1.295   1.570   2.728
  295SOL     OW  125   1.271   1.797   2.453
  295SOL    HW1  126   1.315   1.861   2.389
  295SOL    HW2  127   1.221   1.849   2.523
  301SOL     OW  128   1.429   1.173   2.729
  301SOL    HW1  129   1.374   1.089   2.722
  301SOL    HW2  130   1.455   1.202   2.637
  303SOL     OW  131   1.857   0.833   2.239
  303SOL    HW1  132   1.899   0.769   2.303
  303SOL    HW2  133   1.819   0.782   2.161
  305SOL     OW  134   1.664   1.280   2.519
  305SOL    HW1  135   1.763   1.288   2.533
  305SOL    HW2  136   1.619   1.364   2.550
  308SOL     OW  137   1.754   1.223   3.450
  308SOL    HW1  138   1.845   1.184   3.437
  308SOL    HW2  139   1.762   1.319   3.474
  310SOL     OW  140   1.592   1.629   3.487
  310SOL    HW1  141   1.619   1.663   3.397
  310SOL    HW2  142   1.671   1.591   3.533
  312SOL     OW  143   1.638   1.099   2.941
  312SOL    HW1  144   1.643   1.180   3.000
  312SOL    HW2  145   1.552   1.101   2.890
  321SOL     OW  146   1.252   1.348   2.250
  321SOL    HW1  147   1.302   1.425   2.290
  321SOL    HW2  148   1.157   1.350   2.282
  322SOL     OW  149   1.272   1.445   3.004
  322SOL    HW1  150   1.319   1.458   3.091
  322SOL    HW2  151   1.206   1.371   3.013
  340SOL     OW  152   1.859   1.518   3.467
  340SOL    HW1  153   1.873   1.545   3.372
  340SOL    HW2  154   1.942   1.540   3.520
  344SOL     OW  155   1.068   1.333   2.711
  344SOL    HW1  156   1.075   1.249   2.656
  344SOL    HW2  157   1.130   1.402   2.675
  365SOL     OW  158   1.759   1.747   3.016
  365SOL    HW1  159   1.820   1.777   2.943
  365SOL    HW2  160   1.721   1.658   2.994
  366SOL     OW  161   1.252   1.731   2.990
  366SOL    HW1  162   1.336   1.736   2.936
  366SOL    HW2  163   1.229   1.635   3.008
  370SOL     OW  164   1.388   1.573   2.339
  370SOL    HW1  165   1.455   1.585   2.265
  370SOL    HW2  166   1.348   1.662   2.362
  375SOL     OW  167   1.650   1.720   3.256
  375SOL    HW1  168   1.703   1.730   3.172
  375SOL    HW2  169   1.623   1.810   3.290
  378SOL     OW  170   1.194   1.612   1.893
  378SOL    HW1  171   1.200   1.519   1.930
  378SOL    HW2  172   1.135   1.612   1.813
  381SOL     OW  173   1.504   1.607   1.906
  381SOL    HW1  174   1.412   1.644   1.913
  381SOL    HW2  175   1.542   1.627   1.816
  383SOL     OW  176   1.614   1.292   3.151
  383SOL    HW1  177   1.674   1.295   3.231
  383SOL    HW2  178   1.539   1.356   3.164
  394SOL     OW  179   1.183   1.335   1.981
  394SOL    HW1  180   1.084   1.324   1.983
  394SOL    HW2  181   1.217   1.350   2.074
  396SOL     OW  182   1.493   1.767   2.821
  396SOL    HW1  183   1.526   1.831   2.752
  396SOL    HW2  184   1.559   1.761   2.896
  409SOL     OW  185   1.861   1.569   2.713
  409SOL    HW1  186   1.790   1.557   2.643
  409SOL    HW2  187   1.862   1.490   2.773
  415SOL     OW  188   1.705   1.487   2.966
  415SOL    HW1  189   1.612   1.462   2.939
  415SOL    HW2  190   1.731   1.437   3.048
  426SOL     OW  191   0.875   1.646   2.199
  426SOL    HW1  192   0.798   1.611   2.145
  426SOL    HW2  193   0.843   1.717   2.261
  561SOL     OW  194   0.850   2.660   1.823
  561SOL    HW1  195   0.846   2.736   1.888
  561SOL    HW2  196   0.872   2.696   1.732
  565SOL     OW  197   1.460   3.367   1.339
  565SOL    HW1  198   1.484   3.461   1.365
  565SOL    HW2  199   1.444   3.313   1.421
  569SOL     OW  200   1.127   3.203   1.690
  569SOL    HW1  201   1.174   3.203   1.778
  569SOL    HW2  202   1.079   3.116   1.679
  574SOL     OW  203   1.594   1.976   1.480
  574SOL    HW1  204   1.576   2.043   1.408
  574SOL    HW2  205   1.591   2.022   1.569
  582SOL     OW  206   1.293   3.090   1.423
  582SOL    HW1  207   1.330   3.017   1.365
  582SOL    HW2  208   1.345   3.095   1.508
  594SOL     OW  209   1.394   2.331   1.674
  594SOL    HW1  210   1.374   2.374   1.762
  594SOL    HW2  211   1.472   2.269   1.683
  595SOL     OW  212   0.973   2.752   1.572
  595SOL    HW1  213   1.019   2.668   1.543
  595SOL    HW2  214   0.917   2.786   1.497
  601SOL     OW  215   1.719   2.447   1.831
  601SOL    HW1  216   1.693   2.536   1.795
  601SOL    HW2  217   1.717   2.379   1.758
  606SOL     OW  218   1.795   2.928   0.873
  606SOL    HW1  219   1.733   2.913   0.797
  606SOL    HW2  220   1.743   2.939   0.958
  619SOL     OW  221   1.547   2.084   1.729
  619SOL    HW1  222   1.542   2.121   1.821
  619SOL    HW2  223   1.475   2.015   1.717
  621SOL     OW  224   0.781   2.126   1.749
  621SOL    HW1  225   0.848   2.065   1.792
  621SOL    HW2  226   0.708   2.145   1.814
  623SOL     OW  227   1.351   2.452   1.433
  623SOL    HW1  228   1.379   2.409   1.518
  623SOL    HW2  229   1.376   2.548   1.434
  629SOL     OW  230   1.076   2.545   1.464
  629SOL    HW1  231   0.996   2.484   1.467
  629SOL    HW2  232   1.157   2.492   1.440
  639SOL     OW  233   1.466   2.452   0.992
  639SOL    HW1  234   1.436   2.357   0.999
  639SOL    HW2  235   1.539   2.468   1.058
  645SOL     OW  236   1.754   3.085   1.588
  645SOL    HW1  237   1.845   3.046   1.575
  645SOL    HW2  238   1.762   3.181   1.612
  647SOL     OW  239   1.592   3.491   1.625
  647SOL    HW1  240   1.619   3.525   1.535
  647SOL    HW2  241   1.671   3.453   1.671
  649SOL     OW  242   1.638   2.961   1.079
  649SOL    HW1  243   1.643   3.042   1.138
  649SOL    HW2  244   1.552   2.963   1.028
  651SOL     OW  245   0.980   2.978   1.719
  651SOL    HW1  246   0.881   2.984   1.729
  651SOL    HW2  247   1.003   2.898   1.663
  654SOL     OW  248   1.274   2.248   1.262
  654SOL    HW1  249   1.295   2.322   1.326
  654SOL    HW2  250   1.185   2.265   1.219
  663SOL     OW  251   1.587   2.641   1.670
  663SOL    HW1  252   1.495   2.679   1.665
  663SOL    HW2  253   1.647   2.688   1.605
  664SOL     OW  254   1.013   1.967   1.770
  664SOL    HW1  255   1.019   2.052   1.718
  664SOL    HW2  256   1.045   1.891   1.713
  667SOL     OW  257   1.360   2.724   1.045
  667SOL    HW1  258   1.285   2.724   0.979
  667SOL    HW2  259   1.397   2.632   1.054
  672SOL     OW  260   1.728   2.797   1.854
  672SOL    HW1  261   1.682   2.790   1.765
  672SOL    HW2  262   1.666   2.841   1.920
  677SOL     OW  263   1.859   3.380   1.605
  677SOL    HW1  264   1.873   3.407   1.510
  677SOL    HW2  265   1.942   3.402   1.658
  684SOL     OW  266   1.138   2.242   1.678
  684SOL    HW1  267   1.093   2.305   1.742
  684SOL    HW2  268   1.231   2.273   1.661
  685SOL     OW  269   1.160   2.069   1.477
  685SOL    HW1  270   1.160   2.133   1.554
  685SOL    HW2  271   1.188   2.117   1.394
  692SOL     OW  272   1.369   2.812   1.660
  692SOL    HW1  273   1.408   2.901   1.680
  692SOL    HW2  274   1.379   2.792   1.563
  694SOL     OW  275   1.657   2.466   1.206
  694SOL    HW1  276   1.619   2.397   1.268
  694SOL    HW2  277   1.739   2.430   1.162
  700SOL     OW  278   1.347   2.921   1.234
  700SOL    HW1  279   1.371   2.858   1.160
  700SOL    HW2  280   1.257   2.961   1.216
  713SOL     OW  281   1.650   3.582   1.394
  713SOL    HW1  282   1.703   3.592   1.310
  713SOL    HW2  283   1.623   3.672   1.428
  714SOL     OW  284   1.841   2.037   0.963
  714SOL    HW1  285   1.880   1.952   0.927
  714SOL    HW2  286   1.743   2.039   0.944
  721SOL     OW  287   1.614   3.154   1.289
  721SOL    HW1  288   1.674   3.157   1.369
  721SOL    HW2  289   1.539   3.218   1.302
  725SOL     OW  290   1.709   2.247   1.381
  725SOL    HW1  291   1.782   2.316   1.385
  725SOL    HW2  292   1.737   2.172   1.322
  730SOL     OW  293   1.440   2.718   1.398
  730SOL    HW1  294   1.383   2.770   1.335
  730SOL    HW2  295   1.536   2.730   1.374
  736SOL     OW  296   1.450   3.082   1.633
  736SOL    HW1  297   1.441   3.072   1.732
  736SOL    HW2  298   1.546   3.075   1.607
  738SOL     OW  299   1.674   2.745   1.254
  738SOL    HW1  300   1.647   2.656   1.217
  738SOL    HW2  301   1.675   2.813   1.181
  741SOL     OW  302   1.777   2.204   1.642
  741SOL    HW1  303   1.760   2.235   1.548
  741SOL    HW2  304   1.693   2.167   1.680
  742SOL     OW  305   1.730   2.796   1.517
  742SOL    HW1  306   1.768   2.887   1.532
  742SOL    HW2  307   1.722   2.779   1.418
  751SOL     OW  308   1.824   2.054   1.227
  751SOL    HW1  309   1.820   1.964   1.271
  751SOL    HW2  310   1.827   2.043   1.128
  753SOL     OW  311   1.705   3.349   1.104
  753SOL    HW1  312   1.612   3.324   1.077
  753SOL    HW2  313   1.731   3.299   1.186
  756SOL     OW  314   1.424   2.076   1.112
  756SOL    HW1  315   1.476   2.011   1.167
  756SOL    HW2  316   1.375   2.139   1.173
  762SOL     OW  317   1.593   2.083   0.882
  762SOL    HW1  318   1.509   2.082   0.936
  762SOL    HW2  319   1.595   2.166   0.826
  769SOL     OW  320   1.555   3.373   2.565
  769SOL    HW1  321   1.498   3.357   2.646
  769SOL    HW2  322   1.496   3.383   2.485
  770SOL     OW  323   1.135   2.565   2.579
  770SOL    HW1  324   1.192   2.643   2.554
  770SOL    HW2  325   1.075   2.591   2.655
  771SOL     OW  326   1.755   2.469   2.093
  771SOL    HW1  327   1.743   2.456   1.994
  771SOL    HW2  328   1.725   2.388   2.142
  774SOL     OW  329   0.685   2.874   2.527
  774SOL    HW1  330   0.754   2.858   2.597
  774SOL    HW2  331   0.612   2.931   2.565
  777SOL     OW  332   1.460   3.367   3.201
  777SOL    HW1  333   1.484   3.461   3.227
  777SOL    HW2  334   1.444   3.313   3.283
  779SOL     OW  335   1.603   2.309   2.599
  779SOL    HW1  336   1.529   2.355   2.549
  779SOL    HW2  337   1.654   2.377   2.652
  786SOL     OW  338   1.594   1.976   3.342
  786SOL    HW1  339   1.576   2.043   3.270
  786SOL    HW2  340   1.591   2.022   3.431
  788SOL     OW  341   1.842   3.629   2.221
  788SOL    HW1  342   1.896   3.600   2.301
  788SOL    HW2  343   1.872   3.719   2.192
  790SOL     OW  344   1.689   2.784   2.474
  790SOL    HW1  345   1.784   2.755   2.482
  790SOL    HW2  346   1.681   2.849   2.399
  791SOL     OW  347   1.641   2.970   2.294
  791SOL    HW1  348   1.727   2.972   2.242
  791SOL    HW2  349   1.655   3.017   2.382
  794SOL     OW  350   1.293   3.090   3.285
  794SOL    HW1  351   1.330   3.017   3.227
  794SOL    HW2  352   1.345   3.095   3.370
  795SOL     OW  353   0.809   1.866   2.364
  795SOL    HW1  354   0.849   1.957   2.355
  795SOL    HW2  355   0.709   1.874   2.370
  797SOL     OW  356   1.525   2.861   2.052
  797SOL    HW1  357   1.462   2.785   2.065
  797SOL    HW2  358   1.573   2.879   2.138
  800SOL     OW  359   1.466   3.279   2.815
  800SOL    HW1  360   1.407   3.285   2.895
  800SOL    HW2  361   1.451   3.191   2.769
  801SOL     OW  362   1.667   3.576   2.434
  801SOL    HW1  363   1.626   3.553   2.346
  801SOL    HW2  364   1.649   3.502   2.499
  803SOL     OW  365   1.281   2.207   2.806
  803SOL    HW1  366   1.195   2.157   2.793
  803SOL    HW2  367   1.343   2.153   2.862
  804SOL     OW  368   1.576   3.524   2.169
  804SOL    HW1  369   1.665   3.570   2.172
  804SOL    HW2  370   1.555   3.500   2.074
  806SOL     OW  371   1.394   2.331   3.536
  806SOL    HW1  372   1.374   2.374   3.624
  806SOL    HW2  373   1.472   2.269   3.545
  807SOL     OW  374   0.973   2.752   3.434
  807SOL    HW1  375   1.019   2.668   3.405
  807SOL    HW2  376   0.917   2.786   3.359
  808SOL     OW  377   0.991   2.272   3.104
  808SOL    HW1  378   0.914   2.306   3.158
  808SOL    HW2  379   0.957   2.221   3.025
  809SOL     OW  380   1.041   2.563   2.291
  809SOL    HW1  381   1.067   2.559   2.387
  809SOL    HW2  382   0.956   2.512   2.277
  812SOL     OW  383   0.865   2.210   2.057
  812SOL    HW1  384   0.924   2.273   2.008
  812SOL    HW2  385   0.884   2.116   2.028
  813SOL     OW  386   1.719   2.447   3.693
  813SOL    HW1  387   1.693   2.536   3.657
  813SOL    HW2  388   1.717   2.379   3.620
  814SOL     OW  389   1.362   3.006   2.407
  814SOL    HW1  390   1.445   2.977   2.359
  814SOL    HW2  391   1.313   3.073   2.351
  816SOL     OW  392   1.008   3.318   2.339
  816SOL    HW1  393   0.962   3.390   2.287
  816SOL    HW2  394   1.004   3.338   2.437
  818SOL     OW  395   1.795   2.928   2.735
  818SOL    HW1  396   1.733   2.913   2.659
  818SOL    HW2  397   1.743   2.939   2.820
  821SOL     OW  398   1.458   2.597   2.590
  821SOL    HW1  399   1.453   2.532   2.665
  821SOL    HW2  400   1.538   2.656   2.603
  825SOL     OW  401   1.632   3.239   1.943
  825SOL    HW1  402   1.600   3.333   1.933
  825SOL    HW2  403   1.556   3.176   1.931
  827SOL     OW  404   1.400   1.969   2.288
  827SOL    HW1  405   1.376   1.932   2.198
  827SOL    HW2  406   1.499   1.985   2.292
  831SOL     OW  407   1.547   2.084   3.591
  831SOL    HW1  408   1.542   2.121   3.683
  831SOL    HW2  409   1.475   2.015   3.579
  835SOL     OW  410   1.351   2.452   3.295
  835SOL    HW1  411   1.379   2.409   3.380
  835SOL    HW2  412   1.376   2.548   3.296
  837SOL     OW  413   0.922   2.365   2.761
  837SOL    HW1  414   0.897   2.356   2.665
  837SOL    HW2  415   0.970   2.283   2.792
  839SOL     OW  416   1.434   3.050   1.903
  839SOL    HW1  417   1.466   2.974   1.960
  839SOL    HW2  418   1.342   3.077   1.933
  841SOL     OW  419   0.935   2.098   2.342
  841SOL    HW1  420   0.887   2.139   2.264
  841SOL    HW2  421   1.034   2.096   2.323
  842SOL     OW  422   1.076   2.545   3.326
  842SOL    HW1  423   0.996   2.484   3.329
  842SOL    HW2  424   1.157   2.492   3.302
  843SOL     OW  425   1.227   3.432   2.655
  843SOL    HW1  426   1.248   3.506   2.590
  843SOL    HW2  427   1.295   3.432   2.728
  845SOL     OW  428   1.271   3.659   2.453
  845SOL    HW1  429   1.315   3.723   2.389
  845SOL    HW2  430   1.221   3.711   2.523
  846SOL     OW  431   1.032   2.411   1.878
  846SOL    HW1  432   0.991   2.493   1.839
  846SOL    HW2  433   1.096   2.437   1.951
  849SOL     OW  434   0.866   2.316   2.504
  849SOL    HW1  435   0.834   2.388   2.442
  849SOL    HW2  436   0.890   2.235   2.451
  850SOL     OW  437   1.017   1.901   2.615
  850SOL    HW1  438   0.945   1.906   2.546
  850SOL    HW2  439   0.993   1.832   2.684
  851SOL     OW  440   1.429   3.035   2.729
  851SOL    HW1  441   1.374   2.951   2.722
  851SOL    HW2  442   1.455   3.064   2.637
  852SOL     OW  443   1.466   2.452   2.854
  852SOL    HW1  444   1.436   2.357   2.861
  852SOL    HW2  445   1.539   2.468   2.920
  853SOL     OW  446   1.857   2.695   2.239
  853SOL    HW1  447   1.899   2.631   2.303
  853SOL    HW2  448   1.819   2.644   2.161
  855SOL     OW  449   1.664   3.142   2.519
  855SOL    HW1  450   1.763   3.150   2.533
  855SOL    HW2  451   1.619   3.226   2.550
  856SOL     OW  452   1.390   2.437   1.940
  856SOL    HW1  453   1.336   2.416   2.021
  856SOL    HW2  454   1.481   2.396   1.949
  858SOL     OW  455   1.754   3.085   3.450
  858SOL    HW1  456   1.845   3.046   3.437
  858SOL    HW2  457   1.762   3.181   3.474
  859SOL     OW  458   1.064   3.209   3.202
  859SOL    HW1  459   0.984   3.186   3.257
  859SOL    HW2  460   1.147   3.183   3.251
  860SOL     OW  461   1.592   3.491   3.487
  860SOL    HW1  462   1.619   3.525   3.397
  860SOL    HW2  463   1.671   3.453   3.533
  861SOL     OW  464   1.111   3.057   2.962
  861SOL    HW1  465   1.071   3.101   3.043
  861SOL    HW2  466   1.070   3.094   2.879
  862SOL     OW  467   1.638   2.961   2.941
  862SOL    HW1  468   1.643   3.042   3.000
  862SOL    HW2  469   1.552   2.963   2.890
  863SOL     OW  470   0.915   1.951   3.264
  863SOL    HW1  471   0.940   1.931   3.169
  863SOL    HW2  472   0.987   2.007   3.306
  865SOL     OW  473   0.705   2.912   2.230
  865SOL    HW1  474   0.691   2.919   2.329
  865SOL    HW2  475   0.789   2.861   2.212
  867SOL     OW  476   1.274   2.248   3.124
  867SOL    HW1  477   1.295   2.322   3.188
  867SOL    HW2  478   1.185   2.265   3.081
  871SOL     OW  479   1.252   3.210   2.250
  871SOL    HW1  480   1.302   3.287   2.290
  871SOL    HW2  481   1.157   3.212   2.282
  872SOL     OW  482   1.272   3.307   3.004
  872SOL    HW1  483   1.319   3.320   3.091
  872SOL    HW2  484   1.206   3.233   3.013
  873SOL     OW  485   1.582   2.501   2.334
  873SOL    HW1  486   1.551   2.562   2.407
  873SOL    HW2  487   1.632   2.553   2.265
  876SOL     OW  488   1.587   2.641   3.532
  876SOL    HW1  489   1.495   2.679   3.527
  876SOL    HW2  490   1.647   2.688   3.467
  880SOL     OW  491   1.360   2.724   2.907
  880SOL    HW1  492   1.285   2.724   2.841
  880SOL    HW2  493   1.397   2.632   2.916
  881SOL     OW  494   1.209   2.387   2.137
  881SOL    HW1  495   1.222   2.303   2.191
  881SOL    HW2  496   1.180   2.461   2.197
  884SOL     OW  497   0.732   2.496   2.926
  884SOL    HW1  498   0.791   2.470   2.850
  884SOL    HW2  499   0.704   2.592   2.915
  885SOL     OW  500   1.728   2.797   3.716
  885SOL    HW1  501   1.682   2.790   3.627
  885SOL    HW2  502   1.666   2.841   3.782
  887SOL     OW  503   1.622   2.229   2.236
  887SOL    HW1  504   1.624   2.153   2.300
  887SOL    HW2  505   1.574   2.306   2.276
  888SOL     OW  506   1.023   2.628   2.828
  888SOL    HW1  507   1.038   2.649   2.924
  888SOL    HW2  508   0.993   2.533   2.819
  890SOL     OW  509   1.859   3.380   3.467
  890SOL    HW1  510   1.873   3.407   3.372
  890SOL    HW2  511   1.942   3.402   3.520
  892SOL     OW  512   1.540   2.136   1.987
  892SOL    HW1  513   1.479   2.061   2.010
  892SOL    HW2  514   1.562   2.188   2.070
  893SOL     OW  515   1.303   2.700   1.904
  893SOL    HW1  516   1.337   2.607   1.919
  893SOL    HW2  517   1.321   2.727   1.809
  894SOL     OW  518   1.068   3.195   2.711
  894SOL    HW1  519   1.075   3.111   2.656
  894SOL    HW2  520   1.130   3.264   2.675
  897SOL     OW  521   1.138   2.242   3.540
  897SOL    HW1  522   1.093   2.305   3.604
  897SOL    HW2  523   1.231   2.273   3.523
  898SOL     OW  524   1.160   2.069   3.339
  898SOL    HW1  525   1.160   2.133   3.416
  898SOL    HW2  526   1.188   2.117   3.256
  902SOL     OW  527   1.002   2.658   3.100
  902SOL    HW1  528   1.043   2.626   3.186
  902SOL    HW2  529   0.906   2.631   3.097
  905SOL     OW  530   1.369   2.812   3.522
  905SOL    HW1  531   1.408   2.901   3.542
  905SOL    HW2  532   1.379   2.792   3.425
  906SOL     OW  533   0.815   2.434   2.187
  906SOL    HW1  534   0.822   2.345   2.141
  906SOL    HW2  535   0.721   2.468   2.179
  907SOL     OW  536   1.657   2.466   3.068
  907SOL    HW1  537   1.619   2.397   3.130
  907SOL    HW2  538   1.739   2.430   3.024
  913SOL     OW  539   1.347   2.921   3.096
  913SOL    HW1  540   1.371   2.858   3.022
  913SOL    HW2  541   1.257   2.961   3.078
  914SOL     OW  542   1.302   2.717   2.171
  914SOL    HW1  543   1.216   2.686   2.213
  914SOL    HW2  544   1.298   2.703   2.072
  915SOL     OW  545   1.759   3.609   3.016
  915SOL    HW1  546   1.820   3.639   2.943
  915SOL    HW2  547   1.721   3.520   2.994
  916SOL     OW  548   1.252   3.593   2.990
  916SOL    HW1  549   1.336   3.598   2.936
  916SOL    HW2  550   1.229   3.497   3.008
  919SOL     OW  551   1.726   1.997   2.385
  919SOL    HW1  552   1.799   1.980   2.318
  919SOL    HW2  553   1.695   1.910   2.423
  920SOL     OW  554   1.388   3.435   2.339
  920SOL    HW1  555   1.455   3.447   2.265
  920SOL    HW2  556   1.348   3.524   2.362
  922SOL     OW  557   1.280   2.789   2.534
  922SOL    HW1  558   1.340   2.708   2.536
  922SOL    HW2  559   1.320   2.858   2.474
  925SOL     OW  560   1.650   3.582   3.256
  925SOL    HW1  561   1.703   3.592   3.172
  925SOL    HW2  562   1.623   3.672   3.290
  926SOL     OW  563   1.841   2.037   2.825
  926SOL    HW1  564   1.880   1.952   2.789
  926SOL    HW2  565   1.743   2.039   2.806
  928SOL     OW  566   1.194   3.474   1.893
  928SOL    HW1  567   1.200   3.381   1.930
  928SOL    HW2  568   1.135   3.474   1.813
  930SOL     OW  569   0.916   2.772   2.153
  930SOL    HW1  570   0.979   2.810   2.085
  930SOL    HW2  571   0.956   2.689   2.192
  931SOL     OW  572   1.504   3.469   1.906
  931SOL    HW1  573   1.412   3.506   1.913
  931SOL    HW2  574   1.542   3.489   1.816
  933SOL     OW  575   1.614   3.154   3.151
  933SOL    HW1  576   1.674   3.157   3.231
  933SOL    HW2  577   1.539   3.218   3.164
  934SOL     OW  578   1.039   2.960   2.558
  934SOL    HW1  579   0.969   2.913   2.612
  934SOL    HW2  580   1.098   2.892   2.515
  935SOL     OW  581   1.014   2.098   2.833
  935SOL    HW1  582   1.006   2.062   2.740
  935SOL    HW2  583   1.012   2.022   2.898
  937SOL     OW  584   1.709   2.247   3.243
  937SOL    HW1  585   1.782   2.316   3.247
  937SOL    HW2  586   1.737   2.172   3.184
  942SOL     OW  587   1.440   2.718   3.260
  942SOL    HW1  588   1.383   2.770   3.197
  942SOL    HW2  589   1.536   2.730   3.236
  944SOL     OW  590   1.183   3.197   1.981
  944SOL    HW1  591   1.084   3.186   1.983
  944SOL    HW2  592   1.217   3.212   2.074
  946SOL     OW  593   1.493   3.629   2.821
  946SOL    HW1  594   1.526   3.693   2.752
  946SOL    HW2  595   1.559   3.623   2.896
  948SOL     OW  596   1.450   3.082   3.495
  948SOL    HW1  597   1.441   3.072   3.594
  948SOL    HW2  598   1.546   3.075   3.469
  950SOL     OW  599   1.674   2.745   3.116
  950SOL    HW1  600   1.647   2.656   3.079
  950SOL    HW2  601   1.675   2.813   3.043
  951SOL     OW  602   1.225   2.187   2.311
  951SOL    HW1  603   1.290   2.113   2.300
  951SOL    HW2  604   1.245   2.237   2.395
  953SOL     OW  605   1.777   2.204   3.504
  953SOL    HW1  606   1.760   2.235   3.410
  953SOL    HW2  607   1.693   2.167   3.542
  954SOL     OW  608   1.730   2.796   3.379
  954SOL    HW1  609   1.768   2.887   3.394
  954SOL    HW2  610   1.722   2.779   3.280
  957SOL     OW  611   0.859   2.818   2.723
  957SOL    HW1  612   0.913   2.749   2.771
  957SOL    HW2  613   0.827   2.887   2.789
  958SOL     OW  614   1.083   2.846   1.949
  958SOL    HW1  615   1.060   2.899   1.867
  958SOL    HW2  616   1.164   2.790   1.930
  959SOL     OW  617   1.861   3.431   2.713
  959SOL    HW1  618   1.790   3.419   2.643
  959SOL    HW2  619   1.862   3.352   2.773
  963SOL     OW  620   1.824   2.054   3.089
  963SOL    HW1  621   1.820   1.964   3.133
  963SOL    HW2  622   1.827   2.043   2.990
  965SOL     OW  623   1.705   3.349   2.966
  965SOL    HW1  624   1.612   3.324   2.939
  965SOL    HW2  625   1.731   3.299   3.048
  968SOL     OW  626   1.424   2.076   2.974
  968SOL    HW1  627   1.476   2.011   3.029
  968SOL    HW2  628   1.375   2.139   3.035
  969SOL     OW  629   1.001   1.896   3.016
  969SOL    HW1  630   0.938   1.824   2.985
  969SOL    HW2  631   1.094   1.860   3.016
  972SOL     OW  632   1.352   1.914   2.030
  972SOL    HW1  633   1.387   1.873   1.946
  972SOL    HW2  634   1.262   1.876   2.050
  973SOL     OW  635   1.300   2.315   2.553
  973SOL    HW1  636   1.241   2.395   2.557
  973SOL    HW2  637   1.315   2.280   2.646
  974SOL     OW  638   1.593   2.083   2.744
  974SOL    HW1  639   1.509   2.082   2.798
  974SOL    HW2  640   1.595   2.166   2.688
  982SOL     OW  641   1.755   2.469   3.955
  982SOL    HW1  642   1.743   2.456   3.856
  982SOL    HW2  643   1.725   2.388   4.004
  998SOL     OW  644   1.525   2.861   3.914
  998SOL    HW1  645   1.462   2.785   3.927
  998SOL    HW2  646   1.573   2.879   4.000
 1015SOL     OW  647   1.632   3.239   3.805
 1015SOL    HW1  648   1.600   3.333   3.795
 1015SOL    HW2  649   1.556   3.176   3.793
 1025SOL     OW  650   1.434   3.050   3.765
 1025SOL    HW1  651   1.466   2.974   3.822
 1025SOL    HW2  652   1.342   3.077   3.795
 1036SOL     OW  653   1.857   2.695   4.101
 1036SOL    HW1  654   1.899   2.631   4.165
 1036SOL    HW2  655   1.819   2.644   4.023
 1039SOL     OW  656   1.390   2.437   3.802
 1039SOL    HW1  657   1.336   2.416   3.883
 1039SOL    HW2  658   1.481   2.396   3.811
 1054SOL     OW  659   1.540   2.136   3.849
 1054SOL    HW1  660   1.479   2.061   3.872
 1054SOL    HW2  661   1.562   2.188   3.932
 1055SOL     OW  662   1.303   2.700   3.766
 1055SOL    HW1  663   1.337   2.607   3.781
 1055SOL    HW2  664   1.321   2.727   3.671
 1262SOL     OW  665   1.400   3.831   2.288
 1262SOL    HW1  666   1.376   3.794   2.198
 1262SOL    HW2  667   1.499   3.847   2.292
 1321SOL     OW  668   1.726   3.859   2.385
 1321SOL    HW1  669   1.799   3.842   2.318
 1321SOL    HW2  670   1.695   3.772   2.423
 1323SOL     OW  671   1.841   3.899   2.825
 1323SOL    HW1  672   1.880   3.814   2.789
 1323SOL    HW2  673   1.743   3.901   2.806
 1343SOL     OW  674   1.824   3.916   3.089
 1343SOL    HW1  675   1.820   3.826   3.133
 1343SOL    HW2  676   1.827   3.905   2.990
 1348SOL     OW  677   1.352   3.776   2.030
 1348SOL    HW1  678   1.387   3.735   1.946
 1348SOL    HW2  679   1.262   3.738   2.050
 1350SOL     OW  680   1.593   3.945   2.744
 1350SOL    HW1  681   1.509   3.944   2.798
 1350SOL    HW2  682   1.595   4.028   2.688
 1431SOL     OW  683   2.431   1.275   1.165
 1431SOL    HW1  684   2.338   1.268   1.128
 1431SOL    HW2  685   2.442   1.364   1.209
 1436SOL     OW  686   2.712   0.798   1.823
 1436SOL    HW1  687   2.708   0.874   1.888
 1436SOL    HW2  688   2.734   0.834   1.732
 1438SOL     OW  689   2.548   1.161   1.803
 1438SOL    HW1  690   2.608   1.240   1.817
 1438SOL    HW2  691   2.462   1.192   1.762
 1439SOL     OW  692   2.197   1.435   1.061
 1439SOL    HW1  693   2.119   1.404   1.008
 1439SOL    HW2  694   2.255   1.493   1.004
 1440SOL     OW  695   3.322   1.505   1.339
 1440SOL    HW1  696   3.346   1.599   1.365
 1440SOL    HW2  697   3.306   1.451   1.421
 1444SOL     OW  698   2.989   1.341   1.690
 1444SOL    HW1  699   3.036   1.341   1.778
 1444SOL    HW2  700   2.941   1.254   1.679
 1447SOL     OW  701   2.482   1.786   1.439
 1447SOL    HW1  702   2.390   1.769   1.474
 1447SOL    HW2  703   2.510   1.878   1.465
 1457SOL     OW  704   3.155   1.228   1.423
 1457SOL    HW1  705   3.192   1.155   1.365
 1457SOL    HW2  706   3.207   1.233   1.508
 1461SOL     OW  707   3.049   1.792   1.616
 1461SOL    HW1  708   3.073   1.852   1.540
 1461SOL    HW2  709   3.056   1.697   1.586
 1470SOL     OW  710   2.835   0.890   1.572
 1470SOL    HW1  711   2.881   0.806   1.543
 1470SOL    HW2  712   2.779   0.924   1.497
 1474SOL     OW  713   1.992   1.821   1.571
 1474SOL    HW1  714   1.982   1.806   1.670
 1474SOL    HW2  715   1.906   1.857   1.535
 1480SOL     OW  716   2.213   1.801   0.853
 1480SOL    HW1  717   2.263   1.715   0.859
 1480SOL    HW2  718   2.278   1.878   0.850
 1482SOL     OW  719   3.089   1.550   1.506
 1482SOL    HW1  720   3.095   1.473   1.570
 1482SOL    HW2  721   3.037   1.524   1.426
 1485SOL     OW  722   2.323   1.266   1.727
 1485SOL    HW1  723   2.273   1.267   1.641
 1485SOL    HW2  724   2.260   1.248   1.803
 1491SOL     OW  725   2.111   1.785   1.241
 1491SOL    HW1  726   2.168   1.720   1.291
 1491SOL    HW2  727   2.095   1.752   1.148
 1492SOL     OW  728   2.802   1.698   0.904
 1492SOL    HW1  729   2.882   1.641   0.925
 1492SOL    HW2  730   2.753   1.658   0.827
 1497SOL     OW  731   2.750   1.514   1.195
 1497SOL    HW1  732   2.727   1.489   1.101
 1497SOL    HW2  733   2.811   1.445   1.234
 1522SOL     OW  734   2.926   1.347   1.340
 1522SOL    HW1  735   2.846   1.324   1.395
 1522SOL    HW2  736   3.009   1.321   1.389
 1523SOL     OW  737   3.454   1.629   1.625
 1523SOL    HW1  738   3.481   1.663   1.535
 1523SOL    HW2  739   3.533   1.591   1.671
 1527SOL     OW  740   2.842   1.116   1.719
 1527SOL    HW1  741   2.743   1.122   1.729
 1527SOL    HW2  742   2.865   1.036   1.663
 1531SOL     OW  743   1.926   1.564   1.331
 1531SOL    HW1  744   1.880   1.646   1.297
 1531SOL    HW2  745   2.024   1.583   1.340
 1535SOL     OW  746   3.134   1.445   1.142
 1535SOL    HW1  747   3.181   1.458   1.229
 1535SOL    HW2  748   3.068   1.371   1.151
 1537SOL     OW  749   2.216   1.510   1.329
 1537SOL    HW1  750   2.195   1.466   1.242
 1537SOL    HW2  751   2.313   1.536   1.332
 1546SOL     OW  752   1.899   1.310   1.282
 1546SOL    HW1  753   1.952   1.261   1.350
 1546SOL    HW2  754   1.921   1.408   1.287
 1552SOL     OW  755   2.842   1.573   1.700
 1552SOL    HW1  756   2.822   1.617   1.612
 1552SOL    HW2  757   2.881   1.482   1.684
 1553SOL     OW  758   3.721   1.518   1.605
 1553SOL    HW1  759   3.735   1.545   1.510
 1553SOL    HW2  760   3.804   1.540   1.658
 1554SOL     OW  761   2.212   0.898   1.804
 1554SOL    HW1  762   2.288   0.942   1.852
 1554SOL    HW2  763   2.247   0.851   1.722
 1563SOL     OW  764   1.950   1.801   0.927
 1563SOL    HW1  765   1.908   1.715   0.900
 1563SOL    HW2  766   2.044   1.804   0.893
 1564SOL     OW  767   2.366   1.568   0.910
 1564SOL    HW1  768   2.432   1.642   0.919
 1564SOL    HW2  769   2.410   1.489   0.868
 1571SOL     OW  770   2.114   1.564   1.744
 1571SOL    HW1  771   2.084   1.621   1.820
 1571SOL    HW2  772   2.107   1.467   1.770
 1573SOL     OW  773   2.792   1.678   1.465
 1573SOL    HW1  774   2.768   1.660   1.370
 1573SOL    HW2  775   2.822   1.772   1.475
 1575SOL     OW  776   2.021   1.137   1.466
 1575SOL    HW1  777   2.043   1.076   1.542
 1575SOL    HW2  778   2.031   1.088   1.380
 1579SOL     OW  779   3.114   1.731   1.128
 1579SOL    HW1  780   3.198   1.736   1.074
 1579SOL    HW2  781   3.091   1.635   1.146
 1581SOL     OW  782   2.550   1.662   1.716
 1581SOL    HW1  783   2.494   1.743   1.725
 1581SOL    HW2  784   2.602   1.666   1.630
 1585SOL     OW  785   1.992   1.794   1.851
 1585SOL    HW1  786   1.951   1.720   1.904
 1585SOL    HW2  787   2.056   1.845   1.909
 1587SOL     OW  788   2.692   1.273   1.422
 1587SOL    HW1  789   2.687   1.306   1.517
 1587SOL    HW2  790   2.606   1.292   1.376
 1589SOL     OW  791   3.512   1.720   1.394
 1589SOL    HW1  792   3.565   1.730   1.310
 1589SOL    HW2  793   3.485   1.810   1.428
 1593SOL     OW  794   2.684   1.002   1.372
 1593SOL    HW1  795   2.724   1.001   1.280
 1593SOL    HW2  796   2.694   1.094   1.412
 1596SOL     OW  797   2.234   1.288   1.490
 1596SOL    HW1  798   2.221   1.381   1.456
 1596SOL    HW2  799   2.150   1.236   1.477
 1603SOL     OW  800   1.967   1.013   1.726
 1603SOL    HW1  801   1.890   0.980   1.780
 1603SOL    HW2  802   2.052   0.983   1.768
 1612SOL     OW  803   3.312   1.220   1.633
 1612SOL    HW1  804   3.303   1.210   1.732
 1612SOL    HW2  805   3.408   1.213   1.607
 1613SOL     OW  806   2.252   1.741   1.560
 1613SOL    HW1  807   2.161   1.782   1.558
 1613SOL    HW2  808   2.245   1.647   1.592
 1620SOL     OW  809   2.523   1.790   0.953
 1620SOL    HW1  810   2.477   1.878   0.940
 1620SOL    HW2  811   2.622   1.802   0.946
 1624SOL     OW  812   2.083   1.314   1.844
 1624SOL    HW1  813   2.018   1.241   1.823
 1624SOL    HW2  814   2.087   1.328   1.942
 1626SOL     OW  815   2.534   1.391   1.624
 1626SOL    HW1  816   2.456   1.341   1.662
 1626SOL    HW2  817   2.531   1.486   1.655
 1635SOL     OW  818   2.480   1.567   1.284
 1635SOL    HW1  819   2.475   1.649   1.341
 1635SOL    HW2  820   2.569   1.564   1.239
 1644SOL     OW  821   2.431   1.275   3.027
 1644SOL    HW1  822   2.338   1.268   2.990
 1644SOL    HW2  823   2.442   1.364   3.071
 1645SOL     OW  824   3.417   1.511   2.565
 1645SOL    HW1  825   3.360   1.495   2.646
 1645SOL    HW2  826   3.358   1.521   2.485
 1648SOL     OW  827   2.630   1.144   2.885
 1648SOL    HW1  828   2.552   1.161   2.945
 1648SOL    HW2  829   2.664   1.231   2.849
 1650SOL     OW  830   2.547   1.012   2.527
 1650SOL    HW1  831   2.616   0.996   2.597
 1650SOL    HW2  832   2.474   1.069   2.565
 1651SOL     OW  833   2.548   1.161   3.665
 1651SOL    HW1  834   2.608   1.240   3.679
 1651SOL    HW2  835   2.462   1.192   3.624
 1652SOL     OW  836   2.197   1.435   2.923
 1652SOL    HW1  837   2.119   1.404   2.870
 1652SOL    HW2  838   2.255   1.493   2.866
 1653SOL     OW  839   3.322   1.505   3.201
 1653SOL    HW1  840   3.346   1.599   3.227
 1653SOL    HW2  841   3.306   1.451   3.283
 1656SOL     OW  842   2.093   1.713   2.345
 1656SOL    HW1  843   2.127   1.790   2.399
 1656SOL    HW2  844   2.137   1.713   2.255
 1657SOL     OW  845   2.989   1.341   3.552
 1657SOL    HW1  846   3.036   1.341   3.640
 1657SOL    HW2  847   2.941   1.254   3.541
 1658SOL     OW  848   2.092   1.434   2.400
 1658SOL    HW1  849   2.066   1.530   2.400
 1658SOL    HW2  850   2.021   1.380   2.445
 1659SOL     OW  851   2.102   1.091   2.748
 1659SOL    HW1  852   2.116   1.007   2.800
 1659SOL    HW2  853   2.047   1.155   2.803
 1660SOL     OW  854   2.482   1.786   3.301
 1660SOL    HW1  855   2.390   1.769   3.336
 1660SOL    HW2  856   2.510   1.878   3.327
 1661SOL     OW  857   2.468   0.964   1.985
 1661SOL    HW1  858   2.475   1.048   1.931
 1661SOL    HW2  859   2.514   0.977   2.073
 1664SOL     OW  860   3.704   1.767   2.221
 1664SOL    HW1  861   3.758   1.738   2.301
 1664SOL    HW2  862   3.734   1.857   2.192
 1665SOL     OW  863   1.889   1.596   1.979
 1665SOL    HW1  864   1.870   1.500   2.000
 1665SOL    HW2  865   1.856   1.654   2.054
 1667SOL     OW  866   3.503   1.108   2.294
 1667SOL    HW1  867   3.589   1.110   2.242
 1667SOL    HW2  868   3.517   1.155   2.382
 1669SOL     OW  869   2.475   1.365   2.588
 1669SOL    HW1  870   2.426   1.278   2.597
 1669SOL    HW2  871   2.452   1.408   2.501
 1670SOL     OW  872   3.155   1.228   3.285
 1670SOL    HW1  873   3.192   1.155   3.227
 1670SOL    HW2  874   3.207   1.233   3.370
 1672SOL     OW  875   2.059   0.976   3.126
 1672SOL    HW1  876   2.148   0.931   3.112
 1672SOL    HW2  877   1.986   0.911   3.107
 1673SOL     OW  878   3.387   0.999   2.052
 1673SOL    HW1  879   3.324   0.923   2.065
 1673SOL    HW2  880   3.435   1.017   2.138
 1674SOL     OW  881   3.049   1.792   3.478
 1674SOL    HW1  882   3.073   1.852   3.402
 1674SOL    HW2  883   3.056   1.697   3.448
 1676SOL     OW  884   3.328   1.417   2.815
 1676SOL    HW1  885   3.269   1.423   2.895
 1676SOL    HW2  886   3.313   1.329   2.769
 1677SOL     OW  887   3.529   1.714   2.434
 1677SOL    HW1  888   3.488   1.691   2.346
 1677SOL    HW2  889   3.511   1.640   2.499
 1678SOL     OW  890   2.460   0.729   2.132
 1678SOL    HW1  891   2.484   0.798   2.064
 1678SOL    HW2  892   2.382   0.762   2.186
 1680SOL     OW  893   3.438   1.662   2.169
 1680SOL    HW1  894   3.527   1.708   2.172
 1680SOL    HW2  895   3.417   1.638   2.074
 1685SOL     OW  896   2.903   0.701   2.291
 1685SOL    HW1  897   2.929   0.697   2.387
 1685SOL    HW2  898   2.818   0.650   2.277
 1686SOL     OW  899   1.938   0.811   2.651
 1686SOL    HW1  900   2.037   0.799   2.660
 1686SOL    HW2  901   1.914   0.906   2.672
 1687SOL     OW  902   1.992   1.821   3.433
 1687SOL    HW1  903   1.982   1.806   3.532
 1687SOL    HW2  904   1.906   1.857   3.397
 1690SOL     OW  905   3.224   1.144   2.407
 1690SOL    HW1  906   3.307   1.115   2.359
 1690SOL    HW2  907   3.175   1.211   2.351
 1692SOL     OW  908   2.870   1.456   2.339
 1692SOL    HW1  909   2.824   1.528   2.287
 1692SOL    HW2  910   2.866   1.476   2.437
 1693SOL     OW  911   2.213   1.801   2.715
 1693SOL    HW1  912   2.263   1.715   2.721
 1693SOL    HW2  913   2.278   1.878   2.712
 1695SOL     OW  914   3.089   1.550   3.368
 1695SOL    HW1  915   3.095   1.473   3.432
 1695SOL    HW2  916   3.037   1.524   3.288
 1696SOL     OW  917   2.183   0.943   2.104
 1696SOL    HW1  918   2.265   0.982   2.062
 1696SOL    HW2  919   2.156   0.861   2.055
 1698SOL     OW  920   2.323   1.266   3.589
 1698SOL    HW1  921   2.273   1.267   3.503
 1698SOL    HW2  922   2.260   1.248   3.665
 1699SOL     OW  923   2.973   1.776   2.099
 1699SOL    HW1  924   2.913   1.714   2.149
 1699SOL    HW2  925   3.004   1.732   2.014
 1701SOL     OW  926   3.494   1.377   1.943
 1701SOL    HW1  927   3.462   1.471   1.933
 1701SOL    HW2  928   3.418   1.314   1.931
 1702SOL     OW  929   2.326   1.743   2.185
 1702SOL    HW1  930   2.359   1.782   2.271
 1702SOL    HW2  931   2.402   1.736   2.120
 1704SOL     OW  932   2.111   1.785   3.103
 1704SOL    HW1  933   2.168   1.720   3.153
 1704SOL    HW2  934   2.095   1.752   3.010
 1705SOL     OW  935   2.802   1.698   2.766
 1705SOL    HW1  936   2.882   1.641   2.787
 1705SOL    HW2  937   2.753   1.658   2.689
 1706SOL     OW  938   2.244   0.700   2.342
 1706SOL    HW1  939   2.289   0.610   2.339
 1706SOL    HW2  940   2.150   0.689   2.375
 1710SOL     OW  941   2.750   1.514   3.057
 1710SOL    HW1  942   2.727   1.489   2.963
 1710SOL    HW2  943   2.811   1.445   3.096
 1712SOL     OW  944   2.665   1.402   2.786
 1712SOL    HW1  945   2.755   1.416   2.744
 1712SOL    HW2  946   2.594   1.404   2.715
 1715SOL     OW  947   3.296   1.188   1.903
 1715SOL    HW1  948   3.328   1.112   1.960
 1715SOL    HW2  949   3.204   1.215   1.933
 1719SOL     OW  950   3.089   1.570   2.655
 1719SOL    HW1  951   3.110   1.644   2.590
 1719SOL    HW2  952   3.157   1.570   2.728
 1720SOL     OW  953   2.321   1.152   2.603
 1720SOL    HW1  954   2.250   1.125   2.668
 1720SOL    HW2  955   2.295   1.124   2.510
 1721SOL     OW  956   3.133   1.797   2.453
 1721SOL    HW1  957   3.177   1.861   2.389
 1721SOL    HW2  958   3.083   1.849   2.523
 1727SOL     OW  959   3.291   1.173   2.729
 1727SOL    HW1  960   3.236   1.089   2.722
 1727SOL    HW2  961   3.317   1.202   2.637
 1730SOL     OW  962   2.350   1.385   2.036
 1730SOL    HW1  963   2.263   1.370   2.083
 1730SOL    HW2  964   2.333   1.411   1.941
 1731SOL     OW  965   3.526   1.280   2.519
 1731SOL    HW1  966   3.625   1.288   2.533
 1731SOL    HW2  967   3.481   1.364   2.550
 1735SOL     OW  968   2.926   1.347   3.202
 1735SOL    HW1  969   2.846   1.324   3.257
 1735SOL    HW2  970   3.009   1.321   3.251
 1736SOL     OW  971   3.454   1.629   3.487
 1736SOL    HW1  972   3.481   1.663   3.397
 1736SOL    HW2  973   3.533   1.591   3.533
 1737SOL     OW  974   2.973   1.195   2.962
 1737SOL    HW1  975   2.933   1.239   3.043
 1737SOL    HW2  976   2.932   1.232   2.879
 1738SOL     OW  977   3.500   1.099   2.941
 1738SOL    HW1  978   3.505   1.180   3.000
 1738SOL    HW2  979   3.414   1.101   2.890
 1740SOL     OW  980   2.842   1.116   3.581
 1740SOL    HW1  981   2.743   1.122   3.591
 1740SOL    HW2  982   2.865   1.036   3.525
 1741SOL     OW  983   2.567   1.050   2.230
 1741SOL    HW1  984   2.553   1.057   2.329
 1741SOL    HW2  985   2.651   0.999   2.212
 1742SOL     OW  986   2.272   0.813   3.113
 1742SOL    HW1  987   2.358   0.825   3.163
 1742SOL    HW2  988   2.230   0.726   3.140
 1744SOL     OW  989   1.926   1.564   3.193
 1744SOL    HW1  990   1.880   1.646   3.159
 1744SOL    HW2  991   2.024   1.583   3.202
 1745SOL     OW  992   2.229   1.100   2.363
 1745SOL    HW1  993   2.222   1.183   2.307
 1745SOL    HW2  994   2.233   1.020   2.303
 1747SOL     OW  995   3.114   1.348   2.250
 1747SOL    HW1  996   3.164   1.425   2.290
 1747SOL    HW2  997   3.019   1.350   2.282
 1748SOL     OW  998   3.134   1.445   3.004
 1748SOL    HW1  999   3.181   1.458   3.091
 1748SOL    HW2 1000   3.068   1.371   3.013
 1750SOL     OW 1001   2.216   1.510   3.191
 1750SOL    HW1 1002   2.195   1.466   3.104
 1750SOL    HW2 1003   2.313   1.536   3.194
 1755SOL     OW 1004   2.435   0.870   2.891
 1755SOL    HW1 1005   2.479   0.959   2.882
 1755SOL    HW2 1006   2.372   0.870   2.968
 1759SOL     OW 1007   1.899   1.310   3.144
 1759SOL    HW1 1008   1.952   1.261   3.212
 1759SOL    HW2 1009   1.921   1.408   3.149
 1764SOL     OW 1010   2.885   0.766   2.828
 1764SOL    HW1 1011   2.900   0.787   2.924
 1764SOL    HW2 1012   2.855   0.671   2.819
 1765SOL     OW 1013   2.842   1.573   3.562
 1765SOL    HW1 1014   2.822   1.617   3.474
 1765SOL    HW2 1015   2.881   1.482   3.546
 1770SOL     OW 1016   2.930   1.333   2.711
 1770SOL    HW1 1017   2.937   1.249   2.656
 1770SOL    HW2 1018   2.992   1.402   2.675
 1771SOL     OW 1019   2.181   0.810   2.811
 1771SOL    HW1 1020   2.274   0.846   2.816
 1771SOL    HW2 1021   2.175   0.725   2.863
 1775SOL     OW 1022   1.870   1.326   2.062
 1775SOL    HW1 1023   1.777   1.347   2.031
 1775SOL    HW2 1024   1.880   1.227   2.075
 1776SOL     OW 1025   1.950   1.801   2.789
 1776SOL    HW1 1026   1.908   1.715   2.762
 1776SOL    HW2 1027   2.044   1.804   2.755
 1777SOL     OW 1028   2.366   1.568   2.772
 1777SOL    HW1 1029   2.432   1.642   2.781
 1777SOL    HW2 1030   2.410   1.489   2.730
 1784SOL     OW 1031   2.114   1.564   3.606
 1784SOL    HW1 1032   2.084   1.621   3.682
 1784SOL    HW2 1033   2.107   1.467   3.632
 1786SOL     OW 1034   2.792   1.678   3.327
 1786SOL    HW1 1035   2.768   1.660   3.232
 1786SOL    HW2 1036   2.822   1.772   3.337
 1788SOL     OW 1037   2.021   1.137   3.328
 1788SOL    HW1 1038   2.043   1.076   3.404
 1788SOL    HW2 1039   2.031   1.088   3.242
 1789SOL     OW 1040   3.209   1.059   3.096
 1789SOL    HW1 1041   3.233   0.996   3.022
 1789SOL    HW2 1042   3.119   1.099   3.078
 1790SOL     OW 1043   3.164   0.855   2.171
 1790SOL    HW1 1044   3.078   0.824   2.213
 1790SOL    HW2 1045   3.160   0.841   2.072
 1791SOL     OW 1046   3.621   1.747   3.016
 1791SOL    HW1 1047   3.682   1.777   2.943
 1791SOL    HW2 1048   3.583   1.658   2.994
 1792SOL     OW 1049   3.114   1.731   2.990
 1792SOL    HW1 1050   3.198   1.736   2.936
 1792SOL    HW2 1051   3.091   1.635   3.008
 1793SOL     OW 1052   1.945   1.258   2.884
 1793SOL    HW1 1053   1.940   1.257   2.984
 1793SOL    HW2 1054   1.862   1.217   2.846
 1794SOL     OW 1055   2.550   1.662   3.578
 1794SOL    HW1 1056   2.494   1.743   3.587
 1794SOL    HW2 1057   2.602   1.666   3.492
 1796SOL     OW 1058   3.250   1.573   2.339
 1796SOL    HW1 1059   3.317   1.585   2.265
 1796SOL    HW2 1060   3.210   1.662   2.362
 1797SOL     OW 1061   1.992   1.794   3.713
 1797SOL    HW1 1062   1.951   1.720   3.766
 1797SOL    HW2 1063   2.056   1.845   3.771
 1798SOL     OW 1064   3.142   0.927   2.534
 1798SOL    HW1 1065   3.202   0.846   2.536
 1798SOL    HW2 1066   3.182   0.996   2.474
 1799SOL     OW 1067   2.692   1.273   3.284
 1799SOL    HW1 1068   2.687   1.306   3.379
 1799SOL    HW2 1069   2.606   1.292   3.238
 1800SOL     OW 1070   2.534   1.616   2.016
 1800SOL    HW1 1071   2.543   1.626   1.917
 1800SOL    HW2 1072   2.494   1.527   2.037
 1801SOL     OW 1073   3.512   1.720   3.256
 1801SOL    HW1 1074   3.565   1.730   3.172
 1801SOL    HW2 1075   3.485   1.810   3.290
 1804SOL     OW 1076   3.056   1.612   1.893
 1804SOL    HW1 1077   3.062   1.519   1.930
 1804SOL    HW2 1078   2.997   1.612   1.813
 1805SOL     OW 1079   2.684   1.002   3.234
 1805SOL    HW1 1080   2.724   1.001   3.142
 1805SOL    HW2 1081   2.694   1.094   3.274
 1806SOL     OW 1082   2.778   0.910   2.153
 1806SOL    HW1 1083   2.841   0.948   2.085
 1806SOL    HW2 1084   2.818   0.827   2.192
 1807SOL     OW 1085   3.366   1.607   1.906
 1807SOL    HW1 1086   3.274   1.644   1.913
 1807SOL    HW2 1087   3.404   1.627   1.816
 1808SOL     OW 1088   2.234   1.288   3.352
 1808SOL    HW1 1089   2.221   1.381   3.318
 1808SOL    HW2 1090   2.150   1.236   3.339
 1809SOL     OW 1091   3.476   1.292   3.151
 1809SOL    HW1 1092   3.536   1.295   3.231
 1809SOL    HW2 1093   3.401   1.356   3.164
 1810SOL     OW 1094   2.901   1.098   2.558
 1810SOL    HW1 1095   2.831   1.051   2.612
 1810SOL    HW2 1096   2.960   1.030   2.515
 1812SOL     OW 1097   2.452   1.487   2.353
 1812SOL    HW1 1098   2.494   1.429   2.283
 1812SOL    HW2 1099   2.408   1.566   2.309
 1814SOL     OW 1100   2.117   1.348   2.152
 1814SOL    HW1 1101   2.021   1.349   2.125
 1814SOL    HW2 1102   2.129   1.401   2.236
 1820SOL     OW 1103   3.045   1.335   1.981
 1820SOL    HW1 1104   2.946   1.324   1.983
 1820SOL    HW2 1105   3.079   1.350   2.074
 1822SOL     OW 1106   3.355   1.767   2.821
 1822SOL    HW1 1107   3.388   1.831   2.752
 1822SOL    HW2 1108   3.421   1.761   2.896
 1825SOL     OW 1109   2.252   1.741   3.422
 1825SOL    HW1 1110   2.161   1.782   3.420
 1825SOL    HW2 1111   2.245   1.647   3.454
 1828SOL     OW 1112   2.456   0.745   2.514
 1828SOL    HW1 1113   2.506   0.830   2.495
 1828SOL    HW2 1114   2.368   0.747   2.466
 1831SOL     OW 1115   2.721   1.374   1.878
 1831SOL    HW1 1116   2.675   1.389   1.966
 1831SOL    HW2 1117   2.765   1.459   1.848
 1832SOL     OW 1118   2.523   1.790   2.815
 1832SOL    HW1 1119   2.477   1.878   2.802
 1832SOL    HW2 1120   2.622   1.802   2.808
 1833SOL     OW 1121   2.721   0.956   2.723
 1833SOL    HW1 1122   2.775   0.887   2.771
 1833SOL    HW2 1123   2.689   1.025   2.789
 1834SOL     OW 1124   2.945   0.984   1.949
 1834SOL    HW1 1125   2.922   1.037   1.867
 1834SOL    HW2 1126   3.026   0.928   1.930
 1835SOL     OW 1127   3.723   1.569   2.713
 1835SOL    HW1 1128   3.652   1.557   2.643
 1835SOL    HW2 1129   3.724   1.490   2.773
 1836SOL     OW 1130   2.083   1.314   3.706
 1836SOL    HW1 1131   2.018   1.241   3.685
 1836SOL    HW2 1132   2.087   1.328   3.804
 1837SOL     OW 1133   1.941   1.240   2.515
 1837SOL    HW1 1134   1.940   1.193   2.603
 1837SOL    HW2 1135   2.023   1.212   2.464
 1838SOL     OW 1136   2.534   1.391   3.486
 1838SOL    HW1 1137   2.456   1.341   3.524
 1838SOL    HW2 1138   2.531   1.486   3.517
 1841SOL     OW 1139   3.567   1.487   2.966
 1841SOL    HW1 1140   3.474   1.462   2.939
 1841SOL    HW2 1141   3.593   1.437   3.048
 1843SOL     OW 1142   2.674   1.586   2.549
 1843SOL    HW1 1143   2.706   1.596   2.455
 1843SOL    HW2 1144   2.595   1.524   2.551
 1846SOL     OW 1145   2.632   1.330   2.163
 1846SOL    HW1 1146   2.586   1.243   2.180
 1846SOL    HW2 1147   2.723   1.327   2.204
 1847SOL     OW 1148   2.480   1.567   3.146
 1847SOL    HW1 1149   2.475   1.649   3.203
 1847SOL    HW2 1150   2.569   1.564   3.101
 1851SOL     OW 1151   1.901   1.077   2.162
 1851SOL    HW1 1152   2.000   1.066   2.153
 1851SOL    HW2 1153   1.861   0.991   2.194
 1852SOL     OW 1154   2.737   1.646   2.199
 1852SOL    HW1 1155   2.660   1.611   2.145
 1852SOL    HW2 1156   2.705   1.717   2.261
 1869SOL     OW 1157   1.889   1.596   3.841
 1869SOL    HW1 1158   1.870   1.500   3.862
 1869SOL    HW2 1159   1.856   1.654   3.916
 1890SOL     OW 1160   2.973   1.776   3.961
 1890SOL    HW1 1161   2.913   1.714   4.011
 1890SOL    HW2 1162   3.004   1.732   3.876
 1892SOL     OW 1163   2.326   1.743   4.047
 1892SOL    HW1 1164   2.359   1.782   4.133
 1892SOL    HW2 1165   2.402   1.736   3.982
 1947SOL     OW 1166   2.534   1.616   3.878
 1947SOL    HW1 1167   2.543   1.626   3.779
 1947SOL    HW2 1168   2.494   1.527   3.899
 1950SOL     OW 1169   3.056   1.612   3.755
 1950SOL    HW1 1170   3.062   1.519   3.792
 1950SOL    HW2 1171   2.997   1.612   3.675
 1964SOL     OW 1172   2.721   1.374   3.740
 1964SOL    HW1 1173   2.675   1.389   3.828
 1964SOL    HW2 1174   2.765   1.459   3.710
 1980SOL     OW 1175   2.087   2.137   0.996
 1980SOL    HW1 1176   2.122   2.120   1.088
 1980SOL    HW2 1177   1.999   2.092   0.984
 1982SOL     OW 1178   2.431   3.137   1.165
 1982SOL    HW1 1179   2.338   3.130   1.128
 1982SOL    HW2 1180   2.442   3.226   1.209
 1986SOL     OW 1181   2.630   3.006   1.023
 1986SOL    HW1 1182   2.552   3.023   1.083
 1986SOL    HW2 1183   2.664   3.093   0.987
 1987SOL     OW 1184   2.712   2.660   1.823
 1987SOL    HW1 1185   2.708   2.736   1.888
 1987SOL    HW2 1186   2.734   2.696   1.732
 1989SOL     OW 1187   2.548   3.023   1.803
 1989SOL    HW1 1188   2.608   3.102   1.817
 1989SOL    HW2 1189   2.462   3.054   1.762
 1990SOL     OW 1190   2.197   3.297   1.061
 1990SOL    HW1 1191   2.119   3.266   1.008
 1990SOL    HW2 1192   2.255   3.355   1.004
 1991SOL     OW 1193   3.322   3.367   1.339
 1991SOL    HW1 1194   3.346   3.461   1.365
 1991SOL    HW2 1195   3.306   3.313   1.421
 1992SOL     OW 1196   2.300   2.254   1.499
 1992SOL    HW1 1197   2.382   2.198   1.508
 1992SOL    HW2 1198   2.219   2.196   1.503
 1995SOL     OW 1199   2.989   3.203   1.690
 1995SOL    HW1 1200   3.036   3.203   1.778
 1995SOL    HW2 1201   2.941   3.116   1.679
 1997SOL     OW 1202   2.102   2.953   0.886
 1997SOL    HW1 1203   2.116   2.869   0.938
 1997SOL    HW2 1204   2.047   3.017   0.941
 1998SOL     OW 1205   2.482   3.648   1.439
 1998SOL    HW1 1206   2.390   3.631   1.474
 1998SOL    HW2 1207   2.510   3.740   1.465
 2000SOL     OW 1208   3.456   1.976   1.480
 2000SOL    HW1 1209   3.438   2.043   1.408
 2000SOL    HW2 1210   3.453   2.022   1.569
 2006SOL     OW 1211   1.975   2.599   1.597
 2006SOL    HW1 1212   2.063   2.586   1.642
 2006SOL    HW2 1213   1.962   2.696   1.575
 2008SOL     OW 1214   3.155   3.090   1.423
 2008SOL    HW1 1215   3.192   3.017   1.365
 2008SOL    HW2 1216   3.207   3.095   1.508
 2010SOL     OW 1217   2.059   2.838   1.264
 2010SOL    HW1 1218   2.148   2.793   1.250
 2010SOL    HW2 1219   1.986   2.773   1.245
 2012SOL     OW 1220   3.049   3.654   1.616
 2012SOL    HW1 1221   3.073   3.714   1.540
 2012SOL    HW2 1222   3.056   3.559   1.586
 2013SOL     OW 1223   2.179   2.113   1.801
 2013SOL    HW1 1224   2.250   2.184   1.807
 2013SOL    HW2 1225   2.091   2.152   1.829
 2017SOL     OW 1226   3.143   2.207   0.944
 2017SOL    HW1 1227   3.057   2.157   0.931
 2017SOL    HW2 1228   3.205   2.153   1.000
 2019SOL     OW 1229   2.669   2.467   1.465
 2019SOL    HW1 1230   2.622   2.464   1.554
 2019SOL    HW2 1231   2.618   2.412   1.399
 2020SOL     OW 1232   3.256   2.331   1.674
 2020SOL    HW1 1233   3.236   2.374   1.762
 2020SOL    HW2 1234   3.334   2.269   1.683
 2021SOL     OW 1235   2.835   2.752   1.572
 2021SOL    HW1 1236   2.881   2.668   1.543
 2021SOL    HW2 1237   2.779   2.786   1.497
 2022SOL     OW 1238   2.853   2.272   1.242
 2022SOL    HW1 1239   2.776   2.306   1.296
 2022SOL    HW2 1240   2.819   2.221   1.163
 2024SOL     OW 1241   1.938   2.673   0.789
 2024SOL    HW1 1242   2.037   2.661   0.798
 2024SOL    HW2 1243   1.914   2.768   0.810
 2025SOL     OW 1244   1.992   3.683   1.571
 2025SOL    HW1 1245   1.982   3.668   1.670
 2025SOL    HW2 1246   1.906   3.719   1.535
 2027SOL     OW 1247   3.581   2.447   1.831
 2027SOL    HW1 1248   3.555   2.536   1.795
 2027SOL    HW2 1249   3.579   2.379   1.758
 2029SOL     OW 1250   2.412   2.058   0.885
 2029SOL    HW1 1251   2.407   2.053   0.985
 2029SOL    HW2 1252   2.414   2.154   0.856
 2033SOL     OW 1253   3.089   3.412   1.506
 2033SOL    HW1 1254   3.095   3.335   1.570
 2033SOL    HW2 1255   3.037   3.386   1.426
 2036SOL     OW 1256   2.323   3.128   1.727
 2036SOL    HW1 1257   2.273   3.129   1.641
 2036SOL    HW2 1258   2.260   3.110   1.803
 2038SOL     OW 1259   2.064   2.147   1.498
 2038SOL    HW1 1260   1.984   2.207   1.485
 2038SOL    HW2 1261   2.054   2.098   1.584
 2042SOL     OW 1262   2.111   3.647   1.241
 2042SOL    HW1 1263   2.168   3.582   1.291
 2042SOL    HW2 1264   2.095   3.614   1.148
 2045SOL     OW 1265   3.409   2.084   1.729
 2045SOL    HW1 1266   3.404   2.121   1.821
 2045SOL    HW2 1267   3.337   2.015   1.717
 2047SOL     OW 1268   2.643   2.126   1.749
 2047SOL    HW1 1269   2.710   2.065   1.792
 2047SOL    HW2 1270   2.570   2.145   1.814
 2048SOL     OW 1271   2.750   3.376   1.195
 2048SOL    HW1 1272   2.727   3.351   1.101
 2048SOL    HW2 1273   2.811   3.307   1.234
 2049SOL     OW 1274   3.213   2.452   1.433
 2049SOL    HW1 1275   3.241   2.409   1.518
 2049SOL    HW2 1276   3.238   2.548   1.434
 2050SOL     OW 1277   2.665   3.264   0.924
 2050SOL    HW1 1278   2.755   3.278   0.882
 2050SOL    HW2 1279   2.594   3.266   0.853
 2051SOL     OW 1280   2.784   2.365   0.899
 2051SOL    HW1 1281   2.759   2.356   0.803
 2051SOL    HW2 1282   2.832   2.283   0.930
 2055SOL     OW 1283   2.938   2.545   1.464
 2055SOL    HW1 1284   2.858   2.484   1.467
 2055SOL    HW2 1285   3.019   2.492   1.440
 2057SOL     OW 1286   2.321   3.014   0.741
 2057SOL    HW1 1287   2.250   2.987   0.806
 2057SOL    HW2 1288   2.295   2.986   0.648
 2060SOL     OW 1289   1.940   2.418   1.386
 2060SOL    HW1 1290   2.032   2.417   1.345
 2060SOL    HW2 1291   1.934   2.492   1.453
 2061SOL     OW 1292   2.423   2.084   1.147
 2061SOL    HW1 1293   2.461   2.000   1.184
 2061SOL    HW2 1294   2.335   2.103   1.191
 2065SOL     OW 1295   3.328   2.452   0.992
 2065SOL    HW1 1296   3.298   2.357   0.999
 2065SOL    HW2 1297   3.401   2.468   1.058
 2071SOL     OW 1298   3.616   3.085   1.588
 2071SOL    HW1 1299   3.707   3.046   1.575
 2071SOL    HW2 1300   3.624   3.181   1.612
 2072SOL     OW 1301   2.926   3.209   1.340
 2072SOL    HW1 1302   2.846   3.186   1.395
 2072SOL    HW2 1303   3.009   3.183   1.389
 2073SOL     OW 1304   3.454   3.491   1.625
 2073SOL    HW1 1305   3.481   3.525   1.535
 2073SOL    HW2 1306   3.533   3.453   1.671
 2074SOL     OW 1307   2.973   3.057   1.100
 2074SOL    HW1 1308   2.933   3.101   1.181
 2074SOL    HW2 1309   2.932   3.094   1.017
 2076SOL     OW 1310   2.777   1.951   1.402
 2076SOL    HW1 1311   2.802   1.931   1.307
 2076SOL    HW2 1312   2.849   2.007   1.444
 2077SOL     OW 1313   2.842   2.978   1.719
 2077SOL    HW1 1314   2.743   2.984   1.729
 2077SOL    HW2 1315   2.865   2.898   1.663
 2079SOL     OW 1316   2.272   2.675   1.251
 2079SOL    HW1 1317   2.358   2.687   1.301
 2079SOL    HW2 1318   2.230   2.588   1.278
 2080SOL     OW 1319   3.136   2.248   1.262
 2080SOL    HW1 1320   3.157   2.322   1.326
 2080SOL    HW2 1321   3.047   2.265   1.219
 2081SOL     OW 1322   1.926   3.426   1.331
 2081SOL    HW1 1323   1.880   3.508   1.297
 2081SOL    HW2 1324   2.024   3.445   1.340
 2083SOL     OW 1325   2.428   2.399   0.865
 2083SOL    HW1 1326   2.440   2.465   0.791
 2083SOL    HW2 1327   2.474   2.433   0.948
 2085SOL     OW 1328   3.134   3.307   1.142
 2085SOL    HW1 1329   3.181   3.320   1.229
 2085SOL    HW2 1330   3.068   3.233   1.151
 2087SOL     OW 1331   2.216   3.372   1.329
 2087SOL    HW1 1332   2.195   3.328   1.242
 2087SOL    HW2 1333   2.313   3.398   1.332
 2088SOL     OW 1334   2.264   2.613   1.598
 2088SOL    HW1 1335   2.332   2.668   1.551
 2088SOL    HW2 1336   2.304   2.525   1.625
 2089SOL     OW 1337   3.449   2.641   1.670
 2089SOL    HW1 1338   3.357   2.679   1.665
 2089SOL    HW2 1339   3.509   2.688   1.605
 2090SOL     OW 1340   2.875   1.967   1.770
 2090SOL    HW1 1341   2.881   2.052   1.718
 2090SOL    HW2 1342   2.907   1.891   1.713
 2091SOL     OW 1343   2.366   1.912   1.740
 2091SOL    HW1 1344   2.324   1.855   1.670
 2091SOL    HW2 1345   2.300   1.981   1.772
 2092SOL     OW 1346   2.435   2.732   1.029
 2092SOL    HW1 1347   2.479   2.821   1.020
 2092SOL    HW2 1348   2.372   2.732   1.106
 2093SOL     OW 1349   3.222   2.724   1.045
 2093SOL    HW1 1350   3.147   2.724   0.979
 2093SOL    HW2 1351   3.259   2.632   1.054
 2095SOL     OW 1352   2.169   2.075   1.231
 2095SOL    HW1 1353   2.146   2.112   1.321
 2095SOL    HW2 1354   2.139   1.980   1.225
 2096SOL     OW 1355   1.899   3.172   1.282
 2096SOL    HW1 1356   1.952   3.123   1.350
 2096SOL    HW2 1357   1.921   3.270   1.287
 2097SOL     OW 1358   2.594   2.496   1.064
 2097SOL    HW1 1359   2.653   2.470   0.988
 2097SOL    HW2 1360   2.566   2.592   1.053
 2098SOL     OW 1361   3.590   2.797   1.854
 2098SOL    HW1 1362   3.544   2.790   1.765
 2098SOL    HW2 1363   3.528   2.841   1.920
 2101SOL     OW 1364   2.885   2.628   0.966
 2101SOL    HW1 1365   2.900   2.649   1.062
 2101SOL    HW2 1366   2.855   2.533   0.957
 2102SOL     OW 1367   2.842   3.435   1.700
 2102SOL    HW1 1368   2.822   3.479   1.612
 2102SOL    HW2 1369   2.881   3.344   1.684
 2104SOL     OW 1370   2.212   2.760   1.804
 2104SOL    HW1 1371   2.288   2.804   1.852
 2104SOL    HW2 1372   2.247   2.713   1.722
 2108SOL     OW 1373   2.181   2.672   0.949
 2108SOL    HW1 1374   2.274   2.708   0.954
 2108SOL    HW2 1375   2.175   2.587   1.001
 2109SOL     OW 1376   2.201   2.371   1.006
 2109SOL    HW1 1377   2.149   2.288   0.989
 2109SOL    HW2 1378   2.278   2.376   0.942
 2110SOL     OW 1379   3.000   2.242   1.678
 2110SOL    HW1 1380   2.955   2.305   1.742
 2110SOL    HW2 1381   3.093   2.273   1.661
 2111SOL     OW 1382   3.022   2.069   1.477
 2111SOL    HW1 1383   3.022   2.133   1.554
 2111SOL    HW2 1384   3.050   2.117   1.394
 2115SOL     OW 1385   2.864   2.658   1.238
 2115SOL    HW1 1386   2.905   2.626   1.324
 2115SOL    HW2 1387   2.768   2.631   1.235
 2116SOL     OW 1388   1.902   2.406   1.114
 2116SOL    HW1 1389   1.987   2.373   1.073
 2116SOL    HW2 1390   1.915   2.421   1.212
 2117SOL     OW 1391   2.051   2.382   1.722
 2117SOL    HW1 1392   2.110   2.342   1.652
 2117SOL    HW2 1393   1.993   2.453   1.681
 2118SOL     OW 1394   3.231   2.812   1.660
 2118SOL    HW1 1395   3.270   2.901   1.680
 2118SOL    HW2 1396   3.241   2.792   1.563
 2120SOL     OW 1397   3.519   2.466   1.206
 2120SOL    HW1 1398   3.481   2.397   1.268
 2120SOL    HW2 1399   3.601   2.430   1.162
 2121SOL     OW 1400   2.114   3.426   1.744
 2121SOL    HW1 1401   2.084   3.483   1.820
 2121SOL    HW2 1402   2.107   3.329   1.770
 2122SOL     OW 1403   2.533   2.326   1.269
 2122SOL    HW1 1404   2.499   2.237   1.239
 2122SOL    HW2 1405   2.559   2.380   1.189
 2123SOL     OW 1406   2.792   3.540   1.465
 2123SOL    HW1 1407   2.768   3.522   1.370
 2123SOL    HW2 1408   2.822   3.634   1.475
 2125SOL     OW 1409   2.021   2.999   1.466
 2125SOL    HW1 1410   2.043   2.938   1.542
 2125SOL    HW2 1411   2.031   2.950   1.380
 2126SOL     OW 1412   3.209   2.921   1.234
 2126SOL    HW1 1413   3.233   2.858   1.160
 2126SOL    HW2 1414   3.119   2.961   1.216
 2130SOL     OW 1415   1.945   3.120   1.022
 2130SOL    HW1 1416   1.940   3.119   1.122
 2130SOL    HW2 1417   1.862   3.079   0.984
 2131SOL     OW 1418   2.550   3.524   1.716
 2131SOL    HW1 1419   2.494   3.605   1.725
 2131SOL    HW2 1420   2.602   3.528   1.630
 2135SOL     OW 1421   1.992   3.656   1.851
 2135SOL    HW1 1422   1.951   3.582   1.904
 2135SOL    HW2 1423   2.056   3.707   1.909
 2137SOL     OW 1424   2.692   3.135   1.422
 2137SOL    HW1 1425   2.687   3.168   1.517
 2137SOL    HW2 1426   2.606   3.154   1.376
 2141SOL     OW 1427   2.125   2.188   0.720
 2141SOL    HW1 1428   2.046   2.239   0.686
 2141SOL    HW2 1429   2.116   2.173   0.818
 2143SOL     OW 1430   2.684   2.864   1.372
 2143SOL    HW1 1431   2.724   2.863   1.280
 2143SOL    HW2 1432   2.694   2.956   1.412
 2146SOL     OW 1433   2.234   3.150   1.490
 2146SOL    HW1 1434   2.221   3.243   1.456
 2146SOL    HW2 1435   2.150   3.098   1.477
 2147SOL     OW 1436   3.476   3.154   1.289
 2147SOL    HW1 1437   3.536   3.157   1.369
 2147SOL    HW2 1438   3.401   3.218   1.302
 2149SOL     OW 1439   2.876   2.098   0.971
 2149SOL    HW1 1440   2.868   2.062   0.878
 2149SOL    HW2 1441   2.874   2.022   1.036
 2151SOL     OW 1442   3.571   2.247   1.381
 2151SOL    HW1 1443   3.644   2.316   1.385
 2151SOL    HW2 1444   3.599   2.172   1.322
 2153SOL     OW 1445   1.967   2.875   1.726
 2153SOL    HW1 1446   1.890   2.842   1.780
 2153SOL    HW2 1447   2.052   2.845   1.768
 2154SOL     OW 1448   2.534   2.065   1.489
 2154SOL    HW1 1449   2.624   2.049   1.449
 2154SOL    HW2 1450   2.542   2.070   1.588
 2156SOL     OW 1451   3.302   2.718   1.398
 2156SOL    HW1 1452   3.245   2.770   1.335
 2156SOL    HW2 1453   3.398   2.730   1.374
 2159SOL     OW 1454   2.475   2.704   1.431
 2159SOL    HW1 1455   2.531   2.785   1.414
 2159SOL    HW2 1456   2.534   2.624   1.434
 2161SOL     OW 1457   2.578   2.427   1.708
 2161SOL    HW1 1458   2.597   2.492   1.782
 2161SOL    HW2 1459   2.638   2.347   1.717
 2162SOL     OW 1460   3.312   3.082   1.633
 2162SOL    HW1 1461   3.303   3.072   1.732
 2162SOL    HW2 1462   3.408   3.075   1.607
 2163SOL     OW 1463   2.252   3.603   1.560
 2163SOL    HW1 1464   2.161   3.644   1.558
 2163SOL    HW2 1465   2.245   3.509   1.592
 2164SOL     OW 1466   3.536   2.745   1.254
 2164SOL    HW1 1467   3.509   2.656   1.217
 2164SOL    HW2 1468   3.537   2.813   1.181
 2166SOL     OW 1469   2.456   2.607   0.652
 2166SOL    HW1 1470   2.506   2.692   0.633
 2166SOL    HW2 1471   2.368   2.609   0.604
 2167SOL     OW 1472   3.639   2.204   1.642
 2167SOL    HW1 1473   3.622   2.235   1.548
 2167SOL    HW2 1474   3.555   2.167   1.680
 2168SOL     OW 1475   3.592   2.796   1.517
 2168SOL    HW1 1476   3.630   2.887   1.532
 2168SOL    HW2 1477   3.584   2.779   1.418
 2171SOL     OW 1478   2.721   2.818   0.861
 2171SOL    HW1 1479   2.775   2.749   0.909
 2171SOL    HW2 1480   2.689   2.887   0.927
 2174SOL     OW 1481   2.083   3.176   1.844
 2174SOL    HW1 1482   2.018   3.103   1.823
 2174SOL    HW2 1483   2.087   3.190   1.942
 2176SOL     OW 1484   2.534   3.253   1.624
 2176SOL    HW1 1485   2.456   3.203   1.662
 2176SOL    HW2 1486   2.531   3.348   1.655
 2177SOL     OW 1487   3.686   2.054   1.227
 2177SOL    HW1 1488   3.682   1.964   1.271
 2177SOL    HW2 1489   3.689   2.043   1.128
 2180SOL     OW 1490   2.179   2.409   1.280
 2180SOL    HW1 1491   2.217   2.350   1.352
 2180SOL    HW2 1492   2.219   2.383   1.192
 2182SOL     OW 1493   3.286   2.076   1.112
 2182SOL    HW1 1494   3.338   2.011   1.167
 2182SOL    HW2 1495   3.237   2.139   1.173
 2183SOL     OW 1496   2.863   1.896   1.154
 2183SOL    HW1 1497   2.800   1.824   1.123
 2183SOL    HW2 1498   2.956   1.860   1.154
 2185SOL     OW 1499   2.480   3.429   1.284
 2185SOL    HW1 1500   2.475   3.511   1.341
 2185SOL    HW2 1501   2.569   3.426   1.239
 2191SOL     OW 1502   2.092   2.490   1.975
 2191SOL    HW1 1503   1.999   2.488   2.012
 2191SOL    HW2 1504   2.093   2.451   1.883
 2192SOL     OW 1505   2.087   2.137   2.858
 2192SOL    HW1 1506   2.122   2.120   2.950
 2192SOL    HW2 1507   1.999   2.092   2.846
 2193SOL     OW 1508   1.881   2.230   2.509
 2193SOL    HW1 1509   1.799   2.273   2.548
 2193SOL    HW2 1510   1.853   2.157   2.446
 2194SOL     OW 1511   2.431   3.137   3.027
 2194SOL    HW1 1512   2.338   3.130   2.990
 2194SOL    HW2 1513   2.442   3.226   3.071
 2195SOL     OW 1514   3.417   3.373   2.565
 2195SOL    HW1 1515   3.360   3.357   2.646
 2195SOL    HW2 1516   3.358   3.383   2.485
 2196SOL     OW 1517   2.997   2.565   2.579
 2196SOL    HW1 1518   3.054   2.643   2.554
 2196SOL    HW2 1519   2.937   2.591   2.655
 2197SOL     OW 1520   3.617   2.469   2.093
 2197SOL    HW1 1521   3.605   2.456   1.994
 2197SOL    HW2 1522   3.587   2.388   2.142
 2198SOL     OW 1523   2.630   3.006   2.885
 2198SOL    HW1 1524   2.552   3.023   2.945
 2198SOL    HW2 1525   2.664   3.093   2.849
 2199SOL     OW 1526   2.712   2.660   3.685
 2199SOL    HW1 1527   2.708   2.736   3.750
 2199SOL    HW2 1528   2.734   2.696   3.594
 2200SOL     OW 1529   2.547   2.874   2.527
 2200SOL    HW1 1530   2.616   2.858   2.597
 2200SOL    HW2 1531   2.474   2.931   2.565
 2201SOL     OW 1532   2.548   3.023   3.665
 2201SOL    HW1 1533   2.608   3.102   3.679
 2201SOL    HW2 1534   2.462   3.054   3.624
 2202SOL     OW 1535   2.197   3.297   2.923
 2202SOL    HW1 1536   2.119   3.266   2.870
 2202SOL    HW2 1537   2.255   3.355   2.866
 2203SOL     OW 1538   3.322   3.367   3.201
 2203SOL    HW1 1539   3.346   3.461   3.227
 2203SOL    HW2 1540   3.306   3.313   3.283
 2204SOL     OW 1541   2.300   2.254   3.361
 2204SOL    HW1 1542   2.382   2.198   3.370
 2204SOL    HW2 1543   2.219   2.196   3.365
 2205SOL     OW 1544   3.465   2.309   2.599
 2205SOL    HW1 1545   3.391   2.355   2.549
 2205SOL    HW2 1546   3.516   2.377   2.652
 2206SOL     OW 1547   2.093   3.575   2.345
 2206SOL    HW1 1548   2.127   3.652   2.399
 2206SOL    HW2 1549   2.137   3.575   2.255
 2207SOL     OW 1550   2.989   3.203   3.552
 2207SOL    HW1 1551   3.036   3.203   3.640
 2207SOL    HW2 1552   2.941   3.116   3.541
 2208SOL     OW 1553   2.092   3.296   2.400
 2208SOL    HW1 1554   2.066   3.392   2.400
 2208SOL    HW2 1555   2.021   3.242   2.445
 2209SOL     OW 1556   2.102   2.953   2.748
 2209SOL    HW1 1557   2.116   2.869   2.800
 2209SOL    HW2 1558   2.047   3.017   2.803
 2210SOL     OW 1559   2.482   3.648   3.301
 2210SOL    HW1 1560   2.390   3.631   3.336
 2210SOL    HW2 1561   2.510   3.740   3.327
 2211SOL     OW 1562   2.468   2.826   1.985
 2211SOL    HW1 1563   2.475   2.910   1.931
 2211SOL    HW2 1564   2.514   2.839   2.073
 2212SOL     OW 1565   3.456   1.976   3.342
 2212SOL    HW1 1566   3.438   2.043   3.270
 2212SOL    HW2 1567   3.453   2.022   3.431
 2213SOL     OW 1568   1.984   2.505   2.425
 2213SOL    HW1 1569   1.939   2.417   2.442
 2213SOL    HW2 1570   1.983   2.559   2.509
 2214SOL     OW 1571   3.704   3.629   2.221
 2214SOL    HW1 1572   3.758   3.600   2.301
 2214SOL    HW2 1573   3.734   3.719   2.192
 2215SOL     OW 1574   1.889   3.458   1.979
 2215SOL    HW1 1575   1.870   3.362   2.000
 2215SOL    HW2 1576   1.856   3.516   2.054
 2216SOL     OW 1577   3.551   2.784   2.474
 2216SOL    HW1 1578   3.646   2.755   2.482
 2216SOL    HW2 1579   3.543   2.849   2.399
 2217SOL     OW 1580   3.503   2.970   2.294
 2217SOL    HW1 1581   3.589   2.972   2.242
 2217SOL    HW2 1582   3.517   3.017   2.382
 2218SOL     OW 1583   1.975   2.599   3.459
 2218SOL    HW1 1584   2.063   2.586   3.504
 2218SOL    HW2 1585   1.962   2.696   3.437
 2219SOL     OW 1586   2.475   3.227   2.588
 2219SOL    HW1 1587   2.426   3.140   2.597
 2219SOL    HW2 1588   2.452   3.270   2.501
 2220SOL     OW 1589   3.155   3.090   3.285
 2220SOL    HW1 1590   3.192   3.017   3.227
 2220SOL    HW2 1591   3.207   3.095   3.370
 2221SOL     OW 1592   2.671   1.866   2.364
 2221SOL    HW1 1593   2.711   1.957   2.355
 2221SOL    HW2 1594   2.571   1.874   2.370
 2222SOL     OW 1595   2.059   2.838   3.126
 2222SOL    HW1 1596   2.148   2.793   3.112
 2222SOL    HW2 1597   1.986   2.773   3.107
 2223SOL     OW 1598   3.387   2.861   2.052
 2223SOL    HW1 1599   3.324   2.785   2.065
 2223SOL    HW2 1600   3.435   2.879   2.138
 2224SOL     OW 1601   3.049   3.654   3.478
 2224SOL    HW1 1602   3.073   3.714   3.402
 2224SOL    HW2 1603   3.056   3.559   3.448
 2225SOL     OW 1604   2.179   2.113   3.663
 2225SOL    HW1 1605   2.250   2.184   3.669
 2225SOL    HW2 1606   2.091   2.152   3.691
 2226SOL     OW 1607   3.328   3.279   2.815
 2226SOL    HW1 1608   3.269   3.285   2.895
 2226SOL    HW2 1609   3.313   3.191   2.769
 2227SOL     OW 1610   3.529   3.576   2.434
 2227SOL    HW1 1611   3.488   3.553   2.346
 2227SOL    HW2 1612   3.511   3.502   2.499
 2228SOL     OW 1613   3.143   2.207   2.806
 2228SOL    HW1 1614   3.057   2.157   2.793
 2228SOL    HW2 1615   3.205   2.153   2.862
 2229SOL     OW 1616   3.438   3.524   2.169
 2229SOL    HW1 1617   3.527   3.570   2.172
 2229SOL    HW2 1618   3.417   3.500   2.074
 2230SOL     OW 1619   2.669   2.467   3.327
 2230SOL    HW1 1620   2.622   2.464   3.416
 2230SOL    HW2 1621   2.618   2.412   3.261
 2231SOL     OW 1622   3.256   2.331   3.536
 2231SOL    HW1 1623   3.236   2.374   3.624
 2231SOL    HW2 1624   3.334   2.269   3.545
 2232SOL     OW 1625   2.835   2.752   3.434
 2232SOL    HW1 1626   2.881   2.668   3.405
 2232SOL    HW2 1627   2.779   2.786   3.359
 2233SOL     OW 1628   2.853   2.272   3.104
 2233SOL    HW1 1629   2.776   2.306   3.158
 2233SOL    HW2 1630   2.819   2.221   3.025
 2234SOL     OW 1631   2.903   2.563   2.291
 2234SOL    HW1 1632   2.929   2.559   2.387
 2234SOL    HW2 1633   2.818   2.512   2.277
 2235SOL     OW 1634   1.938   2.673   2.651
 2235SOL    HW1 1635   2.037   2.661   2.660
 2235SOL    HW2 1636   1.914   2.768   2.672
 2236SOL     OW 1637   1.992   3.683   3.433
 2236SOL    HW1 1638   1.982   3.668   3.532
 2236SOL    HW2 1639   1.906   3.719   3.397
 2237SOL     OW 1640   2.727   2.210   2.057
 2237SOL    HW1 1641   2.786   2.273   2.008
 2237SOL    HW2 1642   2.746   2.116   2.028
 2238SOL     OW 1643   3.581   2.447   3.693
 2238SOL    HW1 1644   3.555   2.536   3.657
 2238SOL    HW2 1645   3.579   2.379   3.620
 2239SOL     OW 1646   3.224   3.006   2.407
 2239SOL    HW1 1647   3.307   2.977   2.359
 2239SOL    HW2 1648   3.175   3.073   2.351
 2240SOL     OW 1649   2.870   3.318   2.339
 2240SOL    HW1 1650   2.824   3.390   2.287
 2240SOL    HW2 1651   2.866   3.338   2.437
 2241SOL     OW 1652   2.213   3.663   2.715
 2241SOL    HW1 1653   2.263   3.577   2.721
 2241SOL    HW2 1654   2.278   3.740   2.712
 2242SOL     OW 1655   3.657   2.928   2.735
 2242SOL    HW1 1656   3.595   2.913   2.659
 2242SOL    HW2 1657   3.605   2.939   2.820
 2243SOL     OW 1658   3.089   3.412   3.368
 2243SOL    HW1 1659   3.095   3.335   3.432
 2243SOL    HW2 1660   3.037   3.386   3.288
 2244SOL     OW 1661   2.183   2.805   2.104
 2244SOL    HW1 1662   2.265   2.844   2.062
 2244SOL    HW2 1663   2.156   2.723   2.055
 2245SOL     OW 1664   3.320   2.597   2.590
 2245SOL    HW1 1665   3.315   2.532   2.665
 2245SOL    HW2 1666   3.400   2.656   2.603
 2246SOL     OW 1667   2.323   3.128   3.589
 2246SOL    HW1 1668   2.273   3.129   3.503
 2246SOL    HW2 1669   2.260   3.110   3.665
 2247SOL     OW 1670   2.973   3.638   2.099
 2247SOL    HW1 1671   2.913   3.576   2.149
 2247SOL    HW2 1672   3.004   3.594   2.014
 2248SOL     OW 1673   2.064   2.147   3.360
 2248SOL    HW1 1674   1.984   2.207   3.347
 2248SOL    HW2 1675   2.054   2.098   3.446
 2249SOL     OW 1676   3.494   3.239   1.943
 2249SOL    HW1 1677   3.462   3.333   1.933
 2249SOL    HW2 1678   3.418   3.176   1.931
 2250SOL     OW 1679   2.326   3.605   2.185
 2250SOL    HW1 1680   2.359   3.644   2.271
 2250SOL    HW2 1681   2.402   3.598   2.120
 2251SOL     OW 1682   3.262   1.969   2.288
 2251SOL    HW1 1683   3.238   1.932   2.198
 2251SOL    HW2 1684   3.361   1.985   2.292
 2252SOL     OW 1685   2.111   3.647   3.103
 2252SOL    HW1 1686   2.168   3.582   3.153
 2252SOL    HW2 1687   2.095   3.614   3.010
 2253SOL     OW 1688   2.802   3.560   2.766
 2253SOL    HW1 1689   2.882   3.503   2.787
 2253SOL    HW2 1690   2.753   3.520   2.689
 2254SOL     OW 1691   3.409   2.084   3.591
 2254SOL    HW1 1692   3.404   2.121   3.683
 2254SOL    HW2 1693   3.337   2.015   3.579
 2255SOL     OW 1694   2.476   1.984   1.979
 2255SOL    HW1 1695   2.574   1.962   1.986
 2255SOL    HW2 1696   2.445   1.967   1.886
 2256SOL     OW 1697   2.643   2.126   3.611
 2256SOL    HW1 1698   2.710   2.065   3.654
 2256SOL    HW2 1699   2.570   2.145   3.676
 2257SOL     OW 1700   2.750   3.376   3.057
 2257SOL    HW1 1701   2.727   3.351   2.963
 2257SOL    HW2 1702   2.811   3.307   3.096
 2258SOL     OW 1703   3.213   2.452   3.295
 2258SOL    HW1 1704   3.241   2.409   3.380
 2258SOL    HW2 1705   3.238   2.548   3.296
 2259SOL     OW 1706   2.665   3.264   2.786
 2259SOL    HW1 1707   2.755   3.278   2.744
 2259SOL    HW2 1708   2.594   3.266   2.715
 2260SOL     OW 1709   2.784   2.365   2.761
 2260SOL    HW1 1710   2.759   2.356   2.665
 2260SOL    HW2 1711   2.832   2.283   2.792
 2261SOL     OW 1712   2.401   1.926   2.374
 2261SOL    HW1 1713   2.320   1.927   2.432
 2261SOL    HW2 1714   2.404   2.009   2.319
 2262SOL     OW 1715   3.296   3.050   1.903
 2262SOL    HW1 1716   3.328   2.974   1.960
 2262SOL    HW2 1717   3.204   3.077   1.933
 2263SOL     OW 1718   2.159   1.897   2.033
 2263SOL    HW1 1719   2.208   1.981   2.012
 2263SOL    HW2 1720   2.221   1.832   2.078
 2264SOL     OW 1721   2.797   2.098   2.342
 2264SOL    HW1 1722   2.749   2.139   2.264
 2264SOL    HW2 1723   2.896   2.096   2.323
 2265SOL     OW 1724   2.938   2.545   3.326
 2265SOL    HW1 1725   2.858   2.484   3.329
 2265SOL    HW2 1726   3.019   2.492   3.302
 2266SOL     OW 1727   3.089   3.432   2.655
 2266SOL    HW1 1728   3.110   3.506   2.590
 2266SOL    HW2 1729   3.157   3.432   2.728
 2267SOL     OW 1730   2.321   3.014   2.603
 2267SOL    HW1 1731   2.250   2.987   2.668
 2267SOL    HW2 1732   2.295   2.986   2.510
 2268SOL     OW 1733   3.133   3.659   2.453
 2268SOL    HW1 1734   3.177   3.723   2.389
 2268SOL    HW2 1735   3.083   3.711   2.523
 2269SOL     OW 1736   2.894   2.411   1.878
 2269SOL    HW1 1737   2.853   2.493   1.839
 2269SOL    HW2 1738   2.958   2.437   1.951
 2270SOL     OW 1739   1.940   2.418   3.248
 2270SOL    HW1 1740   2.032   2.417   3.207
 2270SOL    HW2 1741   1.934   2.492   3.315
 2271SOL     OW 1742   2.423   2.084   3.009
 2271SOL    HW1 1743   2.461   2.000   3.046
 2271SOL    HW2 1744   2.335   2.103   3.053
 2272SOL     OW 1745   2.879   1.901   2.615
 2272SOL    HW1 1746   2.807   1.906   2.546
 2272SOL    HW2 1747   2.855   1.832   2.684
 2273SOL     OW 1748   3.291   3.035   2.729
 2273SOL    HW1 1749   3.236   2.951   2.722
 2273SOL    HW2 1750   3.317   3.064   2.637
 2274SOL     OW 1751   3.328   2.452   2.854
 2274SOL    HW1 1752   3.298   2.357   2.861
 2274SOL    HW2 1753   3.401   2.468   2.920
 2275SOL     OW 1754   3.719   2.695   2.239
 2275SOL    HW1 1755   3.761   2.631   2.303
 2275SOL    HW2 1756   3.681   2.644   2.161
 2276SOL     OW 1757   2.350   3.247   2.036
 2276SOL    HW1 1758   2.263   3.232   2.083
 2276SOL    HW2 1759   2.333   3.273   1.941
 2277SOL     OW 1760   3.526   3.142   2.519
 2277SOL    HW1 1761   3.625   3.150   2.533
 2277SOL    HW2 1762   3.481   3.226   2.550
 2278SOL     OW 1763   3.252   2.437   1.940
 2278SOL    HW1 1764   3.198   2.416   2.021
 2278SOL    HW2 1765   3.343   2.396   1.949
 2279SOL     OW 1766   2.389   2.118   2.190
 2279SOL    HW1 1767   2.416   2.059   2.115
 2279SOL    HW2 1768   2.389   2.213   2.159
 2280SOL     OW 1769   3.616   3.085   3.450
 2280SOL    HW1 1770   3.707   3.046   3.437
 2280SOL    HW2 1771   3.624   3.181   3.474
 2281SOL     OW 1772   2.926   3.209   3.202
 2281SOL    HW1 1773   2.846   3.186   3.257
 2281SOL    HW2 1774   3.009   3.183   3.251
 2283SOL     OW 1775   2.973   3.057   2.962
 2283SOL    HW1 1776   2.933   3.101   3.043
 2283SOL    HW2 1777   2.932   3.094   2.879
 2284SOL     OW 1778   3.500   2.961   2.941
 2284SOL    HW1 1779   3.505   3.042   3.000
 2284SOL    HW2 1780   3.414   2.963   2.890
 2285SOL     OW 1781   2.777   1.951   3.264
 2285SOL    HW1 1782   2.802   1.931   3.169
 2285SOL    HW2 1783   2.849   2.007   3.306
 2286SOL     OW 1784   2.842   2.978   3.581
 2286SOL    HW1 1785   2.743   2.984   3.591
 2286SOL    HW2 1786   2.865   2.898   3.525
 2287SOL     OW 1787   2.567   2.912   2.230
 2287SOL    HW1 1788   2.553   2.919   2.329
 2287SOL    HW2 1789   2.651   2.861   2.212
 2288SOL     OW 1790   2.272   2.675   3.113
 2288SOL    HW1 1791   2.358   2.687   3.163
 2288SOL    HW2 1792   2.230   2.588   3.140
 2289SOL     OW 1793   3.136   2.248   3.124
 2289SOL    HW1 1794   3.157   2.322   3.188
 2289SOL    HW2 1795   3.047   2.265   3.081
 2290SOL     OW 1796   1.926   3.426   3.193
 2290SOL    HW1 1797   1.880   3.508   3.159
 2290SOL    HW2 1798   2.024   3.445   3.202
 2291SOL     OW 1799   2.229   2.962   2.363
 2291SOL    HW1 1800   2.222   3.045   2.307
 2291SOL    HW2 1801   2.233   2.882   2.303
 2292SOL     OW 1802   3.114   3.210   2.250
 2292SOL    HW1 1803   3.164   3.287   2.290
 2292SOL    HW2 1804   3.019   3.212   2.282
 2293SOL     OW 1805   3.134   3.307   3.004
 2293SOL    HW1 1806   3.181   3.320   3.091
 2293SOL    HW2 1807   3.068   3.233   3.013
 2294SOL     OW 1808   3.444   2.501   2.334
 2294SOL    HW1 1809   3.413   2.562   2.407
 2294SOL    HW2 1810   3.494   2.553   2.265
 2295SOL     OW 1811   2.216   3.372   3.191
 2295SOL    HW1 1812   2.195   3.328   3.104
 2295SOL    HW2 1813   2.313   3.398   3.194
 2296SOL     OW 1814   2.264   2.613   3.460
 2296SOL    HW1 1815   2.332   2.668   3.413
 2296SOL    HW2 1816   2.304   2.525   3.487
 2297SOL     OW 1817   3.449   2.641   3.532
 2297SOL    HW1 1818   3.357   2.679   3.527
 2297SOL    HW2 1819   3.509   2.688   3.467
 2298SOL     OW 1820   2.875   1.967   3.632
 2298SOL    HW1 1821   2.881   2.052   3.580
 2298SOL    HW2 1822   2.907   1.891   3.575
 2299SOL     OW 1823   2.366   1.912   3.602
 2299SOL    HW1 1824   2.324   1.855   3.532
 2299SOL    HW2 1825   2.300   1.981   3.634
 2300SOL     OW 1826   2.435   2.732   2.891
 2300SOL    HW1 1827   2.479   2.821   2.882
 2300SOL    HW2 1828   2.372   2.732   2.968
 2301SOL     OW 1829   3.222   2.724   2.907
 2301SOL    HW1 1830   3.147   2.724   2.841
 2301SOL    HW2 1831   3.259   2.632   2.916
 2302SOL     OW 1832   3.071   2.387   2.137
 2302SOL    HW1 1833   3.084   2.303   2.191
 2302SOL    HW2 1834   3.042   2.461   2.197
 2303SOL     OW 1835   2.169   2.075   3.093
 2303SOL    HW1 1836   2.146   2.112   3.183
 2303SOL    HW2 1837   2.139   1.980   3.087
 2304SOL     OW 1838   1.899   3.172   3.144
 2304SOL    HW1 1839   1.952   3.123   3.212
 2304SOL    HW2 1840   1.921   3.270   3.149
 2305SOL     OW 1841   2.594   2.496   2.926
 2305SOL    HW1 1842   2.653   2.470   2.850
 2305SOL    HW2 1843   2.566   2.592   2.915
 2306SOL     OW 1844   3.590   2.797   3.716
 2306SOL    HW1 1845   3.544   2.790   3.627
 2306SOL    HW2 1846   3.528   2.841   3.782
 2307SOL     OW 1847   2.169   1.925   2.480
 2307SOL    HW1 1848   2.158   2.019   2.513
 2307SOL    HW2 1849   2.164   1.862   2.557
 2308SOL     OW 1850   3.484   2.229   2.236
 2308SOL    HW1 1851   3.486   2.153   2.300
 2308SOL    HW2 1852   3.436   2.306   2.276
 2309SOL     OW 1853   2.885   2.628   2.828
 2309SOL    HW1 1854   2.900   2.649   2.924
 2309SOL    HW2 1855   2.855   2.533   2.819
 2310SOL     OW 1856   2.842   3.435   3.562
 2310SOL    HW1 1857   2.822   3.479   3.474
 2310SOL    HW2 1858   2.881   3.344   3.546
 2312SOL     OW 1859   2.212   2.760   3.666
 2312SOL    HW1 1860   2.288   2.804   3.714
 2312SOL    HW2 1861   2.247   2.713   3.584
 2313SOL     OW 1862   3.402   2.136   1.987
 2313SOL    HW1 1863   3.341   2.061   2.010
 2313SOL    HW2 1864   3.424   2.188   2.070
 2314SOL     OW 1865   3.165   2.700   1.904
 2314SOL    HW1 1866   3.199   2.607   1.919
 2314SOL    HW2 1867   3.183   2.727   1.809
 2315SOL     OW 1868   2.930   3.195   2.711
 2315SOL    HW1 1869   2.937   3.111   2.656
 2315SOL    HW2 1870   2.992   3.264   2.675
 2316SOL     OW 1871   2.181   2.672   2.811
 2316SOL    HW1 1872   2.274   2.708   2.816
 2316SOL    HW2 1873   2.175   2.587   2.863
 2317SOL     OW 1874   3.000   2.242   3.540
 2317SOL    HW1 1875   2.955   2.305   3.604
 2317SOL    HW2 1876   3.093   2.273   3.523
 2318SOL     OW 1877   3.022   2.069   3.339
 2318SOL    HW1 1878   3.022   2.133   3.416
 2318SOL    HW2 1879   3.050   2.117   3.256
 2319SOL     OW 1880   1.870   3.188   2.062
 2319SOL    HW1 1881   1.777   3.209   2.031
 2319SOL    HW2 1882   1.880   3.089   2.075
 2320SOL     OW 1883   1.950   3.663   2.789
 2320SOL    HW1 1884   1.908   3.577   2.762
 2320SOL    HW2 1885   2.044   3.666   2.755
 2321SOL     OW 1886   2.366   3.430   2.772
 2321SOL    HW1 1887   2.432   3.504   2.781
 2321SOL    HW2 1888   2.410   3.351   2.730
 2322SOL     OW 1889   2.864   2.658   3.100
 2322SOL    HW1 1890   2.905   2.626   3.186
 2322SOL    HW2 1891   2.768   2.631   3.097
 2323SOL     OW 1892   1.902   2.406   2.976
 2323SOL    HW1 1893   1.987   2.373   2.935
 2323SOL    HW2 1894   1.915   2.421   3.074
 2324SOL     OW 1895   2.051   2.382   3.584
 2324SOL    HW1 1896   2.110   2.342   3.514
 2324SOL    HW2 1897   1.993   2.453   3.543
 2325SOL     OW 1898   3.231   2.812   3.522
 2325SOL    HW1 1899   3.270   2.901   3.542
 2325SOL    HW2 1900   3.241   2.792   3.425
 2326SOL     OW 1901   3.519   2.466   3.068
 2326SOL    HW1 1902   3.481   2.397   3.130
 2326SOL    HW2 1903   3.601   2.430   3.024
 2327SOL     OW 1904   2.114   3.426   3.606
 2327SOL    HW1 1905   2.084   3.483   3.682
 2327SOL    HW2 1906   2.107   3.329   3.632
 2328SOL     OW 1907   2.533   2.326   3.131
 2328SOL    HW1 1908   2.499   2.237   3.101
 2328SOL    HW2 1909   2.559   2.380   3.051
 2329SOL     OW 1910   2.792   3.540   3.327
 2329SOL    HW1 1911   2.768   3.522   3.232
 2329SOL    HW2 1912   2.822   3.634   3.337
 2330SOL     OW 1913   2.021   2.999   3.328
 2330SOL    HW1 1914   2.043   2.938   3.404
 2330SOL    HW2 1915   2.031   2.950   3.242
 2331SOL     OW 1916   3.209   2.921   3.096
 2331SOL    HW1 1917   3.233   2.858   3.022
 2331SOL    HW2 1918   3.119   2.961   3.078
 2332SOL     OW 1919   3.164   2.717   2.171
 2332SOL    HW1 1920   3.078   2.686   2.213
 2332SOL    HW2 1921   3.160   2.703   2.072
 2333SOL     OW 1922   3.621   3.609   3.016
 2333SOL    HW1 1923   3.682   3.639   2.943
 2333SOL    HW2 1924   3.583   3.520   2.994
 2334SOL     OW 1925   3.114   3.593   2.990
 2334SOL    HW1 1926   3.198   3.598   2.936
 2334SOL    HW2 1927   3.091   3.497   3.008
 2335SOL     OW 1928   1.945   3.120   2.884
 2335SOL    HW1 1929   1.940   3.119   2.984
 2335SOL    HW2 1930   1.862   3.079   2.846
 2336SOL     OW 1931   2.550   3.524   3.578
 2336SOL    HW1 1932   2.494   3.605   3.587
 2336SOL    HW2 1933   2.602   3.528   3.492
 2337SOL     OW 1934   3.588   1.997   2.385
 2337SOL    HW1 1935   3.661   1.980   2.318
 2337SOL    HW2 1936   3.557   1.910   2.423
 2338SOL     OW 1937   3.250   3.435   2.339
 2338SOL    HW1 1938   3.317   3.447   2.265
 2338SOL    HW2 1939   3.210   3.524   2.362
 2340SOL     OW 1940   3.142   2.789   2.534
 2340SOL    HW1 1941   3.202   2.708   2.536
 2340SOL    HW2 1942   3.182   2.858   2.474
 2341SOL     OW 1943   2.692   3.135   3.284
 2341SOL    HW1 1944   2.687   3.168   3.379
 2341SOL    HW2 1945   2.606   3.154   3.238
 2342SOL     OW 1946   2.534   3.478   2.016
 2342SOL    HW1 1947   2.543   3.488   1.917
 2342SOL    HW2 1948   2.494   3.389   2.037
 2343SOL     OW 1949   3.512   3.582   3.256
 2343SOL    HW1 1950   3.565   3.592   3.172
 2343SOL    HW2 1951   3.485   3.672   3.290
 2344SOL     OW 1952   3.703   2.037   2.825
 2344SOL    HW1 1953   3.742   1.952   2.789
 2344SOL    HW2 1954   3.605   2.039   2.806
 2345SOL     OW 1955   3.056   3.474   1.893
 2345SOL    HW1 1956   3.062   3.381   1.930
 2345SOL    HW2 1957   2.997   3.474   1.813
 2346SOL     OW 1958   2.684   2.864   3.234
 2346SOL    HW1 1959   2.724   2.863   3.142
 2346SOL    HW2 1960   2.694   2.956   3.274
 2347SOL     OW 1961   2.778   2.772   2.153
 2347SOL    HW1 1962   2.841   2.810   2.085
 2347SOL    HW2 1963   2.818   2.689   2.192
 2348SOL     OW 1964   3.366   3.469   1.906
 2348SOL    HW1 1965   3.274   3.506   1.913
 2348SOL    HW2 1966   3.404   3.489   1.816
 2349SOL     OW 1967   2.234   3.150   3.352
 2349SOL    HW1 1968   2.221   3.243   3.318
 2349SOL    HW2 1969   2.150   3.098   3.339
 2350SOL     OW 1970   3.476   3.154   3.151
 2350SOL    HW1 1971   3.536   3.157   3.231
 2350SOL    HW2 1972   3.401   3.218   3.164
 2351SOL     OW 1973   2.901   2.960   2.558
 2351SOL    HW1 1974   2.831   2.913   2.612
 2351SOL    HW2 1975   2.960   2.892   2.515
 2352SOL     OW 1976   2.876   2.098   2.833
 2352SOL    HW1 1977   2.868   2.062   2.740
 2352SOL    HW2 1978   2.874   2.022   2.898
 2353SOL     OW 1979   2.452   3.349   2.353
 2353SOL    HW1 1980   2.494   3.291   2.283
 2353SOL    HW2 1981   2.408   3.428   2.309
 2354SOL     OW 1982   3.571   2.247   3.243
 2354SOL    HW1 1983   3.644   2.316   3.247
 2354SOL    HW2 1984   3.599   2.172   3.184
 2355SOL     OW 1985   2.117   3.210   2.152
 2355SOL    HW1 1986   2.021   3.211   2.125
 2355SOL    HW2 1987   2.129   3.263   2.236
 2356SOL     OW 1988   1.967   2.875   3.588
 2356SOL    HW1 1989   1.890   2.842   3.642
 2356SOL    HW2 1990   2.052   2.845   3.630
 2357SOL     OW 1991   2.534   2.065   3.351
 2357SOL    HW1 1992   2.624   2.049   3.311
 2357SOL    HW2 1993   2.542   2.070   3.450
 2358SOL     OW 1994   1.937   2.207   1.895
 2358SOL    HW1 1995   1.845   2.179   1.866
 2358SOL    HW2 1996   1.968   2.284   1.839
 2359SOL     OW 1997   3.302   2.718   3.260
 2359SOL    HW1 1998   3.245   2.770   3.197
 2359SOL    HW2 1999   3.398   2.730   3.236
 2360SOL     OW 2000   1.934   2.028   2.180
 2360SOL    HW1 2001   1.917   2.111   2.126
 2360SOL    HW2 2002   2.024   1.991   2.158
 2361SOL     OW 2003   3.045   3.197   1.981
 2361SOL    HW1 2004   2.946   3.186   1.983
 2361SOL    HW2 2005   3.079   3.212   2.074
 2362SOL     OW 2006   2.475   2.704   3.293
 2362SOL    HW1 2007   2.531   2.785   3.276
 2362SOL    HW2 2008   2.534   2.624   3.296
 2363SOL     OW 2009   3.355   3.629   2.821
 2363SOL    HW1 2010   3.388   3.693   2.752
 2363SOL    HW2 2011   3.421   3.623   2.896
 2364SOL     OW 2012   2.578   2.427   3.570
 2364SOL    HW1 2013   2.597   2.492   3.644
 2364SOL    HW2 2014   2.638   2.347   3.579
 2365SOL     OW 2015   3.312   3.082   3.495
 2365SOL    HW1 2016   3.303   3.072   3.594
 2365SOL    HW2 2017   3.408   3.075   3.469
 2366SOL     OW 2018   2.252   3.603   3.422
 2366SOL    HW1 2019   2.161   3.644   3.420
 2366SOL    HW2 2020   2.245   3.509   3.454
 2367SOL     OW 2021   3.536   2.745   3.116
 2367SOL    HW1 2022   3.509   2.656   3.079
 2367SOL    HW2 2023   3.537   2.813   3.043
 2368SOL     OW 2024   3.087   2.187   2.311
 2368SOL    HW1 2025   3.152   2.113   2.300
 2368SOL    HW2 2026   3.107   2.237   2.395
 2369SOL     OW 2027   3.639   2.204   3.504
 2369SOL    HW1 2028   3.622   2.235   3.410
 2369SOL    HW2 2029   3.555   2.167   3.542
 2370SOL     OW 2030   3.592   2.796   3.379
 2370SOL    HW1 2031   3.630   2.887   3.394
 2370SOL    HW2 2032   3.584   2.779   3.280
 2371SOL     OW 2033   2.721   3.236   1.878
 2371SOL    HW1 2034   2.675   3.251   1.966
 2371SOL    HW2 2035   2.765   3.321   1.848
 2372SOL     OW 2036   2.523   3.652   2.815
 2372SOL    HW1 2037   2.477   3.740   2.802
 2372SOL    HW2 2038   2.622   3.664   2.808
 2373SOL     OW 2039   2.721   2.818   2.723
 2373SOL    HW1 2040   2.775   2.749   2.771
 2373SOL    HW2 2041   2.689   2.887   2.789
 2374SOL     OW 2042   2.945   2.846   1.949
 2374SOL    HW1 2043   2.922   2.899   1.867
 2374SOL    HW2 2044   3.026   2.790   1.930
 2375SOL     OW 2045   3.723   3.431   2.713
 2375SOL    HW1 2046   3.652   3.419   2.643
 2375SOL    HW2 2047   3.724   3.352   2.773
 2376SOL     OW 2048   2.083   3.176   3.706
 2376SOL    HW1 2049   2.018   3.103   3.685
 2376SOL    HW2 2050   2.087   3.190   3.804
 2377SOL     OW 2051   1.941   3.102   2.515
 2377SOL    HW1 2052   1.940   3.055   2.603
 2377SOL    HW2 2053   2.023   3.074   2.464
 2378SOL     OW 2054   2.534   3.253   3.486
 2378SOL    HW1 2055   2.456   3.203   3.524
 2378SOL    HW2 2056   2.531   3.348   3.517
 2379SOL     OW 2057   3.686   2.054   3.089
 2379SOL    HW1 2058   3.682   1.964   3.133
 2379SOL    HW2 2059   3.689   2.043   2.990
 2380SOL     OW 2060   3.567   3.349   2.966
 2380SOL    HW1 2061   3.474   3.324   2.939
 2380SOL    HW2 2062   3.593   3.299   3.048
 2381SOL     OW 2063   2.179   2.409   3.142
 2381SOL    HW1 2064   2.217   2.350   3.214
 2381SOL    HW2 2065   2.219   2.383   3.054
 2382SOL     OW 2066   2.674   3.448   2.549
 2382SOL    HW1 2067   2.706   3.458   2.455
 2382SOL    HW2 2068   2.595   3.386   2.551
 2383SOL     OW 2069   3.286   2.076   2.974
 2383SOL    HW1 2070   3.338   2.011   3.029
 2383SOL    HW2 2071   3.237   2.139   3.035
 2384SOL     OW 2072   2.863   1.896   3.016
 2384SOL    HW1 2073   2.800   1.824   2.985
 2384SOL    HW2 2074   2.956   1.860   3.016
 2385SOL     OW 2075   2.632   3.192   2.163
 2385SOL    HW1 2076   2.586   3.105   2.180
 2385SOL    HW2 2077   2.723   3.189   2.204
 2386SOL     OW 2078   2.480   3.429   3.146
 2386SOL    HW1 2079   2.475   3.511   3.203
 2386SOL    HW2 2080   2.569   3.426   3.101
 2387SOL     OW 2081   3.214   1.914   2.030
 2387SOL    HW1 2082   3.249   1.873   1.946
 2387SOL    HW2 2083   3.124   1.876   2.050
 2388SOL     OW 2084   3.162   2.315   2.553
 2388SOL    HW1 2085   3.103   2.395   2.557
 2388SOL    HW2 2086   3.177   2.280   2.646
 2389SOL     OW 2087   3.455   2.083   2.744
 2389SOL    HW1 2088   3.371   2.082   2.798
 2389SOL    HW2 2089   3.457   2.166   2.688
 2390SOL     OW 2090   1.901   2.939   2.162
 2390SOL    HW1 2091   2.000   2.928   2.153
 2390SOL    HW2 2092   1.861   2.853   2.194
 2391SOL     OW 2093   2.737   3.508   2.199
 2391SOL    HW1 2094   2.660   3.473   2.145
 2391SOL    HW2 2095   2.705   3.579   2.261
 2392SOL     OW 2096   2.092   2.490   3.837
 2392SOL    HW1 2097   1.999   2.488   3.874
 2392SOL    HW2 2098   2.093   2.451   3.745
 2405SOL     OW 2099   2.468   2.826   3.847
 2405SOL    HW1 2100   2.475   2.910   3.793
 2405SOL    HW2 2101   2.514   2.839   3.935
 2416SOL     OW 2102   2.460   2.591   3.994
 2416SOL    HW1 2103   2.484   2.660   3.926
 2416SOL    HW2 2104   2.382   2.624   4.048
 2421SOL     OW 2105   2.727   2.210   3.919
 2421SOL    HW1 2106   2.786   2.273   3.870
 2421SOL    HW2 2107   2.746   2.116   3.890
 2427SOL     OW 2108   2.183   2.805   3.966
 2427SOL    HW1 2109   2.265   2.844   3.924
 2427SOL    HW2 2110   2.156   2.723   3.917
 2435SOL     OW 2111   2.244   2.562   4.204
 2435SOL    HW1 2112   2.289   2.472   4.201
 2435SOL    HW2 2113   2.150   2.551   4.237
 2436SOL     OW 2114   2.476   1.984   3.841
 2436SOL    HW1 2115   2.574   1.962   3.848
 2436SOL    HW2 2116   2.445   1.967   3.748
 2440SOL     OW 2117   3.296   3.050   3.765
 2440SOL    HW1 2118   3.328   2.974   3.822
 2440SOL    HW2 2119   3.204   3.077   3.795
 2441SOL     OW 2120   2.159   1.897   3.895
 2441SOL    HW1 2121   2.208   1.981   3.874
 2441SOL    HW2 2122   2.221   1.832   3.940
 2446SOL     OW 2123   2.894   2.411   3.740
 2446SOL    HW1 2124   2.853   2.493   3.701
 2446SOL    HW2 2125   2.958   2.437   3.813
 2452SOL     OW 2126   2.350   3.247   3.898
 2452SOL    HW1 2127   2.263   3.232   3.945
 2452SOL    HW2 2128   2.333   3.273   3.803
 2454SOL     OW 2129   3.252   2.437   3.802
 2454SOL    HW1 2130   3.198   2.416   3.883
 2454SOL    HW2 2131   3.343   2.396   3.811
 2455SOL     OW 2132   2.389   2.118   4.052
 2455SOL    HW1 2133   2.416   2.059   3.977
 2455SOL    HW2 2134   2.389   2.213   4.021
 2457SOL     OW 2135   2.567   2.912   4.092
 2457SOL    HW1 2136   2.553   2.919   4.191
 2457SOL    HW2 2137   2.651   2.861   4.074
 2463SOL     OW 2138   3.071   2.387   3.999
 2463SOL    HW1 2139   3.084   2.303   4.053
 2463SOL    HW2 2140   3.042   2.461   4.059
 2469SOL     OW 2141   3.402   2.136   3.849
 2469SOL    HW1 2142   3.341   2.061   3.872
 2469SOL    HW2 2143   3.424   2.188   3.932
 2470SOL     OW 2144   3.165   2.700   3.766
 2470SOL    HW1 2145   3.199   2.607   3.781
 2470SOL    HW2 2146   3.183   2.727   3.671
 2474SOL     OW 2147   1.870   3.188   3.924
 2474SOL    HW1 2148   1.777   3.209   3.893
 2474SOL    HW2 2149   1.880   3.089   3.937
 2478SOL     OW 2150   2.677   2.434   4.049
 2478SOL    HW1 2151   2.684   2.345   4.003
 2478SOL    HW2 2152   2.583   2.468   4.041
 2480SOL     OW 2153   2.335   2.362   3.915
 2480SOL    HW1 2154   2.396   2.442   3.919
 2480SOL    HW2 2155   2.240   2.393   3.922
 2491SOL     OW 2156   2.778   2.772   4.015
 2491SOL    HW1 2157   2.841   2.810   3.947
 2491SOL    HW2 2158   2.818   2.689   4.054
 2497SOL     OW 2159   1.937   2.207   3.757
 2497SOL    HW1 2160   1.845   2.179   3.728
 2497SOL    HW2 2161   1.968   2.284   3.701
 2498SOL     OW 2162   1.934   2.028   4.042
 2498SOL    HW1 2163   1.917   2.111   3.988
 2498SOL    HW2 2164   2.024   1.991   4.020
 2499SOL     OW 2165   3.045   3.197   3.843
 2499SOL    HW1 2166   2.946   3.186   3.845
 2499SOL    HW2 2167   3.079   3.212   3.936
 2504SOL     OW 2168   2.721   3.236   3.740
 2504SOL    HW1 2169   2.675   3.251   3.828
 2504SOL    HW2 2170   2.765   3.321   3.710
 2507SOL     OW 2171   2.945   2.846   3.811
 2507SOL    HW1 2172   2.922   2.899   3.729
 2507SOL    HW2 2173   3.026   2.790   3.792
 2513SOL     OW 2174   2.632   3.192   4.025
 2513SOL    HW1 2175   2.586   3.105   4.042
 2513SOL    HW2 2176   2.723   3.189   4.066
 2514SOL     OW 2177   3.214   1.914   3.892
 2514SOL    HW1 2178   3.249   1.873   3.808
 2514SOL    HW2 2179   3.124   1.876   3.912
 2517SOL     OW 2180   1.901   2.939   4.024
 2517SOL    HW1 2181   2.000   2.928   4.015
 2517SOL    HW2 2182   1.861   2.853   4.056
 2538SOL     OW 2183   2.179   3.975   1.801
 2538SOL    HW1 2184   2.250   4.046   1.807
 2538SOL    HW2 2185   2.091   4.014   1.829
 2557SOL     OW 2186   2.643   3.988   1.749
 2557SOL    HW1 2187   2.710   3.927   1.792
 2557SOL    HW2 2188   2.570   4.007   1.814
 2574SOL     OW 2189   2.777   3.813   1.402
 2574SOL    HW1 2190   2.802   3.793   1.307
 2574SOL    HW2 2191   2.849   3.869   1.444
 2581SOL     OW 2192   2.875   3.829   1.770
 2581SOL    HW1 2193   2.881   3.914   1.718
 2581SOL    HW2 2194   2.907   3.753   1.713
 2582SOL     OW 2195   2.366   3.774   1.740
 2582SOL    HW1 2196   2.324   3.717   1.670
 2582SOL    HW2 2197   2.300   3.843   1.772
 2619SOL     OW 2198   2.534   3.927   1.489
 2619SOL    HW1 2199   2.624   3.911   1.449
 2619SOL    HW2 2200   2.542   3.932   1.588
 2643SOL     OW 2201   2.087   3.999   2.858
 2643SOL    HW1 2202   2.122   3.982   2.950
 2643SOL    HW2 2203   1.999   3.954   2.846
 2644SOL     OW 2204   1.881   4.092   2.509
 2644SOL    HW1 2205   1.799   4.135   2.548
 2644SOL    HW2 2206   1.853   4.019   2.446
 2658SOL     OW 2207   2.671   3.728   2.364
 2658SOL    HW1 2208   2.711   3.819   2.355
 2658SOL    HW2 2209   2.571   3.736   2.370
 2670SOL     OW 2210   2.727   4.072   2.057
 2670SOL    HW1 2211   2.786   4.135   2.008
 2670SOL    HW2 2212   2.746   3.978   2.028
 2672SOL     OW 2213   2.412   3.920   2.747
 2672SOL    HW1 2214   2.407   3.915   2.847
 2672SOL    HW2 2215   2.414   4.016   2.718
 2676SOL     OW 2216   3.262   3.831   2.288
 2676SOL    HW1 2217   3.238   3.794   2.198
 2676SOL    HW2 2218   3.361   3.847   2.292
 2679SOL     OW 2219   2.476   3.846   1.979
 2679SOL    HW1 2220   2.574   3.824   1.986
 2679SOL    HW2 2221   2.445   3.829   1.886
 2683SOL     OW 2222   2.401   3.788   2.374
 2683SOL    HW1 2223   2.320   3.789   2.432
 2683SOL    HW2 2224   2.404   3.871   2.319
 2684SOL     OW 2225   2.159   3.759   2.033
 2684SOL    HW1 2226   2.208   3.843   2.012
 2684SOL    HW2 2227   2.221   3.694   2.078
 2685SOL     OW 2228   2.797   3.960   2.342
 2685SOL    HW1 2229   2.749   4.001   2.264
 2685SOL    HW2 2230   2.896   3.958   2.323
 2689SOL     OW 2231   2.423   3.946   3.009
 2689SOL    HW1 2232   2.461   3.862   3.046
 2689SOL    HW2 2233   2.335   3.965   3.053
 2690SOL     OW 2234   2.728   4.178   2.504
 2690SOL    HW1 2235   2.696   4.250   2.442
 2690SOL    HW2 2236   2.752   4.097   2.451
 2691SOL     OW 2237   2.879   3.763   2.615
 2691SOL    HW1 2238   2.807   3.768   2.546
 2691SOL    HW2 2239   2.855   3.694   2.684
 2696SOL     OW 2240   2.389   3.980   2.190
 2696SOL    HW1 2241   2.416   3.921   2.115
 2696SOL    HW2 2242   2.389   4.075   2.159
 2698SOL     OW 2243   2.777   3.813   3.264
 2698SOL    HW1 2244   2.802   3.793   3.169
 2698SOL    HW2 2245   2.849   3.869   3.306
 2706SOL     OW 2246   2.366   3.774   3.602
 2706SOL    HW1 2247   2.324   3.717   3.532
 2706SOL    HW2 2248   2.300   3.843   3.634
 2710SOL     OW 2249   2.169   3.937   3.093
 2710SOL    HW1 2250   2.146   3.974   3.183
 2710SOL    HW2 2251   2.139   3.842   3.087
 2713SOL     OW 2252   2.169   3.787   2.480
 2713SOL    HW1 2253   2.158   3.881   2.513
 2713SOL    HW2 2254   2.164   3.724   2.557
 2737SOL     OW 2255   2.125   4.050   2.582
 2737SOL    HW1 2256   2.046   4.101   2.548
 2737SOL    HW2 2257   2.116   4.035   2.680
 2739SOL     OW 2258   2.876   3.960   2.833
 2739SOL    HW1 2259   2.868   3.924   2.740
 2739SOL    HW2 2260   2.874   3.884   2.898
 2742SOL     OW 2261   2.534   3.927   3.351
 2742SOL    HW1 2262   2.624   3.911   3.311
 2742SOL    HW2 2263   2.542   3.932   3.450
 2743SOL     OW 2264   1.937   4.069   1.895
 2743SOL    HW1 2265   1.845   4.041   1.866
 2743SOL    HW2 2266   1.968   4.146   1.839
 2745SOL     OW 2267   1.934   3.890   2.180
 2745SOL    HW1 2268   1.917   3.973   2.126
 2745SOL    HW2 2269   2.024   3.853   2.158
 2750SOL     OW 2270   3.087   4.049   2.311
 2750SOL    HW1 2271   3.152   3.975   2.300
 2750SOL    HW2 2272   3.107   4.099   2.395
 2757SOL     OW 2273   2.290   4.148   2.382
 2757SOL    HW1 2274   2.320   4.076   2.320
 2757SOL    HW2 2275   2.251   4.108   2.465
 2760SOL     OW 2276   2.863   3.758   3.016
 2760SOL    HW1 2277   2.800   3.686   2.985
 2760SOL    HW2 2278   2.956   3.722   3.016
 2761SOL     OW 2279   3.214   3.776   2.030
 2761SOL    HW1 2280   3.249   3.735   1.946
 2761SOL    HW2 2281   3.124   3.738   2.050
 2870SOL     OW 2282   3.854   1.821   1.571
 2870SOL    HW1 2283   3.844   1.806   1.670
 2870SOL    HW2 2284   3.768   1.857   1.535
 2938SOL     OW 2285   3.854   1.794   1.851
 2938SOL    HW1 2286   3.813   1.720   1.904
 2938SOL    HW2 2287   3.918   1.845   1.909
 2984SOL     OW 2288   3.955   1.713   2.345
 2984SOL    HW1 2289   3.989   1.790   2.399
 2984SOL    HW2 2290   3.999   1.713   2.255
 2991SOL     OW 2291   3.751   1.596   1.979
 2991SOL    HW1 2292   3.732   1.500   2.000
 2991SOL    HW2 2293   3.718   1.654   2.054
 3007SOL     OW 2294   4.075   1.801   2.715
 3007SOL    HW1 2295   4.125   1.715   2.721
 3007SOL    HW2 2296   4.140   1.878   2.712
 3036SOL     OW 2297   3.788   1.564   3.193
 3036SOL    HW1 2298   3.742   1.646   3.159
 3036SOL    HW2 2299   3.886   1.583   3.202
 3055SOL     OW 2300   3.732   1.326   2.062
 3055SOL    HW1 2301   3.639   1.347   2.031
 3055SOL    HW2 2302   3.742   1.227   2.075
 3056SOL     OW 2303   3.812   1.801   2.789
 3056SOL    HW1 2304   3.770   1.715   2.762
 3056SOL    HW2 2305   3.906   1.804   2.755
 3201SOL     OW 2306   3.837   2.599   1.597
 3201SOL    HW1 2307   3.925   2.586   1.642
 3201SOL    HW2 2308   3.824   2.696   1.575
 3205SOL     OW 2309   4.041   2.113   1.801
 3205SOL    HW1 2310   4.112   2.184   1.807
 3205SOL    HW2 2311   3.953   2.152   1.829
 3219SOL     OW 2312   3.926   2.147   1.498
 3219SOL    HW1 2313   3.846   2.207   1.485
 3219SOL    HW2 2314   3.916   2.098   1.584
 3235SOL     OW 2315   3.802   2.418   1.386
 3235SOL    HW1 2316   3.894   2.417   1.345
 3235SOL    HW2 2317   3.796   2.492   1.453
 3260SOL     OW 2318   4.074   2.760   1.804
 3260SOL    HW1 2319   4.150   2.804   1.852
 3260SOL    HW2 2320   4.109   2.713   1.722
 3269SOL     OW 2321   3.913   2.382   1.722
 3269SOL    HW1 2322   3.972   2.342   1.652
 3269SOL    HW2 2323   3.855   2.453   1.681
 3291SOL     OW 2324   3.829   2.875   1.726
 3291SOL    HW1 2325   3.752   2.842   1.780
 3291SOL    HW2 2326   3.914   2.845   1.768
 3304SOL     OW 2327   3.945   3.176   1.844
 3304SOL    HW1 2328   3.880   3.103   1.823
 3304SOL    HW2 2329   3.949   3.190   1.942
 3315SOL     OW 2330   3.954   2.490   1.975
 3315SOL    HW1 2331   3.861   2.488   2.012
 3315SOL    HW2 2332   3.955   2.451   1.883
 3316SOL     OW 2333   3.949   2.137   2.858
 3316SOL    HW1 2334   3.984   2.120   2.950
 3316SOL    HW2 2335   3.861   2.092   2.846
 3317SOL     OW 2336   3.743   2.230   2.509
 3317SOL    HW1 2337   3.661   2.273   2.548
 3317SOL    HW2 2338   3.715   2.157   2.446
 3327SOL     OW 2339   3.954   3.296   2.400
 3327SOL    HW1 2340   3.928   3.392   2.400
 3327SOL    HW2 2341   3.883   3.242   2.445
 3328SOL     OW 2342   3.964   2.953   2.748
 3328SOL    HW1 2343   3.978   2.869   2.800
 3328SOL    HW2 2344   3.909   3.017   2.803
 3331SOL     OW 2345   3.846   2.505   2.425
 3331SOL    HW1 2346   3.801   2.417   2.442
 3331SOL    HW2 2347   3.845   2.559   2.509
 3332SOL     OW 2348   3.751   3.458   1.979
 3332SOL    HW1 2349   3.732   3.362   2.000
 3332SOL    HW2 2350   3.718   3.516   2.054
 3333SOL     OW 2351   3.837   2.599   3.459
 3333SOL    HW1 2352   3.925   2.586   3.504
 3333SOL    HW2 2353   3.824   2.696   3.437
 3336SOL     OW 2354   3.921   2.838   3.126
 3336SOL    HW1 2355   4.010   2.793   3.112
 3336SOL    HW2 2356   3.848   2.773   3.107
 3343SOL     OW 2357   3.800   2.673   2.651
 3343SOL    HW1 2358   3.899   2.661   2.660
 3343SOL    HW2 2359   3.776   2.768   2.672
 3349SOL     OW 2360   4.045   2.805   2.104
 3349SOL    HW1 2361   4.127   2.844   2.062
 3349SOL    HW2 2362   4.018   2.723   2.055
 3351SOL     OW 2363   3.926   2.147   3.360
 3351SOL    HW1 2364   3.846   2.207   3.347
 3351SOL    HW2 2365   3.916   2.098   3.446
 3355SOL     OW 2366   4.106   2.562   2.342
 3355SOL    HW1 2367   4.151   2.472   2.339
 3355SOL    HW2 2368   4.012   2.551   2.375
 3362SOL     OW 2369   4.021   1.897   2.033
 3362SOL    HW1 2370   4.070   1.981   2.012
 3362SOL    HW2 2371   4.083   1.832   2.078
 3367SOL     OW 2372   3.802   2.418   3.248
 3367SOL    HW1 2373   3.894   2.417   3.207
 3367SOL    HW2 2374   3.796   2.492   3.315
 3378SOL     OW 2375   4.091   2.962   2.363
 3378SOL    HW1 2376   4.084   3.045   2.307
 3378SOL    HW2 2377   4.095   2.882   2.303
 3386SOL     OW 2378   4.031   2.075   3.093
 3386SOL    HW1 2379   4.008   2.112   3.183
 3386SOL    HW2 2380   4.001   1.980   3.087
 3387SOL     OW 2381   3.761   3.172   3.144
 3387SOL    HW1 2382   3.814   3.123   3.212
 3387SOL    HW2 2383   3.783   3.270   3.149
 3389SOL     OW 2384   4.031   1.925   2.480
 3389SOL    HW1 2385   4.020   2.019   2.513
 3389SOL    HW2 2386   4.026   1.862   2.557
 3394SOL     OW 2387   4.043   2.672   2.811
 3394SOL    HW1 2388   4.136   2.708   2.816
 3394SOL    HW2 2389   4.037   2.587   2.863
 3395SOL     OW 2390   4.063   2.371   2.868
 3395SOL    HW1 2391   4.011   2.288   2.851
 3395SOL    HW2 2392   4.140   2.376   2.804
 3396SOL     OW 2393   3.732   3.188   2.062
 3396SOL    HW1 2394   3.639   3.209   2.031
 3396SOL    HW2 2395   3.742   3.089   2.075
 3400SOL     OW 2396   3.764   2.406   2.976
 3400SOL    HW1 2397   3.849   2.373   2.935
 3400SOL    HW2 2398   3.777   2.421   3.074
 3408SOL     OW 2399   3.807   3.120   2.884
 3408SOL    HW1 2400   3.802   3.119   2.984
 3408SOL    HW2 2401   3.724   3.079   2.846
 3414SOL     OW 2402   3.987   2.188   2.582
 3414SOL    HW1 2403   3.908   2.239   2.548
 3414SOL    HW2 2404   3.978   2.173   2.680
 3421SOL     OW 2405   3.979   3.210   2.152
 3421SOL    HW1 2406   3.883   3.211   2.125
 3421SOL    HW2 2407   3.991   3.263   2.236
 3424SOL     OW 2408   3.799   2.207   1.895
 3424SOL    HW1 2409   3.707   2.179   1.866
 3424SOL    HW2 2410   3.830   2.284   1.839
 3425SOL     OW 2411   3.796   2.028   2.180
 3425SOL    HW1 2412   3.779   2.111   2.126
 3425SOL    HW2 2413   3.886   1.991   2.158
 3435SOL     OW 2414   3.803   3.102   2.515
 3435SOL    HW1 2415   3.802   3.055   2.603
 3435SOL    HW2 2416   3.885   3.074   2.464
 3437SOL     OW 2417   4.152   2.286   2.382
 3437SOL    HW1 2418   4.182   2.214   2.320
 3437SOL    HW2 2419   4.113   2.246   2.465
 3438SOL     OW 2420   4.041   2.409   3.142
 3438SOL    HW1 2421   4.079   2.350   3.214
 3438SOL    HW2 2422   4.081   2.383   3.054
 3443SOL     OW 2423   3.763   2.939   2.162
 3443SOL    HW1 2424   3.862   2.928   2.153
 3443SOL    HW2 2425   3.723   2.853   2.194
   4.84050   4.84050   4.84050
