; mobley_430089_GMX.itp created by acpype (v: 2023.10.27) on Wed May 20 23:44:32 2026

[ atomtypes ]
;name   bond_type     mass     charge   ptype   sigma         epsilon       Amb
 c1       c1          0.00000  0.00000   A     3.47896e-01   6.67766e-01 ; 1.95  0.1596
 c3       c3          0.00000  0.00000   A     3.39771e-01   4.51035e-01 ; 1.91  0.1078
 ha       ha          0.00000  0.00000   A     2.62548e-01   6.73624e-02 ; 1.47  0.0161
 hc       hc          0.00000  0.00000   A     2.60018e-01   8.70272e-02 ; 1.46  0.0208

[ moleculetype ]
;name            nrexcl
 mobley_430089    3

[ atoms ]
;   nr  type  resi  res  atom  cgnr     charge      mass       ; qtot   bond_type
     1   c1     1   MOL    C1    1    -0.163500     12.01000 ; qtot -0.164
     2   c1     1   MOL    C2    2    -0.138100     12.01000 ; qtot -0.302
     3   c3     1   MOL    C3    3    -0.095100     12.01000 ; qtot -0.397
     4   c3     1   MOL    C4    4    -0.004300     12.01000 ; qtot -0.401
     5   c3     1   MOL    C5    5    -0.076400     12.01000 ; qtot -0.477
     6   ha     1   MOL    H1    6     0.162500      1.00800 ; qtot -0.315
     7   hc     1   MOL    H2    7     0.034700      1.00800 ; qtot -0.280
     8   hc     1   MOL    H3    8     0.034700      1.00800 ; qtot -0.245
     9   hc     1   MOL    H4    9     0.034700      1.00800 ; qtot -0.211
    10   hc     1   MOL    H5   10     0.058700      1.00800 ; qtot -0.152
    11   hc     1   MOL    H6   11     0.058700      1.00800 ; qtot -0.093
    12   hc     1   MOL    H7   12     0.046700      1.00800 ; qtot -0.047
    13   hc     1   MOL    H8   13     0.046700      1.00800 ; qtot 0.000

[ bonds ]
;   ai     aj funct   r             k
     1      2   1    1.2095e-01    5.8503e+05 ;     C1 - C2    
     1      6   1    1.0666e-01    3.2839e+05 ;     C1 - H1    
     2      4   1    1.4656e-01    2.3814e+05 ;     C2 - C4    
     3      5   1    1.5354e-01    1.9154e+05 ;     C3 - C5    
     3      7   1    1.0962e-01    2.8891e+05 ;     C3 - H2    
     3      8   1    1.0962e-01    2.8891e+05 ;     C3 - H3    
     3      9   1    1.0962e-01    2.8891e+05 ;     C3 - H4    
     4      5   1    1.5354e-01    1.9154e+05 ;     C4 - C5    
     4     10   1    1.0962e-01    2.8891e+05 ;     C4 - H5    
     4     11   1    1.0962e-01    2.8891e+05 ;     C4 - H6    
     5     12   1    1.0962e-01    2.8891e+05 ;     C5 - H7    
     5     13   1    1.0962e-01    2.8891e+05 ;     C5 - H8    

[ pairs ]
;   ai     aj    funct
     1      5      1 ;     C1 - C5    
     1     10      1 ;     C1 - H5    
     1     11      1 ;     C1 - H6    
     2      3      1 ;     C2 - C3    
     2     12      1 ;     C2 - H7    
     2     13      1 ;     C2 - H8    
     3     10      1 ;     C3 - H5    
     3     11      1 ;     C3 - H6    
     4      7      1 ;     C4 - H2    
     4      8      1 ;     C4 - H3    
     4      9      1 ;     C4 - H4    
     6      4      1 ;     H1 - C4    
     7     12      1 ;     H2 - H7    
     7     13      1 ;     H2 - H8    
     8     12      1 ;     H3 - H7    
     8     13      1 ;     H3 - H8    
     9     12      1 ;     H4 - H7    
     9     13      1 ;     H4 - H8    
    10     12      1 ;     H5 - H7    
    10     13      1 ;     H5 - H8    
    11     12      1 ;     H6 - H7    
    11     13      1 ;     H6 - H8    

[ angles ]
;   ai     aj     ak    funct   theta         cth
     1      2      4      1    1.7867e+02    4.4836e+02 ;     C1 - C2     - C4    
     2      1      6      1    1.7928e+02    3.4351e+02 ;     C2 - C1     - H1    
     2      4      5      1    1.1202e+02    5.1354e+02 ;     C2 - C4     - C5    
     2      4     10      1    1.0945e+02    3.7765e+02 ;     C2 - C4     - H5    
     2      4     11      1    1.0945e+02    3.7765e+02 ;     C2 - C4     - H6    
     3      5      4      1    1.1263e+02    5.0099e+02 ;     C3 - C5     - C4    
     3      5     12      1    1.0968e+02    3.6208e+02 ;     C3 - C5     - H7    
     3      5     13      1    1.0968e+02    3.6208e+02 ;     C3 - C5     - H8    
     4      5     12      1    1.0968e+02    3.6208e+02 ;     C4 - C5     - H7    
     4      5     13      1    1.0968e+02    3.6208e+02 ;     C4 - C5     - H8    
     5      3      7      1    1.0968e+02    3.6208e+02 ;     C5 - C3     - H2    
     5      3      8      1    1.0968e+02    3.6208e+02 ;     C5 - C3     - H3    
     5      3      9      1    1.0968e+02    3.6208e+02 ;     C5 - C3     - H4    
     5      4     10      1    1.0968e+02    3.6208e+02 ;     C5 - C4     - H5    
     5      4     11      1    1.0968e+02    3.6208e+02 ;     C5 - C4     - H6    
     7      3      8      1    1.0773e+02    2.9957e+02 ;     H2 - C3     - H3    
     7      3      9      1    1.0773e+02    2.9957e+02 ;     H2 - C3     - H4    
     8      3      9      1    1.0773e+02    2.9957e+02 ;     H3 - C3     - H4    
    10      4     11      1    1.0773e+02    2.9957e+02 ;     H5 - C4     - H6    
    12      5     13      1    1.0773e+02    2.9957e+02 ;     H7 - C5     - H8    

[ dihedrals ] ; propers
; for gromacs 4.5 or higher, using funct 9
;    i      j      k      l   func   phase     kd      pn
     1      2      4      5      9   180.00   0.00000   2 ;     C1-    C2-    C4-    C5
     1      2      4     10      9   180.00   0.00000   2 ;     C1-    C2-    C4-    H5
     1      2      4     11      9   180.00   0.00000   2 ;     C1-    C2-    C4-    H6
     2      4      5      3      9     0.00   0.65084   3 ;     C2-    C4-    C5-    C3
     2      4      5     12      9     0.00   0.65084   3 ;     C2-    C4-    C5-    H7
     2      4      5     13      9     0.00   0.65084   3 ;     C2-    C4-    C5-    H8
     3      5      4     10      9     0.00   0.54392   3 ;     C3-    C5-    C4-    H5
     3      5      4     11      9     0.00   0.54392   3 ;     C3-    C5-    C4-    H6
     4      5      3      7      9     0.00   0.54392   3 ;     C4-    C5-    C3-    H2
     4      5      3      8      9     0.00   0.54392   3 ;     C4-    C5-    C3-    H3
     4      5      3      9      9     0.00   0.54392   3 ;     C4-    C5-    C3-    H4
     6      1      2      4      9   180.00   0.00000   2 ;     H1-    C1-    C2-    C4
     7      3      5     12      9     0.00   0.50208   3 ;     H2-    C3-    C5-    H7
     7      3      5     13      9     0.00   0.50208   3 ;     H2-    C3-    C5-    H8
     8      3      5     12      9     0.00   0.50208   3 ;     H3-    C3-    C5-    H7
     8      3      5     13      9     0.00   0.50208   3 ;     H3-    C3-    C5-    H8
     9      3      5     12      9     0.00   0.50208   3 ;     H4-    C3-    C5-    H7
     9      3      5     13      9     0.00   0.50208   3 ;     H4-    C3-    C5-    H8
    10      4      5     12      9     0.00   0.50208   3 ;     H5-    C4-    C5-    H7
    10      4      5     13      9     0.00   0.50208   3 ;     H5-    C4-    C5-    H8
    11      4      5     12      9     0.00   0.50208   3 ;     H6-    C4-    C5-    H7
    11      4      5     13      9     0.00   0.50208   3 ;     H6-    C4-    C5-    H8
