mobley_3709920_GMX.gro created by acpype (v: 2023.10.27) on Thu May 21 00:21:32 2026
 2403
    1MOL     C1    1   2.779   2.183   2.849
    1MOL     C2    2   2.810   2.280   2.763
    1MOL     C3    3   2.330   2.920   2.371
    1MOL     C4    4   2.748   2.417   2.765
    1MOL     C5    5   2.403   2.787   2.366
    1MOL     C6    6   2.685   2.456   2.631
    1MOL     C7    7   2.475   2.758   2.498
    1MOL     C8    8   2.614   2.592   2.628
    1MOL     C9    9   2.546   2.622   2.495
    1MOL     H1   10   2.828   2.086   2.843
    1MOL     H2   11   2.704   2.197   2.926
    1MOL     H3   12   2.886   2.261   2.688
    1MOL     H4   13   2.255   2.921   2.450
    1MOL     H5   14   2.279   2.939   2.276
    1MOL     H6   15   2.400   3.002   2.389
    1MOL     H7   16   2.674   2.425   2.845
    1MOL     H8   17   2.827   2.489   2.788
    1MOL     H9   18   2.331   2.707   2.345
    1MOL    H10   19   2.476   2.788   2.284
    1MOL    H11   20   2.763   2.455   2.554
    1MOL    H12   21   2.612   2.379   2.601
    1MOL    H13   22   2.548   2.837   2.518
    1MOL    H14   23   2.402   2.759   2.581
    1MOL    H15   24   2.685   2.672   2.652
    1MOL    H16   25   2.539   2.592   2.708
    1MOL    H17   26   2.619   2.622   2.414
    1MOL    H18   27   2.473   2.543   2.472
   97SOL     OW   28   1.592   1.629   1.625
   97SOL    HW1   29   1.619   1.663   1.535
   97SOL    HW2   30   1.671   1.591   1.671
  127SOL     OW   31   1.859   1.518   1.605
  127SOL    HW1   32   1.873   1.545   1.510
  127SOL    HW2   33   1.942   1.540   1.658
  163SOL     OW   34   1.650   1.720   1.394
  163SOL    HW1   35   1.703   1.730   1.310
  163SOL    HW2   36   1.623   1.810   1.428
  219SOL     OW   37   1.555   1.511   2.565
  219SOL    HW1   38   1.498   1.495   2.646
  219SOL    HW2   39   1.496   1.521   2.485
  227SOL     OW   40   1.460   1.505   3.201
  227SOL    HW1   41   1.484   1.599   3.227
  227SOL    HW2   42   1.444   1.451   3.283
  238SOL     OW   43   1.842   1.767   2.221
  238SOL    HW1   44   1.896   1.738   2.301
  238SOL    HW2   45   1.872   1.857   2.192
  241SOL     OW   46   1.641   1.108   2.294
  241SOL    HW1   47   1.727   1.110   2.242
  241SOL    HW2   48   1.655   1.155   2.382
  250SOL     OW   49   1.466   1.417   2.815
  250SOL    HW1   50   1.407   1.423   2.895
  250SOL    HW2   51   1.451   1.329   2.769
  251SOL     OW   52   1.667   1.714   2.434
  251SOL    HW1   53   1.626   1.691   2.346
  251SOL    HW2   54   1.649   1.640   2.499
  254SOL     OW   55   1.576   1.662   2.169
  254SOL    HW1   56   1.665   1.708   2.172
  254SOL    HW2   57   1.555   1.638   2.074
  268SOL     OW   58   1.795   1.066   2.735
  268SOL    HW1   59   1.733   1.051   2.659
  268SOL    HW2   60   1.743   1.077   2.820
  273SOL     OW   61   1.111   1.776   2.099
  273SOL    HW1   62   1.051   1.714   2.149
  273SOL    HW2   63   1.142   1.732   2.014
  275SOL     OW   64   1.632   1.377   1.943
  275SOL    HW1   65   1.600   1.471   1.933
  275SOL    HW2   66   1.556   1.314   1.931
  293SOL     OW   67   1.227   1.570   2.655
  293SOL    HW1   68   1.248   1.644   2.590
  293SOL    HW2   69   1.295   1.570   2.728
  295SOL     OW   70   1.271   1.797   2.453
  295SOL    HW1   71   1.315   1.861   2.389
  295SOL    HW2   72   1.221   1.849   2.523
  305SOL     OW   73   1.664   1.280   2.519
  305SOL    HW1   74   1.763   1.288   2.533
  305SOL    HW2   75   1.619   1.364   2.550
  310SOL     OW   76   1.592   1.629   3.487
  310SOL    HW1   77   1.619   1.663   3.397
  310SOL    HW2   78   1.671   1.591   3.533
  312SOL     OW   79   1.638   1.099   2.941
  312SOL    HW1   80   1.643   1.180   3.000
  312SOL    HW2   81   1.552   1.101   2.890
  322SOL     OW   82   1.272   1.445   3.004
  322SOL    HW1   83   1.319   1.458   3.091
  322SOL    HW2   84   1.206   1.371   3.013
  340SOL     OW   85   1.859   1.518   3.467
  340SOL    HW1   86   1.873   1.545   3.372
  340SOL    HW2   87   1.942   1.540   3.520
  365SOL     OW   88   1.759   1.747   3.016
  365SOL    HW1   89   1.820   1.777   2.943
  365SOL    HW2   90   1.721   1.658   2.994
  366SOL     OW   91   1.252   1.731   2.990
  366SOL    HW1   92   1.336   1.736   2.936
  366SOL    HW2   93   1.229   1.635   3.008
  370SOL     OW   94   1.388   1.573   2.339
  370SOL    HW1   95   1.455   1.585   2.265
  370SOL    HW2   96   1.348   1.662   2.362
  375SOL     OW   97   1.650   1.720   3.256
  375SOL    HW1   98   1.703   1.730   3.172
  375SOL    HW2   99   1.623   1.810   3.290
  381SOL     OW  100   1.504   1.607   1.906
  381SOL    HW1  101   1.412   1.644   1.913
  381SOL    HW2  102   1.542   1.627   1.816
  383SOL     OW  103   1.614   1.292   3.151
  383SOL    HW1  104   1.674   1.295   3.231
  383SOL    HW2  105   1.539   1.356   3.164
  396SOL     OW  106   1.493   1.767   2.821
  396SOL    HW1  107   1.526   1.831   2.752
  396SOL    HW2  108   1.559   1.761   2.896
  409SOL     OW  109   1.861   1.569   2.713
  409SOL    HW1  110   1.790   1.557   2.643
  409SOL    HW2  111   1.862   1.490   2.773
  415SOL     OW  112   1.705   1.487   2.966
  415SOL    HW1  113   1.612   1.462   2.939
  415SOL    HW2  114   1.731   1.437   3.048
  611SOL     OW  115   1.594   1.976   1.480
  611SOL    HW1  116   1.576   2.043   1.408
  611SOL    HW2  117   1.591   2.022   1.569
  631SOL     OW  118   1.394   2.331   1.674
  631SOL    HW1  119   1.374   2.374   1.762
  631SOL    HW2  120   1.472   2.269   1.683
  638SOL     OW  121   1.719   2.447   1.831
  638SOL    HW1  122   1.693   2.536   1.795
  638SOL    HW2  123   1.717   2.379   1.758
  656SOL     OW  124   1.547   2.084   1.729
  656SOL    HW1  125   1.542   2.121   1.821
  656SOL    HW2  126   1.475   2.015   1.717
  659SOL     OW  127   1.351   2.452   1.433
  659SOL    HW1  128   1.379   2.409   1.518
  659SOL    HW2  129   1.376   2.548   1.434
  681SOL     OW  130   1.754   3.085   1.588
  681SOL    HW1  131   1.845   3.046   1.575
  681SOL    HW2  132   1.762   3.181   1.612
  683SOL     OW  133   1.592   3.491   1.625
  683SOL    HW1  134   1.619   3.525   1.535
  683SOL    HW2  135   1.671   3.453   1.671
  699SOL     OW  136   1.587   2.641   1.670
  699SOL    HW1  137   1.495   2.679   1.665
  699SOL    HW2  138   1.647   2.688   1.605
  708SOL     OW  139   1.728   2.797   1.854
  708SOL    HW1  140   1.682   2.790   1.765
  708SOL    HW2  141   1.666   2.841   1.920
  713SOL     OW  142   1.859   3.380   1.605
  713SOL    HW1  143   1.873   3.407   1.510
  713SOL    HW2  144   1.942   3.402   1.658
  720SOL     OW  145   1.138   2.242   1.678
  720SOL    HW1  146   1.093   2.305   1.742
  720SOL    HW2  147   1.231   2.273   1.661
  728SOL     OW  148   1.369   2.812   1.660
  728SOL    HW1  149   1.408   2.901   1.680
  728SOL    HW2  150   1.379   2.792   1.563
  730SOL     OW  151   1.657   2.466   1.206
  730SOL    HW1  152   1.619   2.397   1.268
  730SOL    HW2  153   1.739   2.430   1.162
  757SOL     OW  154   1.614   3.154   1.289
  757SOL    HW1  155   1.674   3.157   1.369
  757SOL    HW2  156   1.539   3.218   1.302
  761SOL     OW  157   1.709   2.247   1.381
  761SOL    HW1  158   1.782   2.316   1.385
  761SOL    HW2  159   1.737   2.172   1.322
  766SOL     OW  160   1.440   2.718   1.398
  766SOL    HW1  161   1.383   2.770   1.335
  766SOL    HW2  162   1.536   2.730   1.374
  772SOL     OW  163   1.450   3.082   1.633
  772SOL    HW1  164   1.441   3.072   1.732
  772SOL    HW2  165   1.546   3.075   1.607
  774SOL     OW  166   1.674   2.745   1.254
  774SOL    HW1  167   1.647   2.656   1.217
  774SOL    HW2  168   1.675   2.813   1.181
  777SOL     OW  169   1.777   2.204   1.642
  777SOL    HW1  170   1.760   2.235   1.548
  777SOL    HW2  171   1.693   2.167   1.680
  778SOL     OW  172   1.730   2.796   1.517
  778SOL    HW1  173   1.768   2.887   1.532
  778SOL    HW2  174   1.722   2.779   1.418
  787SOL     OW  175   1.824   2.054   1.227
  787SOL    HW1  176   1.820   1.964   1.271
  787SOL    HW2  177   1.827   2.043   1.128
  805SOL     OW  178   1.555   3.373   2.565
  805SOL    HW1  179   1.498   3.357   2.646
  805SOL    HW2  180   1.496   3.383   2.485
  806SOL     OW  181   1.135   2.565   2.579
  806SOL    HW1  182   1.192   2.643   2.554
  806SOL    HW2  183   1.075   2.591   2.655
  807SOL     OW  184   1.755   2.469   2.093
  807SOL    HW1  185   1.743   2.456   1.994
  807SOL    HW2  186   1.725   2.388   2.142
  813SOL     OW  187   1.460   3.367   3.201
  813SOL    HW1  188   1.484   3.461   3.227
  813SOL    HW2  189   1.444   3.313   3.283
  815SOL     OW  190   1.603   2.309   2.599
  815SOL    HW1  191   1.529   2.355   2.549
  815SOL    HW2  192   1.654   2.377   2.652
  822SOL     OW  193   1.594   1.976   3.342
  822SOL    HW1  194   1.576   2.043   3.270
  822SOL    HW2  195   1.591   2.022   3.431
  824SOL     OW  196   1.842   3.629   2.221
  824SOL    HW1  197   1.896   3.600   2.301
  824SOL    HW2  198   1.872   3.719   2.192
  826SOL     OW  199   1.689   2.784   2.474
  826SOL    HW1  200   1.784   2.755   2.482
  826SOL    HW2  201   1.681   2.849   2.399
  827SOL     OW  202   1.641   2.970   2.294
  827SOL    HW1  203   1.727   2.972   2.242
  827SOL    HW2  204   1.655   3.017   2.382
  830SOL     OW  205   1.293   3.090   3.285
  830SOL    HW1  206   1.330   3.017   3.227
  830SOL    HW2  207   1.345   3.095   3.370
  833SOL     OW  208   1.525   2.861   2.052
  833SOL    HW1  209   1.462   2.785   2.065
  833SOL    HW2  210   1.573   2.879   2.138
  836SOL     OW  211   1.466   3.279   2.815
  836SOL    HW1  212   1.407   3.285   2.895
  836SOL    HW2  213   1.451   3.191   2.769
  837SOL     OW  214   1.667   3.576   2.434
  837SOL    HW1  215   1.626   3.553   2.346
  837SOL    HW2  216   1.649   3.502   2.499
  839SOL     OW  217   1.281   2.207   2.806
  839SOL    HW1  218   1.195   2.157   2.793
  839SOL    HW2  219   1.343   2.153   2.862
  840SOL     OW  220   1.576   3.524   2.169
  840SOL    HW1  221   1.665   3.570   2.172
  840SOL    HW2  222   1.555   3.500   2.074
  842SOL     OW  223   1.394   2.331   3.536
  842SOL    HW1  224   1.374   2.374   3.624
  842SOL    HW2  225   1.472   2.269   3.545
  844SOL     OW  226   0.991   2.272   3.104
  844SOL    HW1  227   0.914   2.306   3.158
  844SOL    HW2  228   0.957   2.221   3.025
  845SOL     OW  229   1.041   2.563   2.291
  845SOL    HW1  230   1.067   2.559   2.387
  845SOL    HW2  231   0.956   2.512   2.277
  849SOL     OW  232   1.719   2.447   3.693
  849SOL    HW1  233   1.693   2.536   3.657
  849SOL    HW2  234   1.717   2.379   3.620
  850SOL     OW  235   1.362   3.006   2.407
  850SOL    HW1  236   1.445   2.977   2.359
  850SOL    HW2  237   1.313   3.073   2.351
  852SOL     OW  238   1.008   3.318   2.339
  852SOL    HW1  239   0.962   3.390   2.287
  852SOL    HW2  240   1.004   3.338   2.437
  854SOL     OW  241   1.795   2.928   2.735
  854SOL    HW1  242   1.733   2.913   2.659
  854SOL    HW2  243   1.743   2.939   2.820
  855SOL     OW  244   1.227   3.412   3.368
  855SOL    HW1  245   1.233   3.335   3.432
  855SOL    HW2  246   1.175   3.386   3.288
  857SOL     OW  247   1.458   2.597   2.590
  857SOL    HW1  248   1.453   2.532   2.665
  857SOL    HW2  249   1.538   2.656   2.603
  861SOL     OW  250   1.632   3.239   1.943
  861SOL    HW1  251   1.600   3.333   1.933
  861SOL    HW2  252   1.556   3.176   1.931
  863SOL     OW  253   1.400   1.969   2.288
  863SOL    HW1  254   1.376   1.932   2.198
  863SOL    HW2  255   1.499   1.985   2.292
  867SOL     OW  256   1.547   2.084   3.591
  867SOL    HW1  257   1.542   2.121   3.683
  867SOL    HW2  258   1.475   2.015   3.579
  871SOL     OW  259   1.351   2.452   3.295
  871SOL    HW1  260   1.379   2.409   3.380
  871SOL    HW2  261   1.376   2.548   3.296
  873SOL     OW  262   0.922   2.365   2.761
  873SOL    HW1  263   0.897   2.356   2.665
  873SOL    HW2  264   0.970   2.283   2.792
  875SOL     OW  265   1.434   3.050   1.903
  875SOL    HW1  266   1.466   2.974   1.960
  875SOL    HW2  267   1.342   3.077   1.933
  877SOL     OW  268   0.935   2.098   2.342
  877SOL    HW1  269   0.887   2.139   2.264
  877SOL    HW2  270   1.034   2.096   2.323
  878SOL     OW  271   1.076   2.545   3.326
  878SOL    HW1  272   0.996   2.484   3.329
  878SOL    HW2  273   1.157   2.492   3.302
  879SOL     OW  274   1.227   3.432   2.655
  879SOL    HW1  275   1.248   3.506   2.590
  879SOL    HW2  276   1.295   3.432   2.728
  881SOL     OW  277   1.271   3.659   2.453
  881SOL    HW1  278   1.315   3.723   2.389
  881SOL    HW2  279   1.221   3.711   2.523
  882SOL     OW  280   1.032   2.411   1.878
  882SOL    HW1  281   0.991   2.493   1.839
  882SOL    HW2  282   1.096   2.437   1.951
  885SOL     OW  283   0.866   2.316   2.504
  885SOL    HW1  284   0.834   2.388   2.442
  885SOL    HW2  285   0.890   2.235   2.451
  886SOL     OW  286   1.017   1.901   2.615
  886SOL    HW1  287   0.945   1.906   2.546
  886SOL    HW2  288   0.993   1.832   2.684
  887SOL     OW  289   1.429   3.035   2.729
  887SOL    HW1  290   1.374   2.951   2.722
  887SOL    HW2  291   1.455   3.064   2.637
  888SOL     OW  292   1.466   2.452   2.854
  888SOL    HW1  293   1.436   2.357   2.861
  888SOL    HW2  294   1.539   2.468   2.920
  889SOL     OW  295   1.857   2.695   2.239
  889SOL    HW1  296   1.899   2.631   2.303
  889SOL    HW2  297   1.819   2.644   2.161
  891SOL     OW  298   1.664   3.142   2.519
  891SOL    HW1  299   1.763   3.150   2.533
  891SOL    HW2  300   1.619   3.226   2.550
  892SOL     OW  301   1.390   2.437   1.940
  892SOL    HW1  302   1.336   2.416   2.021
  892SOL    HW2  303   1.481   2.396   1.949
  894SOL     OW  304   1.754   3.085   3.450
  894SOL    HW1  305   1.845   3.046   3.437
  894SOL    HW2  306   1.762   3.181   3.474
  895SOL     OW  307   1.064   3.209   3.202
  895SOL    HW1  308   0.984   3.186   3.257
  895SOL    HW2  309   1.147   3.183   3.251
  896SOL     OW  310   1.592   3.491   3.487
  896SOL    HW1  311   1.619   3.525   3.397
  896SOL    HW2  312   1.671   3.453   3.533
  897SOL     OW  313   1.111   3.057   2.962
  897SOL    HW1  314   1.071   3.101   3.043
  897SOL    HW2  315   1.070   3.094   2.879
  898SOL     OW  316   1.638   2.961   2.941
  898SOL    HW1  317   1.643   3.042   3.000
  898SOL    HW2  318   1.552   2.963   2.890
  903SOL     OW  319   1.274   2.248   3.124
  903SOL    HW1  320   1.295   2.322   3.188
  903SOL    HW2  321   1.185   2.265   3.081
  907SOL     OW  322   1.252   3.210   2.250
  907SOL    HW1  323   1.302   3.287   2.290
  907SOL    HW2  324   1.157   3.212   2.282
  908SOL     OW  325   1.272   3.307   3.004
  908SOL    HW1  326   1.319   3.320   3.091
  908SOL    HW2  327   1.206   3.233   3.013
  909SOL     OW  328   1.582   2.501   2.334
  909SOL    HW1  329   1.551   2.562   2.407
  909SOL    HW2  330   1.632   2.553   2.265
  912SOL     OW  331   1.587   2.641   3.532
  912SOL    HW1  332   1.495   2.679   3.527
  912SOL    HW2  333   1.647   2.688   3.467
  916SOL     OW  334   1.360   2.724   2.907
  916SOL    HW1  335   1.285   2.724   2.841
  916SOL    HW2  336   1.397   2.632   2.916
  917SOL     OW  337   1.209   2.387   2.137
  917SOL    HW1  338   1.222   2.303   2.191
  917SOL    HW2  339   1.180   2.461   2.197
  921SOL     OW  340   1.728   2.797   3.716
  921SOL    HW1  341   1.682   2.790   3.627
  921SOL    HW2  342   1.666   2.841   3.782
  923SOL     OW  343   1.622   2.229   2.236
  923SOL    HW1  344   1.624   2.153   2.300
  923SOL    HW2  345   1.574   2.306   2.276
  924SOL     OW  346   1.023   2.628   2.828
  924SOL    HW1  347   1.038   2.649   2.924
  924SOL    HW2  348   0.993   2.533   2.819
  926SOL     OW  349   1.859   3.380   3.467
  926SOL    HW1  350   1.873   3.407   3.372
  926SOL    HW2  351   1.942   3.402   3.520
  928SOL     OW  352   1.540   2.136   1.987
  928SOL    HW1  353   1.479   2.061   2.010
  928SOL    HW2  354   1.562   2.188   2.070
  929SOL     OW  355   1.303   2.700   1.904
  929SOL    HW1  356   1.337   2.607   1.919
  929SOL    HW2  357   1.321   2.727   1.809
  930SOL     OW  358   1.068   3.195   2.711
  930SOL    HW1  359   1.075   3.111   2.656
  930SOL    HW2  360   1.130   3.264   2.675
  933SOL     OW  361   1.138   2.242   3.540
  933SOL    HW1  362   1.093   2.305   3.604
  933SOL    HW2  363   1.231   2.273   3.523
  934SOL     OW  364   1.160   2.069   3.339
  934SOL    HW1  365   1.160   2.133   3.416
  934SOL    HW2  366   1.188   2.117   3.256
  938SOL     OW  367   1.002   2.658   3.100
  938SOL    HW1  368   1.043   2.626   3.186
  938SOL    HW2  369   0.906   2.631   3.097
  941SOL     OW  370   1.369   2.812   3.522
  941SOL    HW1  371   1.408   2.901   3.542
  941SOL    HW2  372   1.379   2.792   3.425
  943SOL     OW  373   1.657   2.466   3.068
  943SOL    HW1  374   1.619   2.397   3.130
  943SOL    HW2  375   1.739   2.430   3.024
  949SOL     OW  376   1.347   2.921   3.096
  949SOL    HW1  377   1.371   2.858   3.022
  949SOL    HW2  378   1.257   2.961   3.078
  950SOL     OW  379   1.302   2.717   2.171
  950SOL    HW1  380   1.216   2.686   2.213
  950SOL    HW2  381   1.298   2.703   2.072
  951SOL     OW  382   1.759   3.609   3.016
  951SOL    HW1  383   1.820   3.639   2.943
  951SOL    HW2  384   1.721   3.520   2.994
  952SOL     OW  385   1.252   3.593   2.990
  952SOL    HW1  386   1.336   3.598   2.936
  952SOL    HW2  387   1.229   3.497   3.008
  955SOL     OW  388   1.726   1.997   2.385
  955SOL    HW1  389   1.799   1.980   2.318
  955SOL    HW2  390   1.695   1.910   2.423
  956SOL     OW  391   1.388   3.435   2.339
  956SOL    HW1  392   1.455   3.447   2.265
  956SOL    HW2  393   1.348   3.524   2.362
  958SOL     OW  394   1.280   2.789   2.534
  958SOL    HW1  395   1.340   2.708   2.536
  958SOL    HW2  396   1.320   2.858   2.474
  961SOL     OW  397   1.650   3.582   3.256
  961SOL    HW1  398   1.703   3.592   3.172
  961SOL    HW2  399   1.623   3.672   3.290
  962SOL     OW  400   1.841   2.037   2.825
  962SOL    HW1  401   1.880   1.952   2.789
  962SOL    HW2  402   1.743   2.039   2.806
  964SOL     OW  403   1.194   3.474   1.893
  964SOL    HW1  404   1.200   3.381   1.930
  964SOL    HW2  405   1.135   3.474   1.813
  966SOL     OW  406   0.916   2.772   2.153
  966SOL    HW1  407   0.979   2.810   2.085
  966SOL    HW2  408   0.956   2.689   2.192
  967SOL     OW  409   1.504   3.469   1.906
  967SOL    HW1  410   1.412   3.506   1.913
  967SOL    HW2  411   1.542   3.489   1.816
  969SOL     OW  412   1.614   3.154   3.151
  969SOL    HW1  413   1.674   3.157   3.231
  969SOL    HW2  414   1.539   3.218   3.164
  970SOL     OW  415   1.039   2.960   2.558
  970SOL    HW1  416   0.969   2.913   2.612
  970SOL    HW2  417   1.098   2.892   2.515
  971SOL     OW  418   1.014   2.098   2.833
  971SOL    HW1  419   1.006   2.062   2.740
  971SOL    HW2  420   1.012   2.022   2.898
  973SOL     OW  421   1.709   2.247   3.243
  973SOL    HW1  422   1.782   2.316   3.247
  973SOL    HW2  423   1.737   2.172   3.184
  978SOL     OW  424   1.440   2.718   3.260
  978SOL    HW1  425   1.383   2.770   3.197
  978SOL    HW2  426   1.536   2.730   3.236
  980SOL     OW  427   1.183   3.197   1.981
  980SOL    HW1  428   1.084   3.186   1.983
  980SOL    HW2  429   1.217   3.212   2.074
  982SOL     OW  430   1.493   3.629   2.821
  982SOL    HW1  431   1.526   3.693   2.752
  982SOL    HW2  432   1.559   3.623   2.896
  984SOL     OW  433   1.450   3.082   3.495
  984SOL    HW1  434   1.441   3.072   3.594
  984SOL    HW2  435   1.546   3.075   3.469
  986SOL     OW  436   1.674   2.745   3.116
  986SOL    HW1  437   1.647   2.656   3.079
  986SOL    HW2  438   1.675   2.813   3.043
  987SOL     OW  439   1.225   2.187   2.311
  987SOL    HW1  440   1.290   2.113   2.300
  987SOL    HW2  441   1.245   2.237   2.395
  989SOL     OW  442   1.777   2.204   3.504
  989SOL    HW1  443   1.760   2.235   3.410
  989SOL    HW2  444   1.693   2.167   3.542
  990SOL     OW  445   1.730   2.796   3.379
  990SOL    HW1  446   1.768   2.887   3.394
  990SOL    HW2  447   1.722   2.779   3.280
  993SOL     OW  448   0.859   2.818   2.723
  993SOL    HW1  449   0.913   2.749   2.771
  993SOL    HW2  450   0.827   2.887   2.789
  994SOL     OW  451   1.083   2.846   1.949
  994SOL    HW1  452   1.060   2.899   1.867
  994SOL    HW2  453   1.164   2.790   1.930
  995SOL     OW  454   1.861   3.431   2.713
  995SOL    HW1  455   1.790   3.419   2.643
  995SOL    HW2  456   1.862   3.352   2.773
  999SOL     OW  457   1.824   2.054   3.089
  999SOL    HW1  458   1.820   1.964   3.133
  999SOL    HW2  459   1.827   2.043   2.990
 1001SOL     OW  460   1.705   3.349   2.966
 1001SOL    HW1  461   1.612   3.324   2.939
 1001SOL    HW2  462   1.731   3.299   3.048
 1004SOL     OW  463   1.424   2.076   2.974
 1004SOL    HW1  464   1.476   2.011   3.029
 1004SOL    HW2  465   1.375   2.139   3.035
 1005SOL     OW  466   1.001   1.896   3.016
 1005SOL    HW1  467   0.938   1.824   2.985
 1005SOL    HW2  468   1.094   1.860   3.016
 1008SOL     OW  469   1.352   1.914   2.030
 1008SOL    HW1  470   1.387   1.873   1.946
 1008SOL    HW2  471   1.262   1.876   2.050
 1009SOL     OW  472   1.300   2.315   2.553
 1009SOL    HW1  473   1.241   2.395   2.557
 1009SOL    HW2  474   1.315   2.280   2.646
 1010SOL     OW  475   1.593   2.083   2.744
 1010SOL    HW1  476   1.509   2.082   2.798
 1010SOL    HW2  477   1.595   2.166   2.688
 1019SOL     OW  478   1.755   2.469   3.955
 1019SOL    HW1  479   1.743   2.456   3.856
 1019SOL    HW2  480   1.725   2.388   4.004
 1037SOL     OW  481   1.525   2.861   3.914
 1037SOL    HW1  482   1.462   2.785   3.927
 1037SOL    HW2  483   1.573   2.879   4.000
 1057SOL     OW  484   1.632   3.239   3.805
 1057SOL    HW1  485   1.600   3.333   3.795
 1057SOL    HW2  486   1.556   3.176   3.793
 1068SOL     OW  487   1.434   3.050   3.765
 1068SOL    HW1  488   1.466   2.974   3.822
 1068SOL    HW2  489   1.342   3.077   3.795
 1080SOL     OW  490   1.857   2.695   4.101
 1080SOL    HW1  491   1.899   2.631   4.165
 1080SOL    HW2  492   1.819   2.644   4.023
 1083SOL     OW  493   1.390   2.437   3.802
 1083SOL    HW1  494   1.336   2.416   3.883
 1083SOL    HW2  495   1.481   2.396   3.811
 1107SOL     OW  496   1.540   2.136   3.849
 1107SOL    HW1  497   1.479   2.061   3.872
 1107SOL    HW2  498   1.562   2.188   3.932
 1108SOL     OW  499   1.303   2.700   3.766
 1108SOL    HW1  500   1.337   2.607   3.781
 1108SOL    HW2  501   1.321   2.727   3.671
 1352SOL     OW  502   1.594   3.838   3.342
 1352SOL    HW1  503   1.576   3.905   3.270
 1352SOL    HW2  504   1.591   3.884   3.431
 1382SOL     OW  505   1.400   3.831   2.288
 1382SOL    HW1  506   1.376   3.794   2.198
 1382SOL    HW2  507   1.499   3.847   2.292
 1455SOL     OW  508   1.726   3.859   2.385
 1455SOL    HW1  509   1.799   3.842   2.318
 1455SOL    HW2  510   1.695   3.772   2.423
 1458SOL     OW  511   1.841   3.899   2.825
 1458SOL    HW1  512   1.880   3.814   2.789
 1458SOL    HW2  513   1.743   3.901   2.806
 1486SOL     OW  514   1.824   3.916   3.089
 1486SOL    HW1  515   1.820   3.826   3.133
 1486SOL    HW2  516   1.827   3.905   2.990
 1495SOL     OW  517   1.593   3.945   2.744
 1495SOL    HW1  518   1.509   3.944   2.798
 1495SOL    HW2  519   1.595   4.028   2.688
 1634SOL     OW  520   2.548   1.161   1.803
 1634SOL    HW1  521   2.608   1.240   1.817
 1634SOL    HW2  522   2.462   1.192   1.762
 1640SOL     OW  523   2.989   1.341   1.690
 1640SOL    HW1  524   3.036   1.341   1.778
 1640SOL    HW2  525   2.941   1.254   1.679
 1643SOL     OW  526   2.482   1.786   1.439
 1643SOL    HW1  527   2.390   1.769   1.474
 1643SOL    HW2  528   2.510   1.878   1.465
 1657SOL     OW  529   3.049   1.792   1.616
 1657SOL    HW1  530   3.073   1.852   1.540
 1657SOL    HW2  531   3.056   1.697   1.586
 1670SOL     OW  532   1.992   1.821   1.571
 1670SOL    HW1  533   1.982   1.806   1.670
 1670SOL    HW2  534   1.906   1.857   1.535
 1678SOL     OW  535   3.089   1.550   1.506
 1678SOL    HW1  536   3.095   1.473   1.570
 1678SOL    HW2  537   3.037   1.524   1.426
 1681SOL     OW  538   2.323   1.266   1.727
 1681SOL    HW1  539   2.273   1.267   1.641
 1681SOL    HW2  540   2.260   1.248   1.803
 1687SOL     OW  541   2.111   1.785   1.241
 1687SOL    HW1  542   2.168   1.720   1.291
 1687SOL    HW2  543   2.095   1.752   1.148
 1693SOL     OW  544   2.750   1.514   1.195
 1693SOL    HW1  545   2.727   1.489   1.101
 1693SOL    HW2  546   2.811   1.445   1.234
 1718SOL     OW  547   2.926   1.347   1.340
 1718SOL    HW1  548   2.846   1.324   1.395
 1718SOL    HW2  549   3.009   1.321   1.389
 1719SOL     OW  550   3.454   1.629   1.625
 1719SOL    HW1  551   3.481   1.663   1.535
 1719SOL    HW2  552   3.533   1.591   1.671
 1723SOL     OW  553   2.842   1.116   1.719
 1723SOL    HW1  554   2.743   1.122   1.729
 1723SOL    HW2  555   2.865   1.036   1.663
 1727SOL     OW  556   1.926   1.564   1.331
 1727SOL    HW1  557   1.880   1.646   1.297
 1727SOL    HW2  558   2.024   1.583   1.340
 1733SOL     OW  559   2.216   1.510   1.329
 1733SOL    HW1  560   2.195   1.466   1.242
 1733SOL    HW2  561   2.313   1.536   1.332
 1748SOL     OW  562   2.842   1.573   1.700
 1748SOL    HW1  563   2.822   1.617   1.612
 1748SOL    HW2  564   2.881   1.482   1.684
 1766SOL     OW  565   2.114   1.564   1.744
 1766SOL    HW1  566   2.084   1.621   1.820
 1766SOL    HW2  567   2.107   1.467   1.770
 1768SOL     OW  568   2.792   1.678   1.465
 1768SOL    HW1  569   2.768   1.660   1.370
 1768SOL    HW2  570   2.822   1.772   1.475
 1774SOL     OW  571   3.114   1.731   1.128
 1774SOL    HW1  572   3.198   1.736   1.074
 1774SOL    HW2  573   3.091   1.635   1.146
 1776SOL     OW  574   2.550   1.662   1.716
 1776SOL    HW1  575   2.494   1.743   1.725
 1776SOL    HW2  576   2.602   1.666   1.630
 1780SOL     OW  577   1.992   1.794   1.851
 1780SOL    HW1  578   1.951   1.720   1.904
 1780SOL    HW2  579   2.056   1.845   1.909
 1782SOL     OW  580   2.692   1.273   1.422
 1782SOL    HW1  581   2.687   1.306   1.517
 1782SOL    HW2  582   2.606   1.292   1.376
 1784SOL     OW  583   3.512   1.720   1.394
 1784SOL    HW1  584   3.565   1.730   1.310
 1784SOL    HW2  585   3.485   1.810   1.428
 1791SOL     OW  586   2.234   1.288   1.490
 1791SOL    HW1  587   2.221   1.381   1.456
 1791SOL    HW2  588   2.150   1.236   1.477
 1808SOL     OW  589   2.252   1.741   1.560
 1808SOL    HW1  590   2.161   1.782   1.558
 1808SOL    HW2  591   2.245   1.647   1.592
 1819SOL     OW  592   2.083   1.314   1.844
 1819SOL    HW1  593   2.018   1.241   1.823
 1819SOL    HW2  594   2.087   1.328   1.942
 1821SOL     OW  595   2.534   1.391   1.624
 1821SOL    HW1  596   2.456   1.341   1.662
 1821SOL    HW2  597   2.531   1.486   1.655
 1830SOL     OW  598   2.480   1.567   1.284
 1830SOL    HW1  599   2.475   1.649   1.341
 1830SOL    HW2  600   2.569   1.564   1.239
 1839SOL     OW  601   2.431   1.275   3.027
 1839SOL    HW1  602   2.338   1.268   2.990
 1839SOL    HW2  603   2.442   1.364   3.071
 1840SOL     OW  604   3.417   1.511   2.565
 1840SOL    HW1  605   3.360   1.495   2.646
 1840SOL    HW2  606   3.358   1.521   2.485
 1843SOL     OW  607   2.630   1.144   2.885
 1843SOL    HW1  608   2.552   1.161   2.945
 1843SOL    HW2  609   2.664   1.231   2.849
 1845SOL     OW  610   2.547   1.012   2.527
 1845SOL    HW1  611   2.616   0.996   2.597
 1845SOL    HW2  612   2.474   1.069   2.565
 1846SOL     OW  613   2.548   1.161   3.665
 1846SOL    HW1  614   2.608   1.240   3.679
 1846SOL    HW2  615   2.462   1.192   3.624
 1847SOL     OW  616   2.197   1.435   2.923
 1847SOL    HW1  617   2.119   1.404   2.870
 1847SOL    HW2  618   2.255   1.493   2.866
 1848SOL     OW  619   3.322   1.505   3.201
 1848SOL    HW1  620   3.346   1.599   3.227
 1848SOL    HW2  621   3.306   1.451   3.283
 1851SOL     OW  622   2.093   1.713   2.345
 1851SOL    HW1  623   2.127   1.790   2.399
 1851SOL    HW2  624   2.137   1.713   2.255
 1852SOL     OW  625   2.989   1.341   3.552
 1852SOL    HW1  626   3.036   1.341   3.640
 1852SOL    HW2  627   2.941   1.254   3.541
 1853SOL     OW  628   2.092   1.434   2.400
 1853SOL    HW1  629   2.066   1.530   2.400
 1853SOL    HW2  630   2.021   1.380   2.445
 1854SOL     OW  631   2.102   1.091   2.748
 1854SOL    HW1  632   2.116   1.007   2.800
 1854SOL    HW2  633   2.047   1.155   2.803
 1855SOL     OW  634   2.482   1.786   3.301
 1855SOL    HW1  635   2.390   1.769   3.336
 1855SOL    HW2  636   2.510   1.878   3.327
 1856SOL     OW  637   2.468   0.964   1.985
 1856SOL    HW1  638   2.475   1.048   1.931
 1856SOL    HW2  639   2.514   0.977   2.073
 1859SOL     OW  640   3.704   1.767   2.221
 1859SOL    HW1  641   3.758   1.738   2.301
 1859SOL    HW2  642   3.734   1.857   2.192
 1860SOL     OW  643   1.889   1.596   1.979
 1860SOL    HW1  644   1.870   1.500   2.000
 1860SOL    HW2  645   1.856   1.654   2.054
 1862SOL     OW  646   3.503   1.108   2.294
 1862SOL    HW1  647   3.589   1.110   2.242
 1862SOL    HW2  648   3.517   1.155   2.382
 1864SOL     OW  649   2.475   1.365   2.588
 1864SOL    HW1  650   2.426   1.278   2.597
 1864SOL    HW2  651   2.452   1.408   2.501
 1865SOL     OW  652   3.155   1.228   3.285
 1865SOL    HW1  653   3.192   1.155   3.227
 1865SOL    HW2  654   3.207   1.233   3.370
 1867SOL     OW  655   2.059   0.976   3.126
 1867SOL    HW1  656   2.148   0.931   3.112
 1867SOL    HW2  657   1.986   0.911   3.107
 1869SOL     OW  658   3.049   1.792   3.478
 1869SOL    HW1  659   3.073   1.852   3.402
 1869SOL    HW2  660   3.056   1.697   3.448
 1871SOL     OW  661   3.328   1.417   2.815
 1871SOL    HW1  662   3.269   1.423   2.895
 1871SOL    HW2  663   3.313   1.329   2.769
 1872SOL     OW  664   3.529   1.714   2.434
 1872SOL    HW1  665   3.488   1.691   2.346
 1872SOL    HW2  666   3.511   1.640   2.499
 1875SOL     OW  667   3.438   1.662   2.169
 1875SOL    HW1  668   3.527   1.708   2.172
 1875SOL    HW2  669   3.417   1.638   2.074
 1882SOL     OW  670   1.992   1.821   3.433
 1882SOL    HW1  671   1.982   1.806   3.532
 1882SOL    HW2  672   1.906   1.857   3.397
 1885SOL     OW  673   3.224   1.144   2.407
 1885SOL    HW1  674   3.307   1.115   2.359
 1885SOL    HW2  675   3.175   1.211   2.351
 1887SOL     OW  676   2.870   1.456   2.339
 1887SOL    HW1  677   2.824   1.528   2.287
 1887SOL    HW2  678   2.866   1.476   2.437
 1888SOL     OW  679   2.213   1.801   2.715
 1888SOL    HW1  680   2.263   1.715   2.721
 1888SOL    HW2  681   2.278   1.878   2.712
 1890SOL     OW  682   3.089   1.550   3.368
 1890SOL    HW1  683   3.095   1.473   3.432
 1890SOL    HW2  684   3.037   1.524   3.288
 1891SOL     OW  685   2.183   0.943   2.104
 1891SOL    HW1  686   2.265   0.982   2.062
 1891SOL    HW2  687   2.156   0.861   2.055
 1893SOL     OW  688   2.323   1.266   3.589
 1893SOL    HW1  689   2.273   1.267   3.503
 1893SOL    HW2  690   2.260   1.248   3.665
 1894SOL     OW  691   2.973   1.776   2.099
 1894SOL    HW1  692   2.913   1.714   2.149
 1894SOL    HW2  693   3.004   1.732   2.014
 1896SOL     OW  694   3.494   1.377   1.943
 1896SOL    HW1  695   3.462   1.471   1.933
 1896SOL    HW2  696   3.418   1.314   1.931
 1897SOL     OW  697   2.326   1.743   2.185
 1897SOL    HW1  698   2.359   1.782   2.271
 1897SOL    HW2  699   2.402   1.736   2.120
 1899SOL     OW  700   2.111   1.785   3.103
 1899SOL    HW1  701   2.168   1.720   3.153
 1899SOL    HW2  702   2.095   1.752   3.010
 1900SOL     OW  703   2.802   1.698   2.766
 1900SOL    HW1  704   2.882   1.641   2.787
 1900SOL    HW2  705   2.753   1.658   2.689
 1905SOL     OW  706   2.750   1.514   3.057
 1905SOL    HW1  707   2.727   1.489   2.963
 1905SOL    HW2  708   2.811   1.445   3.096
 1907SOL     OW  709   2.665   1.402   2.786
 1907SOL    HW1  710   2.755   1.416   2.744
 1907SOL    HW2  711   2.594   1.404   2.715
 1910SOL     OW  712   3.296   1.188   1.903
 1910SOL    HW1  713   3.328   1.112   1.960
 1910SOL    HW2  714   3.204   1.215   1.933
 1914SOL     OW  715   3.089   1.570   2.655
 1914SOL    HW1  716   3.110   1.644   2.590
 1914SOL    HW2  717   3.157   1.570   2.728
 1915SOL     OW  718   2.321   1.152   2.603
 1915SOL    HW1  719   2.250   1.125   2.668
 1915SOL    HW2  720   2.295   1.124   2.510
 1916SOL     OW  721   3.133   1.797   2.453
 1916SOL    HW1  722   3.177   1.861   2.389
 1916SOL    HW2  723   3.083   1.849   2.523
 1922SOL     OW  724   3.291   1.173   2.729
 1922SOL    HW1  725   3.236   1.089   2.722
 1922SOL    HW2  726   3.317   1.202   2.637
 1925SOL     OW  727   2.350   1.385   2.036
 1925SOL    HW1  728   2.263   1.370   2.083
 1925SOL    HW2  729   2.333   1.411   1.941
 1926SOL     OW  730   3.526   1.280   2.519
 1926SOL    HW1  731   3.625   1.288   2.533
 1926SOL    HW2  732   3.481   1.364   2.550
 1930SOL     OW  733   2.926   1.347   3.202
 1930SOL    HW1  734   2.846   1.324   3.257
 1930SOL    HW2  735   3.009   1.321   3.251
 1931SOL     OW  736   3.454   1.629   3.487
 1931SOL    HW1  737   3.481   1.663   3.397
 1931SOL    HW2  738   3.533   1.591   3.533
 1932SOL     OW  739   2.973   1.195   2.962
 1932SOL    HW1  740   2.933   1.239   3.043
 1932SOL    HW2  741   2.932   1.232   2.879
 1933SOL     OW  742   3.500   1.099   2.941
 1933SOL    HW1  743   3.505   1.180   3.000
 1933SOL    HW2  744   3.414   1.101   2.890
 1935SOL     OW  745   2.842   1.116   3.581
 1935SOL    HW1  746   2.743   1.122   3.591
 1935SOL    HW2  747   2.865   1.036   3.525
 1936SOL     OW  748   2.567   1.050   2.230
 1936SOL    HW1  749   2.553   1.057   2.329
 1936SOL    HW2  750   2.651   0.999   2.212
 1939SOL     OW  751   1.926   1.564   3.193
 1939SOL    HW1  752   1.880   1.646   3.159
 1939SOL    HW2  753   2.024   1.583   3.202
 1940SOL     OW  754   2.229   1.100   2.363
 1940SOL    HW1  755   2.222   1.183   2.307
 1940SOL    HW2  756   2.233   1.020   2.303
 1942SOL     OW  757   3.114   1.348   2.250
 1942SOL    HW1  758   3.164   1.425   2.290
 1942SOL    HW2  759   3.019   1.350   2.282
 1943SOL     OW  760   3.134   1.445   3.004
 1943SOL    HW1  761   3.181   1.458   3.091
 1943SOL    HW2  762   3.068   1.371   3.013
 1945SOL     OW  763   2.216   1.510   3.191
 1945SOL    HW1  764   2.195   1.466   3.104
 1945SOL    HW2  765   2.313   1.536   3.194
 1950SOL     OW  766   2.435   0.870   2.891
 1950SOL    HW1  767   2.479   0.959   2.882
 1950SOL    HW2  768   2.372   0.870   2.968
 1954SOL     OW  769   1.899   1.310   3.144
 1954SOL    HW1  770   1.952   1.261   3.212
 1954SOL    HW2  771   1.921   1.408   3.149
 1960SOL     OW  772   2.842   1.573   3.562
 1960SOL    HW1  773   2.822   1.617   3.474
 1960SOL    HW2  774   2.881   1.482   3.546
 1961SOL     OW  775   3.721   1.518   3.467
 1961SOL    HW1  776   3.735   1.545   3.372
 1961SOL    HW2  777   3.804   1.540   3.520
 1965SOL     OW  778   2.930   1.333   2.711
 1965SOL    HW1  779   2.937   1.249   2.656
 1965SOL    HW2  780   2.992   1.402   2.675
 1970SOL     OW  781   1.870   1.326   2.062
 1970SOL    HW1  782   1.777   1.347   2.031
 1970SOL    HW2  783   1.880   1.227   2.075
 1971SOL     OW  784   1.950   1.801   2.789
 1971SOL    HW1  785   1.908   1.715   2.762
 1971SOL    HW2  786   2.044   1.804   2.755
 1972SOL     OW  787   2.366   1.568   2.772
 1972SOL    HW1  788   2.432   1.642   2.781
 1972SOL    HW2  789   2.410   1.489   2.730
 1979SOL     OW  790   2.114   1.564   3.606
 1979SOL    HW1  791   2.084   1.621   3.682
 1979SOL    HW2  792   2.107   1.467   3.632
 1981SOL     OW  793   2.792   1.678   3.327
 1981SOL    HW1  794   2.768   1.660   3.232
 1981SOL    HW2  795   2.822   1.772   3.337
 1983SOL     OW  796   2.021   1.137   3.328
 1983SOL    HW1  797   2.043   1.076   3.404
 1983SOL    HW2  798   2.031   1.088   3.242
 1984SOL     OW  799   3.209   1.059   3.096
 1984SOL    HW1  800   3.233   0.996   3.022
 1984SOL    HW2  801   3.119   1.099   3.078
 1986SOL     OW  802   3.621   1.747   3.016
 1986SOL    HW1  803   3.682   1.777   2.943
 1986SOL    HW2  804   3.583   1.658   2.994
 1987SOL     OW  805   3.114   1.731   2.990
 1987SOL    HW1  806   3.198   1.736   2.936
 1987SOL    HW2  807   3.091   1.635   3.008
 1988SOL     OW  808   1.945   1.258   2.884
 1988SOL    HW1  809   1.940   1.257   2.984
 1988SOL    HW2  810   1.862   1.217   2.846
 1989SOL     OW  811   2.550   1.662   3.578
 1989SOL    HW1  812   2.494   1.743   3.587
 1989SOL    HW2  813   2.602   1.666   3.492
 1991SOL     OW  814   3.250   1.573   2.339
 1991SOL    HW1  815   3.317   1.585   2.265
 1991SOL    HW2  816   3.210   1.662   2.362
 1992SOL     OW  817   1.992   1.794   3.713
 1992SOL    HW1  818   1.951   1.720   3.766
 1992SOL    HW2  819   2.056   1.845   3.771
 1993SOL     OW  820   3.142   0.927   2.534
 1993SOL    HW1  821   3.202   0.846   2.536
 1993SOL    HW2  822   3.182   0.996   2.474
 1994SOL     OW  823   2.692   1.273   3.284
 1994SOL    HW1  824   2.687   1.306   3.379
 1994SOL    HW2  825   2.606   1.292   3.238
 1995SOL     OW  826   2.534   1.616   2.016
 1995SOL    HW1  827   2.543   1.626   1.917
 1995SOL    HW2  828   2.494   1.527   2.037
 1996SOL     OW  829   3.512   1.720   3.256
 1996SOL    HW1  830   3.565   1.730   3.172
 1996SOL    HW2  831   3.485   1.810   3.290
 1999SOL     OW  832   3.056   1.612   1.893
 1999SOL    HW1  833   3.062   1.519   1.930
 1999SOL    HW2  834   2.997   1.612   1.813
 2000SOL     OW  835   2.684   1.002   3.234
 2000SOL    HW1  836   2.724   1.001   3.142
 2000SOL    HW2  837   2.694   1.094   3.274
 2001SOL     OW  838   2.778   0.910   2.153
 2001SOL    HW1  839   2.841   0.948   2.085
 2001SOL    HW2  840   2.818   0.827   2.192
 2002SOL     OW  841   3.366   1.607   1.906
 2002SOL    HW1  842   3.274   1.644   1.913
 2002SOL    HW2  843   3.404   1.627   1.816
 2003SOL     OW  844   2.234   1.288   3.352
 2003SOL    HW1  845   2.221   1.381   3.318
 2003SOL    HW2  846   2.150   1.236   3.339
 2004SOL     OW  847   3.476   1.292   3.151
 2004SOL    HW1  848   3.536   1.295   3.231
 2004SOL    HW2  849   3.401   1.356   3.164
 2005SOL     OW  850   2.901   1.098   2.558
 2005SOL    HW1  851   2.831   1.051   2.612
 2005SOL    HW2  852   2.960   1.030   2.515
 2007SOL     OW  853   2.452   1.487   2.353
 2007SOL    HW1  854   2.494   1.429   2.283
 2007SOL    HW2  855   2.408   1.566   2.309
 2009SOL     OW  856   2.117   1.348   2.152
 2009SOL    HW1  857   2.021   1.349   2.125
 2009SOL    HW2  858   2.129   1.401   2.236
 2015SOL     OW  859   3.045   1.335   1.981
 2015SOL    HW1  860   2.946   1.324   1.983
 2015SOL    HW2  861   3.079   1.350   2.074
 2017SOL     OW  862   3.355   1.767   2.821
 2017SOL    HW1  863   3.388   1.831   2.752
 2017SOL    HW2  864   3.421   1.761   2.896
 2019SOL     OW  865   3.312   1.220   3.495
 2019SOL    HW1  866   3.303   1.210   3.594
 2019SOL    HW2  867   3.408   1.213   3.469
 2020SOL     OW  868   2.252   1.741   3.422
 2020SOL    HW1  869   2.161   1.782   3.420
 2020SOL    HW2  870   2.245   1.647   3.454
 2026SOL     OW  871   2.721   1.374   1.878
 2026SOL    HW1  872   2.675   1.389   1.966
 2026SOL    HW2  873   2.765   1.459   1.848
 2027SOL     OW  874   2.523   1.790   2.815
 2027SOL    HW1  875   2.477   1.878   2.802
 2027SOL    HW2  876   2.622   1.802   2.808
 2028SOL     OW  877   2.721   0.956   2.723
 2028SOL    HW1  878   2.775   0.887   2.771
 2028SOL    HW2  879   2.689   1.025   2.789
 2029SOL     OW  880   2.945   0.984   1.949
 2029SOL    HW1  881   2.922   1.037   1.867
 2029SOL    HW2  882   3.026   0.928   1.930
 2030SOL     OW  883   3.723   1.569   2.713
 2030SOL    HW1  884   3.652   1.557   2.643
 2030SOL    HW2  885   3.724   1.490   2.773
 2031SOL     OW  886   2.083   1.314   3.706
 2031SOL    HW1  887   2.018   1.241   3.685
 2031SOL    HW2  888   2.087   1.328   3.804
 2032SOL     OW  889   1.941   1.240   2.515
 2032SOL    HW1  890   1.940   1.193   2.603
 2032SOL    HW2  891   2.023   1.212   2.464
 2033SOL     OW  892   2.534   1.391   3.486
 2033SOL    HW1  893   2.456   1.341   3.524
 2033SOL    HW2  894   2.531   1.486   3.517
 2036SOL     OW  895   3.567   1.487   2.966
 2036SOL    HW1  896   3.474   1.462   2.939
 2036SOL    HW2  897   3.593   1.437   3.048
 2038SOL     OW  898   2.674   1.586   2.549
 2038SOL    HW1  899   2.706   1.596   2.455
 2038SOL    HW2  900   2.595   1.524   2.551
 2041SOL     OW  901   2.632   1.330   2.163
 2041SOL    HW1  902   2.586   1.243   2.180
 2041SOL    HW2  903   2.723   1.327   2.204
 2042SOL     OW  904   2.480   1.567   3.146
 2042SOL    HW1  905   2.475   1.649   3.203
 2042SOL    HW2  906   2.569   1.564   3.101
 2046SOL     OW  907   1.901   1.077   2.162
 2046SOL    HW1  908   2.000   1.066   2.153
 2046SOL    HW2  909   1.861   0.991   2.194
 2047SOL     OW  910   2.737   1.646   2.199
 2047SOL    HW1  911   2.660   1.611   2.145
 2047SOL    HW2  912   2.705   1.717   2.261
 2066SOL     OW  913   1.889   1.596   3.841
 2066SOL    HW1  914   1.870   1.500   3.862
 2066SOL    HW2  915   1.856   1.654   3.916
 2091SOL     OW  916   2.973   1.776   3.961
 2091SOL    HW1  917   2.913   1.714   4.011
 2091SOL    HW2  918   3.004   1.732   3.876
 2093SOL     OW  919   2.326   1.743   4.047
 2093SOL    HW1  920   2.359   1.782   4.133
 2093SOL    HW2  921   2.402   1.736   3.982
 2116SOL     OW  922   2.350   1.385   3.898
 2116SOL    HW1  923   2.263   1.370   3.945
 2116SOL    HW2  924   2.333   1.411   3.803
 2167SOL     OW  925   2.534   1.616   3.878
 2167SOL    HW1  926   2.543   1.626   3.779
 2167SOL    HW2  927   2.494   1.527   3.899
 2170SOL     OW  928   3.056   1.612   3.755
 2170SOL    HW1  929   3.062   1.519   3.792
 2170SOL    HW2  930   2.997   1.612   3.675
 2173SOL     OW  931   3.366   1.607   3.768
 2173SOL    HW1  932   3.274   1.644   3.775
 2173SOL    HW2  933   3.404   1.627   3.678
 2191SOL     OW  934   2.721   1.374   3.740
 2191SOL    HW1  935   2.675   1.389   3.828
 2191SOL    HW2  936   2.765   1.459   3.710
 2210SOL     OW  937   2.737   1.646   4.061
 2210SOL    HW1  938   2.660   1.611   4.007
 2210SOL    HW2  939   2.705   1.717   4.123
 2212SOL     OW  940   2.087   2.137   0.996
 2212SOL    HW1  941   2.122   2.120   1.088
 2212SOL    HW2  942   1.999   2.092   0.984
 2214SOL     OW  943   2.431   3.137   1.165
 2214SOL    HW1  944   2.338   3.130   1.128
 2214SOL    HW2  945   2.442   3.226   1.209
 2218SOL     OW  946   2.630   3.006   1.023
 2218SOL    HW1  947   2.552   3.023   1.083
 2218SOL    HW2  948   2.664   3.093   0.987
 2219SOL     OW  949   2.712   2.660   1.823
 2219SOL    HW1  950   2.708   2.736   1.888
 2219SOL    HW2  951   2.734   2.696   1.732
 2221SOL     OW  952   2.548   3.023   1.803
 2221SOL    HW1  953   2.608   3.102   1.817
 2221SOL    HW2  954   2.462   3.054   1.762
 2222SOL     OW  955   2.197   3.297   1.061
 2222SOL    HW1  956   2.119   3.266   1.008
 2222SOL    HW2  957   2.255   3.355   1.004
 2223SOL     OW  958   3.322   3.367   1.339
 2223SOL    HW1  959   3.346   3.461   1.365
 2223SOL    HW2  960   3.306   3.313   1.421
 2224SOL     OW  961   2.300   2.254   1.499
 2224SOL    HW1  962   2.382   2.198   1.508
 2224SOL    HW2  963   2.219   2.196   1.503
 2227SOL     OW  964   2.989   3.203   1.690
 2227SOL    HW1  965   3.036   3.203   1.778
 2227SOL    HW2  966   2.941   3.116   1.679
 2230SOL     OW  967   2.482   3.648   1.439
 2230SOL    HW1  968   2.390   3.631   1.474
 2230SOL    HW2  969   2.510   3.740   1.465
 2232SOL     OW  970   3.456   1.976   1.480
 2232SOL    HW1  971   3.438   2.043   1.408
 2232SOL    HW2  972   3.453   2.022   1.569
 2238SOL     OW  973   1.975   2.599   1.597
 2238SOL    HW1  974   2.063   2.586   1.642
 2238SOL    HW2  975   1.962   2.696   1.575
 2240SOL     OW  976   3.155   3.090   1.423
 2240SOL    HW1  977   3.192   3.017   1.365
 2240SOL    HW2  978   3.207   3.095   1.508
 2242SOL     OW  979   2.059   2.838   1.264
 2242SOL    HW1  980   2.148   2.793   1.250
 2242SOL    HW2  981   1.986   2.773   1.245
 2244SOL     OW  982   3.049   3.654   1.616
 2244SOL    HW1  983   3.073   3.714   1.540
 2244SOL    HW2  984   3.056   3.559   1.586
 2245SOL     OW  985   2.179   2.113   1.801
 2245SOL    HW1  986   2.250   2.184   1.807
 2245SOL    HW2  987   2.091   2.152   1.829
 2249SOL     OW  988   3.143   2.207   0.944
 2249SOL    HW1  989   3.057   2.157   0.931
 2249SOL    HW2  990   3.205   2.153   1.000
 2251SOL     OW  991   2.669   2.467   1.465
 2251SOL    HW1  992   2.622   2.464   1.554
 2251SOL    HW2  993   2.618   2.412   1.399
 2252SOL     OW  994   3.256   2.331   1.674
 2252SOL    HW1  995   3.236   2.374   1.762
 2252SOL    HW2  996   3.334   2.269   1.683
 2253SOL     OW  997   2.835   2.752   1.572
 2253SOL    HW1  998   2.881   2.668   1.543
 2253SOL    HW2  999   2.779   2.786   1.497
 2254SOL     OW 1000   2.853   2.272   1.242
 2254SOL    HW1 1001   2.776   2.306   1.296
 2254SOL    HW2 1002   2.819   2.221   1.163
 2257SOL     OW 1003   1.992   3.683   1.571
 2257SOL    HW1 1004   1.982   3.668   1.670
 2257SOL    HW2 1005   1.906   3.719   1.535
 2259SOL     OW 1006   3.581   2.447   1.831
 2259SOL    HW1 1007   3.555   2.536   1.795
 2259SOL    HW2 1008   3.579   2.379   1.758
 2261SOL     OW 1009   2.412   2.058   0.885
 2261SOL    HW1 1010   2.407   2.053   0.985
 2261SOL    HW2 1011   2.414   2.154   0.856
 2265SOL     OW 1012   3.089   3.412   1.506
 2265SOL    HW1 1013   3.095   3.335   1.570
 2265SOL    HW2 1014   3.037   3.386   1.426
 2268SOL     OW 1015   2.323   3.128   1.727
 2268SOL    HW1 1016   2.273   3.129   1.641
 2268SOL    HW2 1017   2.260   3.110   1.803
 2270SOL     OW 1018   2.064   2.147   1.498
 2270SOL    HW1 1019   1.984   2.207   1.485
 2270SOL    HW2 1020   2.054   2.098   1.584
 2274SOL     OW 1021   2.111   3.647   1.241
 2274SOL    HW1 1022   2.168   3.582   1.291
 2274SOL    HW2 1023   2.095   3.614   1.148
 2277SOL     OW 1024   3.409   2.084   1.729
 2277SOL    HW1 1025   3.404   2.121   1.821
 2277SOL    HW2 1026   3.337   2.015   1.717
 2278SOL     OW 1027   2.643   2.126   1.749
 2278SOL    HW1 1028   2.710   2.065   1.792
 2278SOL    HW2 1029   2.570   2.145   1.814
 2279SOL     OW 1030   2.750   3.376   1.195
 2279SOL    HW1 1031   2.727   3.351   1.101
 2279SOL    HW2 1032   2.811   3.307   1.234
 2280SOL     OW 1033   3.213   2.452   1.433
 2280SOL    HW1 1034   3.241   2.409   1.518
 2280SOL    HW2 1035   3.238   2.548   1.434
 2281SOL     OW 1036   2.665   3.264   0.924
 2281SOL    HW1 1037   2.755   3.278   0.882
 2281SOL    HW2 1038   2.594   3.266   0.853
 2282SOL     OW 1039   2.784   2.365   0.899
 2282SOL    HW1 1040   2.759   2.356   0.803
 2282SOL    HW2 1041   2.832   2.283   0.930
 2286SOL     OW 1042   2.938   2.545   1.464
 2286SOL    HW1 1043   2.858   2.484   1.467
 2286SOL    HW2 1044   3.019   2.492   1.440
 2291SOL     OW 1045   1.940   2.418   1.386
 2291SOL    HW1 1046   2.032   2.417   1.345
 2291SOL    HW2 1047   1.934   2.492   1.453
 2292SOL     OW 1048   2.423   2.084   1.147
 2292SOL    HW1 1049   2.461   2.000   1.184
 2292SOL    HW2 1050   2.335   2.103   1.191
 2296SOL     OW 1051   3.328   2.452   0.992
 2296SOL    HW1 1052   3.298   2.357   0.999
 2296SOL    HW2 1053   3.401   2.468   1.058
 2302SOL     OW 1054   3.616   3.085   1.588
 2302SOL    HW1 1055   3.707   3.046   1.575
 2302SOL    HW2 1056   3.624   3.181   1.612
 2303SOL     OW 1057   2.926   3.209   1.340
 2303SOL    HW1 1058   2.846   3.186   1.395
 2303SOL    HW2 1059   3.009   3.183   1.389
 2304SOL     OW 1060   3.454   3.491   1.625
 2304SOL    HW1 1061   3.481   3.525   1.535
 2304SOL    HW2 1062   3.533   3.453   1.671
 2305SOL     OW 1063   2.973   3.057   1.100
 2305SOL    HW1 1064   2.933   3.101   1.181
 2305SOL    HW2 1065   2.932   3.094   1.017
 2307SOL     OW 1066   2.777   1.951   1.402
 2307SOL    HW1 1067   2.802   1.931   1.307
 2307SOL    HW2 1068   2.849   2.007   1.444
 2308SOL     OW 1069   2.842   2.978   1.719
 2308SOL    HW1 1070   2.743   2.984   1.729
 2308SOL    HW2 1071   2.865   2.898   1.663
 2310SOL     OW 1072   2.272   2.675   1.251
 2310SOL    HW1 1073   2.358   2.687   1.301
 2310SOL    HW2 1074   2.230   2.588   1.278
 2311SOL     OW 1075   3.136   2.248   1.262
 2311SOL    HW1 1076   3.157   2.322   1.326
 2311SOL    HW2 1077   3.047   2.265   1.219
 2312SOL     OW 1078   1.926   3.426   1.331
 2312SOL    HW1 1079   1.880   3.508   1.297
 2312SOL    HW2 1080   2.024   3.445   1.340
 2314SOL     OW 1081   2.428   2.399   0.865
 2314SOL    HW1 1082   2.440   2.465   0.791
 2314SOL    HW2 1083   2.474   2.433   0.948
 2316SOL     OW 1084   3.134   3.307   1.142
 2316SOL    HW1 1085   3.181   3.320   1.229
 2316SOL    HW2 1086   3.068   3.233   1.151
 2318SOL     OW 1087   2.216   3.372   1.329
 2318SOL    HW1 1088   2.195   3.328   1.242
 2318SOL    HW2 1089   2.313   3.398   1.332
 2319SOL     OW 1090   2.264   2.613   1.598
 2319SOL    HW1 1091   2.332   2.668   1.551
 2319SOL    HW2 1092   2.304   2.525   1.625
 2320SOL     OW 1093   3.449   2.641   1.670
 2320SOL    HW1 1094   3.357   2.679   1.665
 2320SOL    HW2 1095   3.509   2.688   1.605
 2321SOL     OW 1096   2.875   1.967   1.770
 2321SOL    HW1 1097   2.881   2.052   1.718
 2321SOL    HW2 1098   2.907   1.891   1.713
 2322SOL     OW 1099   2.366   1.912   1.740
 2322SOL    HW1 1100   2.324   1.855   1.670
 2322SOL    HW2 1101   2.300   1.981   1.772
 2323SOL     OW 1102   2.435   2.732   1.029
 2323SOL    HW1 1103   2.479   2.821   1.020
 2323SOL    HW2 1104   2.372   2.732   1.106
 2324SOL     OW 1105   3.222   2.724   1.045
 2324SOL    HW1 1106   3.147   2.724   0.979
 2324SOL    HW2 1107   3.259   2.632   1.054
 2326SOL     OW 1108   2.169   2.075   1.231
 2326SOL    HW1 1109   2.146   2.112   1.321
 2326SOL    HW2 1110   2.139   1.980   1.225
 2327SOL     OW 1111   1.899   3.172   1.282
 2327SOL    HW1 1112   1.952   3.123   1.350
 2327SOL    HW2 1113   1.921   3.270   1.287
 2328SOL     OW 1114   2.594   2.496   1.064
 2328SOL    HW1 1115   2.653   2.470   0.988
 2328SOL    HW2 1116   2.566   2.592   1.053
 2329SOL     OW 1117   3.590   2.797   1.854
 2329SOL    HW1 1118   3.544   2.790   1.765
 2329SOL    HW2 1119   3.528   2.841   1.920
 2332SOL     OW 1120   2.885   2.628   0.966
 2332SOL    HW1 1121   2.900   2.649   1.062
 2332SOL    HW2 1122   2.855   2.533   0.957
 2333SOL     OW 1123   2.842   3.435   1.700
 2333SOL    HW1 1124   2.822   3.479   1.612
 2333SOL    HW2 1125   2.881   3.344   1.684
 2334SOL     OW 1126   3.721   3.380   1.605
 2334SOL    HW1 1127   3.735   3.407   1.510
 2334SOL    HW2 1128   3.804   3.402   1.658
 2335SOL     OW 1129   2.212   2.760   1.804
 2335SOL    HW1 1130   2.288   2.804   1.852
 2335SOL    HW2 1131   2.247   2.713   1.722
 2339SOL     OW 1132   2.181   2.672   0.949
 2339SOL    HW1 1133   2.274   2.708   0.954
 2339SOL    HW2 1134   2.175   2.587   1.001
 2340SOL     OW 1135   2.201   2.371   1.006
 2340SOL    HW1 1136   2.149   2.288   0.989
 2340SOL    HW2 1137   2.278   2.376   0.942
 2341SOL     OW 1138   3.000   2.242   1.678
 2341SOL    HW1 1139   2.955   2.305   1.742
 2341SOL    HW2 1140   3.093   2.273   1.661
 2342SOL     OW 1141   3.022   2.069   1.477
 2342SOL    HW1 1142   3.022   2.133   1.554
 2342SOL    HW2 1143   3.050   2.117   1.394
 2345SOL     OW 1144   2.864   2.658   1.238
 2345SOL    HW1 1145   2.905   2.626   1.324
 2345SOL    HW2 1146   2.768   2.631   1.235
 2346SOL     OW 1147   1.902   2.406   1.114
 2346SOL    HW1 1148   1.987   2.373   1.073
 2346SOL    HW2 1149   1.915   2.421   1.212
 2347SOL     OW 1150   2.051   2.382   1.722
 2347SOL    HW1 1151   2.110   2.342   1.652
 2347SOL    HW2 1152   1.993   2.453   1.681
 2348SOL     OW 1153   3.231   2.812   1.660
 2348SOL    HW1 1154   3.270   2.901   1.680
 2348SOL    HW2 1155   3.241   2.792   1.563
 2350SOL     OW 1156   3.519   2.466   1.206
 2350SOL    HW1 1157   3.481   2.397   1.268
 2350SOL    HW2 1158   3.601   2.430   1.162
 2351SOL     OW 1159   2.114   3.426   1.744
 2351SOL    HW1 1160   2.084   3.483   1.820
 2351SOL    HW2 1161   2.107   3.329   1.770
 2352SOL     OW 1162   2.533   2.326   1.269
 2352SOL    HW1 1163   2.499   2.237   1.239
 2352SOL    HW2 1164   2.559   2.380   1.189
 2353SOL     OW 1165   2.792   3.540   1.465
 2353SOL    HW1 1166   2.768   3.522   1.370
 2353SOL    HW2 1167   2.822   3.634   1.475
 2355SOL     OW 1168   2.021   2.999   1.466
 2355SOL    HW1 1169   2.043   2.938   1.542
 2355SOL    HW2 1170   2.031   2.950   1.380
 2356SOL     OW 1171   3.209   2.921   1.234
 2356SOL    HW1 1172   3.233   2.858   1.160
 2356SOL    HW2 1173   3.119   2.961   1.216
 2360SOL     OW 1174   1.945   3.120   1.022
 2360SOL    HW1 1175   1.940   3.119   1.122
 2360SOL    HW2 1176   1.862   3.079   0.984
 2361SOL     OW 1177   2.550   3.524   1.716
 2361SOL    HW1 1178   2.494   3.605   1.725
 2361SOL    HW2 1179   2.602   3.528   1.630
 2365SOL     OW 1180   1.992   3.656   1.851
 2365SOL    HW1 1181   1.951   3.582   1.904
 2365SOL    HW2 1182   2.056   3.707   1.909
 2367SOL     OW 1183   2.692   3.135   1.422
 2367SOL    HW1 1184   2.687   3.168   1.517
 2367SOL    HW2 1185   2.606   3.154   1.376
 2373SOL     OW 1186   2.684   2.864   1.372
 2373SOL    HW1 1187   2.724   2.863   1.280
 2373SOL    HW2 1188   2.694   2.956   1.412
 2376SOL     OW 1189   2.234   3.150   1.490
 2376SOL    HW1 1190   2.221   3.243   1.456
 2376SOL    HW2 1191   2.150   3.098   1.477
 2377SOL     OW 1192   3.476   3.154   1.289
 2377SOL    HW1 1193   3.536   3.157   1.369
 2377SOL    HW2 1194   3.401   3.218   1.302
 2379SOL     OW 1195   2.876   2.098   0.971
 2379SOL    HW1 1196   2.868   2.062   0.878
 2379SOL    HW2 1197   2.874   2.022   1.036
 2381SOL     OW 1198   3.571   2.247   1.381
 2381SOL    HW1 1199   3.644   2.316   1.385
 2381SOL    HW2 1200   3.599   2.172   1.322
 2383SOL     OW 1201   1.967   2.875   1.726
 2383SOL    HW1 1202   1.890   2.842   1.780
 2383SOL    HW2 1203   2.052   2.845   1.768
 2384SOL     OW 1204   2.534   2.065   1.489
 2384SOL    HW1 1205   2.624   2.049   1.449
 2384SOL    HW2 1206   2.542   2.070   1.588
 2386SOL     OW 1207   3.302   2.718   1.398
 2386SOL    HW1 1208   3.245   2.770   1.335
 2386SOL    HW2 1209   3.398   2.730   1.374
 2389SOL     OW 1210   2.475   2.704   1.431
 2389SOL    HW1 1211   2.531   2.785   1.414
 2389SOL    HW2 1212   2.534   2.624   1.434
 2391SOL     OW 1213   2.578   2.427   1.708
 2391SOL    HW1 1214   2.597   2.492   1.782
 2391SOL    HW2 1215   2.638   2.347   1.717
 2392SOL     OW 1216   3.312   3.082   1.633
 2392SOL    HW1 1217   3.303   3.072   1.732
 2392SOL    HW2 1218   3.408   3.075   1.607
 2393SOL     OW 1219   2.252   3.603   1.560
 2393SOL    HW1 1220   2.161   3.644   1.558
 2393SOL    HW2 1221   2.245   3.509   1.592
 2394SOL     OW 1222   3.536   2.745   1.254
 2394SOL    HW1 1223   3.509   2.656   1.217
 2394SOL    HW2 1224   3.537   2.813   1.181
 2397SOL     OW 1225   3.639   2.204   1.642
 2397SOL    HW1 1226   3.622   2.235   1.548
 2397SOL    HW2 1227   3.555   2.167   1.680
 2398SOL     OW 1228   3.592   2.796   1.517
 2398SOL    HW1 1229   3.630   2.887   1.532
 2398SOL    HW2 1230   3.584   2.779   1.418
 2401SOL     OW 1231   2.721   2.818   0.861
 2401SOL    HW1 1232   2.775   2.749   0.909
 2401SOL    HW2 1233   2.689   2.887   0.927
 2404SOL     OW 1234   2.083   3.176   1.844
 2404SOL    HW1 1235   2.018   3.103   1.823
 2404SOL    HW2 1236   2.087   3.190   1.942
 2406SOL     OW 1237   2.534   3.253   1.624
 2406SOL    HW1 1238   2.456   3.203   1.662
 2406SOL    HW2 1239   2.531   3.348   1.655
 2410SOL     OW 1240   2.179   2.409   1.280
 2410SOL    HW1 1241   2.217   2.350   1.352
 2410SOL    HW2 1242   2.219   2.383   1.192
 2412SOL     OW 1243   3.286   2.076   1.112
 2412SOL    HW1 1244   3.338   2.011   1.167
 2412SOL    HW2 1245   3.237   2.139   1.173
 2413SOL     OW 1246   2.863   1.896   1.154
 2413SOL    HW1 1247   2.800   1.824   1.123
 2413SOL    HW2 1248   2.956   1.860   1.154
 2415SOL     OW 1249   2.480   3.429   1.284
 2415SOL    HW1 1250   2.475   3.511   1.341
 2415SOL    HW2 1251   2.569   3.426   1.239
 2421SOL     OW 1252   2.092   2.490   1.975
 2421SOL    HW1 1253   1.999   2.488   2.012
 2421SOL    HW2 1254   2.093   2.451   1.883
 2422SOL     OW 1255   2.087   2.137   2.858
 2422SOL    HW1 1256   2.122   2.120   2.950
 2422SOL    HW2 1257   1.999   2.092   2.846
 2423SOL     OW 1258   1.881   2.230   2.509
 2423SOL    HW1 1259   1.799   2.273   2.548
 2423SOL    HW2 1260   1.853   2.157   2.446
 2424SOL     OW 1261   2.431   3.137   3.027
 2424SOL    HW1 1262   2.338   3.130   2.990
 2424SOL    HW2 1263   2.442   3.226   3.071
 2425SOL     OW 1264   3.417   3.373   2.565
 2425SOL    HW1 1265   3.360   3.357   2.646
 2425SOL    HW2 1266   3.358   3.383   2.485
 2426SOL     OW 1267   2.997   2.565   2.579
 2426SOL    HW1 1268   3.054   2.643   2.554
 2426SOL    HW2 1269   2.937   2.591   2.655
 2427SOL     OW 1270   3.617   2.469   2.093
 2427SOL    HW1 1271   3.605   2.456   1.994
 2427SOL    HW2 1272   3.587   2.388   2.142
 2428SOL     OW 1273   2.630   3.006   2.885
 2428SOL    HW1 1274   2.552   3.023   2.945
 2428SOL    HW2 1275   2.664   3.093   2.849
 2429SOL     OW 1276   2.712   2.660   3.685
 2429SOL    HW1 1277   2.708   2.736   3.750
 2429SOL    HW2 1278   2.734   2.696   3.594
 2430SOL     OW 1279   2.548   3.023   3.665
 2430SOL    HW1 1280   2.608   3.102   3.679
 2430SOL    HW2 1281   2.462   3.054   3.624
 2431SOL     OW 1282   2.197   3.297   2.923
 2431SOL    HW1 1283   2.119   3.266   2.870
 2431SOL    HW2 1284   2.255   3.355   2.866
 2432SOL     OW 1285   3.322   3.367   3.201
 2432SOL    HW1 1286   3.346   3.461   3.227
 2432SOL    HW2 1287   3.306   3.313   3.283
 2433SOL     OW 1288   2.300   2.254   3.361
 2433SOL    HW1 1289   2.382   2.198   3.370
 2433SOL    HW2 1290   2.219   2.196   3.365
 2434SOL     OW 1291   3.465   2.309   2.599
 2434SOL    HW1 1292   3.391   2.355   2.549
 2434SOL    HW2 1293   3.516   2.377   2.652
 2435SOL     OW 1294   2.093   3.575   2.345
 2435SOL    HW1 1295   2.127   3.652   2.399
 2435SOL    HW2 1296   2.137   3.575   2.255
 2436SOL     OW 1297   2.989   3.203   3.552
 2436SOL    HW1 1298   3.036   3.203   3.640
 2436SOL    HW2 1299   2.941   3.116   3.541
 2437SOL     OW 1300   2.092   3.296   2.400
 2437SOL    HW1 1301   2.066   3.392   2.400
 2437SOL    HW2 1302   2.021   3.242   2.445
 2438SOL     OW 1303   2.102   2.953   2.748
 2438SOL    HW1 1304   2.116   2.869   2.800
 2438SOL    HW2 1305   2.047   3.017   2.803
 2439SOL     OW 1306   2.482   3.648   3.301
 2439SOL    HW1 1307   2.390   3.631   3.336
 2439SOL    HW2 1308   2.510   3.740   3.327
 2440SOL     OW 1309   2.468   2.826   1.985
 2440SOL    HW1 1310   2.475   2.910   1.931
 2440SOL    HW2 1311   2.514   2.839   2.073
 2441SOL     OW 1312   3.456   1.976   3.342
 2441SOL    HW1 1313   3.438   2.043   3.270
 2441SOL    HW2 1314   3.453   2.022   3.431
 2442SOL     OW 1315   1.984   2.505   2.425
 2442SOL    HW1 1316   1.939   2.417   2.442
 2442SOL    HW2 1317   1.983   2.559   2.509
 2443SOL     OW 1318   3.704   3.629   2.221
 2443SOL    HW1 1319   3.758   3.600   2.301
 2443SOL    HW2 1320   3.734   3.719   2.192
 2444SOL     OW 1321   1.889   3.458   1.979
 2444SOL    HW1 1322   1.870   3.362   2.000
 2444SOL    HW2 1323   1.856   3.516   2.054
 2445SOL     OW 1324   3.551   2.784   2.474
 2445SOL    HW1 1325   3.646   2.755   2.482
 2445SOL    HW2 1326   3.543   2.849   2.399
 2446SOL     OW 1327   3.503   2.970   2.294
 2446SOL    HW1 1328   3.589   2.972   2.242
 2446SOL    HW2 1329   3.517   3.017   2.382
 2447SOL     OW 1330   1.975   2.599   3.459
 2447SOL    HW1 1331   2.063   2.586   3.504
 2447SOL    HW2 1332   1.962   2.696   3.437
 2448SOL     OW 1333   2.475   3.227   2.588
 2448SOL    HW1 1334   2.426   3.140   2.597
 2448SOL    HW2 1335   2.452   3.270   2.501
 2449SOL     OW 1336   3.155   3.090   3.285
 2449SOL    HW1 1337   3.192   3.017   3.227
 2449SOL    HW2 1338   3.207   3.095   3.370
 2450SOL     OW 1339   2.671   1.866   2.364
 2450SOL    HW1 1340   2.711   1.957   2.355
 2450SOL    HW2 1341   2.571   1.874   2.370
 2451SOL     OW 1342   2.059   2.838   3.126
 2451SOL    HW1 1343   2.148   2.793   3.112
 2451SOL    HW2 1344   1.986   2.773   3.107
 2452SOL     OW 1345   3.387   2.861   2.052
 2452SOL    HW1 1346   3.324   2.785   2.065
 2452SOL    HW2 1347   3.435   2.879   2.138
 2453SOL     OW 1348   3.049   3.654   3.478
 2453SOL    HW1 1349   3.073   3.714   3.402
 2453SOL    HW2 1350   3.056   3.559   3.448
 2454SOL     OW 1351   2.179   2.113   3.663
 2454SOL    HW1 1352   2.250   2.184   3.669
 2454SOL    HW2 1353   2.091   2.152   3.691
 2455SOL     OW 1354   3.328   3.279   2.815
 2455SOL    HW1 1355   3.269   3.285   2.895
 2455SOL    HW2 1356   3.313   3.191   2.769
 2456SOL     OW 1357   3.529   3.576   2.434
 2456SOL    HW1 1358   3.488   3.553   2.346
 2456SOL    HW2 1359   3.511   3.502   2.499
 2457SOL     OW 1360   2.460   2.591   2.132
 2457SOL    HW1 1361   2.484   2.660   2.064
 2457SOL    HW2 1362   2.382   2.624   2.186
 2458SOL     OW 1363   3.143   2.207   2.806
 2458SOL    HW1 1364   3.057   2.157   2.793
 2458SOL    HW2 1365   3.205   2.153   2.862
 2459SOL     OW 1366   3.438   3.524   2.169
 2459SOL    HW1 1367   3.527   3.570   2.172
 2459SOL    HW2 1368   3.417   3.500   2.074
 2460SOL     OW 1369   2.669   2.467   3.327
 2460SOL    HW1 1370   2.622   2.464   3.416
 2460SOL    HW2 1371   2.618   2.412   3.261
 2461SOL     OW 1372   3.256   2.331   3.536
 2461SOL    HW1 1373   3.236   2.374   3.624
 2461SOL    HW2 1374   3.334   2.269   3.545
 2462SOL     OW 1375   2.835   2.752   3.434
 2462SOL    HW1 1376   2.881   2.668   3.405
 2462SOL    HW2 1377   2.779   2.786   3.359
 2463SOL     OW 1378   2.853   2.272   3.104
 2463SOL    HW1 1379   2.776   2.306   3.158
 2463SOL    HW2 1380   2.819   2.221   3.025
 2464SOL     OW 1381   2.903   2.563   2.291
 2464SOL    HW1 1382   2.929   2.559   2.387
 2464SOL    HW2 1383   2.818   2.512   2.277
 2465SOL     OW 1384   1.938   2.673   2.651
 2465SOL    HW1 1385   2.037   2.661   2.660
 2465SOL    HW2 1386   1.914   2.768   2.672
 2466SOL     OW 1387   1.992   3.683   3.433
 2466SOL    HW1 1388   1.982   3.668   3.532
 2466SOL    HW2 1389   1.906   3.719   3.397
 2467SOL     OW 1390   2.727   2.210   2.057
 2467SOL    HW1 1391   2.786   2.273   2.008
 2467SOL    HW2 1392   2.746   2.116   2.028
 2468SOL     OW 1393   3.581   2.447   3.693
 2468SOL    HW1 1394   3.555   2.536   3.657
 2468SOL    HW2 1395   3.579   2.379   3.620
 2469SOL     OW 1396   3.224   3.006   2.407
 2469SOL    HW1 1397   3.307   2.977   2.359
 2469SOL    HW2 1398   3.175   3.073   2.351
 2470SOL     OW 1399   2.412   2.058   2.747
 2470SOL    HW1 1400   2.407   2.053   2.847
 2470SOL    HW2 1401   2.414   2.154   2.718
 2471SOL     OW 1402   2.870   3.318   2.339
 2471SOL    HW1 1403   2.824   3.390   2.287
 2471SOL    HW2 1404   2.866   3.338   2.437
 2472SOL     OW 1405   2.213   3.663   2.715
 2472SOL    HW1 1406   2.263   3.577   2.721
 2472SOL    HW2 1407   2.278   3.740   2.712
 2473SOL     OW 1408   3.657   2.928   2.735
 2473SOL    HW1 1409   3.595   2.913   2.659
 2473SOL    HW2 1410   3.605   2.939   2.820
 2474SOL     OW 1411   3.089   3.412   3.368
 2474SOL    HW1 1412   3.095   3.335   3.432
 2474SOL    HW2 1413   3.037   3.386   3.288
 2475SOL     OW 1414   2.183   2.805   2.104
 2475SOL    HW1 1415   2.265   2.844   2.062
 2475SOL    HW2 1416   2.156   2.723   2.055
 2476SOL     OW 1417   3.320   2.597   2.590
 2476SOL    HW1 1418   3.315   2.532   2.665
 2476SOL    HW2 1419   3.400   2.656   2.603
 2477SOL     OW 1420   2.323   3.128   3.589
 2477SOL    HW1 1421   2.273   3.129   3.503
 2477SOL    HW2 1422   2.260   3.110   3.665
 2478SOL     OW 1423   2.973   3.638   2.099
 2478SOL    HW1 1424   2.913   3.576   2.149
 2478SOL    HW2 1425   3.004   3.594   2.014
 2479SOL     OW 1426   2.064   2.147   3.360
 2479SOL    HW1 1427   1.984   2.207   3.347
 2479SOL    HW2 1428   2.054   2.098   3.446
 2480SOL     OW 1429   3.494   3.239   1.943
 2480SOL    HW1 1430   3.462   3.333   1.933
 2480SOL    HW2 1431   3.418   3.176   1.931
 2481SOL     OW 1432   2.326   3.605   2.185
 2481SOL    HW1 1433   2.359   3.644   2.271
 2481SOL    HW2 1434   2.402   3.598   2.120
 2482SOL     OW 1435   3.262   1.969   2.288
 2482SOL    HW1 1436   3.238   1.932   2.198
 2482SOL    HW2 1437   3.361   1.985   2.292
 2483SOL     OW 1438   2.111   3.647   3.103
 2483SOL    HW1 1439   2.168   3.582   3.153
 2483SOL    HW2 1440   2.095   3.614   3.010
 2484SOL     OW 1441   2.802   3.560   2.766
 2484SOL    HW1 1442   2.882   3.503   2.787
 2484SOL    HW2 1443   2.753   3.520   2.689
 2485SOL     OW 1444   2.244   2.562   2.342
 2485SOL    HW1 1445   2.289   2.472   2.339
 2485SOL    HW2 1446   2.150   2.551   2.375
 2486SOL     OW 1447   3.409   2.084   3.591
 2486SOL    HW1 1448   3.404   2.121   3.683
 2486SOL    HW2 1449   3.337   2.015   3.579
 2487SOL     OW 1450   2.476   1.984   1.979
 2487SOL    HW1 1451   2.574   1.962   1.986
 2487SOL    HW2 1452   2.445   1.967   1.886
 2488SOL     OW 1453   2.643   2.126   3.611
 2488SOL    HW1 1454   2.710   2.065   3.654
 2488SOL    HW2 1455   2.570   2.145   3.676
 2489SOL     OW 1456   2.750   3.376   3.057
 2489SOL    HW1 1457   2.727   3.351   2.963
 2489SOL    HW2 1458   2.811   3.307   3.096
 2490SOL     OW 1459   3.213   2.452   3.295
 2490SOL    HW1 1460   3.241   2.409   3.380
 2490SOL    HW2 1461   3.238   2.548   3.296
 2491SOL     OW 1462   2.665   3.264   2.786
 2491SOL    HW1 1463   2.755   3.278   2.744
 2491SOL    HW2 1464   2.594   3.266   2.715
 2492SOL     OW 1465   2.401   1.926   2.374
 2492SOL    HW1 1466   2.320   1.927   2.432
 2492SOL    HW2 1467   2.404   2.009   2.319
 2493SOL     OW 1468   3.296   3.050   1.903
 2493SOL    HW1 1469   3.328   2.974   1.960
 2493SOL    HW2 1470   3.204   3.077   1.933
 2494SOL     OW 1471   2.159   1.897   2.033
 2494SOL    HW1 1472   2.208   1.981   2.012
 2494SOL    HW2 1473   2.221   1.832   2.078
 2495SOL     OW 1474   2.797   2.098   2.342
 2495SOL    HW1 1475   2.749   2.139   2.264
 2495SOL    HW2 1476   2.896   2.096   2.323
 2496SOL     OW 1477   2.938   2.545   3.326
 2496SOL    HW1 1478   2.858   2.484   3.329
 2496SOL    HW2 1479   3.019   2.492   3.302
 2497SOL     OW 1480   3.089   3.432   2.655
 2497SOL    HW1 1481   3.110   3.506   2.590
 2497SOL    HW2 1482   3.157   3.432   2.728
 2498SOL     OW 1483   3.133   3.659   2.453
 2498SOL    HW1 1484   3.177   3.723   2.389
 2498SOL    HW2 1485   3.083   3.711   2.523
 2499SOL     OW 1486   2.894   2.411   1.878
 2499SOL    HW1 1487   2.853   2.493   1.839
 2499SOL    HW2 1488   2.958   2.437   1.951
 2500SOL     OW 1489   1.940   2.418   3.248
 2500SOL    HW1 1490   2.032   2.417   3.207
 2500SOL    HW2 1491   1.934   2.492   3.315
 2501SOL     OW 1492   2.423   2.084   3.009
 2501SOL    HW1 1493   2.461   2.000   3.046
 2501SOL    HW2 1494   2.335   2.103   3.053
 2502SOL     OW 1495   2.879   1.901   2.615
 2502SOL    HW1 1496   2.807   1.906   2.546
 2502SOL    HW2 1497   2.855   1.832   2.684
 2503SOL     OW 1498   3.291   3.035   2.729
 2503SOL    HW1 1499   3.236   2.951   2.722
 2503SOL    HW2 1500   3.317   3.064   2.637
 2504SOL     OW 1501   3.328   2.452   2.854
 2504SOL    HW1 1502   3.298   2.357   2.861
 2504SOL    HW2 1503   3.401   2.468   2.920
 2505SOL     OW 1504   3.719   2.695   2.239
 2505SOL    HW1 1505   3.761   2.631   2.303
 2505SOL    HW2 1506   3.681   2.644   2.161
 2506SOL     OW 1507   2.350   3.247   2.036
 2506SOL    HW1 1508   2.263   3.232   2.083
 2506SOL    HW2 1509   2.333   3.273   1.941
 2507SOL     OW 1510   3.526   3.142   2.519
 2507SOL    HW1 1511   3.625   3.150   2.533
 2507SOL    HW2 1512   3.481   3.226   2.550
 2508SOL     OW 1513   3.252   2.437   1.940
 2508SOL    HW1 1514   3.198   2.416   2.021
 2508SOL    HW2 1515   3.343   2.396   1.949
 2509SOL     OW 1516   2.389   2.118   2.190
 2509SOL    HW1 1517   2.416   2.059   2.115
 2509SOL    HW2 1518   2.389   2.213   2.159
 2510SOL     OW 1519   3.616   3.085   3.450
 2510SOL    HW1 1520   3.707   3.046   3.437
 2510SOL    HW2 1521   3.624   3.181   3.474
 2511SOL     OW 1522   2.926   3.209   3.202
 2511SOL    HW1 1523   2.846   3.186   3.257
 2511SOL    HW2 1524   3.009   3.183   3.251
 2512SOL     OW 1525   3.454   3.491   3.487
 2512SOL    HW1 1526   3.481   3.525   3.397
 2512SOL    HW2 1527   3.533   3.453   3.533
 2513SOL     OW 1528   2.973   3.057   2.962
 2513SOL    HW1 1529   2.933   3.101   3.043
 2513SOL    HW2 1530   2.932   3.094   2.879
 2514SOL     OW 1531   3.500   2.961   2.941
 2514SOL    HW1 1532   3.505   3.042   3.000
 2514SOL    HW2 1533   3.414   2.963   2.890
 2515SOL     OW 1534   2.777   1.951   3.264
 2515SOL    HW1 1535   2.802   1.931   3.169
 2515SOL    HW2 1536   2.849   2.007   3.306
 2516SOL     OW 1537   2.842   2.978   3.581
 2516SOL    HW1 1538   2.743   2.984   3.591
 2516SOL    HW2 1539   2.865   2.898   3.525
 2517SOL     OW 1540   2.567   2.912   2.230
 2517SOL    HW1 1541   2.553   2.919   2.329
 2517SOL    HW2 1542   2.651   2.861   2.212
 2518SOL     OW 1543   2.272   2.675   3.113
 2518SOL    HW1 1544   2.358   2.687   3.163
 2518SOL    HW2 1545   2.230   2.588   3.140
 2519SOL     OW 1546   3.136   2.248   3.124
 2519SOL    HW1 1547   3.157   2.322   3.188
 2519SOL    HW2 1548   3.047   2.265   3.081
 2520SOL     OW 1549   1.926   3.426   3.193
 2520SOL    HW1 1550   1.880   3.508   3.159
 2520SOL    HW2 1551   2.024   3.445   3.202
 2521SOL     OW 1552   2.428   2.399   2.727
 2521SOL    HW1 1553   2.440   2.465   2.653
 2521SOL    HW2 1554   2.474   2.433   2.810
 2522SOL     OW 1555   3.114   3.210   2.250
 2522SOL    HW1 1556   3.164   3.287   2.290
 2522SOL    HW2 1557   3.019   3.212   2.282
 2523SOL     OW 1558   3.134   3.307   3.004
 2523SOL    HW1 1559   3.181   3.320   3.091
 2523SOL    HW2 1560   3.068   3.233   3.013
 2524SOL     OW 1561   3.444   2.501   2.334
 2524SOL    HW1 1562   3.413   2.562   2.407
 2524SOL    HW2 1563   3.494   2.553   2.265
 2525SOL     OW 1564   2.216   3.372   3.191
 2525SOL    HW1 1565   2.195   3.328   3.104
 2525SOL    HW2 1566   2.313   3.398   3.194
 2526SOL     OW 1567   2.264   2.613   3.460
 2526SOL    HW1 1568   2.332   2.668   3.413
 2526SOL    HW2 1569   2.304   2.525   3.487
 2527SOL     OW 1570   3.449   2.641   3.532
 2527SOL    HW1 1571   3.357   2.679   3.527
 2527SOL    HW2 1572   3.509   2.688   3.467
 2528SOL     OW 1573   2.875   1.967   3.632
 2528SOL    HW1 1574   2.881   2.052   3.580
 2528SOL    HW2 1575   2.907   1.891   3.575
 2529SOL     OW 1576   2.366   1.912   3.602
 2529SOL    HW1 1577   2.324   1.855   3.532
 2529SOL    HW2 1578   2.300   1.981   3.634
 2530SOL     OW 1579   2.435   2.732   2.891
 2530SOL    HW1 1580   2.479   2.821   2.882
 2530SOL    HW2 1581   2.372   2.732   2.968
 2531SOL     OW 1582   3.222   2.724   2.907
 2531SOL    HW1 1583   3.147   2.724   2.841
 2531SOL    HW2 1584   3.259   2.632   2.916
 2532SOL     OW 1585   3.071   2.387   2.137
 2532SOL    HW1 1586   3.084   2.303   2.191
 2532SOL    HW2 1587   3.042   2.461   2.197
 2533SOL     OW 1588   2.169   2.075   3.093
 2533SOL    HW1 1589   2.146   2.112   3.183
 2533SOL    HW2 1590   2.139   1.980   3.087
 2534SOL     OW 1591   1.899   3.172   3.144
 2534SOL    HW1 1592   1.952   3.123   3.212
 2534SOL    HW2 1593   1.921   3.270   3.149
 2535SOL     OW 1594   3.590   2.797   3.716
 2535SOL    HW1 1595   3.544   2.790   3.627
 2535SOL    HW2 1596   3.528   2.841   3.782
 2536SOL     OW 1597   2.169   1.925   2.480
 2536SOL    HW1 1598   2.158   2.019   2.513
 2536SOL    HW2 1599   2.164   1.862   2.557
 2537SOL     OW 1600   3.484   2.229   2.236
 2537SOL    HW1 1601   3.486   2.153   2.300
 2537SOL    HW2 1602   3.436   2.306   2.276
 2538SOL     OW 1603   2.842   3.435   3.562
 2538SOL    HW1 1604   2.822   3.479   3.474
 2538SOL    HW2 1605   2.881   3.344   3.546
 2539SOL     OW 1606   3.721   3.380   3.467
 2539SOL    HW1 1607   3.735   3.407   3.372
 2539SOL    HW2 1608   3.804   3.402   3.520
 2540SOL     OW 1609   2.212   2.760   3.666
 2540SOL    HW1 1610   2.288   2.804   3.714
 2540SOL    HW2 1611   2.247   2.713   3.584
 2541SOL     OW 1612   3.402   2.136   1.987
 2541SOL    HW1 1613   3.341   2.061   2.010
 2541SOL    HW2 1614   3.424   2.188   2.070
 2542SOL     OW 1615   3.165   2.700   1.904
 2542SOL    HW1 1616   3.199   2.607   1.919
 2542SOL    HW2 1617   3.183   2.727   1.809
 2543SOL     OW 1618   2.930   3.195   2.711
 2543SOL    HW1 1619   2.937   3.111   2.656
 2543SOL    HW2 1620   2.992   3.264   2.675
 2544SOL     OW 1621   2.181   2.672   2.811
 2544SOL    HW1 1622   2.274   2.708   2.816
 2544SOL    HW2 1623   2.175   2.587   2.863
 2545SOL     OW 1624   2.201   2.371   2.868
 2545SOL    HW1 1625   2.149   2.288   2.851
 2545SOL    HW2 1626   2.278   2.376   2.804
 2546SOL     OW 1627   3.000   2.242   3.540
 2546SOL    HW1 1628   2.955   2.305   3.604
 2546SOL    HW2 1629   3.093   2.273   3.523
 2547SOL     OW 1630   3.022   2.069   3.339
 2547SOL    HW1 1631   3.022   2.133   3.416
 2547SOL    HW2 1632   3.050   2.117   3.256
 2548SOL     OW 1633   1.870   3.188   2.062
 2548SOL    HW1 1634   1.777   3.209   2.031
 2548SOL    HW2 1635   1.880   3.089   2.075
 2549SOL     OW 1636   1.950   3.663   2.789
 2549SOL    HW1 1637   1.908   3.577   2.762
 2549SOL    HW2 1638   2.044   3.666   2.755
 2550SOL     OW 1639   2.366   3.430   2.772
 2550SOL    HW1 1640   2.432   3.504   2.781
 2550SOL    HW2 1641   2.410   3.351   2.730
 2551SOL     OW 1642   2.864   2.658   3.100
 2551SOL    HW1 1643   2.905   2.626   3.186
 2551SOL    HW2 1644   2.768   2.631   3.097
 2552SOL     OW 1645   1.902   2.406   2.976
 2552SOL    HW1 1646   1.987   2.373   2.935
 2552SOL    HW2 1647   1.915   2.421   3.074
 2553SOL     OW 1648   2.051   2.382   3.584
 2553SOL    HW1 1649   2.110   2.342   3.514
 2553SOL    HW2 1650   1.993   2.453   3.543
 2554SOL     OW 1651   3.231   2.812   3.522
 2554SOL    HW1 1652   3.270   2.901   3.542
 2554SOL    HW2 1653   3.241   2.792   3.425
 2555SOL     OW 1654   2.677   2.434   2.187
 2555SOL    HW1 1655   2.684   2.345   2.141
 2555SOL    HW2 1656   2.583   2.468   2.179
 2556SOL     OW 1657   3.519   2.466   3.068
 2556SOL    HW1 1658   3.481   2.397   3.130
 2556SOL    HW2 1659   3.601   2.430   3.024
 2557SOL     OW 1660   2.114   3.426   3.606
 2557SOL    HW1 1661   2.084   3.483   3.682
 2557SOL    HW2 1662   2.107   3.329   3.632
 2558SOL     OW 1663   2.533   2.326   3.131
 2558SOL    HW1 1664   2.499   2.237   3.101
 2558SOL    HW2 1665   2.559   2.380   3.051
 2559SOL     OW 1666   2.792   3.540   3.327
 2559SOL    HW1 1667   2.768   3.522   3.232
 2559SOL    HW2 1668   2.822   3.634   3.337
 2560SOL     OW 1669   2.335   2.362   2.053
 2560SOL    HW1 1670   2.396   2.442   2.057
 2560SOL    HW2 1671   2.240   2.393   2.060
 2561SOL     OW 1672   2.021   2.999   3.328
 2561SOL    HW1 1673   2.043   2.938   3.404
 2561SOL    HW2 1674   2.031   2.950   3.242
 2562SOL     OW 1675   3.209   2.921   3.096
 2562SOL    HW1 1676   3.233   2.858   3.022
 2562SOL    HW2 1677   3.119   2.961   3.078
 2563SOL     OW 1678   3.164   2.717   2.171
 2563SOL    HW1 1679   3.078   2.686   2.213
 2563SOL    HW2 1680   3.160   2.703   2.072
 2564SOL     OW 1681   3.621   3.609   3.016
 2564SOL    HW1 1682   3.682   3.639   2.943
 2564SOL    HW2 1683   3.583   3.520   2.994
 2565SOL     OW 1684   3.114   3.593   2.990
 2565SOL    HW1 1685   3.198   3.598   2.936
 2565SOL    HW2 1686   3.091   3.497   3.008
 2566SOL     OW 1687   1.945   3.120   2.884
 2566SOL    HW1 1688   1.940   3.119   2.984
 2566SOL    HW2 1689   1.862   3.079   2.846
 2567SOL     OW 1690   2.550   3.524   3.578
 2567SOL    HW1 1691   2.494   3.605   3.587
 2567SOL    HW2 1692   2.602   3.528   3.492
 2568SOL     OW 1693   3.588   1.997   2.385
 2568SOL    HW1 1694   3.661   1.980   2.318
 2568SOL    HW2 1695   3.557   1.910   2.423
 2569SOL     OW 1696   3.250   3.435   2.339
 2569SOL    HW1 1697   3.317   3.447   2.265
 2569SOL    HW2 1698   3.210   3.524   2.362
 2570SOL     OW 1699   1.992   3.656   3.713
 2570SOL    HW1 1700   1.951   3.582   3.766
 2570SOL    HW2 1701   2.056   3.707   3.771
 2571SOL     OW 1702   3.142   2.789   2.534
 2571SOL    HW1 1703   3.202   2.708   2.536
 2571SOL    HW2 1704   3.182   2.858   2.474
 2572SOL     OW 1705   2.692   3.135   3.284
 2572SOL    HW1 1706   2.687   3.168   3.379
 2572SOL    HW2 1707   2.606   3.154   3.238
 2573SOL     OW 1708   2.534   3.478   2.016
 2573SOL    HW1 1709   2.543   3.488   1.917
 2573SOL    HW2 1710   2.494   3.389   2.037
 2574SOL     OW 1711   3.512   3.582   3.256
 2574SOL    HW1 1712   3.565   3.592   3.172
 2574SOL    HW2 1713   3.485   3.672   3.290
 2575SOL     OW 1714   3.703   2.037   2.825
 2575SOL    HW1 1715   3.742   1.952   2.789
 2575SOL    HW2 1716   3.605   2.039   2.806
 2576SOL     OW 1717   2.125   2.188   2.582
 2576SOL    HW1 1718   2.046   2.239   2.548
 2576SOL    HW2 1719   2.116   2.173   2.680
 2577SOL     OW 1720   3.056   3.474   1.893
 2577SOL    HW1 1721   3.062   3.381   1.930
 2577SOL    HW2 1722   2.997   3.474   1.813
 2578SOL     OW 1723   2.684   2.864   3.234
 2578SOL    HW1 1724   2.724   2.863   3.142
 2578SOL    HW2 1725   2.694   2.956   3.274
 2579SOL     OW 1726   2.778   2.772   2.153
 2579SOL    HW1 1727   2.841   2.810   2.085
 2579SOL    HW2 1728   2.818   2.689   2.192
 2580SOL     OW 1729   3.366   3.469   1.906
 2580SOL    HW1 1730   3.274   3.506   1.913
 2580SOL    HW2 1731   3.404   3.489   1.816
 2581SOL     OW 1732   2.234   3.150   3.352
 2581SOL    HW1 1733   2.221   3.243   3.318
 2581SOL    HW2 1734   2.150   3.098   3.339
 2582SOL     OW 1735   3.476   3.154   3.151
 2582SOL    HW1 1736   3.536   3.157   3.231
 2582SOL    HW2 1737   3.401   3.218   3.164
 2583SOL     OW 1738   2.901   2.960   2.558
 2583SOL    HW1 1739   2.831   2.913   2.612
 2583SOL    HW2 1740   2.960   2.892   2.515
 2584SOL     OW 1741   2.452   3.349   2.353
 2584SOL    HW1 1742   2.494   3.291   2.283
 2584SOL    HW2 1743   2.408   3.428   2.309
 2585SOL     OW 1744   3.571   2.247   3.243
 2585SOL    HW1 1745   3.644   2.316   3.247
 2585SOL    HW2 1746   3.599   2.172   3.184
 2586SOL     OW 1747   2.117   3.210   2.152
 2586SOL    HW1 1748   2.021   3.211   2.125
 2586SOL    HW2 1749   2.129   3.263   2.236
 2587SOL     OW 1750   1.967   2.875   3.588
 2587SOL    HW1 1751   1.890   2.842   3.642
 2587SOL    HW2 1752   2.052   2.845   3.630
 2588SOL     OW 1753   2.534   2.065   3.351
 2588SOL    HW1 1754   2.624   2.049   3.311
 2588SOL    HW2 1755   2.542   2.070   3.450
 2589SOL     OW 1756   1.937   2.207   1.895
 2589SOL    HW1 1757   1.845   2.179   1.866
 2589SOL    HW2 1758   1.968   2.284   1.839
 2590SOL     OW 1759   3.302   2.718   3.260
 2590SOL    HW1 1760   3.245   2.770   3.197
 2590SOL    HW2 1761   3.398   2.730   3.236
 2591SOL     OW 1762   1.934   2.028   2.180
 2591SOL    HW1 1763   1.917   2.111   2.126
 2591SOL    HW2 1764   2.024   1.991   2.158
 2592SOL     OW 1765   3.045   3.197   1.981
 2592SOL    HW1 1766   2.946   3.186   1.983
 2592SOL    HW2 1767   3.079   3.212   2.074
 2593SOL     OW 1768   2.475   2.704   3.293
 2593SOL    HW1 1769   2.531   2.785   3.276
 2593SOL    HW2 1770   2.534   2.624   3.296
 2594SOL     OW 1771   3.355   3.629   2.821
 2594SOL    HW1 1772   3.388   3.693   2.752
 2594SOL    HW2 1773   3.421   3.623   2.896
 2595SOL     OW 1774   2.578   2.427   3.570
 2595SOL    HW1 1775   2.597   2.492   3.644
 2595SOL    HW2 1776   2.638   2.347   3.579
 2596SOL     OW 1777   3.312   3.082   3.495
 2596SOL    HW1 1778   3.303   3.072   3.594
 2596SOL    HW2 1779   3.408   3.075   3.469
 2597SOL     OW 1780   2.252   3.603   3.422
 2597SOL    HW1 1781   2.161   3.644   3.420
 2597SOL    HW2 1782   2.245   3.509   3.454
 2598SOL     OW 1783   3.536   2.745   3.116
 2598SOL    HW1 1784   3.509   2.656   3.079
 2598SOL    HW2 1785   3.537   2.813   3.043
 2599SOL     OW 1786   3.087   2.187   2.311
 2599SOL    HW1 1787   3.152   2.113   2.300
 2599SOL    HW2 1788   3.107   2.237   2.395
 2600SOL     OW 1789   3.639   2.204   3.504
 2600SOL    HW1 1790   3.622   2.235   3.410
 2600SOL    HW2 1791   3.555   2.167   3.542
 2601SOL     OW 1792   3.592   2.796   3.379
 2601SOL    HW1 1793   3.630   2.887   3.394
 2601SOL    HW2 1794   3.584   2.779   3.280
 2602SOL     OW 1795   2.721   3.236   1.878
 2602SOL    HW1 1796   2.675   3.251   1.966
 2602SOL    HW2 1797   2.765   3.321   1.848
 2603SOL     OW 1798   2.523   3.652   2.815
 2603SOL    HW1 1799   2.477   3.740   2.802
 2603SOL    HW2 1800   2.622   3.664   2.808
 2604SOL     OW 1801   2.721   2.818   2.723
 2604SOL    HW1 1802   2.775   2.749   2.771
 2604SOL    HW2 1803   2.689   2.887   2.789
 2605SOL     OW 1804   2.945   2.846   1.949
 2605SOL    HW1 1805   2.922   2.899   1.867
 2605SOL    HW2 1806   3.026   2.790   1.930
 2606SOL     OW 1807   3.723   3.431   2.713
 2606SOL    HW1 1808   3.652   3.419   2.643
 2606SOL    HW2 1809   3.724   3.352   2.773
 2607SOL     OW 1810   2.083   3.176   3.706
 2607SOL    HW1 1811   2.018   3.103   3.685
 2607SOL    HW2 1812   2.087   3.190   3.804
 2608SOL     OW 1813   1.941   3.102   2.515
 2608SOL    HW1 1814   1.940   3.055   2.603
 2608SOL    HW2 1815   2.023   3.074   2.464
 2609SOL     OW 1816   2.534   3.253   3.486
 2609SOL    HW1 1817   2.456   3.203   3.524
 2609SOL    HW2 1818   2.531   3.348   3.517
 2610SOL     OW 1819   3.686   2.054   3.089
 2610SOL    HW1 1820   3.682   1.964   3.133
 2610SOL    HW2 1821   3.689   2.043   2.990
 2611SOL     OW 1822   2.290   2.286   2.382
 2611SOL    HW1 1823   2.320   2.214   2.320
 2611SOL    HW2 1824   2.251   2.246   2.465
 2612SOL     OW 1825   3.567   3.349   2.966
 2612SOL    HW1 1826   3.474   3.324   2.939
 2612SOL    HW2 1827   3.593   3.299   3.048
 2613SOL     OW 1828   2.179   2.409   3.142
 2613SOL    HW1 1829   2.217   2.350   3.214
 2613SOL    HW2 1830   2.219   2.383   3.054
 2614SOL     OW 1831   2.674   3.448   2.549
 2614SOL    HW1 1832   2.706   3.458   2.455
 2614SOL    HW2 1833   2.595   3.386   2.551
 2615SOL     OW 1834   3.286   2.076   2.974
 2615SOL    HW1 1835   3.338   2.011   3.029
 2615SOL    HW2 1836   3.237   2.139   3.035
 2616SOL     OW 1837   2.863   1.896   3.016
 2616SOL    HW1 1838   2.800   1.824   2.985
 2616SOL    HW2 1839   2.956   1.860   3.016
 2617SOL     OW 1840   2.632   3.192   2.163
 2617SOL    HW1 1841   2.586   3.105   2.180
 2617SOL    HW2 1842   2.723   3.189   2.204
 2618SOL     OW 1843   2.480   3.429   3.146
 2618SOL    HW1 1844   2.475   3.511   3.203
 2618SOL    HW2 1845   2.569   3.426   3.101
 2619SOL     OW 1846   3.214   1.914   2.030
 2619SOL    HW1 1847   3.249   1.873   1.946
 2619SOL    HW2 1848   3.124   1.876   2.050
 2620SOL     OW 1849   3.162   2.315   2.553
 2620SOL    HW1 1850   3.103   2.395   2.557
 2620SOL    HW2 1851   3.177   2.280   2.646
 2621SOL     OW 1852   3.455   2.083   2.744
 2621SOL    HW1 1853   3.371   2.082   2.798
 2621SOL    HW2 1854   3.457   2.166   2.688
 2622SOL     OW 1855   1.901   2.939   2.162
 2622SOL    HW1 1856   2.000   2.928   2.153
 2622SOL    HW2 1857   1.861   2.853   2.194
 2623SOL     OW 1858   2.737   3.508   2.199
 2623SOL    HW1 1859   2.660   3.473   2.145
 2623SOL    HW2 1860   2.705   3.579   2.261
 2624SOL     OW 1861   2.092   2.490   3.837
 2624SOL    HW1 1862   1.999   2.488   3.874
 2624SOL    HW2 1863   2.093   2.451   3.745
 2630SOL     OW 1864   3.617   2.469   3.955
 2630SOL    HW1 1865   3.605   2.456   3.856
 2630SOL    HW2 1866   3.587   2.388   4.004
 2639SOL     OW 1867   2.468   2.826   3.847
 2639SOL    HW1 1868   2.475   2.910   3.793
 2639SOL    HW2 1869   2.514   2.839   3.935
 2642SOL     OW 1870   1.889   3.458   3.841
 2642SOL    HW1 1871   1.870   3.362   3.862
 2642SOL    HW2 1872   1.856   3.516   3.916
 2646SOL     OW 1873   2.671   1.866   4.226
 2646SOL    HW1 1874   2.711   1.957   4.217
 2646SOL    HW2 1875   2.571   1.874   4.232
 2648SOL     OW 1876   3.387   2.861   3.914
 2648SOL    HW1 1877   3.324   2.785   3.927
 2648SOL    HW2 1878   3.435   2.879   4.000
 2651SOL     OW 1879   2.460   2.591   3.994
 2651SOL    HW1 1880   2.484   2.660   3.926
 2651SOL    HW2 1881   2.382   2.624   4.048
 2656SOL     OW 1882   2.903   2.563   4.153
 2656SOL    HW1 1883   2.929   2.559   4.249
 2656SOL    HW2 1884   2.818   2.512   4.139
 2659SOL     OW 1885   2.727   2.210   3.919
 2659SOL    HW1 1886   2.786   2.273   3.870
 2659SOL    HW2 1887   2.746   2.116   3.890
 2665SOL     OW 1888   2.183   2.805   3.966
 2665SOL    HW1 1889   2.265   2.844   3.924
 2665SOL    HW2 1890   2.156   2.723   3.917
 2667SOL     OW 1891   2.973   3.638   3.961
 2667SOL    HW1 1892   2.913   3.576   4.011
 2667SOL    HW2 1893   3.004   3.594   3.876
 2668SOL     OW 1894   3.494   3.239   3.805
 2668SOL    HW1 1895   3.462   3.333   3.795
 2668SOL    HW2 1896   3.418   3.176   3.793
 2673SOL     OW 1897   2.244   2.562   4.204
 2673SOL    HW1 1898   2.289   2.472   4.201
 2673SOL    HW2 1899   2.150   2.551   4.237
 2674SOL     OW 1900   2.476   1.984   3.841
 2674SOL    HW1 1901   2.574   1.962   3.848
 2674SOL    HW2 1902   2.445   1.967   3.748
 2678SOL     OW 1903   2.401   1.926   4.236
 2678SOL    HW1 1904   2.320   1.927   4.294
 2678SOL    HW2 1905   2.404   2.009   4.181
 2679SOL     OW 1906   3.296   3.050   3.765
 2679SOL    HW1 1907   3.328   2.974   3.822
 2679SOL    HW2 1908   3.204   3.077   3.795
 2680SOL     OW 1909   2.159   1.897   3.895
 2680SOL    HW1 1910   2.208   1.981   3.874
 2680SOL    HW2 1911   2.221   1.832   3.940
 2681SOL     OW 1912   2.797   2.098   4.204
 2681SOL    HW1 1913   2.749   2.139   4.126
 2681SOL    HW2 1914   2.896   2.096   4.185
 2685SOL     OW 1915   2.894   2.411   3.740
 2685SOL    HW1 1916   2.853   2.493   3.701
 2685SOL    HW2 1917   2.958   2.437   3.813
 2692SOL     OW 1918   2.350   3.247   3.898
 2692SOL    HW1 1919   2.263   3.232   3.945
 2692SOL    HW2 1920   2.333   3.273   3.803
 2694SOL     OW 1921   3.252   2.437   3.802
 2694SOL    HW1 1922   3.198   2.416   3.883
 2694SOL    HW2 1923   3.343   2.396   3.811
 2695SOL     OW 1924   2.389   2.118   4.052
 2695SOL    HW1 1925   2.416   2.059   3.977
 2695SOL    HW2 1926   2.389   2.213   4.021
 2699SOL     OW 1927   2.567   2.912   4.092
 2699SOL    HW1 1928   2.553   2.919   4.191
 2699SOL    HW2 1929   2.651   2.861   4.074
 2703SOL     OW 1930   2.229   2.962   4.225
 2703SOL    HW1 1931   2.222   3.045   4.169
 2703SOL    HW2 1932   2.233   2.882   4.165
 2705SOL     OW 1933   3.114   3.210   4.112
 2705SOL    HW1 1934   3.164   3.287   4.152
 2705SOL    HW2 1935   3.019   3.212   4.144
 2711SOL     OW 1936   3.071   2.387   3.999
 2711SOL    HW1 1937   3.084   2.303   4.053
 2711SOL    HW2 1938   3.042   2.461   4.059
 2716SOL     OW 1939   3.484   2.229   4.098
 2716SOL    HW1 1940   3.486   2.153   4.162
 2716SOL    HW2 1941   3.436   2.306   4.138
 2718SOL     OW 1942   3.402   2.136   3.849
 2718SOL    HW1 1943   3.341   2.061   3.872
 2718SOL    HW2 1944   3.424   2.188   3.932
 2719SOL     OW 1945   3.165   2.700   3.766
 2719SOL    HW1 1946   3.199   2.607   3.781
 2719SOL    HW2 1947   3.183   2.727   3.671
 2724SOL     OW 1948   1.870   3.188   3.924
 2724SOL    HW1 1949   1.777   3.209   3.893
 2724SOL    HW2 1950   1.880   3.089   3.937
 2729SOL     OW 1951   2.677   2.434   4.049
 2729SOL    HW1 1952   2.684   2.345   4.003
 2729SOL    HW2 1953   2.583   2.468   4.041
 2733SOL     OW 1954   2.335   2.362   3.915
 2733SOL    HW1 1955   2.396   2.442   3.919
 2733SOL    HW2 1956   2.240   2.393   3.922
 2736SOL     OW 1957   3.164   2.717   4.033
 2736SOL    HW1 1958   3.078   2.686   4.075
 2736SOL    HW2 1959   3.160   2.703   3.934
 2743SOL     OW 1960   2.534   3.478   3.878
 2743SOL    HW1 1961   2.543   3.488   3.779
 2743SOL    HW2 1962   2.494   3.389   3.899
 2746SOL     OW 1963   3.056   3.474   3.755
 2746SOL    HW1 1964   3.062   3.381   3.792
 2746SOL    HW2 1965   2.997   3.474   3.675
 2748SOL     OW 1966   2.778   2.772   4.015
 2748SOL    HW1 1967   2.841   2.810   3.947
 2748SOL    HW2 1968   2.818   2.689   4.054
 2749SOL     OW 1969   3.366   3.469   3.768
 2749SOL    HW1 1970   3.274   3.506   3.775
 2749SOL    HW2 1971   3.404   3.489   3.678
 2755SOL     OW 1972   2.117   3.210   4.014
 2755SOL    HW1 1973   2.021   3.211   3.987
 2755SOL    HW2 1974   2.129   3.263   4.098
 2757SOL     OW 1975   1.937   2.207   3.757
 2757SOL    HW1 1976   1.845   2.179   3.728
 2757SOL    HW2 1977   1.968   2.284   3.701
 2758SOL     OW 1978   1.934   2.028   4.042
 2758SOL    HW1 1979   1.917   2.111   3.988
 2758SOL    HW2 1980   2.024   1.991   4.020
 2759SOL     OW 1981   3.045   3.197   3.843
 2759SOL    HW1 1982   2.946   3.186   3.845
 2759SOL    HW2 1983   3.079   3.212   3.936
 2764SOL     OW 1984   3.087   2.187   4.173
 2764SOL    HW1 1985   3.152   2.113   4.162
 2764SOL    HW2 1986   3.107   2.237   4.257
 2765SOL     OW 1987   2.456   2.607   4.376
 2765SOL    HW1 1988   2.506   2.692   4.357
 2765SOL    HW2 1989   2.368   2.609   4.328
 2768SOL     OW 1990   2.721   3.236   3.740
 2768SOL    HW1 1991   2.675   3.251   3.828
 2768SOL    HW2 1992   2.765   3.321   3.710
 2771SOL     OW 1993   2.945   2.846   3.811
 2771SOL    HW1 1994   2.922   2.899   3.729
 2771SOL    HW2 1995   3.026   2.790   3.792
 2775SOL     OW 1996   2.290   2.286   4.244
 2775SOL    HW1 1997   2.320   2.214   4.182
 2775SOL    HW2 1998   2.251   2.246   4.327
 2781SOL     OW 1999   2.632   3.192   4.025
 2781SOL    HW1 2000   2.586   3.105   4.042
 2781SOL    HW2 2001   2.723   3.189   4.066
 2783SOL     OW 2002   3.214   1.914   3.892
 2783SOL    HW1 2003   3.249   1.873   3.808
 2783SOL    HW2 2004   3.124   1.876   3.912
 2786SOL     OW 2005   1.901   2.939   4.024
 2786SOL    HW1 2006   2.000   2.928   4.015
 2786SOL    HW2 2007   1.861   2.853   4.056
 2787SOL     OW 2008   2.737   3.508   4.061
 2787SOL    HW1 2009   2.660   3.473   4.007
 2787SOL    HW2 2010   2.705   3.579   4.123
 2814SOL     OW 2011   2.179   3.975   1.801
 2814SOL    HW1 2012   2.250   4.046   1.807
 2814SOL    HW2 2013   2.091   4.014   1.829
 2837SOL     OW 2014   2.643   3.988   1.749
 2837SOL    HW1 2015   2.710   3.927   1.792
 2837SOL    HW2 2016   2.570   4.007   1.814
 2861SOL     OW 2017   2.777   3.813   1.402
 2861SOL    HW1 2018   2.802   3.793   1.307
 2861SOL    HW2 2019   2.849   3.869   1.444
 2871SOL     OW 2020   2.875   3.829   1.770
 2871SOL    HW1 2021   2.881   3.914   1.718
 2871SOL    HW2 2022   2.907   3.753   1.713
 2872SOL     OW 2023   2.366   3.774   1.740
 2872SOL    HW1 2024   2.324   3.717   1.670
 2872SOL    HW2 2025   2.300   3.843   1.772
 2890SOL     OW 2026   3.022   3.931   1.477
 2890SOL    HW1 2027   3.022   3.995   1.554
 2890SOL    HW2 2028   3.050   3.979   1.394
 2917SOL     OW 2029   2.534   3.927   1.489
 2917SOL    HW1 2030   2.624   3.911   1.449
 2917SOL    HW2 2031   2.542   3.932   1.588
 2946SOL     OW 2032   2.087   3.999   2.858
 2946SOL    HW1 2033   2.122   3.982   2.950
 2946SOL    HW2 2034   1.999   3.954   2.846
 2947SOL     OW 2035   1.881   4.092   2.509
 2947SOL    HW1 2036   1.799   4.135   2.548
 2947SOL    HW2 2037   1.853   4.019   2.446
 2957SOL     OW 2038   2.300   4.116   3.361
 2957SOL    HW1 2039   2.382   4.060   3.370
 2957SOL    HW2 2040   2.219   4.058   3.365
 2961SOL     OW 2041   3.456   3.838   3.342
 2961SOL    HW1 2042   3.438   3.905   3.270
 2961SOL    HW2 2043   3.453   3.884   3.431
 2968SOL     OW 2044   2.671   3.728   2.364
 2968SOL    HW1 2045   2.711   3.819   2.355
 2968SOL    HW2 2046   2.571   3.736   2.370
 2974SOL     OW 2047   3.143   4.069   2.806
 2974SOL    HW1 2048   3.057   4.019   2.793
 2974SOL    HW2 2049   3.205   4.015   2.862
 2978SOL     OW 2050   2.853   4.134   3.104
 2978SOL    HW1 2051   2.776   4.168   3.158
 2978SOL    HW2 2052   2.819   4.083   3.025
 2981SOL     OW 2053   2.727   4.072   2.057
 2981SOL    HW1 2054   2.786   4.135   2.008
 2981SOL    HW2 2055   2.746   3.978   2.028
 2984SOL     OW 2056   2.412   3.920   2.747
 2984SOL    HW1 2057   2.407   3.915   2.847
 2984SOL    HW2 2058   2.414   4.016   2.718
 2989SOL     OW 2059   2.064   4.009   3.360
 2989SOL    HW1 2060   1.984   4.069   3.347
 2989SOL    HW2 2061   2.054   3.960   3.446
 2991SOL     OW 2062   3.262   3.831   2.288
 2991SOL    HW1 2063   3.238   3.794   2.198
 2991SOL    HW2 2064   3.361   3.847   2.292
 2994SOL     OW 2065   2.476   3.846   1.979
 2994SOL    HW1 2066   2.574   3.824   1.986
 2994SOL    HW2 2067   2.445   3.829   1.886
 2995SOL     OW 2068   2.643   3.988   3.611
 2995SOL    HW1 2069   2.710   3.927   3.654
 2995SOL    HW2 2070   2.570   4.007   3.676
 2997SOL     OW 2071   2.784   4.227   2.761
 2997SOL    HW1 2072   2.759   4.218   2.665
 2997SOL    HW2 2073   2.832   4.145   2.792
 2998SOL     OW 2074   2.401   3.788   2.374
 2998SOL    HW1 2075   2.320   3.789   2.432
 2998SOL    HW2 2076   2.404   3.871   2.319
 3000SOL     OW 2077   2.159   3.759   2.033
 3000SOL    HW1 2078   2.208   3.843   2.012
 3000SOL    HW2 2079   2.221   3.694   2.078
 3001SOL     OW 2080   2.797   3.960   2.342
 3001SOL    HW1 2081   2.749   4.001   2.264
 3001SOL    HW2 2082   2.896   3.958   2.323
 3007SOL     OW 2083   2.423   3.946   3.009
 3007SOL    HW1 2084   2.461   3.862   3.046
 3007SOL    HW2 2085   2.335   3.965   3.053
 3008SOL     OW 2086   2.728   4.178   2.504
 3008SOL    HW1 2087   2.696   4.250   2.442
 3008SOL    HW2 2088   2.752   4.097   2.451
 3009SOL     OW 2089   2.879   3.763   2.615
 3009SOL    HW1 2090   2.807   3.768   2.546
 3009SOL    HW2 2091   2.855   3.694   2.684
 3015SOL     OW 2092   2.389   3.980   2.190
 3015SOL    HW1 2093   2.416   3.921   2.115
 3015SOL    HW2 2094   2.389   4.075   2.159
 3020SOL     OW 2095   2.777   3.813   3.264
 3020SOL    HW1 2096   2.802   3.793   3.169
 3020SOL    HW2 2097   2.849   3.869   3.306
 3024SOL     OW 2098   3.136   4.110   3.124
 3024SOL    HW1 2099   3.157   4.184   3.188
 3024SOL    HW2 2100   3.047   4.127   3.081
 3026SOL     OW 2101   2.428   4.261   2.727
 3026SOL    HW1 2102   2.440   4.327   2.653
 3026SOL    HW2 2103   2.474   4.295   2.810
 3030SOL     OW 2104   2.875   3.829   3.632
 3030SOL    HW1 2105   2.881   3.914   3.580
 3030SOL    HW2 2106   2.907   3.753   3.575
 3031SOL     OW 2107   2.366   3.774   3.602
 3031SOL    HW1 2108   2.324   3.717   3.532
 3031SOL    HW2 2109   2.300   3.843   3.634
 3034SOL     OW 2110   3.071   4.249   2.137
 3034SOL    HW1 2111   3.084   4.165   2.191
 3034SOL    HW2 2112   3.042   4.323   2.197
 3035SOL     OW 2113   2.169   3.937   3.093
 3035SOL    HW1 2114   2.146   3.974   3.183
 3035SOL    HW2 2115   2.139   3.842   3.087
 3039SOL     OW 2116   2.169   3.787   2.480
 3039SOL    HW1 2117   2.158   3.881   2.513
 3039SOL    HW2 2118   2.164   3.724   2.557
 3040SOL     OW 2119   3.484   4.091   2.236
 3040SOL    HW1 2120   3.486   4.015   2.300
 3040SOL    HW2 2121   3.436   4.168   2.276
 3044SOL     OW 2122   3.402   3.998   1.987
 3044SOL    HW1 2123   3.341   3.923   2.010
 3044SOL    HW2 2124   3.424   4.050   2.070
 3047SOL     OW 2125   2.201   4.233   2.868
 3047SOL    HW1 2126   2.149   4.150   2.851
 3047SOL    HW2 2127   2.278   4.238   2.804
 3049SOL     OW 2128   3.022   3.931   3.339
 3049SOL    HW1 2129   3.022   3.995   3.416
 3049SOL    HW2 2130   3.050   3.979   3.256
 3055SOL     OW 2131   2.677   4.296   2.187
 3055SOL    HW1 2132   2.684   4.207   2.141
 3055SOL    HW2 2133   2.583   4.330   2.179
 3057SOL     OW 2134   2.533   4.188   3.131
 3057SOL    HW1 2135   2.499   4.099   3.101
 3057SOL    HW2 2136   2.559   4.242   3.051
 3058SOL     OW 2137   2.335   4.224   2.053
 3058SOL    HW1 2138   2.396   4.304   2.057
 3058SOL    HW2 2139   2.240   4.255   2.060
 3063SOL     OW 2140   3.588   3.859   2.385
 3063SOL    HW1 2141   3.661   3.842   2.318
 3063SOL    HW2 2142   3.557   3.772   2.423
 3066SOL     OW 2143   3.703   3.899   2.825
 3066SOL    HW1 2144   3.742   3.814   2.789
 3066SOL    HW2 2145   3.605   3.901   2.806
 3067SOL     OW 2146   2.125   4.050   2.582
 3067SOL    HW1 2147   2.046   4.101   2.548
 3067SOL    HW2 2148   2.116   4.035   2.680
 3073SOL     OW 2149   2.876   3.960   2.833
 3073SOL    HW1 2150   2.868   3.924   2.740
 3073SOL    HW2 2151   2.874   3.884   2.898
 3076SOL     OW 2152   2.534   3.927   3.351
 3076SOL    HW1 2153   2.624   3.911   3.311
 3076SOL    HW2 2154   2.542   3.932   3.450
 3077SOL     OW 2155   1.937   4.069   1.895
 3077SOL    HW1 2156   1.845   4.041   1.866
 3077SOL    HW2 2157   1.968   4.146   1.839
 3079SOL     OW 2158   1.934   3.890   2.180
 3079SOL    HW1 2159   1.917   3.973   2.126
 3079SOL    HW2 2160   2.024   3.853   2.158
 3084SOL     OW 2161   3.087   4.049   2.311
 3084SOL    HW1 2162   3.152   3.975   2.300
 3084SOL    HW2 2163   3.107   4.099   2.395
 3095SOL     OW 2164   2.290   4.148   2.382
 3095SOL    HW1 2165   2.320   4.076   2.320
 3095SOL    HW2 2166   2.251   4.108   2.465
 3098SOL     OW 2167   3.286   3.938   2.974
 3098SOL    HW1 2168   3.338   3.873   3.029
 3098SOL    HW2 2169   3.237   4.001   3.035
 3099SOL     OW 2170   2.863   3.758   3.016
 3099SOL    HW1 2171   2.800   3.686   2.985
 3099SOL    HW2 2172   2.956   3.722   3.016
 3101SOL     OW 2173   3.214   3.776   2.030
 3101SOL    HW1 2174   3.249   3.735   1.946
 3101SOL    HW2 2175   3.124   3.738   2.050
 3102SOL     OW 2176   3.162   4.177   2.553
 3102SOL    HW1 2177   3.103   4.257   2.557
 3102SOL    HW2 2178   3.177   4.142   2.646
 3103SOL     OW 2179   3.455   3.945   2.744
 3103SOL    HW1 2180   3.371   3.944   2.798
 3103SOL    HW2 2181   3.457   4.028   2.688
 3142SOL     OW 2182   2.476   3.846   3.841
 3142SOL    HW1 2183   2.574   3.824   3.848
 3142SOL    HW2 2184   2.445   3.829   3.748
 3267SOL     OW 2185   3.854   1.821   1.571
 3267SOL    HW1 2186   3.844   1.806   1.670
 3267SOL    HW2 2187   3.768   1.857   1.535
 3355SOL     OW 2188   3.854   1.794   1.851
 3355SOL    HW1 2189   3.813   1.720   1.904
 3355SOL    HW2 2190   3.918   1.845   1.909
 3408SOL     OW 2191   3.955   1.713   2.345
 3408SOL    HW1 2192   3.989   1.790   2.399
 3408SOL    HW2 2193   3.999   1.713   2.255
 3410SOL     OW 2194   3.954   1.434   2.400
 3410SOL    HW1 2195   3.928   1.530   2.400
 3410SOL    HW2 2196   3.883   1.380   2.445
 3415SOL     OW 2197   3.751   1.596   1.979
 3415SOL    HW1 2198   3.732   1.500   2.000
 3415SOL    HW2 2199   3.718   1.654   2.054
 3432SOL     OW 2200   3.854   1.821   3.433
 3432SOL    HW1 2201   3.844   1.806   3.532
 3432SOL    HW2 2202   3.768   1.857   3.397
 3437SOL     OW 2203   4.075   1.801   2.715
 3437SOL    HW1 2204   4.125   1.715   2.721
 3437SOL    HW2 2205   4.140   1.878   2.712
 3444SOL     OW 2206   3.973   1.785   3.103
 3444SOL    HW1 2207   4.030   1.720   3.153
 3444SOL    HW2 2208   3.957   1.752   3.010
 3476SOL     OW 2209   3.788   1.564   3.193
 3476SOL    HW1 2210   3.742   1.646   3.159
 3476SOL    HW2 2211   3.886   1.583   3.202
 3502SOL     OW 2212   3.732   1.326   2.062
 3502SOL    HW1 2213   3.639   1.347   2.031
 3502SOL    HW2 2214   3.742   1.227   2.075
 3503SOL     OW 2215   3.812   1.801   2.789
 3503SOL    HW1 2216   3.770   1.715   2.762
 3503SOL    HW2 2217   3.906   1.804   2.755
 3710SOL     OW 2218   3.837   2.599   1.597
 3710SOL    HW1 2219   3.925   2.586   1.642
 3710SOL    HW2 2220   3.824   2.696   1.575
 3716SOL     OW 2221   4.041   2.113   1.801
 3716SOL    HW1 2222   4.112   2.184   1.807
 3716SOL    HW2 2223   3.953   2.152   1.829
 3735SOL     OW 2224   3.926   2.147   1.498
 3735SOL    HW1 2225   3.846   2.207   1.485
 3735SOL    HW2 2226   3.916   2.098   1.584
 3753SOL     OW 2227   3.802   2.418   1.386
 3753SOL    HW1 2228   3.894   2.417   1.345
 3753SOL    HW2 2229   3.796   2.492   1.453
 3786SOL     OW 2230   4.074   2.760   1.804
 3786SOL    HW1 2231   4.150   2.804   1.852
 3786SOL    HW2 2232   4.109   2.713   1.722
 3797SOL     OW 2233   3.913   2.382   1.722
 3797SOL    HW1 2234   3.972   2.342   1.652
 3797SOL    HW2 2235   3.855   2.453   1.681
 3803SOL     OW 2236   3.883   2.999   1.466
 3803SOL    HW1 2237   3.905   2.938   1.542
 3803SOL    HW2 2238   3.893   2.950   1.380
 3824SOL     OW 2239   3.829   2.875   1.726
 3824SOL    HW1 2240   3.752   2.842   1.780
 3824SOL    HW2 2241   3.914   2.845   1.768
 3840SOL     OW 2242   3.945   3.176   1.844
 3840SOL    HW1 2243   3.880   3.103   1.823
 3840SOL    HW2 2244   3.949   3.190   1.942
 3852SOL     OW 2245   3.954   2.490   1.975
 3852SOL    HW1 2246   3.861   2.488   2.012
 3852SOL    HW2 2247   3.955   2.451   1.883
 3853SOL     OW 2248   3.949   2.137   2.858
 3853SOL    HW1 2249   3.984   2.120   2.950
 3853SOL    HW2 2250   3.861   2.092   2.846
 3854SOL     OW 2251   3.743   2.230   2.509
 3854SOL    HW1 2252   3.661   2.273   2.548
 3854SOL    HW2 2253   3.715   2.157   2.446
 3862SOL     OW 2254   4.059   3.297   2.923
 3862SOL    HW1 2255   3.981   3.266   2.870
 3862SOL    HW2 2256   4.117   3.355   2.866
 3863SOL     OW 2257   4.162   2.254   3.361
 3863SOL    HW1 2258   4.244   2.198   3.370
 3863SOL    HW2 2259   4.081   2.196   3.365
 3864SOL     OW 2260   3.955   3.575   2.345
 3864SOL    HW1 2261   3.989   3.652   2.399
 3864SOL    HW2 2262   3.999   3.575   2.255
 3866SOL     OW 2263   3.954   3.296   2.400
 3866SOL    HW1 2264   3.928   3.392   2.400
 3866SOL    HW2 2265   3.883   3.242   2.445
 3867SOL     OW 2266   3.964   2.953   2.748
 3867SOL    HW1 2267   3.978   2.869   2.800
 3867SOL    HW2 2268   3.909   3.017   2.803
 3870SOL     OW 2269   3.846   2.505   2.425
 3870SOL    HW1 2270   3.801   2.417   2.442
 3870SOL    HW2 2271   3.845   2.559   2.509
 3871SOL     OW 2272   3.751   3.458   1.979
 3871SOL    HW1 2273   3.732   3.362   2.000
 3871SOL    HW2 2274   3.718   3.516   2.054
 3873SOL     OW 2275   3.837   2.599   3.459
 3873SOL    HW1 2276   3.925   2.586   3.504
 3873SOL    HW2 2277   3.824   2.696   3.437
 3877SOL     OW 2278   3.921   2.838   3.126
 3877SOL    HW1 2279   4.010   2.793   3.112
 3877SOL    HW2 2280   3.848   2.773   3.107
 3880SOL     OW 2281   4.322   2.591   2.132
 3880SOL    HW1 2282   4.346   2.660   2.064
 3880SOL    HW2 2283   4.244   2.624   2.186
 3887SOL     OW 2284   3.800   2.673   2.651
 3887SOL    HW1 2285   3.899   2.661   2.660
 3887SOL    HW2 2286   3.776   2.768   2.672
 3891SOL     OW 2287   4.274   2.058   2.747
 3891SOL    HW1 2288   4.269   2.053   2.847
 3891SOL    HW2 2289   4.276   2.154   2.718
 3895SOL     OW 2290   4.045   2.805   2.104
 3895SOL    HW1 2291   4.127   2.844   2.062
 3895SOL    HW2 2292   4.018   2.723   2.055
 3898SOL     OW 2293   3.926   2.147   3.360
 3898SOL    HW1 2294   3.846   2.207   3.347
 3898SOL    HW2 2295   3.916   2.098   3.446
 3902SOL     OW 2296   4.106   2.562   2.342
 3902SOL    HW1 2297   4.151   2.472   2.339
 3902SOL    HW2 2298   4.012   2.551   2.375
 3911SOL     OW 2299   4.021   1.897   2.033
 3911SOL    HW1 2300   4.070   1.981   2.012
 3911SOL    HW2 2301   4.083   1.832   2.078
 3915SOL     OW 2302   4.183   3.014   2.603
 3915SOL    HW1 2303   4.112   2.987   2.668
 3915SOL    HW2 2304   4.157   2.986   2.510
 3918SOL     OW 2305   3.802   2.418   3.248
 3918SOL    HW1 2306   3.894   2.417   3.207
 3918SOL    HW2 2307   3.796   2.492   3.315
 3924SOL     OW 2308   4.251   2.118   2.190
 3924SOL    HW1 2309   4.278   2.059   2.115
 3924SOL    HW2 2310   4.251   2.213   2.159
 3930SOL     OW 2311   4.134   2.675   3.113
 3930SOL    HW1 2312   4.220   2.687   3.163
 3930SOL    HW2 2313   4.092   2.588   3.140
 3932SOL     OW 2314   3.788   3.426   3.193
 3932SOL    HW1 2315   3.742   3.508   3.159
 3932SOL    HW2 2316   3.886   3.445   3.202
 3933SOL     OW 2317   4.091   2.962   2.363
 3933SOL    HW1 2318   4.084   3.045   2.307
 3933SOL    HW2 2319   4.095   2.882   2.303
 3934SOL     OW 2320   4.290   2.399   2.727
 3934SOL    HW1 2321   4.302   2.465   2.653
 3934SOL    HW2 2322   4.336   2.433   2.810
 3937SOL     OW 2323   4.078   3.372   3.191
 3937SOL    HW1 2324   4.057   3.328   3.104
 3937SOL    HW2 2325   4.175   3.398   3.194
 3938SOL     OW 2326   4.126   2.613   3.460
 3938SOL    HW1 2327   4.194   2.668   3.413
 3938SOL    HW2 2328   4.166   2.525   3.487
 3941SOL     OW 2329   4.297   2.732   2.891
 3941SOL    HW1 2330   4.341   2.821   2.882
 3941SOL    HW2 2331   4.234   2.732   2.968
 3944SOL     OW 2332   4.031   2.075   3.093
 3944SOL    HW1 2333   4.008   2.112   3.183
 3944SOL    HW2 2334   4.001   1.980   3.087
 3945SOL     OW 2335   3.761   3.172   3.144
 3945SOL    HW1 2336   3.814   3.123   3.212
 3945SOL    HW2 2337   3.783   3.270   3.149
 3947SOL     OW 2338   4.031   1.925   2.480
 3947SOL    HW1 2339   4.020   2.019   2.513
 3947SOL    HW2 2340   4.026   1.862   2.557
 3954SOL     OW 2341   4.043   2.672   2.811
 3954SOL    HW1 2342   4.136   2.708   2.816
 3954SOL    HW2 2343   4.037   2.587   2.863
 3955SOL     OW 2344   4.063   2.371   2.868
 3955SOL    HW1 2345   4.011   2.288   2.851
 3955SOL    HW2 2346   4.140   2.376   2.804
 3958SOL     OW 2347   3.732   3.188   2.062
 3958SOL    HW1 2348   3.639   3.209   2.031
 3958SOL    HW2 2349   3.742   3.089   2.075
 3959SOL     OW 2350   3.812   3.663   2.789
 3959SOL    HW1 2351   3.770   3.577   2.762
 3959SOL    HW2 2352   3.906   3.666   2.755
 3962SOL     OW 2353   3.764   2.406   2.976
 3962SOL    HW1 2354   3.849   2.373   2.935
 3962SOL    HW2 2355   3.777   2.421   3.074
 3963SOL     OW 2356   3.913   2.382   3.584
 3963SOL    HW1 2357   3.972   2.342   3.514
 3963SOL    HW2 2358   3.855   2.453   3.543
 3968SOL     OW 2359   4.197   2.362   2.053
 3968SOL    HW1 2360   4.258   2.442   2.057
 3968SOL    HW2 2361   4.102   2.393   2.060
 3969SOL     OW 2362   3.883   2.999   3.328
 3969SOL    HW1 2363   3.905   2.938   3.404
 3969SOL    HW2 2364   3.893   2.950   3.242
 3973SOL     OW 2365   3.807   3.120   2.884
 3973SOL    HW1 2366   3.802   3.119   2.984
 3973SOL    HW2 2367   3.724   3.079   2.846
 3980SOL     OW 2368   3.987   2.188   2.582
 3980SOL    HW1 2369   3.908   2.239   2.548
 3980SOL    HW2 2370   3.978   2.173   2.680
 3984SOL     OW 2371   4.096   3.150   3.352
 3984SOL    HW1 2372   4.083   3.243   3.318
 3984SOL    HW2 2373   4.012   3.098   3.339
 3988SOL     OW 2374   3.979   3.210   2.152
 3988SOL    HW1 2375   3.883   3.211   2.125
 3988SOL    HW2 2376   3.991   3.263   2.236
 3989SOL     OW 2377   3.829   2.875   3.588
 3989SOL    HW1 2378   3.752   2.842   3.642
 3989SOL    HW2 2379   3.914   2.845   3.630
 3991SOL     OW 2380   3.799   2.207   1.895
 3991SOL    HW1 2381   3.707   2.179   1.866
 3991SOL    HW2 2382   3.830   2.284   1.839
 3993SOL     OW 2383   3.796   2.028   2.180
 3993SOL    HW1 2384   3.779   2.111   2.126
 3993SOL    HW2 2385   3.886   1.991   2.158
 4000SOL     OW 2386   4.318   2.607   2.514
 4000SOL    HW1 2387   4.368   2.692   2.495
 4000SOL    HW2 2388   4.230   2.609   2.466
 4006SOL     OW 2389   3.803   3.102   2.515
 4006SOL    HW1 2390   3.802   3.055   2.603
 4006SOL    HW2 2391   3.885   3.074   2.464
 4008SOL     OW 2392   4.152   2.286   2.382
 4008SOL    HW1 2393   4.182   2.214   2.320
 4008SOL    HW2 2394   4.113   2.246   2.465
 4009SOL     OW 2395   4.041   2.409   3.142
 4009SOL    HW1 2396   4.079   2.350   3.214
 4009SOL    HW2 2397   4.081   2.383   3.054
 4016SOL     OW 2398   3.763   2.939   2.162
 4016SOL    HW1 2399   3.862   2.928   2.153
 4016SOL    HW2 2400   3.723   2.853   2.194
 4126SOL     OW 2401   3.799   2.207   3.757
 4126SOL    HW1 2402   3.707   2.179   3.728
 4126SOL    HW2 2403   3.830   2.284   3.701
   5.16211   5.16211   5.16211
