; mobley_4252724_GMX.itp created by acpype (v: 2023.10.27) on Thu May 21 00:02:02 2026

[ atomtypes ]
;name   bond_type     mass     charge   ptype   sigma         epsilon       Amb
 ca       ca          0.00000  0.00000   A     3.31521e-01   4.13379e-01 ; 1.86  0.0988
 c3       c3          0.00000  0.00000   A     3.39771e-01   4.51035e-01 ; 1.91  0.1078
 ha       ha          0.00000  0.00000   A     2.62548e-01   6.73624e-02 ; 1.47  0.0161
 hc       hc          0.00000  0.00000   A     2.60018e-01   8.70272e-02 ; 1.46  0.0208

[ moleculetype ]
;name            nrexcl
 mobley_4252724   3

[ atoms ]
;   nr  type  resi  res  atom  cgnr     charge      mass       ; qtot   bond_type
     1   ca     1   MOL    C1    1    -0.136002     12.01000 ; qtot -0.136
     2   ca     1   MOL    C2    2    -0.129000     12.01000 ; qtot -0.265
     3   ca     1   MOL    C3    3    -0.129000     12.01000 ; qtot -0.394
     4   ca     1   MOL    C4    4    -0.128000     12.01000 ; qtot -0.522
     5   ca     1   MOL    C5    5    -0.128000     12.01000 ; qtot -0.650
     6   ca     1   MOL    C6    6    -0.072300     12.01000 ; qtot -0.722
     7   c3     1   MOL    C7    7    -0.092100     12.01000 ; qtot -0.814
     8   c3     1   MOL    C8    8    -0.092100     12.01000 ; qtot -0.907
     9   c3     1   MOL    C9    9    -0.034100     12.01000 ; qtot -0.941
    10   c3     1   MOL   C10   10    -0.059700     12.01000 ; qtot -1.000
    11   ha     1   MOL    H1   11     0.130000      1.00800 ; qtot -0.870
    12   ha     1   MOL    H2   12     0.130000      1.00800 ; qtot -0.740
    13   ha     1   MOL    H3   13     0.130000      1.00800 ; qtot -0.610
    14   ha     1   MOL    H4   14     0.131000      1.00800 ; qtot -0.479
    15   ha     1   MOL    H5   15     0.131000      1.00800 ; qtot -0.348
    16   hc     1   MOL    H6   16     0.035367      1.00800 ; qtot -0.313
    17   hc     1   MOL    H7   17     0.035367      1.00800 ; qtot -0.278
    18   hc     1   MOL    H8   18     0.035367      1.00800 ; qtot -0.242
    19   hc     1   MOL    H9   19     0.035367      1.00800 ; qtot -0.207
    20   hc     1   MOL   H10   20     0.035367      1.00800 ; qtot -0.171
    21   hc     1   MOL   H11   21     0.035367      1.00800 ; qtot -0.136
    22   hc     1   MOL   H12   22     0.046700      1.00800 ; qtot -0.089
    23   hc     1   MOL   H13   23     0.046700      1.00800 ; qtot -0.043
    24   hc     1   MOL   H14   24     0.042700      1.00800 ; qtot -0.000

[ bonds ]
;   ai     aj funct   r             k
     1      2   1    1.3986e-01    2.9644e+05 ;     C1 - C2    
     1      3   1    1.3986e-01    2.9644e+05 ;     C1 - C3    
     1     11   1    1.0860e-01    3.0183e+05 ;     C1 - H1    
     2      4   1    1.3986e-01    2.9644e+05 ;     C2 - C4    
     2     12   1    1.0860e-01    3.0183e+05 ;     C2 - H2    
     3      5   1    1.3986e-01    2.9644e+05 ;     C3 - C5    
     3     13   1    1.0860e-01    3.0183e+05 ;     C3 - H3    
     4      6   1    1.3986e-01    2.9644e+05 ;     C4 - C6    
     4     14   1    1.0860e-01    3.0183e+05 ;     C4 - H4    
     5      6   1    1.3986e-01    2.9644e+05 ;     C5 - C6    
     5     15   1    1.0860e-01    3.0183e+05 ;     C5 - H5    
     6      9   1    1.5147e-01    2.0410e+05 ;     C6 - C9    
     7     10   1    1.5354e-01    1.9154e+05 ;     C7 - C10   
     7     16   1    1.0962e-01    2.8891e+05 ;     C7 - H6    
     7     17   1    1.0962e-01    2.8891e+05 ;     C7 - H7    
     7     18   1    1.0962e-01    2.8891e+05 ;     C7 - H8    
     8     10   1    1.5354e-01    1.9154e+05 ;     C8 - C10   
     8     19   1    1.0962e-01    2.8891e+05 ;     C8 - H9    
     8     20   1    1.0962e-01    2.8891e+05 ;     C8 - H10   
     8     21   1    1.0962e-01    2.8891e+05 ;     C8 - H11   
     9     10   1    1.5354e-01    1.9154e+05 ;     C9 - C10   
     9     22   1    1.0962e-01    2.8891e+05 ;     C9 - H12   
     9     23   1    1.0962e-01    2.8891e+05 ;     C9 - H13   
    10     24   1    1.0962e-01    2.8891e+05 ;    C10 - H14   

[ pairs ]
;   ai     aj    funct
     1      6      1 ;     C1 - C6    
     1     14      1 ;     C1 - H4    
     1     15      1 ;     C1 - H5    
     2      5      1 ;     C2 - C5    
     2      9      1 ;     C2 - C9    
     2     13      1 ;     C2 - H3    
     3      4      1 ;     C3 - C4    
     3      9      1 ;     C3 - C9    
     3     12      1 ;     C3 - H2    
     4     10      1 ;     C4 - C10   
     4     15      1 ;     C4 - H5    
     4     22      1 ;     C4 - H12   
     4     23      1 ;     C4 - H13   
     5     10      1 ;     C5 - C10   
     5     14      1 ;     C5 - H4    
     5     22      1 ;     C5 - H12   
     5     23      1 ;     C5 - H13   
     6      7      1 ;     C6 - C7    
     6      8      1 ;     C6 - C8    
     6     12      1 ;     C6 - H2    
     6     13      1 ;     C6 - H3    
     6     24      1 ;     C6 - H14   
     7     19      1 ;     C7 - H9    
     7     20      1 ;     C7 - H10   
     7     21      1 ;     C7 - H11   
     7     22      1 ;     C7 - H12   
     7     23      1 ;     C7 - H13   
     8     16      1 ;     C8 - H6    
     8     17      1 ;     C8 - H7    
     8     18      1 ;     C8 - H8    
     8     22      1 ;     C8 - H12   
     8     23      1 ;     C8 - H13   
     9     14      1 ;     C9 - H4    
     9     15      1 ;     C9 - H5    
     9     16      1 ;     C9 - H6    
     9     17      1 ;     C9 - H7    
     9     18      1 ;     C9 - H8    
     9     19      1 ;     C9 - H9    
     9     20      1 ;     C9 - H10   
     9     21      1 ;     C9 - H11   
    11      4      1 ;     H1 - C4    
    11      5      1 ;     H1 - C5    
    11     12      1 ;     H1 - H2    
    11     13      1 ;     H1 - H3    
    12     14      1 ;     H2 - H4    
    13     15      1 ;     H3 - H5    
    16     24      1 ;     H6 - H14   
    17     24      1 ;     H7 - H14   
    18     24      1 ;     H8 - H14   
    19     24      1 ;     H9 - H14   
    20     24      1 ;    H10 - H14   
    21     24      1 ;    H11 - H14   
    22     24      1 ;    H12 - H14   
    23     24      1 ;    H13 - H14   

[ angles ]
;   ai     aj     ak    funct   theta         cth
     1      2      4      1    1.2002e+02    5.3279e+02 ;     C1 - C2     - C4    
     1      2     12      1    1.1988e+02    3.7572e+02 ;     C1 - C2     - H2    
     1      3      5      1    1.2002e+02    5.3279e+02 ;     C1 - C3     - C5    
     1      3     13      1    1.1988e+02    3.7572e+02 ;     C1 - C3     - H3    
     2      1      3      1    1.2002e+02    5.3279e+02 ;     C2 - C1     - C3    
     2      1     11      1    1.1988e+02    3.7572e+02 ;     C2 - C1     - H1    
     2      4      6      1    1.2002e+02    5.3279e+02 ;     C2 - C4     - C6    
     2      4     14      1    1.1988e+02    3.7572e+02 ;     C2 - C4     - H4    
     3      1     11      1    1.1988e+02    3.7572e+02 ;     C3 - C1     - H1    
     3      5      6      1    1.2002e+02    5.3279e+02 ;     C3 - C5     - C6    
     3      5     15      1    1.1988e+02    3.7572e+02 ;     C3 - C5     - H5    
     4      2     12      1    1.1988e+02    3.7572e+02 ;     C4 - C2     - H2    
     4      6      5      1    1.2002e+02    5.3279e+02 ;     C4 - C6     - C5    
     4      6      9      1    1.2083e+02    5.0827e+02 ;     C4 - C6     - C9    
     5      3     13      1    1.1988e+02    3.7572e+02 ;     C5 - C3     - H3    
     5      6      9      1    1.2083e+02    5.0827e+02 ;     C5 - C6     - C9    
     6      4     14      1    1.1988e+02    3.7572e+02 ;     C6 - C4     - H4    
     6      5     15      1    1.1988e+02    3.7572e+02 ;     C6 - C5     - H5    
     6      9     10      1    1.1242e+02    5.0484e+02 ;     C6 - C9     - C10   
     6      9     22      1    1.1063e+02    3.6493e+02 ;     C6 - C9     - H12   
     6      9     23      1    1.1063e+02    3.6493e+02 ;     C6 - C9     - H13   
     7     10      8      1    1.1263e+02    5.0099e+02 ;     C7 - C10    - C8    
     7     10      9      1    1.1263e+02    5.0099e+02 ;     C7 - C10    - C9    
     7     10     24      1    1.0968e+02    3.6208e+02 ;     C7 - C10    - H14   
     8     10      9      1    1.1263e+02    5.0099e+02 ;     C8 - C10    - C9    
     8     10     24      1    1.0968e+02    3.6208e+02 ;     C8 - C10    - H14   
     9     10     24      1    1.0968e+02    3.6208e+02 ;     C9 - C10    - H14   
    10      7     16      1    1.0968e+02    3.6208e+02 ;    C10 - C7     - H6    
    10      7     17      1    1.0968e+02    3.6208e+02 ;    C10 - C7     - H7    
    10      7     18      1    1.0968e+02    3.6208e+02 ;    C10 - C7     - H8    
    10      8     19      1    1.0968e+02    3.6208e+02 ;    C10 - C8     - H9    
    10      8     20      1    1.0968e+02    3.6208e+02 ;    C10 - C8     - H10   
    10      8     21      1    1.0968e+02    3.6208e+02 ;    C10 - C8     - H11   
    10      9     22      1    1.0968e+02    3.6208e+02 ;    C10 - C9     - H12   
    10      9     23      1    1.0968e+02    3.6208e+02 ;    C10 - C9     - H13   
    16      7     17      1    1.0773e+02    2.9957e+02 ;     H6 - C7     - H7    
    16      7     18      1    1.0773e+02    2.9957e+02 ;     H6 - C7     - H8    
    17      7     18      1    1.0773e+02    2.9957e+02 ;     H7 - C7     - H8    
    19      8     20      1    1.0773e+02    2.9957e+02 ;     H9 - C8     - H10   
    19      8     21      1    1.0773e+02    2.9957e+02 ;     H9 - C8     - H11   
    20      8     21      1    1.0773e+02    2.9957e+02 ;    H10 - C8     - H11   
    22      9     23      1    1.0773e+02    2.9957e+02 ;    H12 - C9     - H13   

[ dihedrals ] ; propers
; for gromacs 4.5 or higher, using funct 9
;    i      j      k      l   func   phase     kd      pn
     1      2      4      6      9   180.00  15.16700   2 ;     C1-    C2-    C4-    C6
     1      2      4     14      9   180.00  15.16700   2 ;     C1-    C2-    C4-    H4
     1      3      5      6      9   180.00  15.16700   2 ;     C1-    C3-    C5-    C6
     1      3      5     15      9   180.00  15.16700   2 ;     C1-    C3-    C5-    H5
     2      1      3      5      9   180.00  15.16700   2 ;     C2-    C1-    C3-    C5
     2      1      3     13      9   180.00  15.16700   2 ;     C2-    C1-    C3-    H3
     2      4      6      5      9   180.00  15.16700   2 ;     C2-    C4-    C6-    C5
     2      4      6      9      9   180.00  15.16700   2 ;     C2-    C4-    C6-    C9
     3      1      2      4      9   180.00  15.16700   2 ;     C3-    C1-    C2-    C4
     3      1      2     12      9   180.00  15.16700   2 ;     C3-    C1-    C2-    H2
     3      5      6      4      9   180.00  15.16700   2 ;     C3-    C5-    C6-    C4
     3      5      6      9      9   180.00  15.16700   2 ;     C3-    C5-    C6-    C9
     4      6      5     15      9   180.00  15.16700   2 ;     C4-    C6-    C5-    H5
     4      6      9     10      9   180.00   1.00416   2 ;     C4-    C6-    C9-   C10
     4      6      9     22      9     0.00   0.00000   0 ;     C4-    C6-    C9-   H12
     4      6      9     23      9     0.00   0.00000   0 ;     C4-    C6-    C9-   H13
     5      6      4     14      9   180.00  15.16700   2 ;     C5-    C6-    C4-    H4
     5      6      9     10      9   180.00   1.00416   2 ;     C5-    C6-    C9-   C10
     5      6      9     22      9     0.00   0.00000   0 ;     C5-    C6-    C9-   H12
     5      6      9     23      9     0.00   0.00000   0 ;     C5-    C6-    C9-   H13
     6      4      2     12      9   180.00  15.16700   2 ;     C6-    C4-    C2-    H2
     6      5      3     13      9   180.00  15.16700   2 ;     C6-    C5-    C3-    H3
     6      9     10      7      9     0.00   0.65084   3 ;     C6-    C9-   C10-    C7
     6      9     10      8      9     0.00   0.65084   3 ;     C6-    C9-   C10-    C8
     6      9     10     24      9     0.00   0.65084   3 ;     C6-    C9-   C10-   H14
     7     10      8     19      9     0.00   0.54392   3 ;     C7-   C10-    C8-    H9
     7     10      8     20      9     0.00   0.54392   3 ;     C7-   C10-    C8-   H10
     7     10      8     21      9     0.00   0.54392   3 ;     C7-   C10-    C8-   H11
     7     10      9     22      9     0.00   0.54392   3 ;     C7-   C10-    C9-   H12
     7     10      9     23      9     0.00   0.54392   3 ;     C7-   C10-    C9-   H13
     8     10      7     16      9     0.00   0.54392   3 ;     C8-   C10-    C7-    H6
     8     10      7     17      9     0.00   0.54392   3 ;     C8-   C10-    C7-    H7
     8     10      7     18      9     0.00   0.54392   3 ;     C8-   C10-    C7-    H8
     8     10      9     22      9     0.00   0.54392   3 ;     C8-   C10-    C9-   H12
     8     10      9     23      9     0.00   0.54392   3 ;     C8-   C10-    C9-   H13
     9      6      4     14      9   180.00  15.16700   2 ;     C9-    C6-    C4-    H4
     9      6      5     15      9   180.00  15.16700   2 ;     C9-    C6-    C5-    H5
     9     10      7     16      9     0.00   0.54392   3 ;     C9-   C10-    C7-    H6
     9     10      7     17      9     0.00   0.54392   3 ;     C9-   C10-    C7-    H7
     9     10      7     18      9     0.00   0.54392   3 ;     C9-   C10-    C7-    H8
     9     10      8     19      9     0.00   0.54392   3 ;     C9-   C10-    C8-    H9
     9     10      8     20      9     0.00   0.54392   3 ;     C9-   C10-    C8-   H10
     9     10      8     21      9     0.00   0.54392   3 ;     C9-   C10-    C8-   H11
    11      1      2      4      9   180.00  15.16700   2 ;     H1-    C1-    C2-    C4
    11      1      2     12      9   180.00  15.16700   2 ;     H1-    C1-    C2-    H2
    11      1      3      5      9   180.00  15.16700   2 ;     H1-    C1-    C3-    C5
    11      1      3     13      9   180.00  15.16700   2 ;     H1-    C1-    C3-    H3
    12      2      4     14      9   180.00  15.16700   2 ;     H2-    C2-    C4-    H4
    13      3      5     15      9   180.00  15.16700   2 ;     H3-    C3-    C5-    H5
    16      7     10     24      9     0.00   0.50208   3 ;     H6-    C7-   C10-   H14
    17      7     10     24      9     0.00   0.50208   3 ;     H7-    C7-   C10-   H14
    18      7     10     24      9     0.00   0.50208   3 ;     H8-    C7-   C10-   H14
    19      8     10     24      9     0.00   0.50208   3 ;     H9-    C8-   C10-   H14
    20      8     10     24      9     0.00   0.50208   3 ;    H10-    C8-   C10-   H14
    21      8     10     24      9     0.00   0.50208   3 ;    H11-    C8-   C10-   H14
    22      9     10     24      9     0.00   0.50208   3 ;    H12-    C9-   C10-   H14
    23      9     10     24      9     0.00   0.50208   3 ;    H13-    C9-   C10-   H14

[ dihedrals ] ; impropers
; treated as propers in GROMACS to use correct AMBER analytical function
;    i      j      k      l   func   phase     kd      pn
     1      4      2     12      4   180.00   4.60240   2 ;     C1-    C4-    C2-    H2
     1      5      3     13      4   180.00   4.60240   2 ;     C1-    C5-    C3-    H3
     2      6      4     14      4   180.00   4.60240   2 ;     C2-    C6-    C4-    H4
     3      6      5     15      4   180.00   4.60240   2 ;     C3-    C6-    C5-    H5
     4      5      6      9      4   180.00   4.60240   2 ;     C4-    C5-    C6-    C9
    11      1      3      2      4   180.00   4.60240   2 ;     H1-    C1-    C3-    C2
