; mobley_2763835_GMX.itp created by acpype (v: 2023.10.27) on Wed May 20 23:42:50 2026

[ atomtypes ]
;name   bond_type     mass     charge   ptype   sigma         epsilon       Amb
 ca       ca          0.00000  0.00000   A     3.31521e-01   4.13379e-01 ; 1.86  0.0988
 c3       c3          0.00000  0.00000   A     3.39771e-01   4.51035e-01 ; 1.91  0.1078
 os       os          0.00000  0.00000   A     3.15610e-01   3.03758e-01 ; 1.77  0.0726
 ha       ha          0.00000  0.00000   A     2.62548e-01   6.73624e-02 ; 1.47  0.0161
 hc       hc          0.00000  0.00000   A     2.60018e-01   8.70272e-02 ; 1.46  0.0208
 h1       h1          0.00000  0.00000   A     2.42200e-01   8.70272e-02 ; 1.36  0.0208

[ moleculetype ]
;name            nrexcl
 mobley_2763835   3

[ atoms ]
;   nr  type  resi  res  atom  cgnr     charge      mass       ; qtot   bond_type
     1   ca     1   MOL    C1    1    -0.166000     12.01000 ; qtot -0.166
     2   ca     1   MOL    C2    2    -0.097000     12.01000 ; qtot -0.263
     3   ca     1   MOL    C3    3    -0.097000     12.01000 ; qtot -0.360
     4   ca     1   MOL    C4    4    -0.182000     12.01000 ; qtot -0.542
     5   ca     1   MOL    C5    5    -0.182000     12.01000 ; qtot -0.724
     6   ca     1   MOL    C6    6     0.128100     12.01000 ; qtot -0.596
     7   c3     1   MOL    C7    7    -0.100100     12.01000 ; qtot -0.696
     8   c3     1   MOL    C8    8     0.128400     12.01000 ; qtot -0.568
     9   os     1   MOL    O1    9    -0.331900     16.00000 ; qtot -0.899
    10   ha     1   MOL    H1   10     0.132000      1.00800 ; qtot -0.767
    11   ha     1   MOL    H2   11     0.131500      1.00800 ; qtot -0.636
    12   ha     1   MOL    H3   12     0.131500      1.00800 ; qtot -0.504
    13   ha     1   MOL    H4   13     0.141500      1.00800 ; qtot -0.363
    14   ha     1   MOL    H5   14     0.141500      1.00800 ; qtot -0.221
    15   hc     1   MOL    H6   15     0.048700      1.00800 ; qtot -0.173
    16   hc     1   MOL    H7   16     0.048700      1.00800 ; qtot -0.124
    17   hc     1   MOL    H8   17     0.048700      1.00800 ; qtot -0.075
    18   h1     1   MOL    H9   18     0.037700      1.00800 ; qtot -0.038
    19   h1     1   MOL   H10   19     0.037700      1.00800 ; qtot 0.000

[ bonds ]
;   ai     aj funct   r             k
     1      2   1    1.3986e-01    2.9644e+05 ;     C1 - C2    
     1      3   1    1.3986e-01    2.9644e+05 ;     C1 - C3    
     1     10   1    1.0860e-01    3.0183e+05 ;     C1 - H1    
     2      4   1    1.3986e-01    2.9644e+05 ;     C2 - C4    
     2     11   1    1.0860e-01    3.0183e+05 ;     C2 - H2    
     3      5   1    1.3986e-01    2.9644e+05 ;     C3 - C5    
     3     12   1    1.0860e-01    3.0183e+05 ;     C3 - H3    
     4      6   1    1.3986e-01    2.9644e+05 ;     C4 - C6    
     4     13   1    1.0860e-01    3.0183e+05 ;     C4 - H4    
     5      6   1    1.3986e-01    2.9644e+05 ;     C5 - C6    
     5     14   1    1.0860e-01    3.0183e+05 ;     C5 - H5    
     6      9   1    1.3688e-01    2.8731e+05 ;     C6 - O1    
     7      8   1    1.5354e-01    1.9154e+05 ;     C7 - C8    
     7     15   1    1.0962e-01    2.8891e+05 ;     C7 - H6    
     7     16   1    1.0962e-01    2.8891e+05 ;     C7 - H7    
     7     17   1    1.0962e-01    2.8891e+05 ;     C7 - H8    
     8      9   1    1.4273e-01    2.3620e+05 ;     C8 - O1    
     8     18   1    1.0969e-01    2.8804e+05 ;     C8 - H9    
     8     19   1    1.0969e-01    2.8804e+05 ;     C8 - H10   

[ pairs ]
;   ai     aj    funct
     1      6      1 ;     C1 - C6    
     1     13      1 ;     C1 - H4    
     1     14      1 ;     C1 - H5    
     2      5      1 ;     C2 - C5    
     2      9      1 ;     C2 - O1    
     2     12      1 ;     C2 - H3    
     3      4      1 ;     C3 - C4    
     3      9      1 ;     C3 - O1    
     3     11      1 ;     C3 - H2    
     4      8      1 ;     C4 - C8    
     4     14      1 ;     C4 - H5    
     5      8      1 ;     C5 - C8    
     5     13      1 ;     C5 - H4    
     6      7      1 ;     C6 - C7    
     6     11      1 ;     C6 - H2    
     6     12      1 ;     C6 - H3    
     6     18      1 ;     C6 - H9    
     6     19      1 ;     C6 - H10   
     9     13      1 ;     O1 - H4    
     9     14      1 ;     O1 - H5    
     9     15      1 ;     O1 - H6    
     9     16      1 ;     O1 - H7    
     9     17      1 ;     O1 - H8    
    10      4      1 ;     H1 - C4    
    10      5      1 ;     H1 - C5    
    10     11      1 ;     H1 - H2    
    10     12      1 ;     H1 - H3    
    11     13      1 ;     H2 - H4    
    12     14      1 ;     H3 - H5    
    15     18      1 ;     H6 - H9    
    15     19      1 ;     H6 - H10   
    16     18      1 ;     H7 - H9    
    16     19      1 ;     H7 - H10   
    17     18      1 ;     H8 - H9    
    17     19      1 ;     H8 - H10   

[ angles ]
;   ai     aj     ak    funct   theta         cth
     1      2      4      1    1.2002e+02    5.3279e+02 ;     C1 - C2     - C4    
     1      2     11      1    1.1988e+02    3.7572e+02 ;     C1 - C2     - H2    
     1      3      5      1    1.2002e+02    5.3279e+02 ;     C1 - C3     - C5    
     1      3     12      1    1.1988e+02    3.7572e+02 ;     C1 - C3     - H3    
     2      1      3      1    1.2002e+02    5.3279e+02 ;     C2 - C1     - C3    
     2      1     10      1    1.1988e+02    3.7572e+02 ;     C2 - C1     - H1    
     2      4      6      1    1.2002e+02    5.3279e+02 ;     C2 - C4     - C6    
     2      4     13      1    1.1988e+02    3.7572e+02 ;     C2 - C4     - H4    
     3      1     10      1    1.1988e+02    3.7572e+02 ;     C3 - C1     - H1    
     3      5      6      1    1.2002e+02    5.3279e+02 ;     C3 - C5     - C6    
     3      5     14      1    1.1988e+02    3.7572e+02 ;     C3 - C5     - H5    
     4      2     11      1    1.1988e+02    3.7572e+02 ;     C4 - C2     - H2    
     4      6      5      1    1.2002e+02    5.3279e+02 ;     C4 - C6     - C5    
     4      6      9      1    1.1911e+02    6.6107e+02 ;     C4 - C6     - O1    
     5      3     12      1    1.1988e+02    3.7572e+02 ;     C5 - C3     - H3    
     5      6      9      1    1.1911e+02    6.6107e+02 ;     C5 - C6     - O1    
     6      4     13      1    1.1988e+02    3.7572e+02 ;     C6 - C4     - H4    
     6      5     14      1    1.1988e+02    3.7572e+02 ;     C6 - C5     - H5    
     6      9      8      1    1.1839e+02    7.3856e+02 ;     C6 - O1     - C8    
     7      8      9      1    1.0762e+02    6.4802e+02 ;     C7 - C8     - O1    
     7      8     18      1    1.0959e+02    3.6217e+02 ;     C7 - C8     - H9    
     7      8     19      1    1.0959e+02    3.6217e+02 ;     C7 - C8     - H10   
     8      7     15      1    1.0968e+02    3.6208e+02 ;     C8 - C7     - H6    
     8      7     16      1    1.0968e+02    3.6208e+02 ;     C8 - C7     - H7    
     8      7     17      1    1.0968e+02    3.6208e+02 ;     C8 - C7     - H8    
     9      8     18      1    1.1034e+02    4.7028e+02 ;     O1 - C8     - H9    
     9      8     19      1    1.1034e+02    4.7028e+02 ;     O1 - C8     - H10   
    15      7     16      1    1.0773e+02    2.9957e+02 ;     H6 - C7     - H7    
    15      7     17      1    1.0773e+02    2.9957e+02 ;     H6 - C7     - H8    
    16      7     17      1    1.0773e+02    2.9957e+02 ;     H7 - C7     - H8    
    18      8     19      1    1.0855e+02    2.9824e+02 ;     H9 - C8     - H10   

[ dihedrals ] ; propers
; for gromacs 4.5 or higher, using funct 9
;    i      j      k      l   func   phase     kd      pn
     1      2      4      6      9   180.00  15.16700   2 ;     C1-    C2-    C4-    C6
     1      2      4     13      9   180.00  15.16700   2 ;     C1-    C2-    C4-    H4
     1      3      5      6      9   180.00  15.16700   2 ;     C1-    C3-    C5-    C6
     1      3      5     14      9   180.00  15.16700   2 ;     C1-    C3-    C5-    H5
     2      1      3      5      9   180.00  15.16700   2 ;     C2-    C1-    C3-    C5
     2      1      3     12      9   180.00  15.16700   2 ;     C2-    C1-    C3-    H3
     2      4      6      5      9   180.00  15.16700   2 ;     C2-    C4-    C6-    C5
     2      4      6      9      9   180.00  15.16700   2 ;     C2-    C4-    C6-    O1
     3      1      2      4      9   180.00  15.16700   2 ;     C3-    C1-    C2-    C4
     3      1      2     11      9   180.00  15.16700   2 ;     C3-    C1-    C2-    H2
     3      5      6      4      9   180.00  15.16700   2 ;     C3-    C5-    C6-    C4
     3      5      6      9      9   180.00  15.16700   2 ;     C3-    C5-    C6-    O1
     4      6      5     14      9   180.00  15.16700   2 ;     C4-    C6-    C5-    H5
     4      6      9      8      9   180.00   6.94544   2 ;     C4-    C6-    O1-    C8
     5      6      4     13      9   180.00  15.16700   2 ;     C5-    C6-    C4-    H4
     5      6      9      8      9   180.00   6.94544   2 ;     C5-    C6-    O1-    C8
     6      4      2     11      9   180.00  15.16700   2 ;     C6-    C4-    C2-    H2
     6      5      3     12      9   180.00  15.16700   2 ;     C6-    C5-    C3-    H3
     6      9      8      7      9     0.00   1.60387   3 ;     C6-    O1-    C8-    C7
     6      9      8     18      9     0.00   1.60387   3 ;     C6-    O1-    C8-    H9
     6      9      8     19      9     0.00   1.60387   3 ;     C6-    O1-    C8-   H10
     9      6      4     13      9   180.00  15.16700   2 ;     O1-    C6-    C4-    H4
     9      6      5     14      9   180.00  15.16700   2 ;     O1-    C6-    C5-    H5
     9      8      7     15      9     0.00   0.00000   0 ;     O1-    C8-    C7-    H6
     9      8      7     15      9     0.00   1.04600   1 ;     O1-    C8-    C7-    H6
     9      8      7     16      9     0.00   0.00000   0 ;     O1-    C8-    C7-    H7
     9      8      7     16      9     0.00   1.04600   1 ;     O1-    C8-    C7-    H7
     9      8      7     17      9     0.00   0.00000   0 ;     O1-    C8-    C7-    H8
     9      8      7     17      9     0.00   1.04600   1 ;     O1-    C8-    C7-    H8
    10      1      2      4      9   180.00  15.16700   2 ;     H1-    C1-    C2-    C4
    10      1      2     11      9   180.00  15.16700   2 ;     H1-    C1-    C2-    H2
    10      1      3      5      9   180.00  15.16700   2 ;     H1-    C1-    C3-    C5
    10      1      3     12      9   180.00  15.16700   2 ;     H1-    C1-    C3-    H3
    11      2      4     13      9   180.00  15.16700   2 ;     H2-    C2-    C4-    H4
    12      3      5     14      9   180.00  15.16700   2 ;     H3-    C3-    C5-    H5
    15      7      8     18      9     0.00   0.65084   3 ;     H6-    C7-    C8-    H9
    15      7      8     19      9     0.00   0.65084   3 ;     H6-    C7-    C8-   H10
    16      7      8     18      9     0.00   0.65084   3 ;     H7-    C7-    C8-    H9
    16      7      8     19      9     0.00   0.65084   3 ;     H7-    C7-    C8-   H10
    17      7      8     18      9     0.00   0.65084   3 ;     H8-    C7-    C8-    H9
    17      7      8     19      9     0.00   0.65084   3 ;     H8-    C7-    C8-   H10

[ dihedrals ] ; impropers
; treated as propers in GROMACS to use correct AMBER analytical function
;    i      j      k      l   func   phase     kd      pn
     1      4      2     11      4   180.00   4.60240   2 ;     C1-    C4-    C2-    H2
     1      5      3     12      4   180.00   4.60240   2 ;     C1-    C5-    C3-    H3
     2      6      4     13      4   180.00   4.60240   2 ;     C2-    C6-    C4-    H4
     3      6      5     14      4   180.00   4.60240   2 ;     C3-    C6-    C5-    H5
     4      5      6      9      4   180.00   4.60240   2 ;     C4-    C5-    C6-    O1
    10      1      3      2      4   180.00   4.60240   2 ;     H1-    C1-    C3-    C2
