mobley_6081058_GMX.gro created by acpype (v: 2023.10.27) on Tue May 19 12:54:10 2026
 2405
    1MOL     C1    1   2.724   2.719   2.697
    1MOL     C2    2   2.693   2.592   2.668
    1MOL     C3    3   2.865   2.755   2.723
    1MOL     C4    4   2.233   2.349   2.299
    1MOL     C5    5   2.553   2.546   2.641
    1MOL     C6    6   2.375   2.392   2.329
    1MOL     C7    7   2.533   2.490   2.500
    1MOL     C8    8   2.388   2.450   2.470
    1MOL     O1    9   2.898   2.870   2.750
    1MOL     H1   10   2.649   2.798   2.702
    1MOL     H2   11   2.771   2.517   2.665
    1MOL     H3   12   2.938   2.673   2.717
    1MOL     H4   13   2.200   2.271   2.369
    1MOL     H5   14   2.226   2.308   2.198
    1MOL     H6   15   2.164   2.433   2.307
    1MOL     H7   16   2.527   2.469   2.715
    1MOL     H8   17   2.482   2.628   2.656
    1MOL     H9   18   2.406   2.467   2.255
    1MOL    H10   19   2.442   2.306   2.317
    1MOL    H11   20   2.600   2.404   2.484
    1MOL    H12   21   2.564   2.568   2.428
    1MOL    H13   22   2.323   2.537   2.480
    1MOL    H14   23   2.355   2.374   2.542
   35SOL     OW   24   1.187   1.792   1.616
   35SOL    HW1   25   1.211   1.852   1.540
   35SOL    HW2   26   1.194   1.697   1.586
   95SOL     OW   27   1.754   1.223   1.588
   95SOL    HW1   28   1.845   1.184   1.575
   95SOL    HW2   29   1.762   1.319   1.612
   97SOL     OW   30   1.592   1.629   1.625
   97SOL    HW1   31   1.619   1.663   1.535
   97SOL    HW2   32   1.671   1.591   1.671
  127SOL     OW   33   1.859   1.518   1.605
  127SOL    HW1   34   1.873   1.545   1.510
  127SOL    HW2   35   1.942   1.540   1.658
  152SOL     OW   36   1.759   1.747   1.154
  152SOL    HW1   37   1.820   1.777   1.081
  152SOL    HW2   38   1.721   1.658   1.132
  163SOL     OW   39   1.650   1.720   1.394
  163SOL    HW1   40   1.703   1.730   1.310
  163SOL    HW2   41   1.623   1.810   1.428
  219SOL     OW   42   1.555   1.511   2.565
  219SOL    HW1   43   1.498   1.495   2.646
  219SOL    HW2   44   1.496   1.521   2.485
  227SOL     OW   45   1.460   1.505   3.201
  227SOL    HW1   46   1.484   1.599   3.227
  227SOL    HW2   47   1.444   1.451   3.283
  238SOL     OW   48   1.842   1.767   2.221
  238SOL    HW1   49   1.896   1.738   2.301
  238SOL    HW2   50   1.872   1.857   2.192
  240SOL     OW   51   1.689   0.922   2.474
  240SOL    HW1   52   1.784   0.893   2.482
  240SOL    HW2   53   1.681   0.987   2.399
  241SOL     OW   54   1.641   1.108   2.294
  241SOL    HW1   55   1.727   1.110   2.242
  241SOL    HW2   56   1.655   1.155   2.382
  248SOL     OW   57   1.187   1.792   3.478
  248SOL    HW1   58   1.211   1.852   3.402
  248SOL    HW2   59   1.194   1.697   3.448
  250SOL     OW   60   1.466   1.417   2.815
  250SOL    HW1   61   1.407   1.423   2.895
  250SOL    HW2   62   1.451   1.329   2.769
  251SOL     OW   63   1.667   1.714   2.434
  251SOL    HW1   64   1.626   1.691   2.346
  251SOL    HW2   65   1.649   1.640   2.499
  254SOL     OW   66   1.576   1.662   2.169
  254SOL    HW1   67   1.665   1.708   2.172
  254SOL    HW2   68   1.555   1.638   2.074
  264SOL     OW   69   1.362   1.144   2.407
  264SOL    HW1   70   1.445   1.115   2.359
  264SOL    HW2   71   1.313   1.211   2.351
  268SOL     OW   72   1.795   1.066   2.735
  268SOL    HW1   73   1.733   1.051   2.659
  268SOL    HW2   74   1.743   1.077   2.820
  273SOL     OW   75   1.111   1.776   2.099
  273SOL    HW1   76   1.051   1.714   2.149
  273SOL    HW2   77   1.142   1.732   2.014
  275SOL     OW   78   1.632   1.377   1.943
  275SOL    HW1   79   1.600   1.471   1.933
  275SOL    HW2   80   1.556   1.314   1.931
  279SOL     OW   81   0.940   1.698   2.766
  279SOL    HW1   82   1.020   1.641   2.787
  279SOL    HW2   83   0.891   1.658   2.689
  293SOL     OW   84   1.227   1.570   2.655
  293SOL    HW1   85   1.248   1.644   2.590
  293SOL    HW2   86   1.295   1.570   2.728
  295SOL     OW   87   1.271   1.797   2.453
  295SOL    HW1   88   1.315   1.861   2.389
  295SOL    HW2   89   1.221   1.849   2.523
  301SOL     OW   90   1.429   1.173   2.729
  301SOL    HW1   91   1.374   1.089   2.722
  301SOL    HW2   92   1.455   1.202   2.637
  305SOL     OW   93   1.664   1.280   2.519
  305SOL    HW1   94   1.763   1.288   2.533
  305SOL    HW2   95   1.619   1.364   2.550
  308SOL     OW   96   1.754   1.223   3.450
  308SOL    HW1   97   1.845   1.184   3.437
  308SOL    HW2   98   1.762   1.319   3.474
  310SOL     OW   99   1.592   1.629   3.487
  310SOL    HW1  100   1.619   1.663   3.397
  310SOL    HW2  101   1.671   1.591   3.533
  312SOL     OW  102   1.638   1.099   2.941
  312SOL    HW1  103   1.643   1.180   3.000
  312SOL    HW2  104   1.552   1.101   2.890
  321SOL     OW  105   1.252   1.348   2.250
  321SOL    HW1  106   1.302   1.425   2.290
  321SOL    HW2  107   1.157   1.350   2.282
  322SOL     OW  108   1.272   1.445   3.004
  322SOL    HW1  109   1.319   1.458   3.091
  322SOL    HW2  110   1.206   1.371   3.013
  340SOL     OW  111   1.859   1.518   3.467
  340SOL    HW1  112   1.873   1.545   3.372
  340SOL    HW2  113   1.942   1.540   3.520
  365SOL     OW  114   1.759   1.747   3.016
  365SOL    HW1  115   1.820   1.777   2.943
  365SOL    HW2  116   1.721   1.658   2.994
  366SOL     OW  117   1.252   1.731   2.990
  366SOL    HW1  118   1.336   1.736   2.936
  366SOL    HW2  119   1.229   1.635   3.008
  370SOL     OW  120   1.388   1.573   2.339
  370SOL    HW1  121   1.455   1.585   2.265
  370SOL    HW2  122   1.348   1.662   2.362
  375SOL     OW  123   1.650   1.720   3.256
  375SOL    HW1  124   1.703   1.730   3.172
  375SOL    HW2  125   1.623   1.810   3.290
  378SOL     OW  126   1.194   1.612   1.893
  378SOL    HW1  127   1.200   1.519   1.930
  378SOL    HW2  128   1.135   1.612   1.813
  381SOL     OW  129   1.504   1.607   1.906
  381SOL    HW1  130   1.412   1.644   1.913
  381SOL    HW2  131   1.542   1.627   1.816
  383SOL     OW  132   1.614   1.292   3.151
  383SOL    HW1  133   1.674   1.295   3.231
  383SOL    HW2  134   1.539   1.356   3.164
  396SOL     OW  135   1.493   1.767   2.821
  396SOL    HW1  136   1.526   1.831   2.752
  396SOL    HW2  137   1.559   1.761   2.896
  409SOL     OW  138   1.861   1.569   2.713
  409SOL    HW1  139   1.790   1.557   2.643
  409SOL    HW2  140   1.862   1.490   2.773
  415SOL     OW  141   1.705   1.487   2.966
  415SOL    HW1  142   1.612   1.462   2.939
  415SOL    HW2  143   1.731   1.437   3.048
  590SOL     OW  144   1.460   3.367   1.339
  590SOL    HW1  145   1.484   3.461   1.365
  590SOL    HW2  146   1.444   3.313   1.421
  594SOL     OW  147   1.127   3.203   1.690
  594SOL    HW1  148   1.174   3.203   1.778
  594SOL    HW2  149   1.079   3.116   1.679
  599SOL     OW  150   1.594   1.976   1.480
  599SOL    HW1  151   1.576   2.043   1.408
  599SOL    HW2  152   1.591   2.022   1.569
  607SOL     OW  153   1.293   3.090   1.423
  607SOL    HW1  154   1.330   3.017   1.365
  607SOL    HW2  155   1.345   3.095   1.508
  619SOL     OW  156   1.394   2.331   1.674
  619SOL    HW1  157   1.374   2.374   1.762
  619SOL    HW2  158   1.472   2.269   1.683
  626SOL     OW  159   1.719   2.447   1.831
  626SOL    HW1  160   1.693   2.536   1.795
  626SOL    HW2  161   1.717   2.379   1.758
  644SOL     OW  162   1.547   2.084   1.729
  644SOL    HW1  163   1.542   2.121   1.821
  644SOL    HW2  164   1.475   2.015   1.717
  648SOL     OW  165   1.351   2.452   1.433
  648SOL    HW1  166   1.379   2.409   1.518
  648SOL    HW2  167   1.376   2.548   1.434
  655SOL     OW  168   1.076   2.545   1.464
  655SOL    HW1  169   0.996   2.484   1.467
  655SOL    HW2  170   1.157   2.492   1.440
  671SOL     OW  171   1.754   3.085   1.588
  671SOL    HW1  172   1.845   3.046   1.575
  671SOL    HW2  173   1.762   3.181   1.612
  673SOL     OW  174   1.592   3.491   1.625
  673SOL    HW1  175   1.619   3.525   1.535
  673SOL    HW2  176   1.671   3.453   1.671
  675SOL     OW  177   1.638   2.961   1.079
  675SOL    HW1  178   1.643   3.042   1.138
  675SOL    HW2  179   1.552   2.963   1.028
  677SOL     OW  180   0.980   2.978   1.719
  677SOL    HW1  181   0.881   2.984   1.729
  677SOL    HW2  182   1.003   2.898   1.663
  680SOL     OW  183   1.274   2.248   1.262
  680SOL    HW1  184   1.295   2.322   1.326
  680SOL    HW2  185   1.185   2.265   1.219
  689SOL     OW  186   1.587   2.641   1.670
  689SOL    HW1  187   1.495   2.679   1.665
  689SOL    HW2  188   1.647   2.688   1.605
  690SOL     OW  189   1.013   1.967   1.770
  690SOL    HW1  190   1.019   2.052   1.718
  690SOL    HW2  191   1.045   1.891   1.713
  698SOL     OW  192   1.728   2.797   1.854
  698SOL    HW1  193   1.682   2.790   1.765
  698SOL    HW2  194   1.666   2.841   1.920
  703SOL     OW  195   1.859   3.380   1.605
  703SOL    HW1  196   1.873   3.407   1.510
  703SOL    HW2  197   1.942   3.402   1.658
  710SOL     OW  198   1.138   2.242   1.678
  710SOL    HW1  199   1.093   2.305   1.742
  710SOL    HW2  200   1.231   2.273   1.661
  711SOL     OW  201   1.160   2.069   1.477
  711SOL    HW1  202   1.160   2.133   1.554
  711SOL    HW2  203   1.188   2.117   1.394
  718SOL     OW  204   1.369   2.812   1.660
  718SOL    HW1  205   1.408   2.901   1.680
  718SOL    HW2  206   1.379   2.792   1.563
  720SOL     OW  207   1.657   2.466   1.206
  720SOL    HW1  208   1.619   2.397   1.268
  720SOL    HW2  209   1.739   2.430   1.162
  726SOL     OW  210   1.347   2.921   1.234
  726SOL    HW1  211   1.371   2.858   1.160
  726SOL    HW2  212   1.257   2.961   1.216
  739SOL     OW  213   1.650   3.582   1.394
  739SOL    HW1  214   1.703   3.592   1.310
  739SOL    HW2  215   1.623   3.672   1.428
  740SOL     OW  216   1.841   2.037   0.963
  740SOL    HW1  217   1.880   1.952   0.927
  740SOL    HW2  218   1.743   2.039   0.944
  747SOL     OW  219   1.614   3.154   1.289
  747SOL    HW1  220   1.674   3.157   1.369
  747SOL    HW2  221   1.539   3.218   1.302
  751SOL     OW  222   1.709   2.247   1.381
  751SOL    HW1  223   1.782   2.316   1.385
  751SOL    HW2  224   1.737   2.172   1.322
  756SOL     OW  225   1.440   2.718   1.398
  756SOL    HW1  226   1.383   2.770   1.335
  756SOL    HW2  227   1.536   2.730   1.374
  762SOL     OW  228   1.450   3.082   1.633
  762SOL    HW1  229   1.441   3.072   1.732
  762SOL    HW2  230   1.546   3.075   1.607
  764SOL     OW  231   1.674   2.745   1.254
  764SOL    HW1  232   1.647   2.656   1.217
  764SOL    HW2  233   1.675   2.813   1.181
  767SOL     OW  234   1.777   2.204   1.642
  767SOL    HW1  235   1.760   2.235   1.548
  767SOL    HW2  236   1.693   2.167   1.680
  768SOL     OW  237   1.730   2.796   1.517
  768SOL    HW1  238   1.768   2.887   1.532
  768SOL    HW2  239   1.722   2.779   1.418
  777SOL     OW  240   1.824   2.054   1.227
  777SOL    HW1  241   1.820   1.964   1.271
  777SOL    HW2  242   1.827   2.043   1.128
  795SOL     OW  243   1.555   3.373   2.565
  795SOL    HW1  244   1.498   3.357   2.646
  795SOL    HW2  245   1.496   3.383   2.485
  796SOL     OW  246   1.135   2.565   2.579
  796SOL    HW1  247   1.192   2.643   2.554
  796SOL    HW2  248   1.075   2.591   2.655
  797SOL     OW  249   1.755   2.469   2.093
  797SOL    HW1  250   1.743   2.456   1.994
  797SOL    HW2  251   1.725   2.388   2.142
  803SOL     OW  252   1.460   3.367   3.201
  803SOL    HW1  253   1.484   3.461   3.227
  803SOL    HW2  254   1.444   3.313   3.283
  805SOL     OW  255   1.603   2.309   2.599
  805SOL    HW1  256   1.529   2.355   2.549
  805SOL    HW2  257   1.654   2.377   2.652
  812SOL     OW  258   1.594   1.976   3.342
  812SOL    HW1  259   1.576   2.043   3.270
  812SOL    HW2  260   1.591   2.022   3.431
  814SOL     OW  261   1.842   3.629   2.221
  814SOL    HW1  262   1.896   3.600   2.301
  814SOL    HW2  263   1.872   3.719   2.192
  816SOL     OW  264   1.689   2.784   2.474
  816SOL    HW1  265   1.784   2.755   2.482
  816SOL    HW2  266   1.681   2.849   2.399
  817SOL     OW  267   1.641   2.970   2.294
  817SOL    HW1  268   1.727   2.972   2.242
  817SOL    HW2  269   1.655   3.017   2.382
  820SOL     OW  270   1.293   3.090   3.285
  820SOL    HW1  271   1.330   3.017   3.227
  820SOL    HW2  272   1.345   3.095   3.370
  823SOL     OW  273   1.525   2.861   2.052
  823SOL    HW1  274   1.462   2.785   2.065
  823SOL    HW2  275   1.573   2.879   2.138
  826SOL     OW  276   1.466   3.279   2.815
  826SOL    HW1  277   1.407   3.285   2.895
  826SOL    HW2  278   1.451   3.191   2.769
  827SOL     OW  279   1.667   3.576   2.434
  827SOL    HW1  280   1.626   3.553   2.346
  827SOL    HW2  281   1.649   3.502   2.499
  829SOL     OW  282   1.281   2.207   2.806
  829SOL    HW1  283   1.195   2.157   2.793
  829SOL    HW2  284   1.343   2.153   2.862
  830SOL     OW  285   1.576   3.524   2.169
  830SOL    HW1  286   1.665   3.570   2.172
  830SOL    HW2  287   1.555   3.500   2.074
  832SOL     OW  288   1.394   2.331   3.536
  832SOL    HW1  289   1.374   2.374   3.624
  832SOL    HW2  290   1.472   2.269   3.545
  834SOL     OW  291   0.991   2.272   3.104
  834SOL    HW1  292   0.914   2.306   3.158
  834SOL    HW2  293   0.957   2.221   3.025
  835SOL     OW  294   1.041   2.563   2.291
  835SOL    HW1  295   1.067   2.559   2.387
  835SOL    HW2  296   0.956   2.512   2.277
  838SOL     OW  297   0.865   2.210   2.057
  838SOL    HW1  298   0.924   2.273   2.008
  838SOL    HW2  299   0.884   2.116   2.028
  839SOL     OW  300   1.719   2.447   3.693
  839SOL    HW1  301   1.693   2.536   3.657
  839SOL    HW2  302   1.717   2.379   3.620
  840SOL     OW  303   1.362   3.006   2.407
  840SOL    HW1  304   1.445   2.977   2.359
  840SOL    HW2  305   1.313   3.073   2.351
  842SOL     OW  306   1.008   3.318   2.339
  842SOL    HW1  307   0.962   3.390   2.287
  842SOL    HW2  308   1.004   3.338   2.437
  844SOL     OW  309   1.795   2.928   2.735
  844SOL    HW1  310   1.733   2.913   2.659
  844SOL    HW2  311   1.743   2.939   2.820
  845SOL     OW  312   1.227   3.412   3.368
  845SOL    HW1  313   1.233   3.335   3.432
  845SOL    HW2  314   1.175   3.386   3.288
  847SOL     OW  315   1.458   2.597   2.590
  847SOL    HW1  316   1.453   2.532   2.665
  847SOL    HW2  317   1.538   2.656   2.603
  851SOL     OW  318   1.632   3.239   1.943
  851SOL    HW1  319   1.600   3.333   1.933
  851SOL    HW2  320   1.556   3.176   1.931
  853SOL     OW  321   1.400   1.969   2.288
  853SOL    HW1  322   1.376   1.932   2.198
  853SOL    HW2  323   1.499   1.985   2.292
  857SOL     OW  324   1.547   2.084   3.591
  857SOL    HW1  325   1.542   2.121   3.683
  857SOL    HW2  326   1.475   2.015   3.579
  861SOL     OW  327   1.351   2.452   3.295
  861SOL    HW1  328   1.379   2.409   3.380
  861SOL    HW2  329   1.376   2.548   3.296
  863SOL     OW  330   0.922   2.365   2.761
  863SOL    HW1  331   0.897   2.356   2.665
  863SOL    HW2  332   0.970   2.283   2.792
  865SOL     OW  333   1.434   3.050   1.903
  865SOL    HW1  334   1.466   2.974   1.960
  865SOL    HW2  335   1.342   3.077   1.933
  867SOL     OW  336   0.935   2.098   2.342
  867SOL    HW1  337   0.887   2.139   2.264
  867SOL    HW2  338   1.034   2.096   2.323
  868SOL     OW  339   1.076   2.545   3.326
  868SOL    HW1  340   0.996   2.484   3.329
  868SOL    HW2  341   1.157   2.492   3.302
  869SOL     OW  342   1.227   3.432   2.655
  869SOL    HW1  343   1.248   3.506   2.590
  869SOL    HW2  344   1.295   3.432   2.728
  871SOL     OW  345   1.271   3.659   2.453
  871SOL    HW1  346   1.315   3.723   2.389
  871SOL    HW2  347   1.221   3.711   2.523
  872SOL     OW  348   1.032   2.411   1.878
  872SOL    HW1  349   0.991   2.493   1.839
  872SOL    HW2  350   1.096   2.437   1.951
  875SOL     OW  351   0.866   2.316   2.504
  875SOL    HW1  352   0.834   2.388   2.442
  875SOL    HW2  353   0.890   2.235   2.451
  876SOL     OW  354   1.017   1.901   2.615
  876SOL    HW1  355   0.945   1.906   2.546
  876SOL    HW2  356   0.993   1.832   2.684
  877SOL     OW  357   1.429   3.035   2.729
  877SOL    HW1  358   1.374   2.951   2.722
  877SOL    HW2  359   1.455   3.064   2.637
  878SOL     OW  360   1.466   2.452   2.854
  878SOL    HW1  361   1.436   2.357   2.861
  878SOL    HW2  362   1.539   2.468   2.920
  879SOL     OW  363   1.857   2.695   2.239
  879SOL    HW1  364   1.899   2.631   2.303
  879SOL    HW2  365   1.819   2.644   2.161
  881SOL     OW  366   1.664   3.142   2.519
  881SOL    HW1  367   1.763   3.150   2.533
  881SOL    HW2  368   1.619   3.226   2.550
  882SOL     OW  369   1.390   2.437   1.940
  882SOL    HW1  370   1.336   2.416   2.021
  882SOL    HW2  371   1.481   2.396   1.949
  884SOL     OW  372   1.754   3.085   3.450
  884SOL    HW1  373   1.845   3.046   3.437
  884SOL    HW2  374   1.762   3.181   3.474
  885SOL     OW  375   1.064   3.209   3.202
  885SOL    HW1  376   0.984   3.186   3.257
  885SOL    HW2  377   1.147   3.183   3.251
  886SOL     OW  378   1.592   3.491   3.487
  886SOL    HW1  379   1.619   3.525   3.397
  886SOL    HW2  380   1.671   3.453   3.533
  887SOL     OW  381   1.111   3.057   2.962
  887SOL    HW1  382   1.071   3.101   3.043
  887SOL    HW2  383   1.070   3.094   2.879
  888SOL     OW  384   1.638   2.961   2.941
  888SOL    HW1  385   1.643   3.042   3.000
  888SOL    HW2  386   1.552   2.963   2.890
  893SOL     OW  387   1.274   2.248   3.124
  893SOL    HW1  388   1.295   2.322   3.188
  893SOL    HW2  389   1.185   2.265   3.081
  897SOL     OW  390   1.252   3.210   2.250
  897SOL    HW1  391   1.302   3.287   2.290
  897SOL    HW2  392   1.157   3.212   2.282
  898SOL     OW  393   1.272   3.307   3.004
  898SOL    HW1  394   1.319   3.320   3.091
  898SOL    HW2  395   1.206   3.233   3.013
  899SOL     OW  396   1.582   2.501   2.334
  899SOL    HW1  397   1.551   2.562   2.407
  899SOL    HW2  398   1.632   2.553   2.265
  902SOL     OW  399   1.587   2.641   3.532
  902SOL    HW1  400   1.495   2.679   3.527
  902SOL    HW2  401   1.647   2.688   3.467
  906SOL     OW  402   1.360   2.724   2.907
  906SOL    HW1  403   1.285   2.724   2.841
  906SOL    HW2  404   1.397   2.632   2.916
  907SOL     OW  405   1.209   2.387   2.137
  907SOL    HW1  406   1.222   2.303   2.191
  907SOL    HW2  407   1.180   2.461   2.197
  911SOL     OW  408   1.728   2.797   3.716
  911SOL    HW1  409   1.682   2.790   3.627
  911SOL    HW2  410   1.666   2.841   3.782
  913SOL     OW  411   1.622   2.229   2.236
  913SOL    HW1  412   1.624   2.153   2.300
  913SOL    HW2  413   1.574   2.306   2.276
  914SOL     OW  414   1.023   2.628   2.828
  914SOL    HW1  415   1.038   2.649   2.924
  914SOL    HW2  416   0.993   2.533   2.819
  916SOL     OW  417   1.859   3.380   3.467
  916SOL    HW1  418   1.873   3.407   3.372
  916SOL    HW2  419   1.942   3.402   3.520
  918SOL     OW  420   1.540   2.136   1.987
  918SOL    HW1  421   1.479   2.061   2.010
  918SOL    HW2  422   1.562   2.188   2.070
  919SOL     OW  423   1.303   2.700   1.904
  919SOL    HW1  424   1.337   2.607   1.919
  919SOL    HW2  425   1.321   2.727   1.809
  920SOL     OW  426   1.068   3.195   2.711
  920SOL    HW1  427   1.075   3.111   2.656
  920SOL    HW2  428   1.130   3.264   2.675
  923SOL     OW  429   1.138   2.242   3.540
  923SOL    HW1  430   1.093   2.305   3.604
  923SOL    HW2  431   1.231   2.273   3.523
  924SOL     OW  432   1.160   2.069   3.339
  924SOL    HW1  433   1.160   2.133   3.416
  924SOL    HW2  434   1.188   2.117   3.256
  928SOL     OW  435   1.002   2.658   3.100
  928SOL    HW1  436   1.043   2.626   3.186
  928SOL    HW2  437   0.906   2.631   3.097
  931SOL     OW  438   1.369   2.812   3.522
  931SOL    HW1  439   1.408   2.901   3.542
  931SOL    HW2  440   1.379   2.792   3.425
  932SOL     OW  441   0.815   2.434   2.187
  932SOL    HW1  442   0.822   2.345   2.141
  932SOL    HW2  443   0.721   2.468   2.179
  933SOL     OW  444   1.657   2.466   3.068
  933SOL    HW1  445   1.619   2.397   3.130
  933SOL    HW2  446   1.739   2.430   3.024
  939SOL     OW  447   1.347   2.921   3.096
  939SOL    HW1  448   1.371   2.858   3.022
  939SOL    HW2  449   1.257   2.961   3.078
  940SOL     OW  450   1.302   2.717   2.171
  940SOL    HW1  451   1.216   2.686   2.213
  940SOL    HW2  452   1.298   2.703   2.072
  941SOL     OW  453   1.759   3.609   3.016
  941SOL    HW1  454   1.820   3.639   2.943
  941SOL    HW2  455   1.721   3.520   2.994
  942SOL     OW  456   1.252   3.593   2.990
  942SOL    HW1  457   1.336   3.598   2.936
  942SOL    HW2  458   1.229   3.497   3.008
  945SOL     OW  459   1.726   1.997   2.385
  945SOL    HW1  460   1.799   1.980   2.318
  945SOL    HW2  461   1.695   1.910   2.423
  946SOL     OW  462   1.388   3.435   2.339
  946SOL    HW1  463   1.455   3.447   2.265
  946SOL    HW2  464   1.348   3.524   2.362
  948SOL     OW  465   1.280   2.789   2.534
  948SOL    HW1  466   1.340   2.708   2.536
  948SOL    HW2  467   1.320   2.858   2.474
  951SOL     OW  468   1.650   3.582   3.256
  951SOL    HW1  469   1.703   3.592   3.172
  951SOL    HW2  470   1.623   3.672   3.290
  952SOL     OW  471   1.841   2.037   2.825
  952SOL    HW1  472   1.880   1.952   2.789
  952SOL    HW2  473   1.743   2.039   2.806
  954SOL     OW  474   1.194   3.474   1.893
  954SOL    HW1  475   1.200   3.381   1.930
  954SOL    HW2  476   1.135   3.474   1.813
  956SOL     OW  477   0.916   2.772   2.153
  956SOL    HW1  478   0.979   2.810   2.085
  956SOL    HW2  479   0.956   2.689   2.192
  957SOL     OW  480   1.504   3.469   1.906
  957SOL    HW1  481   1.412   3.506   1.913
  957SOL    HW2  482   1.542   3.489   1.816
  959SOL     OW  483   1.614   3.154   3.151
  959SOL    HW1  484   1.674   3.157   3.231
  959SOL    HW2  485   1.539   3.218   3.164
  960SOL     OW  486   1.039   2.960   2.558
  960SOL    HW1  487   0.969   2.913   2.612
  960SOL    HW2  488   1.098   2.892   2.515
  961SOL     OW  489   1.014   2.098   2.833
  961SOL    HW1  490   1.006   2.062   2.740
  961SOL    HW2  491   1.012   2.022   2.898
  963SOL     OW  492   1.709   2.247   3.243
  963SOL    HW1  493   1.782   2.316   3.247
  963SOL    HW2  494   1.737   2.172   3.184
  968SOL     OW  495   1.440   2.718   3.260
  968SOL    HW1  496   1.383   2.770   3.197
  968SOL    HW2  497   1.536   2.730   3.236
  970SOL     OW  498   1.183   3.197   1.981
  970SOL    HW1  499   1.084   3.186   1.983
  970SOL    HW2  500   1.217   3.212   2.074
  972SOL     OW  501   1.493   3.629   2.821
  972SOL    HW1  502   1.526   3.693   2.752
  972SOL    HW2  503   1.559   3.623   2.896
  974SOL     OW  504   1.450   3.082   3.495
  974SOL    HW1  505   1.441   3.072   3.594
  974SOL    HW2  506   1.546   3.075   3.469
  976SOL     OW  507   1.674   2.745   3.116
  976SOL    HW1  508   1.647   2.656   3.079
  976SOL    HW2  509   1.675   2.813   3.043
  977SOL     OW  510   1.225   2.187   2.311
  977SOL    HW1  511   1.290   2.113   2.300
  977SOL    HW2  512   1.245   2.237   2.395
  979SOL     OW  513   1.777   2.204   3.504
  979SOL    HW1  514   1.760   2.235   3.410
  979SOL    HW2  515   1.693   2.167   3.542
  980SOL     OW  516   1.730   2.796   3.379
  980SOL    HW1  517   1.768   2.887   3.394
  980SOL    HW2  518   1.722   2.779   3.280
  983SOL     OW  519   0.859   2.818   2.723
  983SOL    HW1  520   0.913   2.749   2.771
  983SOL    HW2  521   0.827   2.887   2.789
  984SOL     OW  522   1.083   2.846   1.949
  984SOL    HW1  523   1.060   2.899   1.867
  984SOL    HW2  524   1.164   2.790   1.930
  985SOL     OW  525   1.861   3.431   2.713
  985SOL    HW1  526   1.790   3.419   2.643
  985SOL    HW2  527   1.862   3.352   2.773
  989SOL     OW  528   1.824   2.054   3.089
  989SOL    HW1  529   1.820   1.964   3.133
  989SOL    HW2  530   1.827   2.043   2.990
  991SOL     OW  531   1.705   3.349   2.966
  991SOL    HW1  532   1.612   3.324   2.939
  991SOL    HW2  533   1.731   3.299   3.048
  994SOL     OW  534   1.424   2.076   2.974
  994SOL    HW1  535   1.476   2.011   3.029
  994SOL    HW2  536   1.375   2.139   3.035
  995SOL     OW  537   1.001   1.896   3.016
  995SOL    HW1  538   0.938   1.824   2.985
  995SOL    HW2  539   1.094   1.860   3.016
  998SOL     OW  540   1.352   1.914   2.030
  998SOL    HW1  541   1.387   1.873   1.946
  998SOL    HW2  542   1.262   1.876   2.050
  999SOL     OW  543   1.300   2.315   2.553
  999SOL    HW1  544   1.241   2.395   2.557
  999SOL    HW2  545   1.315   2.280   2.646
 1000SOL     OW  546   1.593   2.083   2.744
 1000SOL    HW1  547   1.509   2.082   2.798
 1000SOL    HW2  548   1.595   2.166   2.688
 1009SOL     OW  549   1.755   2.469   3.955
 1009SOL    HW1  550   1.743   2.456   3.856
 1009SOL    HW2  551   1.725   2.388   4.004
 1026SOL     OW  552   1.525   2.861   3.914
 1026SOL    HW1  553   1.462   2.785   3.927
 1026SOL    HW2  554   1.573   2.879   4.000
 1044SOL     OW  555   1.632   3.239   3.805
 1044SOL    HW1  556   1.600   3.333   3.795
 1044SOL    HW2  557   1.556   3.176   3.793
 1054SOL     OW  558   1.434   3.050   3.765
 1054SOL    HW1  559   1.466   2.974   3.822
 1054SOL    HW2  560   1.342   3.077   3.795
 1066SOL     OW  561   1.857   2.695   4.101
 1066SOL    HW1  562   1.899   2.631   4.165
 1066SOL    HW2  563   1.819   2.644   4.023
 1069SOL     OW  564   1.390   2.437   3.802
 1069SOL    HW1  565   1.336   2.416   3.883
 1069SOL    HW2  566   1.481   2.396   3.811
 1091SOL     OW  567   1.540   2.136   3.849
 1091SOL    HW1  568   1.479   2.061   3.872
 1091SOL    HW2  569   1.562   2.188   3.932
 1092SOL     OW  570   1.303   2.700   3.766
 1092SOL    HW1  571   1.337   2.607   3.781
 1092SOL    HW2  572   1.321   2.727   3.671
 1339SOL     OW  573   1.400   3.831   2.288
 1339SOL    HW1  574   1.376   3.794   2.198
 1339SOL    HW2  575   1.499   3.847   2.292
 1406SOL     OW  576   1.726   3.859   2.385
 1406SOL    HW1  577   1.799   3.842   2.318
 1406SOL    HW2  578   1.695   3.772   2.423
 1408SOL     OW  579   1.841   3.899   2.825
 1408SOL    HW1  580   1.880   3.814   2.789
 1408SOL    HW2  581   1.743   3.901   2.806
 1434SOL     OW  582   1.824   3.916   3.089
 1434SOL    HW1  583   1.820   3.826   3.133
 1434SOL    HW2  584   1.827   3.905   2.990
 1440SOL     OW  585   1.352   3.776   2.030
 1440SOL    HW1  586   1.387   3.735   1.946
 1440SOL    HW2  587   1.262   3.738   2.050
 1442SOL     OW  588   1.593   3.945   2.744
 1442SOL    HW1  589   1.509   3.944   2.798
 1442SOL    HW2  590   1.595   4.028   2.688
 1559SOL     OW  591   2.548   1.161   1.803
 1559SOL    HW1  592   2.608   1.240   1.817
 1559SOL    HW2  593   2.462   1.192   1.762
 1561SOL     OW  594   3.322   1.505   1.339
 1561SOL    HW1  595   3.346   1.599   1.365
 1561SOL    HW2  596   3.306   1.451   1.421
 1565SOL     OW  597   2.989   1.341   1.690
 1565SOL    HW1  598   3.036   1.341   1.778
 1565SOL    HW2  599   2.941   1.254   1.679
 1568SOL     OW  600   2.482   1.786   1.439
 1568SOL    HW1  601   2.390   1.769   1.474
 1568SOL    HW2  602   2.510   1.878   1.465
 1582SOL     OW  603   3.049   1.792   1.616
 1582SOL    HW1  604   3.073   1.852   1.540
 1582SOL    HW2  605   3.056   1.697   1.586
 1595SOL     OW  606   1.992   1.821   1.571
 1595SOL    HW1  607   1.982   1.806   1.670
 1595SOL    HW2  608   1.906   1.857   1.535
 1603SOL     OW  609   3.089   1.550   1.506
 1603SOL    HW1  610   3.095   1.473   1.570
 1603SOL    HW2  611   3.037   1.524   1.426
 1606SOL     OW  612   2.323   1.266   1.727
 1606SOL    HW1  613   2.273   1.267   1.641
 1606SOL    HW2  614   2.260   1.248   1.803
 1612SOL     OW  615   2.111   1.785   1.241
 1612SOL    HW1  616   2.168   1.720   1.291
 1612SOL    HW2  617   2.095   1.752   1.148
 1618SOL     OW  618   2.750   1.514   1.195
 1618SOL    HW1  619   2.727   1.489   1.101
 1618SOL    HW2  620   2.811   1.445   1.234
 1643SOL     OW  621   2.926   1.347   1.340
 1643SOL    HW1  622   2.846   1.324   1.395
 1643SOL    HW2  623   3.009   1.321   1.389
 1644SOL     OW  624   3.454   1.629   1.625
 1644SOL    HW1  625   3.481   1.663   1.535
 1644SOL    HW2  626   3.533   1.591   1.671
 1648SOL     OW  627   2.842   1.116   1.719
 1648SOL    HW1  628   2.743   1.122   1.729
 1648SOL    HW2  629   2.865   1.036   1.663
 1652SOL     OW  630   1.926   1.564   1.331
 1652SOL    HW1  631   1.880   1.646   1.297
 1652SOL    HW2  632   2.024   1.583   1.340
 1658SOL     OW  633   2.216   1.510   1.329
 1658SOL    HW1  634   2.195   1.466   1.242
 1658SOL    HW2  635   2.313   1.536   1.332
 1673SOL     OW  636   2.842   1.573   1.700
 1673SOL    HW1  637   2.822   1.617   1.612
 1673SOL    HW2  638   2.881   1.482   1.684
 1675SOL     OW  639   2.212   0.898   1.804
 1675SOL    HW1  640   2.288   0.942   1.852
 1675SOL    HW2  641   2.247   0.851   1.722
 1692SOL     OW  642   2.114   1.564   1.744
 1692SOL    HW1  643   2.084   1.621   1.820
 1692SOL    HW2  644   2.107   1.467   1.770
 1694SOL     OW  645   2.792   1.678   1.465
 1694SOL    HW1  646   2.768   1.660   1.370
 1694SOL    HW2  647   2.822   1.772   1.475
 1700SOL     OW  648   3.114   1.731   1.128
 1700SOL    HW1  649   3.198   1.736   1.074
 1700SOL    HW2  650   3.091   1.635   1.146
 1702SOL     OW  651   2.550   1.662   1.716
 1702SOL    HW1  652   2.494   1.743   1.725
 1702SOL    HW2  653   2.602   1.666   1.630
 1706SOL     OW  654   1.992   1.794   1.851
 1706SOL    HW1  655   1.951   1.720   1.904
 1706SOL    HW2  656   2.056   1.845   1.909
 1708SOL     OW  657   2.692   1.273   1.422
 1708SOL    HW1  658   2.687   1.306   1.517
 1708SOL    HW2  659   2.606   1.292   1.376
 1710SOL     OW  660   3.512   1.720   1.394
 1710SOL    HW1  661   3.565   1.730   1.310
 1710SOL    HW2  662   3.485   1.810   1.428
 1717SOL     OW  663   2.234   1.288   1.490
 1717SOL    HW1  664   2.221   1.381   1.456
 1717SOL    HW2  665   2.150   1.236   1.477
 1724SOL     OW  666   1.967   1.013   1.726
 1724SOL    HW1  667   1.890   0.980   1.780
 1724SOL    HW2  668   2.052   0.983   1.768
 1732SOL     OW  669   3.312   1.220   1.633
 1732SOL    HW1  670   3.303   1.210   1.732
 1732SOL    HW2  671   3.408   1.213   1.607
 1733SOL     OW  672   2.252   1.741   1.560
 1733SOL    HW1  673   2.161   1.782   1.558
 1733SOL    HW2  674   2.245   1.647   1.592
 1740SOL     OW  675   2.523   1.790   0.953
 1740SOL    HW1  676   2.477   1.878   0.940
 1740SOL    HW2  677   2.622   1.802   0.946
 1744SOL     OW  678   2.083   1.314   1.844
 1744SOL    HW1  679   2.018   1.241   1.823
 1744SOL    HW2  680   2.087   1.328   1.942
 1746SOL     OW  681   2.534   1.391   1.624
 1746SOL    HW1  682   2.456   1.341   1.662
 1746SOL    HW2  683   2.531   1.486   1.655
 1755SOL     OW  684   2.480   1.567   1.284
 1755SOL    HW1  685   2.475   1.649   1.341
 1755SOL    HW2  686   2.569   1.564   1.239
 1764SOL     OW  687   2.431   1.275   3.027
 1764SOL    HW1  688   2.338   1.268   2.990
 1764SOL    HW2  689   2.442   1.364   3.071
 1765SOL     OW  690   3.417   1.511   2.565
 1765SOL    HW1  691   3.360   1.495   2.646
 1765SOL    HW2  692   3.358   1.521   2.485
 1768SOL     OW  693   2.630   1.144   2.885
 1768SOL    HW1  694   2.552   1.161   2.945
 1768SOL    HW2  695   2.664   1.231   2.849
 1770SOL     OW  696   2.547   1.012   2.527
 1770SOL    HW1  697   2.616   0.996   2.597
 1770SOL    HW2  698   2.474   1.069   2.565
 1771SOL     OW  699   2.548   1.161   3.665
 1771SOL    HW1  700   2.608   1.240   3.679
 1771SOL    HW2  701   2.462   1.192   3.624
 1772SOL     OW  702   2.197   1.435   2.923
 1772SOL    HW1  703   2.119   1.404   2.870
 1772SOL    HW2  704   2.255   1.493   2.866
 1773SOL     OW  705   3.322   1.505   3.201
 1773SOL    HW1  706   3.346   1.599   3.227
 1773SOL    HW2  707   3.306   1.451   3.283
 1776SOL     OW  708   2.093   1.713   2.345
 1776SOL    HW1  709   2.127   1.790   2.399
 1776SOL    HW2  710   2.137   1.713   2.255
 1777SOL     OW  711   2.989   1.341   3.552
 1777SOL    HW1  712   3.036   1.341   3.640
 1777SOL    HW2  713   2.941   1.254   3.541
 1778SOL     OW  714   2.092   1.434   2.400
 1778SOL    HW1  715   2.066   1.530   2.400
 1778SOL    HW2  716   2.021   1.380   2.445
 1779SOL     OW  717   2.102   1.091   2.748
 1779SOL    HW1  718   2.116   1.007   2.800
 1779SOL    HW2  719   2.047   1.155   2.803
 1780SOL     OW  720   2.482   1.786   3.301
 1780SOL    HW1  721   2.390   1.769   3.336
 1780SOL    HW2  722   2.510   1.878   3.327
 1781SOL     OW  723   2.468   0.964   1.985
 1781SOL    HW1  724   2.475   1.048   1.931
 1781SOL    HW2  725   2.514   0.977   2.073
 1784SOL     OW  726   3.704   1.767   2.221
 1784SOL    HW1  727   3.758   1.738   2.301
 1784SOL    HW2  728   3.734   1.857   2.192
 1785SOL     OW  729   1.889   1.596   1.979
 1785SOL    HW1  730   1.870   1.500   2.000
 1785SOL    HW2  731   1.856   1.654   2.054
 1787SOL     OW  732   3.503   1.108   2.294
 1787SOL    HW1  733   3.589   1.110   2.242
 1787SOL    HW2  734   3.517   1.155   2.382
 1789SOL     OW  735   2.475   1.365   2.588
 1789SOL    HW1  736   2.426   1.278   2.597
 1789SOL    HW2  737   2.452   1.408   2.501
 1790SOL     OW  738   3.155   1.228   3.285
 1790SOL    HW1  739   3.192   1.155   3.227
 1790SOL    HW2  740   3.207   1.233   3.370
 1792SOL     OW  741   2.059   0.976   3.126
 1792SOL    HW1  742   2.148   0.931   3.112
 1792SOL    HW2  743   1.986   0.911   3.107
 1794SOL     OW  744   3.049   1.792   3.478
 1794SOL    HW1  745   3.073   1.852   3.402
 1794SOL    HW2  746   3.056   1.697   3.448
 1796SOL     OW  747   3.328   1.417   2.815
 1796SOL    HW1  748   3.269   1.423   2.895
 1796SOL    HW2  749   3.313   1.329   2.769
 1797SOL     OW  750   3.529   1.714   2.434
 1797SOL    HW1  751   3.488   1.691   2.346
 1797SOL    HW2  752   3.511   1.640   2.499
 1800SOL     OW  753   3.438   1.662   2.169
 1800SOL    HW1  754   3.527   1.708   2.172
 1800SOL    HW2  755   3.417   1.638   2.074
 1807SOL     OW  756   1.992   1.821   3.433
 1807SOL    HW1  757   1.982   1.806   3.532
 1807SOL    HW2  758   1.906   1.857   3.397
 1810SOL     OW  759   3.224   1.144   2.407
 1810SOL    HW1  760   3.307   1.115   2.359
 1810SOL    HW2  761   3.175   1.211   2.351
 1812SOL     OW  762   2.870   1.456   2.339
 1812SOL    HW1  763   2.824   1.528   2.287
 1812SOL    HW2  764   2.866   1.476   2.437
 1813SOL     OW  765   2.213   1.801   2.715
 1813SOL    HW1  766   2.263   1.715   2.721
 1813SOL    HW2  767   2.278   1.878   2.712
 1815SOL     OW  768   3.089   1.550   3.368
 1815SOL    HW1  769   3.095   1.473   3.432
 1815SOL    HW2  770   3.037   1.524   3.288
 1816SOL     OW  771   2.183   0.943   2.104
 1816SOL    HW1  772   2.265   0.982   2.062
 1816SOL    HW2  773   2.156   0.861   2.055
 1818SOL     OW  774   2.323   1.266   3.589
 1818SOL    HW1  775   2.273   1.267   3.503
 1818SOL    HW2  776   2.260   1.248   3.665
 1819SOL     OW  777   2.973   1.776   2.099
 1819SOL    HW1  778   2.913   1.714   2.149
 1819SOL    HW2  779   3.004   1.732   2.014
 1821SOL     OW  780   3.494   1.377   1.943
 1821SOL    HW1  781   3.462   1.471   1.933
 1821SOL    HW2  782   3.418   1.314   1.931
 1822SOL     OW  783   2.326   1.743   2.185
 1822SOL    HW1  784   2.359   1.782   2.271
 1822SOL    HW2  785   2.402   1.736   2.120
 1824SOL     OW  786   2.111   1.785   3.103
 1824SOL    HW1  787   2.168   1.720   3.153
 1824SOL    HW2  788   2.095   1.752   3.010
 1825SOL     OW  789   2.802   1.698   2.766
 1825SOL    HW1  790   2.882   1.641   2.787
 1825SOL    HW2  791   2.753   1.658   2.689
 1830SOL     OW  792   2.750   1.514   3.057
 1830SOL    HW1  793   2.727   1.489   2.963
 1830SOL    HW2  794   2.811   1.445   3.096
 1832SOL     OW  795   2.665   1.402   2.786
 1832SOL    HW1  796   2.755   1.416   2.744
 1832SOL    HW2  797   2.594   1.404   2.715
 1835SOL     OW  798   3.296   1.188   1.903
 1835SOL    HW1  799   3.328   1.112   1.960
 1835SOL    HW2  800   3.204   1.215   1.933
 1839SOL     OW  801   3.089   1.570   2.655
 1839SOL    HW1  802   3.110   1.644   2.590
 1839SOL    HW2  803   3.157   1.570   2.728
 1840SOL     OW  804   2.321   1.152   2.603
 1840SOL    HW1  805   2.250   1.125   2.668
 1840SOL    HW2  806   2.295   1.124   2.510
 1841SOL     OW  807   3.133   1.797   2.453
 1841SOL    HW1  808   3.177   1.861   2.389
 1841SOL    HW2  809   3.083   1.849   2.523
 1847SOL     OW  810   3.291   1.173   2.729
 1847SOL    HW1  811   3.236   1.089   2.722
 1847SOL    HW2  812   3.317   1.202   2.637
 1850SOL     OW  813   2.350   1.385   2.036
 1850SOL    HW1  814   2.263   1.370   2.083
 1850SOL    HW2  815   2.333   1.411   1.941
 1851SOL     OW  816   3.526   1.280   2.519
 1851SOL    HW1  817   3.625   1.288   2.533
 1851SOL    HW2  818   3.481   1.364   2.550
 1855SOL     OW  819   2.926   1.347   3.202
 1855SOL    HW1  820   2.846   1.324   3.257
 1855SOL    HW2  821   3.009   1.321   3.251
 1856SOL     OW  822   3.454   1.629   3.487
 1856SOL    HW1  823   3.481   1.663   3.397
 1856SOL    HW2  824   3.533   1.591   3.533
 1857SOL     OW  825   2.973   1.195   2.962
 1857SOL    HW1  826   2.933   1.239   3.043
 1857SOL    HW2  827   2.932   1.232   2.879
 1858SOL     OW  828   3.500   1.099   2.941
 1858SOL    HW1  829   3.505   1.180   3.000
 1858SOL    HW2  830   3.414   1.101   2.890
 1860SOL     OW  831   2.842   1.116   3.581
 1860SOL    HW1  832   2.743   1.122   3.591
 1860SOL    HW2  833   2.865   1.036   3.525
 1861SOL     OW  834   2.567   1.050   2.230
 1861SOL    HW1  835   2.553   1.057   2.329
 1861SOL    HW2  836   2.651   0.999   2.212
 1864SOL     OW  837   1.926   1.564   3.193
 1864SOL    HW1  838   1.880   1.646   3.159
 1864SOL    HW2  839   2.024   1.583   3.202
 1865SOL     OW  840   2.229   1.100   2.363
 1865SOL    HW1  841   2.222   1.183   2.307
 1865SOL    HW2  842   2.233   1.020   2.303
 1867SOL     OW  843   3.114   1.348   2.250
 1867SOL    HW1  844   3.164   1.425   2.290
 1867SOL    HW2  845   3.019   1.350   2.282
 1868SOL     OW  846   3.134   1.445   3.004
 1868SOL    HW1  847   3.181   1.458   3.091
 1868SOL    HW2  848   3.068   1.371   3.013
 1870SOL     OW  849   2.216   1.510   3.191
 1870SOL    HW1  850   2.195   1.466   3.104
 1870SOL    HW2  851   2.313   1.536   3.194
 1875SOL     OW  852   2.435   0.870   2.891
 1875SOL    HW1  853   2.479   0.959   2.882
 1875SOL    HW2  854   2.372   0.870   2.968
 1879SOL     OW  855   1.899   1.310   3.144
 1879SOL    HW1  856   1.952   1.261   3.212
 1879SOL    HW2  857   1.921   1.408   3.149
 1885SOL     OW  858   2.842   1.573   3.562
 1885SOL    HW1  859   2.822   1.617   3.474
 1885SOL    HW2  860   2.881   1.482   3.546
 1890SOL     OW  861   2.930   1.333   2.711
 1890SOL    HW1  862   2.937   1.249   2.656
 1890SOL    HW2  863   2.992   1.402   2.675
 1891SOL     OW  864   2.181   0.810   2.811
 1891SOL    HW1  865   2.274   0.846   2.816
 1891SOL    HW2  866   2.175   0.725   2.863
 1895SOL     OW  867   1.870   1.326   2.062
 1895SOL    HW1  868   1.777   1.347   2.031
 1895SOL    HW2  869   1.880   1.227   2.075
 1896SOL     OW  870   1.950   1.801   2.789
 1896SOL    HW1  871   1.908   1.715   2.762
 1896SOL    HW2  872   2.044   1.804   2.755
 1897SOL     OW  873   2.366   1.568   2.772
 1897SOL    HW1  874   2.432   1.642   2.781
 1897SOL    HW2  875   2.410   1.489   2.730
 1904SOL     OW  876   2.114   1.564   3.606
 1904SOL    HW1  877   2.084   1.621   3.682
 1904SOL    HW2  878   2.107   1.467   3.632
 1906SOL     OW  879   2.792   1.678   3.327
 1906SOL    HW1  880   2.768   1.660   3.232
 1906SOL    HW2  881   2.822   1.772   3.337
 1908SOL     OW  882   2.021   1.137   3.328
 1908SOL    HW1  883   2.043   1.076   3.404
 1908SOL    HW2  884   2.031   1.088   3.242
 1909SOL     OW  885   3.209   1.059   3.096
 1909SOL    HW1  886   3.233   0.996   3.022
 1909SOL    HW2  887   3.119   1.099   3.078
 1911SOL     OW  888   3.621   1.747   3.016
 1911SOL    HW1  889   3.682   1.777   2.943
 1911SOL    HW2  890   3.583   1.658   2.994
 1912SOL     OW  891   3.114   1.731   2.990
 1912SOL    HW1  892   3.198   1.736   2.936
 1912SOL    HW2  893   3.091   1.635   3.008
 1913SOL     OW  894   1.945   1.258   2.884
 1913SOL    HW1  895   1.940   1.257   2.984
 1913SOL    HW2  896   1.862   1.217   2.846
 1914SOL     OW  897   2.550   1.662   3.578
 1914SOL    HW1  898   2.494   1.743   3.587
 1914SOL    HW2  899   2.602   1.666   3.492
 1916SOL     OW  900   3.250   1.573   2.339
 1916SOL    HW1  901   3.317   1.585   2.265
 1916SOL    HW2  902   3.210   1.662   2.362
 1917SOL     OW  903   1.992   1.794   3.713
 1917SOL    HW1  904   1.951   1.720   3.766
 1917SOL    HW2  905   2.056   1.845   3.771
 1918SOL     OW  906   3.142   0.927   2.534
 1918SOL    HW1  907   3.202   0.846   2.536
 1918SOL    HW2  908   3.182   0.996   2.474
 1919SOL     OW  909   2.692   1.273   3.284
 1919SOL    HW1  910   2.687   1.306   3.379
 1919SOL    HW2  911   2.606   1.292   3.238
 1920SOL     OW  912   2.534   1.616   2.016
 1920SOL    HW1  913   2.543   1.626   1.917
 1920SOL    HW2  914   2.494   1.527   2.037
 1921SOL     OW  915   3.512   1.720   3.256
 1921SOL    HW1  916   3.565   1.730   3.172
 1921SOL    HW2  917   3.485   1.810   3.290
 1924SOL     OW  918   3.056   1.612   1.893
 1924SOL    HW1  919   3.062   1.519   1.930
 1924SOL    HW2  920   2.997   1.612   1.813
 1925SOL     OW  921   2.684   1.002   3.234
 1925SOL    HW1  922   2.724   1.001   3.142
 1925SOL    HW2  923   2.694   1.094   3.274
 1926SOL     OW  924   2.778   0.910   2.153
 1926SOL    HW1  925   2.841   0.948   2.085
 1926SOL    HW2  926   2.818   0.827   2.192
 1927SOL     OW  927   3.366   1.607   1.906
 1927SOL    HW1  928   3.274   1.644   1.913
 1927SOL    HW2  929   3.404   1.627   1.816
 1928SOL     OW  930   2.234   1.288   3.352
 1928SOL    HW1  931   2.221   1.381   3.318
 1928SOL    HW2  932   2.150   1.236   3.339
 1929SOL     OW  933   3.476   1.292   3.151
 1929SOL    HW1  934   3.536   1.295   3.231
 1929SOL    HW2  935   3.401   1.356   3.164
 1930SOL     OW  936   2.901   1.098   2.558
 1930SOL    HW1  937   2.831   1.051   2.612
 1930SOL    HW2  938   2.960   1.030   2.515
 1932SOL     OW  939   2.452   1.487   2.353
 1932SOL    HW1  940   2.494   1.429   2.283
 1932SOL    HW2  941   2.408   1.566   2.309
 1934SOL     OW  942   2.117   1.348   2.152
 1934SOL    HW1  943   2.021   1.349   2.125
 1934SOL    HW2  944   2.129   1.401   2.236
 1940SOL     OW  945   3.045   1.335   1.981
 1940SOL    HW1  946   2.946   1.324   1.983
 1940SOL    HW2  947   3.079   1.350   2.074
 1942SOL     OW  948   3.355   1.767   2.821
 1942SOL    HW1  949   3.388   1.831   2.752
 1942SOL    HW2  950   3.421   1.761   2.896
 1945SOL     OW  951   2.252   1.741   3.422
 1945SOL    HW1  952   2.161   1.782   3.420
 1945SOL    HW2  953   2.245   1.647   3.454
 1948SOL     OW  954   2.456   0.745   2.514
 1948SOL    HW1  955   2.506   0.830   2.495
 1948SOL    HW2  956   2.368   0.747   2.466
 1951SOL     OW  957   2.721   1.374   1.878
 1951SOL    HW1  958   2.675   1.389   1.966
 1951SOL    HW2  959   2.765   1.459   1.848
 1952SOL     OW  960   2.523   1.790   2.815
 1952SOL    HW1  961   2.477   1.878   2.802
 1952SOL    HW2  962   2.622   1.802   2.808
 1953SOL     OW  963   2.721   0.956   2.723
 1953SOL    HW1  964   2.775   0.887   2.771
 1953SOL    HW2  965   2.689   1.025   2.789
 1954SOL     OW  966   2.945   0.984   1.949
 1954SOL    HW1  967   2.922   1.037   1.867
 1954SOL    HW2  968   3.026   0.928   1.930
 1955SOL     OW  969   3.723   1.569   2.713
 1955SOL    HW1  970   3.652   1.557   2.643
 1955SOL    HW2  971   3.724   1.490   2.773
 1956SOL     OW  972   2.083   1.314   3.706
 1956SOL    HW1  973   2.018   1.241   3.685
 1956SOL    HW2  974   2.087   1.328   3.804
 1957SOL     OW  975   1.941   1.240   2.515
 1957SOL    HW1  976   1.940   1.193   2.603
 1957SOL    HW2  977   2.023   1.212   2.464
 1958SOL     OW  978   2.534   1.391   3.486
 1958SOL    HW1  979   2.456   1.341   3.524
 1958SOL    HW2  980   2.531   1.486   3.517
 1961SOL     OW  981   3.567   1.487   2.966
 1961SOL    HW1  982   3.474   1.462   2.939
 1961SOL    HW2  983   3.593   1.437   3.048
 1963SOL     OW  984   2.674   1.586   2.549
 1963SOL    HW1  985   2.706   1.596   2.455
 1963SOL    HW2  986   2.595   1.524   2.551
 1966SOL     OW  987   2.632   1.330   2.163
 1966SOL    HW1  988   2.586   1.243   2.180
 1966SOL    HW2  989   2.723   1.327   2.204
 1967SOL     OW  990   2.480   1.567   3.146
 1967SOL    HW1  991   2.475   1.649   3.203
 1967SOL    HW2  992   2.569   1.564   3.101
 1971SOL     OW  993   1.901   1.077   2.162
 1971SOL    HW1  994   2.000   1.066   2.153
 1971SOL    HW2  995   1.861   0.991   2.194
 1972SOL     OW  996   2.737   1.646   2.199
 1972SOL    HW1  997   2.660   1.611   2.145
 1972SOL    HW2  998   2.705   1.717   2.261
 1990SOL     OW  999   1.889   1.596   3.841
 1990SOL    HW1 1000   1.870   1.500   3.862
 1990SOL    HW2 1001   1.856   1.654   3.916
 2012SOL     OW 1002   2.973   1.776   3.961
 2012SOL    HW1 1003   2.913   1.714   4.011
 2012SOL    HW2 1004   3.004   1.732   3.876
 2014SOL     OW 1005   2.326   1.743   4.047
 2014SOL    HW1 1006   2.359   1.782   4.133
 2014SOL    HW2 1007   2.402   1.736   3.982
 2036SOL     OW 1008   2.350   1.385   3.898
 2036SOL    HW1 1009   2.263   1.370   3.945
 2036SOL    HW2 1010   2.333   1.411   3.803
 2084SOL     OW 1011   2.534   1.616   3.878
 2084SOL    HW1 1012   2.543   1.626   3.779
 2084SOL    HW2 1013   2.494   1.527   3.899
 2088SOL     OW 1014   3.056   1.612   3.755
 2088SOL    HW1 1015   3.062   1.519   3.792
 2088SOL    HW2 1016   2.997   1.612   3.675
 2091SOL     OW 1017   3.366   1.607   3.768
 2091SOL    HW1 1018   3.274   1.644   3.775
 2091SOL    HW2 1019   3.404   1.627   3.678
 2105SOL     OW 1020   2.721   1.374   3.740
 2105SOL    HW1 1021   2.675   1.389   3.828
 2105SOL    HW2 1022   2.765   1.459   3.710
 2122SOL     OW 1023   2.737   1.646   4.061
 2122SOL    HW1 1024   2.660   1.611   4.007
 2122SOL    HW2 1025   2.705   1.717   4.123
 2124SOL     OW 1026   2.087   2.137   0.996
 2124SOL    HW1 1027   2.122   2.120   1.088
 2124SOL    HW2 1028   1.999   2.092   0.984
 2126SOL     OW 1029   2.431   3.137   1.165
 2126SOL    HW1 1030   2.338   3.130   1.128
 2126SOL    HW2 1031   2.442   3.226   1.209
 2130SOL     OW 1032   2.630   3.006   1.023
 2130SOL    HW1 1033   2.552   3.023   1.083
 2130SOL    HW2 1034   2.664   3.093   0.987
 2131SOL     OW 1035   2.712   2.660   1.823
 2131SOL    HW1 1036   2.708   2.736   1.888
 2131SOL    HW2 1037   2.734   2.696   1.732
 2133SOL     OW 1038   2.548   3.023   1.803
 2133SOL    HW1 1039   2.608   3.102   1.817
 2133SOL    HW2 1040   2.462   3.054   1.762
 2134SOL     OW 1041   2.197   3.297   1.061
 2134SOL    HW1 1042   2.119   3.266   1.008
 2134SOL    HW2 1043   2.255   3.355   1.004
 2135SOL     OW 1044   3.322   3.367   1.339
 2135SOL    HW1 1045   3.346   3.461   1.365
 2135SOL    HW2 1046   3.306   3.313   1.421
 2136SOL     OW 1047   2.300   2.254   1.499
 2136SOL    HW1 1048   2.382   2.198   1.508
 2136SOL    HW2 1049   2.219   2.196   1.503
 2139SOL     OW 1050   2.989   3.203   1.690
 2139SOL    HW1 1051   3.036   3.203   1.778
 2139SOL    HW2 1052   2.941   3.116   1.679
 2141SOL     OW 1053   2.102   2.953   0.886
 2141SOL    HW1 1054   2.116   2.869   0.938
 2141SOL    HW2 1055   2.047   3.017   0.941
 2142SOL     OW 1056   2.482   3.648   1.439
 2142SOL    HW1 1057   2.390   3.631   1.474
 2142SOL    HW2 1058   2.510   3.740   1.465
 2144SOL     OW 1059   3.456   1.976   1.480
 2144SOL    HW1 1060   3.438   2.043   1.408
 2144SOL    HW2 1061   3.453   2.022   1.569
 2150SOL     OW 1062   1.975   2.599   1.597
 2150SOL    HW1 1063   2.063   2.586   1.642
 2150SOL    HW2 1064   1.962   2.696   1.575
 2152SOL     OW 1065   3.155   3.090   1.423
 2152SOL    HW1 1066   3.192   3.017   1.365
 2152SOL    HW2 1067   3.207   3.095   1.508
 2154SOL     OW 1068   2.059   2.838   1.264
 2154SOL    HW1 1069   2.148   2.793   1.250
 2154SOL    HW2 1070   1.986   2.773   1.245
 2156SOL     OW 1071   3.049   3.654   1.616
 2156SOL    HW1 1072   3.073   3.714   1.540
 2156SOL    HW2 1073   3.056   3.559   1.586
 2157SOL     OW 1074   2.179   2.113   1.801
 2157SOL    HW1 1075   2.250   2.184   1.807
 2157SOL    HW2 1076   2.091   2.152   1.829
 2161SOL     OW 1077   3.143   2.207   0.944
 2161SOL    HW1 1078   3.057   2.157   0.931
 2161SOL    HW2 1079   3.205   2.153   1.000
 2163SOL     OW 1080   2.669   2.467   1.465
 2163SOL    HW1 1081   2.622   2.464   1.554
 2163SOL    HW2 1082   2.618   2.412   1.399
 2164SOL     OW 1083   3.256   2.331   1.674
 2164SOL    HW1 1084   3.236   2.374   1.762
 2164SOL    HW2 1085   3.334   2.269   1.683
 2165SOL     OW 1086   2.835   2.752   1.572
 2165SOL    HW1 1087   2.881   2.668   1.543
 2165SOL    HW2 1088   2.779   2.786   1.497
 2166SOL     OW 1089   2.853   2.272   1.242
 2166SOL    HW1 1090   2.776   2.306   1.296
 2166SOL    HW2 1091   2.819   2.221   1.163
 2169SOL     OW 1092   1.992   3.683   1.571
 2169SOL    HW1 1093   1.982   3.668   1.670
 2169SOL    HW2 1094   1.906   3.719   1.535
 2171SOL     OW 1095   3.581   2.447   1.831
 2171SOL    HW1 1096   3.555   2.536   1.795
 2171SOL    HW2 1097   3.579   2.379   1.758
 2173SOL     OW 1098   2.412   2.058   0.885
 2173SOL    HW1 1099   2.407   2.053   0.985
 2173SOL    HW2 1100   2.414   2.154   0.856
 2177SOL     OW 1101   3.089   3.412   1.506
 2177SOL    HW1 1102   3.095   3.335   1.570
 2177SOL    HW2 1103   3.037   3.386   1.426
 2180SOL     OW 1104   2.323   3.128   1.727
 2180SOL    HW1 1105   2.273   3.129   1.641
 2180SOL    HW2 1106   2.260   3.110   1.803
 2182SOL     OW 1107   2.064   2.147   1.498
 2182SOL    HW1 1108   1.984   2.207   1.485
 2182SOL    HW2 1109   2.054   2.098   1.584
 2186SOL     OW 1110   2.111   3.647   1.241
 2186SOL    HW1 1111   2.168   3.582   1.291
 2186SOL    HW2 1112   2.095   3.614   1.148
 2189SOL     OW 1113   3.409   2.084   1.729
 2189SOL    HW1 1114   3.404   2.121   1.821
 2189SOL    HW2 1115   3.337   2.015   1.717
 2191SOL     OW 1116   2.643   2.126   1.749
 2191SOL    HW1 1117   2.710   2.065   1.792
 2191SOL    HW2 1118   2.570   2.145   1.814
 2192SOL     OW 1119   2.750   3.376   1.195
 2192SOL    HW1 1120   2.727   3.351   1.101
 2192SOL    HW2 1121   2.811   3.307   1.234
 2193SOL     OW 1122   3.213   2.452   1.433
 2193SOL    HW1 1123   3.241   2.409   1.518
 2193SOL    HW2 1124   3.238   2.548   1.434
 2194SOL     OW 1125   2.665   3.264   0.924
 2194SOL    HW1 1126   2.755   3.278   0.882
 2194SOL    HW2 1127   2.594   3.266   0.853
 2195SOL     OW 1128   2.784   2.365   0.899
 2195SOL    HW1 1129   2.759   2.356   0.803
 2195SOL    HW2 1130   2.832   2.283   0.930
 2200SOL     OW 1131   2.938   2.545   1.464
 2200SOL    HW1 1132   2.858   2.484   1.467
 2200SOL    HW2 1133   3.019   2.492   1.440
 2205SOL     OW 1134   1.940   2.418   1.386
 2205SOL    HW1 1135   2.032   2.417   1.345
 2205SOL    HW2 1136   1.934   2.492   1.453
 2206SOL     OW 1137   2.423   2.084   1.147
 2206SOL    HW1 1138   2.461   2.000   1.184
 2206SOL    HW2 1139   2.335   2.103   1.191
 2210SOL     OW 1140   3.328   2.452   0.992
 2210SOL    HW1 1141   3.298   2.357   0.999
 2210SOL    HW2 1142   3.401   2.468   1.058
 2216SOL     OW 1143   3.616   3.085   1.588
 2216SOL    HW1 1144   3.707   3.046   1.575
 2216SOL    HW2 1145   3.624   3.181   1.612
 2217SOL     OW 1146   2.926   3.209   1.340
 2217SOL    HW1 1147   2.846   3.186   1.395
 2217SOL    HW2 1148   3.009   3.183   1.389
 2218SOL     OW 1149   3.454   3.491   1.625
 2218SOL    HW1 1150   3.481   3.525   1.535
 2218SOL    HW2 1151   3.533   3.453   1.671
 2219SOL     OW 1152   2.973   3.057   1.100
 2219SOL    HW1 1153   2.933   3.101   1.181
 2219SOL    HW2 1154   2.932   3.094   1.017
 2220SOL     OW 1155   3.500   2.961   1.079
 2220SOL    HW1 1156   3.505   3.042   1.138
 2220SOL    HW2 1157   3.414   2.963   1.028
 2221SOL     OW 1158   2.777   1.951   1.402
 2221SOL    HW1 1159   2.802   1.931   1.307
 2221SOL    HW2 1160   2.849   2.007   1.444
 2222SOL     OW 1161   2.842   2.978   1.719
 2222SOL    HW1 1162   2.743   2.984   1.729
 2222SOL    HW2 1163   2.865   2.898   1.663
 2224SOL     OW 1164   2.272   2.675   1.251
 2224SOL    HW1 1165   2.358   2.687   1.301
 2224SOL    HW2 1166   2.230   2.588   1.278
 2225SOL     OW 1167   3.136   2.248   1.262
 2225SOL    HW1 1168   3.157   2.322   1.326
 2225SOL    HW2 1169   3.047   2.265   1.219
 2226SOL     OW 1170   1.926   3.426   1.331
 2226SOL    HW1 1171   1.880   3.508   1.297
 2226SOL    HW2 1172   2.024   3.445   1.340
 2228SOL     OW 1173   2.428   2.399   0.865
 2228SOL    HW1 1174   2.440   2.465   0.791
 2228SOL    HW2 1175   2.474   2.433   0.948
 2230SOL     OW 1176   3.134   3.307   1.142
 2230SOL    HW1 1177   3.181   3.320   1.229
 2230SOL    HW2 1178   3.068   3.233   1.151
 2232SOL     OW 1179   2.216   3.372   1.329
 2232SOL    HW1 1180   2.195   3.328   1.242
 2232SOL    HW2 1181   2.313   3.398   1.332
 2233SOL     OW 1182   2.264   2.613   1.598
 2233SOL    HW1 1183   2.332   2.668   1.551
 2233SOL    HW2 1184   2.304   2.525   1.625
 2234SOL     OW 1185   3.449   2.641   1.670
 2234SOL    HW1 1186   3.357   2.679   1.665
 2234SOL    HW2 1187   3.509   2.688   1.605
 2235SOL     OW 1188   2.875   1.967   1.770
 2235SOL    HW1 1189   2.881   2.052   1.718
 2235SOL    HW2 1190   2.907   1.891   1.713
 2236SOL     OW 1191   2.366   1.912   1.740
 2236SOL    HW1 1192   2.324   1.855   1.670
 2236SOL    HW2 1193   2.300   1.981   1.772
 2237SOL     OW 1194   2.435   2.732   1.029
 2237SOL    HW1 1195   2.479   2.821   1.020
 2237SOL    HW2 1196   2.372   2.732   1.106
 2238SOL     OW 1197   3.222   2.724   1.045
 2238SOL    HW1 1198   3.147   2.724   0.979
 2238SOL    HW2 1199   3.259   2.632   1.054
 2240SOL     OW 1200   2.169   2.075   1.231
 2240SOL    HW1 1201   2.146   2.112   1.321
 2240SOL    HW2 1202   2.139   1.980   1.225
 2241SOL     OW 1203   1.899   3.172   1.282
 2241SOL    HW1 1204   1.952   3.123   1.350
 2241SOL    HW2 1205   1.921   3.270   1.287
 2242SOL     OW 1206   2.594   2.496   1.064
 2242SOL    HW1 1207   2.653   2.470   0.988
 2242SOL    HW2 1208   2.566   2.592   1.053
 2243SOL     OW 1209   3.590   2.797   1.854
 2243SOL    HW1 1210   3.544   2.790   1.765
 2243SOL    HW2 1211   3.528   2.841   1.920
 2246SOL     OW 1212   2.885   2.628   0.966
 2246SOL    HW1 1213   2.900   2.649   1.062
 2246SOL    HW2 1214   2.855   2.533   0.957
 2247SOL     OW 1215   2.842   3.435   1.700
 2247SOL    HW1 1216   2.822   3.479   1.612
 2247SOL    HW2 1217   2.881   3.344   1.684
 2248SOL     OW 1218   3.721   3.380   1.605
 2248SOL    HW1 1219   3.735   3.407   1.510
 2248SOL    HW2 1220   3.804   3.402   1.658
 2249SOL     OW 1221   2.212   2.760   1.804
 2249SOL    HW1 1222   2.288   2.804   1.852
 2249SOL    HW2 1223   2.247   2.713   1.722
 2253SOL     OW 1224   2.181   2.672   0.949
 2253SOL    HW1 1225   2.274   2.708   0.954
 2253SOL    HW2 1226   2.175   2.587   1.001
 2254SOL     OW 1227   2.201   2.371   1.006
 2254SOL    HW1 1228   2.149   2.288   0.989
 2254SOL    HW2 1229   2.278   2.376   0.942
 2255SOL     OW 1230   3.000   2.242   1.678
 2255SOL    HW1 1231   2.955   2.305   1.742
 2255SOL    HW2 1232   3.093   2.273   1.661
 2256SOL     OW 1233   3.022   2.069   1.477
 2256SOL    HW1 1234   3.022   2.133   1.554
 2256SOL    HW2 1235   3.050   2.117   1.394
 2260SOL     OW 1236   2.864   2.658   1.238
 2260SOL    HW1 1237   2.905   2.626   1.324
 2260SOL    HW2 1238   2.768   2.631   1.235
 2261SOL     OW 1239   1.902   2.406   1.114
 2261SOL    HW1 1240   1.987   2.373   1.073
 2261SOL    HW2 1241   1.915   2.421   1.212
 2262SOL     OW 1242   2.051   2.382   1.722
 2262SOL    HW1 1243   2.110   2.342   1.652
 2262SOL    HW2 1244   1.993   2.453   1.681
 2263SOL     OW 1245   3.231   2.812   1.660
 2263SOL    HW1 1246   3.270   2.901   1.680
 2263SOL    HW2 1247   3.241   2.792   1.563
 2265SOL     OW 1248   3.519   2.466   1.206
 2265SOL    HW1 1249   3.481   2.397   1.268
 2265SOL    HW2 1250   3.601   2.430   1.162
 2266SOL     OW 1251   2.114   3.426   1.744
 2266SOL    HW1 1252   2.084   3.483   1.820
 2266SOL    HW2 1253   2.107   3.329   1.770
 2267SOL     OW 1254   2.533   2.326   1.269
 2267SOL    HW1 1255   2.499   2.237   1.239
 2267SOL    HW2 1256   2.559   2.380   1.189
 2268SOL     OW 1257   2.792   3.540   1.465
 2268SOL    HW1 1258   2.768   3.522   1.370
 2268SOL    HW2 1259   2.822   3.634   1.475
 2270SOL     OW 1260   2.021   2.999   1.466
 2270SOL    HW1 1261   2.043   2.938   1.542
 2270SOL    HW2 1262   2.031   2.950   1.380
 2271SOL     OW 1263   3.209   2.921   1.234
 2271SOL    HW1 1264   3.233   2.858   1.160
 2271SOL    HW2 1265   3.119   2.961   1.216
 2275SOL     OW 1266   1.945   3.120   1.022
 2275SOL    HW1 1267   1.940   3.119   1.122
 2275SOL    HW2 1268   1.862   3.079   0.984
 2276SOL     OW 1269   2.550   3.524   1.716
 2276SOL    HW1 1270   2.494   3.605   1.725
 2276SOL    HW2 1271   2.602   3.528   1.630
 2280SOL     OW 1272   1.992   3.656   1.851
 2280SOL    HW1 1273   1.951   3.582   1.904
 2280SOL    HW2 1274   2.056   3.707   1.909
 2282SOL     OW 1275   2.692   3.135   1.422
 2282SOL    HW1 1276   2.687   3.168   1.517
 2282SOL    HW2 1277   2.606   3.154   1.376
 2288SOL     OW 1278   2.684   2.864   1.372
 2288SOL    HW1 1279   2.724   2.863   1.280
 2288SOL    HW2 1280   2.694   2.956   1.412
 2291SOL     OW 1281   2.234   3.150   1.490
 2291SOL    HW1 1282   2.221   3.243   1.456
 2291SOL    HW2 1283   2.150   3.098   1.477
 2292SOL     OW 1284   3.476   3.154   1.289
 2292SOL    HW1 1285   3.536   3.157   1.369
 2292SOL    HW2 1286   3.401   3.218   1.302
 2294SOL     OW 1287   2.876   2.098   0.971
 2294SOL    HW1 1288   2.868   2.062   0.878
 2294SOL    HW2 1289   2.874   2.022   1.036
 2296SOL     OW 1290   3.571   2.247   1.381
 2296SOL    HW1 1291   3.644   2.316   1.385
 2296SOL    HW2 1292   3.599   2.172   1.322
 2298SOL     OW 1293   1.967   2.875   1.726
 2298SOL    HW1 1294   1.890   2.842   1.780
 2298SOL    HW2 1295   2.052   2.845   1.768
 2299SOL     OW 1296   2.534   2.065   1.489
 2299SOL    HW1 1297   2.624   2.049   1.449
 2299SOL    HW2 1298   2.542   2.070   1.588
 2300SOL     OW 1299   3.302   2.718   1.398
 2300SOL    HW1 1300   3.245   2.770   1.335
 2300SOL    HW2 1301   3.398   2.730   1.374
 2303SOL     OW 1302   2.475   2.704   1.431
 2303SOL    HW1 1303   2.531   2.785   1.414
 2303SOL    HW2 1304   2.534   2.624   1.434
 2305SOL     OW 1305   2.578   2.427   1.708
 2305SOL    HW1 1306   2.597   2.492   1.782
 2305SOL    HW2 1307   2.638   2.347   1.717
 2306SOL     OW 1308   3.312   3.082   1.633
 2306SOL    HW1 1309   3.303   3.072   1.732
 2306SOL    HW2 1310   3.408   3.075   1.607
 2307SOL     OW 1311   2.252   3.603   1.560
 2307SOL    HW1 1312   2.161   3.644   1.558
 2307SOL    HW2 1313   2.245   3.509   1.592
 2308SOL     OW 1314   3.536   2.745   1.254
 2308SOL    HW1 1315   3.509   2.656   1.217
 2308SOL    HW2 1316   3.537   2.813   1.181
 2311SOL     OW 1317   3.639   2.204   1.642
 2311SOL    HW1 1318   3.622   2.235   1.548
 2311SOL    HW2 1319   3.555   2.167   1.680
 2312SOL     OW 1320   3.592   2.796   1.517
 2312SOL    HW1 1321   3.630   2.887   1.532
 2312SOL    HW2 1322   3.584   2.779   1.418
 2315SOL     OW 1323   2.721   2.818   0.861
 2315SOL    HW1 1324   2.775   2.749   0.909
 2315SOL    HW2 1325   2.689   2.887   0.927
 2318SOL     OW 1326   2.083   3.176   1.844
 2318SOL    HW1 1327   2.018   3.103   1.823
 2318SOL    HW2 1328   2.087   3.190   1.942
 2320SOL     OW 1329   2.534   3.253   1.624
 2320SOL    HW1 1330   2.456   3.203   1.662
 2320SOL    HW2 1331   2.531   3.348   1.655
 2324SOL     OW 1332   2.179   2.409   1.280
 2324SOL    HW1 1333   2.217   2.350   1.352
 2324SOL    HW2 1334   2.219   2.383   1.192
 2326SOL     OW 1335   3.286   2.076   1.112
 2326SOL    HW1 1336   3.338   2.011   1.167
 2326SOL    HW2 1337   3.237   2.139   1.173
 2327SOL     OW 1338   2.863   1.896   1.154
 2327SOL    HW1 1339   2.800   1.824   1.123
 2327SOL    HW2 1340   2.956   1.860   1.154
 2329SOL     OW 1341   2.480   3.429   1.284
 2329SOL    HW1 1342   2.475   3.511   1.341
 2329SOL    HW2 1343   2.569   3.426   1.239
 2335SOL     OW 1344   2.092   2.490   1.975
 2335SOL    HW1 1345   1.999   2.488   2.012
 2335SOL    HW2 1346   2.093   2.451   1.883
 2336SOL     OW 1347   2.087   2.137   2.858
 2336SOL    HW1 1348   2.122   2.120   2.950
 2336SOL    HW2 1349   1.999   2.092   2.846
 2337SOL     OW 1350   1.881   2.230   2.509
 2337SOL    HW1 1351   1.799   2.273   2.548
 2337SOL    HW2 1352   1.853   2.157   2.446
 2338SOL     OW 1353   2.431   3.137   3.027
 2338SOL    HW1 1354   2.338   3.130   2.990
 2338SOL    HW2 1355   2.442   3.226   3.071
 2339SOL     OW 1356   3.417   3.373   2.565
 2339SOL    HW1 1357   3.360   3.357   2.646
 2339SOL    HW2 1358   3.358   3.383   2.485
 2340SOL     OW 1359   3.617   2.469   2.093
 2340SOL    HW1 1360   3.605   2.456   1.994
 2340SOL    HW2 1361   3.587   2.388   2.142
 2341SOL     OW 1362   2.630   3.006   2.885
 2341SOL    HW1 1363   2.552   3.023   2.945
 2341SOL    HW2 1364   2.664   3.093   2.849
 2342SOL     OW 1365   2.712   2.660   3.685
 2342SOL    HW1 1366   2.708   2.736   3.750
 2342SOL    HW2 1367   2.734   2.696   3.594
 2343SOL     OW 1368   2.548   3.023   3.665
 2343SOL    HW1 1369   2.608   3.102   3.679
 2343SOL    HW2 1370   2.462   3.054   3.624
 2344SOL     OW 1371   2.197   3.297   2.923
 2344SOL    HW1 1372   2.119   3.266   2.870
 2344SOL    HW2 1373   2.255   3.355   2.866
 2345SOL     OW 1374   3.322   3.367   3.201
 2345SOL    HW1 1375   3.346   3.461   3.227
 2345SOL    HW2 1376   3.306   3.313   3.283
 2346SOL     OW 1377   2.300   2.254   3.361
 2346SOL    HW1 1378   2.382   2.198   3.370
 2346SOL    HW2 1379   2.219   2.196   3.365
 2347SOL     OW 1380   3.465   2.309   2.599
 2347SOL    HW1 1381   3.391   2.355   2.549
 2347SOL    HW2 1382   3.516   2.377   2.652
 2348SOL     OW 1383   2.093   3.575   2.345
 2348SOL    HW1 1384   2.127   3.652   2.399
 2348SOL    HW2 1385   2.137   3.575   2.255
 2349SOL     OW 1386   2.989   3.203   3.552
 2349SOL    HW1 1387   3.036   3.203   3.640
 2349SOL    HW2 1388   2.941   3.116   3.541
 2350SOL     OW 1389   2.092   3.296   2.400
 2350SOL    HW1 1390   2.066   3.392   2.400
 2350SOL    HW2 1391   2.021   3.242   2.445
 2351SOL     OW 1392   2.102   2.953   2.748
 2351SOL    HW1 1393   2.116   2.869   2.800
 2351SOL    HW2 1394   2.047   3.017   2.803
 2352SOL     OW 1395   2.482   3.648   3.301
 2352SOL    HW1 1396   2.390   3.631   3.336
 2352SOL    HW2 1397   2.510   3.740   3.327
 2353SOL     OW 1398   2.468   2.826   1.985
 2353SOL    HW1 1399   2.475   2.910   1.931
 2353SOL    HW2 1400   2.514   2.839   2.073
 2354SOL     OW 1401   3.456   1.976   3.342
 2354SOL    HW1 1402   3.438   2.043   3.270
 2354SOL    HW2 1403   3.453   2.022   3.431
 2355SOL     OW 1404   1.984   2.505   2.425
 2355SOL    HW1 1405   1.939   2.417   2.442
 2355SOL    HW2 1406   1.983   2.559   2.509
 2356SOL     OW 1407   3.704   3.629   2.221
 2356SOL    HW1 1408   3.758   3.600   2.301
 2356SOL    HW2 1409   3.734   3.719   2.192
 2357SOL     OW 1410   1.889   3.458   1.979
 2357SOL    HW1 1411   1.870   3.362   2.000
 2357SOL    HW2 1412   1.856   3.516   2.054
 2358SOL     OW 1413   3.551   2.784   2.474
 2358SOL    HW1 1414   3.646   2.755   2.482
 2358SOL    HW2 1415   3.543   2.849   2.399
 2359SOL     OW 1416   3.503   2.970   2.294
 2359SOL    HW1 1417   3.589   2.972   2.242
 2359SOL    HW2 1418   3.517   3.017   2.382
 2360SOL     OW 1419   1.975   2.599   3.459
 2360SOL    HW1 1420   2.063   2.586   3.504
 2360SOL    HW2 1421   1.962   2.696   3.437
 2361SOL     OW 1422   2.475   3.227   2.588
 2361SOL    HW1 1423   2.426   3.140   2.597
 2361SOL    HW2 1424   2.452   3.270   2.501
 2362SOL     OW 1425   3.155   3.090   3.285
 2362SOL    HW1 1426   3.192   3.017   3.227
 2362SOL    HW2 1427   3.207   3.095   3.370
 2363SOL     OW 1428   2.671   1.866   2.364
 2363SOL    HW1 1429   2.711   1.957   2.355
 2363SOL    HW2 1430   2.571   1.874   2.370
 2364SOL     OW 1431   2.059   2.838   3.126
 2364SOL    HW1 1432   2.148   2.793   3.112
 2364SOL    HW2 1433   1.986   2.773   3.107
 2365SOL     OW 1434   3.387   2.861   2.052
 2365SOL    HW1 1435   3.324   2.785   2.065
 2365SOL    HW2 1436   3.435   2.879   2.138
 2366SOL     OW 1437   3.049   3.654   3.478
 2366SOL    HW1 1438   3.073   3.714   3.402
 2366SOL    HW2 1439   3.056   3.559   3.448
 2367SOL     OW 1440   2.179   2.113   3.663
 2367SOL    HW1 1441   2.250   2.184   3.669
 2367SOL    HW2 1442   2.091   2.152   3.691
 2368SOL     OW 1443   3.328   3.279   2.815
 2368SOL    HW1 1444   3.269   3.285   2.895
 2368SOL    HW2 1445   3.313   3.191   2.769
 2369SOL     OW 1446   3.529   3.576   2.434
 2369SOL    HW1 1447   3.488   3.553   2.346
 2369SOL    HW2 1448   3.511   3.502   2.499
 2370SOL     OW 1449   2.460   2.591   2.132
 2370SOL    HW1 1450   2.484   2.660   2.064
 2370SOL    HW2 1451   2.382   2.624   2.186
 2371SOL     OW 1452   3.143   2.207   2.806
 2371SOL    HW1 1453   3.057   2.157   2.793
 2371SOL    HW2 1454   3.205   2.153   2.862
 2372SOL     OW 1455   3.438   3.524   2.169
 2372SOL    HW1 1456   3.527   3.570   2.172
 2372SOL    HW2 1457   3.417   3.500   2.074
 2373SOL     OW 1458   2.669   2.467   3.327
 2373SOL    HW1 1459   2.622   2.464   3.416
 2373SOL    HW2 1460   2.618   2.412   3.261
 2374SOL     OW 1461   3.256   2.331   3.536
 2374SOL    HW1 1462   3.236   2.374   3.624
 2374SOL    HW2 1463   3.334   2.269   3.545
 2375SOL     OW 1464   2.835   2.752   3.434
 2375SOL    HW1 1465   2.881   2.668   3.405
 2375SOL    HW2 1466   2.779   2.786   3.359
 2376SOL     OW 1467   2.853   2.272   3.104
 2376SOL    HW1 1468   2.776   2.306   3.158
 2376SOL    HW2 1469   2.819   2.221   3.025
 2377SOL     OW 1470   2.903   2.563   2.291
 2377SOL    HW1 1471   2.929   2.559   2.387
 2377SOL    HW2 1472   2.818   2.512   2.277
 2378SOL     OW 1473   1.938   2.673   2.651
 2378SOL    HW1 1474   2.037   2.661   2.660
 2378SOL    HW2 1475   1.914   2.768   2.672
 2379SOL     OW 1476   1.992   3.683   3.433
 2379SOL    HW1 1477   1.982   3.668   3.532
 2379SOL    HW2 1478   1.906   3.719   3.397
 2380SOL     OW 1479   2.727   2.210   2.057
 2380SOL    HW1 1480   2.786   2.273   2.008
 2380SOL    HW2 1481   2.746   2.116   2.028
 2381SOL     OW 1482   3.581   2.447   3.693
 2381SOL    HW1 1483   3.555   2.536   3.657
 2381SOL    HW2 1484   3.579   2.379   3.620
 2382SOL     OW 1485   3.224   3.006   2.407
 2382SOL    HW1 1486   3.307   2.977   2.359
 2382SOL    HW2 1487   3.175   3.073   2.351
 2383SOL     OW 1488   2.412   2.058   2.747
 2383SOL    HW1 1489   2.407   2.053   2.847
 2383SOL    HW2 1490   2.414   2.154   2.718
 2384SOL     OW 1491   2.870   3.318   2.339
 2384SOL    HW1 1492   2.824   3.390   2.287
 2384SOL    HW2 1493   2.866   3.338   2.437
 2385SOL     OW 1494   2.213   3.663   2.715
 2385SOL    HW1 1495   2.263   3.577   2.721
 2385SOL    HW2 1496   2.278   3.740   2.712
 2386SOL     OW 1497   3.657   2.928   2.735
 2386SOL    HW1 1498   3.595   2.913   2.659
 2386SOL    HW2 1499   3.605   2.939   2.820
 2387SOL     OW 1500   3.089   3.412   3.368
 2387SOL    HW1 1501   3.095   3.335   3.432
 2387SOL    HW2 1502   3.037   3.386   3.288
 2388SOL     OW 1503   2.183   2.805   2.104
 2388SOL    HW1 1504   2.265   2.844   2.062
 2388SOL    HW2 1505   2.156   2.723   2.055
 2389SOL     OW 1506   3.320   2.597   2.590
 2389SOL    HW1 1507   3.315   2.532   2.665
 2389SOL    HW2 1508   3.400   2.656   2.603
 2390SOL     OW 1509   2.323   3.128   3.589
 2390SOL    HW1 1510   2.273   3.129   3.503
 2390SOL    HW2 1511   2.260   3.110   3.665
 2391SOL     OW 1512   2.973   3.638   2.099
 2391SOL    HW1 1513   2.913   3.576   2.149
 2391SOL    HW2 1514   3.004   3.594   2.014
 2392SOL     OW 1515   2.064   2.147   3.360
 2392SOL    HW1 1516   1.984   2.207   3.347
 2392SOL    HW2 1517   2.054   2.098   3.446
 2393SOL     OW 1518   3.494   3.239   1.943
 2393SOL    HW1 1519   3.462   3.333   1.933
 2393SOL    HW2 1520   3.418   3.176   1.931
 2394SOL     OW 1521   2.326   3.605   2.185
 2394SOL    HW1 1522   2.359   3.644   2.271
 2394SOL    HW2 1523   2.402   3.598   2.120
 2395SOL     OW 1524   3.262   1.969   2.288
 2395SOL    HW1 1525   3.238   1.932   2.198
 2395SOL    HW2 1526   3.361   1.985   2.292
 2396SOL     OW 1527   2.111   3.647   3.103
 2396SOL    HW1 1528   2.168   3.582   3.153
 2396SOL    HW2 1529   2.095   3.614   3.010
 2397SOL     OW 1530   2.802   3.560   2.766
 2397SOL    HW1 1531   2.882   3.503   2.787
 2397SOL    HW2 1532   2.753   3.520   2.689
 2398SOL     OW 1533   3.409   2.084   3.591
 2398SOL    HW1 1534   3.404   2.121   3.683
 2398SOL    HW2 1535   3.337   2.015   3.579
 2399SOL     OW 1536   2.476   1.984   1.979
 2399SOL    HW1 1537   2.574   1.962   1.986
 2399SOL    HW2 1538   2.445   1.967   1.886
 2400SOL     OW 1539   2.643   2.126   3.611
 2400SOL    HW1 1540   2.710   2.065   3.654
 2400SOL    HW2 1541   2.570   2.145   3.676
 2401SOL     OW 1542   2.750   3.376   3.057
 2401SOL    HW1 1543   2.727   3.351   2.963
 2401SOL    HW2 1544   2.811   3.307   3.096
 2402SOL     OW 1545   3.213   2.452   3.295
 2402SOL    HW1 1546   3.241   2.409   3.380
 2402SOL    HW2 1547   3.238   2.548   3.296
 2403SOL     OW 1548   2.665   3.264   2.786
 2403SOL    HW1 1549   2.755   3.278   2.744
 2403SOL    HW2 1550   2.594   3.266   2.715
 2404SOL     OW 1551   2.784   2.365   2.761
 2404SOL    HW1 1552   2.759   2.356   2.665
 2404SOL    HW2 1553   2.832   2.283   2.792
 2405SOL     OW 1554   2.401   1.926   2.374
 2405SOL    HW1 1555   2.320   1.927   2.432
 2405SOL    HW2 1556   2.404   2.009   2.319
 2406SOL     OW 1557   3.296   3.050   1.903
 2406SOL    HW1 1558   3.328   2.974   1.960
 2406SOL    HW2 1559   3.204   3.077   1.933
 2407SOL     OW 1560   2.159   1.897   2.033
 2407SOL    HW1 1561   2.208   1.981   2.012
 2407SOL    HW2 1562   2.221   1.832   2.078
 2408SOL     OW 1563   2.797   2.098   2.342
 2408SOL    HW1 1564   2.749   2.139   2.264
 2408SOL    HW2 1565   2.896   2.096   2.323
 2409SOL     OW 1566   2.938   2.545   3.326
 2409SOL    HW1 1567   2.858   2.484   3.329
 2409SOL    HW2 1568   3.019   2.492   3.302
 2410SOL     OW 1569   3.089   3.432   2.655
 2410SOL    HW1 1570   3.110   3.506   2.590
 2410SOL    HW2 1571   3.157   3.432   2.728
 2411SOL     OW 1572   2.321   3.014   2.603
 2411SOL    HW1 1573   2.250   2.987   2.668
 2411SOL    HW2 1574   2.295   2.986   2.510
 2412SOL     OW 1575   3.133   3.659   2.453
 2412SOL    HW1 1576   3.177   3.723   2.389
 2412SOL    HW2 1577   3.083   3.711   2.523
 2413SOL     OW 1578   2.894   2.411   1.878
 2413SOL    HW1 1579   2.853   2.493   1.839
 2413SOL    HW2 1580   2.958   2.437   1.951
 2414SOL     OW 1581   1.940   2.418   3.248
 2414SOL    HW1 1582   2.032   2.417   3.207
 2414SOL    HW2 1583   1.934   2.492   3.315
 2415SOL     OW 1584   2.423   2.084   3.009
 2415SOL    HW1 1585   2.461   2.000   3.046
 2415SOL    HW2 1586   2.335   2.103   3.053
 2416SOL     OW 1587   2.879   1.901   2.615
 2416SOL    HW1 1588   2.807   1.906   2.546
 2416SOL    HW2 1589   2.855   1.832   2.684
 2417SOL     OW 1590   3.291   3.035   2.729
 2417SOL    HW1 1591   3.236   2.951   2.722
 2417SOL    HW2 1592   3.317   3.064   2.637
 2418SOL     OW 1593   3.328   2.452   2.854
 2418SOL    HW1 1594   3.298   2.357   2.861
 2418SOL    HW2 1595   3.401   2.468   2.920
 2419SOL     OW 1596   3.719   2.695   2.239
 2419SOL    HW1 1597   3.761   2.631   2.303
 2419SOL    HW2 1598   3.681   2.644   2.161
 2420SOL     OW 1599   2.350   3.247   2.036
 2420SOL    HW1 1600   2.263   3.232   2.083
 2420SOL    HW2 1601   2.333   3.273   1.941
 2421SOL     OW 1602   3.526   3.142   2.519
 2421SOL    HW1 1603   3.625   3.150   2.533
 2421SOL    HW2 1604   3.481   3.226   2.550
 2422SOL     OW 1605   3.252   2.437   1.940
 2422SOL    HW1 1606   3.198   2.416   2.021
 2422SOL    HW2 1607   3.343   2.396   1.949
 2423SOL     OW 1608   2.389   2.118   2.190
 2423SOL    HW1 1609   2.416   2.059   2.115
 2423SOL    HW2 1610   2.389   2.213   2.159
 2424SOL     OW 1611   3.616   3.085   3.450
 2424SOL    HW1 1612   3.707   3.046   3.437
 2424SOL    HW2 1613   3.624   3.181   3.474
 2425SOL     OW 1614   2.926   3.209   3.202
 2425SOL    HW1 1615   2.846   3.186   3.257
 2425SOL    HW2 1616   3.009   3.183   3.251
 2426SOL     OW 1617   3.454   3.491   3.487
 2426SOL    HW1 1618   3.481   3.525   3.397
 2426SOL    HW2 1619   3.533   3.453   3.533
 2427SOL     OW 1620   2.973   3.057   2.962
 2427SOL    HW1 1621   2.933   3.101   3.043
 2427SOL    HW2 1622   2.932   3.094   2.879
 2428SOL     OW 1623   3.500   2.961   2.941
 2428SOL    HW1 1624   3.505   3.042   3.000
 2428SOL    HW2 1625   3.414   2.963   2.890
 2429SOL     OW 1626   2.777   1.951   3.264
 2429SOL    HW1 1627   2.802   1.931   3.169
 2429SOL    HW2 1628   2.849   2.007   3.306
 2430SOL     OW 1629   2.842   2.978   3.581
 2430SOL    HW1 1630   2.743   2.984   3.591
 2430SOL    HW2 1631   2.865   2.898   3.525
 2431SOL     OW 1632   2.567   2.912   2.230
 2431SOL    HW1 1633   2.553   2.919   2.329
 2431SOL    HW2 1634   2.651   2.861   2.212
 2432SOL     OW 1635   2.272   2.675   3.113
 2432SOL    HW1 1636   2.358   2.687   3.163
 2432SOL    HW2 1637   2.230   2.588   3.140
 2433SOL     OW 1638   3.136   2.248   3.124
 2433SOL    HW1 1639   3.157   2.322   3.188
 2433SOL    HW2 1640   3.047   2.265   3.081
 2434SOL     OW 1641   1.926   3.426   3.193
 2434SOL    HW1 1642   1.880   3.508   3.159
 2434SOL    HW2 1643   2.024   3.445   3.202
 2435SOL     OW 1644   2.229   2.962   2.363
 2435SOL    HW1 1645   2.222   3.045   2.307
 2435SOL    HW2 1646   2.233   2.882   2.303
 2436SOL     OW 1647   3.114   3.210   2.250
 2436SOL    HW1 1648   3.164   3.287   2.290
 2436SOL    HW2 1649   3.019   3.212   2.282
 2437SOL     OW 1650   3.134   3.307   3.004
 2437SOL    HW1 1651   3.181   3.320   3.091
 2437SOL    HW2 1652   3.068   3.233   3.013
 2438SOL     OW 1653   3.444   2.501   2.334
 2438SOL    HW1 1654   3.413   2.562   2.407
 2438SOL    HW2 1655   3.494   2.553   2.265
 2439SOL     OW 1656   2.216   3.372   3.191
 2439SOL    HW1 1657   2.195   3.328   3.104
 2439SOL    HW2 1658   2.313   3.398   3.194
 2440SOL     OW 1659   2.264   2.613   3.460
 2440SOL    HW1 1660   2.332   2.668   3.413
 2440SOL    HW2 1661   2.304   2.525   3.487
 2441SOL     OW 1662   3.449   2.641   3.532
 2441SOL    HW1 1663   3.357   2.679   3.527
 2441SOL    HW2 1664   3.509   2.688   3.467
 2442SOL     OW 1665   2.875   1.967   3.632
 2442SOL    HW1 1666   2.881   2.052   3.580
 2442SOL    HW2 1667   2.907   1.891   3.575
 2443SOL     OW 1668   2.366   1.912   3.602
 2443SOL    HW1 1669   2.324   1.855   3.532
 2443SOL    HW2 1670   2.300   1.981   3.634
 2444SOL     OW 1671   2.435   2.732   2.891
 2444SOL    HW1 1672   2.479   2.821   2.882
 2444SOL    HW2 1673   2.372   2.732   2.968
 2445SOL     OW 1674   3.222   2.724   2.907
 2445SOL    HW1 1675   3.147   2.724   2.841
 2445SOL    HW2 1676   3.259   2.632   2.916
 2446SOL     OW 1677   3.071   2.387   2.137
 2446SOL    HW1 1678   3.084   2.303   2.191
 2446SOL    HW2 1679   3.042   2.461   2.197
 2447SOL     OW 1680   2.169   2.075   3.093
 2447SOL    HW1 1681   2.146   2.112   3.183
 2447SOL    HW2 1682   2.139   1.980   3.087
 2448SOL     OW 1683   1.899   3.172   3.144
 2448SOL    HW1 1684   1.952   3.123   3.212
 2448SOL    HW2 1685   1.921   3.270   3.149
 2449SOL     OW 1686   2.594   2.496   2.926
 2449SOL    HW1 1687   2.653   2.470   2.850
 2449SOL    HW2 1688   2.566   2.592   2.915
 2450SOL     OW 1689   3.590   2.797   3.716
 2450SOL    HW1 1690   3.544   2.790   3.627
 2450SOL    HW2 1691   3.528   2.841   3.782
 2451SOL     OW 1692   2.169   1.925   2.480
 2451SOL    HW1 1693   2.158   2.019   2.513
 2451SOL    HW2 1694   2.164   1.862   2.557
 2452SOL     OW 1695   3.484   2.229   2.236
 2452SOL    HW1 1696   3.486   2.153   2.300
 2452SOL    HW2 1697   3.436   2.306   2.276
 2453SOL     OW 1698   2.842   3.435   3.562
 2453SOL    HW1 1699   2.822   3.479   3.474
 2453SOL    HW2 1700   2.881   3.344   3.546
 2454SOL     OW 1701   3.721   3.380   3.467
 2454SOL    HW1 1702   3.735   3.407   3.372
 2454SOL    HW2 1703   3.804   3.402   3.520
 2455SOL     OW 1704   2.212   2.760   3.666
 2455SOL    HW1 1705   2.288   2.804   3.714
 2455SOL    HW2 1706   2.247   2.713   3.584
 2456SOL     OW 1707   3.402   2.136   1.987
 2456SOL    HW1 1708   3.341   2.061   2.010
 2456SOL    HW2 1709   3.424   2.188   2.070
 2457SOL     OW 1710   3.165   2.700   1.904
 2457SOL    HW1 1711   3.199   2.607   1.919
 2457SOL    HW2 1712   3.183   2.727   1.809
 2458SOL     OW 1713   2.930   3.195   2.711
 2458SOL    HW1 1714   2.937   3.111   2.656
 2458SOL    HW2 1715   2.992   3.264   2.675
 2459SOL     OW 1716   2.181   2.672   2.811
 2459SOL    HW1 1717   2.274   2.708   2.816
 2459SOL    HW2 1718   2.175   2.587   2.863
 2460SOL     OW 1719   2.201   2.371   2.868
 2460SOL    HW1 1720   2.149   2.288   2.851
 2460SOL    HW2 1721   2.278   2.376   2.804
 2461SOL     OW 1722   3.000   2.242   3.540
 2461SOL    HW1 1723   2.955   2.305   3.604
 2461SOL    HW2 1724   3.093   2.273   3.523
 2462SOL     OW 1725   3.022   2.069   3.339
 2462SOL    HW1 1726   3.022   2.133   3.416
 2462SOL    HW2 1727   3.050   2.117   3.256
 2463SOL     OW 1728   1.870   3.188   2.062
 2463SOL    HW1 1729   1.777   3.209   2.031
 2463SOL    HW2 1730   1.880   3.089   2.075
 2464SOL     OW 1731   1.950   3.663   2.789
 2464SOL    HW1 1732   1.908   3.577   2.762
 2464SOL    HW2 1733   2.044   3.666   2.755
 2465SOL     OW 1734   2.366   3.430   2.772
 2465SOL    HW1 1735   2.432   3.504   2.781
 2465SOL    HW2 1736   2.410   3.351   2.730
 2466SOL     OW 1737   2.864   2.658   3.100
 2466SOL    HW1 1738   2.905   2.626   3.186
 2466SOL    HW2 1739   2.768   2.631   3.097
 2467SOL     OW 1740   1.902   2.406   2.976
 2467SOL    HW1 1741   1.987   2.373   2.935
 2467SOL    HW2 1742   1.915   2.421   3.074
 2468SOL     OW 1743   2.051   2.382   3.584
 2468SOL    HW1 1744   2.110   2.342   3.514
 2468SOL    HW2 1745   1.993   2.453   3.543
 2469SOL     OW 1746   3.231   2.812   3.522
 2469SOL    HW1 1747   3.270   2.901   3.542
 2469SOL    HW2 1748   3.241   2.792   3.425
 2470SOL     OW 1749   2.677   2.434   2.187
 2470SOL    HW1 1750   2.684   2.345   2.141
 2470SOL    HW2 1751   2.583   2.468   2.179
 2471SOL     OW 1752   3.519   2.466   3.068
 2471SOL    HW1 1753   3.481   2.397   3.130
 2471SOL    HW2 1754   3.601   2.430   3.024
 2472SOL     OW 1755   2.114   3.426   3.606
 2472SOL    HW1 1756   2.084   3.483   3.682
 2472SOL    HW2 1757   2.107   3.329   3.632
 2473SOL     OW 1758   2.533   2.326   3.131
 2473SOL    HW1 1759   2.499   2.237   3.101
 2473SOL    HW2 1760   2.559   2.380   3.051
 2474SOL     OW 1761   2.792   3.540   3.327
 2474SOL    HW1 1762   2.768   3.522   3.232
 2474SOL    HW2 1763   2.822   3.634   3.337
 2475SOL     OW 1764   2.335   2.362   2.053
 2475SOL    HW1 1765   2.396   2.442   2.057
 2475SOL    HW2 1766   2.240   2.393   2.060
 2476SOL     OW 1767   2.021   2.999   3.328
 2476SOL    HW1 1768   2.043   2.938   3.404
 2476SOL    HW2 1769   2.031   2.950   3.242
 2477SOL     OW 1770   3.209   2.921   3.096
 2477SOL    HW1 1771   3.233   2.858   3.022
 2477SOL    HW2 1772   3.119   2.961   3.078
 2478SOL     OW 1773   3.164   2.717   2.171
 2478SOL    HW1 1774   3.078   2.686   2.213
 2478SOL    HW2 1775   3.160   2.703   2.072
 2479SOL     OW 1776   3.621   3.609   3.016
 2479SOL    HW1 1777   3.682   3.639   2.943
 2479SOL    HW2 1778   3.583   3.520   2.994
 2480SOL     OW 1779   3.114   3.593   2.990
 2480SOL    HW1 1780   3.198   3.598   2.936
 2480SOL    HW2 1781   3.091   3.497   3.008
 2481SOL     OW 1782   1.945   3.120   2.884
 2481SOL    HW1 1783   1.940   3.119   2.984
 2481SOL    HW2 1784   1.862   3.079   2.846
 2482SOL     OW 1785   2.550   3.524   3.578
 2482SOL    HW1 1786   2.494   3.605   3.587
 2482SOL    HW2 1787   2.602   3.528   3.492
 2483SOL     OW 1788   3.588   1.997   2.385
 2483SOL    HW1 1789   3.661   1.980   2.318
 2483SOL    HW2 1790   3.557   1.910   2.423
 2484SOL     OW 1791   3.250   3.435   2.339
 2484SOL    HW1 1792   3.317   3.447   2.265
 2484SOL    HW2 1793   3.210   3.524   2.362
 2485SOL     OW 1794   1.992   3.656   3.713
 2485SOL    HW1 1795   1.951   3.582   3.766
 2485SOL    HW2 1796   2.056   3.707   3.771
 2486SOL     OW 1797   3.142   2.789   2.534
 2486SOL    HW1 1798   3.202   2.708   2.536
 2486SOL    HW2 1799   3.182   2.858   2.474
 2487SOL     OW 1800   2.692   3.135   3.284
 2487SOL    HW1 1801   2.687   3.168   3.379
 2487SOL    HW2 1802   2.606   3.154   3.238
 2488SOL     OW 1803   2.534   3.478   2.016
 2488SOL    HW1 1804   2.543   3.488   1.917
 2488SOL    HW2 1805   2.494   3.389   2.037
 2489SOL     OW 1806   3.512   3.582   3.256
 2489SOL    HW1 1807   3.565   3.592   3.172
 2489SOL    HW2 1808   3.485   3.672   3.290
 2490SOL     OW 1809   3.703   2.037   2.825
 2490SOL    HW1 1810   3.742   1.952   2.789
 2490SOL    HW2 1811   3.605   2.039   2.806
 2491SOL     OW 1812   2.125   2.188   2.582
 2491SOL    HW1 1813   2.046   2.239   2.548
 2491SOL    HW2 1814   2.116   2.173   2.680
 2492SOL     OW 1815   3.056   3.474   1.893
 2492SOL    HW1 1816   3.062   3.381   1.930
 2492SOL    HW2 1817   2.997   3.474   1.813
 2493SOL     OW 1818   2.684   2.864   3.234
 2493SOL    HW1 1819   2.724   2.863   3.142
 2493SOL    HW2 1820   2.694   2.956   3.274
 2494SOL     OW 1821   2.778   2.772   2.153
 2494SOL    HW1 1822   2.841   2.810   2.085
 2494SOL    HW2 1823   2.818   2.689   2.192
 2495SOL     OW 1824   3.366   3.469   1.906
 2495SOL    HW1 1825   3.274   3.506   1.913
 2495SOL    HW2 1826   3.404   3.489   1.816
 2496SOL     OW 1827   2.234   3.150   3.352
 2496SOL    HW1 1828   2.221   3.243   3.318
 2496SOL    HW2 1829   2.150   3.098   3.339
 2497SOL     OW 1830   3.476   3.154   3.151
 2497SOL    HW1 1831   3.536   3.157   3.231
 2497SOL    HW2 1832   3.401   3.218   3.164
 2498SOL     OW 1833   2.901   2.960   2.558
 2498SOL    HW1 1834   2.831   2.913   2.612
 2498SOL    HW2 1835   2.960   2.892   2.515
 2499SOL     OW 1836   2.876   2.098   2.833
 2499SOL    HW1 1837   2.868   2.062   2.740
 2499SOL    HW2 1838   2.874   2.022   2.898
 2500SOL     OW 1839   2.452   3.349   2.353
 2500SOL    HW1 1840   2.494   3.291   2.283
 2500SOL    HW2 1841   2.408   3.428   2.309
 2501SOL     OW 1842   3.571   2.247   3.243
 2501SOL    HW1 1843   3.644   2.316   3.247
 2501SOL    HW2 1844   3.599   2.172   3.184
 2502SOL     OW 1845   2.117   3.210   2.152
 2502SOL    HW1 1846   2.021   3.211   2.125
 2502SOL    HW2 1847   2.129   3.263   2.236
 2503SOL     OW 1848   1.967   2.875   3.588
 2503SOL    HW1 1849   1.890   2.842   3.642
 2503SOL    HW2 1850   2.052   2.845   3.630
 2504SOL     OW 1851   2.534   2.065   3.351
 2504SOL    HW1 1852   2.624   2.049   3.311
 2504SOL    HW2 1853   2.542   2.070   3.450
 2505SOL     OW 1854   1.937   2.207   1.895
 2505SOL    HW1 1855   1.845   2.179   1.866
 2505SOL    HW2 1856   1.968   2.284   1.839
 2506SOL     OW 1857   3.302   2.718   3.260
 2506SOL    HW1 1858   3.245   2.770   3.197
 2506SOL    HW2 1859   3.398   2.730   3.236
 2507SOL     OW 1860   1.934   2.028   2.180
 2507SOL    HW1 1861   1.917   2.111   2.126
 2507SOL    HW2 1862   2.024   1.991   2.158
 2508SOL     OW 1863   3.045   3.197   1.981
 2508SOL    HW1 1864   2.946   3.186   1.983
 2508SOL    HW2 1865   3.079   3.212   2.074
 2509SOL     OW 1866   2.475   2.704   3.293
 2509SOL    HW1 1867   2.531   2.785   3.276
 2509SOL    HW2 1868   2.534   2.624   3.296
 2510SOL     OW 1869   3.355   3.629   2.821
 2510SOL    HW1 1870   3.388   3.693   2.752
 2510SOL    HW2 1871   3.421   3.623   2.896
 2511SOL     OW 1872   2.578   2.427   3.570
 2511SOL    HW1 1873   2.597   2.492   3.644
 2511SOL    HW2 1874   2.638   2.347   3.579
 2512SOL     OW 1875   3.312   3.082   3.495
 2512SOL    HW1 1876   3.303   3.072   3.594
 2512SOL    HW2 1877   3.408   3.075   3.469
 2513SOL     OW 1878   2.252   3.603   3.422
 2513SOL    HW1 1879   2.161   3.644   3.420
 2513SOL    HW2 1880   2.245   3.509   3.454
 2514SOL     OW 1881   3.536   2.745   3.116
 2514SOL    HW1 1882   3.509   2.656   3.079
 2514SOL    HW2 1883   3.537   2.813   3.043
 2515SOL     OW 1884   3.087   2.187   2.311
 2515SOL    HW1 1885   3.152   2.113   2.300
 2515SOL    HW2 1886   3.107   2.237   2.395
 2516SOL     OW 1887   3.639   2.204   3.504
 2516SOL    HW1 1888   3.622   2.235   3.410
 2516SOL    HW2 1889   3.555   2.167   3.542
 2517SOL     OW 1890   3.592   2.796   3.379
 2517SOL    HW1 1891   3.630   2.887   3.394
 2517SOL    HW2 1892   3.584   2.779   3.280
 2518SOL     OW 1893   2.721   3.236   1.878
 2518SOL    HW1 1894   2.675   3.251   1.966
 2518SOL    HW2 1895   2.765   3.321   1.848
 2519SOL     OW 1896   2.523   3.652   2.815
 2519SOL    HW1 1897   2.477   3.740   2.802
 2519SOL    HW2 1898   2.622   3.664   2.808
 2520SOL     OW 1899   2.945   2.846   1.949
 2520SOL    HW1 1900   2.922   2.899   1.867
 2520SOL    HW2 1901   3.026   2.790   1.930
 2521SOL     OW 1902   3.723   3.431   2.713
 2521SOL    HW1 1903   3.652   3.419   2.643
 2521SOL    HW2 1904   3.724   3.352   2.773
 2522SOL     OW 1905   2.083   3.176   3.706
 2522SOL    HW1 1906   2.018   3.103   3.685
 2522SOL    HW2 1907   2.087   3.190   3.804
 2523SOL     OW 1908   1.941   3.102   2.515
 2523SOL    HW1 1909   1.940   3.055   2.603
 2523SOL    HW2 1910   2.023   3.074   2.464
 2524SOL     OW 1911   2.534   3.253   3.486
 2524SOL    HW1 1912   2.456   3.203   3.524
 2524SOL    HW2 1913   2.531   3.348   3.517
 2525SOL     OW 1914   3.686   2.054   3.089
 2525SOL    HW1 1915   3.682   1.964   3.133
 2525SOL    HW2 1916   3.689   2.043   2.990
 2526SOL     OW 1917   3.567   3.349   2.966
 2526SOL    HW1 1918   3.474   3.324   2.939
 2526SOL    HW2 1919   3.593   3.299   3.048
 2527SOL     OW 1920   2.179   2.409   3.142
 2527SOL    HW1 1921   2.217   2.350   3.214
 2527SOL    HW2 1922   2.219   2.383   3.054
 2528SOL     OW 1923   2.674   3.448   2.549
 2528SOL    HW1 1924   2.706   3.458   2.455
 2528SOL    HW2 1925   2.595   3.386   2.551
 2529SOL     OW 1926   3.286   2.076   2.974
 2529SOL    HW1 1927   3.338   2.011   3.029
 2529SOL    HW2 1928   3.237   2.139   3.035
 2530SOL     OW 1929   2.863   1.896   3.016
 2530SOL    HW1 1930   2.800   1.824   2.985
 2530SOL    HW2 1931   2.956   1.860   3.016
 2531SOL     OW 1932   2.632   3.192   2.163
 2531SOL    HW1 1933   2.586   3.105   2.180
 2531SOL    HW2 1934   2.723   3.189   2.204
 2532SOL     OW 1935   2.480   3.429   3.146
 2532SOL    HW1 1936   2.475   3.511   3.203
 2532SOL    HW2 1937   2.569   3.426   3.101
 2533SOL     OW 1938   3.214   1.914   2.030
 2533SOL    HW1 1939   3.249   1.873   1.946
 2533SOL    HW2 1940   3.124   1.876   2.050
 2534SOL     OW 1941   3.162   2.315   2.553
 2534SOL    HW1 1942   3.103   2.395   2.557
 2534SOL    HW2 1943   3.177   2.280   2.646
 2535SOL     OW 1944   3.455   2.083   2.744
 2535SOL    HW1 1945   3.371   2.082   2.798
 2535SOL    HW2 1946   3.457   2.166   2.688
 2536SOL     OW 1947   1.901   2.939   2.162
 2536SOL    HW1 1948   2.000   2.928   2.153
 2536SOL    HW2 1949   1.861   2.853   2.194
 2537SOL     OW 1950   2.737   3.508   2.199
 2537SOL    HW1 1951   2.660   3.473   2.145
 2537SOL    HW2 1952   2.705   3.579   2.261
 2538SOL     OW 1953   2.092   2.490   3.837
 2538SOL    HW1 1954   1.999   2.488   3.874
 2538SOL    HW2 1955   2.093   2.451   3.745
 2552SOL     OW 1956   2.468   2.826   3.847
 2552SOL    HW1 1957   2.475   2.910   3.793
 2552SOL    HW2 1958   2.514   2.839   3.935
 2555SOL     OW 1959   1.889   3.458   3.841
 2555SOL    HW1 1960   1.870   3.362   3.862
 2555SOL    HW2 1961   1.856   3.516   3.916
 2561SOL     OW 1962   3.387   2.861   3.914
 2561SOL    HW1 1963   3.324   2.785   3.927
 2561SOL    HW2 1964   3.435   2.879   4.000
 2564SOL     OW 1965   2.460   2.591   3.994
 2564SOL    HW1 1966   2.484   2.660   3.926
 2564SOL    HW2 1967   2.382   2.624   4.048
 2567SOL     OW 1968   2.903   2.563   4.153
 2567SOL    HW1 1969   2.929   2.559   4.249
 2567SOL    HW2 1970   2.818   2.512   4.139
 2569SOL     OW 1971   2.727   2.210   3.919
 2569SOL    HW1 1972   2.786   2.273   3.870
 2569SOL    HW2 1973   2.746   2.116   3.890
 2575SOL     OW 1974   2.183   2.805   3.966
 2575SOL    HW1 1975   2.265   2.844   3.924
 2575SOL    HW2 1976   2.156   2.723   3.917
 2578SOL     OW 1977   3.494   3.239   3.805
 2578SOL    HW1 1978   3.462   3.333   3.795
 2578SOL    HW2 1979   3.418   3.176   3.793
 2583SOL     OW 1980   2.244   2.562   4.204
 2583SOL    HW1 1981   2.289   2.472   4.201
 2583SOL    HW2 1982   2.150   2.551   4.237
 2584SOL     OW 1983   2.476   1.984   3.841
 2584SOL    HW1 1984   2.574   1.962   3.848
 2584SOL    HW2 1985   2.445   1.967   3.748
 2588SOL     OW 1986   3.296   3.050   3.765
 2588SOL    HW1 1987   3.328   2.974   3.822
 2588SOL    HW2 1988   3.204   3.077   3.795
 2589SOL     OW 1989   2.159   1.897   3.895
 2589SOL    HW1 1990   2.208   1.981   3.874
 2589SOL    HW2 1991   2.221   1.832   3.940
 2590SOL     OW 1992   2.797   2.098   4.204
 2590SOL    HW1 1993   2.749   2.139   4.126
 2590SOL    HW2 1994   2.896   2.096   4.185
 2594SOL     OW 1995   2.894   2.411   3.740
 2594SOL    HW1 1996   2.853   2.493   3.701
 2594SOL    HW2 1997   2.958   2.437   3.813
 2601SOL     OW 1998   2.350   3.247   3.898
 2601SOL    HW1 1999   2.263   3.232   3.945
 2601SOL    HW2 2000   2.333   3.273   3.803
 2603SOL     OW 2001   3.252   2.437   3.802
 2603SOL    HW1 2002   3.198   2.416   3.883
 2603SOL    HW2 2003   3.343   2.396   3.811
 2604SOL     OW 2004   2.389   2.118   4.052
 2604SOL    HW1 2005   2.416   2.059   3.977
 2604SOL    HW2 2006   2.389   2.213   4.021
 2607SOL     OW 2007   2.567   2.912   4.092
 2607SOL    HW1 2008   2.553   2.919   4.191
 2607SOL    HW2 2009   2.651   2.861   4.074
 2610SOL     OW 2010   2.229   2.962   4.225
 2610SOL    HW1 2011   2.222   3.045   4.169
 2610SOL    HW2 2012   2.233   2.882   4.165
 2618SOL     OW 2013   3.071   2.387   3.999
 2618SOL    HW1 2014   3.084   2.303   4.053
 2618SOL    HW2 2015   3.042   2.461   4.059
 2625SOL     OW 2016   3.402   2.136   3.849
 2625SOL    HW1 2017   3.341   2.061   3.872
 2625SOL    HW2 2018   3.424   2.188   3.932
 2626SOL     OW 2019   3.165   2.700   3.766
 2626SOL    HW1 2020   3.199   2.607   3.781
 2626SOL    HW2 2021   3.183   2.727   3.671
 2631SOL     OW 2022   1.870   3.188   3.924
 2631SOL    HW1 2023   1.777   3.209   3.893
 2631SOL    HW2 2024   1.880   3.089   3.937
 2636SOL     OW 2025   2.677   2.434   4.049
 2636SOL    HW1 2026   2.684   2.345   4.003
 2636SOL    HW2 2027   2.583   2.468   4.041
 2640SOL     OW 2028   2.335   2.362   3.915
 2640SOL    HW1 2029   2.396   2.442   3.919
 2640SOL    HW2 2030   2.240   2.393   3.922
 2642SOL     OW 2031   3.164   2.717   4.033
 2642SOL    HW1 2032   3.078   2.686   4.075
 2642SOL    HW2 2033   3.160   2.703   3.934
 2649SOL     OW 2034   2.534   3.478   3.878
 2649SOL    HW1 2035   2.543   3.488   3.779
 2649SOL    HW2 2036   2.494   3.389   3.899
 2653SOL     OW 2037   3.056   3.474   3.755
 2653SOL    HW1 2038   3.062   3.381   3.792
 2653SOL    HW2 2039   2.997   3.474   3.675
 2655SOL     OW 2040   2.778   2.772   4.015
 2655SOL    HW1 2041   2.841   2.810   3.947
 2655SOL    HW2 2042   2.818   2.689   4.054
 2656SOL     OW 2043   3.366   3.469   3.768
 2656SOL    HW1 2044   3.274   3.506   3.775
 2656SOL    HW2 2045   3.404   3.489   3.678
 2661SOL     OW 2046   2.117   3.210   4.014
 2661SOL    HW1 2047   2.021   3.211   3.987
 2661SOL    HW2 2048   2.129   3.263   4.098
 2662SOL     OW 2049   1.937   2.207   3.757
 2662SOL    HW1 2050   1.845   2.179   3.728
 2662SOL    HW2 2051   1.968   2.284   3.701
 2663SOL     OW 2052   1.934   2.028   4.042
 2663SOL    HW1 2053   1.917   2.111   3.988
 2663SOL    HW2 2054   2.024   1.991   4.020
 2664SOL     OW 2055   3.045   3.197   3.843
 2664SOL    HW1 2056   2.946   3.186   3.845
 2664SOL    HW2 2057   3.079   3.212   3.936
 2667SOL     OW 2058   3.087   2.187   4.173
 2667SOL    HW1 2059   3.152   2.113   4.162
 2667SOL    HW2 2060   3.107   2.237   4.257
 2670SOL     OW 2061   2.721   3.236   3.740
 2670SOL    HW1 2062   2.675   3.251   3.828
 2670SOL    HW2 2063   2.765   3.321   3.710
 2673SOL     OW 2064   2.945   2.846   3.811
 2673SOL    HW1 2065   2.922   2.899   3.729
 2673SOL    HW2 2066   3.026   2.790   3.792
 2677SOL     OW 2067   2.290   2.286   4.244
 2677SOL    HW1 2068   2.320   2.214   4.182
 2677SOL    HW2 2069   2.251   2.246   4.327
 2682SOL     OW 2070   2.632   3.192   4.025
 2682SOL    HW1 2071   2.586   3.105   4.042
 2682SOL    HW2 2072   2.723   3.189   4.066
 2683SOL     OW 2073   3.214   1.914   3.892
 2683SOL    HW1 2074   3.249   1.873   3.808
 2683SOL    HW2 2075   3.124   1.876   3.912
 2686SOL     OW 2076   1.901   2.939   4.024
 2686SOL    HW1 2077   2.000   2.928   4.015
 2686SOL    HW2 2078   1.861   2.853   4.056
 2711SOL     OW 2079   2.179   3.975   1.801
 2711SOL    HW1 2080   2.250   4.046   1.807
 2711SOL    HW2 2081   2.091   4.014   1.829
 2732SOL     OW 2082   2.643   3.988   1.749
 2732SOL    HW1 2083   2.710   3.927   1.792
 2732SOL    HW2 2084   2.570   4.007   1.814
 2753SOL     OW 2085   2.777   3.813   1.402
 2753SOL    HW1 2086   2.802   3.793   1.307
 2753SOL    HW2 2087   2.849   3.869   1.444
 2763SOL     OW 2088   2.875   3.829   1.770
 2763SOL    HW1 2089   2.881   3.914   1.718
 2763SOL    HW2 2090   2.907   3.753   1.713
 2764SOL     OW 2091   2.366   3.774   1.740
 2764SOL    HW1 2092   2.324   3.717   1.670
 2764SOL    HW2 2093   2.300   3.843   1.772
 2807SOL     OW 2094   2.534   3.927   1.489
 2807SOL    HW1 2095   2.624   3.911   1.449
 2807SOL    HW2 2096   2.542   3.932   1.588
 2832SOL     OW 2097   2.087   3.999   2.858
 2832SOL    HW1 2098   2.122   3.982   2.950
 2832SOL    HW2 2099   1.999   3.954   2.846
 2833SOL     OW 2100   1.881   4.092   2.509
 2833SOL    HW1 2101   1.799   4.135   2.548
 2833SOL    HW2 2102   1.853   4.019   2.446
 2851SOL     OW 2103   2.671   3.728   2.364
 2851SOL    HW1 2104   2.711   3.819   2.355
 2851SOL    HW2 2105   2.571   3.736   2.370
 2856SOL     OW 2106   3.143   4.069   2.806
 2856SOL    HW1 2107   3.057   4.019   2.793
 2856SOL    HW2 2108   3.205   4.015   2.862
 2860SOL     OW 2109   2.853   4.134   3.104
 2860SOL    HW1 2110   2.776   4.168   3.158
 2860SOL    HW2 2111   2.819   4.083   3.025
 2863SOL     OW 2112   2.727   4.072   2.057
 2863SOL    HW1 2113   2.786   4.135   2.008
 2863SOL    HW2 2114   2.746   3.978   2.028
 2866SOL     OW 2115   2.412   3.920   2.747
 2866SOL    HW1 2116   2.407   3.915   2.847
 2866SOL    HW2 2117   2.414   4.016   2.718
 2870SOL     OW 2118   2.064   4.009   3.360
 2870SOL    HW1 2119   1.984   4.069   3.347
 2870SOL    HW2 2120   2.054   3.960   3.446
 2871SOL     OW 2121   3.262   3.831   2.288
 2871SOL    HW1 2122   3.238   3.794   2.198
 2871SOL    HW2 2123   3.361   3.847   2.292
 2874SOL     OW 2124   2.476   3.846   1.979
 2874SOL    HW1 2125   2.574   3.824   1.986
 2874SOL    HW2 2126   2.445   3.829   1.886
 2878SOL     OW 2127   2.784   4.227   2.761
 2878SOL    HW1 2128   2.759   4.218   2.665
 2878SOL    HW2 2129   2.832   4.145   2.792
 2879SOL     OW 2130   2.401   3.788   2.374
 2879SOL    HW1 2131   2.320   3.789   2.432
 2879SOL    HW2 2132   2.404   3.871   2.319
 2880SOL     OW 2133   2.159   3.759   2.033
 2880SOL    HW1 2134   2.208   3.843   2.012
 2880SOL    HW2 2135   2.221   3.694   2.078
 2881SOL     OW 2136   2.797   3.960   2.342
 2881SOL    HW1 2137   2.749   4.001   2.264
 2881SOL    HW2 2138   2.896   3.958   2.323
 2886SOL     OW 2139   2.423   3.946   3.009
 2886SOL    HW1 2140   2.461   3.862   3.046
 2886SOL    HW2 2141   2.335   3.965   3.053
 2887SOL     OW 2142   2.728   4.178   2.504
 2887SOL    HW1 2143   2.696   4.250   2.442
 2887SOL    HW2 2144   2.752   4.097   2.451
 2888SOL     OW 2145   2.879   3.763   2.615
 2888SOL    HW1 2146   2.807   3.768   2.546
 2888SOL    HW2 2147   2.855   3.694   2.684
 2893SOL     OW 2148   2.389   3.980   2.190
 2893SOL    HW1 2149   2.416   3.921   2.115
 2893SOL    HW2 2150   2.389   4.075   2.159
 2896SOL     OW 2151   2.777   3.813   3.264
 2896SOL    HW1 2152   2.802   3.793   3.169
 2896SOL    HW2 2153   2.849   3.869   3.306
 2902SOL     OW 2154   2.428   4.261   2.727
 2902SOL    HW1 2155   2.440   4.327   2.653
 2902SOL    HW2 2156   2.474   4.295   2.810
 2906SOL     OW 2157   2.875   3.829   3.632
 2906SOL    HW1 2158   2.881   3.914   3.580
 2906SOL    HW2 2159   2.907   3.753   3.575
 2907SOL     OW 2160   2.366   3.774   3.602
 2907SOL    HW1 2161   2.324   3.717   3.532
 2907SOL    HW2 2162   2.300   3.843   3.634
 2911SOL     OW 2163   2.169   3.937   3.093
 2911SOL    HW1 2164   2.146   3.974   3.183
 2911SOL    HW2 2165   2.139   3.842   3.087
 2914SOL     OW 2166   2.169   3.787   2.480
 2914SOL    HW1 2167   2.158   3.881   2.513
 2914SOL    HW2 2168   2.164   3.724   2.557
 2921SOL     OW 2169   2.201   4.233   2.868
 2921SOL    HW1 2170   2.149   4.150   2.851
 2921SOL    HW2 2171   2.278   4.238   2.804
 2923SOL     OW 2172   3.022   3.931   3.339
 2923SOL    HW1 2173   3.022   3.995   3.416
 2923SOL    HW2 2174   3.050   3.979   3.256
 2931SOL     OW 2175   2.533   4.188   3.131
 2931SOL    HW1 2176   2.499   4.099   3.101
 2931SOL    HW2 2177   2.559   4.242   3.051
 2932SOL     OW 2178   2.335   4.224   2.053
 2932SOL    HW1 2179   2.396   4.304   2.057
 2932SOL    HW2 2180   2.240   4.255   2.060
 2937SOL     OW 2181   3.588   3.859   2.385
 2937SOL    HW1 2182   3.661   3.842   2.318
 2937SOL    HW2 2183   3.557   3.772   2.423
 2940SOL     OW 2184   2.125   4.050   2.582
 2940SOL    HW1 2185   2.046   4.101   2.548
 2940SOL    HW2 2186   2.116   4.035   2.680
 2947SOL     OW 2187   2.876   3.960   2.833
 2947SOL    HW1 2188   2.868   3.924   2.740
 2947SOL    HW2 2189   2.874   3.884   2.898
 2950SOL     OW 2190   2.534   3.927   3.351
 2950SOL    HW1 2191   2.624   3.911   3.311
 2950SOL    HW2 2192   2.542   3.932   3.450
 2951SOL     OW 2193   1.937   4.069   1.895
 2951SOL    HW1 2194   1.845   4.041   1.866
 2951SOL    HW2 2195   1.968   4.146   1.839
 2953SOL     OW 2196   1.934   3.890   2.180
 2953SOL    HW1 2197   1.917   3.973   2.126
 2953SOL    HW2 2198   2.024   3.853   2.158
 2958SOL     OW 2199   3.087   4.049   2.311
 2958SOL    HW1 2200   3.152   3.975   2.300
 2958SOL    HW2 2201   3.107   4.099   2.395
 2966SOL     OW 2202   2.290   4.148   2.382
 2966SOL    HW1 2203   2.320   4.076   2.320
 2966SOL    HW2 2204   2.251   4.108   2.465
 2968SOL     OW 2205   3.286   3.938   2.974
 2968SOL    HW1 2206   3.338   3.873   3.029
 2968SOL    HW2 2207   3.237   4.001   3.035
 2969SOL     OW 2208   2.863   3.758   3.016
 2969SOL    HW1 2209   2.800   3.686   2.985
 2969SOL    HW2 2210   2.956   3.722   3.016
 2971SOL     OW 2211   3.214   3.776   2.030
 2971SOL    HW1 2212   3.249   3.735   1.946
 2971SOL    HW2 2213   3.124   3.738   2.050
 2972SOL     OW 2214   3.162   4.177   2.553
 2972SOL    HW1 2215   3.103   4.257   2.557
 2972SOL    HW2 2216   3.177   4.142   2.646
 2973SOL     OW 2217   3.455   3.945   2.744
 2973SOL    HW1 2218   3.371   3.944   2.798
 2973SOL    HW2 2219   3.457   4.028   2.688
 3110SOL     OW 2220   3.854   1.821   1.571
 3110SOL    HW1 2221   3.844   1.806   1.670
 3110SOL    HW2 2222   3.768   1.857   1.535
 3188SOL     OW 2223   3.854   1.794   1.851
 3188SOL    HW1 2224   3.813   1.720   1.904
 3188SOL    HW2 2225   3.918   1.845   1.909
 3232SOL     OW 2226   3.955   1.713   2.345
 3232SOL    HW1 2227   3.989   1.790   2.399
 3232SOL    HW2 2228   3.999   1.713   2.255
 3239SOL     OW 2229   3.751   1.596   1.979
 3239SOL    HW1 2230   3.732   1.500   2.000
 3239SOL    HW2 2231   3.718   1.654   2.054
 3252SOL     OW 2232   3.854   1.821   3.433
 3252SOL    HW1 2233   3.844   1.806   3.532
 3252SOL    HW2 2234   3.768   1.857   3.397
 3256SOL     OW 2235   4.075   1.801   2.715
 3256SOL    HW1 2236   4.125   1.715   2.721
 3256SOL    HW2 2237   4.140   1.878   2.712
 3263SOL     OW 2238   3.973   1.785   3.103
 3263SOL    HW1 2239   4.030   1.720   3.153
 3263SOL    HW2 2240   3.957   1.752   3.010
 3291SOL     OW 2241   3.788   1.564   3.193
 3291SOL    HW1 2242   3.742   1.646   3.159
 3291SOL    HW2 2243   3.886   1.583   3.202
 3315SOL     OW 2244   3.732   1.326   2.062
 3315SOL    HW1 2245   3.639   1.347   2.031
 3315SOL    HW2 2246   3.742   1.227   2.075
 3316SOL     OW 2247   3.812   1.801   2.789
 3316SOL    HW1 2248   3.770   1.715   2.762
 3316SOL    HW2 2249   3.906   1.804   2.755
 3482SOL     OW 2250   3.837   2.599   1.597
 3482SOL    HW1 2251   3.925   2.586   1.642
 3482SOL    HW2 2252   3.824   2.696   1.575
 3487SOL     OW 2253   4.041   2.113   1.801
 3487SOL    HW1 2254   4.112   2.184   1.807
 3487SOL    HW2 2255   3.953   2.152   1.829
 3503SOL     OW 2256   3.926   2.147   1.498
 3503SOL    HW1 2257   3.846   2.207   1.485
 3503SOL    HW2 2258   3.916   2.098   1.584
 3521SOL     OW 2259   3.802   2.418   1.386
 3521SOL    HW1 2260   3.894   2.417   1.345
 3521SOL    HW2 2261   3.796   2.492   1.453
 3550SOL     OW 2262   4.074   2.760   1.804
 3550SOL    HW1 2263   4.150   2.804   1.852
 3550SOL    HW2 2264   4.109   2.713   1.722
 3561SOL     OW 2265   3.913   2.382   1.722
 3561SOL    HW1 2266   3.972   2.342   1.652
 3561SOL    HW2 2267   3.855   2.453   1.681
 3567SOL     OW 2268   3.883   2.999   1.466
 3567SOL    HW1 2269   3.905   2.938   1.542
 3567SOL    HW2 2270   3.893   2.950   1.380
 3583SOL     OW 2271   3.829   2.875   1.726
 3583SOL    HW1 2272   3.752   2.842   1.780
 3583SOL    HW2 2273   3.914   2.845   1.768
 3594SOL     OW 2274   3.945   3.176   1.844
 3594SOL    HW1 2275   3.880   3.103   1.823
 3594SOL    HW2 2276   3.949   3.190   1.942
 3605SOL     OW 2277   3.954   2.490   1.975
 3605SOL    HW1 2278   3.861   2.488   2.012
 3605SOL    HW2 2279   3.955   2.451   1.883
 3606SOL     OW 2280   3.949   2.137   2.858
 3606SOL    HW1 2281   3.984   2.120   2.950
 3606SOL    HW2 2282   3.861   2.092   2.846
 3607SOL     OW 2283   3.743   2.230   2.509
 3607SOL    HW1 2284   3.661   2.273   2.548
 3607SOL    HW2 2285   3.715   2.157   2.446
 3614SOL     OW 2286   4.059   3.297   2.923
 3614SOL    HW1 2287   3.981   3.266   2.870
 3614SOL    HW2 2288   4.117   3.355   2.866
 3616SOL     OW 2289   3.955   3.575   2.345
 3616SOL    HW1 2290   3.989   3.652   2.399
 3616SOL    HW2 2291   3.999   3.575   2.255
 3618SOL     OW 2292   3.954   3.296   2.400
 3618SOL    HW1 2293   3.928   3.392   2.400
 3618SOL    HW2 2294   3.883   3.242   2.445
 3619SOL     OW 2295   3.964   2.953   2.748
 3619SOL    HW1 2296   3.978   2.869   2.800
 3619SOL    HW2 2297   3.909   3.017   2.803
 3622SOL     OW 2298   3.846   2.505   2.425
 3622SOL    HW1 2299   3.801   2.417   2.442
 3622SOL    HW2 2300   3.845   2.559   2.509
 3623SOL     OW 2301   3.751   3.458   1.979
 3623SOL    HW1 2302   3.732   3.362   2.000
 3623SOL    HW2 2303   3.718   3.516   2.054
 3624SOL     OW 2304   3.837   2.599   3.459
 3624SOL    HW1 2305   3.925   2.586   3.504
 3624SOL    HW2 2306   3.824   2.696   3.437
 3627SOL     OW 2307   3.921   2.838   3.126
 3627SOL    HW1 2308   4.010   2.793   3.112
 3627SOL    HW2 2309   3.848   2.773   3.107
 3635SOL     OW 2310   3.800   2.673   2.651
 3635SOL    HW1 2311   3.899   2.661   2.660
 3635SOL    HW2 2312   3.776   2.768   2.672
 3642SOL     OW 2313   4.045   2.805   2.104
 3642SOL    HW1 2314   4.127   2.844   2.062
 3642SOL    HW2 2315   4.018   2.723   2.055
 3645SOL     OW 2316   3.926   2.147   3.360
 3645SOL    HW1 2317   3.846   2.207   3.347
 3645SOL    HW2 2318   3.916   2.098   3.446
 3649SOL     OW 2319   4.106   2.562   2.342
 3649SOL    HW1 2320   4.151   2.472   2.339
 3649SOL    HW2 2321   4.012   2.551   2.375
 3656SOL     OW 2322   4.021   1.897   2.033
 3656SOL    HW1 2323   4.070   1.981   2.012
 3656SOL    HW2 2324   4.083   1.832   2.078
 3660SOL     OW 2325   4.183   3.014   2.603
 3660SOL    HW1 2326   4.112   2.987   2.668
 3660SOL    HW2 2327   4.157   2.986   2.510
 3663SOL     OW 2328   3.802   2.418   3.248
 3663SOL    HW1 2329   3.894   2.417   3.207
 3663SOL    HW2 2330   3.796   2.492   3.315
 3674SOL     OW 2331   4.134   2.675   3.113
 3674SOL    HW1 2332   4.220   2.687   3.163
 3674SOL    HW2 2333   4.092   2.588   3.140
 3675SOL     OW 2334   3.788   3.426   3.193
 3675SOL    HW1 2335   3.742   3.508   3.159
 3675SOL    HW2 2336   3.886   3.445   3.202
 3676SOL     OW 2337   4.091   2.962   2.363
 3676SOL    HW1 2338   4.084   3.045   2.307
 3676SOL    HW2 2339   4.095   2.882   2.303
 3677SOL     OW 2340   4.290   2.399   2.727
 3677SOL    HW1 2341   4.302   2.465   2.653
 3677SOL    HW2 2342   4.336   2.433   2.810
 3686SOL     OW 2343   4.031   2.075   3.093
 3686SOL    HW1 2344   4.008   2.112   3.183
 3686SOL    HW2 2345   4.001   1.980   3.087
 3687SOL     OW 2346   3.761   3.172   3.144
 3687SOL    HW1 2347   3.814   3.123   3.212
 3687SOL    HW2 2348   3.783   3.270   3.149
 3689SOL     OW 2349   4.031   1.925   2.480
 3689SOL    HW1 2350   4.020   2.019   2.513
 3689SOL    HW2 2351   4.026   1.862   2.557
 3695SOL     OW 2352   4.043   2.672   2.811
 3695SOL    HW1 2353   4.136   2.708   2.816
 3695SOL    HW2 2354   4.037   2.587   2.863
 3696SOL     OW 2355   4.063   2.371   2.868
 3696SOL    HW1 2356   4.011   2.288   2.851
 3696SOL    HW2 2357   4.140   2.376   2.804
 3699SOL     OW 2358   3.732   3.188   2.062
 3699SOL    HW1 2359   3.639   3.209   2.031
 3699SOL    HW2 2360   3.742   3.089   2.075
 3700SOL     OW 2361   3.812   3.663   2.789
 3700SOL    HW1 2362   3.770   3.577   2.762
 3700SOL    HW2 2363   3.906   3.666   2.755
 3703SOL     OW 2364   3.764   2.406   2.976
 3703SOL    HW1 2365   3.849   2.373   2.935
 3703SOL    HW2 2366   3.777   2.421   3.074
 3704SOL     OW 2367   3.913   2.382   3.584
 3704SOL    HW1 2368   3.972   2.342   3.514
 3704SOL    HW2 2369   3.855   2.453   3.543
 3709SOL     OW 2370   4.197   2.362   2.053
 3709SOL    HW1 2371   4.258   2.442   2.057
 3709SOL    HW2 2372   4.102   2.393   2.060
 3710SOL     OW 2373   3.883   2.999   3.328
 3710SOL    HW1 2374   3.905   2.938   3.404
 3710SOL    HW2 2375   3.893   2.950   3.242
 3712SOL     OW 2376   3.807   3.120   2.884
 3712SOL    HW1 2377   3.802   3.119   2.984
 3712SOL    HW2 2378   3.724   3.079   2.846
 3717SOL     OW 2379   3.987   2.188   2.582
 3717SOL    HW1 2380   3.908   2.239   2.548
 3717SOL    HW2 2381   3.978   2.173   2.680
 3724SOL     OW 2382   3.979   3.210   2.152
 3724SOL    HW1 2383   3.883   3.211   2.125
 3724SOL    HW2 2384   3.991   3.263   2.236
 3725SOL     OW 2385   3.829   2.875   3.588
 3725SOL    HW1 2386   3.752   2.842   3.642
 3725SOL    HW2 2387   3.914   2.845   3.630
 3727SOL     OW 2388   3.799   2.207   1.895
 3727SOL    HW1 2389   3.707   2.179   1.866
 3727SOL    HW2 2390   3.830   2.284   1.839
 3728SOL     OW 2391   3.796   2.028   2.180
 3728SOL    HW1 2392   3.779   2.111   2.126
 3728SOL    HW2 2393   3.886   1.991   2.158
 3738SOL     OW 2394   3.803   3.102   2.515
 3738SOL    HW1 2395   3.802   3.055   2.603
 3738SOL    HW2 2396   3.885   3.074   2.464
 3740SOL     OW 2397   4.152   2.286   2.382
 3740SOL    HW1 2398   4.182   2.214   2.320
 3740SOL    HW2 2399   4.113   2.246   2.465
 3741SOL     OW 2400   4.041   2.409   3.142
 3741SOL    HW1 2401   4.079   2.350   3.214
 3741SOL    HW2 2402   4.081   2.383   3.054
 3746SOL     OW 2403   3.763   2.939   2.162
 3746SOL    HW1 2404   3.862   2.928   2.153
 3746SOL    HW2 2405   3.723   2.853   2.194
   5.03544   5.03544   5.03544
