mobley_3738859_GMX.gro created by acpype (v: 2023.10.27) on Tue May 19 12:44:59 2026
 2375
    1MOL     C1    1   2.282   2.331   2.140
    1MOL     C2    2   2.339   2.421   2.248
    1MOL     C3    3   2.369   2.343   2.376
    1MOL     C4    4   2.427   2.433   2.485
    1MOL     C5    5   2.457   2.355   2.611
    1MOL    BR1    6   2.530   2.473   2.747
    1MOL     H1    7   2.261   2.389   2.050
    1MOL     H2    8   2.352   2.252   2.114
    1MOL     H3    9   2.188   2.285   2.173
    1MOL     H4   10   2.431   2.468   2.211
    1MOL     H5   11   2.268   2.502   2.270
    1MOL     H6   12   2.277   2.296   2.413
    1MOL     H7   13   2.440   2.262   2.354
    1MOL     H8   14   2.519   2.481   2.448
    1MOL     H9   15   2.356   2.514   2.507
    1MOL    H10   16   2.366   2.310   2.654
    1MOL    H11   17   2.531   2.276   2.595
   14SOL     OW   18   1.460   1.505   1.339
   14SOL    HW1   19   1.484   1.599   1.365
   14SOL    HW2   20   1.444   1.451   1.421
   18SOL     OW   21   1.127   1.341   1.690
   18SOL    HW1   22   1.174   1.341   1.778
   18SOL    HW2   23   1.079   1.254   1.679
   35SOL     OW   24   1.187   1.792   1.616
   35SOL    HW1   25   1.211   1.852   1.540
   35SOL    HW2   26   1.194   1.697   1.586
   56SOL     OW   27   1.227   1.550   1.506
   56SOL    HW1   28   1.233   1.473   1.570
   56SOL    HW2   29   1.175   1.524   1.426
   95SOL     OW   30   1.754   1.223   1.588
   95SOL    HW1   31   1.845   1.184   1.575
   95SOL    HW2   32   1.762   1.319   1.612
   97SOL     OW   33   1.592   1.629   1.625
   97SOL    HW1   34   1.619   1.663   1.535
   97SOL    HW2   35   1.671   1.591   1.671
  122SOL     OW   36   1.728   0.935   1.854
  122SOL    HW1   37   1.682   0.928   1.765
  122SOL    HW2   38   1.666   0.979   1.920
  126SOL     OW   39   0.980   1.573   1.700
  126SOL    HW1   40   0.960   1.617   1.612
  126SOL    HW2   41   1.019   1.482   1.684
  127SOL     OW   42   1.859   1.518   1.605
  127SOL    HW1   43   1.873   1.545   1.510
  127SOL    HW2   44   1.942   1.540   1.658
  152SOL     OW   45   1.759   1.747   1.154
  152SOL    HW1   46   1.820   1.777   1.081
  152SOL    HW2   47   1.721   1.658   1.132
  153SOL     OW   48   1.252   1.731   1.128
  153SOL    HW1   49   1.336   1.736   1.074
  153SOL    HW2   50   1.229   1.635   1.146
  163SOL     OW   51   1.650   1.720   1.394
  163SOL    HW1   52   1.703   1.730   1.310
  163SOL    HW2   53   1.623   1.810   1.428
  171SOL     OW   54   1.614   1.292   1.289
  171SOL    HW1   55   1.674   1.295   1.369
  171SOL    HW2   56   1.539   1.356   1.302
  184SOL     OW   57   1.493   1.767   0.959
  184SOL    HW1   58   1.526   1.831   0.890
  184SOL    HW2   59   1.559   1.761   1.034
  186SOL     OW   60   1.450   1.220   1.633
  186SOL    HW1   61   1.441   1.210   1.732
  186SOL    HW2   62   1.546   1.213   1.607
  192SOL     OW   63   1.730   0.934   1.517
  192SOL    HW1   64   1.768   1.025   1.532
  192SOL    HW2   65   1.722   0.917   1.418
  203SOL     OW   66   1.705   1.487   1.104
  203SOL    HW1   67   1.612   1.462   1.077
  203SOL    HW2   68   1.731   1.437   1.186
  219SOL     OW   69   1.555   1.511   2.565
  219SOL    HW1   70   1.498   1.495   2.646
  219SOL    HW2   71   1.496   1.521   2.485
  227SOL     OW   72   1.460   1.505   3.201
  227SOL    HW1   73   1.484   1.599   3.227
  227SOL    HW2   74   1.444   1.451   3.283
  238SOL     OW   75   1.842   1.767   2.221
  238SOL    HW1   76   1.896   1.738   2.301
  238SOL    HW2   77   1.872   1.857   2.192
  240SOL     OW   78   1.689   0.922   2.474
  240SOL    HW1   79   1.784   0.893   2.482
  240SOL    HW2   80   1.681   0.987   2.399
  241SOL     OW   81   1.641   1.108   2.294
  241SOL    HW1   82   1.727   1.110   2.242
  241SOL    HW2   83   1.655   1.155   2.382
  247SOL     OW   84   1.525   0.999   2.052
  247SOL    HW1   85   1.462   0.923   2.065
  247SOL    HW2   86   1.573   1.017   2.138
  248SOL     OW   87   1.187   1.792   3.478
  248SOL    HW1   88   1.211   1.852   3.402
  248SOL    HW2   89   1.194   1.697   3.448
  250SOL     OW   90   1.466   1.417   2.815
  250SOL    HW1   91   1.407   1.423   2.895
  250SOL    HW2   92   1.451   1.329   2.769
  251SOL     OW   93   1.667   1.714   2.434
  251SOL    HW1   94   1.626   1.691   2.346
  251SOL    HW2   95   1.649   1.640   2.499
  254SOL     OW   96   1.576   1.662   2.169
  254SOL    HW1   97   1.665   1.708   2.172
  254SOL    HW2   98   1.555   1.638   2.074
  264SOL     OW   99   1.362   1.144   2.407
  264SOL    HW1  100   1.445   1.115   2.359
  264SOL    HW2  101   1.313   1.211   2.351
  266SOL     OW  102   1.008   1.456   2.339
  266SOL    HW1  103   0.962   1.528   2.287
  266SOL    HW2  104   1.004   1.476   2.437
  268SOL     OW  105   1.795   1.066   2.735
  268SOL    HW1  106   1.733   1.051   2.659
  268SOL    HW2  107   1.743   1.077   2.820
  269SOL     OW  108   1.227   1.550   3.368
  269SOL    HW1  109   1.233   1.473   3.432
  269SOL    HW2  110   1.175   1.524   3.288
  273SOL     OW  111   1.111   1.776   2.099
  273SOL    HW1  112   1.051   1.714   2.149
  273SOL    HW2  113   1.142   1.732   2.014
  275SOL     OW  114   1.632   1.377   1.943
  275SOL    HW1  115   1.600   1.471   1.933
  275SOL    HW2  116   1.556   1.314   1.931
  279SOL     OW  117   0.940   1.698   2.766
  279SOL    HW1  118   1.020   1.641   2.787
  279SOL    HW2  119   0.891   1.658   2.689
  289SOL     OW  120   1.434   1.188   1.903
  289SOL    HW1  121   1.466   1.112   1.960
  289SOL    HW2  122   1.342   1.215   1.933
  293SOL     OW  123   1.227   1.570   2.655
  293SOL    HW1  124   1.248   1.644   2.590
  293SOL    HW2  125   1.295   1.570   2.728
  295SOL     OW  126   1.271   1.797   2.453
  295SOL    HW1  127   1.315   1.861   2.389
  295SOL    HW2  128   1.221   1.849   2.523
  301SOL     OW  129   1.429   1.173   2.729
  301SOL    HW1  130   1.374   1.089   2.722
  301SOL    HW2  131   1.455   1.202   2.637
  303SOL     OW  132   1.857   0.833   2.239
  303SOL    HW1  133   1.899   0.769   2.303
  303SOL    HW2  134   1.819   0.782   2.161
  305SOL     OW  135   1.664   1.280   2.519
  305SOL    HW1  136   1.763   1.288   2.533
  305SOL    HW2  137   1.619   1.364   2.550
  308SOL     OW  138   1.754   1.223   3.450
  308SOL    HW1  139   1.845   1.184   3.437
  308SOL    HW2  140   1.762   1.319   3.474
  310SOL     OW  141   1.592   1.629   3.487
  310SOL    HW1  142   1.619   1.663   3.397
  310SOL    HW2  143   1.671   1.591   3.533
  312SOL     OW  144   1.638   1.099   2.941
  312SOL    HW1  145   1.643   1.180   3.000
  312SOL    HW2  146   1.552   1.101   2.890
  321SOL     OW  147   1.252   1.348   2.250
  321SOL    HW1  148   1.302   1.425   2.290
  321SOL    HW2  149   1.157   1.350   2.282
  322SOL     OW  150   1.272   1.445   3.004
  322SOL    HW1  151   1.319   1.458   3.091
  322SOL    HW2  152   1.206   1.371   3.013
  340SOL     OW  153   1.859   1.518   3.467
  340SOL    HW1  154   1.873   1.545   3.372
  340SOL    HW2  155   1.942   1.540   3.520
  344SOL     OW  156   1.068   1.333   2.711
  344SOL    HW1  157   1.075   1.249   2.656
  344SOL    HW2  158   1.130   1.402   2.675
  365SOL     OW  159   1.759   1.747   3.016
  365SOL    HW1  160   1.820   1.777   2.943
  365SOL    HW2  161   1.721   1.658   2.994
  366SOL     OW  162   1.252   1.731   2.990
  366SOL    HW1  163   1.336   1.736   2.936
  366SOL    HW2  164   1.229   1.635   3.008
  370SOL     OW  165   1.388   1.573   2.339
  370SOL    HW1  166   1.455   1.585   2.265
  370SOL    HW2  167   1.348   1.662   2.362
  375SOL     OW  168   1.650   1.720   3.256
  375SOL    HW1  169   1.703   1.730   3.172
  375SOL    HW2  170   1.623   1.810   3.290
  378SOL     OW  171   1.194   1.612   1.893
  378SOL    HW1  172   1.200   1.519   1.930
  378SOL    HW2  173   1.135   1.612   1.813
  381SOL     OW  174   1.504   1.607   1.906
  381SOL    HW1  175   1.412   1.644   1.913
  381SOL    HW2  176   1.542   1.627   1.816
  383SOL     OW  177   1.614   1.292   3.151
  383SOL    HW1  178   1.674   1.295   3.231
  383SOL    HW2  179   1.539   1.356   3.164
  394SOL     OW  180   1.183   1.335   1.981
  394SOL    HW1  181   1.084   1.324   1.983
  394SOL    HW2  182   1.217   1.350   2.074
  396SOL     OW  183   1.493   1.767   2.821
  396SOL    HW1  184   1.526   1.831   2.752
  396SOL    HW2  185   1.559   1.761   2.896
  409SOL     OW  186   1.861   1.569   2.713
  409SOL    HW1  187   1.790   1.557   2.643
  409SOL    HW2  188   1.862   1.490   2.773
  415SOL     OW  189   1.705   1.487   2.966
  415SOL    HW1  190   1.612   1.462   2.939
  415SOL    HW2  191   1.731   1.437   3.048
  417SOL     OW  192   0.812   1.586   2.549
  417SOL    HW1  193   0.844   1.596   2.455
  417SOL    HW2  194   0.733   1.524   2.551
  426SOL     OW  195   0.875   1.646   2.199
  426SOL    HW1  196   0.798   1.611   2.145
  426SOL    HW2  197   0.843   1.717   2.261
  546SOL     OW  198   0.850   2.660   1.823
  546SOL    HW1  199   0.846   2.736   1.888
  546SOL    HW2  200   0.872   2.696   1.732
  550SOL     OW  201   1.460   3.367   1.339
  550SOL    HW1  202   1.484   3.461   1.365
  550SOL    HW2  203   1.444   3.313   1.421
  554SOL     OW  204   1.127   3.203   1.690
  554SOL    HW1  205   1.174   3.203   1.778
  554SOL    HW2  206   1.079   3.116   1.679
  559SOL     OW  207   1.594   1.976   1.480
  559SOL    HW1  208   1.576   2.043   1.408
  559SOL    HW2  209   1.591   2.022   1.569
  567SOL     OW  210   1.293   3.090   1.423
  567SOL    HW1  211   1.330   3.017   1.365
  567SOL    HW2  212   1.345   3.095   1.508
  579SOL     OW  213   1.394   2.331   1.674
  579SOL    HW1  214   1.374   2.374   1.762
  579SOL    HW2  215   1.472   2.269   1.683
  580SOL     OW  216   0.973   2.752   1.572
  580SOL    HW1  217   1.019   2.668   1.543
  580SOL    HW2  218   0.917   2.786   1.497
  581SOL     OW  219   0.991   2.272   1.242
  581SOL    HW1  220   0.914   2.306   1.296
  581SOL    HW2  221   0.957   2.221   1.163
  586SOL     OW  222   1.719   2.447   1.831
  586SOL    HW1  223   1.693   2.536   1.795
  586SOL    HW2  224   1.717   2.379   1.758
  591SOL     OW  225   1.795   2.928   0.873
  591SOL    HW1  226   1.733   2.913   0.797
  591SOL    HW2  227   1.743   2.939   0.958
  592SOL     OW  228   1.227   3.412   1.506
  592SOL    HW1  229   1.233   3.335   1.570
  592SOL    HW2  230   1.175   3.386   1.426
  604SOL     OW  231   1.547   2.084   1.729
  604SOL    HW1  232   1.542   2.121   1.821
  604SOL    HW2  233   1.475   2.015   1.717
  606SOL     OW  234   0.781   2.126   1.749
  606SOL    HW1  235   0.848   2.065   1.792
  606SOL    HW2  236   0.708   2.145   1.814
  608SOL     OW  237   1.351   2.452   1.433
  608SOL    HW1  238   1.379   2.409   1.518
  608SOL    HW2  239   1.376   2.548   1.434
  615SOL     OW  240   1.076   2.545   1.464
  615SOL    HW1  241   0.996   2.484   1.467
  615SOL    HW2  242   1.157   2.492   1.440
  625SOL     OW  243   1.466   2.452   0.992
  625SOL    HW1  244   1.436   2.357   0.999
  625SOL    HW2  245   1.539   2.468   1.058
  631SOL     OW  246   1.754   3.085   1.588
  631SOL    HW1  247   1.845   3.046   1.575
  631SOL    HW2  248   1.762   3.181   1.612
  633SOL     OW  249   1.592   3.491   1.625
  633SOL    HW1  250   1.619   3.525   1.535
  633SOL    HW2  251   1.671   3.453   1.671
  635SOL     OW  252   1.638   2.961   1.079
  635SOL    HW1  253   1.643   3.042   1.138
  635SOL    HW2  254   1.552   2.963   1.028
  637SOL     OW  255   0.980   2.978   1.719
  637SOL    HW1  256   0.881   2.984   1.729
  637SOL    HW2  257   1.003   2.898   1.663
  640SOL     OW  258   1.274   2.248   1.262
  640SOL    HW1  259   1.295   2.322   1.326
  640SOL    HW2  260   1.185   2.265   1.219
  649SOL     OW  261   1.587   2.641   1.670
  649SOL    HW1  262   1.495   2.679   1.665
  649SOL    HW2  263   1.647   2.688   1.605
  650SOL     OW  264   1.013   1.967   1.770
  650SOL    HW1  265   1.019   2.052   1.718
  650SOL    HW2  266   1.045   1.891   1.713
  653SOL     OW  267   1.360   2.724   1.045
  653SOL    HW1  268   1.285   2.724   0.979
  653SOL    HW2  269   1.397   2.632   1.054
  658SOL     OW  270   1.728   2.797   1.854
  658SOL    HW1  271   1.682   2.790   1.765
  658SOL    HW2  272   1.666   2.841   1.920
  663SOL     OW  273   1.859   3.380   1.605
  663SOL    HW1  274   1.873   3.407   1.510
  663SOL    HW2  275   1.942   3.402   1.658
  670SOL     OW  276   1.138   2.242   1.678
  670SOL    HW1  277   1.093   2.305   1.742
  670SOL    HW2  278   1.231   2.273   1.661
  671SOL     OW  279   1.160   2.069   1.477
  671SOL    HW1  280   1.160   2.133   1.554
  671SOL    HW2  281   1.188   2.117   1.394
  678SOL     OW  282   1.369   2.812   1.660
  678SOL    HW1  283   1.408   2.901   1.680
  678SOL    HW2  284   1.379   2.792   1.563
  680SOL     OW  285   1.657   2.466   1.206
  680SOL    HW1  286   1.619   2.397   1.268
  680SOL    HW2  287   1.739   2.430   1.162
  686SOL     OW  288   1.347   2.921   1.234
  686SOL    HW1  289   1.371   2.858   1.160
  686SOL    HW2  290   1.257   2.961   1.216
  699SOL     OW  291   1.650   3.582   1.394
  699SOL    HW1  292   1.703   3.592   1.310
  699SOL    HW2  293   1.623   3.672   1.428
  700SOL     OW  294   1.841   2.037   0.963
  700SOL    HW1  295   1.880   1.952   0.927
  700SOL    HW2  296   1.743   2.039   0.944
  707SOL     OW  297   1.614   3.154   1.289
  707SOL    HW1  298   1.674   3.157   1.369
  707SOL    HW2  299   1.539   3.218   1.302
  711SOL     OW  300   1.709   2.247   1.381
  711SOL    HW1  301   1.782   2.316   1.385
  711SOL    HW2  302   1.737   2.172   1.322
  716SOL     OW  303   1.440   2.718   1.398
  716SOL    HW1  304   1.383   2.770   1.335
  716SOL    HW2  305   1.536   2.730   1.374
  721SOL     OW  306   0.716   2.427   1.708
  721SOL    HW1  307   0.735   2.492   1.782
  721SOL    HW2  308   0.776   2.347   1.717
  722SOL     OW  309   1.450   3.082   1.633
  722SOL    HW1  310   1.441   3.072   1.732
  722SOL    HW2  311   1.546   3.075   1.607
  724SOL     OW  312   1.674   2.745   1.254
  724SOL    HW1  313   1.647   2.656   1.217
  724SOL    HW2  314   1.675   2.813   1.181
  727SOL     OW  315   1.777   2.204   1.642
  727SOL    HW1  316   1.760   2.235   1.548
  727SOL    HW2  317   1.693   2.167   1.680
  728SOL     OW  318   1.730   2.796   1.517
  728SOL    HW1  319   1.768   2.887   1.532
  728SOL    HW2  320   1.722   2.779   1.418
  737SOL     OW  321   1.824   2.054   1.227
  737SOL    HW1  322   1.820   1.964   1.271
  737SOL    HW2  323   1.827   2.043   1.128
  739SOL     OW  324   1.705   3.349   1.104
  739SOL    HW1  325   1.612   3.324   1.077
  739SOL    HW2  326   1.731   3.299   1.186
  742SOL     OW  327   1.424   2.076   1.112
  742SOL    HW1  328   1.476   2.011   1.167
  742SOL    HW2  329   1.375   2.139   1.173
  748SOL     OW  330   1.593   2.083   0.882
  748SOL    HW1  331   1.509   2.082   0.936
  748SOL    HW2  332   1.595   2.166   0.826
  755SOL     OW  333   1.555   3.373   2.565
  755SOL    HW1  334   1.498   3.357   2.646
  755SOL    HW2  335   1.496   3.383   2.485
  756SOL     OW  336   1.135   2.565   2.579
  756SOL    HW1  337   1.192   2.643   2.554
  756SOL    HW2  338   1.075   2.591   2.655
  757SOL     OW  339   1.755   2.469   2.093
  757SOL    HW1  340   1.743   2.456   1.994
  757SOL    HW2  341   1.725   2.388   2.142
  760SOL     OW  342   0.685   2.874   2.527
  760SOL    HW1  343   0.754   2.858   2.597
  760SOL    HW2  344   0.612   2.931   2.565
  763SOL     OW  345   1.460   3.367   3.201
  763SOL    HW1  346   1.484   3.461   3.227
  763SOL    HW2  347   1.444   3.313   3.283
  765SOL     OW  348   1.603   2.309   2.599
  765SOL    HW1  349   1.529   2.355   2.549
  765SOL    HW2  350   1.654   2.377   2.652
  772SOL     OW  351   1.594   1.976   3.342
  772SOL    HW1  352   1.576   2.043   3.270
  772SOL    HW2  353   1.591   2.022   3.431
  774SOL     OW  354   1.842   3.629   2.221
  774SOL    HW1  355   1.896   3.600   2.301
  774SOL    HW2  356   1.872   3.719   2.192
  776SOL     OW  357   1.689   2.784   2.474
  776SOL    HW1  358   1.784   2.755   2.482
  776SOL    HW2  359   1.681   2.849   2.399
  777SOL     OW  360   1.641   2.970   2.294
  777SOL    HW1  361   1.727   2.972   2.242
  777SOL    HW2  362   1.655   3.017   2.382
  780SOL     OW  363   1.293   3.090   3.285
  780SOL    HW1  364   1.330   3.017   3.227
  780SOL    HW2  365   1.345   3.095   3.370
  781SOL     OW  366   0.809   1.866   2.364
  781SOL    HW1  367   0.849   1.957   2.355
  781SOL    HW2  368   0.709   1.874   2.370
  783SOL     OW  369   1.525   2.861   2.052
  783SOL    HW1  370   1.462   2.785   2.065
  783SOL    HW2  371   1.573   2.879   2.138
  786SOL     OW  372   1.466   3.279   2.815
  786SOL    HW1  373   1.407   3.285   2.895
  786SOL    HW2  374   1.451   3.191   2.769
  787SOL     OW  375   1.667   3.576   2.434
  787SOL    HW1  376   1.626   3.553   2.346
  787SOL    HW2  377   1.649   3.502   2.499
  789SOL     OW  378   1.281   2.207   2.806
  789SOL    HW1  379   1.195   2.157   2.793
  789SOL    HW2  380   1.343   2.153   2.862
  790SOL     OW  381   1.576   3.524   2.169
  790SOL    HW1  382   1.665   3.570   2.172
  790SOL    HW2  383   1.555   3.500   2.074
  792SOL     OW  384   1.394   2.331   3.536
  792SOL    HW1  385   1.374   2.374   3.624
  792SOL    HW2  386   1.472   2.269   3.545
  793SOL     OW  387   0.973   2.752   3.434
  793SOL    HW1  388   1.019   2.668   3.405
  793SOL    HW2  389   0.917   2.786   3.359
  794SOL     OW  390   0.991   2.272   3.104
  794SOL    HW1  391   0.914   2.306   3.158
  794SOL    HW2  392   0.957   2.221   3.025
  795SOL     OW  393   1.041   2.563   2.291
  795SOL    HW1  394   1.067   2.559   2.387
  795SOL    HW2  395   0.956   2.512   2.277
  798SOL     OW  396   0.865   2.210   2.057
  798SOL    HW1  397   0.924   2.273   2.008
  798SOL    HW2  398   0.884   2.116   2.028
  799SOL     OW  399   1.719   2.447   3.693
  799SOL    HW1  400   1.693   2.536   3.657
  799SOL    HW2  401   1.717   2.379   3.620
  800SOL     OW  402   1.362   3.006   2.407
  800SOL    HW1  403   1.445   2.977   2.359
  800SOL    HW2  404   1.313   3.073   2.351
  802SOL     OW  405   1.008   3.318   2.339
  802SOL    HW1  406   0.962   3.390   2.287
  802SOL    HW2  407   1.004   3.338   2.437
  804SOL     OW  408   1.795   2.928   2.735
  804SOL    HW1  409   1.733   2.913   2.659
  804SOL    HW2  410   1.743   2.939   2.820
  807SOL     OW  411   1.458   2.597   2.590
  807SOL    HW1  412   1.453   2.532   2.665
  807SOL    HW2  413   1.538   2.656   2.603
  811SOL     OW  414   1.632   3.239   1.943
  811SOL    HW1  415   1.600   3.333   1.933
  811SOL    HW2  416   1.556   3.176   1.931
  813SOL     OW  417   1.400   1.969   2.288
  813SOL    HW1  418   1.376   1.932   2.198
  813SOL    HW2  419   1.499   1.985   2.292
  817SOL     OW  420   1.547   2.084   3.591
  817SOL    HW1  421   1.542   2.121   3.683
  817SOL    HW2  422   1.475   2.015   3.579
  821SOL     OW  423   1.351   2.452   3.295
  821SOL    HW1  424   1.379   2.409   3.380
  821SOL    HW2  425   1.376   2.548   3.296
  823SOL     OW  426   0.922   2.365   2.761
  823SOL    HW1  427   0.897   2.356   2.665
  823SOL    HW2  428   0.970   2.283   2.792
  825SOL     OW  429   1.434   3.050   1.903
  825SOL    HW1  430   1.466   2.974   1.960
  825SOL    HW2  431   1.342   3.077   1.933
  827SOL     OW  432   0.935   2.098   2.342
  827SOL    HW1  433   0.887   2.139   2.264
  827SOL    HW2  434   1.034   2.096   2.323
  828SOL     OW  435   1.076   2.545   3.326
  828SOL    HW1  436   0.996   2.484   3.329
  828SOL    HW2  437   1.157   2.492   3.302
  829SOL     OW  438   1.227   3.432   2.655
  829SOL    HW1  439   1.248   3.506   2.590
  829SOL    HW2  440   1.295   3.432   2.728
  831SOL     OW  441   1.271   3.659   2.453
  831SOL    HW1  442   1.315   3.723   2.389
  831SOL    HW2  443   1.221   3.711   2.523
  832SOL     OW  444   1.032   2.411   1.878
  832SOL    HW1  445   0.991   2.493   1.839
  832SOL    HW2  446   1.096   2.437   1.951
  835SOL     OW  447   0.866   2.316   2.504
  835SOL    HW1  448   0.834   2.388   2.442
  835SOL    HW2  449   0.890   2.235   2.451
  836SOL     OW  450   1.017   1.901   2.615
  836SOL    HW1  451   0.945   1.906   2.546
  836SOL    HW2  452   0.993   1.832   2.684
  837SOL     OW  453   1.429   3.035   2.729
  837SOL    HW1  454   1.374   2.951   2.722
  837SOL    HW2  455   1.455   3.064   2.637
  838SOL     OW  456   1.466   2.452   2.854
  838SOL    HW1  457   1.436   2.357   2.861
  838SOL    HW2  458   1.539   2.468   2.920
  839SOL     OW  459   1.857   2.695   2.239
  839SOL    HW1  460   1.899   2.631   2.303
  839SOL    HW2  461   1.819   2.644   2.161
  841SOL     OW  462   1.664   3.142   2.519
  841SOL    HW1  463   1.763   3.150   2.533
  841SOL    HW2  464   1.619   3.226   2.550
  842SOL     OW  465   1.390   2.437   1.940
  842SOL    HW1  466   1.336   2.416   2.021
  842SOL    HW2  467   1.481   2.396   1.949
  844SOL     OW  468   1.754   3.085   3.450
  844SOL    HW1  469   1.845   3.046   3.437
  844SOL    HW2  470   1.762   3.181   3.474
  845SOL     OW  471   1.064   3.209   3.202
  845SOL    HW1  472   0.984   3.186   3.257
  845SOL    HW2  473   1.147   3.183   3.251
  846SOL     OW  474   1.592   3.491   3.487
  846SOL    HW1  475   1.619   3.525   3.397
  846SOL    HW2  476   1.671   3.453   3.533
  847SOL     OW  477   1.111   3.057   2.962
  847SOL    HW1  478   1.071   3.101   3.043
  847SOL    HW2  479   1.070   3.094   2.879
  848SOL     OW  480   1.638   2.961   2.941
  848SOL    HW1  481   1.643   3.042   3.000
  848SOL    HW2  482   1.552   2.963   2.890
  849SOL     OW  483   0.915   1.951   3.264
  849SOL    HW1  484   0.940   1.931   3.169
  849SOL    HW2  485   0.987   2.007   3.306
  851SOL     OW  486   0.705   2.912   2.230
  851SOL    HW1  487   0.691   2.919   2.329
  851SOL    HW2  488   0.789   2.861   2.212
  853SOL     OW  489   1.274   2.248   3.124
  853SOL    HW1  490   1.295   2.322   3.188
  853SOL    HW2  491   1.185   2.265   3.081
  857SOL     OW  492   1.252   3.210   2.250
  857SOL    HW1  493   1.302   3.287   2.290
  857SOL    HW2  494   1.157   3.212   2.282
  858SOL     OW  495   1.272   3.307   3.004
  858SOL    HW1  496   1.319   3.320   3.091
  858SOL    HW2  497   1.206   3.233   3.013
  859SOL     OW  498   1.582   2.501   2.334
  859SOL    HW1  499   1.551   2.562   2.407
  859SOL    HW2  500   1.632   2.553   2.265
  862SOL     OW  501   1.587   2.641   3.532
  862SOL    HW1  502   1.495   2.679   3.527
  862SOL    HW2  503   1.647   2.688   3.467
  866SOL     OW  504   1.360   2.724   2.907
  866SOL    HW1  505   1.285   2.724   2.841
  866SOL    HW2  506   1.397   2.632   2.916
  867SOL     OW  507   1.209   2.387   2.137
  867SOL    HW1  508   1.222   2.303   2.191
  867SOL    HW2  509   1.180   2.461   2.197
  870SOL     OW  510   0.732   2.496   2.926
  870SOL    HW1  511   0.791   2.470   2.850
  870SOL    HW2  512   0.704   2.592   2.915
  871SOL     OW  513   1.728   2.797   3.716
  871SOL    HW1  514   1.682   2.790   3.627
  871SOL    HW2  515   1.666   2.841   3.782
  873SOL     OW  516   1.622   2.229   2.236
  873SOL    HW1  517   1.624   2.153   2.300
  873SOL    HW2  518   1.574   2.306   2.276
  874SOL     OW  519   1.023   2.628   2.828
  874SOL    HW1  520   1.038   2.649   2.924
  874SOL    HW2  521   0.993   2.533   2.819
  876SOL     OW  522   1.859   3.380   3.467
  876SOL    HW1  523   1.873   3.407   3.372
  876SOL    HW2  524   1.942   3.402   3.520
  878SOL     OW  525   1.540   2.136   1.987
  878SOL    HW1  526   1.479   2.061   2.010
  878SOL    HW2  527   1.562   2.188   2.070
  879SOL     OW  528   1.303   2.700   1.904
  879SOL    HW1  529   1.337   2.607   1.919
  879SOL    HW2  530   1.321   2.727   1.809
  880SOL     OW  531   1.068   3.195   2.711
  880SOL    HW1  532   1.075   3.111   2.656
  880SOL    HW2  533   1.130   3.264   2.675
  883SOL     OW  534   1.138   2.242   3.540
  883SOL    HW1  535   1.093   2.305   3.604
  883SOL    HW2  536   1.231   2.273   3.523
  884SOL     OW  537   1.160   2.069   3.339
  884SOL    HW1  538   1.160   2.133   3.416
  884SOL    HW2  539   1.188   2.117   3.256
  888SOL     OW  540   1.002   2.658   3.100
  888SOL    HW1  541   1.043   2.626   3.186
  888SOL    HW2  542   0.906   2.631   3.097
  891SOL     OW  543   1.369   2.812   3.522
  891SOL    HW1  544   1.408   2.901   3.542
  891SOL    HW2  545   1.379   2.792   3.425
  892SOL     OW  546   0.815   2.434   2.187
  892SOL    HW1  547   0.822   2.345   2.141
  892SOL    HW2  548   0.721   2.468   2.179
  893SOL     OW  549   1.657   2.466   3.068
  893SOL    HW1  550   1.619   2.397   3.130
  893SOL    HW2  551   1.739   2.430   3.024
  899SOL     OW  552   1.347   2.921   3.096
  899SOL    HW1  553   1.371   2.858   3.022
  899SOL    HW2  554   1.257   2.961   3.078
  900SOL     OW  555   1.302   2.717   2.171
  900SOL    HW1  556   1.216   2.686   2.213
  900SOL    HW2  557   1.298   2.703   2.072
  901SOL     OW  558   1.759   3.609   3.016
  901SOL    HW1  559   1.820   3.639   2.943
  901SOL    HW2  560   1.721   3.520   2.994
  902SOL     OW  561   1.252   3.593   2.990
  902SOL    HW1  562   1.336   3.598   2.936
  902SOL    HW2  563   1.229   3.497   3.008
  905SOL     OW  564   1.726   1.997   2.385
  905SOL    HW1  565   1.799   1.980   2.318
  905SOL    HW2  566   1.695   1.910   2.423
  906SOL     OW  567   1.388   3.435   2.339
  906SOL    HW1  568   1.455   3.447   2.265
  906SOL    HW2  569   1.348   3.524   2.362
  908SOL     OW  570   1.280   2.789   2.534
  908SOL    HW1  571   1.340   2.708   2.536
  908SOL    HW2  572   1.320   2.858   2.474
  911SOL     OW  573   1.650   3.582   3.256
  911SOL    HW1  574   1.703   3.592   3.172
  911SOL    HW2  575   1.623   3.672   3.290
  912SOL     OW  576   1.841   2.037   2.825
  912SOL    HW1  577   1.880   1.952   2.789
  912SOL    HW2  578   1.743   2.039   2.806
  914SOL     OW  579   1.194   3.474   1.893
  914SOL    HW1  580   1.200   3.381   1.930
  914SOL    HW2  581   1.135   3.474   1.813
  916SOL     OW  582   0.916   2.772   2.153
  916SOL    HW1  583   0.979   2.810   2.085
  916SOL    HW2  584   0.956   2.689   2.192
  917SOL     OW  585   1.504   3.469   1.906
  917SOL    HW1  586   1.412   3.506   1.913
  917SOL    HW2  587   1.542   3.489   1.816
  919SOL     OW  588   1.614   3.154   3.151
  919SOL    HW1  589   1.674   3.157   3.231
  919SOL    HW2  590   1.539   3.218   3.164
  920SOL     OW  591   1.039   2.960   2.558
  920SOL    HW1  592   0.969   2.913   2.612
  920SOL    HW2  593   1.098   2.892   2.515
  921SOL     OW  594   1.014   2.098   2.833
  921SOL    HW1  595   1.006   2.062   2.740
  921SOL    HW2  596   1.012   2.022   2.898
  923SOL     OW  597   1.709   2.247   3.243
  923SOL    HW1  598   1.782   2.316   3.247
  923SOL    HW2  599   1.737   2.172   3.184
  928SOL     OW  600   1.440   2.718   3.260
  928SOL    HW1  601   1.383   2.770   3.197
  928SOL    HW2  602   1.536   2.730   3.236
  930SOL     OW  603   1.183   3.197   1.981
  930SOL    HW1  604   1.084   3.186   1.983
  930SOL    HW2  605   1.217   3.212   2.074
  932SOL     OW  606   1.493   3.629   2.821
  932SOL    HW1  607   1.526   3.693   2.752
  932SOL    HW2  608   1.559   3.623   2.896
  934SOL     OW  609   1.450   3.082   3.495
  934SOL    HW1  610   1.441   3.072   3.594
  934SOL    HW2  611   1.546   3.075   3.469
  936SOL     OW  612   1.674   2.745   3.116
  936SOL    HW1  613   1.647   2.656   3.079
  936SOL    HW2  614   1.675   2.813   3.043
  937SOL     OW  615   1.225   2.187   2.311
  937SOL    HW1  616   1.290   2.113   2.300
  937SOL    HW2  617   1.245   2.237   2.395
  939SOL     OW  618   1.777   2.204   3.504
  939SOL    HW1  619   1.760   2.235   3.410
  939SOL    HW2  620   1.693   2.167   3.542
  940SOL     OW  621   1.730   2.796   3.379
  940SOL    HW1  622   1.768   2.887   3.394
  940SOL    HW2  623   1.722   2.779   3.280
  943SOL     OW  624   0.859   2.818   2.723
  943SOL    HW1  625   0.913   2.749   2.771
  943SOL    HW2  626   0.827   2.887   2.789
  944SOL     OW  627   1.083   2.846   1.949
  944SOL    HW1  628   1.060   2.899   1.867
  944SOL    HW2  629   1.164   2.790   1.930
  945SOL     OW  630   1.861   3.431   2.713
  945SOL    HW1  631   1.790   3.419   2.643
  945SOL    HW2  632   1.862   3.352   2.773
  949SOL     OW  633   1.824   2.054   3.089
  949SOL    HW1  634   1.820   1.964   3.133
  949SOL    HW2  635   1.827   2.043   2.990
  951SOL     OW  636   1.705   3.349   2.966
  951SOL    HW1  637   1.612   3.324   2.939
  951SOL    HW2  638   1.731   3.299   3.048
  954SOL     OW  639   1.424   2.076   2.974
  954SOL    HW1  640   1.476   2.011   3.029
  954SOL    HW2  641   1.375   2.139   3.035
  955SOL     OW  642   1.001   1.896   3.016
  955SOL    HW1  643   0.938   1.824   2.985
  955SOL    HW2  644   1.094   1.860   3.016
  958SOL     OW  645   1.352   1.914   2.030
  958SOL    HW1  646   1.387   1.873   1.946
  958SOL    HW2  647   1.262   1.876   2.050
  959SOL     OW  648   1.300   2.315   2.553
  959SOL    HW1  649   1.241   2.395   2.557
  959SOL    HW2  650   1.315   2.280   2.646
  960SOL     OW  651   1.593   2.083   2.744
  960SOL    HW1  652   1.509   2.082   2.798
  960SOL    HW2  653   1.595   2.166   2.688
  967SOL     OW  654   1.755   2.469   3.955
  967SOL    HW1  655   1.743   2.456   3.856
  967SOL    HW2  656   1.725   2.388   4.004
 1018SOL     OW  657   1.390   2.437   3.802
 1018SOL    HW1  658   1.336   2.416   3.883
 1018SOL    HW2  659   1.481   2.396   3.811
 1029SOL     OW  660   1.540   2.136   3.849
 1029SOL    HW1  661   1.479   2.061   3.872
 1029SOL    HW2  662   1.562   2.188   3.932
 1030SOL     OW  663   1.303   2.700   3.766
 1030SOL    HW1  664   1.337   2.607   3.781
 1030SOL    HW2  665   1.321   2.727   3.671
 1218SOL     OW  666   1.400   3.831   2.288
 1218SOL    HW1  667   1.376   3.794   2.198
 1218SOL    HW2  668   1.499   3.847   2.292
 1276SOL     OW  669   1.726   3.859   2.385
 1276SOL    HW1  670   1.799   3.842   2.318
 1276SOL    HW2  671   1.695   3.772   2.423
 1278SOL     OW  672   1.841   3.899   2.825
 1278SOL    HW1  673   1.880   3.814   2.789
 1278SOL    HW2  674   1.743   3.901   2.806
 1295SOL     OW  675   1.824   3.916   3.089
 1295SOL    HW1  676   1.820   3.826   3.133
 1295SOL    HW2  677   1.827   3.905   2.990
 1300SOL     OW  678   1.352   3.776   2.030
 1300SOL    HW1  679   1.387   3.735   1.946
 1300SOL    HW2  680   1.262   3.738   2.050
 1302SOL     OW  681   1.593   3.945   2.744
 1302SOL    HW1  682   1.509   3.944   2.798
 1302SOL    HW2  683   1.595   4.028   2.688
 1367SOL     OW  684   2.431   1.275   1.165
 1367SOL    HW1  685   2.338   1.268   1.128
 1367SOL    HW2  686   2.442   1.364   1.209
 1372SOL     OW  687   2.712   0.798   1.823
 1372SOL    HW1  688   2.708   0.874   1.888
 1372SOL    HW2  689   2.734   0.834   1.732
 1374SOL     OW  690   2.548   1.161   1.803
 1374SOL    HW1  691   2.608   1.240   1.817
 1374SOL    HW2  692   2.462   1.192   1.762
 1375SOL     OW  693   2.197   1.435   1.061
 1375SOL    HW1  694   2.119   1.404   1.008
 1375SOL    HW2  695   2.255   1.493   1.004
 1376SOL     OW  696   3.322   1.505   1.339
 1376SOL    HW1  697   3.346   1.599   1.365
 1376SOL    HW2  698   3.306   1.451   1.421
 1380SOL     OW  699   2.989   1.341   1.690
 1380SOL    HW1  700   3.036   1.341   1.778
 1380SOL    HW2  701   2.941   1.254   1.679
 1383SOL     OW  702   2.482   1.786   1.439
 1383SOL    HW1  703   2.390   1.769   1.474
 1383SOL    HW2  704   2.510   1.878   1.465
 1392SOL     OW  705   3.155   1.228   1.423
 1392SOL    HW1  706   3.192   1.155   1.365
 1392SOL    HW2  707   3.207   1.233   1.508
 1396SOL     OW  708   3.049   1.792   1.616
 1396SOL    HW1  709   3.073   1.852   1.540
 1396SOL    HW2  710   3.056   1.697   1.586
 1405SOL     OW  711   2.835   0.890   1.572
 1405SOL    HW1  712   2.881   0.806   1.543
 1405SOL    HW2  713   2.779   0.924   1.497
 1409SOL     OW  714   1.992   1.821   1.571
 1409SOL    HW1  715   1.982   1.806   1.670
 1409SOL    HW2  716   1.906   1.857   1.535
 1415SOL     OW  717   2.213   1.801   0.853
 1415SOL    HW1  718   2.263   1.715   0.859
 1415SOL    HW2  719   2.278   1.878   0.850
 1417SOL     OW  720   3.089   1.550   1.506
 1417SOL    HW1  721   3.095   1.473   1.570
 1417SOL    HW2  722   3.037   1.524   1.426
 1420SOL     OW  723   2.323   1.266   1.727
 1420SOL    HW1  724   2.273   1.267   1.641
 1420SOL    HW2  725   2.260   1.248   1.803
 1426SOL     OW  726   2.111   1.785   1.241
 1426SOL    HW1  727   2.168   1.720   1.291
 1426SOL    HW2  728   2.095   1.752   1.148
 1427SOL     OW  729   2.802   1.698   0.904
 1427SOL    HW1  730   2.882   1.641   0.925
 1427SOL    HW2  731   2.753   1.658   0.827
 1432SOL     OW  732   2.750   1.514   1.195
 1432SOL    HW1  733   2.727   1.489   1.101
 1432SOL    HW2  734   2.811   1.445   1.234
 1434SOL     OW  735   2.665   1.402   0.924
 1434SOL    HW1  736   2.755   1.416   0.882
 1434SOL    HW2  737   2.594   1.404   0.853
 1457SOL     OW  738   2.926   1.347   1.340
 1457SOL    HW1  739   2.846   1.324   1.395
 1457SOL    HW2  740   3.009   1.321   1.389
 1458SOL     OW  741   3.454   1.629   1.625
 1458SOL    HW1  742   3.481   1.663   1.535
 1458SOL    HW2  743   3.533   1.591   1.671
 1462SOL     OW  744   2.842   1.116   1.719
 1462SOL    HW1  745   2.743   1.122   1.729
 1462SOL    HW2  746   2.865   1.036   1.663
 1466SOL     OW  747   1.926   1.564   1.331
 1466SOL    HW1  748   1.880   1.646   1.297
 1466SOL    HW2  749   2.024   1.583   1.340
 1470SOL     OW  750   3.134   1.445   1.142
 1470SOL    HW1  751   3.181   1.458   1.229
 1470SOL    HW2  752   3.068   1.371   1.151
 1472SOL     OW  753   2.216   1.510   1.329
 1472SOL    HW1  754   2.195   1.466   1.242
 1472SOL    HW2  755   2.313   1.536   1.332
 1481SOL     OW  756   1.899   1.310   1.282
 1481SOL    HW1  757   1.952   1.261   1.350
 1481SOL    HW2  758   1.921   1.408   1.287
 1487SOL     OW  759   2.842   1.573   1.700
 1487SOL    HW1  760   2.822   1.617   1.612
 1487SOL    HW2  761   2.881   1.482   1.684
 1488SOL     OW  762   3.721   1.518   1.605
 1488SOL    HW1  763   3.735   1.545   1.510
 1488SOL    HW2  764   3.804   1.540   1.658
 1489SOL     OW  765   2.212   0.898   1.804
 1489SOL    HW1  766   2.288   0.942   1.852
 1489SOL    HW2  767   2.247   0.851   1.722
 1498SOL     OW  768   1.950   1.801   0.927
 1498SOL    HW1  769   1.908   1.715   0.900
 1498SOL    HW2  770   2.044   1.804   0.893
 1499SOL     OW  771   2.366   1.568   0.910
 1499SOL    HW1  772   2.432   1.642   0.919
 1499SOL    HW2  773   2.410   1.489   0.868
 1506SOL     OW  774   2.114   1.564   1.744
 1506SOL    HW1  775   2.084   1.621   1.820
 1506SOL    HW2  776   2.107   1.467   1.770
 1508SOL     OW  777   2.792   1.678   1.465
 1508SOL    HW1  778   2.768   1.660   1.370
 1508SOL    HW2  779   2.822   1.772   1.475
 1510SOL     OW  780   2.021   1.137   1.466
 1510SOL    HW1  781   2.043   1.076   1.542
 1510SOL    HW2  782   2.031   1.088   1.380
 1514SOL     OW  783   3.114   1.731   1.128
 1514SOL    HW1  784   3.198   1.736   1.074
 1514SOL    HW2  785   3.091   1.635   1.146
 1516SOL     OW  786   2.550   1.662   1.716
 1516SOL    HW1  787   2.494   1.743   1.725
 1516SOL    HW2  788   2.602   1.666   1.630
 1520SOL     OW  789   1.992   1.794   1.851
 1520SOL    HW1  790   1.951   1.720   1.904
 1520SOL    HW2  791   2.056   1.845   1.909
 1522SOL     OW  792   2.692   1.273   1.422
 1522SOL    HW1  793   2.687   1.306   1.517
 1522SOL    HW2  794   2.606   1.292   1.376
 1524SOL     OW  795   3.512   1.720   1.394
 1524SOL    HW1  796   3.565   1.730   1.310
 1524SOL    HW2  797   3.485   1.810   1.428
 1528SOL     OW  798   2.684   1.002   1.372
 1528SOL    HW1  799   2.724   1.001   1.280
 1528SOL    HW2  800   2.694   1.094   1.412
 1531SOL     OW  801   2.234   1.288   1.490
 1531SOL    HW1  802   2.221   1.381   1.456
 1531SOL    HW2  803   2.150   1.236   1.477
 1538SOL     OW  804   1.967   1.013   1.726
 1538SOL    HW1  805   1.890   0.980   1.780
 1538SOL    HW2  806   2.052   0.983   1.768
 1546SOL     OW  807   3.312   1.220   1.633
 1546SOL    HW1  808   3.303   1.210   1.732
 1546SOL    HW2  809   3.408   1.213   1.607
 1547SOL     OW  810   2.252   1.741   1.560
 1547SOL    HW1  811   2.161   1.782   1.558
 1547SOL    HW2  812   2.245   1.647   1.592
 1554SOL     OW  813   2.523   1.790   0.953
 1554SOL    HW1  814   2.477   1.878   0.940
 1554SOL    HW2  815   2.622   1.802   0.946
 1558SOL     OW  816   2.083   1.314   1.844
 1558SOL    HW1  817   2.018   1.241   1.823
 1558SOL    HW2  818   2.087   1.328   1.942
 1560SOL     OW  819   2.534   1.391   1.624
 1560SOL    HW1  820   2.456   1.341   1.662
 1560SOL    HW2  821   2.531   1.486   1.655
 1569SOL     OW  822   2.480   1.567   1.284
 1569SOL    HW1  823   2.475   1.649   1.341
 1569SOL    HW2  824   2.569   1.564   1.239
 1578SOL     OW  825   2.431   1.275   3.027
 1578SOL    HW1  826   2.338   1.268   2.990
 1578SOL    HW2  827   2.442   1.364   3.071
 1579SOL     OW  828   3.417   1.511   2.565
 1579SOL    HW1  829   3.360   1.495   2.646
 1579SOL    HW2  830   3.358   1.521   2.485
 1580SOL     OW  831   2.997   0.703   2.579
 1580SOL    HW1  832   3.054   0.781   2.554
 1580SOL    HW2  833   2.937   0.729   2.655
 1582SOL     OW  834   2.630   1.144   2.885
 1582SOL    HW1  835   2.552   1.161   2.945
 1582SOL    HW2  836   2.664   1.231   2.849
 1584SOL     OW  837   2.547   1.012   2.527
 1584SOL    HW1  838   2.616   0.996   2.597
 1584SOL    HW2  839   2.474   1.069   2.565
 1585SOL     OW  840   2.548   1.161   3.665
 1585SOL    HW1  841   2.608   1.240   3.679
 1585SOL    HW2  842   2.462   1.192   3.624
 1586SOL     OW  843   2.197   1.435   2.923
 1586SOL    HW1  844   2.119   1.404   2.870
 1586SOL    HW2  845   2.255   1.493   2.866
 1587SOL     OW  846   3.322   1.505   3.201
 1587SOL    HW1  847   3.346   1.599   3.227
 1587SOL    HW2  848   3.306   1.451   3.283
 1590SOL     OW  849   2.093   1.713   2.345
 1590SOL    HW1  850   2.127   1.790   2.399
 1590SOL    HW2  851   2.137   1.713   2.255
 1591SOL     OW  852   2.989   1.341   3.552
 1591SOL    HW1  853   3.036   1.341   3.640
 1591SOL    HW2  854   2.941   1.254   3.541
 1592SOL     OW  855   2.092   1.434   2.400
 1592SOL    HW1  856   2.066   1.530   2.400
 1592SOL    HW2  857   2.021   1.380   2.445
 1593SOL     OW  858   2.102   1.091   2.748
 1593SOL    HW1  859   2.116   1.007   2.800
 1593SOL    HW2  860   2.047   1.155   2.803
 1594SOL     OW  861   2.482   1.786   3.301
 1594SOL    HW1  862   2.390   1.769   3.336
 1594SOL    HW2  863   2.510   1.878   3.327
 1595SOL     OW  864   2.468   0.964   1.985
 1595SOL    HW1  865   2.475   1.048   1.931
 1595SOL    HW2  866   2.514   0.977   2.073
 1597SOL     OW  867   1.984   0.643   2.425
 1597SOL    HW1  868   1.939   0.555   2.442
 1597SOL    HW2  869   1.983   0.697   2.509
 1598SOL     OW  870   3.704   1.767   2.221
 1598SOL    HW1  871   3.758   1.738   2.301
 1598SOL    HW2  872   3.734   1.857   2.192
 1599SOL     OW  873   1.889   1.596   1.979
 1599SOL    HW1  874   1.870   1.500   2.000
 1599SOL    HW2  875   1.856   1.654   2.054
 1601SOL     OW  876   3.503   1.108   2.294
 1601SOL    HW1  877   3.589   1.110   2.242
 1601SOL    HW2  878   3.517   1.155   2.382
 1603SOL     OW  879   2.475   1.365   2.588
 1603SOL    HW1  880   2.426   1.278   2.597
 1603SOL    HW2  881   2.452   1.408   2.501
 1604SOL     OW  882   3.155   1.228   3.285
 1604SOL    HW1  883   3.192   1.155   3.227
 1604SOL    HW2  884   3.207   1.233   3.370
 1606SOL     OW  885   2.059   0.976   3.126
 1606SOL    HW1  886   2.148   0.931   3.112
 1606SOL    HW2  887   1.986   0.911   3.107
 1607SOL     OW  888   3.387   0.999   2.052
 1607SOL    HW1  889   3.324   0.923   2.065
 1607SOL    HW2  890   3.435   1.017   2.138
 1608SOL     OW  891   3.049   1.792   3.478
 1608SOL    HW1  892   3.073   1.852   3.402
 1608SOL    HW2  893   3.056   1.697   3.448
 1610SOL     OW  894   3.328   1.417   2.815
 1610SOL    HW1  895   3.269   1.423   2.895
 1610SOL    HW2  896   3.313   1.329   2.769
 1611SOL     OW  897   3.529   1.714   2.434
 1611SOL    HW1  898   3.488   1.691   2.346
 1611SOL    HW2  899   3.511   1.640   2.499
 1612SOL     OW  900   2.460   0.729   2.132
 1612SOL    HW1  901   2.484   0.798   2.064
 1612SOL    HW2  902   2.382   0.762   2.186
 1614SOL     OW  903   3.438   1.662   2.169
 1614SOL    HW1  904   3.527   1.708   2.172
 1614SOL    HW2  905   3.417   1.638   2.074
 1619SOL     OW  906   2.903   0.701   2.291
 1619SOL    HW1  907   2.929   0.697   2.387
 1619SOL    HW2  908   2.818   0.650   2.277
 1620SOL     OW  909   1.938   0.811   2.651
 1620SOL    HW1  910   2.037   0.799   2.660
 1620SOL    HW2  911   1.914   0.906   2.672
 1621SOL     OW  912   1.992   1.821   3.433
 1621SOL    HW1  913   1.982   1.806   3.532
 1621SOL    HW2  914   1.906   1.857   3.397
 1624SOL     OW  915   3.224   1.144   2.407
 1624SOL    HW1  916   3.307   1.115   2.359
 1624SOL    HW2  917   3.175   1.211   2.351
 1626SOL     OW  918   2.870   1.456   2.339
 1626SOL    HW1  919   2.824   1.528   2.287
 1626SOL    HW2  920   2.866   1.476   2.437
 1627SOL     OW  921   2.213   1.801   2.715
 1627SOL    HW1  922   2.263   1.715   2.721
 1627SOL    HW2  923   2.278   1.878   2.712
 1629SOL     OW  924   3.089   1.550   3.368
 1629SOL    HW1  925   3.095   1.473   3.432
 1629SOL    HW2  926   3.037   1.524   3.288
 1630SOL     OW  927   2.183   0.943   2.104
 1630SOL    HW1  928   2.265   0.982   2.062
 1630SOL    HW2  929   2.156   0.861   2.055
 1632SOL     OW  930   2.323   1.266   3.589
 1632SOL    HW1  931   2.273   1.267   3.503
 1632SOL    HW2  932   2.260   1.248   3.665
 1633SOL     OW  933   2.973   1.776   2.099
 1633SOL    HW1  934   2.913   1.714   2.149
 1633SOL    HW2  935   3.004   1.732   2.014
 1635SOL     OW  936   3.494   1.377   1.943
 1635SOL    HW1  937   3.462   1.471   1.933
 1635SOL    HW2  938   3.418   1.314   1.931
 1636SOL     OW  939   2.326   1.743   2.185
 1636SOL    HW1  940   2.359   1.782   2.271
 1636SOL    HW2  941   2.402   1.736   2.120
 1638SOL     OW  942   2.111   1.785   3.103
 1638SOL    HW1  943   2.168   1.720   3.153
 1638SOL    HW2  944   2.095   1.752   3.010
 1639SOL     OW  945   2.802   1.698   2.766
 1639SOL    HW1  946   2.882   1.641   2.787
 1639SOL    HW2  947   2.753   1.658   2.689
 1640SOL     OW  948   2.244   0.700   2.342
 1640SOL    HW1  949   2.289   0.610   2.339
 1640SOL    HW2  950   2.150   0.689   2.375
 1644SOL     OW  951   2.750   1.514   3.057
 1644SOL    HW1  952   2.727   1.489   2.963
 1644SOL    HW2  953   2.811   1.445   3.096
 1646SOL     OW  954   2.665   1.402   2.786
 1646SOL    HW1  955   2.755   1.416   2.744
 1646SOL    HW2  956   2.594   1.404   2.715
 1649SOL     OW  957   3.296   1.188   1.903
 1649SOL    HW1  958   3.328   1.112   1.960
 1649SOL    HW2  959   3.204   1.215   1.933
 1653SOL     OW  960   3.089   1.570   2.655
 1653SOL    HW1  961   3.110   1.644   2.590
 1653SOL    HW2  962   3.157   1.570   2.728
 1654SOL     OW  963   2.321   1.152   2.603
 1654SOL    HW1  964   2.250   1.125   2.668
 1654SOL    HW2  965   2.295   1.124   2.510
 1655SOL     OW  966   3.133   1.797   2.453
 1655SOL    HW1  967   3.177   1.861   2.389
 1655SOL    HW2  968   3.083   1.849   2.523
 1661SOL     OW  969   3.291   1.173   2.729
 1661SOL    HW1  970   3.236   1.089   2.722
 1661SOL    HW2  971   3.317   1.202   2.637
 1664SOL     OW  972   2.350   1.385   2.036
 1664SOL    HW1  973   2.263   1.370   2.083
 1664SOL    HW2  974   2.333   1.411   1.941
 1665SOL     OW  975   3.526   1.280   2.519
 1665SOL    HW1  976   3.625   1.288   2.533
 1665SOL    HW2  977   3.481   1.364   2.550
 1669SOL     OW  978   2.926   1.347   3.202
 1669SOL    HW1  979   2.846   1.324   3.257
 1669SOL    HW2  980   3.009   1.321   3.251
 1670SOL     OW  981   3.454   1.629   3.487
 1670SOL    HW1  982   3.481   1.663   3.397
 1670SOL    HW2  983   3.533   1.591   3.533
 1671SOL     OW  984   2.973   1.195   2.962
 1671SOL    HW1  985   2.933   1.239   3.043
 1671SOL    HW2  986   2.932   1.232   2.879
 1672SOL     OW  987   3.500   1.099   2.941
 1672SOL    HW1  988   3.505   1.180   3.000
 1672SOL    HW2  989   3.414   1.101   2.890
 1675SOL     OW  990   2.567   1.050   2.230
 1675SOL    HW1  991   2.553   1.057   2.329
 1675SOL    HW2  992   2.651   0.999   2.212
 1676SOL     OW  993   2.272   0.813   3.113
 1676SOL    HW1  994   2.358   0.825   3.163
 1676SOL    HW2  995   2.230   0.726   3.140
 1678SOL     OW  996   1.926   1.564   3.193
 1678SOL    HW1  997   1.880   1.646   3.159
 1678SOL    HW2  998   2.024   1.583   3.202
 1679SOL     OW  999   2.229   1.100   2.363
 1679SOL    HW1 1000   2.222   1.183   2.307
 1679SOL    HW2 1001   2.233   1.020   2.303
 1681SOL     OW 1002   3.114   1.348   2.250
 1681SOL    HW1 1003   3.164   1.425   2.290
 1681SOL    HW2 1004   3.019   1.350   2.282
 1682SOL     OW 1005   3.134   1.445   3.004
 1682SOL    HW1 1006   3.181   1.458   3.091
 1682SOL    HW2 1007   3.068   1.371   3.013
 1684SOL     OW 1008   2.216   1.510   3.191
 1684SOL    HW1 1009   2.195   1.466   3.104
 1684SOL    HW2 1010   2.313   1.536   3.194
 1689SOL     OW 1011   2.435   0.870   2.891
 1689SOL    HW1 1012   2.479   0.959   2.882
 1689SOL    HW2 1013   2.372   0.870   2.968
 1693SOL     OW 1014   1.899   1.310   3.144
 1693SOL    HW1 1015   1.952   1.261   3.212
 1693SOL    HW2 1016   1.921   1.408   3.149
 1698SOL     OW 1017   2.885   0.766   2.828
 1698SOL    HW1 1018   2.900   0.787   2.924
 1698SOL    HW2 1019   2.855   0.671   2.819
 1699SOL     OW 1020   2.842   1.573   3.562
 1699SOL    HW1 1021   2.822   1.617   3.474
 1699SOL    HW2 1022   2.881   1.482   3.546
 1703SOL     OW 1023   3.165   0.838   1.904
 1703SOL    HW1 1024   3.199   0.745   1.919
 1703SOL    HW2 1025   3.183   0.865   1.809
 1704SOL     OW 1026   2.930   1.333   2.711
 1704SOL    HW1 1027   2.937   1.249   2.656
 1704SOL    HW2 1028   2.992   1.402   2.675
 1705SOL     OW 1029   2.181   0.810   2.811
 1705SOL    HW1 1030   2.274   0.846   2.816
 1705SOL    HW2 1031   2.175   0.725   2.863
 1709SOL     OW 1032   1.870   1.326   2.062
 1709SOL    HW1 1033   1.777   1.347   2.031
 1709SOL    HW2 1034   1.880   1.227   2.075
 1710SOL     OW 1035   1.950   1.801   2.789
 1710SOL    HW1 1036   1.908   1.715   2.762
 1710SOL    HW2 1037   2.044   1.804   2.755
 1711SOL     OW 1038   2.366   1.568   2.772
 1711SOL    HW1 1039   2.432   1.642   2.781
 1711SOL    HW2 1040   2.410   1.489   2.730
 1718SOL     OW 1041   2.114   1.564   3.606
 1718SOL    HW1 1042   2.084   1.621   3.682
 1718SOL    HW2 1043   2.107   1.467   3.632
 1720SOL     OW 1044   2.792   1.678   3.327
 1720SOL    HW1 1045   2.768   1.660   3.232
 1720SOL    HW2 1046   2.822   1.772   3.337
 1722SOL     OW 1047   2.021   1.137   3.328
 1722SOL    HW1 1048   2.043   1.076   3.404
 1722SOL    HW2 1049   2.031   1.088   3.242
 1723SOL     OW 1050   3.209   1.059   3.096
 1723SOL    HW1 1051   3.233   0.996   3.022
 1723SOL    HW2 1052   3.119   1.099   3.078
 1724SOL     OW 1053   3.164   0.855   2.171
 1724SOL    HW1 1054   3.078   0.824   2.213
 1724SOL    HW2 1055   3.160   0.841   2.072
 1725SOL     OW 1056   3.621   1.747   3.016
 1725SOL    HW1 1057   3.682   1.777   2.943
 1725SOL    HW2 1058   3.583   1.658   2.994
 1726SOL     OW 1059   3.114   1.731   2.990
 1726SOL    HW1 1060   3.198   1.736   2.936
 1726SOL    HW2 1061   3.091   1.635   3.008
 1727SOL     OW 1062   1.945   1.258   2.884
 1727SOL    HW1 1063   1.940   1.257   2.984
 1727SOL    HW2 1064   1.862   1.217   2.846
 1728SOL     OW 1065   2.550   1.662   3.578
 1728SOL    HW1 1066   2.494   1.743   3.587
 1728SOL    HW2 1067   2.602   1.666   3.492
 1730SOL     OW 1068   3.250   1.573   2.339
 1730SOL    HW1 1069   3.317   1.585   2.265
 1730SOL    HW2 1070   3.210   1.662   2.362
 1731SOL     OW 1071   1.992   1.794   3.713
 1731SOL    HW1 1072   1.951   1.720   3.766
 1731SOL    HW2 1073   2.056   1.845   3.771
 1732SOL     OW 1074   3.142   0.927   2.534
 1732SOL    HW1 1075   3.202   0.846   2.536
 1732SOL    HW2 1076   3.182   0.996   2.474
 1733SOL     OW 1077   2.692   1.273   3.284
 1733SOL    HW1 1078   2.687   1.306   3.379
 1733SOL    HW2 1079   2.606   1.292   3.238
 1734SOL     OW 1080   2.534   1.616   2.016
 1734SOL    HW1 1081   2.543   1.626   1.917
 1734SOL    HW2 1082   2.494   1.527   2.037
 1735SOL     OW 1083   3.512   1.720   3.256
 1735SOL    HW1 1084   3.565   1.730   3.172
 1735SOL    HW2 1085   3.485   1.810   3.290
 1738SOL     OW 1086   3.056   1.612   1.893
 1738SOL    HW1 1087   3.062   1.519   1.930
 1738SOL    HW2 1088   2.997   1.612   1.813
 1739SOL     OW 1089   2.684   1.002   3.234
 1739SOL    HW1 1090   2.724   1.001   3.142
 1739SOL    HW2 1091   2.694   1.094   3.274
 1740SOL     OW 1092   2.778   0.910   2.153
 1740SOL    HW1 1093   2.841   0.948   2.085
 1740SOL    HW2 1094   2.818   0.827   2.192
 1741SOL     OW 1095   3.366   1.607   1.906
 1741SOL    HW1 1096   3.274   1.644   1.913
 1741SOL    HW2 1097   3.404   1.627   1.816
 1742SOL     OW 1098   2.234   1.288   3.352
 1742SOL    HW1 1099   2.221   1.381   3.318
 1742SOL    HW2 1100   2.150   1.236   3.339
 1743SOL     OW 1101   3.476   1.292   3.151
 1743SOL    HW1 1102   3.536   1.295   3.231
 1743SOL    HW2 1103   3.401   1.356   3.164
 1744SOL     OW 1104   2.901   1.098   2.558
 1744SOL    HW1 1105   2.831   1.051   2.612
 1744SOL    HW2 1106   2.960   1.030   2.515
 1746SOL     OW 1107   2.452   1.487   2.353
 1746SOL    HW1 1108   2.494   1.429   2.283
 1746SOL    HW2 1109   2.408   1.566   2.309
 1748SOL     OW 1110   2.117   1.348   2.152
 1748SOL    HW1 1111   2.021   1.349   2.125
 1748SOL    HW2 1112   2.129   1.401   2.236
 1754SOL     OW 1113   3.045   1.335   1.981
 1754SOL    HW1 1114   2.946   1.324   1.983
 1754SOL    HW2 1115   3.079   1.350   2.074
 1755SOL     OW 1116   2.475   0.842   3.293
 1755SOL    HW1 1117   2.531   0.923   3.276
 1755SOL    HW2 1118   2.534   0.762   3.296
 1756SOL     OW 1119   3.355   1.767   2.821
 1756SOL    HW1 1120   3.388   1.831   2.752
 1756SOL    HW2 1121   3.421   1.761   2.896
 1759SOL     OW 1122   2.252   1.741   3.422
 1759SOL    HW1 1123   2.161   1.782   3.420
 1759SOL    HW2 1124   2.245   1.647   3.454
 1762SOL     OW 1125   2.456   0.745   2.514
 1762SOL    HW1 1126   2.506   0.830   2.495
 1762SOL    HW2 1127   2.368   0.747   2.466
 1765SOL     OW 1128   2.721   1.374   1.878
 1765SOL    HW1 1129   2.675   1.389   1.966
 1765SOL    HW2 1130   2.765   1.459   1.848
 1766SOL     OW 1131   2.523   1.790   2.815
 1766SOL    HW1 1132   2.477   1.878   2.802
 1766SOL    HW2 1133   2.622   1.802   2.808
 1767SOL     OW 1134   2.721   0.956   2.723
 1767SOL    HW1 1135   2.775   0.887   2.771
 1767SOL    HW2 1136   2.689   1.025   2.789
 1768SOL     OW 1137   2.945   0.984   1.949
 1768SOL    HW1 1138   2.922   1.037   1.867
 1768SOL    HW2 1139   3.026   0.928   1.930
 1769SOL     OW 1140   3.723   1.569   2.713
 1769SOL    HW1 1141   3.652   1.557   2.643
 1769SOL    HW2 1142   3.724   1.490   2.773
 1770SOL     OW 1143   2.083   1.314   3.706
 1770SOL    HW1 1144   2.018   1.241   3.685
 1770SOL    HW2 1145   2.087   1.328   3.804
 1771SOL     OW 1146   1.941   1.240   2.515
 1771SOL    HW1 1147   1.940   1.193   2.603
 1771SOL    HW2 1148   2.023   1.212   2.464
 1772SOL     OW 1149   2.534   1.391   3.486
 1772SOL    HW1 1150   2.456   1.341   3.524
 1772SOL    HW2 1151   2.531   1.486   3.517
 1775SOL     OW 1152   3.567   1.487   2.966
 1775SOL    HW1 1153   3.474   1.462   2.939
 1775SOL    HW2 1154   3.593   1.437   3.048
 1777SOL     OW 1155   2.674   1.586   2.549
 1777SOL    HW1 1156   2.706   1.596   2.455
 1777SOL    HW2 1157   2.595   1.524   2.551
 1780SOL     OW 1158   2.632   1.330   2.163
 1780SOL    HW1 1159   2.586   1.243   2.180
 1780SOL    HW2 1160   2.723   1.327   2.204
 1781SOL     OW 1161   2.480   1.567   3.146
 1781SOL    HW1 1162   2.475   1.649   3.203
 1781SOL    HW2 1163   2.569   1.564   3.101
 1785SOL     OW 1164   1.901   1.077   2.162
 1785SOL    HW1 1165   2.000   1.066   2.153
 1785SOL    HW2 1166   1.861   0.991   2.194
 1786SOL     OW 1167   2.737   1.646   2.199
 1786SOL    HW1 1168   2.660   1.611   2.145
 1786SOL    HW2 1169   2.705   1.717   2.261
 1801SOL     OW 1170   1.889   1.596   3.841
 1801SOL    HW1 1171   1.870   1.500   3.862
 1801SOL    HW2 1172   1.856   1.654   3.916
 1821SOL     OW 1173   2.973   1.776   3.961
 1821SOL    HW1 1174   2.913   1.714   4.011
 1821SOL    HW2 1175   3.004   1.732   3.876
 1823SOL     OW 1176   2.326   1.743   4.047
 1823SOL    HW1 1177   2.359   1.782   4.133
 1823SOL    HW2 1178   2.402   1.736   3.982
 1868SOL     OW 1179   2.534   1.616   3.878
 1868SOL    HW1 1180   2.543   1.626   3.779
 1868SOL    HW2 1181   2.494   1.527   3.899
 1871SOL     OW 1182   3.056   1.612   3.755
 1871SOL    HW1 1183   3.062   1.519   3.792
 1871SOL    HW2 1184   2.997   1.612   3.675
 1883SOL     OW 1185   2.721   1.374   3.740
 1883SOL    HW1 1186   2.675   1.389   3.828
 1883SOL    HW2 1187   2.765   1.459   3.710
 1899SOL     OW 1188   2.087   2.137   0.996
 1899SOL    HW1 1189   2.122   2.120   1.088
 1899SOL    HW2 1190   1.999   2.092   0.984
 1901SOL     OW 1191   2.431   3.137   1.165
 1901SOL    HW1 1192   2.338   3.130   1.128
 1901SOL    HW2 1193   2.442   3.226   1.209
 1903SOL     OW 1194   2.997   2.565   0.717
 1903SOL    HW1 1195   3.054   2.643   0.692
 1903SOL    HW2 1196   2.937   2.591   0.793
 1905SOL     OW 1197   2.630   3.006   1.023
 1905SOL    HW1 1198   2.552   3.023   1.083
 1905SOL    HW2 1199   2.664   3.093   0.987
 1906SOL     OW 1200   2.712   2.660   1.823
 1906SOL    HW1 1201   2.708   2.736   1.888
 1906SOL    HW2 1202   2.734   2.696   1.732
 1907SOL     OW 1203   2.547   2.874   0.665
 1907SOL    HW1 1204   2.616   2.858   0.735
 1907SOL    HW2 1205   2.474   2.931   0.703
 1908SOL     OW 1206   2.548   3.023   1.803
 1908SOL    HW1 1207   2.608   3.102   1.817
 1908SOL    HW2 1208   2.462   3.054   1.762
 1909SOL     OW 1209   2.197   3.297   1.061
 1909SOL    HW1 1210   2.119   3.266   1.008
 1909SOL    HW2 1211   2.255   3.355   1.004
 1910SOL     OW 1212   3.322   3.367   1.339
 1910SOL    HW1 1213   3.346   3.461   1.365
 1910SOL    HW2 1214   3.306   3.313   1.421
 1911SOL     OW 1215   2.300   2.254   1.499
 1911SOL    HW1 1216   2.382   2.198   1.508
 1911SOL    HW2 1217   2.219   2.196   1.503
 1914SOL     OW 1218   2.989   3.203   1.690
 1914SOL    HW1 1219   3.036   3.203   1.778
 1914SOL    HW2 1220   2.941   3.116   1.679
 1916SOL     OW 1221   2.102   2.953   0.886
 1916SOL    HW1 1222   2.116   2.869   0.938
 1916SOL    HW2 1223   2.047   3.017   0.941
 1917SOL     OW 1224   2.482   3.648   1.439
 1917SOL    HW1 1225   2.390   3.631   1.474
 1917SOL    HW2 1226   2.510   3.740   1.465
 1919SOL     OW 1227   3.456   1.976   1.480
 1919SOL    HW1 1228   3.438   2.043   1.408
 1919SOL    HW2 1229   3.453   2.022   1.569
 1924SOL     OW 1230   1.975   2.599   1.597
 1924SOL    HW1 1231   2.063   2.586   1.642
 1924SOL    HW2 1232   1.962   2.696   1.575
 1926SOL     OW 1233   3.155   3.090   1.423
 1926SOL    HW1 1234   3.192   3.017   1.365
 1926SOL    HW2 1235   3.207   3.095   1.508
 1928SOL     OW 1236   2.059   2.838   1.264
 1928SOL    HW1 1237   2.148   2.793   1.250
 1928SOL    HW2 1238   1.986   2.773   1.245
 1930SOL     OW 1239   3.049   3.654   1.616
 1930SOL    HW1 1240   3.073   3.714   1.540
 1930SOL    HW2 1241   3.056   3.559   1.586
 1931SOL     OW 1242   2.179   2.113   1.801
 1931SOL    HW1 1243   2.250   2.184   1.807
 1931SOL    HW2 1244   2.091   2.152   1.829
 1935SOL     OW 1245   3.143   2.207   0.944
 1935SOL    HW1 1246   3.057   2.157   0.931
 1935SOL    HW2 1247   3.205   2.153   1.000
 1937SOL     OW 1248   2.669   2.467   1.465
 1937SOL    HW1 1249   2.622   2.464   1.554
 1937SOL    HW2 1250   2.618   2.412   1.399
 1938SOL     OW 1251   3.256   2.331   1.674
 1938SOL    HW1 1252   3.236   2.374   1.762
 1938SOL    HW2 1253   3.334   2.269   1.683
 1939SOL     OW 1254   2.835   2.752   1.572
 1939SOL    HW1 1255   2.881   2.668   1.543
 1939SOL    HW2 1256   2.779   2.786   1.497
 1940SOL     OW 1257   2.853   2.272   1.242
 1940SOL    HW1 1258   2.776   2.306   1.296
 1940SOL    HW2 1259   2.819   2.221   1.163
 1942SOL     OW 1260   1.938   2.673   0.789
 1942SOL    HW1 1261   2.037   2.661   0.798
 1942SOL    HW2 1262   1.914   2.768   0.810
 1943SOL     OW 1263   1.992   3.683   1.571
 1943SOL    HW1 1264   1.982   3.668   1.670
 1943SOL    HW2 1265   1.906   3.719   1.535
 1945SOL     OW 1266   3.581   2.447   1.831
 1945SOL    HW1 1267   3.555   2.536   1.795
 1945SOL    HW2 1268   3.579   2.379   1.758
 1947SOL     OW 1269   2.412   2.058   0.885
 1947SOL    HW1 1270   2.407   2.053   0.985
 1947SOL    HW2 1271   2.414   2.154   0.856
 1951SOL     OW 1272   3.089   3.412   1.506
 1951SOL    HW1 1273   3.095   3.335   1.570
 1951SOL    HW2 1274   3.037   3.386   1.426
 1954SOL     OW 1275   2.323   3.128   1.727
 1954SOL    HW1 1276   2.273   3.129   1.641
 1954SOL    HW2 1277   2.260   3.110   1.803
 1956SOL     OW 1278   2.064   2.147   1.498
 1956SOL    HW1 1279   1.984   2.207   1.485
 1956SOL    HW2 1280   2.054   2.098   1.584
 1960SOL     OW 1281   2.111   3.647   1.241
 1960SOL    HW1 1282   2.168   3.582   1.291
 1960SOL    HW2 1283   2.095   3.614   1.148
 1963SOL     OW 1284   3.409   2.084   1.729
 1963SOL    HW1 1285   3.404   2.121   1.821
 1963SOL    HW2 1286   3.337   2.015   1.717
 1965SOL     OW 1287   2.643   2.126   1.749
 1965SOL    HW1 1288   2.710   2.065   1.792
 1965SOL    HW2 1289   2.570   2.145   1.814
 1966SOL     OW 1290   2.750   3.376   1.195
 1966SOL    HW1 1291   2.727   3.351   1.101
 1966SOL    HW2 1292   2.811   3.307   1.234
 1967SOL     OW 1293   3.213   2.452   1.433
 1967SOL    HW1 1294   3.241   2.409   1.518
 1967SOL    HW2 1295   3.238   2.548   1.434
 1968SOL     OW 1296   2.665   3.264   0.924
 1968SOL    HW1 1297   2.755   3.278   0.882
 1968SOL    HW2 1298   2.594   3.266   0.853
 1969SOL     OW 1299   2.784   2.365   0.899
 1969SOL    HW1 1300   2.759   2.356   0.803
 1969SOL    HW2 1301   2.832   2.283   0.930
 1974SOL     OW 1302   2.938   2.545   1.464
 1974SOL    HW1 1303   2.858   2.484   1.467
 1974SOL    HW2 1304   3.019   2.492   1.440
 1976SOL     OW 1305   2.321   3.014   0.741
 1976SOL    HW1 1306   2.250   2.987   0.806
 1976SOL    HW2 1307   2.295   2.986   0.648
 1979SOL     OW 1308   1.940   2.418   1.386
 1979SOL    HW1 1309   2.032   2.417   1.345
 1979SOL    HW2 1310   1.934   2.492   1.453
 1980SOL     OW 1311   2.423   2.084   1.147
 1980SOL    HW1 1312   2.461   2.000   1.184
 1980SOL    HW2 1313   2.335   2.103   1.191
 1981SOL     OW 1314   2.728   2.316   0.642
 1981SOL    HW1 1315   2.696   2.388   0.580
 1981SOL    HW2 1316   2.752   2.235   0.589
 1982SOL     OW 1317   2.879   1.901   0.753
 1982SOL    HW1 1318   2.807   1.906   0.684
 1982SOL    HW2 1319   2.855   1.832   0.822
 1984SOL     OW 1320   3.328   2.452   0.992
 1984SOL    HW1 1321   3.298   2.357   0.999
 1984SOL    HW2 1322   3.401   2.468   1.058
 1990SOL     OW 1323   3.616   3.085   1.588
 1990SOL    HW1 1324   3.707   3.046   1.575
 1990SOL    HW2 1325   3.624   3.181   1.612
 1991SOL     OW 1326   2.926   3.209   1.340
 1991SOL    HW1 1327   2.846   3.186   1.395
 1991SOL    HW2 1328   3.009   3.183   1.389
 1992SOL     OW 1329   3.454   3.491   1.625
 1992SOL    HW1 1330   3.481   3.525   1.535
 1992SOL    HW2 1331   3.533   3.453   1.671
 1993SOL     OW 1332   2.973   3.057   1.100
 1993SOL    HW1 1333   2.933   3.101   1.181
 1993SOL    HW2 1334   2.932   3.094   1.017
 1995SOL     OW 1335   2.777   1.951   1.402
 1995SOL    HW1 1336   2.802   1.931   1.307
 1995SOL    HW2 1337   2.849   2.007   1.444
 1996SOL     OW 1338   2.842   2.978   1.719
 1996SOL    HW1 1339   2.743   2.984   1.729
 1996SOL    HW2 1340   2.865   2.898   1.663
 1998SOL     OW 1341   2.272   2.675   1.251
 1998SOL    HW1 1342   2.358   2.687   1.301
 1998SOL    HW2 1343   2.230   2.588   1.278
 1999SOL     OW 1344   3.136   2.248   1.262
 1999SOL    HW1 1345   3.157   2.322   1.326
 1999SOL    HW2 1346   3.047   2.265   1.219
 2000SOL     OW 1347   1.926   3.426   1.331
 2000SOL    HW1 1348   1.880   3.508   1.297
 2000SOL    HW2 1349   2.024   3.445   1.340
 2002SOL     OW 1350   2.428   2.399   0.865
 2002SOL    HW1 1351   2.440   2.465   0.791
 2002SOL    HW2 1352   2.474   2.433   0.948
 2004SOL     OW 1353   3.134   3.307   1.142
 2004SOL    HW1 1354   3.181   3.320   1.229
 2004SOL    HW2 1355   3.068   3.233   1.151
 2006SOL     OW 1356   2.216   3.372   1.329
 2006SOL    HW1 1357   2.195   3.328   1.242
 2006SOL    HW2 1358   2.313   3.398   1.332
 2007SOL     OW 1359   2.264   2.613   1.598
 2007SOL    HW1 1360   2.332   2.668   1.551
 2007SOL    HW2 1361   2.304   2.525   1.625
 2008SOL     OW 1362   3.449   2.641   1.670
 2008SOL    HW1 1363   3.357   2.679   1.665
 2008SOL    HW2 1364   3.509   2.688   1.605
 2009SOL     OW 1365   2.875   1.967   1.770
 2009SOL    HW1 1366   2.881   2.052   1.718
 2009SOL    HW2 1367   2.907   1.891   1.713
 2010SOL     OW 1368   2.366   1.912   1.740
 2010SOL    HW1 1369   2.324   1.855   1.670
 2010SOL    HW2 1370   2.300   1.981   1.772
 2011SOL     OW 1371   2.435   2.732   1.029
 2011SOL    HW1 1372   2.479   2.821   1.020
 2011SOL    HW2 1373   2.372   2.732   1.106
 2012SOL     OW 1374   3.222   2.724   1.045
 2012SOL    HW1 1375   3.147   2.724   0.979
 2012SOL    HW2 1376   3.259   2.632   1.054
 2014SOL     OW 1377   2.169   2.075   1.231
 2014SOL    HW1 1378   2.146   2.112   1.321
 2014SOL    HW2 1379   2.139   1.980   1.225
 2015SOL     OW 1380   1.899   3.172   1.282
 2015SOL    HW1 1381   1.952   3.123   1.350
 2015SOL    HW2 1382   1.921   3.270   1.287
 2016SOL     OW 1383   2.594   2.496   1.064
 2016SOL    HW1 1384   2.653   2.470   0.988
 2016SOL    HW2 1385   2.566   2.592   1.053
 2017SOL     OW 1386   3.590   2.797   1.854
 2017SOL    HW1 1387   3.544   2.790   1.765
 2017SOL    HW2 1388   3.528   2.841   1.920
 2020SOL     OW 1389   2.885   2.628   0.966
 2020SOL    HW1 1390   2.900   2.649   1.062
 2020SOL    HW2 1391   2.855   2.533   0.957
 2021SOL     OW 1392   2.842   3.435   1.700
 2021SOL    HW1 1393   2.822   3.479   1.612
 2021SOL    HW2 1394   2.881   3.344   1.684
 2023SOL     OW 1395   2.212   2.760   1.804
 2023SOL    HW1 1396   2.288   2.804   1.852
 2023SOL    HW2 1397   2.247   2.713   1.722
 2027SOL     OW 1398   2.181   2.672   0.949
 2027SOL    HW1 1399   2.274   2.708   0.954
 2027SOL    HW2 1400   2.175   2.587   1.001
 2028SOL     OW 1401   2.201   2.371   1.006
 2028SOL    HW1 1402   2.149   2.288   0.989
 2028SOL    HW2 1403   2.278   2.376   0.942
 2029SOL     OW 1404   3.000   2.242   1.678
 2029SOL    HW1 1405   2.955   2.305   1.742
 2029SOL    HW2 1406   3.093   2.273   1.661
 2030SOL     OW 1407   3.022   2.069   1.477
 2030SOL    HW1 1408   3.022   2.133   1.554
 2030SOL    HW2 1409   3.050   2.117   1.394
 2034SOL     OW 1410   2.864   2.658   1.238
 2034SOL    HW1 1411   2.905   2.626   1.324
 2034SOL    HW2 1412   2.768   2.631   1.235
 2035SOL     OW 1413   1.902   2.406   1.114
 2035SOL    HW1 1414   1.987   2.373   1.073
 2035SOL    HW2 1415   1.915   2.421   1.212
 2036SOL     OW 1416   2.051   2.382   1.722
 2036SOL    HW1 1417   2.110   2.342   1.652
 2036SOL    HW2 1418   1.993   2.453   1.681
 2037SOL     OW 1419   3.231   2.812   1.660
 2037SOL    HW1 1420   3.270   2.901   1.680
 2037SOL    HW2 1421   3.241   2.792   1.563
 2039SOL     OW 1422   3.519   2.466   1.206
 2039SOL    HW1 1423   3.481   2.397   1.268
 2039SOL    HW2 1424   3.601   2.430   1.162
 2040SOL     OW 1425   2.114   3.426   1.744
 2040SOL    HW1 1426   2.084   3.483   1.820
 2040SOL    HW2 1427   2.107   3.329   1.770
 2041SOL     OW 1428   2.533   2.326   1.269
 2041SOL    HW1 1429   2.499   2.237   1.239
 2041SOL    HW2 1430   2.559   2.380   1.189
 2042SOL     OW 1431   2.792   3.540   1.465
 2042SOL    HW1 1432   2.768   3.522   1.370
 2042SOL    HW2 1433   2.822   3.634   1.475
 2044SOL     OW 1434   2.021   2.999   1.466
 2044SOL    HW1 1435   2.043   2.938   1.542
 2044SOL    HW2 1436   2.031   2.950   1.380
 2045SOL     OW 1437   3.209   2.921   1.234
 2045SOL    HW1 1438   3.233   2.858   1.160
 2045SOL    HW2 1439   3.119   2.961   1.216
 2049SOL     OW 1440   1.945   3.120   1.022
 2049SOL    HW1 1441   1.940   3.119   1.122
 2049SOL    HW2 1442   1.862   3.079   0.984
 2050SOL     OW 1443   2.550   3.524   1.716
 2050SOL    HW1 1444   2.494   3.605   1.725
 2050SOL    HW2 1445   2.602   3.528   1.630
 2054SOL     OW 1446   1.992   3.656   1.851
 2054SOL    HW1 1447   1.951   3.582   1.904
 2054SOL    HW2 1448   2.056   3.707   1.909
 2056SOL     OW 1449   2.692   3.135   1.422
 2056SOL    HW1 1450   2.687   3.168   1.517
 2056SOL    HW2 1451   2.606   3.154   1.376
 2060SOL     OW 1452   2.125   2.188   0.720
 2060SOL    HW1 1453   2.046   2.239   0.686
 2060SOL    HW2 1454   2.116   2.173   0.818
 2062SOL     OW 1455   2.684   2.864   1.372
 2062SOL    HW1 1456   2.724   2.863   1.280
 2062SOL    HW2 1457   2.694   2.956   1.412
 2065SOL     OW 1458   2.234   3.150   1.490
 2065SOL    HW1 1459   2.221   3.243   1.456
 2065SOL    HW2 1460   2.150   3.098   1.477
 2066SOL     OW 1461   3.476   3.154   1.289
 2066SOL    HW1 1462   3.536   3.157   1.369
 2066SOL    HW2 1463   3.401   3.218   1.302
 2068SOL     OW 1464   2.876   2.098   0.971
 2068SOL    HW1 1465   2.868   2.062   0.878
 2068SOL    HW2 1466   2.874   2.022   1.036
 2070SOL     OW 1467   3.571   2.247   1.381
 2070SOL    HW1 1468   3.644   2.316   1.385
 2070SOL    HW2 1469   3.599   2.172   1.322
 2072SOL     OW 1470   1.967   2.875   1.726
 2072SOL    HW1 1471   1.890   2.842   1.780
 2072SOL    HW2 1472   2.052   2.845   1.768
 2073SOL     OW 1473   2.534   2.065   1.489
 2073SOL    HW1 1474   2.624   2.049   1.449
 2073SOL    HW2 1475   2.542   2.070   1.588
 2075SOL     OW 1476   3.302   2.718   1.398
 2075SOL    HW1 1477   3.245   2.770   1.335
 2075SOL    HW2 1478   3.398   2.730   1.374
 2077SOL     OW 1479   2.475   2.704   1.431
 2077SOL    HW1 1480   2.531   2.785   1.414
 2077SOL    HW2 1481   2.534   2.624   1.434
 2079SOL     OW 1482   2.578   2.427   1.708
 2079SOL    HW1 1483   2.597   2.492   1.782
 2079SOL    HW2 1484   2.638   2.347   1.717
 2080SOL     OW 1485   3.312   3.082   1.633
 2080SOL    HW1 1486   3.303   3.072   1.732
 2080SOL    HW2 1487   3.408   3.075   1.607
 2081SOL     OW 1488   2.252   3.603   1.560
 2081SOL    HW1 1489   2.161   3.644   1.558
 2081SOL    HW2 1490   2.245   3.509   1.592
 2082SOL     OW 1491   3.536   2.745   1.254
 2082SOL    HW1 1492   3.509   2.656   1.217
 2082SOL    HW2 1493   3.537   2.813   1.181
 2084SOL     OW 1494   2.456   2.607   0.652
 2084SOL    HW1 1495   2.506   2.692   0.633
 2084SOL    HW2 1496   2.368   2.609   0.604
 2085SOL     OW 1497   3.639   2.204   1.642
 2085SOL    HW1 1498   3.622   2.235   1.548
 2085SOL    HW2 1499   3.555   2.167   1.680
 2086SOL     OW 1500   3.592   2.796   1.517
 2086SOL    HW1 1501   3.630   2.887   1.532
 2086SOL    HW2 1502   3.584   2.779   1.418
 2089SOL     OW 1503   2.721   2.818   0.861
 2089SOL    HW1 1504   2.775   2.749   0.909
 2089SOL    HW2 1505   2.689   2.887   0.927
 2092SOL     OW 1506   2.083   3.176   1.844
 2092SOL    HW1 1507   2.018   3.103   1.823
 2092SOL    HW2 1508   2.087   3.190   1.942
 2094SOL     OW 1509   2.534   3.253   1.624
 2094SOL    HW1 1510   2.456   3.203   1.662
 2094SOL    HW2 1511   2.531   3.348   1.655
 2095SOL     OW 1512   3.686   2.054   1.227
 2095SOL    HW1 1513   3.682   1.964   1.271
 2095SOL    HW2 1514   3.689   2.043   1.128
 2098SOL     OW 1515   2.179   2.409   1.280
 2098SOL    HW1 1516   2.217   2.350   1.352
 2098SOL    HW2 1517   2.219   2.383   1.192
 2100SOL     OW 1518   3.286   2.076   1.112
 2100SOL    HW1 1519   3.338   2.011   1.167
 2100SOL    HW2 1520   3.237   2.139   1.173
 2101SOL     OW 1521   2.863   1.896   1.154
 2101SOL    HW1 1522   2.800   1.824   1.123
 2101SOL    HW2 1523   2.956   1.860   1.154
 2103SOL     OW 1524   2.480   3.429   1.284
 2103SOL    HW1 1525   2.475   3.511   1.341
 2103SOL    HW2 1526   2.569   3.426   1.239
 2109SOL     OW 1527   2.092   2.490   1.975
 2109SOL    HW1 1528   1.999   2.488   2.012
 2109SOL    HW2 1529   2.093   2.451   1.883
 2110SOL     OW 1530   2.087   2.137   2.858
 2110SOL    HW1 1531   2.122   2.120   2.950
 2110SOL    HW2 1532   1.999   2.092   2.846
 2111SOL     OW 1533   1.881   2.230   2.509
 2111SOL    HW1 1534   1.799   2.273   2.548
 2111SOL    HW2 1535   1.853   2.157   2.446
 2112SOL     OW 1536   2.431   3.137   3.027
 2112SOL    HW1 1537   2.338   3.130   2.990
 2112SOL    HW2 1538   2.442   3.226   3.071
 2113SOL     OW 1539   3.417   3.373   2.565
 2113SOL    HW1 1540   3.360   3.357   2.646
 2113SOL    HW2 1541   3.358   3.383   2.485
 2114SOL     OW 1542   2.997   2.565   2.579
 2114SOL    HW1 1543   3.054   2.643   2.554
 2114SOL    HW2 1544   2.937   2.591   2.655
 2115SOL     OW 1545   3.617   2.469   2.093
 2115SOL    HW1 1546   3.605   2.456   1.994
 2115SOL    HW2 1547   3.587   2.388   2.142
 2116SOL     OW 1548   2.630   3.006   2.885
 2116SOL    HW1 1549   2.552   3.023   2.945
 2116SOL    HW2 1550   2.664   3.093   2.849
 2117SOL     OW 1551   2.712   2.660   3.685
 2117SOL    HW1 1552   2.708   2.736   3.750
 2117SOL    HW2 1553   2.734   2.696   3.594
 2118SOL     OW 1554   2.547   2.874   2.527
 2118SOL    HW1 1555   2.616   2.858   2.597
 2118SOL    HW2 1556   2.474   2.931   2.565
 2119SOL     OW 1557   2.548   3.023   3.665
 2119SOL    HW1 1558   2.608   3.102   3.679
 2119SOL    HW2 1559   2.462   3.054   3.624
 2120SOL     OW 1560   2.197   3.297   2.923
 2120SOL    HW1 1561   2.119   3.266   2.870
 2120SOL    HW2 1562   2.255   3.355   2.866
 2121SOL     OW 1563   3.322   3.367   3.201
 2121SOL    HW1 1564   3.346   3.461   3.227
 2121SOL    HW2 1565   3.306   3.313   3.283
 2122SOL     OW 1566   2.300   2.254   3.361
 2122SOL    HW1 1567   2.382   2.198   3.370
 2122SOL    HW2 1568   2.219   2.196   3.365
 2123SOL     OW 1569   3.465   2.309   2.599
 2123SOL    HW1 1570   3.391   2.355   2.549
 2123SOL    HW2 1571   3.516   2.377   2.652
 2124SOL     OW 1572   2.093   3.575   2.345
 2124SOL    HW1 1573   2.127   3.652   2.399
 2124SOL    HW2 1574   2.137   3.575   2.255
 2125SOL     OW 1575   2.989   3.203   3.552
 2125SOL    HW1 1576   3.036   3.203   3.640
 2125SOL    HW2 1577   2.941   3.116   3.541
 2126SOL     OW 1578   2.092   3.296   2.400
 2126SOL    HW1 1579   2.066   3.392   2.400
 2126SOL    HW2 1580   2.021   3.242   2.445
 2127SOL     OW 1581   2.102   2.953   2.748
 2127SOL    HW1 1582   2.116   2.869   2.800
 2127SOL    HW2 1583   2.047   3.017   2.803
 2128SOL     OW 1584   2.482   3.648   3.301
 2128SOL    HW1 1585   2.390   3.631   3.336
 2128SOL    HW2 1586   2.510   3.740   3.327
 2129SOL     OW 1587   2.468   2.826   1.985
 2129SOL    HW1 1588   2.475   2.910   1.931
 2129SOL    HW2 1589   2.514   2.839   2.073
 2130SOL     OW 1590   3.456   1.976   3.342
 2130SOL    HW1 1591   3.438   2.043   3.270
 2130SOL    HW2 1592   3.453   2.022   3.431
 2131SOL     OW 1593   1.984   2.505   2.425
 2131SOL    HW1 1594   1.939   2.417   2.442
 2131SOL    HW2 1595   1.983   2.559   2.509
 2133SOL     OW 1596   1.889   3.458   1.979
 2133SOL    HW1 1597   1.870   3.362   2.000
 2133SOL    HW2 1598   1.856   3.516   2.054
 2134SOL     OW 1599   3.551   2.784   2.474
 2134SOL    HW1 1600   3.646   2.755   2.482
 2134SOL    HW2 1601   3.543   2.849   2.399
 2135SOL     OW 1602   3.503   2.970   2.294
 2135SOL    HW1 1603   3.589   2.972   2.242
 2135SOL    HW2 1604   3.517   3.017   2.382
 2136SOL     OW 1605   1.975   2.599   3.459
 2136SOL    HW1 1606   2.063   2.586   3.504
 2136SOL    HW2 1607   1.962   2.696   3.437
 2137SOL     OW 1608   2.475   3.227   2.588
 2137SOL    HW1 1609   2.426   3.140   2.597
 2137SOL    HW2 1610   2.452   3.270   2.501
 2138SOL     OW 1611   3.155   3.090   3.285
 2138SOL    HW1 1612   3.192   3.017   3.227
 2138SOL    HW2 1613   3.207   3.095   3.370
 2139SOL     OW 1614   2.671   1.866   2.364
 2139SOL    HW1 1615   2.711   1.957   2.355
 2139SOL    HW2 1616   2.571   1.874   2.370
 2140SOL     OW 1617   2.059   2.838   3.126
 2140SOL    HW1 1618   2.148   2.793   3.112
 2140SOL    HW2 1619   1.986   2.773   3.107
 2141SOL     OW 1620   3.387   2.861   2.052
 2141SOL    HW1 1621   3.324   2.785   2.065
 2141SOL    HW2 1622   3.435   2.879   2.138
 2143SOL     OW 1623   2.179   2.113   3.663
 2143SOL    HW1 1624   2.250   2.184   3.669
 2143SOL    HW2 1625   2.091   2.152   3.691
 2144SOL     OW 1626   3.328   3.279   2.815
 2144SOL    HW1 1627   3.269   3.285   2.895
 2144SOL    HW2 1628   3.313   3.191   2.769
 2145SOL     OW 1629   3.529   3.576   2.434
 2145SOL    HW1 1630   3.488   3.553   2.346
 2145SOL    HW2 1631   3.511   3.502   2.499
 2146SOL     OW 1632   3.143   2.207   2.806
 2146SOL    HW1 1633   3.057   2.157   2.793
 2146SOL    HW2 1634   3.205   2.153   2.862
 2147SOL     OW 1635   3.438   3.524   2.169
 2147SOL    HW1 1636   3.527   3.570   2.172
 2147SOL    HW2 1637   3.417   3.500   2.074
 2148SOL     OW 1638   2.669   2.467   3.327
 2148SOL    HW1 1639   2.622   2.464   3.416
 2148SOL    HW2 1640   2.618   2.412   3.261
 2149SOL     OW 1641   3.256   2.331   3.536
 2149SOL    HW1 1642   3.236   2.374   3.624
 2149SOL    HW2 1643   3.334   2.269   3.545
 2150SOL     OW 1644   2.835   2.752   3.434
 2150SOL    HW1 1645   2.881   2.668   3.405
 2150SOL    HW2 1646   2.779   2.786   3.359
 2151SOL     OW 1647   2.853   2.272   3.104
 2151SOL    HW1 1648   2.776   2.306   3.158
 2151SOL    HW2 1649   2.819   2.221   3.025
 2152SOL     OW 1650   2.903   2.563   2.291
 2152SOL    HW1 1651   2.929   2.559   2.387
 2152SOL    HW2 1652   2.818   2.512   2.277
 2153SOL     OW 1653   1.938   2.673   2.651
 2153SOL    HW1 1654   2.037   2.661   2.660
 2153SOL    HW2 1655   1.914   2.768   2.672
 2154SOL     OW 1656   1.992   3.683   3.433
 2154SOL    HW1 1657   1.982   3.668   3.532
 2154SOL    HW2 1658   1.906   3.719   3.397
 2155SOL     OW 1659   2.727   2.210   2.057
 2155SOL    HW1 1660   2.786   2.273   2.008
 2155SOL    HW2 1661   2.746   2.116   2.028
 2156SOL     OW 1662   3.581   2.447   3.693
 2156SOL    HW1 1663   3.555   2.536   3.657
 2156SOL    HW2 1664   3.579   2.379   3.620
 2157SOL     OW 1665   3.224   3.006   2.407
 2157SOL    HW1 1666   3.307   2.977   2.359
 2157SOL    HW2 1667   3.175   3.073   2.351
 2158SOL     OW 1668   2.412   2.058   2.747
 2158SOL    HW1 1669   2.407   2.053   2.847
 2158SOL    HW2 1670   2.414   2.154   2.718
 2159SOL     OW 1671   2.870   3.318   2.339
 2159SOL    HW1 1672   2.824   3.390   2.287
 2159SOL    HW2 1673   2.866   3.338   2.437
 2160SOL     OW 1674   2.213   3.663   2.715
 2160SOL    HW1 1675   2.263   3.577   2.721
 2160SOL    HW2 1676   2.278   3.740   2.712
 2161SOL     OW 1677   3.657   2.928   2.735
 2161SOL    HW1 1678   3.595   2.913   2.659
 2161SOL    HW2 1679   3.605   2.939   2.820
 2162SOL     OW 1680   3.089   3.412   3.368
 2162SOL    HW1 1681   3.095   3.335   3.432
 2162SOL    HW2 1682   3.037   3.386   3.288
 2163SOL     OW 1683   2.183   2.805   2.104
 2163SOL    HW1 1684   2.265   2.844   2.062
 2163SOL    HW2 1685   2.156   2.723   2.055
 2164SOL     OW 1686   3.320   2.597   2.590
 2164SOL    HW1 1687   3.315   2.532   2.665
 2164SOL    HW2 1688   3.400   2.656   2.603
 2165SOL     OW 1689   2.323   3.128   3.589
 2165SOL    HW1 1690   2.273   3.129   3.503
 2165SOL    HW2 1691   2.260   3.110   3.665
 2166SOL     OW 1692   2.973   3.638   2.099
 2166SOL    HW1 1693   2.913   3.576   2.149
 2166SOL    HW2 1694   3.004   3.594   2.014
 2167SOL     OW 1695   2.064   2.147   3.360
 2167SOL    HW1 1696   1.984   2.207   3.347
 2167SOL    HW2 1697   2.054   2.098   3.446
 2168SOL     OW 1698   3.494   3.239   1.943
 2168SOL    HW1 1699   3.462   3.333   1.933
 2168SOL    HW2 1700   3.418   3.176   1.931
 2169SOL     OW 1701   2.326   3.605   2.185
 2169SOL    HW1 1702   2.359   3.644   2.271
 2169SOL    HW2 1703   2.402   3.598   2.120
 2170SOL     OW 1704   3.262   1.969   2.288
 2170SOL    HW1 1705   3.238   1.932   2.198
 2170SOL    HW2 1706   3.361   1.985   2.292
 2171SOL     OW 1707   2.111   3.647   3.103
 2171SOL    HW1 1708   2.168   3.582   3.153
 2171SOL    HW2 1709   2.095   3.614   3.010
 2172SOL     OW 1710   2.802   3.560   2.766
 2172SOL    HW1 1711   2.882   3.503   2.787
 2172SOL    HW2 1712   2.753   3.520   2.689
 2173SOL     OW 1713   3.409   2.084   3.591
 2173SOL    HW1 1714   3.404   2.121   3.683
 2173SOL    HW2 1715   3.337   2.015   3.579
 2174SOL     OW 1716   2.476   1.984   1.979
 2174SOL    HW1 1717   2.574   1.962   1.986
 2174SOL    HW2 1718   2.445   1.967   1.886
 2175SOL     OW 1719   2.643   2.126   3.611
 2175SOL    HW1 1720   2.710   2.065   3.654
 2175SOL    HW2 1721   2.570   2.145   3.676
 2176SOL     OW 1722   2.750   3.376   3.057
 2176SOL    HW1 1723   2.727   3.351   2.963
 2176SOL    HW2 1724   2.811   3.307   3.096
 2177SOL     OW 1725   3.213   2.452   3.295
 2177SOL    HW1 1726   3.241   2.409   3.380
 2177SOL    HW2 1727   3.238   2.548   3.296
 2178SOL     OW 1728   2.665   3.264   2.786
 2178SOL    HW1 1729   2.755   3.278   2.744
 2178SOL    HW2 1730   2.594   3.266   2.715
 2179SOL     OW 1731   2.784   2.365   2.761
 2179SOL    HW1 1732   2.759   2.356   2.665
 2179SOL    HW2 1733   2.832   2.283   2.792
 2180SOL     OW 1734   2.401   1.926   2.374
 2180SOL    HW1 1735   2.320   1.927   2.432
 2180SOL    HW2 1736   2.404   2.009   2.319
 2181SOL     OW 1737   3.296   3.050   1.903
 2181SOL    HW1 1738   3.328   2.974   1.960
 2181SOL    HW2 1739   3.204   3.077   1.933
 2182SOL     OW 1740   2.159   1.897   2.033
 2182SOL    HW1 1741   2.208   1.981   2.012
 2182SOL    HW2 1742   2.221   1.832   2.078
 2183SOL     OW 1743   2.797   2.098   2.342
 2183SOL    HW1 1744   2.749   2.139   2.264
 2183SOL    HW2 1745   2.896   2.096   2.323
 2184SOL     OW 1746   2.938   2.545   3.326
 2184SOL    HW1 1747   2.858   2.484   3.329
 2184SOL    HW2 1748   3.019   2.492   3.302
 2185SOL     OW 1749   3.089   3.432   2.655
 2185SOL    HW1 1750   3.110   3.506   2.590
 2185SOL    HW2 1751   3.157   3.432   2.728
 2186SOL     OW 1752   2.321   3.014   2.603
 2186SOL    HW1 1753   2.250   2.987   2.668
 2186SOL    HW2 1754   2.295   2.986   2.510
 2187SOL     OW 1755   3.133   3.659   2.453
 2187SOL    HW1 1756   3.177   3.723   2.389
 2187SOL    HW2 1757   3.083   3.711   2.523
 2188SOL     OW 1758   2.894   2.411   1.878
 2188SOL    HW1 1759   2.853   2.493   1.839
 2188SOL    HW2 1760   2.958   2.437   1.951
 2189SOL     OW 1761   1.940   2.418   3.248
 2189SOL    HW1 1762   2.032   2.417   3.207
 2189SOL    HW2 1763   1.934   2.492   3.315
 2190SOL     OW 1764   2.423   2.084   3.009
 2190SOL    HW1 1765   2.461   2.000   3.046
 2190SOL    HW2 1766   2.335   2.103   3.053
 2191SOL     OW 1767   2.728   2.316   2.504
 2191SOL    HW1 1768   2.696   2.388   2.442
 2191SOL    HW2 1769   2.752   2.235   2.451
 2192SOL     OW 1770   2.879   1.901   2.615
 2192SOL    HW1 1771   2.807   1.906   2.546
 2192SOL    HW2 1772   2.855   1.832   2.684
 2193SOL     OW 1773   3.291   3.035   2.729
 2193SOL    HW1 1774   3.236   2.951   2.722
 2193SOL    HW2 1775   3.317   3.064   2.637
 2194SOL     OW 1776   3.328   2.452   2.854
 2194SOL    HW1 1777   3.298   2.357   2.861
 2194SOL    HW2 1778   3.401   2.468   2.920
 2195SOL     OW 1779   3.719   2.695   2.239
 2195SOL    HW1 1780   3.761   2.631   2.303
 2195SOL    HW2 1781   3.681   2.644   2.161
 2196SOL     OW 1782   2.350   3.247   2.036
 2196SOL    HW1 1783   2.263   3.232   2.083
 2196SOL    HW2 1784   2.333   3.273   1.941
 2197SOL     OW 1785   3.526   3.142   2.519
 2197SOL    HW1 1786   3.625   3.150   2.533
 2197SOL    HW2 1787   3.481   3.226   2.550
 2198SOL     OW 1788   3.252   2.437   1.940
 2198SOL    HW1 1789   3.198   2.416   2.021
 2198SOL    HW2 1790   3.343   2.396   1.949
 2199SOL     OW 1791   3.616   3.085   3.450
 2199SOL    HW1 1792   3.707   3.046   3.437
 2199SOL    HW2 1793   3.624   3.181   3.474
 2200SOL     OW 1794   2.926   3.209   3.202
 2200SOL    HW1 1795   2.846   3.186   3.257
 2200SOL    HW2 1796   3.009   3.183   3.251
 2202SOL     OW 1797   2.973   3.057   2.962
 2202SOL    HW1 1798   2.933   3.101   3.043
 2202SOL    HW2 1799   2.932   3.094   2.879
 2203SOL     OW 1800   3.500   2.961   2.941
 2203SOL    HW1 1801   3.505   3.042   3.000
 2203SOL    HW2 1802   3.414   2.963   2.890
 2204SOL     OW 1803   2.777   1.951   3.264
 2204SOL    HW1 1804   2.802   1.931   3.169
 2204SOL    HW2 1805   2.849   2.007   3.306
 2205SOL     OW 1806   2.842   2.978   3.581
 2205SOL    HW1 1807   2.743   2.984   3.591
 2205SOL    HW2 1808   2.865   2.898   3.525
 2206SOL     OW 1809   2.567   2.912   2.230
 2206SOL    HW1 1810   2.553   2.919   2.329
 2206SOL    HW2 1811   2.651   2.861   2.212
 2207SOL     OW 1812   2.272   2.675   3.113
 2207SOL    HW1 1813   2.358   2.687   3.163
 2207SOL    HW2 1814   2.230   2.588   3.140
 2208SOL     OW 1815   3.136   2.248   3.124
 2208SOL    HW1 1816   3.157   2.322   3.188
 2208SOL    HW2 1817   3.047   2.265   3.081
 2209SOL     OW 1818   1.926   3.426   3.193
 2209SOL    HW1 1819   1.880   3.508   3.159
 2209SOL    HW2 1820   2.024   3.445   3.202
 2210SOL     OW 1821   2.229   2.962   2.363
 2210SOL    HW1 1822   2.222   3.045   2.307
 2210SOL    HW2 1823   2.233   2.882   2.303
 2211SOL     OW 1824   3.114   3.210   2.250
 2211SOL    HW1 1825   3.164   3.287   2.290
 2211SOL    HW2 1826   3.019   3.212   2.282
 2212SOL     OW 1827   3.134   3.307   3.004
 2212SOL    HW1 1828   3.181   3.320   3.091
 2212SOL    HW2 1829   3.068   3.233   3.013
 2213SOL     OW 1830   3.444   2.501   2.334
 2213SOL    HW1 1831   3.413   2.562   2.407
 2213SOL    HW2 1832   3.494   2.553   2.265
 2214SOL     OW 1833   2.216   3.372   3.191
 2214SOL    HW1 1834   2.195   3.328   3.104
 2214SOL    HW2 1835   2.313   3.398   3.194
 2215SOL     OW 1836   2.264   2.613   3.460
 2215SOL    HW1 1837   2.332   2.668   3.413
 2215SOL    HW2 1838   2.304   2.525   3.487
 2216SOL     OW 1839   3.449   2.641   3.532
 2216SOL    HW1 1840   3.357   2.679   3.527
 2216SOL    HW2 1841   3.509   2.688   3.467
 2217SOL     OW 1842   2.875   1.967   3.632
 2217SOL    HW1 1843   2.881   2.052   3.580
 2217SOL    HW2 1844   2.907   1.891   3.575
 2218SOL     OW 1845   2.366   1.912   3.602
 2218SOL    HW1 1846   2.324   1.855   3.532
 2218SOL    HW2 1847   2.300   1.981   3.634
 2219SOL     OW 1848   2.435   2.732   2.891
 2219SOL    HW1 1849   2.479   2.821   2.882
 2219SOL    HW2 1850   2.372   2.732   2.968
 2220SOL     OW 1851   3.222   2.724   2.907
 2220SOL    HW1 1852   3.147   2.724   2.841
 2220SOL    HW2 1853   3.259   2.632   2.916
 2221SOL     OW 1854   3.071   2.387   2.137
 2221SOL    HW1 1855   3.084   2.303   2.191
 2221SOL    HW2 1856   3.042   2.461   2.197
 2222SOL     OW 1857   2.169   2.075   3.093
 2222SOL    HW1 1858   2.146   2.112   3.183
 2222SOL    HW2 1859   2.139   1.980   3.087
 2223SOL     OW 1860   1.899   3.172   3.144
 2223SOL    HW1 1861   1.952   3.123   3.212
 2223SOL    HW2 1862   1.921   3.270   3.149
 2225SOL     OW 1863   2.169   1.925   2.480
 2225SOL    HW1 1864   2.158   2.019   2.513
 2225SOL    HW2 1865   2.164   1.862   2.557
 2226SOL     OW 1866   3.484   2.229   2.236
 2226SOL    HW1 1867   3.486   2.153   2.300
 2226SOL    HW2 1868   3.436   2.306   2.276
 2227SOL     OW 1869   2.885   2.628   2.828
 2227SOL    HW1 1870   2.900   2.649   2.924
 2227SOL    HW2 1871   2.855   2.533   2.819
 2228SOL     OW 1872   2.842   3.435   3.562
 2228SOL    HW1 1873   2.822   3.479   3.474
 2228SOL    HW2 1874   2.881   3.344   3.546
 2230SOL     OW 1875   2.212   2.760   3.666
 2230SOL    HW1 1876   2.288   2.804   3.714
 2230SOL    HW2 1877   2.247   2.713   3.584
 2231SOL     OW 1878   3.402   2.136   1.987
 2231SOL    HW1 1879   3.341   2.061   2.010
 2231SOL    HW2 1880   3.424   2.188   2.070
 2232SOL     OW 1881   3.165   2.700   1.904
 2232SOL    HW1 1882   3.199   2.607   1.919
 2232SOL    HW2 1883   3.183   2.727   1.809
 2233SOL     OW 1884   2.930   3.195   2.711
 2233SOL    HW1 1885   2.937   3.111   2.656
 2233SOL    HW2 1886   2.992   3.264   2.675
 2234SOL     OW 1887   2.181   2.672   2.811
 2234SOL    HW1 1888   2.274   2.708   2.816
 2234SOL    HW2 1889   2.175   2.587   2.863
 2235SOL     OW 1890   2.201   2.371   2.868
 2235SOL    HW1 1891   2.149   2.288   2.851
 2235SOL    HW2 1892   2.278   2.376   2.804
 2236SOL     OW 1893   3.000   2.242   3.540
 2236SOL    HW1 1894   2.955   2.305   3.604
 2236SOL    HW2 1895   3.093   2.273   3.523
 2237SOL     OW 1896   3.022   2.069   3.339
 2237SOL    HW1 1897   3.022   2.133   3.416
 2237SOL    HW2 1898   3.050   2.117   3.256
 2238SOL     OW 1899   1.870   3.188   2.062
 2238SOL    HW1 1900   1.777   3.209   2.031
 2238SOL    HW2 1901   1.880   3.089   2.075
 2239SOL     OW 1902   1.950   3.663   2.789
 2239SOL    HW1 1903   1.908   3.577   2.762
 2239SOL    HW2 1904   2.044   3.666   2.755
 2240SOL     OW 1905   2.366   3.430   2.772
 2240SOL    HW1 1906   2.432   3.504   2.781
 2240SOL    HW2 1907   2.410   3.351   2.730
 2241SOL     OW 1908   2.864   2.658   3.100
 2241SOL    HW1 1909   2.905   2.626   3.186
 2241SOL    HW2 1910   2.768   2.631   3.097
 2242SOL     OW 1911   1.902   2.406   2.976
 2242SOL    HW1 1912   1.987   2.373   2.935
 2242SOL    HW2 1913   1.915   2.421   3.074
 2243SOL     OW 1914   2.051   2.382   3.584
 2243SOL    HW1 1915   2.110   2.342   3.514
 2243SOL    HW2 1916   1.993   2.453   3.543
 2244SOL     OW 1917   3.231   2.812   3.522
 2244SOL    HW1 1918   3.270   2.901   3.542
 2244SOL    HW2 1919   3.241   2.792   3.425
 2245SOL     OW 1920   2.677   2.434   2.187
 2245SOL    HW1 1921   2.684   2.345   2.141
 2245SOL    HW2 1922   2.583   2.468   2.179
 2246SOL     OW 1923   3.519   2.466   3.068
 2246SOL    HW1 1924   3.481   2.397   3.130
 2246SOL    HW2 1925   3.601   2.430   3.024
 2247SOL     OW 1926   2.114   3.426   3.606
 2247SOL    HW1 1927   2.084   3.483   3.682
 2247SOL    HW2 1928   2.107   3.329   3.632
 2248SOL     OW 1929   2.533   2.326   3.131
 2248SOL    HW1 1930   2.499   2.237   3.101
 2248SOL    HW2 1931   2.559   2.380   3.051
 2249SOL     OW 1932   2.792   3.540   3.327
 2249SOL    HW1 1933   2.768   3.522   3.232
 2249SOL    HW2 1934   2.822   3.634   3.337
 2250SOL     OW 1935   2.021   2.999   3.328
 2250SOL    HW1 1936   2.043   2.938   3.404
 2250SOL    HW2 1937   2.031   2.950   3.242
 2251SOL     OW 1938   3.209   2.921   3.096
 2251SOL    HW1 1939   3.233   2.858   3.022
 2251SOL    HW2 1940   3.119   2.961   3.078
 2252SOL     OW 1941   3.164   2.717   2.171
 2252SOL    HW1 1942   3.078   2.686   2.213
 2252SOL    HW2 1943   3.160   2.703   2.072
 2254SOL     OW 1944   3.114   3.593   2.990
 2254SOL    HW1 1945   3.198   3.598   2.936
 2254SOL    HW2 1946   3.091   3.497   3.008
 2255SOL     OW 1947   1.945   3.120   2.884
 2255SOL    HW1 1948   1.940   3.119   2.984
 2255SOL    HW2 1949   1.862   3.079   2.846
 2256SOL     OW 1950   2.550   3.524   3.578
 2256SOL    HW1 1951   2.494   3.605   3.587
 2256SOL    HW2 1952   2.602   3.528   3.492
 2257SOL     OW 1953   3.588   1.997   2.385
 2257SOL    HW1 1954   3.661   1.980   2.318
 2257SOL    HW2 1955   3.557   1.910   2.423
 2258SOL     OW 1956   3.250   3.435   2.339
 2258SOL    HW1 1957   3.317   3.447   2.265
 2258SOL    HW2 1958   3.210   3.524   2.362
 2260SOL     OW 1959   3.142   2.789   2.534
 2260SOL    HW1 1960   3.202   2.708   2.536
 2260SOL    HW2 1961   3.182   2.858   2.474
 2261SOL     OW 1962   2.692   3.135   3.284
 2261SOL    HW1 1963   2.687   3.168   3.379
 2261SOL    HW2 1964   2.606   3.154   3.238
 2262SOL     OW 1965   2.534   3.478   2.016
 2262SOL    HW1 1966   2.543   3.488   1.917
 2262SOL    HW2 1967   2.494   3.389   2.037
 2264SOL     OW 1968   3.703   2.037   2.825
 2264SOL    HW1 1969   3.742   1.952   2.789
 2264SOL    HW2 1970   3.605   2.039   2.806
 2265SOL     OW 1971   2.125   2.188   2.582
 2265SOL    HW1 1972   2.046   2.239   2.548
 2265SOL    HW2 1973   2.116   2.173   2.680
 2266SOL     OW 1974   3.056   3.474   1.893
 2266SOL    HW1 1975   3.062   3.381   1.930
 2266SOL    HW2 1976   2.997   3.474   1.813
 2267SOL     OW 1977   2.684   2.864   3.234
 2267SOL    HW1 1978   2.724   2.863   3.142
 2267SOL    HW2 1979   2.694   2.956   3.274
 2268SOL     OW 1980   2.778   2.772   2.153
 2268SOL    HW1 1981   2.841   2.810   2.085
 2268SOL    HW2 1982   2.818   2.689   2.192
 2269SOL     OW 1983   3.366   3.469   1.906
 2269SOL    HW1 1984   3.274   3.506   1.913
 2269SOL    HW2 1985   3.404   3.489   1.816
 2270SOL     OW 1986   2.234   3.150   3.352
 2270SOL    HW1 1987   2.221   3.243   3.318
 2270SOL    HW2 1988   2.150   3.098   3.339
 2271SOL     OW 1989   3.476   3.154   3.151
 2271SOL    HW1 1990   3.536   3.157   3.231
 2271SOL    HW2 1991   3.401   3.218   3.164
 2272SOL     OW 1992   2.901   2.960   2.558
 2272SOL    HW1 1993   2.831   2.913   2.612
 2272SOL    HW2 1994   2.960   2.892   2.515
 2273SOL     OW 1995   2.876   2.098   2.833
 2273SOL    HW1 1996   2.868   2.062   2.740
 2273SOL    HW2 1997   2.874   2.022   2.898
 2274SOL     OW 1998   2.452   3.349   2.353
 2274SOL    HW1 1999   2.494   3.291   2.283
 2274SOL    HW2 2000   2.408   3.428   2.309
 2275SOL     OW 2001   3.571   2.247   3.243
 2275SOL    HW1 2002   3.644   2.316   3.247
 2275SOL    HW2 2003   3.599   2.172   3.184
 2276SOL     OW 2004   2.117   3.210   2.152
 2276SOL    HW1 2005   2.021   3.211   2.125
 2276SOL    HW2 2006   2.129   3.263   2.236
 2277SOL     OW 2007   1.967   2.875   3.588
 2277SOL    HW1 2008   1.890   2.842   3.642
 2277SOL    HW2 2009   2.052   2.845   3.630
 2278SOL     OW 2010   2.534   2.065   3.351
 2278SOL    HW1 2011   2.624   2.049   3.311
 2278SOL    HW2 2012   2.542   2.070   3.450
 2279SOL     OW 2013   1.937   2.207   1.895
 2279SOL    HW1 2014   1.845   2.179   1.866
 2279SOL    HW2 2015   1.968   2.284   1.839
 2280SOL     OW 2016   3.302   2.718   3.260
 2280SOL    HW1 2017   3.245   2.770   3.197
 2280SOL    HW2 2018   3.398   2.730   3.236
 2281SOL     OW 2019   1.934   2.028   2.180
 2281SOL    HW1 2020   1.917   2.111   2.126
 2281SOL    HW2 2021   2.024   1.991   2.158
 2282SOL     OW 2022   3.045   3.197   1.981
 2282SOL    HW1 2023   2.946   3.186   1.983
 2282SOL    HW2 2024   3.079   3.212   2.074
 2283SOL     OW 2025   2.475   2.704   3.293
 2283SOL    HW1 2026   2.531   2.785   3.276
 2283SOL    HW2 2027   2.534   2.624   3.296
 2284SOL     OW 2028   3.355   3.629   2.821
 2284SOL    HW1 2029   3.388   3.693   2.752
 2284SOL    HW2 2030   3.421   3.623   2.896
 2285SOL     OW 2031   2.578   2.427   3.570
 2285SOL    HW1 2032   2.597   2.492   3.644
 2285SOL    HW2 2033   2.638   2.347   3.579
 2286SOL     OW 2034   3.312   3.082   3.495
 2286SOL    HW1 2035   3.303   3.072   3.594
 2286SOL    HW2 2036   3.408   3.075   3.469
 2287SOL     OW 2037   2.252   3.603   3.422
 2287SOL    HW1 2038   2.161   3.644   3.420
 2287SOL    HW2 2039   2.245   3.509   3.454
 2288SOL     OW 2040   3.536   2.745   3.116
 2288SOL    HW1 2041   3.509   2.656   3.079
 2288SOL    HW2 2042   3.537   2.813   3.043
 2289SOL     OW 2043   3.087   2.187   2.311
 2289SOL    HW1 2044   3.152   2.113   2.300
 2289SOL    HW2 2045   3.107   2.237   2.395
 2290SOL     OW 2046   3.639   2.204   3.504
 2290SOL    HW1 2047   3.622   2.235   3.410
 2290SOL    HW2 2048   3.555   2.167   3.542
 2291SOL     OW 2049   3.592   2.796   3.379
 2291SOL    HW1 2050   3.630   2.887   3.394
 2291SOL    HW2 2051   3.584   2.779   3.280
 2292SOL     OW 2052   2.721   3.236   1.878
 2292SOL    HW1 2053   2.675   3.251   1.966
 2292SOL    HW2 2054   2.765   3.321   1.848
 2293SOL     OW 2055   2.523   3.652   2.815
 2293SOL    HW1 2056   2.477   3.740   2.802
 2293SOL    HW2 2057   2.622   3.664   2.808
 2294SOL     OW 2058   2.721   2.818   2.723
 2294SOL    HW1 2059   2.775   2.749   2.771
 2294SOL    HW2 2060   2.689   2.887   2.789
 2295SOL     OW 2061   2.945   2.846   1.949
 2295SOL    HW1 2062   2.922   2.899   1.867
 2295SOL    HW2 2063   3.026   2.790   1.930
 2296SOL     OW 2064   3.723   3.431   2.713
 2296SOL    HW1 2065   3.652   3.419   2.643
 2296SOL    HW2 2066   3.724   3.352   2.773
 2297SOL     OW 2067   2.083   3.176   3.706
 2297SOL    HW1 2068   2.018   3.103   3.685
 2297SOL    HW2 2069   2.087   3.190   3.804
 2298SOL     OW 2070   1.941   3.102   2.515
 2298SOL    HW1 2071   1.940   3.055   2.603
 2298SOL    HW2 2072   2.023   3.074   2.464
 2299SOL     OW 2073   2.534   3.253   3.486
 2299SOL    HW1 2074   2.456   3.203   3.524
 2299SOL    HW2 2075   2.531   3.348   3.517
 2300SOL     OW 2076   3.686   2.054   3.089
 2300SOL    HW1 2077   3.682   1.964   3.133
 2300SOL    HW2 2078   3.689   2.043   2.990
 2301SOL     OW 2079   3.567   3.349   2.966
 2301SOL    HW1 2080   3.474   3.324   2.939
 2301SOL    HW2 2081   3.593   3.299   3.048
 2302SOL     OW 2082   2.179   2.409   3.142
 2302SOL    HW1 2083   2.217   2.350   3.214
 2302SOL    HW2 2084   2.219   2.383   3.054
 2303SOL     OW 2085   2.674   3.448   2.549
 2303SOL    HW1 2086   2.706   3.458   2.455
 2303SOL    HW2 2087   2.595   3.386   2.551
 2304SOL     OW 2088   3.286   2.076   2.974
 2304SOL    HW1 2089   3.338   2.011   3.029
 2304SOL    HW2 2090   3.237   2.139   3.035
 2305SOL     OW 2091   2.863   1.896   3.016
 2305SOL    HW1 2092   2.800   1.824   2.985
 2305SOL    HW2 2093   2.956   1.860   3.016
 2306SOL     OW 2094   2.632   3.192   2.163
 2306SOL    HW1 2095   2.586   3.105   2.180
 2306SOL    HW2 2096   2.723   3.189   2.204
 2307SOL     OW 2097   2.480   3.429   3.146
 2307SOL    HW1 2098   2.475   3.511   3.203
 2307SOL    HW2 2099   2.569   3.426   3.101
 2308SOL     OW 2100   3.214   1.914   2.030
 2308SOL    HW1 2101   3.249   1.873   1.946
 2308SOL    HW2 2102   3.124   1.876   2.050
 2309SOL     OW 2103   3.162   2.315   2.553
 2309SOL    HW1 2104   3.103   2.395   2.557
 2309SOL    HW2 2105   3.177   2.280   2.646
 2310SOL     OW 2106   3.455   2.083   2.744
 2310SOL    HW1 2107   3.371   2.082   2.798
 2310SOL    HW2 2108   3.457   2.166   2.688
 2311SOL     OW 2109   1.901   2.939   2.162
 2311SOL    HW1 2110   2.000   2.928   2.153
 2311SOL    HW2 2111   1.861   2.853   2.194
 2312SOL     OW 2112   2.737   3.508   2.199
 2312SOL    HW1 2113   2.660   3.473   2.145
 2312SOL    HW2 2114   2.705   3.579   2.261
 2313SOL     OW 2115   2.092   2.490   3.837
 2313SOL    HW1 2116   1.999   2.488   3.874
 2313SOL    HW2 2117   2.093   2.451   3.745
 2324SOL     OW 2118   2.468   2.826   3.847
 2324SOL    HW1 2119   2.475   2.910   3.793
 2324SOL    HW2 2120   2.514   2.839   3.935
 2335SOL     OW 2121   2.460   2.591   3.994
 2335SOL    HW1 2122   2.484   2.660   3.926
 2335SOL    HW2 2123   2.382   2.624   4.048
 2340SOL     OW 2124   2.727   2.210   3.919
 2340SOL    HW1 2125   2.786   2.273   3.870
 2340SOL    HW2 2126   2.746   2.116   3.890
 2345SOL     OW 2127   2.183   2.805   3.966
 2345SOL    HW1 2128   2.265   2.844   3.924
 2345SOL    HW2 2129   2.156   2.723   3.917
 2352SOL     OW 2130   2.476   1.984   3.841
 2352SOL    HW1 2131   2.574   1.962   3.848
 2352SOL    HW2 2132   2.445   1.967   3.748
 2355SOL     OW 2133   3.296   3.050   3.765
 2355SOL    HW1 2134   3.328   2.974   3.822
 2355SOL    HW2 2135   3.204   3.077   3.795
 2356SOL     OW 2136   2.159   1.897   3.895
 2356SOL    HW1 2137   2.208   1.981   3.874
 2356SOL    HW2 2138   2.221   1.832   3.940
 2361SOL     OW 2139   2.894   2.411   3.740
 2361SOL    HW1 2140   2.853   2.493   3.701
 2361SOL    HW2 2141   2.958   2.437   3.813
 2366SOL     OW 2142   2.350   3.247   3.898
 2366SOL    HW1 2143   2.263   3.232   3.945
 2366SOL    HW2 2144   2.333   3.273   3.803
 2368SOL     OW 2145   3.252   2.437   3.802
 2368SOL    HW1 2146   3.198   2.416   3.883
 2368SOL    HW2 2147   3.343   2.396   3.811
 2369SOL     OW 2148   2.389   2.118   4.052
 2369SOL    HW1 2149   2.416   2.059   3.977
 2369SOL    HW2 2150   2.389   2.213   4.021
 2375SOL     OW 2151   3.071   2.387   3.999
 2375SOL    HW1 2152   3.084   2.303   4.053
 2375SOL    HW2 2153   3.042   2.461   4.059
 2380SOL     OW 2154   3.165   2.700   3.766
 2380SOL    HW1 2155   3.199   2.607   3.781
 2380SOL    HW2 2156   3.183   2.727   3.671
 2386SOL     OW 2157   2.677   2.434   4.049
 2386SOL    HW1 2158   2.684   2.345   4.003
 2386SOL    HW2 2159   2.583   2.468   4.041
 2388SOL     OW 2160   2.335   2.362   3.915
 2388SOL    HW1 2161   2.396   2.442   3.919
 2388SOL    HW2 2162   2.240   2.393   3.922
 2398SOL     OW 2163   2.778   2.772   4.015
 2398SOL    HW1 2164   2.841   2.810   3.947
 2398SOL    HW2 2165   2.818   2.689   4.054
 2403SOL     OW 2166   1.937   2.207   3.757
 2403SOL    HW1 2167   1.845   2.179   3.728
 2403SOL    HW2 2168   1.968   2.284   3.701
 2404SOL     OW 2169   1.934   2.028   4.042
 2404SOL    HW1 2170   1.917   2.111   3.988
 2404SOL    HW2 2171   2.024   1.991   4.020
 2409SOL     OW 2172   2.721   3.236   3.740
 2409SOL    HW1 2173   2.675   3.251   3.828
 2409SOL    HW2 2174   2.765   3.321   3.710
 2412SOL     OW 2175   2.945   2.846   3.811
 2412SOL    HW1 2176   2.922   2.899   3.729
 2412SOL    HW2 2177   3.026   2.790   3.792
 2419SOL     OW 2178   3.214   1.914   3.892
 2419SOL    HW1 2179   3.249   1.873   3.808
 2419SOL    HW2 2180   3.124   1.876   3.912
 2439SOL     OW 2181   2.179   3.975   1.801
 2439SOL    HW1 2182   2.250   4.046   1.807
 2439SOL    HW2 2183   2.091   4.014   1.829
 2457SOL     OW 2184   2.643   3.988   1.749
 2457SOL    HW1 2185   2.710   3.927   1.792
 2457SOL    HW2 2186   2.570   4.007   1.814
 2474SOL     OW 2187   2.777   3.813   1.402
 2474SOL    HW1 2188   2.802   3.793   1.307
 2474SOL    HW2 2189   2.849   3.869   1.444
 2481SOL     OW 2190   2.875   3.829   1.770
 2481SOL    HW1 2191   2.881   3.914   1.718
 2481SOL    HW2 2192   2.907   3.753   1.713
 2482SOL     OW 2193   2.366   3.774   1.740
 2482SOL    HW1 2194   2.324   3.717   1.670
 2482SOL    HW2 2195   2.300   3.843   1.772
 2518SOL     OW 2196   2.534   3.927   1.489
 2518SOL    HW1 2197   2.624   3.911   1.449
 2518SOL    HW2 2198   2.542   3.932   1.588
 2538SOL     OW 2199   2.087   3.999   2.858
 2538SOL    HW1 2200   2.122   3.982   2.950
 2538SOL    HW2 2201   1.999   3.954   2.846
 2539SOL     OW 2202   1.881   4.092   2.509
 2539SOL    HW1 2203   1.799   4.135   2.548
 2539SOL    HW2 2204   1.853   4.019   2.446
 2549SOL     OW 2205   2.671   3.728   2.364
 2549SOL    HW1 2206   2.711   3.819   2.355
 2549SOL    HW2 2207   2.571   3.736   2.370
 2561SOL     OW 2208   2.727   4.072   2.057
 2561SOL    HW1 2209   2.786   4.135   2.008
 2561SOL    HW2 2210   2.746   3.978   2.028
 2563SOL     OW 2211   2.412   3.920   2.747
 2563SOL    HW1 2212   2.407   3.915   2.847
 2563SOL    HW2 2213   2.414   4.016   2.718
 2566SOL     OW 2214   3.262   3.831   2.288
 2566SOL    HW1 2215   3.238   3.794   2.198
 2566SOL    HW2 2216   3.361   3.847   2.292
 2569SOL     OW 2217   2.476   3.846   1.979
 2569SOL    HW1 2218   2.574   3.824   1.986
 2569SOL    HW2 2219   2.445   3.829   1.886
 2573SOL     OW 2220   2.401   3.788   2.374
 2573SOL    HW1 2221   2.320   3.789   2.432
 2573SOL    HW2 2222   2.404   3.871   2.319
 2574SOL     OW 2223   2.159   3.759   2.033
 2574SOL    HW1 2224   2.208   3.843   2.012
 2574SOL    HW2 2225   2.221   3.694   2.078
 2575SOL     OW 2226   2.797   3.960   2.342
 2575SOL    HW1 2227   2.749   4.001   2.264
 2575SOL    HW2 2228   2.896   3.958   2.323
 2579SOL     OW 2229   2.423   3.946   3.009
 2579SOL    HW1 2230   2.461   3.862   3.046
 2579SOL    HW2 2231   2.335   3.965   3.053
 2581SOL     OW 2232   2.879   3.763   2.615
 2581SOL    HW1 2233   2.807   3.768   2.546
 2581SOL    HW2 2234   2.855   3.694   2.684
 2585SOL     OW 2235   2.389   3.980   2.190
 2585SOL    HW1 2236   2.416   3.921   2.115
 2585SOL    HW2 2237   2.389   4.075   2.159
 2587SOL     OW 2238   2.777   3.813   3.264
 2587SOL    HW1 2239   2.802   3.793   3.169
 2587SOL    HW2 2240   2.849   3.869   3.306
 2599SOL     OW 2241   2.169   3.937   3.093
 2599SOL    HW1 2242   2.146   3.974   3.183
 2599SOL    HW2 2243   2.139   3.842   3.087
 2602SOL     OW 2244   2.169   3.787   2.480
 2602SOL    HW1 2245   2.158   3.881   2.513
 2602SOL    HW2 2246   2.164   3.724   2.557
 2626SOL     OW 2247   2.125   4.050   2.582
 2626SOL    HW1 2248   2.046   4.101   2.548
 2626SOL    HW2 2249   2.116   4.035   2.680
 2628SOL     OW 2250   2.876   3.960   2.833
 2628SOL    HW1 2251   2.868   3.924   2.740
 2628SOL    HW2 2252   2.874   3.884   2.898
 2634SOL     OW 2253   1.934   3.890   2.180
 2634SOL    HW1 2254   1.917   3.973   2.126
 2634SOL    HW2 2255   2.024   3.853   2.158
 2643SOL     OW 2256   2.290   4.148   2.382
 2643SOL    HW1 2257   2.320   4.076   2.320
 2643SOL    HW2 2258   2.251   4.108   2.465
 2646SOL     OW 2259   2.863   3.758   3.016
 2646SOL    HW1 2260   2.800   3.686   2.985
 2646SOL    HW2 2261   2.956   3.722   3.016
 2647SOL     OW 2262   3.214   3.776   2.030
 2647SOL    HW1 2263   3.249   3.735   1.946
 2647SOL    HW2 2264   3.124   3.738   2.050
 2735SOL     OW 2265   3.854   1.821   1.571
 2735SOL    HW1 2266   3.844   1.806   1.670
 2735SOL    HW2 2267   3.768   1.857   1.535
 2794SOL     OW 2268   3.854   1.794   1.851
 2794SOL    HW1 2269   3.813   1.720   1.904
 2794SOL    HW2 2270   3.918   1.845   1.909
 2836SOL     OW 2271   3.955   1.713   2.345
 2836SOL    HW1 2272   3.989   1.790   2.399
 2836SOL    HW2 2273   3.999   1.713   2.255
 2842SOL     OW 2274   3.751   1.596   1.979
 2842SOL    HW1 2275   3.732   1.500   2.000
 2842SOL    HW2 2276   3.718   1.654   2.054
 2895SOL     OW 2277   3.732   1.326   2.062
 2895SOL    HW1 2278   3.639   1.347   2.031
 2895SOL    HW2 2279   3.742   1.227   2.075
 2896SOL     OW 2280   3.812   1.801   2.789
 2896SOL    HW1 2281   3.770   1.715   2.762
 2896SOL    HW2 2282   3.906   1.804   2.755
 3021SOL     OW 2283   3.837   2.599   1.597
 3021SOL    HW1 2284   3.925   2.586   1.642
 3021SOL    HW2 2285   3.824   2.696   1.575
 3025SOL     OW 2286   4.041   2.113   1.801
 3025SOL    HW1 2287   4.112   2.184   1.807
 3025SOL    HW2 2288   3.953   2.152   1.829
 3037SOL     OW 2289   3.926   2.147   1.498
 3037SOL    HW1 2290   3.846   2.207   1.485
 3037SOL    HW2 2291   3.916   2.098   1.584
 3050SOL     OW 2292   3.802   2.418   1.386
 3050SOL    HW1 2293   3.894   2.417   1.345
 3050SOL    HW2 2294   3.796   2.492   1.453
 3081SOL     OW 2295   3.913   2.382   1.722
 3081SOL    HW1 2296   3.972   2.342   1.652
 3081SOL    HW2 2297   3.855   2.453   1.681
 3100SOL     OW 2298   3.829   2.875   1.726
 3100SOL    HW1 2299   3.752   2.842   1.780
 3100SOL    HW2 2300   3.914   2.845   1.768
 3123SOL     OW 2301   3.954   2.490   1.975
 3123SOL    HW1 2302   3.861   2.488   2.012
 3123SOL    HW2 2303   3.955   2.451   1.883
 3124SOL     OW 2304   3.949   2.137   2.858
 3124SOL    HW1 2305   3.984   2.120   2.950
 3124SOL    HW2 2306   3.861   2.092   2.846
 3125SOL     OW 2307   3.743   2.230   2.509
 3125SOL    HW1 2308   3.661   2.273   2.548
 3125SOL    HW2 2309   3.715   2.157   2.446
 3135SOL     OW 2310   3.964   2.953   2.748
 3135SOL    HW1 2311   3.978   2.869   2.800
 3135SOL    HW2 2312   3.909   3.017   2.803
 3138SOL     OW 2313   3.846   2.505   2.425
 3138SOL    HW1 2314   3.801   2.417   2.442
 3138SOL    HW2 2315   3.845   2.559   2.509
 3139SOL     OW 2316   3.751   3.458   1.979
 3139SOL    HW1 2317   3.732   3.362   2.000
 3139SOL    HW2 2318   3.718   3.516   2.054
 3143SOL     OW 2319   3.921   2.838   3.126
 3143SOL    HW1 2320   4.010   2.793   3.112
 3143SOL    HW2 2321   3.848   2.773   3.107
 3148SOL     OW 2322   3.800   2.673   2.651
 3148SOL    HW1 2323   3.899   2.661   2.660
 3148SOL    HW2 2324   3.776   2.768   2.672
 3154SOL     OW 2325   4.045   2.805   2.104
 3154SOL    HW1 2326   4.127   2.844   2.062
 3154SOL    HW2 2327   4.018   2.723   2.055
 3159SOL     OW 2328   4.106   2.562   2.342
 3159SOL    HW1 2329   4.151   2.472   2.339
 3159SOL    HW2 2330   4.012   2.551   2.375
 3166SOL     OW 2331   4.021   1.897   2.033
 3166SOL    HW1 2332   4.070   1.981   2.012
 3166SOL    HW2 2333   4.083   1.832   2.078
 3169SOL     OW 2334   3.802   2.418   3.248
 3169SOL    HW1 2335   3.894   2.417   3.207
 3169SOL    HW2 2336   3.796   2.492   3.315
 3187SOL     OW 2337   3.761   3.172   3.144
 3187SOL    HW1 2338   3.814   3.123   3.212
 3187SOL    HW2 2339   3.783   3.270   3.149
 3189SOL     OW 2340   4.031   1.925   2.480
 3189SOL    HW1 2341   4.020   2.019   2.513
 3189SOL    HW2 2342   4.026   1.862   2.557
 3193SOL     OW 2343   4.043   2.672   2.811
 3193SOL    HW1 2344   4.136   2.708   2.816
 3193SOL    HW2 2345   4.037   2.587   2.863
 3194SOL     OW 2346   4.063   2.371   2.868
 3194SOL    HW1 2347   4.011   2.288   2.851
 3194SOL    HW2 2348   4.140   2.376   2.804
 3195SOL     OW 2349   3.732   3.188   2.062
 3195SOL    HW1 2350   3.639   3.209   2.031
 3195SOL    HW2 2351   3.742   3.089   2.075
 3199SOL     OW 2352   3.764   2.406   2.976
 3199SOL    HW1 2353   3.849   2.373   2.935
 3199SOL    HW2 2354   3.777   2.421   3.074
 3207SOL     OW 2355   3.807   3.120   2.884
 3207SOL    HW1 2356   3.802   3.119   2.984
 3207SOL    HW2 2357   3.724   3.079   2.846
 3213SOL     OW 2358   3.987   2.188   2.582
 3213SOL    HW1 2359   3.908   2.239   2.548
 3213SOL    HW2 2360   3.978   2.173   2.680
 3220SOL     OW 2361   3.799   2.207   1.895
 3220SOL    HW1 2362   3.707   2.179   1.866
 3220SOL    HW2 2363   3.830   2.284   1.839
 3221SOL     OW 2364   3.796   2.028   2.180
 3221SOL    HW1 2365   3.779   2.111   2.126
 3221SOL    HW2 2366   3.886   1.991   2.158
 3231SOL     OW 2367   3.803   3.102   2.515
 3231SOL    HW1 2368   3.802   3.055   2.603
 3231SOL    HW2 2369   3.885   3.074   2.464
 3233SOL     OW 2370   4.152   2.286   2.382
 3233SOL    HW1 2371   4.182   2.214   2.320
 3233SOL    HW2 2372   4.113   2.246   2.465
 3239SOL     OW 2373   3.763   2.939   2.162
 3239SOL    HW1 2374   3.862   2.928   2.153
 3239SOL    HW2 2375   3.723   2.853   2.194
   4.75182   4.75182   4.75182
