; mobley_9741965_GMX.itp created by acpype (v: 2023.10.27) on Thu May 21 00:12:28 2026

[ atomtypes ]
;name   bond_type     mass     charge   ptype   sigma         epsilon       Amb
 c3       c3          0.00000  0.00000   A     3.39771e-01   4.51035e-01 ; 1.91  0.1078
 no       no          0.00000  0.00000   A     3.36510e-01   3.58987e-01 ; 1.89  0.0858
 o        o           0.00000  0.00000   A     3.04812e-01   6.12119e-01 ; 1.71  0.1463
 os       os          0.00000  0.00000   A     3.15610e-01   3.03758e-01 ; 1.77  0.0726
 hc       hc          0.00000  0.00000   A     2.60018e-01   8.70272e-02 ; 1.46  0.0208
 h1       h1          0.00000  0.00000   A     2.42200e-01   8.70272e-02 ; 1.36  0.0208

[ moleculetype ]
;name            nrexcl
 mobley_9741965   3

[ atoms ]
;   nr  type  resi  res  atom  cgnr     charge      mass       ; qtot   bond_type
     1   c3     1   MOL    C1    1    -0.130100     12.01000 ; qtot -0.130
     2   c3     1   MOL    C2    2    -0.091400     12.01000 ; qtot -0.221
     3   c3     1   MOL    C3    3     0.130400     12.01000 ; qtot -0.091
     4   c3     1   MOL    C4    4     0.153100     12.01000 ; qtot 0.062
     5   no     1   MOL    N1    5     0.379200     14.01000 ; qtot 0.441
     6   no     1   MOL    N2    6     0.379201     14.01000 ; qtot 0.820
     7    o     1   MOL    O1    7    -0.176500     16.00000 ; qtot 0.644
     8    o     1   MOL    O2    8    -0.179000     16.00000 ; qtot 0.465
     9    o     1   MOL    O3    9    -0.176500     16.00000 ; qtot 0.288
    10    o     1   MOL    O4   10    -0.179000     16.00000 ; qtot 0.109
    11   os     1   MOL    O5   11    -0.353000     16.00000 ; qtot -0.244
    12   os     1   MOL    O6   12    -0.361000     16.00000 ; qtot -0.605
    13   hc     1   MOL    H1   13     0.064033      1.00800 ; qtot -0.541
    14   hc     1   MOL    H2   14     0.064033      1.00800 ; qtot -0.477
    15   hc     1   MOL    H3   15     0.064033      1.00800 ; qtot -0.412
    16   hc     1   MOL    H4   16     0.087700      1.00800 ; qtot -0.325
    17   hc     1   MOL    H5   17     0.087700      1.00800 ; qtot -0.237
    18   h1     1   MOL    H6   18     0.075700      1.00800 ; qtot -0.161
    19   h1     1   MOL    H7   19     0.075700      1.00800 ; qtot -0.086
    20   h1     1   MOL    H8   20     0.085700      1.00800 ; qtot 0.000

[ bonds ]
;   ai     aj funct   r             k
     1      4   1    1.5354e-01    1.9154e+05 ;     C1 - C4    
     1     13   1    1.0962e-01    2.8891e+05 ;     C1 - H1    
     1     14   1    1.0962e-01    2.8891e+05 ;     C1 - H2    
     1     15   1    1.0962e-01    2.8891e+05 ;     C1 - H3    
     2      3   1    1.5354e-01    1.9154e+05 ;     C2 - C3    
     2      4   1    1.5354e-01    1.9154e+05 ;     C2 - C4    
     2     16   1    1.0962e-01    2.8891e+05 ;     C2 - H4    
     2     17   1    1.0962e-01    2.8891e+05 ;     C2 - H5    
     3     11   1    1.4273e-01    2.3620e+05 ;     C3 - O5    
     3     18   1    1.0969e-01    2.8804e+05 ;     C3 - H6    
     3     19   1    1.0969e-01    2.8804e+05 ;     C3 - H7    
     4     12   1    1.4273e-01    2.3620e+05 ;     C4 - O6    
     4     20   1    1.0969e-01    2.8804e+05 ;     C4 - H8    
     5      7   1    1.2311e-01    3.0270e+05 ;     N1 - O1    
     5      9   1    1.2311e-01    3.0270e+05 ;     N1 - O3    
     5     11   1    1.4202e-01    1.5509e+05 ;     N1 - O5    
     6      8   1    1.2311e-01    3.0270e+05 ;     N2 - O2    
     6     10   1    1.2311e-01    3.0270e+05 ;     N2 - O4    
     6     12   1    1.4202e-01    1.5509e+05 ;     N2 - O6    

[ pairs ]
;   ai     aj    funct
     1      3      1 ;     C1 - C3    
     1      6      1 ;     C1 - N2    
     1     16      1 ;     C1 - H4    
     1     17      1 ;     C1 - H5    
     2      5      1 ;     C2 - N1    
     2      6      1 ;     C2 - N2    
     3      7      1 ;     C3 - O1    
     3      9      1 ;     C3 - O3    
     3     12      1 ;     C3 - O6    
     3     20      1 ;     C3 - H8    
     4      8      1 ;     C4 - O2    
     4     10      1 ;     C4 - O4    
     4     11      1 ;     C4 - O5    
     4     18      1 ;     C4 - H6    
     4     19      1 ;     C4 - H7    
     5     18      1 ;     N1 - H6    
     5     19      1 ;     N1 - H7    
     6     20      1 ;     N2 - H8    
    11     16      1 ;     O5 - H4    
    11     17      1 ;     O5 - H5    
    12     16      1 ;     O6 - H4    
    12     17      1 ;     O6 - H5    
    13      2      1 ;     H1 - C2    
    13     12      1 ;     H1 - O6    
    13     20      1 ;     H1 - H8    
    14      2      1 ;     H2 - C2    
    14     12      1 ;     H2 - O6    
    14     20      1 ;     H2 - H8    
    15      2      1 ;     H3 - C2    
    15     12      1 ;     H3 - O6    
    15     20      1 ;     H3 - H8    
    16     18      1 ;     H4 - H6    
    16     19      1 ;     H4 - H7    
    16     20      1 ;     H4 - H8    
    17     18      1 ;     H5 - H6    
    17     19      1 ;     H5 - H7    
    17     20      1 ;     H5 - H8    

[ angles ]
;   ai     aj     ak    funct   theta         cth
     1      4      2      1    1.1263e+02    5.0099e+02 ;     C1 - C4     - C2    
     1      4     12      1    1.0762e+02    6.4802e+02 ;     C1 - C4     - O6    
     1      4     20      1    1.0959e+02    3.6217e+02 ;     C1 - C4     - H8    
     2      3     11      1    1.0762e+02    6.4802e+02 ;     C2 - C3     - O5    
     2      3     18      1    1.0959e+02    3.6217e+02 ;     C2 - C3     - H6    
     2      3     19      1    1.0959e+02    3.6217e+02 ;     C2 - C3     - H7    
     2      4     12      1    1.0762e+02    6.4802e+02 ;     C2 - C4     - O6    
     2      4     20      1    1.0959e+02    3.6217e+02 ;     C2 - C4     - H8    
     3      2      4      1    1.1263e+02    5.0099e+02 ;     C3 - C2     - C4    
     3      2     16      1    1.0968e+02    3.6208e+02 ;     C3 - C2     - H4    
     3      2     17      1    1.0968e+02    3.6208e+02 ;     C3 - C2     - H5    
     3     11      5      1    1.1387e+02    7.8567e+02 ;     C3 - O5     - N1    
     4      1     13      1    1.0968e+02    3.6208e+02 ;     C4 - C1     - H1    
     4      1     14      1    1.0968e+02    3.6208e+02 ;     C4 - C1     - H2    
     4      1     15      1    1.0968e+02    3.6208e+02 ;     C4 - C1     - H3    
     4      2     16      1    1.0968e+02    3.6208e+02 ;     C4 - C2     - H4    
     4      2     17      1    1.0968e+02    3.6208e+02 ;     C4 - C2     - H5    
     4     12      6      1    1.1387e+02    7.8567e+02 ;     C4 - O6     - N2    
     7      5      9      1    1.2505e+02    1.0964e+03 ;     O1 - N1     - O3    
     7      5     11      1    1.1480e+02    1.0519e+03 ;     O1 - N1     - O5    
     8      6     10      1    1.2505e+02    1.0964e+03 ;     O2 - N2     - O4    
     8      6     12      1    1.1480e+02    1.0519e+03 ;     O2 - N2     - O6    
     9      5     11      1    1.1480e+02    1.0519e+03 ;     O3 - N1     - O5    
    10      6     12      1    1.1480e+02    1.0519e+03 ;     O4 - N2     - O6    
    11      3     18      1    1.1034e+02    4.7028e+02 ;     O5 - C3     - H6    
    11      3     19      1    1.1034e+02    4.7028e+02 ;     O5 - C3     - H7    
    12      4     20      1    1.1034e+02    4.7028e+02 ;     O6 - C4     - H8    
    13      1     14      1    1.0773e+02    2.9957e+02 ;     H1 - C1     - H2    
    13      1     15      1    1.0773e+02    2.9957e+02 ;     H1 - C1     - H3    
    14      1     15      1    1.0773e+02    2.9957e+02 ;     H2 - C1     - H3    
    16      2     17      1    1.0773e+02    2.9957e+02 ;     H4 - C2     - H5    
    18      3     19      1    1.0855e+02    2.9824e+02 ;     H6 - C3     - H7    

[ dihedrals ] ; propers
; for gromacs 4.5 or higher, using funct 9
;    i      j      k      l   func   phase     kd      pn
     1      4      2      3      9     0.00   2.17568   3 ;     C1-    C4-    C2-    C3
     1      4      2     16      9     0.00   0.54392   3 ;     C1-    C4-    C2-    H4
     1      4      2     17      9     0.00   0.54392   3 ;     C1-    C4-    C2-    H5
     1      4     12      6      9     0.00   1.60387   3 ;     C1-    C4-    O6-    N2
     2      3     11      5      9     0.00   1.60387   3 ;     C2-    C3-    O5-    N1
     2      4     12      6      9     0.00   1.60387   3 ;     C2-    C4-    O6-    N2
     3      2      4     12      9     0.00   0.65084   3 ;     C3-    C2-    C4-    O6
     3      2      4     20      9     0.00   0.65084   3 ;     C3-    C2-    C4-    H8
     3     11      5      7      9   180.00  10.60644   2 ;     C3-    O5-    N1-    O1
     3     11      5      9      9   180.00  10.60644   2 ;     C3-    O5-    N1-    O3
     4      2      3     11      9     0.00   0.65084   3 ;     C4-    C2-    C3-    O5
     4      2      3     18      9     0.00   0.65084   3 ;     C4-    C2-    C3-    H6
     4      2      3     19      9     0.00   0.65084   3 ;     C4-    C2-    C3-    H7
     4     12      6      8      9   180.00  10.60644   2 ;     C4-    O6-    N2-    O2
     4     12      6     10      9   180.00  10.60644   2 ;     C4-    O6-    N2-    O4
     5     11      3     18      9     0.00   1.60387   3 ;     N1-    O5-    C3-    H6
     5     11      3     19      9     0.00   1.60387   3 ;     N1-    O5-    C3-    H7
     6     12      4     20      9     0.00   1.60387   3 ;     N2-    O6-    C4-    H8
    11      3      2     16      9     0.00   0.00000   0 ;     O5-    C3-    C2-    H4
    11      3      2     16      9     0.00   1.04600   1 ;     O5-    C3-    C2-    H4
    11      3      2     17      9     0.00   0.00000   0 ;     O5-    C3-    C2-    H5
    11      3      2     17      9     0.00   1.04600   1 ;     O5-    C3-    C2-    H5
    12      4      2     16      9     0.00   0.00000   0 ;     O6-    C4-    C2-    H4
    12      4      2     16      9     0.00   1.04600   1 ;     O6-    C4-    C2-    H4
    12      4      2     17      9     0.00   0.00000   0 ;     O6-    C4-    C2-    H5
    12      4      2     17      9     0.00   1.04600   1 ;     O6-    C4-    C2-    H5
    13      1      4      2      9     0.00   0.54392   3 ;     H1-    C1-    C4-    C2
    13      1      4     12      9     0.00   0.00000   0 ;     H1-    C1-    C4-    O6
    13      1      4     12      9     0.00   1.04600   1 ;     H1-    C1-    C4-    O6
    13      1      4     20      9     0.00   0.65084   3 ;     H1-    C1-    C4-    H8
    14      1      4      2      9     0.00   0.54392   3 ;     H2-    C1-    C4-    C2
    14      1      4     12      9     0.00   0.00000   0 ;     H2-    C1-    C4-    O6
    14      1      4     12      9     0.00   1.04600   1 ;     H2-    C1-    C4-    O6
    14      1      4     20      9     0.00   0.65084   3 ;     H2-    C1-    C4-    H8
    15      1      4      2      9     0.00   0.54392   3 ;     H3-    C1-    C4-    C2
    15      1      4     12      9     0.00   0.00000   0 ;     H3-    C1-    C4-    O6
    15      1      4     12      9     0.00   1.04600   1 ;     H3-    C1-    C4-    O6
    15      1      4     20      9     0.00   0.65084   3 ;     H3-    C1-    C4-    H8
    16      2      3     18      9     0.00   0.65084   3 ;     H4-    C2-    C3-    H6
    16      2      3     19      9     0.00   0.65084   3 ;     H4-    C2-    C3-    H7
    16      2      4     20      9     0.00   0.65084   3 ;     H4-    C2-    C4-    H8
    17      2      3     18      9     0.00   0.65084   3 ;     H5-    C2-    C3-    H6
    17      2      3     19      9     0.00   0.65084   3 ;     H5-    C2-    C3-    H7
    17      2      4     20      9     0.00   0.65084   3 ;     H5-    C2-    C4-    H8

[ dihedrals ] ; impropers
; treated as propers in GROMACS to use correct AMBER analytical function
;    i      j      k      l   func   phase     kd      pn
     7      9      5     11      4   180.00   4.60240   2 ;     O1-    O3-    N1-    O5
     8     10      6     12      4   180.00   4.60240   2 ;     O2-    O4-    N2-    O6
