; mobley_1821184_GMX.itp created by acpype (v: 2023.10.27) on Thu May 21 00:06:16 2026

[ atomtypes ]
;name   bond_type     mass     charge   ptype   sigma         epsilon       Amb
 ca       ca          0.00000  0.00000   A     3.31521e-01   4.13379e-01 ; 1.86  0.0988
 cc       cc          0.00000  0.00000   A     3.31521e-01   4.13379e-01 ; 1.86  0.0988
 cd       cd          0.00000  0.00000   A     3.31521e-01   4.13379e-01 ; 1.86  0.0988
 c3       c3          0.00000  0.00000   A     3.39771e-01   4.51035e-01 ; 1.91  0.1078
 na       na          0.00000  0.00000   A     3.20581e-01   8.54373e-01 ; 1.80  0.2042
 ha       ha          0.00000  0.00000   A     2.62548e-01   6.73624e-02 ; 1.47  0.0161
 h4       h4          0.00000  0.00000   A     2.53639e-01   6.73624e-02 ; 1.42  0.0161
 hc       hc          0.00000  0.00000   A     2.60018e-01   8.70272e-02 ; 1.46  0.0208
 hn       hn          0.00000  0.00000   A     1.10650e-01   4.18400e-02 ; 0.62  0.0100

[ moleculetype ]
;name            nrexcl
 mobley_1821184   3

[ atoms ]
;   nr  type  resi  res  atom  cgnr     charge      mass       ; qtot   bond_type
     1   ca     1   MOL    C1    1    -0.160000     12.01000 ; qtot -0.160
     2   ca     1   MOL    C2    2    -0.113000     12.01000 ; qtot -0.273
     3   ca     1   MOL    C3    3    -0.081000     12.01000 ; qtot -0.354
     4   ca     1   MOL    C4    4    -0.148000     12.01000 ; qtot -0.502
     5   cc     1   MOL    C5    5    -0.109100     12.01000 ; qtot -0.611
     6   ca     1   MOL    C6    6    -0.091800     12.01000 ; qtot -0.703
     7   cd     1   MOL    C7    7    -0.134400     12.01000 ; qtot -0.837
     8   ca     1   MOL    C8    8    -0.044200     12.01000 ; qtot -0.881
     9   c3     1   MOL    C9    9    -0.022900     12.01000 ; qtot -0.904
    10   na     1   MOL    N1   10    -0.195400     14.01000 ; qtot -1.100
    11   ha     1   MOL    H1   11     0.128000      1.00800 ; qtot -0.972
    12   ha     1   MOL    H2   12     0.128000      1.00800 ; qtot -0.844
    13   ha     1   MOL    H3   13     0.133000      1.00800 ; qtot -0.711
    14   ha     1   MOL    H4   14     0.130000      1.00800 ; qtot -0.581
    15   h4     1   MOL    H5   15     0.164000      1.00800 ; qtot -0.417
    16   hc     1   MOL    H6   16     0.039367      1.00800 ; qtot -0.377
    17   hc     1   MOL    H7   17     0.039367      1.00800 ; qtot -0.338
    18   hc     1   MOL    H8   18     0.039367      1.00800 ; qtot -0.299
    19   hn     1   MOL    H9   19     0.298699      1.00800 ; qtot 0.000

[ bonds ]
;   ai     aj funct   r             k
     1      2   1    1.3986e-01    2.9644e+05 ;     C1 - C2    
     1      3   1    1.3986e-01    2.9644e+05 ;     C1 - C3    
     1     11   1    1.0860e-01    3.0183e+05 ;     C1 - H1    
     2      4   1    1.3986e-01    2.9644e+05 ;     C2 - C4    
     2     12   1    1.0860e-01    3.0183e+05 ;     C2 - H2    
     3      6   1    1.3986e-01    2.9644e+05 ;     C3 - C6    
     3     13   1    1.0860e-01    3.0183e+05 ;     C3 - H3    
     4      8   1    1.3986e-01    2.9644e+05 ;     C4 - C8    
     4     14   1    1.0860e-01    3.0183e+05 ;     C4 - H4    
     5      7   1    1.3730e-01    3.2321e+05 ;     C5 - C7    
     5     10   1    1.3803e-01    2.8075e+05 ;     C5 - N1    
     5     15   1    1.0809e-01    3.0854e+05 ;     C5 - H5    
     6      7   1    1.4610e-01    2.4166e+05 ;     C6 - C7    
     6      8   1    1.3986e-01    2.9644e+05 ;     C6 - C8    
     7      9   1    1.5018e-01    2.1244e+05 ;     C7 - C9    
     8     10   1    1.3858e-01    2.7557e+05 ;     C8 - N1    
     9     16   1    1.0962e-01    2.8891e+05 ;     C9 - H6    
     9     17   1    1.0962e-01    2.8891e+05 ;     C9 - H7    
     9     18   1    1.0962e-01    2.8891e+05 ;     C9 - H8    
    10     19   1    1.0095e-01    4.0315e+05 ;     N1 - H9    

[ pairs ]
;   ai     aj    funct
     1      7      1 ;     C1 - C7    
     1      8      1 ;     C1 - C8    
     1     14      1 ;     C1 - H4    
     2      6      1 ;     C2 - C6    
     2     10      1 ;     C2 - N1    
     2     13      1 ;     C2 - H3    
     3      4      1 ;     C3 - C4    
     3      5      1 ;     C3 - C5    
     3      9      1 ;     C3 - C9    
     3     10      1 ;     C3 - N1    
     3     12      1 ;     C3 - H2    
     4      5      1 ;     C4 - C5    
     4      7      1 ;     C4 - C7    
     4     19      1 ;     C4 - H9    
     5     16      1 ;     C5 - H6    
     5     17      1 ;     C5 - H7    
     5     18      1 ;     C5 - H8    
     6     14      1 ;     C6 - H4    
     6     15      1 ;     C6 - H5    
     6     16      1 ;     C6 - H6    
     6     17      1 ;     C6 - H7    
     6     18      1 ;     C6 - H8    
     6     19      1 ;     C6 - H9    
     7     13      1 ;     C7 - H3    
     7     19      1 ;     C7 - H9    
     8      9      1 ;     C8 - C9    
     8     12      1 ;     C8 - H2    
     8     13      1 ;     C8 - H3    
     8     15      1 ;     C8 - H5    
     9     10      1 ;     C9 - N1    
     9     15      1 ;     C9 - H5    
    10     14      1 ;     N1 - H4    
    11      4      1 ;     H1 - C4    
    11      6      1 ;     H1 - C6    
    11     12      1 ;     H1 - H2    
    11     13      1 ;     H1 - H3    
    12     14      1 ;     H2 - H4    
    15     19      1 ;     H5 - H9    

[ angles ]
;   ai     aj     ak    funct   theta         cth
     1      2      4      1    1.2002e+02    5.3279e+02 ;     C1 - C2     - C4    
     1      2     12      1    1.1988e+02    3.7572e+02 ;     C1 - C2     - H2    
     1      3      6      1    1.2002e+02    5.3279e+02 ;     C1 - C3     - C6    
     1      3     13      1    1.1988e+02    3.7572e+02 ;     C1 - C3     - H3    
     2      1      3      1    1.2002e+02    5.3279e+02 ;     C2 - C1     - C3    
     2      1     11      1    1.1988e+02    3.7572e+02 ;     C2 - C1     - H1    
     2      4      8      1    1.2002e+02    5.3279e+02 ;     C2 - C4     - C8    
     2      4     14      1    1.1988e+02    3.7572e+02 ;     C2 - C4     - H4    
     3      1     11      1    1.1988e+02    3.7572e+02 ;     C3 - C1     - H1    
     3      6      7      1    1.2083e+02    5.1898e+02 ;     C3 - C6     - C7    
     3      6      8      1    1.2002e+02    5.3279e+02 ;     C3 - C6     - C8    
     4      2     12      1    1.1988e+02    3.7572e+02 ;     C4 - C2     - H2    
     4      8      6      1    1.2002e+02    5.3279e+02 ;     C4 - C8     - C6    
     4      8     10      1    1.2031e+02    5.6752e+02 ;     C4 - C8     - N1    
     5      7      6      1    1.2429e+02    5.1580e+02 ;     C5 - C7     - C6    
     5      7      9      1    1.2668e+02    5.0258e+02 ;     C5 - C7     - C9    
     5     10      8      1    1.1732e+02    6.7354e+02 ;     C5 - N1     - C8    
     5     10     19      1    1.2567e+02    4.6384e+02 ;     C5 - N1     - H9    
     6      3     13      1    1.1988e+02    3.7572e+02 ;     C6 - C3     - H3    
     6      7      9      1    1.2613e+02    4.9053e+02 ;     C6 - C7     - C9    
     6      8     10      1    1.2031e+02    5.6752e+02 ;     C6 - C8     - N1    
     7      5     10      1    1.0675e+02    6.0927e+02 ;     C7 - C5     - N1    
     7      5     15      1    1.2911e+02    3.6777e+02 ;     C7 - C5     - H5    
     7      6      8      1    1.2083e+02    5.1898e+02 ;     C7 - C6     - C8    
     7      9     16      1    1.1062e+02    3.6777e+02 ;     C7 - C9     - H6    
     7      9     17      1    1.1062e+02    3.6777e+02 ;     C7 - C9     - H7    
     7      9     18      1    1.1062e+02    3.6777e+02 ;     C7 - C9     - H8    
     8      4     14      1    1.1988e+02    3.7572e+02 ;     C8 - C4     - H4    
     8     10     19      1    1.2551e+02    4.6250e+02 ;     C8 - N1     - H9    
    10      5     15      1    1.2101e+02    4.0158e+02 ;     N1 - C5     - H5    
    16      9     17      1    1.0773e+02    2.9957e+02 ;     H6 - C9     - H7    
    16      9     18      1    1.0773e+02    2.9957e+02 ;     H6 - C9     - H8    
    17      9     18      1    1.0773e+02    2.9957e+02 ;     H7 - C9     - H8    

[ dihedrals ] ; propers
; for gromacs 4.5 or higher, using funct 9
;    i      j      k      l   func   phase     kd      pn
     1      2      4      8      9   180.00  15.16700   2 ;     C1-    C2-    C4-    C8
     1      2      4     14      9   180.00  15.16700   2 ;     C1-    C2-    C4-    H4
     1      3      6      7      9   180.00  15.16700   2 ;     C1-    C3-    C6-    C7
     1      3      6      8      9   180.00  15.16700   2 ;     C1-    C3-    C6-    C8
     2      1      3      6      9   180.00  15.16700   2 ;     C2-    C1-    C3-    C6
     2      1      3     13      9   180.00  15.16700   2 ;     C2-    C1-    C3-    H3
     2      4      8      6      9   180.00  15.16700   2 ;     C2-    C4-    C8-    C6
     2      4      8     10      9   180.00  15.16700   2 ;     C2-    C4-    C8-    N1
     3      1      2      4      9   180.00  15.16700   2 ;     C3-    C1-    C2-    C4
     3      1      2     12      9   180.00  15.16700   2 ;     C3-    C1-    C2-    H2
     3      6      7      5      9   180.00  15.77368   2 ;     C3-    C6-    C7-    C5
     3      6      7      9      9   180.00   2.51040   2 ;     C3-    C6-    C7-    C9
     3      6      8      4      9   180.00  15.16700   2 ;     C3-    C6-    C8-    C4
     3      6      8     10      9   180.00  15.16700   2 ;     C3-    C6-    C8-    N1
     4      8      6      7      9   180.00  15.16700   2 ;     C4-    C8-    C6-    C7
     4      8     10      5      9   180.00   2.56479   2 ;     C4-    C8-    N1-    C5
     4      8     10     19      9   180.00   1.25520   2 ;     C4-    C8-    N1-    H9
     5      7      6      8      9   180.00  15.77368   2 ;     C5-    C7-    C6-    C8
     5      7      9     16      9     0.00   0.00000   0 ;     C5-    C7-    C9-    H6
     5      7      9     17      9     0.00   0.00000   0 ;     C5-    C7-    C9-    H7
     5      7      9     18      9     0.00   0.00000   0 ;     C5-    C7-    C9-    H8
     5     10      8      6      9   180.00   2.56479   2 ;     C5-    N1-    C8-    C6
     6      7      5     10      9   180.00  16.73600   2 ;     C6-    C7-    C5-    N1
     6      7      5     15      9   180.00  16.73600   2 ;     C6-    C7-    C5-    H5
     6      7      9     16      9     0.00   0.00000   0 ;     C6-    C7-    C9-    H6
     6      7      9     17      9     0.00   0.00000   0 ;     C6-    C7-    C9-    H7
     6      7      9     18      9     0.00   0.00000   0 ;     C6-    C7-    C9-    H8
     6      8      4     14      9   180.00  15.16700   2 ;     C6-    C8-    C4-    H4
     6      8     10     19      9   180.00   1.25520   2 ;     C6-    C8-    N1-    H9
     7      5     10      8      9   180.00   7.11280   2 ;     C7-    C5-    N1-    C8
     7      5     10     19      9   180.00   7.11280   2 ;     C7-    C5-    N1-    H9
     7      6      3     13      9   180.00  15.16700   2 ;     C7-    C6-    C3-    H3
     7      6      8     10      9   180.00  15.16700   2 ;     C7-    C6-    C8-    N1
     8      4      2     12      9   180.00  15.16700   2 ;     C8-    C4-    C2-    H2
     8      6      3     13      9   180.00  15.16700   2 ;     C8-    C6-    C3-    H3
     8      6      7      9      9   180.00   2.51040   2 ;     C8-    C6-    C7-    C9
     8     10      5     15      9   180.00   7.11280   2 ;     C8-    N1-    C5-    H5
     9      7      5     10      9   180.00  16.73600   2 ;     C9-    C7-    C5-    N1
     9      7      5     15      9   180.00  16.73600   2 ;     C9-    C7-    C5-    H5
    10      8      4     14      9   180.00  15.16700   2 ;     N1-    C8-    C4-    H4
    11      1      2      4      9   180.00  15.16700   2 ;     H1-    C1-    C2-    C4
    11      1      2     12      9   180.00  15.16700   2 ;     H1-    C1-    C2-    H2
    11      1      3      6      9   180.00  15.16700   2 ;     H1-    C1-    C3-    C6
    11      1      3     13      9   180.00  15.16700   2 ;     H1-    C1-    C3-    H3
    12      2      4     14      9   180.00  15.16700   2 ;     H2-    C2-    C4-    H4
    15      5     10     19      9   180.00   7.11280   2 ;     H5-    C5-    N1-    H9

[ dihedrals ] ; impropers
; treated as propers in GROMACS to use correct AMBER analytical function
;    i      j      k      l   func   phase     kd      pn
     1      4      2     12      4   180.00   4.60240   2 ;     C1-    C4-    C2-    H2
     1      6      3     13      4   180.00   4.60240   2 ;     C1-    C6-    C3-    H3
     2      8      4     14      4   180.00   4.60240   2 ;     C2-    C8-    C4-    H4
     3      8      6      7      4   180.00   4.60240   2 ;     C3-    C8-    C6-    C7
     4      6      8     10      4   180.00   4.60240   2 ;     C4-    C6-    C8-    N1
     7     15      5     10      4   180.00   4.60240   2 ;     C7-    H5-    C5-    N1
     8      5     10     19      4   180.00   4.60240   2 ;     C8-    C5-    N1-    H9
     9      6      7      5      4   180.00   4.60240   2 ;     C9-    C6-    C7-    C5
    11      1      3      2      4   180.00   4.60240   2 ;     H1-    C1-    C3-    C2
