; mobley_9557440_GMX.itp created by acpype (v: 2023.10.27) on Thu May 21 00:09:54 2026

[ atomtypes ]
;name   bond_type     mass     charge   ptype   sigma         epsilon       Amb
 cc       cc          0.00000  0.00000   A     3.31521e-01   4.13379e-01 ; 1.86  0.0988
 cd       cd          0.00000  0.00000   A     3.31521e-01   4.13379e-01 ; 1.86  0.0988
 c        c           0.00000  0.00000   A     3.31521e-01   4.13379e-01 ; 1.86  0.0988
 ns       ns          0.00000  0.00000   A     3.26995e-01   4.91202e-01 ; 1.84  0.1174
 o        o           0.00000  0.00000   A     3.04812e-01   6.12119e-01 ; 1.71  0.1463
 cl       cl          0.00000  0.00000   A     3.46595e-01   1.10374e+00 ; 1.95  0.2638
 h4       h4          0.00000  0.00000   A     2.53639e-01   6.73624e-02 ; 1.42  0.0161
 hn       hn          0.00000  0.00000   A     1.10650e-01   4.18400e-02 ; 0.62  0.0100

[ moleculetype ]
;name            nrexcl
 mobley_9557440   3

[ atoms ]
;   nr  type  resi  res  atom  cgnr     charge      mass       ; qtot   bond_type
     1   cc     1   MOL    C1    1     0.051600     12.01000 ; qtot 0.052
     2   cd     1   MOL    C2    2    -0.179800     12.01000 ; qtot -0.128
     3    c     1   MOL    C3    3     0.723700     12.01000 ; qtot 0.595
     4    c     1   MOL    C4    4     0.803500     12.01000 ; qtot 1.399
     5   ns     1   MOL    N1    5    -0.466100     14.01000 ; qtot 0.933
     6   ns     1   MOL    N2    6    -0.583500     14.01000 ; qtot 0.349
     7    o     1   MOL    O1    7    -0.581500     16.00000 ; qtot -0.232
     8    o     1   MOL    O2    8    -0.628500     16.00000 ; qtot -0.861
     9   cl     1   MOL   CL1    9    -0.032400     35.45000 ; qtot -0.893
    10   h4     1   MOL    H1   10     0.175000      1.00800 ; qtot -0.718
    11   hn     1   MOL    H2   11     0.359500      1.00800 ; qtot -0.359
    12   hn     1   MOL    H3   12     0.358500      1.00800 ; qtot -0.000

[ bonds ]
;   ai     aj funct   r             k
     1      2   1    1.3730e-01    3.2321e+05 ;     C1 - C2    
     1      5   1    1.3804e-01    2.8065e+05 ;     C1 - N1    
     1     10   1    1.0809e-01    3.0854e+05 ;     C1 - H1    
     2      3   1    1.4728e-01    2.3273e+05 ;     C2 - C3    
     2      9   1    1.7333e-01    1.6771e+05 ;     C2 - CL1   
     3      6   1    1.3798e-01    2.8122e+05 ;     C3 - N2    
     3      7   1    1.2190e-01    4.9421e+05 ;     C3 - O1    
     4      5   1    1.3798e-01    2.8122e+05 ;     C4 - N1    
     4      6   1    1.3798e-01    2.8122e+05 ;     C4 - N2    
     4      8   1    1.2190e-01    4.9421e+05 ;     C4 - O2    
     5     11   1    1.0132e-01    3.9630e+05 ;     N1 - H2    
     6     12   1    1.0132e-01    3.9630e+05 ;     N2 - H3    

[ pairs ]
;   ai     aj    funct
     1      6      1 ;     C1 - N2    
     1      7      1 ;     C1 - O1    
     1      8      1 ;     C1 - O2    
     2      4      1 ;     C2 - C4    
     2     11      1 ;     C2 - H2    
     2     12      1 ;     C2 - H3    
     3      8      1 ;     C3 - O2    
     4      7      1 ;     C4 - O1    
     5      3      1 ;     N1 - C3    
     5      9      1 ;     N1 - CL1   
     5     12      1 ;     N1 - H3    
     6      9      1 ;     N2 - CL1   
     6     11      1 ;     N2 - H2    
     7      9      1 ;     O1 - CL1   
     7     12      1 ;     O1 - H3    
     8     11      1 ;     O2 - H2    
     8     12      1 ;     O2 - H3    
    10      3      1 ;     H1 - C3    
    10      4      1 ;     H1 - C4    
    10      9      1 ;     H1 - CL1   
    10     11      1 ;     H1 - H2    

[ angles ]
;   ai     aj     ak    funct   theta         cth
     1      2      3      1    1.2132e+02    5.1965e+02 ;     C1 - C2     - C3    
     1      2      9      1    1.2336e+02    5.3513e+02 ;     C1 - C2     - CL1   
     1      5      4      1    1.2518e+02    6.5346e+02 ;     C1 - N1     - C4    
     1      5     11      1    1.1891e+02    4.7656e+02 ;     C1 - N1     - H2    
     2      1      5      1    1.2145e+02    5.7120e+02 ;     C2 - C1     - N1    
     2      1     10      1    1.2911e+02    3.6777e+02 ;     C2 - C1     - H1    
     2      3      6      1    1.1220e+02    5.7245e+02 ;     C2 - C3     - N2    
     2      3      7      1    1.2371e+02    6.5530e+02 ;     C2 - C3     - O1    
     3      2      9      1    1.1644e+02    5.4099e+02 ;     C3 - C2     - CL1   
     3      6      4      1    1.2805e+02    6.4618e+02 ;     C3 - N2     - C4    
     3      6     12      1    1.1726e+02    4.8007e+02 ;     C3 - N2     - H3    
     4      5     11      1    1.1726e+02    4.8007e+02 ;     C4 - N1     - H2    
     4      6     12      1    1.1726e+02    4.8007e+02 ;     C4 - N2     - H3    
     5      1     10      1    1.1582e+02    4.1045e+02 ;     N1 - C1     - H1    
     5      4      6      1    1.1289e+02    6.2752e+02 ;     N1 - C4     - N2    
     5      4      8      1    1.2305e+02    7.2977e+02 ;     N1 - C4     - O2    
     6      3      7      1    1.2305e+02    7.2977e+02 ;     N2 - C3     - O1    
     6      4      8      1    1.2305e+02    7.2977e+02 ;     N2 - C4     - O2    

[ dihedrals ] ; propers
; for gromacs 4.5 or higher, using funct 9
;    i      j      k      l   func   phase     kd      pn
     1      2      3      6      9   180.00  12.02900   2 ;     C1-    C2-    C3-    N2
     1      2      3      7      9   180.00  12.02900   2 ;     C1-    C2-    C3-    O1
     1      5      4      6      9   180.00  10.46000   2 ;     C1-    N1-    C4-    N2
     1      5      4      8      9   180.00  10.46000   2 ;     C1-    N1-    C4-    O2
     2      1      5      4      9   180.00   6.90360   2 ;     C2-    C1-    N1-    C4
     2      1      5     11      9   180.00   6.90360   2 ;     C2-    C1-    N1-    H2
     2      3      6      4      9   180.00  10.46000   2 ;     C2-    C3-    N2-    C4
     2      3      6     12      9   180.00  10.46000   2 ;     C2-    C3-    N2-    H3
     3      6      4      5      9   180.00  10.46000   2 ;     C3-    N2-    C4-    N1
     3      6      4      8      9   180.00  10.46000   2 ;     C3-    N2-    C4-    O2
     4      6      3      7      9   180.00  10.46000   2 ;     C4-    N2-    C3-    O1
     5      1      2      3      9   180.00  16.73600   2 ;     N1-    C1-    C2-    C3
     5      1      2      9      9   180.00  16.73600   2 ;     N1-    C1-    C2-   CL1
     5      4      6     12      9   180.00  10.46000   2 ;     N1-    C4-    N2-    H3
     6      3      2      9      9   180.00  12.02900   2 ;     N2-    C3-    C2-   CL1
     6      4      5     11      9   180.00  10.46000   2 ;     N2-    C4-    N1-    H2
     7      3      2      9      9   180.00  12.02900   2 ;     O1-    C3-    C2-   CL1
     7      3      6     12      9     0.00   8.36800   1 ;     O1-    C3-    N2-    H3
     7      3      6     12      9   180.00  10.46000   2 ;     O1-    C3-    N2-    H3
     8      4      5     11      9     0.00   8.36800   1 ;     O2-    C4-    N1-    H2
     8      4      5     11      9   180.00  10.46000   2 ;     O2-    C4-    N1-    H2
     8      4      6     12      9     0.00   8.36800   1 ;     O2-    C4-    N2-    H3
     8      4      6     12      9   180.00  10.46000   2 ;     O2-    C4-    N2-    H3
    10      1      2      3      9   180.00  16.73600   2 ;     H1-    C1-    C2-    C3
    10      1      2      9      9   180.00  16.73600   2 ;     H1-    C1-    C2-   CL1
    10      1      5      4      9   180.00   6.90360   2 ;     H1-    C1-    N1-    C4
    10      1      5     11      9   180.00   6.90360   2 ;     H1-    C1-    N1-    H2

[ dihedrals ] ; impropers
; treated as propers in GROMACS to use correct AMBER analytical function
;    i      j      k      l   func   phase     kd      pn
     2      6      3      7      4   180.00  43.93200   2 ;     C2-    N2-    C3-    O1
     3      1      2      9      4   180.00   4.60240   2 ;     C3-    C1-    C2-   CL1
     3      4      6     12      4   180.00   4.60240   2 ;     C3-    C4-    N2-    H3
     4      1      5     11      4   180.00   4.60240   2 ;     C4-    C1-    N1-    H2
     5      1     10      2      4   180.00   4.60240   2 ;     N1-    C1-    H1-    C2
     5      6      4      8      4   180.00  43.93200   2 ;     N1-    N2-    C4-    O2
