; mobley_5538249_GMX.itp created by acpype (v: 2023.10.27) on Thu May 21 00:14:03 2026

[ atomtypes ]
;name   bond_type     mass     charge   ptype   sigma         epsilon       Amb
 ca       ca          0.00000  0.00000   A     3.31521e-01   4.13379e-01 ; 1.86  0.0988
 cp       cp          0.00000  0.00000   A     3.31521e-01   4.13379e-01 ; 1.86  0.0988
 cl       cl          0.00000  0.00000   A     3.46595e-01   1.10374e+00 ; 1.95  0.2638
 ha       ha          0.00000  0.00000   A     2.62548e-01   6.73624e-02 ; 1.47  0.0161

[ moleculetype ]
;name            nrexcl
 mobley_5538249   3

[ atoms ]
;   nr  type  resi  res  atom  cgnr     charge      mass       ; qtot   bond_type
     1   ca     1   MOL    C1    1    -0.119000     12.01000 ; qtot -0.119
     2   ca     1   MOL    C2    2    -0.132000     12.01000 ; qtot -0.251
     3   ca     1   MOL    C3    3    -0.132000     12.01000 ; qtot -0.383
     4   ca     1   MOL    C4    4    -0.100000     12.01000 ; qtot -0.483
     5   ca     1   MOL    C5    5    -0.100000     12.01000 ; qtot -0.583
     6   ca     1   MOL    C6    6    -0.126000     12.01000 ; qtot -0.709
     7   ca     1   MOL    C7    7    -0.126000     12.01000 ; qtot -0.835
     8   cp     1   MOL    C8    8    -0.054000     12.01000 ; qtot -0.889
     9   cp     1   MOL    C9    9    -0.024000     12.01000 ; qtot -0.913
    10   ca     1   MOL   C10   10     0.031400     12.01000 ; qtot -0.882
    11   ca     1   MOL   C11   11     0.041400     12.01000 ; qtot -0.840
    12   ca     1   MOL   C12   12     0.041400     12.01000 ; qtot -0.799
    13   cl     1   MOL   CL1   13    -0.075400     35.45000 ; qtot -0.874
    14   cl     1   MOL   CL2   14    -0.067400     35.45000 ; qtot -0.942
    15   cl     1   MOL   CL3   15    -0.067400     35.45000 ; qtot -1.009
    16   ha     1   MOL    H1   16     0.133000      1.00800 ; qtot -0.876
    17   ha     1   MOL    H2   17     0.134000      1.00800 ; qtot -0.742
    18   ha     1   MOL    H3   18     0.134000      1.00800 ; qtot -0.608
    19   ha     1   MOL    H4   19     0.138000      1.00800 ; qtot -0.470
    20   ha     1   MOL    H5   20     0.138000      1.00800 ; qtot -0.332
    21   ha     1   MOL    H6   21     0.166000      1.00800 ; qtot -0.166
    22   ha     1   MOL    H7   22     0.166000      1.00800 ; qtot -0.000

[ bonds ]
;   ai     aj funct   r             k
     1      2   1    1.3986e-01    2.9644e+05 ;     C1 - C2    
     1      3   1    1.3986e-01    2.9644e+05 ;     C1 - C3    
     1     16   1    1.0860e-01    3.0183e+05 ;     C1 - H1    
     2      4   1    1.3986e-01    2.9644e+05 ;     C2 - C4    
     2     17   1    1.0860e-01    3.0183e+05 ;     C2 - H2    
     3      5   1    1.3986e-01    2.9644e+05 ;     C3 - C5    
     3     18   1    1.0860e-01    3.0183e+05 ;     C3 - H3    
     4      8   1    1.4056e-01    2.8959e+05 ;     C4 - C8    
     4     19   1    1.0860e-01    3.0183e+05 ;     C4 - H4    
     5      8   1    1.4056e-01    2.8959e+05 ;     C5 - C8    
     5     20   1    1.0860e-01    3.0183e+05 ;     C5 - H5    
     6     10   1    1.3986e-01    2.9644e+05 ;     C6 - C10   
     6     11   1    1.3986e-01    2.9644e+05 ;     C6 - C11   
     6     21   1    1.0860e-01    3.0183e+05 ;     C6 - H6    
     7     10   1    1.3986e-01    2.9644e+05 ;     C7 - C10   
     7     12   1    1.3986e-01    2.9644e+05 ;     C7 - C12   
     7     22   1    1.0860e-01    3.0183e+05 ;     C7 - H7    
     8      9   1    1.4829e-01    2.2541e+05 ;     C8 - C9    
     9     11   1    1.4056e-01    2.8959e+05 ;     C9 - C11   
     9     12   1    1.4056e-01    2.8959e+05 ;     C9 - C12   
    10     13   1    1.7572e-01    1.5730e+05 ;    C10 - CL1   
    11     14   1    1.7572e-01    1.5730e+05 ;    C11 - CL2   
    12     15   1    1.7572e-01    1.5730e+05 ;    C12 - CL3   

[ pairs ]
;   ai     aj    funct
     1      8      1 ;     C1 - C8    
     1     19      1 ;     C1 - H4    
     1     20      1 ;     C1 - H5    
     2      5      1 ;     C2 - C5    
     2      9      1 ;     C2 - C9    
     2     18      1 ;     C2 - H3    
     3      4      1 ;     C3 - C4    
     3      9      1 ;     C3 - C9    
     3     17      1 ;     C3 - H2    
     4     11      1 ;     C4 - C11   
     4     12      1 ;     C4 - C12   
     4     20      1 ;     C4 - H5    
     5     11      1 ;     C5 - C11   
     5     12      1 ;     C5 - C12   
     5     19      1 ;     C5 - H4    
     6      8      1 ;     C6 - C8    
     6     12      1 ;     C6 - C12   
     6     22      1 ;     C6 - H7    
     7      8      1 ;     C7 - C8    
     7     11      1 ;     C7 - C11   
     7     21      1 ;     C7 - H6    
     8     14      1 ;     C8 - CL2   
     8     15      1 ;     C8 - CL3   
     8     17      1 ;     C8 - H2    
     8     18      1 ;     C8 - H3    
     9     10      1 ;     C9 - C10   
     9     19      1 ;     C9 - H4    
     9     20      1 ;     C9 - H5    
     9     21      1 ;     C9 - H6    
     9     22      1 ;     C9 - H7    
    10     14      1 ;    C10 - CL2   
    10     15      1 ;    C10 - CL3   
    11     13      1 ;    C11 - CL1   
    11     15      1 ;    C11 - CL3   
    12     13      1 ;    C12 - CL1   
    12     14      1 ;    C12 - CL2   
    13     21      1 ;    CL1 - H6    
    13     22      1 ;    CL1 - H7    
    14     21      1 ;    CL2 - H6    
    15     22      1 ;    CL3 - H7    
    16      4      1 ;     H1 - C4    
    16      5      1 ;     H1 - C5    
    16     17      1 ;     H1 - H2    
    16     18      1 ;     H1 - H3    
    17     19      1 ;     H2 - H4    
    18     20      1 ;     H3 - H5    

[ angles ]
;   ai     aj     ak    funct   theta         cth
     1      2      4      1    1.2002e+02    5.3279e+02 ;     C1 - C2     - C4    
     1      2     17      1    1.1988e+02    3.7572e+02 ;     C1 - C2     - H2    
     1      3      5      1    1.2002e+02    5.3279e+02 ;     C1 - C3     - C5    
     1      3     18      1    1.1988e+02    3.7572e+02 ;     C1 - C3     - H3    
     2      1      3      1    1.2002e+02    5.3279e+02 ;     C2 - C1     - C3    
     2      1     16      1    1.1988e+02    3.7572e+02 ;     C2 - C1     - H1    
     2      4      8      1    1.2073e+02    5.2995e+02 ;     C2 - C4     - C8    
     2      4     19      1    1.1988e+02    3.7572e+02 ;     C2 - C4     - H4    
     3      1     16      1    1.1988e+02    3.7572e+02 ;     C3 - C1     - H1    
     3      5      8      1    1.2073e+02    5.2995e+02 ;     C3 - C5     - C8    
     3      5     20      1    1.1988e+02    3.7572e+02 ;     C3 - C5     - H5    
     4      2     17      1    1.1988e+02    3.7572e+02 ;     C4 - C2     - H2    
     4      8      5      1    1.1841e+02    5.3379e+02 ;     C4 - C8     - C5    
     4      8      9      1    1.2110e+02    5.1296e+02 ;     C4 - C8     - C9    
     5      3     18      1    1.1988e+02    3.7572e+02 ;     C5 - C3     - H3    
     5      8      9      1    1.2110e+02    5.1296e+02 ;     C5 - C8     - C9    
     6     10      7      1    1.2002e+02    5.3279e+02 ;     C6 - C10    - C7    
     6     10     13      1    1.1938e+02    5.3605e+02 ;     C6 - C10    - CL1   
     6     11      9      1    1.2073e+02    5.2995e+02 ;     C6 - C11    - C9    
     6     11     14      1    1.1938e+02    5.3605e+02 ;     C6 - C11    - CL2   
     7     10     13      1    1.1938e+02    5.3605e+02 ;     C7 - C10    - CL1   
     7     12      9      1    1.2073e+02    5.2995e+02 ;     C7 - C12    - C9    
     7     12     15      1    1.1938e+02    5.3605e+02 ;     C7 - C12    - CL3   
     8      4     19      1    1.1982e+02    3.7430e+02 ;     C8 - C4     - H4    
     8      5     20      1    1.1982e+02    3.7430e+02 ;     C8 - C5     - H5    
     8      9     11      1    1.2110e+02    5.1296e+02 ;     C8 - C9     - C11   
     8      9     12      1    1.2110e+02    5.1296e+02 ;     C8 - C9     - C12   
     9     11     14      1    1.2044e+02    5.3304e+02 ;     C9 - C11    - CL2   
     9     12     15      1    1.2044e+02    5.3304e+02 ;     C9 - C12    - CL3   
    10      6     11      1    1.2002e+02    5.3279e+02 ;    C10 - C6     - C11   
    10      6     21      1    1.1988e+02    3.7572e+02 ;    C10 - C6     - H6    
    10      7     12      1    1.2002e+02    5.3279e+02 ;    C10 - C7     - C12   
    10      7     22      1    1.1988e+02    3.7572e+02 ;    C10 - C7     - H7    
    11      6     21      1    1.1988e+02    3.7572e+02 ;    C11 - C6     - H6    
    11      9     12      1    1.1841e+02    5.3379e+02 ;    C11 - C9     - C12   
    12      7     22      1    1.1988e+02    3.7572e+02 ;    C12 - C7     - H7    

[ dihedrals ] ; propers
; for gromacs 4.5 or higher, using funct 9
;    i      j      k      l   func   phase     kd      pn
     1      2      4      8      9   180.00  15.16700   2 ;     C1-    C2-    C4-    C8
     1      2      4     19      9   180.00  15.16700   2 ;     C1-    C2-    C4-    H4
     1      3      5      8      9   180.00  15.16700   2 ;     C1-    C3-    C5-    C8
     1      3      5     20      9   180.00  15.16700   2 ;     C1-    C3-    C5-    H5
     2      1      3      5      9   180.00  15.16700   2 ;     C2-    C1-    C3-    C5
     2      1      3     18      9   180.00  15.16700   2 ;     C2-    C1-    C3-    H3
     2      4      8      5      9   180.00  15.16700   2 ;     C2-    C4-    C8-    C5
     2      4      8      9      9   180.00  15.16700   2 ;     C2-    C4-    C8-    C9
     3      1      2      4      9   180.00  15.16700   2 ;     C3-    C1-    C2-    C4
     3      1      2     17      9   180.00  15.16700   2 ;     C3-    C1-    C2-    H2
     3      5      8      4      9   180.00  15.16700   2 ;     C3-    C5-    C8-    C4
     3      5      8      9      9   180.00  15.16700   2 ;     C3-    C5-    C8-    C9
     4      8      5     20      9   180.00  15.16700   2 ;     C4-    C8-    C5-    H5
     4      8      9     11      9   180.00   3.20076   2 ;     C4-    C8-    C9-   C11
     4      8      9     12      9   180.00   3.20076   2 ;     C4-    C8-    C9-   C12
     5      8      4     19      9   180.00  15.16700   2 ;     C5-    C8-    C4-    H4
     5      8      9     11      9   180.00   3.20076   2 ;     C5-    C8-    C9-   C11
     5      8      9     12      9   180.00   3.20076   2 ;     C5-    C8-    C9-   C12
     6     10      7     12      9   180.00  15.16700   2 ;     C6-   C10-    C7-   C12
     6     10      7     22      9   180.00  15.16700   2 ;     C6-   C10-    C7-    H7
     6     11      9      8      9   180.00  15.16700   2 ;     C6-   C11-    C9-    C8
     6     11      9     12      9   180.00  15.16700   2 ;     C6-   C11-    C9-   C12
     7     10      6     11      9   180.00  15.16700   2 ;     C7-   C10-    C6-   C11
     7     10      6     21      9   180.00  15.16700   2 ;     C7-   C10-    C6-    H6
     7     12      9      8      9   180.00  15.16700   2 ;     C7-   C12-    C9-    C8
     7     12      9     11      9   180.00  15.16700   2 ;     C7-   C12-    C9-   C11
     8      4      2     17      9   180.00  15.16700   2 ;     C8-    C4-    C2-    H2
     8      5      3     18      9   180.00  15.16700   2 ;     C8-    C5-    C3-    H3
     8      9     11     14      9   180.00  15.16700   2 ;     C8-    C9-   C11-   CL2
     8      9     12     15      9   180.00  15.16700   2 ;     C8-    C9-   C12-   CL3
     9      8      4     19      9   180.00  15.16700   2 ;     C9-    C8-    C4-    H4
     9      8      5     20      9   180.00  15.16700   2 ;     C9-    C8-    C5-    H5
     9     11      6     10      9   180.00  15.16700   2 ;     C9-   C11-    C6-   C10
     9     11      6     21      9   180.00  15.16700   2 ;     C9-   C11-    C6-    H6
     9     12      7     10      9   180.00  15.16700   2 ;     C9-   C12-    C7-   C10
     9     12      7     22      9   180.00  15.16700   2 ;     C9-   C12-    C7-    H7
    10      6     11     14      9   180.00  15.16700   2 ;    C10-    C6-   C11-   CL2
    10      7     12     15      9   180.00  15.16700   2 ;    C10-    C7-   C12-   CL3
    11      6     10     13      9   180.00  15.16700   2 ;    C11-    C6-   C10-   CL1
    11      9     12     15      9   180.00  15.16700   2 ;    C11-    C9-   C12-   CL3
    12      7     10     13      9   180.00  15.16700   2 ;    C12-    C7-   C10-   CL1
    12      9     11     14      9   180.00  15.16700   2 ;    C12-    C9-   C11-   CL2
    13     10      6     21      9   180.00  15.16700   2 ;    CL1-   C10-    C6-    H6
    13     10      7     22      9   180.00  15.16700   2 ;    CL1-   C10-    C7-    H7
    14     11      6     21      9   180.00  15.16700   2 ;    CL2-   C11-    C6-    H6
    15     12      7     22      9   180.00  15.16700   2 ;    CL3-   C12-    C7-    H7
    16      1      2      4      9   180.00  15.16700   2 ;     H1-    C1-    C2-    C4
    16      1      2     17      9   180.00  15.16700   2 ;     H1-    C1-    C2-    H2
    16      1      3      5      9   180.00  15.16700   2 ;     H1-    C1-    C3-    C5
    16      1      3     18      9   180.00  15.16700   2 ;     H1-    C1-    C3-    H3
    17      2      4     19      9   180.00  15.16700   2 ;     H2-    C2-    C4-    H4
    18      3      5     20      9   180.00  15.16700   2 ;     H3-    C3-    C5-    H5

[ dihedrals ] ; impropers
; treated as propers in GROMACS to use correct AMBER analytical function
;    i      j      k      l   func   phase     kd      pn
     1      4      2     17      4   180.00   4.60240   2 ;     C1-    C4-    C2-    H2
     1      5      3     18      4   180.00   4.60240   2 ;     C1-    C5-    C3-    H3
     2      8      4     19      4   180.00   4.60240   2 ;     C2-    C8-    C4-    H4
     3      8      5     20      4   180.00   4.60240   2 ;     C3-    C8-    C5-    H5
     4      5      8      9      4   180.00   4.60240   2 ;     C4-    C5-    C8-    C9
     6      7     10     13      4   180.00   4.60240   2 ;     C6-    C7-   C10-   CL1
     6     14     11      9      4   180.00   4.60240   2 ;     C6-   CL2-   C11-    C9
     7     15     12      9      4   180.00   4.60240   2 ;     C7-   CL3-   C12-    C9
    10     11      6     21      4   180.00   4.60240   2 ;    C10-   C11-    C6-    H6
    10     12      7     22      4   180.00   4.60240   2 ;    C10-   C12-    C7-    H7
    11     12      9      8      4   180.00   4.60240   2 ;    C11-   C12-    C9-    C8
    16      1      3      2      4   180.00   4.60240   2 ;     H1-    C1-    C3-    C2
