; mobley_2481002_GMX.itp created by acpype (v: 2023.10.27) on Wed May 20 23:46:02 2026

[ atomtypes ]
;name   bond_type     mass     charge   ptype   sigma         epsilon       Amb
 c3       c3          0.00000  0.00000   A     3.39771e-01   4.51035e-01 ; 1.91  0.1078
 no       no          0.00000  0.00000   A     3.36510e-01   3.58987e-01 ; 1.89  0.0858
 o        o           0.00000  0.00000   A     3.04812e-01   6.12119e-01 ; 1.71  0.1463
 cl       cl          0.00000  0.00000   A     3.46595e-01   1.10374e+00 ; 1.95  0.2638

[ moleculetype ]
;name            nrexcl
 mobley_2481002   3

[ atoms ]
;   nr  type  resi  res  atom  cgnr     charge      mass       ; qtot   bond_type
     1   c3     1   MOL    C1    1     0.182900     12.01000 ; qtot 0.183
     2   no     1   MOL    N1    2     0.232301     14.01000 ; qtot 0.415
     3    o     1   MOL    O1    3    -0.147500     16.00000 ; qtot 0.268
     4    o     1   MOL    O2    4    -0.147500     16.00000 ; qtot 0.120
     5   cl     1   MOL   CL1    5    -0.040067     35.45000 ; qtot 0.080
     6   cl     1   MOL   CL2    6    -0.040067     35.45000 ; qtot 0.040
     7   cl     1   MOL   CL3    7    -0.040067     35.45000 ; qtot -0.000

[ bonds ]
;   ai     aj funct   r             k
     1      2   1    1.5232e-01    1.7705e+05 ;     C1 - N1    
     1      5   1    1.8092e-01    1.3724e+05 ;     C1 - CL1   
     1      6   1    1.8092e-01    1.3724e+05 ;     C1 - CL2   
     1      7   1    1.8092e-01    1.3724e+05 ;     C1 - CL3   
     2      3   1    1.2311e-01    3.0270e+05 ;     N1 - O1    
     2      4   1    1.2311e-01    3.0270e+05 ;     N1 - O2    

[ pairs ]
;   ai     aj    funct
     5      3      1 ;    CL1 - O1    
     5      4      1 ;    CL1 - O2    
     6      3      1 ;    CL2 - O1    
     6      4      1 ;    CL2 - O2    
     7      3      1 ;    CL3 - O1    
     7      4      1 ;    CL3 - O2    

[ angles ]
;   ai     aj     ak    funct   theta         cth
     1      2      3      1    1.1693e+02    8.1027e+02 ;     C1 - N1     - O1    
     1      2      4      1    1.1693e+02    8.1027e+02 ;     C1 - N1     - O2    
     2      1      5      1    1.0619e+02    5.7773e+02 ;     N1 - C1     - CL1   
     2      1      6      1    1.0619e+02    5.7773e+02 ;     N1 - C1     - CL2   
     2      1      7      1    1.0619e+02    5.7773e+02 ;     N1 - C1     - CL3   
     3      2      4      1    1.2505e+02    1.0964e+03 ;     O1 - N1     - O2    
     5      1      6      1    1.0934e+02    5.8225e+02 ;    CL1 - C1     - CL2   
     5      1      7      1    1.0934e+02    5.8225e+02 ;    CL1 - C1     - CL3   
     6      1      7      1    1.0934e+02    5.8225e+02 ;    CL2 - C1     - CL3   

[ dihedrals ] ; propers
; for gromacs 4.5 or higher, using funct 9
;    i      j      k      l   func   phase     kd      pn
     5      1      2      3      9     0.00   0.00000   0 ;    CL1-    C1-    N1-    O1
     5      1      2      4      9     0.00   0.00000   0 ;    CL1-    C1-    N1-    O2
     6      1      2      3      9     0.00   0.00000   0 ;    CL2-    C1-    N1-    O1
     6      1      2      4      9     0.00   0.00000   0 ;    CL2-    C1-    N1-    O2
     7      1      2      3      9     0.00   0.00000   0 ;    CL3-    C1-    N1-    O1
     7      1      2      4      9     0.00   0.00000   0 ;    CL3-    C1-    N1-    O2

[ dihedrals ] ; impropers
; treated as propers in GROMACS to use correct AMBER analytical function
;    i      j      k      l   func   phase     kd      pn
     1      3      2      4      4   180.00   4.60240   2 ;     C1-    O1-    N1-    O2
