; mobley_4188615_GMX.itp created by acpype (v: 2023.10.27) on Wed May 20 23:53:36 2026

[ atomtypes ]
;name   bond_type     mass     charge   ptype   sigma         epsilon       Amb
 ca       ca          0.00000  0.00000   A     3.31521e-01   4.13379e-01 ; 1.86  0.0988
 c        c           0.00000  0.00000   A     3.31521e-01   4.13379e-01 ; 1.86  0.0988
 c3       c3          0.00000  0.00000   A     3.39771e-01   4.51035e-01 ; 1.91  0.1078
 n        n           0.00000  0.00000   A     3.18086e-01   6.84502e-01 ; 1.79  0.1636
 o        o           0.00000  0.00000   A     3.04812e-01   6.12119e-01 ; 1.71  0.1463
 ha       ha          0.00000  0.00000   A     2.62548e-01   6.73624e-02 ; 1.47  0.0161
 h1       h1          0.00000  0.00000   A     2.42200e-01   8.70272e-02 ; 1.36  0.0208

[ moleculetype ]
;name            nrexcl
 mobley_4188615   3

[ atoms ]
;   nr  type  resi  res  atom  cgnr     charge      mass       ; qtot   bond_type
     1   ca     1   MOL    C1    1    -0.115000     12.01000 ; qtot -0.115
     2   ca     1   MOL    C2    2    -0.134500     12.01000 ; qtot -0.249
     3   ca     1   MOL    C3    3    -0.134500     12.01000 ; qtot -0.384
     4   ca     1   MOL    C4    4    -0.098000     12.01000 ; qtot -0.482
     5   ca     1   MOL    C5    5    -0.098000     12.01000 ; qtot -0.580
     6   ca     1   MOL    C6    6    -0.129600     12.01000 ; qtot -0.710
     7    c     1   MOL    C7    7     0.669702     12.01000 ; qtot -0.040
     8   c3     1   MOL    C8    8     0.075300     12.01000 ; qtot 0.035
     9   c3     1   MOL    C9    9     0.075300     12.01000 ; qtot 0.111
    10    n     1   MOL    N1   10    -0.473800     14.01000 ; qtot -0.363
    11    o     1   MOL    O1   11    -0.594100     16.00000 ; qtot -0.957
    12   ha     1   MOL    H1   12     0.135000      1.00800 ; qtot -0.822
    13   ha     1   MOL    H2   13     0.136500      1.00800 ; qtot -0.686
    14   ha     1   MOL    H3   14     0.136500      1.00800 ; qtot -0.549
    15   ha     1   MOL    H4   15     0.144000      1.00800 ; qtot -0.405
    16   ha     1   MOL    H5   16     0.144000      1.00800 ; qtot -0.261
    17   h1     1   MOL    H6   17     0.043533      1.00800 ; qtot -0.218
    18   h1     1   MOL    H7   18     0.043533      1.00800 ; qtot -0.174
    19   h1     1   MOL    H8   19     0.043533      1.00800 ; qtot -0.131
    20   h1     1   MOL    H9   20     0.043533      1.00800 ; qtot -0.087
    21   h1     1   MOL   H10   21     0.043533      1.00800 ; qtot -0.044
    22   h1     1   MOL   H11   22     0.043533      1.00800 ; qtot 0.000

[ bonds ]
;   ai     aj funct   r             k
     1      2   1    1.3986e-01    2.9644e+05 ;     C1 - C2    
     1      3   1    1.3986e-01    2.9644e+05 ;     C1 - C3    
     1     12   1    1.0860e-01    3.0183e+05 ;     C1 - H1    
     2      4   1    1.3986e-01    2.9644e+05 ;     C2 - C4    
     2     13   1    1.0860e-01    3.0183e+05 ;     C2 - H2    
     3      5   1    1.3986e-01    2.9644e+05 ;     C3 - C5    
     3     14   1    1.0860e-01    3.0183e+05 ;     C3 - H3    
     4      6   1    1.3986e-01    2.9644e+05 ;     C4 - C6    
     4     15   1    1.0860e-01    3.0183e+05 ;     C4 - H4    
     5      6   1    1.3986e-01    2.9644e+05 ;     C5 - C6    
     5     16   1    1.0860e-01    3.0183e+05 ;     C5 - H5    
     6      7   1    1.4907e-01    2.1994e+05 ;     C6 - C7    
     7     10   1    1.3967e-01    2.6565e+05 ;     C7 - N1    
     7     11   1    1.2190e-01    4.9421e+05 ;     C7 - O1    
     8     10   1    1.4643e-01    2.1293e+05 ;     C8 - N1    
     8     17   1    1.0969e-01    2.8804e+05 ;     C8 - H6    
     8     18   1    1.0969e-01    2.8804e+05 ;     C8 - H7    
     8     19   1    1.0969e-01    2.8804e+05 ;     C8 - H8    
     9     10   1    1.4643e-01    2.1293e+05 ;     C9 - N1    
     9     20   1    1.0969e-01    2.8804e+05 ;     C9 - H9    
     9     21   1    1.0969e-01    2.8804e+05 ;     C9 - H10   
     9     22   1    1.0969e-01    2.8804e+05 ;     C9 - H11   

[ pairs ]
;   ai     aj    funct
     1      6      1 ;     C1 - C6    
     1     15      1 ;     C1 - H4    
     1     16      1 ;     C1 - H5    
     2      5      1 ;     C2 - C5    
     2      7      1 ;     C2 - C7    
     2     14      1 ;     C2 - H3    
     3      4      1 ;     C3 - C4    
     3      7      1 ;     C3 - C7    
     3     13      1 ;     C3 - H2    
     4     10      1 ;     C4 - N1    
     4     11      1 ;     C4 - O1    
     4     16      1 ;     C4 - H5    
     5     10      1 ;     C5 - N1    
     5     11      1 ;     C5 - O1    
     5     15      1 ;     C5 - H4    
     6      8      1 ;     C6 - C8    
     6      9      1 ;     C6 - C9    
     6     13      1 ;     C6 - H2    
     6     14      1 ;     C6 - H3    
     7     15      1 ;     C7 - H4    
     7     16      1 ;     C7 - H5    
     7     17      1 ;     C7 - H6    
     7     18      1 ;     C7 - H7    
     7     19      1 ;     C7 - H8    
     7     20      1 ;     C7 - H9    
     7     21      1 ;     C7 - H10   
     7     22      1 ;     C7 - H11   
     8     11      1 ;     C8 - O1    
     8     20      1 ;     C8 - H9    
     8     21      1 ;     C8 - H10   
     8     22      1 ;     C8 - H11   
     9     11      1 ;     C9 - O1    
     9     17      1 ;     C9 - H6    
     9     18      1 ;     C9 - H7    
     9     19      1 ;     C9 - H8    
    12      4      1 ;     H1 - C4    
    12      5      1 ;     H1 - C5    
    12     13      1 ;     H1 - H2    
    12     14      1 ;     H1 - H3    
    13     15      1 ;     H2 - H4    
    14     16      1 ;     H3 - H5    

[ angles ]
;   ai     aj     ak    funct   theta         cth
     1      2      4      1    1.2002e+02    5.3279e+02 ;     C1 - C2     - C4    
     1      2     13      1    1.1988e+02    3.7572e+02 ;     C1 - C2     - H2    
     1      3      5      1    1.2002e+02    5.3279e+02 ;     C1 - C3     - C5    
     1      3     14      1    1.1988e+02    3.7572e+02 ;     C1 - C3     - H3    
     2      1      3      1    1.2002e+02    5.3279e+02 ;     C2 - C1     - C3    
     2      1     12      1    1.1988e+02    3.7572e+02 ;     C2 - C1     - H1    
     2      4      6      1    1.2002e+02    5.3279e+02 ;     C2 - C4     - C6    
     2      4     15      1    1.1988e+02    3.7572e+02 ;     C2 - C4     - H4    
     3      1     12      1    1.1988e+02    3.7572e+02 ;     C3 - C1     - H1    
     3      5      6      1    1.2002e+02    5.3279e+02 ;     C3 - C5     - C6    
     3      5     16      1    1.1988e+02    3.7572e+02 ;     C3 - C5     - H5    
     4      2     13      1    1.1988e+02    3.7572e+02 ;     C4 - C2     - H2    
     4      6      5      1    1.2002e+02    5.3279e+02 ;     C4 - C6     - C5    
     4      6      7      1    1.2033e+02    5.1413e+02 ;     C4 - C6     - C7    
     5      3     14      1    1.1988e+02    3.7572e+02 ;     C5 - C3     - H3    
     5      6      7      1    1.2033e+02    5.1413e+02 ;     C5 - C6     - C7    
     6      4     15      1    1.1988e+02    3.7572e+02 ;     C6 - C4     - H4    
     6      5     16      1    1.1988e+02    3.7572e+02 ;     C6 - C5     - H5    
     6      7     10      1    1.1588e+02    5.5647e+02 ;     C6 - C7     - N1    
     6      7     11      1    1.2260e+02    6.5237e+02 ;     C6 - C7     - O1    
     7     10      8      1    1.1883e+02    6.4634e+02 ;     C7 - N1     - C8    
     7     10      9      1    1.1883e+02    6.4634e+02 ;     C7 - N1     - C9    
     8     10      9      1    1.1675e+02    6.3773e+02 ;     C8 - N1     - C9    
    10      7     11      1    1.2257e+02    7.2534e+02 ;     N1 - C7     - O1    
    10      8     17      1    1.0876e+02    4.0242e+02 ;     N1 - C8     - H6    
    10      8     18      1    1.0876e+02    4.0242e+02 ;     N1 - C8     - H7    
    10      8     19      1    1.0876e+02    4.0242e+02 ;     N1 - C8     - H8    
    10      9     20      1    1.0876e+02    4.0242e+02 ;     N1 - C9     - H9    
    10      9     21      1    1.0876e+02    4.0242e+02 ;     N1 - C9     - H10   
    10      9     22      1    1.0876e+02    4.0242e+02 ;     N1 - C9     - H11   
    17      8     18      1    1.0855e+02    2.9824e+02 ;     H6 - C8     - H7    
    17      8     19      1    1.0855e+02    2.9824e+02 ;     H6 - C8     - H8    
    18      8     19      1    1.0855e+02    2.9824e+02 ;     H7 - C8     - H8    
    20      9     21      1    1.0855e+02    2.9824e+02 ;     H9 - C9     - H10   
    20      9     22      1    1.0855e+02    2.9824e+02 ;     H9 - C9     - H11   
    21      9     22      1    1.0855e+02    2.9824e+02 ;    H10 - C9     - H11   

[ dihedrals ] ; propers
; for gromacs 4.5 or higher, using funct 9
;    i      j      k      l   func   phase     kd      pn
     1      2      4      6      9   180.00  15.16700   2 ;     C1-    C2-    C4-    C6
     1      2      4     15      9   180.00  15.16700   2 ;     C1-    C2-    C4-    H4
     1      3      5      6      9   180.00  15.16700   2 ;     C1-    C3-    C5-    C6
     1      3      5     16      9   180.00  15.16700   2 ;     C1-    C3-    C5-    H5
     2      1      3      5      9   180.00  15.16700   2 ;     C2-    C1-    C3-    C5
     2      1      3     14      9   180.00  15.16700   2 ;     C2-    C1-    C3-    H3
     2      4      6      5      9   180.00  15.16700   2 ;     C2-    C4-    C6-    C5
     2      4      6      7      9   180.00  15.16700   2 ;     C2-    C4-    C6-    C7
     3      1      2      4      9   180.00  15.16700   2 ;     C3-    C1-    C2-    C4
     3      1      2     13      9   180.00  15.16700   2 ;     C3-    C1-    C2-    H2
     3      5      6      4      9   180.00  15.16700   2 ;     C3-    C5-    C6-    C4
     3      5      6      7      9   180.00  15.16700   2 ;     C3-    C5-    C6-    C7
     4      6      5     16      9   180.00  15.16700   2 ;     C4-    C6-    C5-    H5
     4      6      7     10      9   180.00   8.88054   2 ;     C4-    C6-    C7-    N1
     4      6      7     11      9   180.00   2.42672   2 ;     C4-    C6-    C7-    O1
     5      6      4     15      9   180.00  15.16700   2 ;     C5-    C6-    C4-    H4
     5      6      7     10      9   180.00   8.88054   2 ;     C5-    C6-    C7-    N1
     5      6      7     11      9   180.00   2.42672   2 ;     C5-    C6-    C7-    O1
     6      4      2     13      9   180.00  15.16700   2 ;     C6-    C4-    C2-    H2
     6      5      3     14      9   180.00  15.16700   2 ;     C6-    C5-    C3-    H3
     6      7     10      8      9     0.00   1.71544   3 ;     C6-    C7-    N1-    C8
     6      7     10      8      9     0.00  20.16688   1 ;     C6-    C7-    N1-    C8
     6      7     10      8      9   180.00   9.12112   2 ;     C6-    C7-    N1-    C8
     6      7     10      9      9     0.00   1.71544   3 ;     C6-    C7-    N1-    C9
     6      7     10      9      9     0.00  20.16688   1 ;     C6-    C7-    N1-    C9
     6      7     10      9      9   180.00   9.12112   2 ;     C6-    C7-    N1-    C9
     7      6      4     15      9   180.00  15.16700   2 ;     C7-    C6-    C4-    H4
     7      6      5     16      9   180.00  15.16700   2 ;     C7-    C6-    C5-    H5
     7     10      8     17      9   180.00   0.00000   2 ;     C7-    N1-    C8-    H6
     7     10      8     18      9   180.00   0.00000   2 ;     C7-    N1-    C8-    H7
     7     10      8     19      9   180.00   0.00000   2 ;     C7-    N1-    C8-    H8
     7     10      9     20      9   180.00   0.00000   2 ;     C7-    N1-    C9-    H9
     7     10      9     21      9   180.00   0.00000   2 ;     C7-    N1-    C9-   H10
     7     10      9     22      9   180.00   0.00000   2 ;     C7-    N1-    C9-   H11
     8     10      7     11      9   180.00  10.46000   2 ;     C8-    N1-    C7-    O1
     8     10      9     20      9     0.00   0.00000   0 ;     C8-    N1-    C9-    H9
     8     10      9     21      9     0.00   0.00000   0 ;     C8-    N1-    C9-   H10
     8     10      9     22      9     0.00   0.00000   0 ;     C8-    N1-    C9-   H11
     9     10      7     11      9   180.00  10.46000   2 ;     C9-    N1-    C7-    O1
     9     10      8     17      9     0.00   0.00000   0 ;     C9-    N1-    C8-    H6
     9     10      8     18      9     0.00   0.00000   0 ;     C9-    N1-    C8-    H7
     9     10      8     19      9     0.00   0.00000   0 ;     C9-    N1-    C8-    H8
    12      1      2      4      9   180.00  15.16700   2 ;     H1-    C1-    C2-    C4
    12      1      2     13      9   180.00  15.16700   2 ;     H1-    C1-    C2-    H2
    12      1      3      5      9   180.00  15.16700   2 ;     H1-    C1-    C3-    C5
    12      1      3     14      9   180.00  15.16700   2 ;     H1-    C1-    C3-    H3
    13      2      4     15      9   180.00  15.16700   2 ;     H2-    C2-    C4-    H4
    14      3      5     16      9   180.00  15.16700   2 ;     H3-    C3-    C5-    H5

[ dihedrals ] ; impropers
; treated as propers in GROMACS to use correct AMBER analytical function
;    i      j      k      l   func   phase     kd      pn
     1      4      2     13      4   180.00   4.60240   2 ;     C1-    C4-    C2-    H2
     1      5      3     14      4   180.00   4.60240   2 ;     C1-    C5-    C3-    H3
     2      6      4     15      4   180.00   4.60240   2 ;     C2-    C6-    C4-    H4
     3      6      5     16      4   180.00   4.60240   2 ;     C3-    C6-    C5-    H5
     6     10      7     11      4   180.00  43.93200   2 ;     C6-    N1-    C7-    O1
     7      4      6      5      4   180.00   4.60240   2 ;     C7-    C4-    C6-    C5
     7      8     10      9      4   180.00   4.60240   2 ;     C7-    C8-    N1-    C9
    12      1      3      2      4   180.00   4.60240   2 ;     H1-    C1-    C3-    C2
