; mobley_4964807_GMX.itp created by acpype (v: 2023.10.27) on Thu May 21 00:26:34 2026

[ atomtypes ]
;name   bond_type     mass     charge   ptype   sigma         epsilon       Amb
 c        c           0.00000  0.00000   A     3.31521e-01   4.13379e-01 ; 1.86  0.0988
 c3       c3          0.00000  0.00000   A     3.39771e-01   4.51035e-01 ; 1.91  0.1078
 no       no          0.00000  0.00000   A     3.36510e-01   3.58987e-01 ; 1.89  0.0858
 o        o           0.00000  0.00000   A     3.04812e-01   6.12119e-01 ; 1.71  0.1463
 os       os          0.00000  0.00000   A     3.15610e-01   3.03758e-01 ; 1.77  0.0726
 hc       hc          0.00000  0.00000   A     2.60018e-01   8.70272e-02 ; 1.46  0.0208
 h1       h1          0.00000  0.00000   A     2.42200e-01   8.70272e-02 ; 1.36  0.0208

[ moleculetype ]
;name            nrexcl
 mobley_4964807   3

[ atoms ]
;   nr  type  resi  res  atom  cgnr     charge      mass       ; qtot   bond_type
     1    c     1   MOL    C1    1     0.544099     12.01000 ; qtot 0.544
     2   c3     1   MOL    C2    2    -0.203100     12.01000 ; qtot 0.341
     3   c3     1   MOL    C3    3     0.020400     12.01000 ; qtot 0.361
     4   no     1   MOL    N1    4     0.383200     14.01000 ; qtot 0.745
     5    o     1   MOL    O1    5    -0.495100     16.00000 ; qtot 0.249
     6    o     1   MOL    O2    6    -0.172000     16.00000 ; qtot 0.077
     7    o     1   MOL    O3    7    -0.172000     16.00000 ; qtot -0.095
     8   os     1   MOL    O4    8    -0.334000     16.00000 ; qtot -0.429
     9   hc     1   MOL    H1    9     0.072367      1.00800 ; qtot -0.356
    10   hc     1   MOL    H2   10     0.072367      1.00800 ; qtot -0.284
    11   hc     1   MOL    H3   11     0.072367      1.00800 ; qtot -0.211
    12   h1     1   MOL    H4   12     0.105700      1.00800 ; qtot -0.106
    13   h1     1   MOL    H5   13     0.105700      1.00800 ; qtot 0.000

[ bonds ]
;   ai     aj funct   r             k
     1      2   1    1.5270e-01    1.9652e+05 ;     C1 - C2    
     1      3   1    1.5270e-01    1.9652e+05 ;     C1 - C3    
     1      5   1    1.2190e-01    4.9421e+05 ;     C1 - O1    
     2      9   1    1.0962e-01    2.8891e+05 ;     C2 - H1    
     2     10   1    1.0962e-01    2.8891e+05 ;     C2 - H2    
     2     11   1    1.0962e-01    2.8891e+05 ;     C2 - H3    
     3      8   1    1.4273e-01    2.3620e+05 ;     C3 - O4    
     3     12   1    1.0969e-01    2.8804e+05 ;     C3 - H4    
     3     13   1    1.0969e-01    2.8804e+05 ;     C3 - H5    
     4      6   1    1.2311e-01    3.0270e+05 ;     N1 - O2    
     4      7   1    1.2311e-01    3.0270e+05 ;     N1 - O3    
     4      8   1    1.4202e-01    1.5509e+05 ;     N1 - O4    

[ pairs ]
;   ai     aj    funct
     1      4      1 ;     C1 - N1    
     2      8      1 ;     C2 - O4    
     2     12      1 ;     C2 - H4    
     2     13      1 ;     C2 - H5    
     3      6      1 ;     C3 - O2    
     3      7      1 ;     C3 - O3    
     3      9      1 ;     C3 - H1    
     3     10      1 ;     C3 - H2    
     3     11      1 ;     C3 - H3    
     4     12      1 ;     N1 - H4    
     4     13      1 ;     N1 - H5    
     5      8      1 ;     O1 - O4    
     5      9      1 ;     O1 - H1    
     5     10      1 ;     O1 - H2    
     5     11      1 ;     O1 - H3    
     5     12      1 ;     O1 - H4    
     5     13      1 ;     O1 - H5    

[ angles ]
;   ai     aj     ak    funct   theta         cth
     1      2      9      1    1.0895e+02    3.6510e+02 ;     C1 - C2     - H1    
     1      2     10      1    1.0895e+02    3.6510e+02 ;     C1 - C2     - H2    
     1      2     11      1    1.0895e+02    3.6510e+02 ;     C1 - C2     - H3    
     1      3      8      1    1.0927e+02    6.4517e+02 ;     C1 - C3     - O4    
     1      3     12      1    1.0837e+02    3.6602e+02 ;     C1 - C3     - H4    
     1      3     13      1    1.0837e+02    3.6602e+02 ;     C1 - C3     - H5    
     2      1      3      1    1.1668e+02    4.9497e+02 ;     C2 - C1     - C3    
     2      1      5      1    1.2290e+02    6.3973e+02 ;     C2 - C1     - O1    
     3      1      5      1    1.2290e+02    6.3973e+02 ;     C3 - C1     - O1    
     3      8      4      1    1.1387e+02    7.8567e+02 ;     C3 - O4     - N1    
     6      4      7      1    1.2505e+02    1.0964e+03 ;     O2 - N1     - O3    
     6      4      8      1    1.1480e+02    1.0519e+03 ;     O2 - N1     - O4    
     7      4      8      1    1.1480e+02    1.0519e+03 ;     O3 - N1     - O4    
     8      3     12      1    1.1034e+02    4.7028e+02 ;     O4 - C3     - H4    
     8      3     13      1    1.1034e+02    4.7028e+02 ;     O4 - C3     - H5    
     9      2     10      1    1.0773e+02    2.9957e+02 ;     H1 - C2     - H2    
     9      2     11      1    1.0773e+02    2.9957e+02 ;     H1 - C2     - H3    
    10      2     11      1    1.0773e+02    2.9957e+02 ;     H2 - C2     - H3    
    12      3     13      1    1.0855e+02    2.9824e+02 ;     H4 - C3     - H5    

[ dihedrals ] ; propers
; for gromacs 4.5 or higher, using funct 9
;    i      j      k      l   func   phase     kd      pn
     1      3      8      4      9     0.00   1.60387   3 ;     C1-    C3-    O4-    N1
     2      1      3      8      9   180.00   0.00000   2 ;     C2-    C1-    C3-    O4
     2      1      3     12      9   180.00   0.00000   2 ;     C2-    C1-    C3-    H4
     2      1      3     13      9   180.00   0.00000   2 ;     C2-    C1-    C3-    H5
     3      1      2      9      9   180.00   0.00000   3 ;     C3-    C1-    C2-    H1
     3      1      2     10      9   180.00   0.00000   3 ;     C3-    C1-    C2-    H2
     3      1      2     11      9   180.00   0.00000   3 ;     C3-    C1-    C2-    H3
     3      8      4      6      9   180.00  10.60644   2 ;     C3-    O4-    N1-    O2
     3      8      4      7      9   180.00  10.60644   2 ;     C3-    O4-    N1-    O3
     4      8      3     12      9     0.00   1.60387   3 ;     N1-    O4-    C3-    H4
     4      8      3     13      9     0.00   1.60387   3 ;     N1-    O4-    C3-    H5
     5      1      2      9      9     0.00  16.86152   1 ;     O1-    C1-    C2-    H1
     5      1      2      9      9   180.00  15.31344   2 ;     O1-    C1-    C2-    H1
     5      1      2     10      9     0.00  16.86152   1 ;     O1-    C1-    C2-    H2
     5      1      2     10      9   180.00  15.31344   2 ;     O1-    C1-    C2-    H2
     5      1      2     11      9     0.00  16.86152   1 ;     O1-    C1-    C2-    H3
     5      1      2     11      9   180.00  15.31344   2 ;     O1-    C1-    C2-    H3
     5      1      3      8      9   180.00   0.00000   1 ;     O1-    C1-    C3-    O4
     5      1      3      8      9   180.00   0.87864   3 ;     O1-    C1-    C3-    O4
     5      1      3      8      9   180.00   4.47688   2 ;     O1-    C1-    C3-    O4
     5      1      3     12      9     0.00   3.34720   1 ;     O1-    C1-    C3-    H4
     5      1      3     12      9   180.00   0.33472   3 ;     O1-    C1-    C3-    H4
     5      1      3     13      9     0.00   3.34720   1 ;     O1-    C1-    C3-    H5
     5      1      3     13      9   180.00   0.33472   3 ;     O1-    C1-    C3-    H5

[ dihedrals ] ; impropers
; treated as propers in GROMACS to use correct AMBER analytical function
;    i      j      k      l   func   phase     kd      pn
     5      1      3      2      4   180.00  43.93200   2 ;     O1-    C1-    C3-    C2
     6      7      4      8      4   180.00   4.60240   2 ;     O2-    O3-    N1-    O4
