; mobley_7463408_GMX.itp created by acpype (v: 2023.10.27) on Thu May 21 00:07:02 2026

[ atomtypes ]
;name   bond_type     mass     charge   ptype   sigma         epsilon       Amb
 ca       ca          0.00000  0.00000   A     3.31521e-01   4.13379e-01 ; 1.86  0.0988
 c        c           0.00000  0.00000   A     3.31521e-01   4.13379e-01 ; 1.86  0.0988
 c3       c3          0.00000  0.00000   A     3.39771e-01   4.51035e-01 ; 1.91  0.1078
 ns       ns          0.00000  0.00000   A     3.26995e-01   4.91202e-01 ; 1.84  0.1174
 o        o           0.00000  0.00000   A     3.04812e-01   6.12119e-01 ; 1.71  0.1463
 cl       cl          0.00000  0.00000   A     3.46595e-01   1.10374e+00 ; 1.95  0.2638
 ha       ha          0.00000  0.00000   A     2.62548e-01   6.73624e-02 ; 1.47  0.0161
 hc       hc          0.00000  0.00000   A     2.60018e-01   8.70272e-02 ; 1.46  0.0208
 hn       hn          0.00000  0.00000   A     1.10650e-01   4.18400e-02 ; 0.62  0.0100

[ moleculetype ]
;name            nrexcl
 mobley_7463408   3

[ atoms ]
;   nr  type  resi  res  atom  cgnr     charge      mass       ; qtot   bond_type
     1   ca     1   MOL    C1    1    -0.151000     12.01000 ; qtot -0.151
     2   ca     1   MOL    C2    2    -0.090000     12.01000 ; qtot -0.241
     3   ca     1   MOL    C3    3    -0.183000     12.01000 ; qtot -0.424
     4   ca     1   MOL    C4    4     0.086600     12.01000 ; qtot -0.337
     5   ca     1   MOL    C5    5    -0.013600     12.01000 ; qtot -0.351
     6   ca     1   MOL    C6    6     0.047400     12.01000 ; qtot -0.304
     7    c     1   MOL    C7    7     0.666100     12.01000 ; qtot 0.362
     8   c3     1   MOL    C8    8    -0.088100     12.01000 ; qtot 0.274
     9   c3     1   MOL    C9    9    -0.151400     12.01000 ; qtot 0.123
    10   ns     1   MOL    N1   10    -0.477100     14.01000 ; qtot -0.354
    11    o     1   MOL    O1   11    -0.579100     16.00000 ; qtot -0.933
    12   cl     1   MOL   CL1   12    -0.071400     35.45000 ; qtot -1.005
    13   cl     1   MOL   CL2   13    -0.072400     35.45000 ; qtot -1.077
    14   ha     1   MOL    H1   14     0.182000      1.00800 ; qtot -0.895
    15   ha     1   MOL    H2   15     0.154000      1.00800 ; qtot -0.741
    16   ha     1   MOL    H3   16     0.146000      1.00800 ; qtot -0.595
    17   hc     1   MOL    H4   17     0.049700      1.00800 ; qtot -0.545
    18   hc     1   MOL    H5   18     0.049700      1.00800 ; qtot -0.496
    19   hc     1   MOL    H6   19     0.049700      1.00800 ; qtot -0.446
    20   hc     1   MOL    H7   20     0.064700      1.00800 ; qtot -0.381
    21   hc     1   MOL    H8   21     0.064700      1.00800 ; qtot -0.317
    22   hn     1   MOL    H9   22     0.316500      1.00800 ; qtot 0.000

[ bonds ]
;   ai     aj funct   r             k
     1      2   1    1.3986e-01    2.9644e+05 ;     C1 - C2    
     1      4   1    1.3986e-01    2.9644e+05 ;     C1 - C4    
     1     14   1    1.0860e-01    3.0183e+05 ;     C1 - H1    
     2      5   1    1.3986e-01    2.9644e+05 ;     C2 - C5    
     2     15   1    1.0860e-01    3.0183e+05 ;     C2 - H2    
     3      4   1    1.3986e-01    2.9644e+05 ;     C3 - C4    
     3      6   1    1.3986e-01    2.9644e+05 ;     C3 - C6    
     3     16   1    1.0860e-01    3.0183e+05 ;     C3 - H3    
     4     10   1    1.4070e-01    2.5667e+05 ;     C4 - N1    
     5      6   1    1.3986e-01    2.9644e+05 ;     C5 - C6    
     5     12   1    1.7572e-01    1.5730e+05 ;     C5 - CL1   
     6     13   1    1.7572e-01    1.5730e+05 ;     C6 - CL2   
     7      9   1    1.5270e-01    1.9652e+05 ;     C7 - C9    
     7     10   1    1.3798e-01    2.8122e+05 ;     C7 - N1    
     7     11   1    1.2190e-01    4.9421e+05 ;     C7 - O1    
     8      9   1    1.5354e-01    1.9154e+05 ;     C8 - C9    
     8     17   1    1.0962e-01    2.8891e+05 ;     C8 - H4    
     8     18   1    1.0962e-01    2.8891e+05 ;     C8 - H5    
     8     19   1    1.0962e-01    2.8891e+05 ;     C8 - H6    
     9     20   1    1.0962e-01    2.8891e+05 ;     C9 - H7    
     9     21   1    1.0962e-01    2.8891e+05 ;     C9 - H8    
    10     22   1    1.0132e-01    3.9630e+05 ;     N1 - H9    

[ pairs ]
;   ai     aj    funct
     1      6      1 ;     C1 - C6    
     1      7      1 ;     C1 - C7    
     1     12      1 ;     C1 - CL1   
     1     16      1 ;     C1 - H3    
     1     22      1 ;     C1 - H9    
     2      3      1 ;     C2 - C3    
     2     10      1 ;     C2 - N1    
     2     13      1 ;     C2 - CL2   
     3      7      1 ;     C3 - C7    
     3     12      1 ;     C3 - CL1   
     3     22      1 ;     C3 - H9    
     4      5      1 ;     C4 - C5    
     4      9      1 ;     C4 - C9    
     4     11      1 ;     C4 - O1    
     4     13      1 ;     C4 - CL2   
     4     15      1 ;     C4 - H2    
     5     16      1 ;     C5 - H3    
     6     10      1 ;     C6 - N1    
     6     15      1 ;     C6 - H2    
     7     17      1 ;     C7 - H4    
     7     18      1 ;     C7 - H5    
     7     19      1 ;     C7 - H6    
     8     10      1 ;     C8 - N1    
     8     11      1 ;     C8 - O1    
     9     22      1 ;     C9 - H9    
    10     16      1 ;     N1 - H3    
    10     20      1 ;     N1 - H7    
    10     21      1 ;     N1 - H8    
    11     20      1 ;     O1 - H7    
    11     21      1 ;     O1 - H8    
    11     22      1 ;     O1 - H9    
    12     13      1 ;    CL1 - CL2   
    12     15      1 ;    CL1 - H2    
    13     16      1 ;    CL2 - H3    
    14      3      1 ;     H1 - C3    
    14      5      1 ;     H1 - C5    
    14     10      1 ;     H1 - N1    
    14     15      1 ;     H1 - H2    
    17     20      1 ;     H4 - H7    
    17     21      1 ;     H4 - H8    
    18     20      1 ;     H5 - H7    
    18     21      1 ;     H5 - H8    
    19     20      1 ;     H6 - H7    
    19     21      1 ;     H6 - H8    

[ angles ]
;   ai     aj     ak    funct   theta         cth
     1      2      5      1    1.2002e+02    5.3279e+02 ;     C1 - C2     - C5    
     1      2     15      1    1.1988e+02    3.7572e+02 ;     C1 - C2     - H2    
     1      4      3      1    1.2002e+02    5.3279e+02 ;     C1 - C4     - C3    
     1      4     10      1    1.2019e+02    5.6350e+02 ;     C1 - C4     - N1    
     2      1      4      1    1.2002e+02    5.3279e+02 ;     C2 - C1     - C4    
     2      1     14      1    1.1988e+02    3.7572e+02 ;     C2 - C1     - H1    
     2      5      6      1    1.2002e+02    5.3279e+02 ;     C2 - C5     - C6    
     2      5     12      1    1.1938e+02    5.3605e+02 ;     C2 - C5     - CL1   
     3      4     10      1    1.2019e+02    5.6350e+02 ;     C3 - C4     - N1    
     3      6      5      1    1.2002e+02    5.3279e+02 ;     C3 - C6     - C5    
     3      6     13      1    1.1938e+02    5.3605e+02 ;     C3 - C6     - CL2   
     4      1     14      1    1.1988e+02    3.7572e+02 ;     C4 - C1     - H1    
     4      3      6      1    1.2002e+02    5.3279e+02 ;     C4 - C3     - C6    
     4      3     16      1    1.1988e+02    3.7572e+02 ;     C4 - C3     - H3    
     4     10      7      1    1.2751e+02    6.4116e+02 ;     C4 - N1     - C7    
     4     10     22      1    1.1604e+02    4.7430e+02 ;     C4 - N1     - H9    
     5      2     15      1    1.1988e+02    3.7572e+02 ;     C5 - C2     - H2    
     5      6     13      1    1.1938e+02    5.3605e+02 ;     C5 - C6     - CL2   
     6      3     16      1    1.1988e+02    3.7572e+02 ;     C6 - C3     - H3    
     6      5     12      1    1.1938e+02    5.3605e+02 ;     C6 - C5     - CL1   
     7      9      8      1    1.1143e+02    5.0509e+02 ;     C7 - C9     - C8    
     7      9     20      1    1.0895e+02    3.6510e+02 ;     C7 - C9     - H7    
     7      9     21      1    1.0895e+02    3.6510e+02 ;     C7 - C9     - H8    
     7     10     22      1    1.1726e+02    4.8007e+02 ;     C7 - N1     - H9    
     8      9     20      1    1.0968e+02    3.6208e+02 ;     C8 - C9     - H7    
     8      9     21      1    1.0968e+02    3.6208e+02 ;     C8 - C9     - H8    
     9      7     10      1    1.1503e+02    5.5312e+02 ;     C9 - C7     - N1    
     9      7     11      1    1.2290e+02    6.3973e+02 ;     C9 - C7     - O1    
     9      8     17      1    1.0968e+02    3.6208e+02 ;     C9 - C8     - H4    
     9      8     18      1    1.0968e+02    3.6208e+02 ;     C9 - C8     - H5    
     9      8     19      1    1.0968e+02    3.6208e+02 ;     C9 - C8     - H6    
    10      7     11      1    1.2305e+02    7.2977e+02 ;     N1 - C7     - O1    
    17      8     18      1    1.0773e+02    2.9957e+02 ;     H4 - C8     - H5    
    17      8     19      1    1.0773e+02    2.9957e+02 ;     H4 - C8     - H6    
    18      8     19      1    1.0773e+02    2.9957e+02 ;     H5 - C8     - H6    
    20      9     21      1    1.0773e+02    2.9957e+02 ;     H7 - C9     - H8    

[ dihedrals ] ; propers
; for gromacs 4.5 or higher, using funct 9
;    i      j      k      l   func   phase     kd      pn
     1      2      5      6      9   180.00  15.16700   2 ;     C1-    C2-    C5-    C6
     1      2      5     12      9   180.00  15.16700   2 ;     C1-    C2-    C5-   CL1
     1      4      3      6      9   180.00  15.16700   2 ;     C1-    C4-    C3-    C6
     1      4      3     16      9   180.00  15.16700   2 ;     C1-    C4-    C3-    H3
     1      4     10      7      9   180.00   5.89944   2 ;     C1-    C4-    N1-    C7
     1      4     10     22      9   180.00   1.88280   2 ;     C1-    C4-    N1-    H9
     2      1      4      3      9   180.00  15.16700   2 ;     C2-    C1-    C4-    C3
     2      1      4     10      9   180.00  15.16700   2 ;     C2-    C1-    C4-    N1
     2      5      6      3      9   180.00  15.16700   2 ;     C2-    C5-    C6-    C3
     2      5      6     13      9   180.00  15.16700   2 ;     C2-    C5-    C6-   CL2
     3      4     10      7      9   180.00   5.89944   2 ;     C3-    C4-    N1-    C7
     3      4     10     22      9   180.00   1.88280   2 ;     C3-    C4-    N1-    H9
     3      6      5     12      9   180.00  15.16700   2 ;     C3-    C6-    C5-   CL1
     4      1      2      5      9   180.00  15.16700   2 ;     C4-    C1-    C2-    C5
     4      1      2     15      9   180.00  15.16700   2 ;     C4-    C1-    C2-    H2
     4      3      6      5      9   180.00  15.16700   2 ;     C4-    C3-    C6-    C5
     4      3      6     13      9   180.00  15.16700   2 ;     C4-    C3-    C6-   CL2
     4     10      7      9      9     0.00   3.64008   3 ;     C4-    N1-    C7-    C9
     4     10      7      9      9   180.00   4.30952   2 ;     C4-    N1-    C7-    C9
     4     10      7      9      9   180.00   5.89944   1 ;     C4-    N1-    C7-    C9
     4     10      7     11      9   180.00  10.46000   2 ;     C4-    N1-    C7-    O1
     5      6      3     16      9   180.00  15.16700   2 ;     C5-    C6-    C3-    H3
     6      3      4     10      9   180.00  15.16700   2 ;     C6-    C3-    C4-    N1
     6      5      2     15      9   180.00  15.16700   2 ;     C6-    C5-    C2-    H2
     7      9      8     17      9     0.00   0.65084   3 ;     C7-    C9-    C8-    H4
     7      9      8     18      9     0.00   0.65084   3 ;     C7-    C9-    C8-    H5
     7      9      8     19      9     0.00   0.65084   3 ;     C7-    C9-    C8-    H6
     8      9      7     10      9   180.00   4.39320   3 ;     C8-    C9-    C7-    N1
     8      9      7     11      9     0.00   2.84512   1 ;     C8-    C9-    C7-    O1
     8      9      7     11      9   180.00   0.83680   2 ;     C8-    C9-    C7-    O1
     8      9      7     11      9   180.00   1.84096   3 ;     C8-    C9-    C7-    O1
     9      7     10     22      9   180.00  10.46000   2 ;     C9-    C7-    N1-    H9
    10      4      3     16      9   180.00  15.16700   2 ;     N1-    C4-    C3-    H3
    10      7      9     20      9   180.00   0.00000   2 ;     N1-    C7-    C9-    H7
    10      7      9     21      9   180.00   0.00000   2 ;     N1-    C7-    C9-    H8
    11      7      9     20      9     0.00  16.86152   1 ;     O1-    C7-    C9-    H7
    11      7      9     20      9   180.00  15.31344   2 ;     O1-    C7-    C9-    H7
    11      7      9     21      9     0.00  16.86152   1 ;     O1-    C7-    C9-    H8
    11      7      9     21      9   180.00  15.31344   2 ;     O1-    C7-    C9-    H8
    11      7     10     22      9     0.00   8.36800   1 ;     O1-    C7-    N1-    H9
    11      7     10     22      9   180.00  10.46000   2 ;     O1-    C7-    N1-    H9
    12      5      2     15      9   180.00  15.16700   2 ;    CL1-    C5-    C2-    H2
    12      5      6     13      9   180.00  15.16700   2 ;    CL1-    C5-    C6-   CL2
    13      6      3     16      9   180.00  15.16700   2 ;    CL2-    C6-    C3-    H3
    14      1      2      5      9   180.00  15.16700   2 ;     H1-    C1-    C2-    C5
    14      1      2     15      9   180.00  15.16700   2 ;     H1-    C1-    C2-    H2
    14      1      4      3      9   180.00  15.16700   2 ;     H1-    C1-    C4-    C3
    14      1      4     10      9   180.00  15.16700   2 ;     H1-    C1-    C4-    N1
    17      8      9     20      9     0.00   0.50208   3 ;     H4-    C8-    C9-    H7
    17      8      9     21      9     0.00   0.50208   3 ;     H4-    C8-    C9-    H8
    18      8      9     20      9     0.00   0.50208   3 ;     H5-    C8-    C9-    H7
    18      8      9     21      9     0.00   0.50208   3 ;     H5-    C8-    C9-    H8
    19      8      9     20      9     0.00   0.50208   3 ;     H6-    C8-    C9-    H7
    19      8      9     21      9     0.00   0.50208   3 ;     H6-    C8-    C9-    H8

[ dihedrals ] ; impropers
; treated as propers in GROMACS to use correct AMBER analytical function
;    i      j      k      l   func   phase     kd      pn
     1      3      4     10      4   180.00   4.60240   2 ;     C1-    C3-    C4-    N1
     1      5      2     15      4   180.00   4.60240   2 ;     C1-    C5-    C2-    H2
     2      6      5     12      4   180.00   4.60240   2 ;     C2-    C6-    C5-   CL1
     3      5      6     13      4   180.00   4.60240   2 ;     C3-    C5-    C6-   CL2
     4      6      3     16      4   180.00   4.60240   2 ;     C4-    C6-    C3-    H3
     7      4     10     22      4   180.00   4.60240   2 ;     C7-    C4-    N1-    H9
     9     10      7     11      4   180.00  43.93200   2 ;     C9-    N1-    C7-    O1
    14      1      4      2      4   180.00   4.60240   2 ;     H1-    C1-    C4-    C2
