mobley_3060426_GMX.gro created by acpype (v: 2023.10.27) on Thu May 21 00:06:50 2026
 2396
    1MOL     C1    1   2.141   2.187   2.390
    1MOL     C2    2   2.310   2.163   2.572
    1MOL     C3    3   2.590   2.486   2.361
    1MOL     C4    4   2.436   2.498   2.165
    1MOL     C5    5   2.405   2.653   2.359
    1MOL     C6    6   2.384   2.258   2.352
    1MOL     C7    7   2.355   2.405   2.388
    1MOL     C8    8   2.288   2.159   2.421
    1MOL     C9    9   2.444   2.510   2.318
    1MOL     H1   10   2.119   2.171   2.283
    1MOL     H2   11   2.114   2.290   2.415
    1MOL     H3   12   2.076   2.120   2.446
    1MOL     H4   13   2.288   2.262   2.613
    1MOL     H5   14   2.246   2.090   2.623
    1MOL     H6   15   2.414   2.138   2.597
    1MOL     H7   16   2.602   2.495   2.469
    1MOL     H8   17   2.624   2.385   2.332
    1MOL     H9   18   2.659   2.558   2.314
    1MOL    H10   19   2.459   2.396   2.132
    1MOL    H11   20   2.336   2.523   2.127
    1MOL    H12   21   2.507   2.565   2.115
    1MOL    H13   22   2.405   2.664   2.468
    1MOL    H14   23   2.306   2.681   2.322
    1MOL    H15   24   2.476   2.727   2.318
    1MOL    H16   25   2.487   2.233   2.378
    1MOL    H17   26   2.374   2.245   2.243
    1MOL    H18   27   2.366   2.417   2.496
    1MOL    H19   28   2.250   2.427   2.365
    1MOL    H20   29   2.312   2.057   2.386
   14SOL     OW   30   1.460   1.505   1.339
   14SOL    HW1   31   1.484   1.599   1.365
   14SOL    HW2   32   1.444   1.451   1.421
   18SOL     OW   33   1.127   1.341   1.690
   18SOL    HW1   34   1.174   1.341   1.778
   18SOL    HW2   35   1.079   1.254   1.679
   35SOL     OW   36   1.187   1.792   1.616
   35SOL    HW1   37   1.211   1.852   1.540
   35SOL    HW2   38   1.194   1.697   1.586
   56SOL     OW   39   1.227   1.550   1.506
   56SOL    HW1   40   1.233   1.473   1.570
   56SOL    HW2   41   1.175   1.524   1.426
   95SOL     OW   42   1.754   1.223   1.588
   95SOL    HW1   43   1.845   1.184   1.575
   95SOL    HW2   44   1.762   1.319   1.612
   97SOL     OW   45   1.592   1.629   1.625
   97SOL    HW1   46   1.619   1.663   1.535
   97SOL    HW2   47   1.671   1.591   1.671
  122SOL     OW   48   1.728   0.935   1.854
  122SOL    HW1   49   1.682   0.928   1.765
  122SOL    HW2   50   1.666   0.979   1.920
  126SOL     OW   51   0.980   1.573   1.700
  126SOL    HW1   52   0.960   1.617   1.612
  126SOL    HW2   53   1.019   1.482   1.684
  127SOL     OW   54   1.859   1.518   1.605
  127SOL    HW1   55   1.873   1.545   1.510
  127SOL    HW2   56   1.942   1.540   1.658
  152SOL     OW   57   1.759   1.747   1.154
  152SOL    HW1   58   1.820   1.777   1.081
  152SOL    HW2   59   1.721   1.658   1.132
  153SOL     OW   60   1.252   1.731   1.128
  153SOL    HW1   61   1.336   1.736   1.074
  153SOL    HW2   62   1.229   1.635   1.146
  163SOL     OW   63   1.650   1.720   1.394
  163SOL    HW1   64   1.703   1.730   1.310
  163SOL    HW2   65   1.623   1.810   1.428
  171SOL     OW   66   1.614   1.292   1.289
  171SOL    HW1   67   1.674   1.295   1.369
  171SOL    HW2   68   1.539   1.356   1.302
  184SOL     OW   69   1.493   1.767   0.959
  184SOL    HW1   70   1.526   1.831   0.890
  184SOL    HW2   71   1.559   1.761   1.034
  186SOL     OW   72   1.450   1.220   1.633
  186SOL    HW1   73   1.441   1.210   1.732
  186SOL    HW2   74   1.546   1.213   1.607
  192SOL     OW   75   1.730   0.934   1.517
  192SOL    HW1   76   1.768   1.025   1.532
  192SOL    HW2   77   1.722   0.917   1.418
  197SOL     OW   78   1.861   1.569   0.851
  197SOL    HW1   79   1.790   1.557   0.781
  197SOL    HW2   80   1.862   1.490   0.911
  203SOL     OW   81   1.705   1.487   1.104
  203SOL    HW1   82   1.612   1.462   1.077
  203SOL    HW2   83   1.731   1.437   1.186
  219SOL     OW   84   1.555   1.511   2.565
  219SOL    HW1   85   1.498   1.495   2.646
  219SOL    HW2   86   1.496   1.521   2.485
  227SOL     OW   87   1.460   1.505   3.201
  227SOL    HW1   88   1.484   1.599   3.227
  227SOL    HW2   89   1.444   1.451   3.283
  238SOL     OW   90   1.842   1.767   2.221
  238SOL    HW1   91   1.896   1.738   2.301
  238SOL    HW2   92   1.872   1.857   2.192
  240SOL     OW   93   1.689   0.922   2.474
  240SOL    HW1   94   1.784   0.893   2.482
  240SOL    HW2   95   1.681   0.987   2.399
  241SOL     OW   96   1.641   1.108   2.294
  241SOL    HW1   97   1.727   1.110   2.242
  241SOL    HW2   98   1.655   1.155   2.382
  247SOL     OW   99   1.525   0.999   2.052
  247SOL    HW1  100   1.462   0.923   2.065
  247SOL    HW2  101   1.573   1.017   2.138
  248SOL     OW  102   1.187   1.792   3.478
  248SOL    HW1  103   1.211   1.852   3.402
  248SOL    HW2  104   1.194   1.697   3.448
  250SOL     OW  105   1.466   1.417   2.815
  250SOL    HW1  106   1.407   1.423   2.895
  250SOL    HW2  107   1.451   1.329   2.769
  251SOL     OW  108   1.667   1.714   2.434
  251SOL    HW1  109   1.626   1.691   2.346
  251SOL    HW2  110   1.649   1.640   2.499
  254SOL     OW  111   1.576   1.662   2.169
  254SOL    HW1  112   1.665   1.708   2.172
  254SOL    HW2  113   1.555   1.638   2.074
  264SOL     OW  114   1.362   1.144   2.407
  264SOL    HW1  115   1.445   1.115   2.359
  264SOL    HW2  116   1.313   1.211   2.351
  266SOL     OW  117   1.008   1.456   2.339
  266SOL    HW1  118   0.962   1.528   2.287
  266SOL    HW2  119   1.004   1.476   2.437
  268SOL     OW  120   1.795   1.066   2.735
  268SOL    HW1  121   1.733   1.051   2.659
  268SOL    HW2  122   1.743   1.077   2.820
  269SOL     OW  123   1.227   1.550   3.368
  269SOL    HW1  124   1.233   1.473   3.432
  269SOL    HW2  125   1.175   1.524   3.288
  273SOL     OW  126   1.111   1.776   2.099
  273SOL    HW1  127   1.051   1.714   2.149
  273SOL    HW2  128   1.142   1.732   2.014
  275SOL     OW  129   1.632   1.377   1.943
  275SOL    HW1  130   1.600   1.471   1.933
  275SOL    HW2  131   1.556   1.314   1.931
  279SOL     OW  132   0.940   1.698   2.766
  279SOL    HW1  133   1.020   1.641   2.787
  279SOL    HW2  134   0.891   1.658   2.689
  289SOL     OW  135   1.434   1.188   1.903
  289SOL    HW1  136   1.466   1.112   1.960
  289SOL    HW2  137   1.342   1.215   1.933
  293SOL     OW  138   1.227   1.570   2.655
  293SOL    HW1  139   1.248   1.644   2.590
  293SOL    HW2  140   1.295   1.570   2.728
  295SOL     OW  141   1.271   1.797   2.453
  295SOL    HW1  142   1.315   1.861   2.389
  295SOL    HW2  143   1.221   1.849   2.523
  301SOL     OW  144   1.429   1.173   2.729
  301SOL    HW1  145   1.374   1.089   2.722
  301SOL    HW2  146   1.455   1.202   2.637
  303SOL     OW  147   1.857   0.833   2.239
  303SOL    HW1  148   1.899   0.769   2.303
  303SOL    HW2  149   1.819   0.782   2.161
  305SOL     OW  150   1.664   1.280   2.519
  305SOL    HW1  151   1.763   1.288   2.533
  305SOL    HW2  152   1.619   1.364   2.550
  308SOL     OW  153   1.754   1.223   3.450
  308SOL    HW1  154   1.845   1.184   3.437
  308SOL    HW2  155   1.762   1.319   3.474
  310SOL     OW  156   1.592   1.629   3.487
  310SOL    HW1  157   1.619   1.663   3.397
  310SOL    HW2  158   1.671   1.591   3.533
  312SOL     OW  159   1.638   1.099   2.941
  312SOL    HW1  160   1.643   1.180   3.000
  312SOL    HW2  161   1.552   1.101   2.890
  321SOL     OW  162   1.252   1.348   2.250
  321SOL    HW1  163   1.302   1.425   2.290
  321SOL    HW2  164   1.157   1.350   2.282
  322SOL     OW  165   1.272   1.445   3.004
  322SOL    HW1  166   1.319   1.458   3.091
  322SOL    HW2  167   1.206   1.371   3.013
  340SOL     OW  168   1.859   1.518   3.467
  340SOL    HW1  169   1.873   1.545   3.372
  340SOL    HW2  170   1.942   1.540   3.520
  344SOL     OW  171   1.068   1.333   2.711
  344SOL    HW1  172   1.075   1.249   2.656
  344SOL    HW2  173   1.130   1.402   2.675
  365SOL     OW  174   1.759   1.747   3.016
  365SOL    HW1  175   1.820   1.777   2.943
  365SOL    HW2  176   1.721   1.658   2.994
  366SOL     OW  177   1.252   1.731   2.990
  366SOL    HW1  178   1.336   1.736   2.936
  366SOL    HW2  179   1.229   1.635   3.008
  370SOL     OW  180   1.388   1.573   2.339
  370SOL    HW1  181   1.455   1.585   2.265
  370SOL    HW2  182   1.348   1.662   2.362
  375SOL     OW  183   1.650   1.720   3.256
  375SOL    HW1  184   1.703   1.730   3.172
  375SOL    HW2  185   1.623   1.810   3.290
  378SOL     OW  186   1.194   1.612   1.893
  378SOL    HW1  187   1.200   1.519   1.930
  378SOL    HW2  188   1.135   1.612   1.813
  381SOL     OW  189   1.504   1.607   1.906
  381SOL    HW1  190   1.412   1.644   1.913
  381SOL    HW2  191   1.542   1.627   1.816
  383SOL     OW  192   1.614   1.292   3.151
  383SOL    HW1  193   1.674   1.295   3.231
  383SOL    HW2  194   1.539   1.356   3.164
  394SOL     OW  195   1.183   1.335   1.981
  394SOL    HW1  196   1.084   1.324   1.983
  394SOL    HW2  197   1.217   1.350   2.074
  396SOL     OW  198   1.493   1.767   2.821
  396SOL    HW1  199   1.526   1.831   2.752
  396SOL    HW2  200   1.559   1.761   2.896
  409SOL     OW  201   1.861   1.569   2.713
  409SOL    HW1  202   1.790   1.557   2.643
  409SOL    HW2  203   1.862   1.490   2.773
  415SOL     OW  204   1.705   1.487   2.966
  415SOL    HW1  205   1.612   1.462   2.939
  415SOL    HW2  206   1.731   1.437   3.048
  417SOL     OW  207   0.812   1.586   2.549
  417SOL    HW1  208   0.844   1.596   2.455
  417SOL    HW2  209   0.733   1.524   2.551
  426SOL     OW  210   0.875   1.646   2.199
  426SOL    HW1  211   0.798   1.611   2.145
  426SOL    HW2  212   0.843   1.717   2.261
  545SOL     OW  213   0.850   2.660   1.823
  545SOL    HW1  214   0.846   2.736   1.888
  545SOL    HW2  215   0.872   2.696   1.732
  549SOL     OW  216   1.460   3.367   1.339
  549SOL    HW1  217   1.484   3.461   1.365
  549SOL    HW2  218   1.444   3.313   1.421
  553SOL     OW  219   1.127   3.203   1.690
  553SOL    HW1  220   1.174   3.203   1.778
  553SOL    HW2  221   1.079   3.116   1.679
  558SOL     OW  222   1.594   1.976   1.480
  558SOL    HW1  223   1.576   2.043   1.408
  558SOL    HW2  224   1.591   2.022   1.569
  566SOL     OW  225   1.293   3.090   1.423
  566SOL    HW1  226   1.330   3.017   1.365
  566SOL    HW2  227   1.345   3.095   1.508
  578SOL     OW  228   1.394   2.331   1.674
  578SOL    HW1  229   1.374   2.374   1.762
  578SOL    HW2  230   1.472   2.269   1.683
  579SOL     OW  231   0.973   2.752   1.572
  579SOL    HW1  232   1.019   2.668   1.543
  579SOL    HW2  233   0.917   2.786   1.497
  580SOL     OW  234   0.991   2.272   1.242
  580SOL    HW1  235   0.914   2.306   1.296
  580SOL    HW2  236   0.957   2.221   1.163
  585SOL     OW  237   1.719   2.447   1.831
  585SOL    HW1  238   1.693   2.536   1.795
  585SOL    HW2  239   1.717   2.379   1.758
  590SOL     OW  240   1.795   2.928   0.873
  590SOL    HW1  241   1.733   2.913   0.797
  590SOL    HW2  242   1.743   2.939   0.958
  591SOL     OW  243   1.227   3.412   1.506
  591SOL    HW1  244   1.233   3.335   1.570
  591SOL    HW2  245   1.175   3.386   1.426
  603SOL     OW  246   1.547   2.084   1.729
  603SOL    HW1  247   1.542   2.121   1.821
  603SOL    HW2  248   1.475   2.015   1.717
  605SOL     OW  249   0.781   2.126   1.749
  605SOL    HW1  250   0.848   2.065   1.792
  605SOL    HW2  251   0.708   2.145   1.814
  607SOL     OW  252   1.351   2.452   1.433
  607SOL    HW1  253   1.379   2.409   1.518
  607SOL    HW2  254   1.376   2.548   1.434
  614SOL     OW  255   1.076   2.545   1.464
  614SOL    HW1  256   0.996   2.484   1.467
  614SOL    HW2  257   1.157   2.492   1.440
  624SOL     OW  258   1.466   2.452   0.992
  624SOL    HW1  259   1.436   2.357   0.999
  624SOL    HW2  260   1.539   2.468   1.058
  630SOL     OW  261   1.754   3.085   1.588
  630SOL    HW1  262   1.845   3.046   1.575
  630SOL    HW2  263   1.762   3.181   1.612
  632SOL     OW  264   1.592   3.491   1.625
  632SOL    HW1  265   1.619   3.525   1.535
  632SOL    HW2  266   1.671   3.453   1.671
  634SOL     OW  267   1.638   2.961   1.079
  634SOL    HW1  268   1.643   3.042   1.138
  634SOL    HW2  269   1.552   2.963   1.028
  635SOL     OW  270   0.915   1.951   1.402
  635SOL    HW1  271   0.940   1.931   1.307
  635SOL    HW2  272   0.987   2.007   1.444
  636SOL     OW  273   0.980   2.978   1.719
  636SOL    HW1  274   0.881   2.984   1.729
  636SOL    HW2  275   1.003   2.898   1.663
  639SOL     OW  276   1.274   2.248   1.262
  639SOL    HW1  277   1.295   2.322   1.326
  639SOL    HW2  278   1.185   2.265   1.219
  648SOL     OW  279   1.587   2.641   1.670
  648SOL    HW1  280   1.495   2.679   1.665
  648SOL    HW2  281   1.647   2.688   1.605
  649SOL     OW  282   1.013   1.967   1.770
  649SOL    HW1  283   1.019   2.052   1.718
  649SOL    HW2  284   1.045   1.891   1.713
  652SOL     OW  285   1.360   2.724   1.045
  652SOL    HW1  286   1.285   2.724   0.979
  652SOL    HW2  287   1.397   2.632   1.054
  657SOL     OW  288   1.728   2.797   1.854
  657SOL    HW1  289   1.682   2.790   1.765
  657SOL    HW2  290   1.666   2.841   1.920
  662SOL     OW  291   1.859   3.380   1.605
  662SOL    HW1  292   1.873   3.407   1.510
  662SOL    HW2  293   1.942   3.402   1.658
  669SOL     OW  294   1.138   2.242   1.678
  669SOL    HW1  295   1.093   2.305   1.742
  669SOL    HW2  296   1.231   2.273   1.661
  670SOL     OW  297   1.160   2.069   1.477
  670SOL    HW1  298   1.160   2.133   1.554
  670SOL    HW2  299   1.188   2.117   1.394
  677SOL     OW  300   1.369   2.812   1.660
  677SOL    HW1  301   1.408   2.901   1.680
  677SOL    HW2  302   1.379   2.792   1.563
  679SOL     OW  303   1.657   2.466   1.206
  679SOL    HW1  304   1.619   2.397   1.268
  679SOL    HW2  305   1.739   2.430   1.162
  685SOL     OW  306   1.347   2.921   1.234
  685SOL    HW1  307   1.371   2.858   1.160
  685SOL    HW2  308   1.257   2.961   1.216
  698SOL     OW  309   1.650   3.582   1.394
  698SOL    HW1  310   1.703   3.592   1.310
  698SOL    HW2  311   1.623   3.672   1.428
  699SOL     OW  312   1.841   2.037   0.963
  699SOL    HW1  313   1.880   1.952   0.927
  699SOL    HW2  314   1.743   2.039   0.944
  706SOL     OW  315   1.614   3.154   1.289
  706SOL    HW1  316   1.674   3.157   1.369
  706SOL    HW2  317   1.539   3.218   1.302
  710SOL     OW  318   1.709   2.247   1.381
  710SOL    HW1  319   1.782   2.316   1.385
  710SOL    HW2  320   1.737   2.172   1.322
  715SOL     OW  321   1.440   2.718   1.398
  715SOL    HW1  322   1.383   2.770   1.335
  715SOL    HW2  323   1.536   2.730   1.374
  720SOL     OW  324   0.716   2.427   1.708
  720SOL    HW1  325   0.735   2.492   1.782
  720SOL    HW2  326   0.776   2.347   1.717
  721SOL     OW  327   1.450   3.082   1.633
  721SOL    HW1  328   1.441   3.072   1.732
  721SOL    HW2  329   1.546   3.075   1.607
  723SOL     OW  330   1.674   2.745   1.254
  723SOL    HW1  331   1.647   2.656   1.217
  723SOL    HW2  332   1.675   2.813   1.181
  726SOL     OW  333   1.777   2.204   1.642
  726SOL    HW1  334   1.760   2.235   1.548
  726SOL    HW2  335   1.693   2.167   1.680
  727SOL     OW  336   1.730   2.796   1.517
  727SOL    HW1  337   1.768   2.887   1.532
  727SOL    HW2  338   1.722   2.779   1.418
  736SOL     OW  339   1.824   2.054   1.227
  736SOL    HW1  340   1.820   1.964   1.271
  736SOL    HW2  341   1.827   2.043   1.128
  738SOL     OW  342   1.705   3.349   1.104
  738SOL    HW1  343   1.612   3.324   1.077
  738SOL    HW2  344   1.731   3.299   1.186
  741SOL     OW  345   1.424   2.076   1.112
  741SOL    HW1  346   1.476   2.011   1.167
  741SOL    HW2  347   1.375   2.139   1.173
  747SOL     OW  348   1.593   2.083   0.882
  747SOL    HW1  349   1.509   2.082   0.936
  747SOL    HW2  350   1.595   2.166   0.826
  754SOL     OW  351   1.555   3.373   2.565
  754SOL    HW1  352   1.498   3.357   2.646
  754SOL    HW2  353   1.496   3.383   2.485
  755SOL     OW  354   1.135   2.565   2.579
  755SOL    HW1  355   1.192   2.643   2.554
  755SOL    HW2  356   1.075   2.591   2.655
  756SOL     OW  357   1.755   2.469   2.093
  756SOL    HW1  358   1.743   2.456   1.994
  756SOL    HW2  359   1.725   2.388   2.142
  757SOL     OW  360   0.768   3.006   2.885
  757SOL    HW1  361   0.690   3.023   2.945
  757SOL    HW2  362   0.802   3.093   2.849
  759SOL     OW  363   0.685   2.874   2.527
  759SOL    HW1  364   0.754   2.858   2.597
  759SOL    HW2  365   0.612   2.931   2.565
  762SOL     OW  366   1.460   3.367   3.201
  762SOL    HW1  367   1.484   3.461   3.227
  762SOL    HW2  368   1.444   3.313   3.283
  764SOL     OW  369   1.603   2.309   2.599
  764SOL    HW1  370   1.529   2.355   2.549
  764SOL    HW2  371   1.654   2.377   2.652
  771SOL     OW  372   1.594   1.976   3.342
  771SOL    HW1  373   1.576   2.043   3.270
  771SOL    HW2  374   1.591   2.022   3.431
  773SOL     OW  375   1.842   3.629   2.221
  773SOL    HW1  376   1.896   3.600   2.301
  773SOL    HW2  377   1.872   3.719   2.192
  775SOL     OW  378   1.689   2.784   2.474
  775SOL    HW1  379   1.784   2.755   2.482
  775SOL    HW2  380   1.681   2.849   2.399
  776SOL     OW  381   1.641   2.970   2.294
  776SOL    HW1  382   1.727   2.972   2.242
  776SOL    HW2  383   1.655   3.017   2.382
  779SOL     OW  384   1.293   3.090   3.285
  779SOL    HW1  385   1.330   3.017   3.227
  779SOL    HW2  386   1.345   3.095   3.370
  780SOL     OW  387   0.809   1.866   2.364
  780SOL    HW1  388   0.849   1.957   2.355
  780SOL    HW2  389   0.709   1.874   2.370
  782SOL     OW  390   1.525   2.861   2.052
  782SOL    HW1  391   1.462   2.785   2.065
  782SOL    HW2  392   1.573   2.879   2.138
  785SOL     OW  393   1.466   3.279   2.815
  785SOL    HW1  394   1.407   3.285   2.895
  785SOL    HW2  395   1.451   3.191   2.769
  786SOL     OW  396   1.667   3.576   2.434
  786SOL    HW1  397   1.626   3.553   2.346
  786SOL    HW2  398   1.649   3.502   2.499
  788SOL     OW  399   1.281   2.207   2.806
  788SOL    HW1  400   1.195   2.157   2.793
  788SOL    HW2  401   1.343   2.153   2.862
  789SOL     OW  402   1.576   3.524   2.169
  789SOL    HW1  403   1.665   3.570   2.172
  789SOL    HW2  404   1.555   3.500   2.074
  791SOL     OW  405   1.394   2.331   3.536
  791SOL    HW1  406   1.374   2.374   3.624
  791SOL    HW2  407   1.472   2.269   3.545
  792SOL     OW  408   0.973   2.752   3.434
  792SOL    HW1  409   1.019   2.668   3.405
  792SOL    HW2  410   0.917   2.786   3.359
  793SOL     OW  411   0.991   2.272   3.104
  793SOL    HW1  412   0.914   2.306   3.158
  793SOL    HW2  413   0.957   2.221   3.025
  794SOL     OW  414   1.041   2.563   2.291
  794SOL    HW1  415   1.067   2.559   2.387
  794SOL    HW2  416   0.956   2.512   2.277
  797SOL     OW  417   0.865   2.210   2.057
  797SOL    HW1  418   0.924   2.273   2.008
  797SOL    HW2  419   0.884   2.116   2.028
  798SOL     OW  420   1.719   2.447   3.693
  798SOL    HW1  421   1.693   2.536   3.657
  798SOL    HW2  422   1.717   2.379   3.620
  799SOL     OW  423   1.362   3.006   2.407
  799SOL    HW1  424   1.445   2.977   2.359
  799SOL    HW2  425   1.313   3.073   2.351
  801SOL     OW  426   1.008   3.318   2.339
  801SOL    HW1  427   0.962   3.390   2.287
  801SOL    HW2  428   1.004   3.338   2.437
  803SOL     OW  429   1.795   2.928   2.735
  803SOL    HW1  430   1.733   2.913   2.659
  803SOL    HW2  431   1.743   2.939   2.820
  806SOL     OW  432   1.458   2.597   2.590
  806SOL    HW1  433   1.453   2.532   2.665
  806SOL    HW2  434   1.538   2.656   2.603
  810SOL     OW  435   1.632   3.239   1.943
  810SOL    HW1  436   1.600   3.333   1.933
  810SOL    HW2  437   1.556   3.176   1.931
  812SOL     OW  438   1.400   1.969   2.288
  812SOL    HW1  439   1.376   1.932   2.198
  812SOL    HW2  440   1.499   1.985   2.292
  816SOL     OW  441   1.547   2.084   3.591
  816SOL    HW1  442   1.542   2.121   3.683
  816SOL    HW2  443   1.475   2.015   3.579
  820SOL     OW  444   1.351   2.452   3.295
  820SOL    HW1  445   1.379   2.409   3.380
  820SOL    HW2  446   1.376   2.548   3.296
  822SOL     OW  447   0.922   2.365   2.761
  822SOL    HW1  448   0.897   2.356   2.665
  822SOL    HW2  449   0.970   2.283   2.792
  824SOL     OW  450   1.434   3.050   1.903
  824SOL    HW1  451   1.466   2.974   1.960
  824SOL    HW2  452   1.342   3.077   1.933
  826SOL     OW  453   0.935   2.098   2.342
  826SOL    HW1  454   0.887   2.139   2.264
  826SOL    HW2  455   1.034   2.096   2.323
  827SOL     OW  456   1.076   2.545   3.326
  827SOL    HW1  457   0.996   2.484   3.329
  827SOL    HW2  458   1.157   2.492   3.302
  828SOL     OW  459   1.227   3.432   2.655
  828SOL    HW1  460   1.248   3.506   2.590
  828SOL    HW2  461   1.295   3.432   2.728
  830SOL     OW  462   1.271   3.659   2.453
  830SOL    HW1  463   1.315   3.723   2.389
  830SOL    HW2  464   1.221   3.711   2.523
  831SOL     OW  465   1.032   2.411   1.878
  831SOL    HW1  466   0.991   2.493   1.839
  831SOL    HW2  467   1.096   2.437   1.951
  834SOL     OW  468   0.866   2.316   2.504
  834SOL    HW1  469   0.834   2.388   2.442
  834SOL    HW2  470   0.890   2.235   2.451
  835SOL     OW  471   1.017   1.901   2.615
  835SOL    HW1  472   0.945   1.906   2.546
  835SOL    HW2  473   0.993   1.832   2.684
  836SOL     OW  474   1.429   3.035   2.729
  836SOL    HW1  475   1.374   2.951   2.722
  836SOL    HW2  476   1.455   3.064   2.637
  837SOL     OW  477   1.466   2.452   2.854
  837SOL    HW1  478   1.436   2.357   2.861
  837SOL    HW2  479   1.539   2.468   2.920
  838SOL     OW  480   1.857   2.695   2.239
  838SOL    HW1  481   1.899   2.631   2.303
  838SOL    HW2  482   1.819   2.644   2.161
  840SOL     OW  483   1.664   3.142   2.519
  840SOL    HW1  484   1.763   3.150   2.533
  840SOL    HW2  485   1.619   3.226   2.550
  841SOL     OW  486   1.390   2.437   1.940
  841SOL    HW1  487   1.336   2.416   2.021
  841SOL    HW2  488   1.481   2.396   1.949
  843SOL     OW  489   1.754   3.085   3.450
  843SOL    HW1  490   1.845   3.046   3.437
  843SOL    HW2  491   1.762   3.181   3.474
  844SOL     OW  492   1.064   3.209   3.202
  844SOL    HW1  493   0.984   3.186   3.257
  844SOL    HW2  494   1.147   3.183   3.251
  845SOL     OW  495   1.592   3.491   3.487
  845SOL    HW1  496   1.619   3.525   3.397
  845SOL    HW2  497   1.671   3.453   3.533
  846SOL     OW  498   1.111   3.057   2.962
  846SOL    HW1  499   1.071   3.101   3.043
  846SOL    HW2  500   1.070   3.094   2.879
  847SOL     OW  501   1.638   2.961   2.941
  847SOL    HW1  502   1.643   3.042   3.000
  847SOL    HW2  503   1.552   2.963   2.890
  848SOL     OW  504   0.915   1.951   3.264
  848SOL    HW1  505   0.940   1.931   3.169
  848SOL    HW2  506   0.987   2.007   3.306
  850SOL     OW  507   0.705   2.912   2.230
  850SOL    HW1  508   0.691   2.919   2.329
  850SOL    HW2  509   0.789   2.861   2.212
  852SOL     OW  510   1.274   2.248   3.124
  852SOL    HW1  511   1.295   2.322   3.188
  852SOL    HW2  512   1.185   2.265   3.081
  856SOL     OW  513   1.252   3.210   2.250
  856SOL    HW1  514   1.302   3.287   2.290
  856SOL    HW2  515   1.157   3.212   2.282
  857SOL     OW  516   1.272   3.307   3.004
  857SOL    HW1  517   1.319   3.320   3.091
  857SOL    HW2  518   1.206   3.233   3.013
  858SOL     OW  519   1.582   2.501   2.334
  858SOL    HW1  520   1.551   2.562   2.407
  858SOL    HW2  521   1.632   2.553   2.265
  861SOL     OW  522   1.587   2.641   3.532
  861SOL    HW1  523   1.495   2.679   3.527
  861SOL    HW2  524   1.647   2.688   3.467
  865SOL     OW  525   1.360   2.724   2.907
  865SOL    HW1  526   1.285   2.724   2.841
  865SOL    HW2  527   1.397   2.632   2.916
  866SOL     OW  528   1.209   2.387   2.137
  866SOL    HW1  529   1.222   2.303   2.191
  866SOL    HW2  530   1.180   2.461   2.197
  869SOL     OW  531   0.732   2.496   2.926
  869SOL    HW1  532   0.791   2.470   2.850
  869SOL    HW2  533   0.704   2.592   2.915
  870SOL     OW  534   1.728   2.797   3.716
  870SOL    HW1  535   1.682   2.790   3.627
  870SOL    HW2  536   1.666   2.841   3.782
  872SOL     OW  537   1.622   2.229   2.236
  872SOL    HW1  538   1.624   2.153   2.300
  872SOL    HW2  539   1.574   2.306   2.276
  873SOL     OW  540   1.023   2.628   2.828
  873SOL    HW1  541   1.038   2.649   2.924
  873SOL    HW2  542   0.993   2.533   2.819
  875SOL     OW  543   1.859   3.380   3.467
  875SOL    HW1  544   1.873   3.407   3.372
  875SOL    HW2  545   1.942   3.402   3.520
  877SOL     OW  546   1.540   2.136   1.987
  877SOL    HW1  547   1.479   2.061   2.010
  877SOL    HW2  548   1.562   2.188   2.070
  878SOL     OW  549   1.303   2.700   1.904
  878SOL    HW1  550   1.337   2.607   1.919
  878SOL    HW2  551   1.321   2.727   1.809
  879SOL     OW  552   1.068   3.195   2.711
  879SOL    HW1  553   1.075   3.111   2.656
  879SOL    HW2  554   1.130   3.264   2.675
  882SOL     OW  555   1.138   2.242   3.540
  882SOL    HW1  556   1.093   2.305   3.604
  882SOL    HW2  557   1.231   2.273   3.523
  883SOL     OW  558   1.160   2.069   3.339
  883SOL    HW1  559   1.160   2.133   3.416
  883SOL    HW2  560   1.188   2.117   3.256
  887SOL     OW  561   1.002   2.658   3.100
  887SOL    HW1  562   1.043   2.626   3.186
  887SOL    HW2  563   0.906   2.631   3.097
  890SOL     OW  564   1.369   2.812   3.522
  890SOL    HW1  565   1.408   2.901   3.542
  890SOL    HW2  566   1.379   2.792   3.425
  891SOL     OW  567   0.815   2.434   2.187
  891SOL    HW1  568   0.822   2.345   2.141
  891SOL    HW2  569   0.721   2.468   2.179
  892SOL     OW  570   1.657   2.466   3.068
  892SOL    HW1  571   1.619   2.397   3.130
  892SOL    HW2  572   1.739   2.430   3.024
  898SOL     OW  573   1.347   2.921   3.096
  898SOL    HW1  574   1.371   2.858   3.022
  898SOL    HW2  575   1.257   2.961   3.078
  899SOL     OW  576   1.302   2.717   2.171
  899SOL    HW1  577   1.216   2.686   2.213
  899SOL    HW2  578   1.298   2.703   2.072
  900SOL     OW  579   1.759   3.609   3.016
  900SOL    HW1  580   1.820   3.639   2.943
  900SOL    HW2  581   1.721   3.520   2.994
  901SOL     OW  582   1.252   3.593   2.990
  901SOL    HW1  583   1.336   3.598   2.936
  901SOL    HW2  584   1.229   3.497   3.008
  904SOL     OW  585   1.726   1.997   2.385
  904SOL    HW1  586   1.799   1.980   2.318
  904SOL    HW2  587   1.695   1.910   2.423
  905SOL     OW  588   1.388   3.435   2.339
  905SOL    HW1  589   1.455   3.447   2.265
  905SOL    HW2  590   1.348   3.524   2.362
  907SOL     OW  591   1.280   2.789   2.534
  907SOL    HW1  592   1.340   2.708   2.536
  907SOL    HW2  593   1.320   2.858   2.474
  910SOL     OW  594   1.650   3.582   3.256
  910SOL    HW1  595   1.703   3.592   3.172
  910SOL    HW2  596   1.623   3.672   3.290
  911SOL     OW  597   1.841   2.037   2.825
  911SOL    HW1  598   1.880   1.952   2.789
  911SOL    HW2  599   1.743   2.039   2.806
  913SOL     OW  600   1.194   3.474   1.893
  913SOL    HW1  601   1.200   3.381   1.930
  913SOL    HW2  602   1.135   3.474   1.813
  915SOL     OW  603   0.916   2.772   2.153
  915SOL    HW1  604   0.979   2.810   2.085
  915SOL    HW2  605   0.956   2.689   2.192
  916SOL     OW  606   1.504   3.469   1.906
  916SOL    HW1  607   1.412   3.506   1.913
  916SOL    HW2  608   1.542   3.489   1.816
  918SOL     OW  609   1.614   3.154   3.151
  918SOL    HW1  610   1.674   3.157   3.231
  918SOL    HW2  611   1.539   3.218   3.164
  919SOL     OW  612   1.039   2.960   2.558
  919SOL    HW1  613   0.969   2.913   2.612
  919SOL    HW2  614   1.098   2.892   2.515
  920SOL     OW  615   1.014   2.098   2.833
  920SOL    HW1  616   1.006   2.062   2.740
  920SOL    HW2  617   1.012   2.022   2.898
  922SOL     OW  618   1.709   2.247   3.243
  922SOL    HW1  619   1.782   2.316   3.247
  922SOL    HW2  620   1.737   2.172   3.184
  927SOL     OW  621   1.440   2.718   3.260
  927SOL    HW1  622   1.383   2.770   3.197
  927SOL    HW2  623   1.536   2.730   3.236
  929SOL     OW  624   1.183   3.197   1.981
  929SOL    HW1  625   1.084   3.186   1.983
  929SOL    HW2  626   1.217   3.212   2.074
  931SOL     OW  627   1.493   3.629   2.821
  931SOL    HW1  628   1.526   3.693   2.752
  931SOL    HW2  629   1.559   3.623   2.896
  933SOL     OW  630   1.450   3.082   3.495
  933SOL    HW1  631   1.441   3.072   3.594
  933SOL    HW2  632   1.546   3.075   3.469
  935SOL     OW  633   1.674   2.745   3.116
  935SOL    HW1  634   1.647   2.656   3.079
  935SOL    HW2  635   1.675   2.813   3.043
  936SOL     OW  636   1.225   2.187   2.311
  936SOL    HW1  637   1.290   2.113   2.300
  936SOL    HW2  638   1.245   2.237   2.395
  937SOL     OW  639   0.594   2.607   2.514
  937SOL    HW1  640   0.644   2.692   2.495
  937SOL    HW2  641   0.506   2.609   2.466
  938SOL     OW  642   1.777   2.204   3.504
  938SOL    HW1  643   1.760   2.235   3.410
  938SOL    HW2  644   1.693   2.167   3.542
  939SOL     OW  645   1.730   2.796   3.379
  939SOL    HW1  646   1.768   2.887   3.394
  939SOL    HW2  647   1.722   2.779   3.280
  942SOL     OW  648   0.859   2.818   2.723
  942SOL    HW1  649   0.913   2.749   2.771
  942SOL    HW2  650   0.827   2.887   2.789
  943SOL     OW  651   1.083   2.846   1.949
  943SOL    HW1  652   1.060   2.899   1.867
  943SOL    HW2  653   1.164   2.790   1.930
  944SOL     OW  654   1.861   3.431   2.713
  944SOL    HW1  655   1.790   3.419   2.643
  944SOL    HW2  656   1.862   3.352   2.773
  948SOL     OW  657   1.824   2.054   3.089
  948SOL    HW1  658   1.820   1.964   3.133
  948SOL    HW2  659   1.827   2.043   2.990
  950SOL     OW  660   1.705   3.349   2.966
  950SOL    HW1  661   1.612   3.324   2.939
  950SOL    HW2  662   1.731   3.299   3.048
  953SOL     OW  663   1.424   2.076   2.974
  953SOL    HW1  664   1.476   2.011   3.029
  953SOL    HW2  665   1.375   2.139   3.035
  954SOL     OW  666   1.001   1.896   3.016
  954SOL    HW1  667   0.938   1.824   2.985
  954SOL    HW2  668   1.094   1.860   3.016
  957SOL     OW  669   1.352   1.914   2.030
  957SOL    HW1  670   1.387   1.873   1.946
  957SOL    HW2  671   1.262   1.876   2.050
  958SOL     OW  672   1.300   2.315   2.553
  958SOL    HW1  673   1.241   2.395   2.557
  958SOL    HW2  674   1.315   2.280   2.646
  959SOL     OW  675   1.593   2.083   2.744
  959SOL    HW1  676   1.509   2.082   2.798
  959SOL    HW2  677   1.595   2.166   2.688
  966SOL     OW  678   1.755   2.469   3.955
  966SOL    HW1  679   1.743   2.456   3.856
  966SOL    HW2  680   1.725   2.388   4.004
 1017SOL     OW  681   1.390   2.437   3.802
 1017SOL    HW1  682   1.336   2.416   3.883
 1017SOL    HW2  683   1.481   2.396   3.811
 1028SOL     OW  684   1.540   2.136   3.849
 1028SOL    HW1  685   1.479   2.061   3.872
 1028SOL    HW2  686   1.562   2.188   3.932
 1029SOL     OW  687   1.303   2.700   3.766
 1029SOL    HW1  688   1.337   2.607   3.781
 1029SOL    HW2  689   1.321   2.727   3.671
 1215SOL     OW  690   1.400   3.831   2.288
 1215SOL    HW1  691   1.376   3.794   2.198
 1215SOL    HW2  692   1.499   3.847   2.292
 1273SOL     OW  693   1.726   3.859   2.385
 1273SOL    HW1  694   1.799   3.842   2.318
 1273SOL    HW2  695   1.695   3.772   2.423
 1275SOL     OW  696   1.841   3.899   2.825
 1275SOL    HW1  697   1.880   3.814   2.789
 1275SOL    HW2  698   1.743   3.901   2.806
 1292SOL     OW  699   1.824   3.916   3.089
 1292SOL    HW1  700   1.820   3.826   3.133
 1292SOL    HW2  701   1.827   3.905   2.990
 1297SOL     OW  702   1.352   3.776   2.030
 1297SOL    HW1  703   1.387   3.735   1.946
 1297SOL    HW2  704   1.262   3.738   2.050
 1299SOL     OW  705   1.593   3.945   2.744
 1299SOL    HW1  706   1.509   3.944   2.798
 1299SOL    HW2  707   1.595   4.028   2.688
 1362SOL     OW  708   2.431   1.275   1.165
 1362SOL    HW1  709   2.338   1.268   1.128
 1362SOL    HW2  710   2.442   1.364   1.209
 1367SOL     OW  711   2.712   0.798   1.823
 1367SOL    HW1  712   2.708   0.874   1.888
 1367SOL    HW2  713   2.734   0.834   1.732
 1369SOL     OW  714   2.548   1.161   1.803
 1369SOL    HW1  715   2.608   1.240   1.817
 1369SOL    HW2  716   2.462   1.192   1.762
 1370SOL     OW  717   2.197   1.435   1.061
 1370SOL    HW1  718   2.119   1.404   1.008
 1370SOL    HW2  719   2.255   1.493   1.004
 1371SOL     OW  720   3.322   1.505   1.339
 1371SOL    HW1  721   3.346   1.599   1.365
 1371SOL    HW2  722   3.306   1.451   1.421
 1375SOL     OW  723   2.989   1.341   1.690
 1375SOL    HW1  724   3.036   1.341   1.778
 1375SOL    HW2  725   2.941   1.254   1.679
 1378SOL     OW  726   2.482   1.786   1.439
 1378SOL    HW1  727   2.390   1.769   1.474
 1378SOL    HW2  728   2.510   1.878   1.465
 1387SOL     OW  729   3.155   1.228   1.423
 1387SOL    HW1  730   3.192   1.155   1.365
 1387SOL    HW2  731   3.207   1.233   1.508
 1391SOL     OW  732   3.049   1.792   1.616
 1391SOL    HW1  733   3.073   1.852   1.540
 1391SOL    HW2  734   3.056   1.697   1.586
 1400SOL     OW  735   2.835   0.890   1.572
 1400SOL    HW1  736   2.881   0.806   1.543
 1400SOL    HW2  737   2.779   0.924   1.497
 1404SOL     OW  738   1.992   1.821   1.571
 1404SOL    HW1  739   1.982   1.806   1.670
 1404SOL    HW2  740   1.906   1.857   1.535
 1410SOL     OW  741   2.213   1.801   0.853
 1410SOL    HW1  742   2.263   1.715   0.859
 1410SOL    HW2  743   2.278   1.878   0.850
 1412SOL     OW  744   3.089   1.550   1.506
 1412SOL    HW1  745   3.095   1.473   1.570
 1412SOL    HW2  746   3.037   1.524   1.426
 1415SOL     OW  747   2.323   1.266   1.727
 1415SOL    HW1  748   2.273   1.267   1.641
 1415SOL    HW2  749   2.260   1.248   1.803
 1421SOL     OW  750   2.111   1.785   1.241
 1421SOL    HW1  751   2.168   1.720   1.291
 1421SOL    HW2  752   2.095   1.752   1.148
 1422SOL     OW  753   2.802   1.698   0.904
 1422SOL    HW1  754   2.882   1.641   0.925
 1422SOL    HW2  755   2.753   1.658   0.827
 1427SOL     OW  756   2.750   1.514   1.195
 1427SOL    HW1  757   2.727   1.489   1.101
 1427SOL    HW2  758   2.811   1.445   1.234
 1429SOL     OW  759   2.665   1.402   0.924
 1429SOL    HW1  760   2.755   1.416   0.882
 1429SOL    HW2  761   2.594   1.404   0.853
 1452SOL     OW  762   2.926   1.347   1.340
 1452SOL    HW1  763   2.846   1.324   1.395
 1452SOL    HW2  764   3.009   1.321   1.389
 1453SOL     OW  765   3.454   1.629   1.625
 1453SOL    HW1  766   3.481   1.663   1.535
 1453SOL    HW2  767   3.533   1.591   1.671
 1457SOL     OW  768   2.842   1.116   1.719
 1457SOL    HW1  769   2.743   1.122   1.729
 1457SOL    HW2  770   2.865   1.036   1.663
 1461SOL     OW  771   1.926   1.564   1.331
 1461SOL    HW1  772   1.880   1.646   1.297
 1461SOL    HW2  773   2.024   1.583   1.340
 1465SOL     OW  774   3.134   1.445   1.142
 1465SOL    HW1  775   3.181   1.458   1.229
 1465SOL    HW2  776   3.068   1.371   1.151
 1467SOL     OW  777   2.216   1.510   1.329
 1467SOL    HW1  778   2.195   1.466   1.242
 1467SOL    HW2  779   2.313   1.536   1.332
 1468SOL     OW  780   2.264   0.751   1.598
 1468SOL    HW1  781   2.332   0.806   1.551
 1468SOL    HW2  782   2.304   0.663   1.625
 1476SOL     OW  783   1.899   1.310   1.282
 1476SOL    HW1  784   1.952   1.261   1.350
 1476SOL    HW2  785   1.921   1.408   1.287
 1482SOL     OW  786   2.842   1.573   1.700
 1482SOL    HW1  787   2.822   1.617   1.612
 1482SOL    HW2  788   2.881   1.482   1.684
 1483SOL     OW  789   3.721   1.518   1.605
 1483SOL    HW1  790   3.735   1.545   1.510
 1483SOL    HW2  791   3.804   1.540   1.658
 1484SOL     OW  792   2.212   0.898   1.804
 1484SOL    HW1  793   2.288   0.942   1.852
 1484SOL    HW2  794   2.247   0.851   1.722
 1493SOL     OW  795   1.950   1.801   0.927
 1493SOL    HW1  796   1.908   1.715   0.900
 1493SOL    HW2  797   2.044   1.804   0.893
 1494SOL     OW  798   2.366   1.568   0.910
 1494SOL    HW1  799   2.432   1.642   0.919
 1494SOL    HW2  800   2.410   1.489   0.868
 1501SOL     OW  801   2.114   1.564   1.744
 1501SOL    HW1  802   2.084   1.621   1.820
 1501SOL    HW2  803   2.107   1.467   1.770
 1503SOL     OW  804   2.792   1.678   1.465
 1503SOL    HW1  805   2.768   1.660   1.370
 1503SOL    HW2  806   2.822   1.772   1.475
 1505SOL     OW  807   2.021   1.137   1.466
 1505SOL    HW1  808   2.043   1.076   1.542
 1505SOL    HW2  809   2.031   1.088   1.380
 1509SOL     OW  810   3.114   1.731   1.128
 1509SOL    HW1  811   3.198   1.736   1.074
 1509SOL    HW2  812   3.091   1.635   1.146
 1511SOL     OW  813   2.550   1.662   1.716
 1511SOL    HW1  814   2.494   1.743   1.725
 1511SOL    HW2  815   2.602   1.666   1.630
 1515SOL     OW  816   1.992   1.794   1.851
 1515SOL    HW1  817   1.951   1.720   1.904
 1515SOL    HW2  818   2.056   1.845   1.909
 1517SOL     OW  819   2.692   1.273   1.422
 1517SOL    HW1  820   2.687   1.306   1.517
 1517SOL    HW2  821   2.606   1.292   1.376
 1519SOL     OW  822   3.512   1.720   1.394
 1519SOL    HW1  823   3.565   1.730   1.310
 1519SOL    HW2  824   3.485   1.810   1.428
 1523SOL     OW  825   2.684   1.002   1.372
 1523SOL    HW1  826   2.724   1.001   1.280
 1523SOL    HW2  827   2.694   1.094   1.412
 1526SOL     OW  828   2.234   1.288   1.490
 1526SOL    HW1  829   2.221   1.381   1.456
 1526SOL    HW2  830   2.150   1.236   1.477
 1533SOL     OW  831   1.967   1.013   1.726
 1533SOL    HW1  832   1.890   0.980   1.780
 1533SOL    HW2  833   2.052   0.983   1.768
 1537SOL     OW  834   2.475   0.842   1.431
 1537SOL    HW1  835   2.531   0.923   1.414
 1537SOL    HW2  836   2.534   0.762   1.434
 1540SOL     OW  837   3.312   1.220   1.633
 1540SOL    HW1  838   3.303   1.210   1.732
 1540SOL    HW2  839   3.408   1.213   1.607
 1541SOL     OW  840   2.252   1.741   1.560
 1541SOL    HW1  841   2.161   1.782   1.558
 1541SOL    HW2  842   2.245   1.647   1.592
 1548SOL     OW  843   2.523   1.790   0.953
 1548SOL    HW1  844   2.477   1.878   0.940
 1548SOL    HW2  845   2.622   1.802   0.946
 1552SOL     OW  846   2.083   1.314   1.844
 1552SOL    HW1  847   2.018   1.241   1.823
 1552SOL    HW2  848   2.087   1.328   1.942
 1554SOL     OW  849   2.534   1.391   1.624
 1554SOL    HW1  850   2.456   1.341   1.662
 1554SOL    HW2  851   2.531   1.486   1.655
 1563SOL     OW  852   2.480   1.567   1.284
 1563SOL    HW1  853   2.475   1.649   1.341
 1563SOL    HW2  854   2.569   1.564   1.239
 1572SOL     OW  855   2.431   1.275   3.027
 1572SOL    HW1  856   2.338   1.268   2.990
 1572SOL    HW2  857   2.442   1.364   3.071
 1573SOL     OW  858   3.417   1.511   2.565
 1573SOL    HW1  859   3.360   1.495   2.646
 1573SOL    HW2  860   3.358   1.521   2.485
 1574SOL     OW  861   2.997   0.703   2.579
 1574SOL    HW1  862   3.054   0.781   2.554
 1574SOL    HW2  863   2.937   0.729   2.655
 1576SOL     OW  864   2.630   1.144   2.885
 1576SOL    HW1  865   2.552   1.161   2.945
 1576SOL    HW2  866   2.664   1.231   2.849
 1578SOL     OW  867   2.547   1.012   2.527
 1578SOL    HW1  868   2.616   0.996   2.597
 1578SOL    HW2  869   2.474   1.069   2.565
 1579SOL     OW  870   2.548   1.161   3.665
 1579SOL    HW1  871   2.608   1.240   3.679
 1579SOL    HW2  872   2.462   1.192   3.624
 1580SOL     OW  873   2.197   1.435   2.923
 1580SOL    HW1  874   2.119   1.404   2.870
 1580SOL    HW2  875   2.255   1.493   2.866
 1581SOL     OW  876   3.322   1.505   3.201
 1581SOL    HW1  877   3.346   1.599   3.227
 1581SOL    HW2  878   3.306   1.451   3.283
 1584SOL     OW  879   2.093   1.713   2.345
 1584SOL    HW1  880   2.127   1.790   2.399
 1584SOL    HW2  881   2.137   1.713   2.255
 1585SOL     OW  882   2.989   1.341   3.552
 1585SOL    HW1  883   3.036   1.341   3.640
 1585SOL    HW2  884   2.941   1.254   3.541
 1586SOL     OW  885   2.092   1.434   2.400
 1586SOL    HW1  886   2.066   1.530   2.400
 1586SOL    HW2  887   2.021   1.380   2.445
 1587SOL     OW  888   2.102   1.091   2.748
 1587SOL    HW1  889   2.116   1.007   2.800
 1587SOL    HW2  890   2.047   1.155   2.803
 1588SOL     OW  891   2.482   1.786   3.301
 1588SOL    HW1  892   2.390   1.769   3.336
 1588SOL    HW2  893   2.510   1.878   3.327
 1589SOL     OW  894   2.468   0.964   1.985
 1589SOL    HW1  895   2.475   1.048   1.931
 1589SOL    HW2  896   2.514   0.977   2.073
 1591SOL     OW  897   1.984   0.643   2.425
 1591SOL    HW1  898   1.939   0.555   2.442
 1591SOL    HW2  899   1.983   0.697   2.509
 1592SOL     OW  900   3.704   1.767   2.221
 1592SOL    HW1  901   3.758   1.738   2.301
 1592SOL    HW2  902   3.734   1.857   2.192
 1593SOL     OW  903   1.889   1.596   1.979
 1593SOL    HW1  904   1.870   1.500   2.000
 1593SOL    HW2  905   1.856   1.654   2.054
 1595SOL     OW  906   3.503   1.108   2.294
 1595SOL    HW1  907   3.589   1.110   2.242
 1595SOL    HW2  908   3.517   1.155   2.382
 1597SOL     OW  909   2.475   1.365   2.588
 1597SOL    HW1  910   2.426   1.278   2.597
 1597SOL    HW2  911   2.452   1.408   2.501
 1598SOL     OW  912   3.155   1.228   3.285
 1598SOL    HW1  913   3.192   1.155   3.227
 1598SOL    HW2  914   3.207   1.233   3.370
 1600SOL     OW  915   2.059   0.976   3.126
 1600SOL    HW1  916   2.148   0.931   3.112
 1600SOL    HW2  917   1.986   0.911   3.107
 1601SOL     OW  918   3.387   0.999   2.052
 1601SOL    HW1  919   3.324   0.923   2.065
 1601SOL    HW2  920   3.435   1.017   2.138
 1602SOL     OW  921   3.049   1.792   3.478
 1602SOL    HW1  922   3.073   1.852   3.402
 1602SOL    HW2  923   3.056   1.697   3.448
 1604SOL     OW  924   3.328   1.417   2.815
 1604SOL    HW1  925   3.269   1.423   2.895
 1604SOL    HW2  926   3.313   1.329   2.769
 1605SOL     OW  927   3.529   1.714   2.434
 1605SOL    HW1  928   3.488   1.691   2.346
 1605SOL    HW2  929   3.511   1.640   2.499
 1606SOL     OW  930   2.460   0.729   2.132
 1606SOL    HW1  931   2.484   0.798   2.064
 1606SOL    HW2  932   2.382   0.762   2.186
 1608SOL     OW  933   3.438   1.662   2.169
 1608SOL    HW1  934   3.527   1.708   2.172
 1608SOL    HW2  935   3.417   1.638   2.074
 1613SOL     OW  936   2.903   0.701   2.291
 1613SOL    HW1  937   2.929   0.697   2.387
 1613SOL    HW2  938   2.818   0.650   2.277
 1614SOL     OW  939   1.938   0.811   2.651
 1614SOL    HW1  940   2.037   0.799   2.660
 1614SOL    HW2  941   1.914   0.906   2.672
 1615SOL     OW  942   1.992   1.821   3.433
 1615SOL    HW1  943   1.982   1.806   3.532
 1615SOL    HW2  944   1.906   1.857   3.397
 1618SOL     OW  945   3.224   1.144   2.407
 1618SOL    HW1  946   3.307   1.115   2.359
 1618SOL    HW2  947   3.175   1.211   2.351
 1620SOL     OW  948   2.870   1.456   2.339
 1620SOL    HW1  949   2.824   1.528   2.287
 1620SOL    HW2  950   2.866   1.476   2.437
 1621SOL     OW  951   2.213   1.801   2.715
 1621SOL    HW1  952   2.263   1.715   2.721
 1621SOL    HW2  953   2.278   1.878   2.712
 1623SOL     OW  954   3.089   1.550   3.368
 1623SOL    HW1  955   3.095   1.473   3.432
 1623SOL    HW2  956   3.037   1.524   3.288
 1624SOL     OW  957   2.183   0.943   2.104
 1624SOL    HW1  958   2.265   0.982   2.062
 1624SOL    HW2  959   2.156   0.861   2.055
 1626SOL     OW  960   2.323   1.266   3.589
 1626SOL    HW1  961   2.273   1.267   3.503
 1626SOL    HW2  962   2.260   1.248   3.665
 1627SOL     OW  963   2.973   1.776   2.099
 1627SOL    HW1  964   2.913   1.714   2.149
 1627SOL    HW2  965   3.004   1.732   2.014
 1629SOL     OW  966   3.494   1.377   1.943
 1629SOL    HW1  967   3.462   1.471   1.933
 1629SOL    HW2  968   3.418   1.314   1.931
 1630SOL     OW  969   2.326   1.743   2.185
 1630SOL    HW1  970   2.359   1.782   2.271
 1630SOL    HW2  971   2.402   1.736   2.120
 1632SOL     OW  972   2.111   1.785   3.103
 1632SOL    HW1  973   2.168   1.720   3.153
 1632SOL    HW2  974   2.095   1.752   3.010
 1633SOL     OW  975   2.802   1.698   2.766
 1633SOL    HW1  976   2.882   1.641   2.787
 1633SOL    HW2  977   2.753   1.658   2.689
 1634SOL     OW  978   2.244   0.700   2.342
 1634SOL    HW1  979   2.289   0.610   2.339
 1634SOL    HW2  980   2.150   0.689   2.375
 1638SOL     OW  981   2.750   1.514   3.057
 1638SOL    HW1  982   2.727   1.489   2.963
 1638SOL    HW2  983   2.811   1.445   3.096
 1640SOL     OW  984   2.665   1.402   2.786
 1640SOL    HW1  985   2.755   1.416   2.744
 1640SOL    HW2  986   2.594   1.404   2.715
 1643SOL     OW  987   3.296   1.188   1.903
 1643SOL    HW1  988   3.328   1.112   1.960
 1643SOL    HW2  989   3.204   1.215   1.933
 1647SOL     OW  990   3.089   1.570   2.655
 1647SOL    HW1  991   3.110   1.644   2.590
 1647SOL    HW2  992   3.157   1.570   2.728
 1648SOL     OW  993   2.321   1.152   2.603
 1648SOL    HW1  994   2.250   1.125   2.668
 1648SOL    HW2  995   2.295   1.124   2.510
 1649SOL     OW  996   3.133   1.797   2.453
 1649SOL    HW1  997   3.177   1.861   2.389
 1649SOL    HW2  998   3.083   1.849   2.523
 1655SOL     OW  999   3.291   1.173   2.729
 1655SOL    HW1 1000   3.236   1.089   2.722
 1655SOL    HW2 1001   3.317   1.202   2.637
 1658SOL     OW 1002   2.350   1.385   2.036
 1658SOL    HW1 1003   2.263   1.370   2.083
 1658SOL    HW2 1004   2.333   1.411   1.941
 1659SOL     OW 1005   3.526   1.280   2.519
 1659SOL    HW1 1006   3.625   1.288   2.533
 1659SOL    HW2 1007   3.481   1.364   2.550
 1663SOL     OW 1008   2.926   1.347   3.202
 1663SOL    HW1 1009   2.846   1.324   3.257
 1663SOL    HW2 1010   3.009   1.321   3.251
 1664SOL     OW 1011   3.454   1.629   3.487
 1664SOL    HW1 1012   3.481   1.663   3.397
 1664SOL    HW2 1013   3.533   1.591   3.533
 1665SOL     OW 1014   2.973   1.195   2.962
 1665SOL    HW1 1015   2.933   1.239   3.043
 1665SOL    HW2 1016   2.932   1.232   2.879
 1666SOL     OW 1017   3.500   1.099   2.941
 1666SOL    HW1 1018   3.505   1.180   3.000
 1666SOL    HW2 1019   3.414   1.101   2.890
 1669SOL     OW 1020   2.567   1.050   2.230
 1669SOL    HW1 1021   2.553   1.057   2.329
 1669SOL    HW2 1022   2.651   0.999   2.212
 1670SOL     OW 1023   2.272   0.813   3.113
 1670SOL    HW1 1024   2.358   0.825   3.163
 1670SOL    HW2 1025   2.230   0.726   3.140
 1672SOL     OW 1026   1.926   1.564   3.193
 1672SOL    HW1 1027   1.880   1.646   3.159
 1672SOL    HW2 1028   2.024   1.583   3.202
 1673SOL     OW 1029   2.229   1.100   2.363
 1673SOL    HW1 1030   2.222   1.183   2.307
 1673SOL    HW2 1031   2.233   1.020   2.303
 1675SOL     OW 1032   3.114   1.348   2.250
 1675SOL    HW1 1033   3.164   1.425   2.290
 1675SOL    HW2 1034   3.019   1.350   2.282
 1676SOL     OW 1035   3.134   1.445   3.004
 1676SOL    HW1 1036   3.181   1.458   3.091
 1676SOL    HW2 1037   3.068   1.371   3.013
 1678SOL     OW 1038   2.216   1.510   3.191
 1678SOL    HW1 1039   2.195   1.466   3.104
 1678SOL    HW2 1040   2.313   1.536   3.194
 1683SOL     OW 1041   2.435   0.870   2.891
 1683SOL    HW1 1042   2.479   0.959   2.882
 1683SOL    HW2 1043   2.372   0.870   2.968
 1687SOL     OW 1044   1.899   1.310   3.144
 1687SOL    HW1 1045   1.952   1.261   3.212
 1687SOL    HW2 1046   1.921   1.408   3.149
 1692SOL     OW 1047   2.885   0.766   2.828
 1692SOL    HW1 1048   2.900   0.787   2.924
 1692SOL    HW2 1049   2.855   0.671   2.819
 1693SOL     OW 1050   2.842   1.573   3.562
 1693SOL    HW1 1051   2.822   1.617   3.474
 1693SOL    HW2 1052   2.881   1.482   3.546
 1697SOL     OW 1053   3.165   0.838   1.904
 1697SOL    HW1 1054   3.199   0.745   1.919
 1697SOL    HW2 1055   3.183   0.865   1.809
 1698SOL     OW 1056   2.930   1.333   2.711
 1698SOL    HW1 1057   2.937   1.249   2.656
 1698SOL    HW2 1058   2.992   1.402   2.675
 1699SOL     OW 1059   2.181   0.810   2.811
 1699SOL    HW1 1060   2.274   0.846   2.816
 1699SOL    HW2 1061   2.175   0.725   2.863
 1703SOL     OW 1062   1.870   1.326   2.062
 1703SOL    HW1 1063   1.777   1.347   2.031
 1703SOL    HW2 1064   1.880   1.227   2.075
 1704SOL     OW 1065   1.950   1.801   2.789
 1704SOL    HW1 1066   1.908   1.715   2.762
 1704SOL    HW2 1067   2.044   1.804   2.755
 1705SOL     OW 1068   2.366   1.568   2.772
 1705SOL    HW1 1069   2.432   1.642   2.781
 1705SOL    HW2 1070   2.410   1.489   2.730
 1712SOL     OW 1071   2.114   1.564   3.606
 1712SOL    HW1 1072   2.084   1.621   3.682
 1712SOL    HW2 1073   2.107   1.467   3.632
 1714SOL     OW 1074   2.792   1.678   3.327
 1714SOL    HW1 1075   2.768   1.660   3.232
 1714SOL    HW2 1076   2.822   1.772   3.337
 1716SOL     OW 1077   2.021   1.137   3.328
 1716SOL    HW1 1078   2.043   1.076   3.404
 1716SOL    HW2 1079   2.031   1.088   3.242
 1717SOL     OW 1080   3.209   1.059   3.096
 1717SOL    HW1 1081   3.233   0.996   3.022
 1717SOL    HW2 1082   3.119   1.099   3.078
 1718SOL     OW 1083   3.164   0.855   2.171
 1718SOL    HW1 1084   3.078   0.824   2.213
 1718SOL    HW2 1085   3.160   0.841   2.072
 1719SOL     OW 1086   3.621   1.747   3.016
 1719SOL    HW1 1087   3.682   1.777   2.943
 1719SOL    HW2 1088   3.583   1.658   2.994
 1720SOL     OW 1089   3.114   1.731   2.990
 1720SOL    HW1 1090   3.198   1.736   2.936
 1720SOL    HW2 1091   3.091   1.635   3.008
 1721SOL     OW 1092   1.945   1.258   2.884
 1721SOL    HW1 1093   1.940   1.257   2.984
 1721SOL    HW2 1094   1.862   1.217   2.846
 1722SOL     OW 1095   2.550   1.662   3.578
 1722SOL    HW1 1096   2.494   1.743   3.587
 1722SOL    HW2 1097   2.602   1.666   3.492
 1724SOL     OW 1098   3.250   1.573   2.339
 1724SOL    HW1 1099   3.317   1.585   2.265
 1724SOL    HW2 1100   3.210   1.662   2.362
 1725SOL     OW 1101   1.992   1.794   3.713
 1725SOL    HW1 1102   1.951   1.720   3.766
 1725SOL    HW2 1103   2.056   1.845   3.771
 1726SOL     OW 1104   3.142   0.927   2.534
 1726SOL    HW1 1105   3.202   0.846   2.536
 1726SOL    HW2 1106   3.182   0.996   2.474
 1727SOL     OW 1107   2.692   1.273   3.284
 1727SOL    HW1 1108   2.687   1.306   3.379
 1727SOL    HW2 1109   2.606   1.292   3.238
 1728SOL     OW 1110   2.534   1.616   2.016
 1728SOL    HW1 1111   2.543   1.626   1.917
 1728SOL    HW2 1112   2.494   1.527   2.037
 1729SOL     OW 1113   3.512   1.720   3.256
 1729SOL    HW1 1114   3.565   1.730   3.172
 1729SOL    HW2 1115   3.485   1.810   3.290
 1732SOL     OW 1116   3.056   1.612   1.893
 1732SOL    HW1 1117   3.062   1.519   1.930
 1732SOL    HW2 1118   2.997   1.612   1.813
 1733SOL     OW 1119   2.684   1.002   3.234
 1733SOL    HW1 1120   2.724   1.001   3.142
 1733SOL    HW2 1121   2.694   1.094   3.274
 1734SOL     OW 1122   2.778   0.910   2.153
 1734SOL    HW1 1123   2.841   0.948   2.085
 1734SOL    HW2 1124   2.818   0.827   2.192
 1735SOL     OW 1125   3.366   1.607   1.906
 1735SOL    HW1 1126   3.274   1.644   1.913
 1735SOL    HW2 1127   3.404   1.627   1.816
 1736SOL     OW 1128   2.234   1.288   3.352
 1736SOL    HW1 1129   2.221   1.381   3.318
 1736SOL    HW2 1130   2.150   1.236   3.339
 1737SOL     OW 1131   3.476   1.292   3.151
 1737SOL    HW1 1132   3.536   1.295   3.231
 1737SOL    HW2 1133   3.401   1.356   3.164
 1738SOL     OW 1134   2.901   1.098   2.558
 1738SOL    HW1 1135   2.831   1.051   2.612
 1738SOL    HW2 1136   2.960   1.030   2.515
 1740SOL     OW 1137   2.452   1.487   2.353
 1740SOL    HW1 1138   2.494   1.429   2.283
 1740SOL    HW2 1139   2.408   1.566   2.309
 1742SOL     OW 1140   2.117   1.348   2.152
 1742SOL    HW1 1141   2.021   1.349   2.125
 1742SOL    HW2 1142   2.129   1.401   2.236
 1748SOL     OW 1143   3.045   1.335   1.981
 1748SOL    HW1 1144   2.946   1.324   1.983
 1748SOL    HW2 1145   3.079   1.350   2.074
 1749SOL     OW 1146   2.475   0.842   3.293
 1749SOL    HW1 1147   2.531   0.923   3.276
 1749SOL    HW2 1148   2.534   0.762   3.296
 1750SOL     OW 1149   3.355   1.767   2.821
 1750SOL    HW1 1150   3.388   1.831   2.752
 1750SOL    HW2 1151   3.421   1.761   2.896
 1753SOL     OW 1152   2.252   1.741   3.422
 1753SOL    HW1 1153   2.161   1.782   3.420
 1753SOL    HW2 1154   2.245   1.647   3.454
 1756SOL     OW 1155   2.456   0.745   2.514
 1756SOL    HW1 1156   2.506   0.830   2.495
 1756SOL    HW2 1157   2.368   0.747   2.466
 1759SOL     OW 1158   2.721   1.374   1.878
 1759SOL    HW1 1159   2.675   1.389   1.966
 1759SOL    HW2 1160   2.765   1.459   1.848
 1760SOL     OW 1161   2.523   1.790   2.815
 1760SOL    HW1 1162   2.477   1.878   2.802
 1760SOL    HW2 1163   2.622   1.802   2.808
 1761SOL     OW 1164   2.721   0.956   2.723
 1761SOL    HW1 1165   2.775   0.887   2.771
 1761SOL    HW2 1166   2.689   1.025   2.789
 1762SOL     OW 1167   2.945   0.984   1.949
 1762SOL    HW1 1168   2.922   1.037   1.867
 1762SOL    HW2 1169   3.026   0.928   1.930
 1763SOL     OW 1170   3.723   1.569   2.713
 1763SOL    HW1 1171   3.652   1.557   2.643
 1763SOL    HW2 1172   3.724   1.490   2.773
 1764SOL     OW 1173   2.083   1.314   3.706
 1764SOL    HW1 1174   2.018   1.241   3.685
 1764SOL    HW2 1175   2.087   1.328   3.804
 1765SOL     OW 1176   1.941   1.240   2.515
 1765SOL    HW1 1177   1.940   1.193   2.603
 1765SOL    HW2 1178   2.023   1.212   2.464
 1766SOL     OW 1179   2.534   1.391   3.486
 1766SOL    HW1 1180   2.456   1.341   3.524
 1766SOL    HW2 1181   2.531   1.486   3.517
 1769SOL     OW 1182   3.567   1.487   2.966
 1769SOL    HW1 1183   3.474   1.462   2.939
 1769SOL    HW2 1184   3.593   1.437   3.048
 1771SOL     OW 1185   2.674   1.586   2.549
 1771SOL    HW1 1186   2.706   1.596   2.455
 1771SOL    HW2 1187   2.595   1.524   2.551
 1774SOL     OW 1188   2.632   1.330   2.163
 1774SOL    HW1 1189   2.586   1.243   2.180
 1774SOL    HW2 1190   2.723   1.327   2.204
 1775SOL     OW 1191   2.480   1.567   3.146
 1775SOL    HW1 1192   2.475   1.649   3.203
 1775SOL    HW2 1193   2.569   1.564   3.101
 1779SOL     OW 1194   1.901   1.077   2.162
 1779SOL    HW1 1195   2.000   1.066   2.153
 1779SOL    HW2 1196   1.861   0.991   2.194
 1780SOL     OW 1197   2.737   1.646   2.199
 1780SOL    HW1 1198   2.660   1.611   2.145
 1780SOL    HW2 1199   2.705   1.717   2.261
 1796SOL     OW 1200   1.889   1.596   3.841
 1796SOL    HW1 1201   1.870   1.500   3.862
 1796SOL    HW2 1202   1.856   1.654   3.916
 1818SOL     OW 1203   2.326   1.743   4.047
 1818SOL    HW1 1204   2.359   1.782   4.133
 1818SOL    HW2 1205   2.402   1.736   3.982
 1862SOL     OW 1206   2.534   1.616   3.878
 1862SOL    HW1 1207   2.543   1.626   3.779
 1862SOL    HW2 1208   2.494   1.527   3.899
 1865SOL     OW 1209   3.056   1.612   3.755
 1865SOL    HW1 1210   3.062   1.519   3.792
 1865SOL    HW2 1211   2.997   1.612   3.675
 1877SOL     OW 1212   2.721   1.374   3.740
 1877SOL    HW1 1213   2.675   1.389   3.828
 1877SOL    HW2 1214   2.765   1.459   3.710
 1893SOL     OW 1215   2.087   2.137   0.996
 1893SOL    HW1 1216   2.122   2.120   1.088
 1893SOL    HW2 1217   1.999   2.092   0.984
 1894SOL     OW 1218   1.881   2.230   0.647
 1894SOL    HW1 1219   1.799   2.273   0.686
 1894SOL    HW2 1220   1.853   2.157   0.584
 1895SOL     OW 1221   2.431   3.137   1.165
 1895SOL    HW1 1222   2.338   3.130   1.128
 1895SOL    HW2 1223   2.442   3.226   1.209
 1897SOL     OW 1224   2.997   2.565   0.717
 1897SOL    HW1 1225   3.054   2.643   0.692
 1897SOL    HW2 1226   2.937   2.591   0.793
 1899SOL     OW 1227   2.630   3.006   1.023
 1899SOL    HW1 1228   2.552   3.023   1.083
 1899SOL    HW2 1229   2.664   3.093   0.987
 1900SOL     OW 1230   2.712   2.660   1.823
 1900SOL    HW1 1231   2.708   2.736   1.888
 1900SOL    HW2 1232   2.734   2.696   1.732
 1901SOL     OW 1233   2.547   2.874   0.665
 1901SOL    HW1 1234   2.616   2.858   0.735
 1901SOL    HW2 1235   2.474   2.931   0.703
 1902SOL     OW 1236   2.548   3.023   1.803
 1902SOL    HW1 1237   2.608   3.102   1.817
 1902SOL    HW2 1238   2.462   3.054   1.762
 1903SOL     OW 1239   2.197   3.297   1.061
 1903SOL    HW1 1240   2.119   3.266   1.008
 1903SOL    HW2 1241   2.255   3.355   1.004
 1904SOL     OW 1242   3.322   3.367   1.339
 1904SOL    HW1 1243   3.346   3.461   1.365
 1904SOL    HW2 1244   3.306   3.313   1.421
 1905SOL     OW 1245   2.300   2.254   1.499
 1905SOL    HW1 1246   2.382   2.198   1.508
 1905SOL    HW2 1247   2.219   2.196   1.503
 1908SOL     OW 1248   2.989   3.203   1.690
 1908SOL    HW1 1249   3.036   3.203   1.778
 1908SOL    HW2 1250   2.941   3.116   1.679
 1910SOL     OW 1251   2.102   2.953   0.886
 1910SOL    HW1 1252   2.116   2.869   0.938
 1910SOL    HW2 1253   2.047   3.017   0.941
 1911SOL     OW 1254   2.482   3.648   1.439
 1911SOL    HW1 1255   2.390   3.631   1.474
 1911SOL    HW2 1256   2.510   3.740   1.465
 1913SOL     OW 1257   3.456   1.976   1.480
 1913SOL    HW1 1258   3.438   2.043   1.408
 1913SOL    HW2 1259   3.453   2.022   1.569
 1918SOL     OW 1260   1.975   2.599   1.597
 1918SOL    HW1 1261   2.063   2.586   1.642
 1918SOL    HW2 1262   1.962   2.696   1.575
 1920SOL     OW 1263   3.155   3.090   1.423
 1920SOL    HW1 1264   3.192   3.017   1.365
 1920SOL    HW2 1265   3.207   3.095   1.508
 1922SOL     OW 1266   2.059   2.838   1.264
 1922SOL    HW1 1267   2.148   2.793   1.250
 1922SOL    HW2 1268   1.986   2.773   1.245
 1924SOL     OW 1269   3.049   3.654   1.616
 1924SOL    HW1 1270   3.073   3.714   1.540
 1924SOL    HW2 1271   3.056   3.559   1.586
 1925SOL     OW 1272   2.179   2.113   1.801
 1925SOL    HW1 1273   2.250   2.184   1.807
 1925SOL    HW2 1274   2.091   2.152   1.829
 1929SOL     OW 1275   3.143   2.207   0.944
 1929SOL    HW1 1276   3.057   2.157   0.931
 1929SOL    HW2 1277   3.205   2.153   1.000
 1931SOL     OW 1278   2.669   2.467   1.465
 1931SOL    HW1 1279   2.622   2.464   1.554
 1931SOL    HW2 1280   2.618   2.412   1.399
 1932SOL     OW 1281   3.256   2.331   1.674
 1932SOL    HW1 1282   3.236   2.374   1.762
 1932SOL    HW2 1283   3.334   2.269   1.683
 1933SOL     OW 1284   2.835   2.752   1.572
 1933SOL    HW1 1285   2.881   2.668   1.543
 1933SOL    HW2 1286   2.779   2.786   1.497
 1934SOL     OW 1287   2.853   2.272   1.242
 1934SOL    HW1 1288   2.776   2.306   1.296
 1934SOL    HW2 1289   2.819   2.221   1.163
 1936SOL     OW 1290   1.938   2.673   0.789
 1936SOL    HW1 1291   2.037   2.661   0.798
 1936SOL    HW2 1292   1.914   2.768   0.810
 1937SOL     OW 1293   1.992   3.683   1.571
 1937SOL    HW1 1294   1.982   3.668   1.670
 1937SOL    HW2 1295   1.906   3.719   1.535
 1939SOL     OW 1296   3.581   2.447   1.831
 1939SOL    HW1 1297   3.555   2.536   1.795
 1939SOL    HW2 1298   3.579   2.379   1.758
 1941SOL     OW 1299   2.412   2.058   0.885
 1941SOL    HW1 1300   2.407   2.053   0.985
 1941SOL    HW2 1301   2.414   2.154   0.856
 1945SOL     OW 1302   3.089   3.412   1.506
 1945SOL    HW1 1303   3.095   3.335   1.570
 1945SOL    HW2 1304   3.037   3.386   1.426
 1948SOL     OW 1305   2.323   3.128   1.727
 1948SOL    HW1 1306   2.273   3.129   1.641
 1948SOL    HW2 1307   2.260   3.110   1.803
 1950SOL     OW 1308   2.064   2.147   1.498
 1950SOL    HW1 1309   1.984   2.207   1.485
 1950SOL    HW2 1310   2.054   2.098   1.584
 1954SOL     OW 1311   2.111   3.647   1.241
 1954SOL    HW1 1312   2.168   3.582   1.291
 1954SOL    HW2 1313   2.095   3.614   1.148
 1957SOL     OW 1314   3.409   2.084   1.729
 1957SOL    HW1 1315   3.404   2.121   1.821
 1957SOL    HW2 1316   3.337   2.015   1.717
 1959SOL     OW 1317   2.643   2.126   1.749
 1959SOL    HW1 1318   2.710   2.065   1.792
 1959SOL    HW2 1319   2.570   2.145   1.814
 1960SOL     OW 1320   2.750   3.376   1.195
 1960SOL    HW1 1321   2.727   3.351   1.101
 1960SOL    HW2 1322   2.811   3.307   1.234
 1961SOL     OW 1323   3.213   2.452   1.433
 1961SOL    HW1 1324   3.241   2.409   1.518
 1961SOL    HW2 1325   3.238   2.548   1.434
 1962SOL     OW 1326   2.665   3.264   0.924
 1962SOL    HW1 1327   2.755   3.278   0.882
 1962SOL    HW2 1328   2.594   3.266   0.853
 1963SOL     OW 1329   2.784   2.365   0.899
 1963SOL    HW1 1330   2.759   2.356   0.803
 1963SOL    HW2 1331   2.832   2.283   0.930
 1968SOL     OW 1332   2.938   2.545   1.464
 1968SOL    HW1 1333   2.858   2.484   1.467
 1968SOL    HW2 1334   3.019   2.492   1.440
 1970SOL     OW 1335   2.321   3.014   0.741
 1970SOL    HW1 1336   2.250   2.987   0.806
 1970SOL    HW2 1337   2.295   2.986   0.648
 1973SOL     OW 1338   1.940   2.418   1.386
 1973SOL    HW1 1339   2.032   2.417   1.345
 1973SOL    HW2 1340   1.934   2.492   1.453
 1974SOL     OW 1341   2.423   2.084   1.147
 1974SOL    HW1 1342   2.461   2.000   1.184
 1974SOL    HW2 1343   2.335   2.103   1.191
 1975SOL     OW 1344   2.728   2.316   0.642
 1975SOL    HW1 1345   2.696   2.388   0.580
 1975SOL    HW2 1346   2.752   2.235   0.589
 1976SOL     OW 1347   2.879   1.901   0.753
 1976SOL    HW1 1348   2.807   1.906   0.684
 1976SOL    HW2 1349   2.855   1.832   0.822
 1978SOL     OW 1350   3.328   2.452   0.992
 1978SOL    HW1 1351   3.298   2.357   0.999
 1978SOL    HW2 1352   3.401   2.468   1.058
 1984SOL     OW 1353   3.616   3.085   1.588
 1984SOL    HW1 1354   3.707   3.046   1.575
 1984SOL    HW2 1355   3.624   3.181   1.612
 1985SOL     OW 1356   2.926   3.209   1.340
 1985SOL    HW1 1357   2.846   3.186   1.395
 1985SOL    HW2 1358   3.009   3.183   1.389
 1986SOL     OW 1359   3.454   3.491   1.625
 1986SOL    HW1 1360   3.481   3.525   1.535
 1986SOL    HW2 1361   3.533   3.453   1.671
 1987SOL     OW 1362   2.973   3.057   1.100
 1987SOL    HW1 1363   2.933   3.101   1.181
 1987SOL    HW2 1364   2.932   3.094   1.017
 1989SOL     OW 1365   2.777   1.951   1.402
 1989SOL    HW1 1366   2.802   1.931   1.307
 1989SOL    HW2 1367   2.849   2.007   1.444
 1990SOL     OW 1368   2.842   2.978   1.719
 1990SOL    HW1 1369   2.743   2.984   1.729
 1990SOL    HW2 1370   2.865   2.898   1.663
 1992SOL     OW 1371   2.272   2.675   1.251
 1992SOL    HW1 1372   2.358   2.687   1.301
 1992SOL    HW2 1373   2.230   2.588   1.278
 1993SOL     OW 1374   3.136   2.248   1.262
 1993SOL    HW1 1375   3.157   2.322   1.326
 1993SOL    HW2 1376   3.047   2.265   1.219
 1994SOL     OW 1377   1.926   3.426   1.331
 1994SOL    HW1 1378   1.880   3.508   1.297
 1994SOL    HW2 1379   2.024   3.445   1.340
 1996SOL     OW 1380   2.428   2.399   0.865
 1996SOL    HW1 1381   2.440   2.465   0.791
 1996SOL    HW2 1382   2.474   2.433   0.948
 1998SOL     OW 1383   3.134   3.307   1.142
 1998SOL    HW1 1384   3.181   3.320   1.229
 1998SOL    HW2 1385   3.068   3.233   1.151
 2000SOL     OW 1386   2.216   3.372   1.329
 2000SOL    HW1 1387   2.195   3.328   1.242
 2000SOL    HW2 1388   2.313   3.398   1.332
 2001SOL     OW 1389   2.264   2.613   1.598
 2001SOL    HW1 1390   2.332   2.668   1.551
 2001SOL    HW2 1391   2.304   2.525   1.625
 2002SOL     OW 1392   3.449   2.641   1.670
 2002SOL    HW1 1393   3.357   2.679   1.665
 2002SOL    HW2 1394   3.509   2.688   1.605
 2003SOL     OW 1395   2.875   1.967   1.770
 2003SOL    HW1 1396   2.881   2.052   1.718
 2003SOL    HW2 1397   2.907   1.891   1.713
 2004SOL     OW 1398   2.366   1.912   1.740
 2004SOL    HW1 1399   2.324   1.855   1.670
 2004SOL    HW2 1400   2.300   1.981   1.772
 2005SOL     OW 1401   2.435   2.732   1.029
 2005SOL    HW1 1402   2.479   2.821   1.020
 2005SOL    HW2 1403   2.372   2.732   1.106
 2006SOL     OW 1404   3.222   2.724   1.045
 2006SOL    HW1 1405   3.147   2.724   0.979
 2006SOL    HW2 1406   3.259   2.632   1.054
 2008SOL     OW 1407   2.169   2.075   1.231
 2008SOL    HW1 1408   2.146   2.112   1.321
 2008SOL    HW2 1409   2.139   1.980   1.225
 2009SOL     OW 1410   1.899   3.172   1.282
 2009SOL    HW1 1411   1.952   3.123   1.350
 2009SOL    HW2 1412   1.921   3.270   1.287
 2010SOL     OW 1413   2.594   2.496   1.064
 2010SOL    HW1 1414   2.653   2.470   0.988
 2010SOL    HW2 1415   2.566   2.592   1.053
 2011SOL     OW 1416   3.590   2.797   1.854
 2011SOL    HW1 1417   3.544   2.790   1.765
 2011SOL    HW2 1418   3.528   2.841   1.920
 2014SOL     OW 1419   2.885   2.628   0.966
 2014SOL    HW1 1420   2.900   2.649   1.062
 2014SOL    HW2 1421   2.855   2.533   0.957
 2015SOL     OW 1422   2.842   3.435   1.700
 2015SOL    HW1 1423   2.822   3.479   1.612
 2015SOL    HW2 1424   2.881   3.344   1.684
 2017SOL     OW 1425   2.212   2.760   1.804
 2017SOL    HW1 1426   2.288   2.804   1.852
 2017SOL    HW2 1427   2.247   2.713   1.722
 2021SOL     OW 1428   2.181   2.672   0.949
 2021SOL    HW1 1429   2.274   2.708   0.954
 2021SOL    HW2 1430   2.175   2.587   1.001
 2022SOL     OW 1431   2.201   2.371   1.006
 2022SOL    HW1 1432   2.149   2.288   0.989
 2022SOL    HW2 1433   2.278   2.376   0.942
 2023SOL     OW 1434   3.000   2.242   1.678
 2023SOL    HW1 1435   2.955   2.305   1.742
 2023SOL    HW2 1436   3.093   2.273   1.661
 2024SOL     OW 1437   3.022   2.069   1.477
 2024SOL    HW1 1438   3.022   2.133   1.554
 2024SOL    HW2 1439   3.050   2.117   1.394
 2028SOL     OW 1440   2.864   2.658   1.238
 2028SOL    HW1 1441   2.905   2.626   1.324
 2028SOL    HW2 1442   2.768   2.631   1.235
 2029SOL     OW 1443   1.902   2.406   1.114
 2029SOL    HW1 1444   1.987   2.373   1.073
 2029SOL    HW2 1445   1.915   2.421   1.212
 2030SOL     OW 1446   2.051   2.382   1.722
 2030SOL    HW1 1447   2.110   2.342   1.652
 2030SOL    HW2 1448   1.993   2.453   1.681
 2031SOL     OW 1449   3.231   2.812   1.660
 2031SOL    HW1 1450   3.270   2.901   1.680
 2031SOL    HW2 1451   3.241   2.792   1.563
 2033SOL     OW 1452   3.519   2.466   1.206
 2033SOL    HW1 1453   3.481   2.397   1.268
 2033SOL    HW2 1454   3.601   2.430   1.162
 2034SOL     OW 1455   2.114   3.426   1.744
 2034SOL    HW1 1456   2.084   3.483   1.820
 2034SOL    HW2 1457   2.107   3.329   1.770
 2035SOL     OW 1458   2.533   2.326   1.269
 2035SOL    HW1 1459   2.499   2.237   1.239
 2035SOL    HW2 1460   2.559   2.380   1.189
 2036SOL     OW 1461   2.792   3.540   1.465
 2036SOL    HW1 1462   2.768   3.522   1.370
 2036SOL    HW2 1463   2.822   3.634   1.475
 2038SOL     OW 1464   2.021   2.999   1.466
 2038SOL    HW1 1465   2.043   2.938   1.542
 2038SOL    HW2 1466   2.031   2.950   1.380
 2039SOL     OW 1467   3.209   2.921   1.234
 2039SOL    HW1 1468   3.233   2.858   1.160
 2039SOL    HW2 1469   3.119   2.961   1.216
 2043SOL     OW 1470   1.945   3.120   1.022
 2043SOL    HW1 1471   1.940   3.119   1.122
 2043SOL    HW2 1472   1.862   3.079   0.984
 2044SOL     OW 1473   2.550   3.524   1.716
 2044SOL    HW1 1474   2.494   3.605   1.725
 2044SOL    HW2 1475   2.602   3.528   1.630
 2048SOL     OW 1476   1.992   3.656   1.851
 2048SOL    HW1 1477   1.951   3.582   1.904
 2048SOL    HW2 1478   2.056   3.707   1.909
 2050SOL     OW 1479   2.692   3.135   1.422
 2050SOL    HW1 1480   2.687   3.168   1.517
 2050SOL    HW2 1481   2.606   3.154   1.376
 2054SOL     OW 1482   2.125   2.188   0.720
 2054SOL    HW1 1483   2.046   2.239   0.686
 2054SOL    HW2 1484   2.116   2.173   0.818
 2056SOL     OW 1485   2.684   2.864   1.372
 2056SOL    HW1 1486   2.724   2.863   1.280
 2056SOL    HW2 1487   2.694   2.956   1.412
 2059SOL     OW 1488   2.234   3.150   1.490
 2059SOL    HW1 1489   2.221   3.243   1.456
 2059SOL    HW2 1490   2.150   3.098   1.477
 2060SOL     OW 1491   3.476   3.154   1.289
 2060SOL    HW1 1492   3.536   3.157   1.369
 2060SOL    HW2 1493   3.401   3.218   1.302
 2062SOL     OW 1494   2.876   2.098   0.971
 2062SOL    HW1 1495   2.868   2.062   0.878
 2062SOL    HW2 1496   2.874   2.022   1.036
 2064SOL     OW 1497   3.571   2.247   1.381
 2064SOL    HW1 1498   3.644   2.316   1.385
 2064SOL    HW2 1499   3.599   2.172   1.322
 2066SOL     OW 1500   1.967   2.875   1.726
 2066SOL    HW1 1501   1.890   2.842   1.780
 2066SOL    HW2 1502   2.052   2.845   1.768
 2067SOL     OW 1503   2.534   2.065   1.489
 2067SOL    HW1 1504   2.624   2.049   1.449
 2067SOL    HW2 1505   2.542   2.070   1.588
 2068SOL     OW 1506   3.302   2.718   1.398
 2068SOL    HW1 1507   3.245   2.770   1.335
 2068SOL    HW2 1508   3.398   2.730   1.374
 2070SOL     OW 1509   2.475   2.704   1.431
 2070SOL    HW1 1510   2.531   2.785   1.414
 2070SOL    HW2 1511   2.534   2.624   1.434
 2072SOL     OW 1512   2.578   2.427   1.708
 2072SOL    HW1 1513   2.597   2.492   1.782
 2072SOL    HW2 1514   2.638   2.347   1.717
 2073SOL     OW 1515   3.312   3.082   1.633
 2073SOL    HW1 1516   3.303   3.072   1.732
 2073SOL    HW2 1517   3.408   3.075   1.607
 2074SOL     OW 1518   2.252   3.603   1.560
 2074SOL    HW1 1519   2.161   3.644   1.558
 2074SOL    HW2 1520   2.245   3.509   1.592
 2075SOL     OW 1521   3.536   2.745   1.254
 2075SOL    HW1 1522   3.509   2.656   1.217
 2075SOL    HW2 1523   3.537   2.813   1.181
 2077SOL     OW 1524   2.456   2.607   0.652
 2077SOL    HW1 1525   2.506   2.692   0.633
 2077SOL    HW2 1526   2.368   2.609   0.604
 2078SOL     OW 1527   3.639   2.204   1.642
 2078SOL    HW1 1528   3.622   2.235   1.548
 2078SOL    HW2 1529   3.555   2.167   1.680
 2079SOL     OW 1530   3.592   2.796   1.517
 2079SOL    HW1 1531   3.630   2.887   1.532
 2079SOL    HW2 1532   3.584   2.779   1.418
 2082SOL     OW 1533   2.721   2.818   0.861
 2082SOL    HW1 1534   2.775   2.749   0.909
 2082SOL    HW2 1535   2.689   2.887   0.927
 2085SOL     OW 1536   2.083   3.176   1.844
 2085SOL    HW1 1537   2.018   3.103   1.823
 2085SOL    HW2 1538   2.087   3.190   1.942
 2087SOL     OW 1539   2.534   3.253   1.624
 2087SOL    HW1 1540   2.456   3.203   1.662
 2087SOL    HW2 1541   2.531   3.348   1.655
 2088SOL     OW 1542   3.686   2.054   1.227
 2088SOL    HW1 1543   3.682   1.964   1.271
 2088SOL    HW2 1544   3.689   2.043   1.128
 2091SOL     OW 1545   2.179   2.409   1.280
 2091SOL    HW1 1546   2.217   2.350   1.352
 2091SOL    HW2 1547   2.219   2.383   1.192
 2093SOL     OW 1548   3.286   2.076   1.112
 2093SOL    HW1 1549   3.338   2.011   1.167
 2093SOL    HW2 1550   3.237   2.139   1.173
 2094SOL     OW 1551   2.863   1.896   1.154
 2094SOL    HW1 1552   2.800   1.824   1.123
 2094SOL    HW2 1553   2.956   1.860   1.154
 2096SOL     OW 1554   2.480   3.429   1.284
 2096SOL    HW1 1555   2.475   3.511   1.341
 2096SOL    HW2 1556   2.569   3.426   1.239
 2102SOL     OW 1557   2.092   2.490   1.975
 2102SOL    HW1 1558   1.999   2.488   2.012
 2102SOL    HW2 1559   2.093   2.451   1.883
 2103SOL     OW 1560   2.087   2.137   2.858
 2103SOL    HW1 1561   2.122   2.120   2.950
 2103SOL    HW2 1562   1.999   2.092   2.846
 2104SOL     OW 1563   1.881   2.230   2.509
 2104SOL    HW1 1564   1.799   2.273   2.548
 2104SOL    HW2 1565   1.853   2.157   2.446
 2105SOL     OW 1566   2.431   3.137   3.027
 2105SOL    HW1 1567   2.338   3.130   2.990
 2105SOL    HW2 1568   2.442   3.226   3.071
 2106SOL     OW 1569   3.417   3.373   2.565
 2106SOL    HW1 1570   3.360   3.357   2.646
 2106SOL    HW2 1571   3.358   3.383   2.485
 2107SOL     OW 1572   2.997   2.565   2.579
 2107SOL    HW1 1573   3.054   2.643   2.554
 2107SOL    HW2 1574   2.937   2.591   2.655
 2108SOL     OW 1575   3.617   2.469   2.093
 2108SOL    HW1 1576   3.605   2.456   1.994
 2108SOL    HW2 1577   3.587   2.388   2.142
 2109SOL     OW 1578   2.630   3.006   2.885
 2109SOL    HW1 1579   2.552   3.023   2.945
 2109SOL    HW2 1580   2.664   3.093   2.849
 2110SOL     OW 1581   2.712   2.660   3.685
 2110SOL    HW1 1582   2.708   2.736   3.750
 2110SOL    HW2 1583   2.734   2.696   3.594
 2111SOL     OW 1584   2.547   2.874   2.527
 2111SOL    HW1 1585   2.616   2.858   2.597
 2111SOL    HW2 1586   2.474   2.931   2.565
 2112SOL     OW 1587   2.548   3.023   3.665
 2112SOL    HW1 1588   2.608   3.102   3.679
 2112SOL    HW2 1589   2.462   3.054   3.624
 2113SOL     OW 1590   2.197   3.297   2.923
 2113SOL    HW1 1591   2.119   3.266   2.870
 2113SOL    HW2 1592   2.255   3.355   2.866
 2114SOL     OW 1593   3.322   3.367   3.201
 2114SOL    HW1 1594   3.346   3.461   3.227
 2114SOL    HW2 1595   3.306   3.313   3.283
 2115SOL     OW 1596   2.300   2.254   3.361
 2115SOL    HW1 1597   2.382   2.198   3.370
 2115SOL    HW2 1598   2.219   2.196   3.365
 2116SOL     OW 1599   3.465   2.309   2.599
 2116SOL    HW1 1600   3.391   2.355   2.549
 2116SOL    HW2 1601   3.516   2.377   2.652
 2117SOL     OW 1602   2.093   3.575   2.345
 2117SOL    HW1 1603   2.127   3.652   2.399
 2117SOL    HW2 1604   2.137   3.575   2.255
 2118SOL     OW 1605   2.989   3.203   3.552
 2118SOL    HW1 1606   3.036   3.203   3.640
 2118SOL    HW2 1607   2.941   3.116   3.541
 2119SOL     OW 1608   2.092   3.296   2.400
 2119SOL    HW1 1609   2.066   3.392   2.400
 2119SOL    HW2 1610   2.021   3.242   2.445
 2120SOL     OW 1611   2.102   2.953   2.748
 2120SOL    HW1 1612   2.116   2.869   2.800
 2120SOL    HW2 1613   2.047   3.017   2.803
 2121SOL     OW 1614   2.482   3.648   3.301
 2121SOL    HW1 1615   2.390   3.631   3.336
 2121SOL    HW2 1616   2.510   3.740   3.327
 2122SOL     OW 1617   2.468   2.826   1.985
 2122SOL    HW1 1618   2.475   2.910   1.931
 2122SOL    HW2 1619   2.514   2.839   2.073
 2123SOL     OW 1620   3.456   1.976   3.342
 2123SOL    HW1 1621   3.438   2.043   3.270
 2123SOL    HW2 1622   3.453   2.022   3.431
 2124SOL     OW 1623   1.984   2.505   2.425
 2124SOL    HW1 1624   1.939   2.417   2.442
 2124SOL    HW2 1625   1.983   2.559   2.509
 2126SOL     OW 1626   1.889   3.458   1.979
 2126SOL    HW1 1627   1.870   3.362   2.000
 2126SOL    HW2 1628   1.856   3.516   2.054
 2127SOL     OW 1629   3.551   2.784   2.474
 2127SOL    HW1 1630   3.646   2.755   2.482
 2127SOL    HW2 1631   3.543   2.849   2.399
 2128SOL     OW 1632   3.503   2.970   2.294
 2128SOL    HW1 1633   3.589   2.972   2.242
 2128SOL    HW2 1634   3.517   3.017   2.382
 2129SOL     OW 1635   1.975   2.599   3.459
 2129SOL    HW1 1636   2.063   2.586   3.504
 2129SOL    HW2 1637   1.962   2.696   3.437
 2130SOL     OW 1638   2.475   3.227   2.588
 2130SOL    HW1 1639   2.426   3.140   2.597
 2130SOL    HW2 1640   2.452   3.270   2.501
 2131SOL     OW 1641   3.155   3.090   3.285
 2131SOL    HW1 1642   3.192   3.017   3.227
 2131SOL    HW2 1643   3.207   3.095   3.370
 2132SOL     OW 1644   2.671   1.866   2.364
 2132SOL    HW1 1645   2.711   1.957   2.355
 2132SOL    HW2 1646   2.571   1.874   2.370
 2133SOL     OW 1647   2.059   2.838   3.126
 2133SOL    HW1 1648   2.148   2.793   3.112
 2133SOL    HW2 1649   1.986   2.773   3.107
 2134SOL     OW 1650   3.387   2.861   2.052
 2134SOL    HW1 1651   3.324   2.785   2.065
 2134SOL    HW2 1652   3.435   2.879   2.138
 2136SOL     OW 1653   2.179   2.113   3.663
 2136SOL    HW1 1654   2.250   2.184   3.669
 2136SOL    HW2 1655   2.091   2.152   3.691
 2137SOL     OW 1656   3.328   3.279   2.815
 2137SOL    HW1 1657   3.269   3.285   2.895
 2137SOL    HW2 1658   3.313   3.191   2.769
 2138SOL     OW 1659   3.529   3.576   2.434
 2138SOL    HW1 1660   3.488   3.553   2.346
 2138SOL    HW2 1661   3.511   3.502   2.499
 2139SOL     OW 1662   3.143   2.207   2.806
 2139SOL    HW1 1663   3.057   2.157   2.793
 2139SOL    HW2 1664   3.205   2.153   2.862
 2140SOL     OW 1665   3.438   3.524   2.169
 2140SOL    HW1 1666   3.527   3.570   2.172
 2140SOL    HW2 1667   3.417   3.500   2.074
 2141SOL     OW 1668   2.669   2.467   3.327
 2141SOL    HW1 1669   2.622   2.464   3.416
 2141SOL    HW2 1670   2.618   2.412   3.261
 2142SOL     OW 1671   3.256   2.331   3.536
 2142SOL    HW1 1672   3.236   2.374   3.624
 2142SOL    HW2 1673   3.334   2.269   3.545
 2143SOL     OW 1674   2.835   2.752   3.434
 2143SOL    HW1 1675   2.881   2.668   3.405
 2143SOL    HW2 1676   2.779   2.786   3.359
 2144SOL     OW 1677   2.853   2.272   3.104
 2144SOL    HW1 1678   2.776   2.306   3.158
 2144SOL    HW2 1679   2.819   2.221   3.025
 2145SOL     OW 1680   2.903   2.563   2.291
 2145SOL    HW1 1681   2.929   2.559   2.387
 2145SOL    HW2 1682   2.818   2.512   2.277
 2146SOL     OW 1683   1.938   2.673   2.651
 2146SOL    HW1 1684   2.037   2.661   2.660
 2146SOL    HW2 1685   1.914   2.768   2.672
 2147SOL     OW 1686   1.992   3.683   3.433
 2147SOL    HW1 1687   1.982   3.668   3.532
 2147SOL    HW2 1688   1.906   3.719   3.397
 2148SOL     OW 1689   2.727   2.210   2.057
 2148SOL    HW1 1690   2.786   2.273   2.008
 2148SOL    HW2 1691   2.746   2.116   2.028
 2149SOL     OW 1692   3.581   2.447   3.693
 2149SOL    HW1 1693   3.555   2.536   3.657
 2149SOL    HW2 1694   3.579   2.379   3.620
 2150SOL     OW 1695   3.224   3.006   2.407
 2150SOL    HW1 1696   3.307   2.977   2.359
 2150SOL    HW2 1697   3.175   3.073   2.351
 2151SOL     OW 1698   2.870   3.318   2.339
 2151SOL    HW1 1699   2.824   3.390   2.287
 2151SOL    HW2 1700   2.866   3.338   2.437
 2152SOL     OW 1701   2.213   3.663   2.715
 2152SOL    HW1 1702   2.263   3.577   2.721
 2152SOL    HW2 1703   2.278   3.740   2.712
 2153SOL     OW 1704   3.657   2.928   2.735
 2153SOL    HW1 1705   3.595   2.913   2.659
 2153SOL    HW2 1706   3.605   2.939   2.820
 2154SOL     OW 1707   3.089   3.412   3.368
 2154SOL    HW1 1708   3.095   3.335   3.432
 2154SOL    HW2 1709   3.037   3.386   3.288
 2155SOL     OW 1710   2.183   2.805   2.104
 2155SOL    HW1 1711   2.265   2.844   2.062
 2155SOL    HW2 1712   2.156   2.723   2.055
 2156SOL     OW 1713   3.320   2.597   2.590
 2156SOL    HW1 1714   3.315   2.532   2.665
 2156SOL    HW2 1715   3.400   2.656   2.603
 2157SOL     OW 1716   2.323   3.128   3.589
 2157SOL    HW1 1717   2.273   3.129   3.503
 2157SOL    HW2 1718   2.260   3.110   3.665
 2158SOL     OW 1719   2.973   3.638   2.099
 2158SOL    HW1 1720   2.913   3.576   2.149
 2158SOL    HW2 1721   3.004   3.594   2.014
 2159SOL     OW 1722   2.064   2.147   3.360
 2159SOL    HW1 1723   1.984   2.207   3.347
 2159SOL    HW2 1724   2.054   2.098   3.446
 2160SOL     OW 1725   3.494   3.239   1.943
 2160SOL    HW1 1726   3.462   3.333   1.933
 2160SOL    HW2 1727   3.418   3.176   1.931
 2161SOL     OW 1728   2.326   3.605   2.185
 2161SOL    HW1 1729   2.359   3.644   2.271
 2161SOL    HW2 1730   2.402   3.598   2.120
 2162SOL     OW 1731   3.262   1.969   2.288
 2162SOL    HW1 1732   3.238   1.932   2.198
 2162SOL    HW2 1733   3.361   1.985   2.292
 2163SOL     OW 1734   2.111   3.647   3.103
 2163SOL    HW1 1735   2.168   3.582   3.153
 2163SOL    HW2 1736   2.095   3.614   3.010
 2164SOL     OW 1737   2.802   3.560   2.766
 2164SOL    HW1 1738   2.882   3.503   2.787
 2164SOL    HW2 1739   2.753   3.520   2.689
 2165SOL     OW 1740   3.409   2.084   3.591
 2165SOL    HW1 1741   3.404   2.121   3.683
 2165SOL    HW2 1742   3.337   2.015   3.579
 2166SOL     OW 1743   2.476   1.984   1.979
 2166SOL    HW1 1744   2.574   1.962   1.986
 2166SOL    HW2 1745   2.445   1.967   1.886
 2167SOL     OW 1746   2.643   2.126   3.611
 2167SOL    HW1 1747   2.710   2.065   3.654
 2167SOL    HW2 1748   2.570   2.145   3.676
 2168SOL     OW 1749   2.750   3.376   3.057
 2168SOL    HW1 1750   2.727   3.351   2.963
 2168SOL    HW2 1751   2.811   3.307   3.096
 2169SOL     OW 1752   3.213   2.452   3.295
 2169SOL    HW1 1753   3.241   2.409   3.380
 2169SOL    HW2 1754   3.238   2.548   3.296
 2170SOL     OW 1755   2.665   3.264   2.786
 2170SOL    HW1 1756   2.755   3.278   2.744
 2170SOL    HW2 1757   2.594   3.266   2.715
 2171SOL     OW 1758   2.784   2.365   2.761
 2171SOL    HW1 1759   2.759   2.356   2.665
 2171SOL    HW2 1760   2.832   2.283   2.792
 2172SOL     OW 1761   3.296   3.050   1.903
 2172SOL    HW1 1762   3.328   2.974   1.960
 2172SOL    HW2 1763   3.204   3.077   1.933
 2173SOL     OW 1764   2.159   1.897   2.033
 2173SOL    HW1 1765   2.208   1.981   2.012
 2173SOL    HW2 1766   2.221   1.832   2.078
 2174SOL     OW 1767   2.797   2.098   2.342
 2174SOL    HW1 1768   2.749   2.139   2.264
 2174SOL    HW2 1769   2.896   2.096   2.323
 2175SOL     OW 1770   2.938   2.545   3.326
 2175SOL    HW1 1771   2.858   2.484   3.329
 2175SOL    HW2 1772   3.019   2.492   3.302
 2176SOL     OW 1773   3.089   3.432   2.655
 2176SOL    HW1 1774   3.110   3.506   2.590
 2176SOL    HW2 1775   3.157   3.432   2.728
 2177SOL     OW 1776   2.321   3.014   2.603
 2177SOL    HW1 1777   2.250   2.987   2.668
 2177SOL    HW2 1778   2.295   2.986   2.510
 2178SOL     OW 1779   3.133   3.659   2.453
 2178SOL    HW1 1780   3.177   3.723   2.389
 2178SOL    HW2 1781   3.083   3.711   2.523
 2179SOL     OW 1782   2.894   2.411   1.878
 2179SOL    HW1 1783   2.853   2.493   1.839
 2179SOL    HW2 1784   2.958   2.437   1.951
 2180SOL     OW 1785   1.940   2.418   3.248
 2180SOL    HW1 1786   2.032   2.417   3.207
 2180SOL    HW2 1787   1.934   2.492   3.315
 2181SOL     OW 1788   2.423   2.084   3.009
 2181SOL    HW1 1789   2.461   2.000   3.046
 2181SOL    HW2 1790   2.335   2.103   3.053
 2182SOL     OW 1791   2.879   1.901   2.615
 2182SOL    HW1 1792   2.807   1.906   2.546
 2182SOL    HW2 1793   2.855   1.832   2.684
 2183SOL     OW 1794   3.291   3.035   2.729
 2183SOL    HW1 1795   3.236   2.951   2.722
 2183SOL    HW2 1796   3.317   3.064   2.637
 2184SOL     OW 1797   3.328   2.452   2.854
 2184SOL    HW1 1798   3.298   2.357   2.861
 2184SOL    HW2 1799   3.401   2.468   2.920
 2185SOL     OW 1800   3.719   2.695   2.239
 2185SOL    HW1 1801   3.761   2.631   2.303
 2185SOL    HW2 1802   3.681   2.644   2.161
 2186SOL     OW 1803   2.350   3.247   2.036
 2186SOL    HW1 1804   2.263   3.232   2.083
 2186SOL    HW2 1805   2.333   3.273   1.941
 2187SOL     OW 1806   3.526   3.142   2.519
 2187SOL    HW1 1807   3.625   3.150   2.533
 2187SOL    HW2 1808   3.481   3.226   2.550
 2188SOL     OW 1809   3.252   2.437   1.940
 2188SOL    HW1 1810   3.198   2.416   2.021
 2188SOL    HW2 1811   3.343   2.396   1.949
 2189SOL     OW 1812   3.616   3.085   3.450
 2189SOL    HW1 1813   3.707   3.046   3.437
 2189SOL    HW2 1814   3.624   3.181   3.474
 2190SOL     OW 1815   2.926   3.209   3.202
 2190SOL    HW1 1816   2.846   3.186   3.257
 2190SOL    HW2 1817   3.009   3.183   3.251
 2192SOL     OW 1818   2.973   3.057   2.962
 2192SOL    HW1 1819   2.933   3.101   3.043
 2192SOL    HW2 1820   2.932   3.094   2.879
 2193SOL     OW 1821   3.500   2.961   2.941
 2193SOL    HW1 1822   3.505   3.042   3.000
 2193SOL    HW2 1823   3.414   2.963   2.890
 2194SOL     OW 1824   2.777   1.951   3.264
 2194SOL    HW1 1825   2.802   1.931   3.169
 2194SOL    HW2 1826   2.849   2.007   3.306
 2195SOL     OW 1827   2.842   2.978   3.581
 2195SOL    HW1 1828   2.743   2.984   3.591
 2195SOL    HW2 1829   2.865   2.898   3.525
 2196SOL     OW 1830   2.567   2.912   2.230
 2196SOL    HW1 1831   2.553   2.919   2.329
 2196SOL    HW2 1832   2.651   2.861   2.212
 2197SOL     OW 1833   2.272   2.675   3.113
 2197SOL    HW1 1834   2.358   2.687   3.163
 2197SOL    HW2 1835   2.230   2.588   3.140
 2198SOL     OW 1836   3.136   2.248   3.124
 2198SOL    HW1 1837   3.157   2.322   3.188
 2198SOL    HW2 1838   3.047   2.265   3.081
 2199SOL     OW 1839   1.926   3.426   3.193
 2199SOL    HW1 1840   1.880   3.508   3.159
 2199SOL    HW2 1841   2.024   3.445   3.202
 2200SOL     OW 1842   2.229   2.962   2.363
 2200SOL    HW1 1843   2.222   3.045   2.307
 2200SOL    HW2 1844   2.233   2.882   2.303
 2201SOL     OW 1845   2.428   2.399   2.727
 2201SOL    HW1 1846   2.440   2.465   2.653
 2201SOL    HW2 1847   2.474   2.433   2.810
 2202SOL     OW 1848   3.114   3.210   2.250
 2202SOL    HW1 1849   3.164   3.287   2.290
 2202SOL    HW2 1850   3.019   3.212   2.282
 2203SOL     OW 1851   3.134   3.307   3.004
 2203SOL    HW1 1852   3.181   3.320   3.091
 2203SOL    HW2 1853   3.068   3.233   3.013
 2204SOL     OW 1854   3.444   2.501   2.334
 2204SOL    HW1 1855   3.413   2.562   2.407
 2204SOL    HW2 1856   3.494   2.553   2.265
 2205SOL     OW 1857   2.216   3.372   3.191
 2205SOL    HW1 1858   2.195   3.328   3.104
 2205SOL    HW2 1859   2.313   3.398   3.194
 2206SOL     OW 1860   2.264   2.613   3.460
 2206SOL    HW1 1861   2.332   2.668   3.413
 2206SOL    HW2 1862   2.304   2.525   3.487
 2207SOL     OW 1863   3.449   2.641   3.532
 2207SOL    HW1 1864   3.357   2.679   3.527
 2207SOL    HW2 1865   3.509   2.688   3.467
 2208SOL     OW 1866   2.875   1.967   3.632
 2208SOL    HW1 1867   2.881   2.052   3.580
 2208SOL    HW2 1868   2.907   1.891   3.575
 2209SOL     OW 1869   2.366   1.912   3.602
 2209SOL    HW1 1870   2.324   1.855   3.532
 2209SOL    HW2 1871   2.300   1.981   3.634
 2210SOL     OW 1872   2.435   2.732   2.891
 2210SOL    HW1 1873   2.479   2.821   2.882
 2210SOL    HW2 1874   2.372   2.732   2.968
 2211SOL     OW 1875   3.222   2.724   2.907
 2211SOL    HW1 1876   3.147   2.724   2.841
 2211SOL    HW2 1877   3.259   2.632   2.916
 2212SOL     OW 1878   3.071   2.387   2.137
 2212SOL    HW1 1879   3.084   2.303   2.191
 2212SOL    HW2 1880   3.042   2.461   2.197
 2213SOL     OW 1881   2.169   2.075   3.093
 2213SOL    HW1 1882   2.146   2.112   3.183
 2213SOL    HW2 1883   2.139   1.980   3.087
 2214SOL     OW 1884   1.899   3.172   3.144
 2214SOL    HW1 1885   1.952   3.123   3.212
 2214SOL    HW2 1886   1.921   3.270   3.149
 2215SOL     OW 1887   2.594   2.496   2.926
 2215SOL    HW1 1888   2.653   2.470   2.850
 2215SOL    HW2 1889   2.566   2.592   2.915
 2217SOL     OW 1890   2.169   1.925   2.480
 2217SOL    HW1 1891   2.158   2.019   2.513
 2217SOL    HW2 1892   2.164   1.862   2.557
 2218SOL     OW 1893   3.484   2.229   2.236
 2218SOL    HW1 1894   3.486   2.153   2.300
 2218SOL    HW2 1895   3.436   2.306   2.276
 2219SOL     OW 1896   2.885   2.628   2.828
 2219SOL    HW1 1897   2.900   2.649   2.924
 2219SOL    HW2 1898   2.855   2.533   2.819
 2220SOL     OW 1899   2.842   3.435   3.562
 2220SOL    HW1 1900   2.822   3.479   3.474
 2220SOL    HW2 1901   2.881   3.344   3.546
 2222SOL     OW 1902   2.212   2.760   3.666
 2222SOL    HW1 1903   2.288   2.804   3.714
 2222SOL    HW2 1904   2.247   2.713   3.584
 2223SOL     OW 1905   3.402   2.136   1.987
 2223SOL    HW1 1906   3.341   2.061   2.010
 2223SOL    HW2 1907   3.424   2.188   2.070
 2224SOL     OW 1908   3.165   2.700   1.904
 2224SOL    HW1 1909   3.199   2.607   1.919
 2224SOL    HW2 1910   3.183   2.727   1.809
 2225SOL     OW 1911   2.930   3.195   2.711
 2225SOL    HW1 1912   2.937   3.111   2.656
 2225SOL    HW2 1913   2.992   3.264   2.675
 2226SOL     OW 1914   2.181   2.672   2.811
 2226SOL    HW1 1915   2.274   2.708   2.816
 2226SOL    HW2 1916   2.175   2.587   2.863
 2227SOL     OW 1917   2.201   2.371   2.868
 2227SOL    HW1 1918   2.149   2.288   2.851
 2227SOL    HW2 1919   2.278   2.376   2.804
 2228SOL     OW 1920   3.000   2.242   3.540
 2228SOL    HW1 1921   2.955   2.305   3.604
 2228SOL    HW2 1922   3.093   2.273   3.523
 2229SOL     OW 1923   3.022   2.069   3.339
 2229SOL    HW1 1924   3.022   2.133   3.416
 2229SOL    HW2 1925   3.050   2.117   3.256
 2230SOL     OW 1926   1.870   3.188   2.062
 2230SOL    HW1 1927   1.777   3.209   2.031
 2230SOL    HW2 1928   1.880   3.089   2.075
 2231SOL     OW 1929   1.950   3.663   2.789
 2231SOL    HW1 1930   1.908   3.577   2.762
 2231SOL    HW2 1931   2.044   3.666   2.755
 2232SOL     OW 1932   2.366   3.430   2.772
 2232SOL    HW1 1933   2.432   3.504   2.781
 2232SOL    HW2 1934   2.410   3.351   2.730
 2233SOL     OW 1935   2.864   2.658   3.100
 2233SOL    HW1 1936   2.905   2.626   3.186
 2233SOL    HW2 1937   2.768   2.631   3.097
 2234SOL     OW 1938   1.902   2.406   2.976
 2234SOL    HW1 1939   1.987   2.373   2.935
 2234SOL    HW2 1940   1.915   2.421   3.074
 2235SOL     OW 1941   2.051   2.382   3.584
 2235SOL    HW1 1942   2.110   2.342   3.514
 2235SOL    HW2 1943   1.993   2.453   3.543
 2236SOL     OW 1944   3.231   2.812   3.522
 2236SOL    HW1 1945   3.270   2.901   3.542
 2236SOL    HW2 1946   3.241   2.792   3.425
 2237SOL     OW 1947   3.519   2.466   3.068
 2237SOL    HW1 1948   3.481   2.397   3.130
 2237SOL    HW2 1949   3.601   2.430   3.024
 2238SOL     OW 1950   2.114   3.426   3.606
 2238SOL    HW1 1951   2.084   3.483   3.682
 2238SOL    HW2 1952   2.107   3.329   3.632
 2239SOL     OW 1953   2.533   2.326   3.131
 2239SOL    HW1 1954   2.499   2.237   3.101
 2239SOL    HW2 1955   2.559   2.380   3.051
 2240SOL     OW 1956   2.792   3.540   3.327
 2240SOL    HW1 1957   2.768   3.522   3.232
 2240SOL    HW2 1958   2.822   3.634   3.337
 2241SOL     OW 1959   2.021   2.999   3.328
 2241SOL    HW1 1960   2.043   2.938   3.404
 2241SOL    HW2 1961   2.031   2.950   3.242
 2242SOL     OW 1962   3.209   2.921   3.096
 2242SOL    HW1 1963   3.233   2.858   3.022
 2242SOL    HW2 1964   3.119   2.961   3.078
 2243SOL     OW 1965   3.164   2.717   2.171
 2243SOL    HW1 1966   3.078   2.686   2.213
 2243SOL    HW2 1967   3.160   2.703   2.072
 2245SOL     OW 1968   3.114   3.593   2.990
 2245SOL    HW1 1969   3.198   3.598   2.936
 2245SOL    HW2 1970   3.091   3.497   3.008
 2246SOL     OW 1971   1.945   3.120   2.884
 2246SOL    HW1 1972   1.940   3.119   2.984
 2246SOL    HW2 1973   1.862   3.079   2.846
 2247SOL     OW 1974   2.550   3.524   3.578
 2247SOL    HW1 1975   2.494   3.605   3.587
 2247SOL    HW2 1976   2.602   3.528   3.492
 2248SOL     OW 1977   3.588   1.997   2.385
 2248SOL    HW1 1978   3.661   1.980   2.318
 2248SOL    HW2 1979   3.557   1.910   2.423
 2249SOL     OW 1980   3.250   3.435   2.339
 2249SOL    HW1 1981   3.317   3.447   2.265
 2249SOL    HW2 1982   3.210   3.524   2.362
 2251SOL     OW 1983   3.142   2.789   2.534
 2251SOL    HW1 1984   3.202   2.708   2.536
 2251SOL    HW2 1985   3.182   2.858   2.474
 2252SOL     OW 1986   2.692   3.135   3.284
 2252SOL    HW1 1987   2.687   3.168   3.379
 2252SOL    HW2 1988   2.606   3.154   3.238
 2253SOL     OW 1989   2.534   3.478   2.016
 2253SOL    HW1 1990   2.543   3.488   1.917
 2253SOL    HW2 1991   2.494   3.389   2.037
 2255SOL     OW 1992   3.703   2.037   2.825
 2255SOL    HW1 1993   3.742   1.952   2.789
 2255SOL    HW2 1994   3.605   2.039   2.806
 2256SOL     OW 1995   2.125   2.188   2.582
 2256SOL    HW1 1996   2.046   2.239   2.548
 2256SOL    HW2 1997   2.116   2.173   2.680
 2257SOL     OW 1998   3.056   3.474   1.893
 2257SOL    HW1 1999   3.062   3.381   1.930
 2257SOL    HW2 2000   2.997   3.474   1.813
 2258SOL     OW 2001   2.684   2.864   3.234
 2258SOL    HW1 2002   2.724   2.863   3.142
 2258SOL    HW2 2003   2.694   2.956   3.274
 2259SOL     OW 2004   2.778   2.772   2.153
 2259SOL    HW1 2005   2.841   2.810   2.085
 2259SOL    HW2 2006   2.818   2.689   2.192
 2260SOL     OW 2007   3.366   3.469   1.906
 2260SOL    HW1 2008   3.274   3.506   1.913
 2260SOL    HW2 2009   3.404   3.489   1.816
 2261SOL     OW 2010   2.234   3.150   3.352
 2261SOL    HW1 2011   2.221   3.243   3.318
 2261SOL    HW2 2012   2.150   3.098   3.339
 2262SOL     OW 2013   3.476   3.154   3.151
 2262SOL    HW1 2014   3.536   3.157   3.231
 2262SOL    HW2 2015   3.401   3.218   3.164
 2263SOL     OW 2016   2.901   2.960   2.558
 2263SOL    HW1 2017   2.831   2.913   2.612
 2263SOL    HW2 2018   2.960   2.892   2.515
 2264SOL     OW 2019   2.876   2.098   2.833
 2264SOL    HW1 2020   2.868   2.062   2.740
 2264SOL    HW2 2021   2.874   2.022   2.898
 2265SOL     OW 2022   2.452   3.349   2.353
 2265SOL    HW1 2023   2.494   3.291   2.283
 2265SOL    HW2 2024   2.408   3.428   2.309
 2266SOL     OW 2025   3.571   2.247   3.243
 2266SOL    HW1 2026   3.644   2.316   3.247
 2266SOL    HW2 2027   3.599   2.172   3.184
 2267SOL     OW 2028   2.117   3.210   2.152
 2267SOL    HW1 2029   2.021   3.211   2.125
 2267SOL    HW2 2030   2.129   3.263   2.236
 2268SOL     OW 2031   1.967   2.875   3.588
 2268SOL    HW1 2032   1.890   2.842   3.642
 2268SOL    HW2 2033   2.052   2.845   3.630
 2269SOL     OW 2034   2.534   2.065   3.351
 2269SOL    HW1 2035   2.624   2.049   3.311
 2269SOL    HW2 2036   2.542   2.070   3.450
 2270SOL     OW 2037   1.937   2.207   1.895
 2270SOL    HW1 2038   1.845   2.179   1.866
 2270SOL    HW2 2039   1.968   2.284   1.839
 2271SOL     OW 2040   3.302   2.718   3.260
 2271SOL    HW1 2041   3.245   2.770   3.197
 2271SOL    HW2 2042   3.398   2.730   3.236
 2272SOL     OW 2043   1.934   2.028   2.180
 2272SOL    HW1 2044   1.917   2.111   2.126
 2272SOL    HW2 2045   2.024   1.991   2.158
 2273SOL     OW 2046   3.045   3.197   1.981
 2273SOL    HW1 2047   2.946   3.186   1.983
 2273SOL    HW2 2048   3.079   3.212   2.074
 2274SOL     OW 2049   2.475   2.704   3.293
 2274SOL    HW1 2050   2.531   2.785   3.276
 2274SOL    HW2 2051   2.534   2.624   3.296
 2275SOL     OW 2052   3.355   3.629   2.821
 2275SOL    HW1 2053   3.388   3.693   2.752
 2275SOL    HW2 2054   3.421   3.623   2.896
 2276SOL     OW 2055   2.578   2.427   3.570
 2276SOL    HW1 2056   2.597   2.492   3.644
 2276SOL    HW2 2057   2.638   2.347   3.579
 2277SOL     OW 2058   3.312   3.082   3.495
 2277SOL    HW1 2059   3.303   3.072   3.594
 2277SOL    HW2 2060   3.408   3.075   3.469
 2278SOL     OW 2061   2.252   3.603   3.422
 2278SOL    HW1 2062   2.161   3.644   3.420
 2278SOL    HW2 2063   2.245   3.509   3.454
 2279SOL     OW 2064   3.536   2.745   3.116
 2279SOL    HW1 2065   3.509   2.656   3.079
 2279SOL    HW2 2066   3.537   2.813   3.043
 2280SOL     OW 2067   3.087   2.187   2.311
 2280SOL    HW1 2068   3.152   2.113   2.300
 2280SOL    HW2 2069   3.107   2.237   2.395
 2281SOL     OW 2070   3.639   2.204   3.504
 2281SOL    HW1 2071   3.622   2.235   3.410
 2281SOL    HW2 2072   3.555   2.167   3.542
 2282SOL     OW 2073   3.592   2.796   3.379
 2282SOL    HW1 2074   3.630   2.887   3.394
 2282SOL    HW2 2075   3.584   2.779   3.280
 2283SOL     OW 2076   2.721   3.236   1.878
 2283SOL    HW1 2077   2.675   3.251   1.966
 2283SOL    HW2 2078   2.765   3.321   1.848
 2284SOL     OW 2079   2.523   3.652   2.815
 2284SOL    HW1 2080   2.477   3.740   2.802
 2284SOL    HW2 2081   2.622   3.664   2.808
 2285SOL     OW 2082   2.721   2.818   2.723
 2285SOL    HW1 2083   2.775   2.749   2.771
 2285SOL    HW2 2084   2.689   2.887   2.789
 2286SOL     OW 2085   2.945   2.846   1.949
 2286SOL    HW1 2086   2.922   2.899   1.867
 2286SOL    HW2 2087   3.026   2.790   1.930
 2287SOL     OW 2088   3.723   3.431   2.713
 2287SOL    HW1 2089   3.652   3.419   2.643
 2287SOL    HW2 2090   3.724   3.352   2.773
 2288SOL     OW 2091   2.083   3.176   3.706
 2288SOL    HW1 2092   2.018   3.103   3.685
 2288SOL    HW2 2093   2.087   3.190   3.804
 2289SOL     OW 2094   1.941   3.102   2.515
 2289SOL    HW1 2095   1.940   3.055   2.603
 2289SOL    HW2 2096   2.023   3.074   2.464
 2290SOL     OW 2097   2.534   3.253   3.486
 2290SOL    HW1 2098   2.456   3.203   3.524
 2290SOL    HW2 2099   2.531   3.348   3.517
 2291SOL     OW 2100   3.686   2.054   3.089
 2291SOL    HW1 2101   3.682   1.964   3.133
 2291SOL    HW2 2102   3.689   2.043   2.990
 2292SOL     OW 2103   3.567   3.349   2.966
 2292SOL    HW1 2104   3.474   3.324   2.939
 2292SOL    HW2 2105   3.593   3.299   3.048
 2293SOL     OW 2106   2.179   2.409   3.142
 2293SOL    HW1 2107   2.217   2.350   3.214
 2293SOL    HW2 2108   2.219   2.383   3.054
 2294SOL     OW 2109   2.674   3.448   2.549
 2294SOL    HW1 2110   2.706   3.458   2.455
 2294SOL    HW2 2111   2.595   3.386   2.551
 2295SOL     OW 2112   3.286   2.076   2.974
 2295SOL    HW1 2113   3.338   2.011   3.029
 2295SOL    HW2 2114   3.237   2.139   3.035
 2296SOL     OW 2115   2.863   1.896   3.016
 2296SOL    HW1 2116   2.800   1.824   2.985
 2296SOL    HW2 2117   2.956   1.860   3.016
 2297SOL     OW 2118   2.632   3.192   2.163
 2297SOL    HW1 2119   2.586   3.105   2.180
 2297SOL    HW2 2120   2.723   3.189   2.204
 2298SOL     OW 2121   2.480   3.429   3.146
 2298SOL    HW1 2122   2.475   3.511   3.203
 2298SOL    HW2 2123   2.569   3.426   3.101
 2299SOL     OW 2124   3.214   1.914   2.030
 2299SOL    HW1 2125   3.249   1.873   1.946
 2299SOL    HW2 2126   3.124   1.876   2.050
 2300SOL     OW 2127   3.162   2.315   2.553
 2300SOL    HW1 2128   3.103   2.395   2.557
 2300SOL    HW2 2129   3.177   2.280   2.646
 2301SOL     OW 2130   3.455   2.083   2.744
 2301SOL    HW1 2131   3.371   2.082   2.798
 2301SOL    HW2 2132   3.457   2.166   2.688
 2302SOL     OW 2133   1.901   2.939   2.162
 2302SOL    HW1 2134   2.000   2.928   2.153
 2302SOL    HW2 2135   1.861   2.853   2.194
 2303SOL     OW 2136   2.737   3.508   2.199
 2303SOL    HW1 2137   2.660   3.473   2.145
 2303SOL    HW2 2138   2.705   3.579   2.261
 2304SOL     OW 2139   2.092   2.490   3.837
 2304SOL    HW1 2140   1.999   2.488   3.874
 2304SOL    HW2 2141   2.093   2.451   3.745
 2316SOL     OW 2142   2.468   2.826   3.847
 2316SOL    HW1 2143   2.475   2.910   3.793
 2316SOL    HW2 2144   2.514   2.839   3.935
 2327SOL     OW 2145   2.460   2.591   3.994
 2327SOL    HW1 2146   2.484   2.660   3.926
 2327SOL    HW2 2147   2.382   2.624   4.048
 2332SOL     OW 2148   2.727   2.210   3.919
 2332SOL    HW1 2149   2.786   2.273   3.870
 2332SOL    HW2 2150   2.746   2.116   3.890
 2337SOL     OW 2151   2.183   2.805   3.966
 2337SOL    HW1 2152   2.265   2.844   3.924
 2337SOL    HW2 2153   2.156   2.723   3.917
 2344SOL     OW 2154   2.476   1.984   3.841
 2344SOL    HW1 2155   2.574   1.962   3.848
 2344SOL    HW2 2156   2.445   1.967   3.748
 2348SOL     OW 2157   2.159   1.897   3.895
 2348SOL    HW1 2158   2.208   1.981   3.874
 2348SOL    HW2 2159   2.221   1.832   3.940
 2353SOL     OW 2160   2.894   2.411   3.740
 2353SOL    HW1 2161   2.853   2.493   3.701
 2353SOL    HW2 2162   2.958   2.437   3.813
 2358SOL     OW 2163   2.350   3.247   3.898
 2358SOL    HW1 2164   2.263   3.232   3.945
 2358SOL    HW2 2165   2.333   3.273   3.803
 2360SOL     OW 2166   3.252   2.437   3.802
 2360SOL    HW1 2167   3.198   2.416   3.883
 2360SOL    HW2 2168   3.343   2.396   3.811
 2361SOL     OW 2169   2.389   2.118   4.052
 2361SOL    HW1 2170   2.416   2.059   3.977
 2361SOL    HW2 2171   2.389   2.213   4.021
 2367SOL     OW 2172   3.071   2.387   3.999
 2367SOL    HW1 2173   3.084   2.303   4.053
 2367SOL    HW2 2174   3.042   2.461   4.059
 2372SOL     OW 2175   3.165   2.700   3.766
 2372SOL    HW1 2176   3.199   2.607   3.781
 2372SOL    HW2 2177   3.183   2.727   3.671
 2378SOL     OW 2178   2.677   2.434   4.049
 2378SOL    HW1 2179   2.684   2.345   4.003
 2378SOL    HW2 2180   2.583   2.468   4.041
 2379SOL     OW 2181   2.335   2.362   3.915
 2379SOL    HW1 2182   2.396   2.442   3.919
 2379SOL    HW2 2183   2.240   2.393   3.922
 2389SOL     OW 2184   2.778   2.772   4.015
 2389SOL    HW1 2185   2.841   2.810   3.947
 2389SOL    HW2 2186   2.818   2.689   4.054
 2394SOL     OW 2187   1.937   2.207   3.757
 2394SOL    HW1 2188   1.845   2.179   3.728
 2394SOL    HW2 2189   1.968   2.284   3.701
 2395SOL     OW 2190   1.934   2.028   4.042
 2395SOL    HW1 2191   1.917   2.111   3.988
 2395SOL    HW2 2192   2.024   1.991   4.020
 2400SOL     OW 2193   2.721   3.236   3.740
 2400SOL    HW1 2194   2.675   3.251   3.828
 2400SOL    HW2 2195   2.765   3.321   3.710
 2403SOL     OW 2196   2.945   2.846   3.811
 2403SOL    HW1 2197   2.922   2.899   3.729
 2403SOL    HW2 2198   3.026   2.790   3.792
 2410SOL     OW 2199   3.214   1.914   3.892
 2410SOL    HW1 2200   3.249   1.873   3.808
 2410SOL    HW2 2201   3.124   1.876   3.912
 2430SOL     OW 2202   2.179   3.975   1.801
 2430SOL    HW1 2203   2.250   4.046   1.807
 2430SOL    HW2 2204   2.091   4.014   1.829
 2448SOL     OW 2205   2.643   3.988   1.749
 2448SOL    HW1 2206   2.710   3.927   1.792
 2448SOL    HW2 2207   2.570   4.007   1.814
 2465SOL     OW 2208   2.777   3.813   1.402
 2465SOL    HW1 2209   2.802   3.793   1.307
 2465SOL    HW2 2210   2.849   3.869   1.444
 2472SOL     OW 2211   2.875   3.829   1.770
 2472SOL    HW1 2212   2.881   3.914   1.718
 2472SOL    HW2 2213   2.907   3.753   1.713
 2473SOL     OW 2214   2.366   3.774   1.740
 2473SOL    HW1 2215   2.324   3.717   1.670
 2473SOL    HW2 2216   2.300   3.843   1.772
 2509SOL     OW 2217   2.534   3.927   1.489
 2509SOL    HW1 2218   2.624   3.911   1.449
 2509SOL    HW2 2219   2.542   3.932   1.588
 2527SOL     OW 2220   2.087   3.999   2.858
 2527SOL    HW1 2221   2.122   3.982   2.950
 2527SOL    HW2 2222   1.999   3.954   2.846
 2528SOL     OW 2223   1.881   4.092   2.509
 2528SOL    HW1 2224   1.799   4.135   2.548
 2528SOL    HW2 2225   1.853   4.019   2.446
 2538SOL     OW 2226   2.671   3.728   2.364
 2538SOL    HW1 2227   2.711   3.819   2.355
 2538SOL    HW2 2228   2.571   3.736   2.370
 2550SOL     OW 2229   2.727   4.072   2.057
 2550SOL    HW1 2230   2.786   4.135   2.008
 2550SOL    HW2 2231   2.746   3.978   2.028
 2552SOL     OW 2232   2.412   3.920   2.747
 2552SOL    HW1 2233   2.407   3.915   2.847
 2552SOL    HW2 2234   2.414   4.016   2.718
 2555SOL     OW 2235   3.262   3.831   2.288
 2555SOL    HW1 2236   3.238   3.794   2.198
 2555SOL    HW2 2237   3.361   3.847   2.292
 2558SOL     OW 2238   2.476   3.846   1.979
 2558SOL    HW1 2239   2.574   3.824   1.986
 2558SOL    HW2 2240   2.445   3.829   1.886
 2562SOL     OW 2241   2.401   3.788   2.374
 2562SOL    HW1 2242   2.320   3.789   2.432
 2562SOL    HW2 2243   2.404   3.871   2.319
 2563SOL     OW 2244   2.159   3.759   2.033
 2563SOL    HW1 2245   2.208   3.843   2.012
 2563SOL    HW2 2246   2.221   3.694   2.078
 2564SOL     OW 2247   2.797   3.960   2.342
 2564SOL    HW1 2248   2.749   4.001   2.264
 2564SOL    HW2 2249   2.896   3.958   2.323
 2568SOL     OW 2250   2.423   3.946   3.009
 2568SOL    HW1 2251   2.461   3.862   3.046
 2568SOL    HW2 2252   2.335   3.965   3.053
 2570SOL     OW 2253   2.879   3.763   2.615
 2570SOL    HW1 2254   2.807   3.768   2.546
 2570SOL    HW2 2255   2.855   3.694   2.684
 2574SOL     OW 2256   2.389   3.980   2.190
 2574SOL    HW1 2257   2.416   3.921   2.115
 2574SOL    HW2 2258   2.389   4.075   2.159
 2576SOL     OW 2259   2.777   3.813   3.264
 2576SOL    HW1 2260   2.802   3.793   3.169
 2576SOL    HW2 2261   2.849   3.869   3.306
 2588SOL     OW 2262   2.169   3.937   3.093
 2588SOL    HW1 2263   2.146   3.974   3.183
 2588SOL    HW2 2264   2.139   3.842   3.087
 2591SOL     OW 2265   2.169   3.787   2.480
 2591SOL    HW1 2266   2.158   3.881   2.513
 2591SOL    HW2 2267   2.164   3.724   2.557
 2615SOL     OW 2268   2.125   4.050   2.582
 2615SOL    HW1 2269   2.046   4.101   2.548
 2615SOL    HW2 2270   2.116   4.035   2.680
 2617SOL     OW 2271   2.876   3.960   2.833
 2617SOL    HW1 2272   2.868   3.924   2.740
 2617SOL    HW2 2273   2.874   3.884   2.898
 2623SOL     OW 2274   1.934   3.890   2.180
 2623SOL    HW1 2275   1.917   3.973   2.126
 2623SOL    HW2 2276   2.024   3.853   2.158
 2632SOL     OW 2277   2.290   4.148   2.382
 2632SOL    HW1 2278   2.320   4.076   2.320
 2632SOL    HW2 2279   2.251   4.108   2.465
 2635SOL     OW 2280   2.863   3.758   3.016
 2635SOL    HW1 2281   2.800   3.686   2.985
 2635SOL    HW2 2282   2.956   3.722   3.016
 2636SOL     OW 2283   3.214   3.776   2.030
 2636SOL    HW1 2284   3.249   3.735   1.946
 2636SOL    HW2 2285   3.124   3.738   2.050
 2722SOL     OW 2286   3.854   1.821   1.571
 2722SOL    HW1 2287   3.844   1.806   1.670
 2722SOL    HW2 2288   3.768   1.857   1.535
 2781SOL     OW 2289   3.854   1.794   1.851
 2781SOL    HW1 2290   3.813   1.720   1.904
 2781SOL    HW2 2291   3.918   1.845   1.909
 2821SOL     OW 2292   3.955   1.713   2.345
 2821SOL    HW1 2293   3.989   1.790   2.399
 2821SOL    HW2 2294   3.999   1.713   2.255
 2827SOL     OW 2295   3.751   1.596   1.979
 2827SOL    HW1 2296   3.732   1.500   2.000
 2827SOL    HW2 2297   3.718   1.654   2.054
 2880SOL     OW 2298   3.732   1.326   2.062
 2880SOL    HW1 2299   3.639   1.347   2.031
 2880SOL    HW2 2300   3.742   1.227   2.075
 2881SOL     OW 2301   3.812   1.801   2.789
 2881SOL    HW1 2302   3.770   1.715   2.762
 2881SOL    HW2 2303   3.906   1.804   2.755
 3004SOL     OW 2304   3.837   2.599   1.597
 3004SOL    HW1 2305   3.925   2.586   1.642
 3004SOL    HW2 2306   3.824   2.696   1.575
 3008SOL     OW 2307   4.041   2.113   1.801
 3008SOL    HW1 2308   4.112   2.184   1.807
 3008SOL    HW2 2309   3.953   2.152   1.829
 3020SOL     OW 2310   3.926   2.147   1.498
 3020SOL    HW1 2311   3.846   2.207   1.485
 3020SOL    HW2 2312   3.916   2.098   1.584
 3033SOL     OW 2313   3.802   2.418   1.386
 3033SOL    HW1 2314   3.894   2.417   1.345
 3033SOL    HW2 2315   3.796   2.492   1.453
 3063SOL     OW 2316   3.913   2.382   1.722
 3063SOL    HW1 2317   3.972   2.342   1.652
 3063SOL    HW2 2318   3.855   2.453   1.681
 3081SOL     OW 2319   3.829   2.875   1.726
 3081SOL    HW1 2320   3.752   2.842   1.780
 3081SOL    HW2 2321   3.914   2.845   1.768
 3103SOL     OW 2322   3.954   2.490   1.975
 3103SOL    HW1 2323   3.861   2.488   2.012
 3103SOL    HW2 2324   3.955   2.451   1.883
 3104SOL     OW 2325   3.949   2.137   2.858
 3104SOL    HW1 2326   3.984   2.120   2.950
 3104SOL    HW2 2327   3.861   2.092   2.846
 3105SOL     OW 2328   3.743   2.230   2.509
 3105SOL    HW1 2329   3.661   2.273   2.548
 3105SOL    HW2 2330   3.715   2.157   2.446
 3115SOL     OW 2331   3.964   2.953   2.748
 3115SOL    HW1 2332   3.978   2.869   2.800
 3115SOL    HW2 2333   3.909   3.017   2.803
 3118SOL     OW 2334   3.846   2.505   2.425
 3118SOL    HW1 2335   3.801   2.417   2.442
 3118SOL    HW2 2336   3.845   2.559   2.509
 3119SOL     OW 2337   3.751   3.458   1.979
 3119SOL    HW1 2338   3.732   3.362   2.000
 3119SOL    HW2 2339   3.718   3.516   2.054
 3123SOL     OW 2340   3.921   2.838   3.126
 3123SOL    HW1 2341   4.010   2.793   3.112
 3123SOL    HW2 2342   3.848   2.773   3.107
 3128SOL     OW 2343   3.800   2.673   2.651
 3128SOL    HW1 2344   3.899   2.661   2.660
 3128SOL    HW2 2345   3.776   2.768   2.672
 3134SOL     OW 2346   4.045   2.805   2.104
 3134SOL    HW1 2347   4.127   2.844   2.062
 3134SOL    HW2 2348   4.018   2.723   2.055
 3139SOL     OW 2349   4.106   2.562   2.342
 3139SOL    HW1 2350   4.151   2.472   2.339
 3139SOL    HW2 2351   4.012   2.551   2.375
 3146SOL     OW 2352   4.021   1.897   2.033
 3146SOL    HW1 2353   4.070   1.981   2.012
 3146SOL    HW2 2354   4.083   1.832   2.078
 3149SOL     OW 2355   3.802   2.418   3.248
 3149SOL    HW1 2356   3.894   2.417   3.207
 3149SOL    HW2 2357   3.796   2.492   3.315
 3166SOL     OW 2358   3.761   3.172   3.144
 3166SOL    HW1 2359   3.814   3.123   3.212
 3166SOL    HW2 2360   3.783   3.270   3.149
 3168SOL     OW 2361   4.031   1.925   2.480
 3168SOL    HW1 2362   4.020   2.019   2.513
 3168SOL    HW2 2363   4.026   1.862   2.557
 3172SOL     OW 2364   4.043   2.672   2.811
 3172SOL    HW1 2365   4.136   2.708   2.816
 3172SOL    HW2 2366   4.037   2.587   2.863
 3173SOL     OW 2367   4.063   2.371   2.868
 3173SOL    HW1 2368   4.011   2.288   2.851
 3173SOL    HW2 2369   4.140   2.376   2.804
 3174SOL     OW 2370   3.732   3.188   2.062
 3174SOL    HW1 2371   3.639   3.209   2.031
 3174SOL    HW2 2372   3.742   3.089   2.075
 3178SOL     OW 2373   3.764   2.406   2.976
 3178SOL    HW1 2374   3.849   2.373   2.935
 3178SOL    HW2 2375   3.777   2.421   3.074
 3186SOL     OW 2376   3.807   3.120   2.884
 3186SOL    HW1 2377   3.802   3.119   2.984
 3186SOL    HW2 2378   3.724   3.079   2.846
 3192SOL     OW 2379   3.987   2.188   2.582
 3192SOL    HW1 2380   3.908   2.239   2.548
 3192SOL    HW2 2381   3.978   2.173   2.680
 3199SOL     OW 2382   3.799   2.207   1.895
 3199SOL    HW1 2383   3.707   2.179   1.866
 3199SOL    HW2 2384   3.830   2.284   1.839
 3200SOL     OW 2385   3.796   2.028   2.180
 3200SOL    HW1 2386   3.779   2.111   2.126
 3200SOL    HW2 2387   3.886   1.991   2.158
 3210SOL     OW 2388   3.803   3.102   2.515
 3210SOL    HW1 2389   3.802   3.055   2.603
 3210SOL    HW2 2390   3.885   3.074   2.464
 3212SOL     OW 2391   4.152   2.286   2.382
 3212SOL    HW1 2392   4.182   2.214   2.320
 3212SOL    HW2 2393   4.113   2.246   2.465
 3218SOL     OW 2394   3.763   2.939   2.162
 3218SOL    HW1 2395   3.862   2.928   2.153
 3218SOL    HW2 2396   3.723   2.853   2.194
   4.74284   4.74284   4.74284
