; mobley_5467162_GMX.itp created by acpype (v: 2023.10.27) on Thu May 21 00:20:21 2026

[ atomtypes ]
;name   bond_type     mass     charge   ptype   sigma         epsilon       Amb
 ca       ca          0.00000  0.00000   A     3.31521e-01   4.13379e-01 ; 1.86  0.0988
 c3       c3          0.00000  0.00000   A     3.39771e-01   4.51035e-01 ; 1.91  0.1078
 oh       oh          0.00000  0.00000   A     3.24287e-01   3.89112e-01 ; 1.82  0.0930
 ha       ha          0.00000  0.00000   A     2.62548e-01   6.73624e-02 ; 1.47  0.0161
 hc       hc          0.00000  0.00000   A     2.60018e-01   8.70272e-02 ; 1.46  0.0208
 ho       ho          0.00000  0.00000   A     5.37925e-02   1.96648e-02 ; 0.30  0.0047

[ moleculetype ]
;name            nrexcl
 mobley_5467162   3

[ atoms ]
;   nr  type  resi  res  atom  cgnr     charge      mass       ; qtot   bond_type
     1   ca     1   MOL    C1    1    -0.093000     12.01000 ; qtot -0.093
     2   ca     1   MOL    C2    2    -0.093000     12.01000 ; qtot -0.186
     3   ca     1   MOL    C3    3    -0.184500     12.01000 ; qtot -0.370
     4   ca     1   MOL    C4    4    -0.184500     12.01000 ; qtot -0.555
     5   ca     1   MOL    C5    5    -0.099300     12.01000 ; qtot -0.654
     6   ca     1   MOL    C6    6     0.119100     12.01000 ; qtot -0.535
     7   c3     1   MOL    C7    7    -0.085767     12.01000 ; qtot -0.621
     8   c3     1   MOL    C8    8    -0.085767     12.01000 ; qtot -0.707
     9   c3     1   MOL    C9    9    -0.085767     12.01000 ; qtot -0.793
    10   c3     1   MOL   C10   10    -0.004700     12.01000 ; qtot -0.797
    11   oh     1   MOL    O1   11    -0.499102     16.00000 ; qtot -1.296
    12   ha     1   MOL    H1   12     0.135000      1.00800 ; qtot -1.161
    13   ha     1   MOL    H2   13     0.135000      1.00800 ; qtot -1.026
    14   ha     1   MOL    H3   14     0.140500      1.00800 ; qtot -0.886
    15   ha     1   MOL    H4   15     0.140500      1.00800 ; qtot -0.745
    16   hc     1   MOL    H5   16     0.036367      1.00800 ; qtot -0.709
    17   hc     1   MOL    H6   17     0.036367      1.00800 ; qtot -0.673
    18   hc     1   MOL    H7   18     0.036367      1.00800 ; qtot -0.636
    19   hc     1   MOL    H8   19     0.036367      1.00800 ; qtot -0.600
    20   hc     1   MOL    H9   20     0.036367      1.00800 ; qtot -0.563
    21   hc     1   MOL   H10   21     0.036367      1.00800 ; qtot -0.527
    22   hc     1   MOL   H11   22     0.036367      1.00800 ; qtot -0.491
    23   hc     1   MOL   H12   23     0.036367      1.00800 ; qtot -0.454
    24   hc     1   MOL   H13   24     0.036367      1.00800 ; qtot -0.418
    25   ho     1   MOL   H14   25     0.418000      1.00800 ; qtot 0.000

[ bonds ]
;   ai     aj funct   r             k
     1      3   1    1.3986e-01    2.9644e+05 ;     C1 - C3    
     1      5   1    1.3986e-01    2.9644e+05 ;     C1 - C5    
     1     12   1    1.0860e-01    3.0183e+05 ;     C1 - H1    
     2      4   1    1.3986e-01    2.9644e+05 ;     C2 - C4    
     2      5   1    1.3986e-01    2.9644e+05 ;     C2 - C5    
     2     13   1    1.0860e-01    3.0183e+05 ;     C2 - H2    
     3      6   1    1.3986e-01    2.9644e+05 ;     C3 - C6    
     3     14   1    1.0860e-01    3.0183e+05 ;     C3 - H3    
     4      6   1    1.3986e-01    2.9644e+05 ;     C4 - C6    
     4     15   1    1.0860e-01    3.0183e+05 ;     C4 - H4    
     5     10   1    1.5147e-01    2.0410e+05 ;     C5 - C10   
     6     11   1    1.3644e-01    2.9167e+05 ;     C6 - O1    
     7     10   1    1.5354e-01    1.9154e+05 ;     C7 - C10   
     7     16   1    1.0962e-01    2.8891e+05 ;     C7 - H5    
     7     17   1    1.0962e-01    2.8891e+05 ;     C7 - H6    
     7     18   1    1.0962e-01    2.8891e+05 ;     C7 - H7    
     8     10   1    1.5354e-01    1.9154e+05 ;     C8 - C10   
     8     19   1    1.0962e-01    2.8891e+05 ;     C8 - H8    
     8     20   1    1.0962e-01    2.8891e+05 ;     C8 - H9    
     8     21   1    1.0962e-01    2.8891e+05 ;     C8 - H10   
     9     10   1    1.5354e-01    1.9154e+05 ;     C9 - C10   
     9     22   1    1.0962e-01    2.8891e+05 ;     C9 - H11   
     9     23   1    1.0962e-01    2.8891e+05 ;     C9 - H12   
     9     24   1    1.0962e-01    2.8891e+05 ;     C9 - H13   
    11     25   1    9.7250e-02    4.4811e+05 ;     O1 - H14   

[ pairs ]
;   ai     aj    funct
     1      4      1 ;     C1 - C4    
     1      7      1 ;     C1 - C7    
     1      8      1 ;     C1 - C8    
     1      9      1 ;     C1 - C9    
     1     11      1 ;     C1 - O1    
     1     13      1 ;     C1 - H2    
     2      3      1 ;     C2 - C3    
     2      7      1 ;     C2 - C7    
     2      8      1 ;     C2 - C8    
     2      9      1 ;     C2 - C9    
     2     11      1 ;     C2 - O1    
     3     10      1 ;     C3 - C10   
     3     15      1 ;     C3 - H4    
     3     25      1 ;     C3 - H14   
     4     10      1 ;     C4 - C10   
     4     14      1 ;     C4 - H3    
     4     25      1 ;     C4 - H14   
     5      6      1 ;     C5 - C6    
     5     14      1 ;     C5 - H3    
     5     15      1 ;     C5 - H4    
     5     16      1 ;     C5 - H5    
     5     17      1 ;     C5 - H6    
     5     18      1 ;     C5 - H7    
     5     19      1 ;     C5 - H8    
     5     20      1 ;     C5 - H9    
     5     21      1 ;     C5 - H10   
     5     22      1 ;     C5 - H11   
     5     23      1 ;     C5 - H12   
     5     24      1 ;     C5 - H13   
     6     13      1 ;     C6 - H2    
     7     19      1 ;     C7 - H8    
     7     20      1 ;     C7 - H9    
     7     21      1 ;     C7 - H10   
     7     22      1 ;     C7 - H11   
     7     23      1 ;     C7 - H12   
     7     24      1 ;     C7 - H13   
     8     16      1 ;     C8 - H5    
     8     17      1 ;     C8 - H6    
     8     18      1 ;     C8 - H7    
     8     22      1 ;     C8 - H11   
     8     23      1 ;     C8 - H12   
     8     24      1 ;     C8 - H13   
     9     16      1 ;     C9 - H5    
     9     17      1 ;     C9 - H6    
     9     18      1 ;     C9 - H7    
     9     19      1 ;     C9 - H8    
     9     20      1 ;     C9 - H9    
     9     21      1 ;     C9 - H10   
    10     13      1 ;    C10 - H2    
    11     14      1 ;     O1 - H3    
    11     15      1 ;     O1 - H4    
    12      2      1 ;     H1 - C2    
    12      6      1 ;     H1 - C6    
    12     10      1 ;     H1 - C10   
    12     14      1 ;     H1 - H3    
    13     15      1 ;     H2 - H4    

[ angles ]
;   ai     aj     ak    funct   theta         cth
     1      3      6      1    1.2002e+02    5.3279e+02 ;     C1 - C3     - C6    
     1      3     14      1    1.1988e+02    3.7572e+02 ;     C1 - C3     - H3    
     1      5      2      1    1.2002e+02    5.3279e+02 ;     C1 - C5     - C2    
     1      5     10      1    1.2083e+02    5.0827e+02 ;     C1 - C5     - C10   
     2      4      6      1    1.2002e+02    5.3279e+02 ;     C2 - C4     - C6    
     2      4     15      1    1.1988e+02    3.7572e+02 ;     C2 - C4     - H4    
     2      5     10      1    1.2083e+02    5.0827e+02 ;     C2 - C5     - C10   
     3      1      5      1    1.2002e+02    5.3279e+02 ;     C3 - C1     - C5    
     3      1     12      1    1.1988e+02    3.7572e+02 ;     C3 - C1     - H1    
     3      6      4      1    1.2002e+02    5.3279e+02 ;     C3 - C6     - C4    
     3      6     11      1    1.1990e+02    6.5990e+02 ;     C3 - C6     - O1    
     4      2      5      1    1.2002e+02    5.3279e+02 ;     C4 - C2     - C5    
     4      2     13      1    1.1988e+02    3.7572e+02 ;     C4 - C2     - H2    
     4      6     11      1    1.1990e+02    6.5990e+02 ;     C4 - C6     - O1    
     5      1     12      1    1.1988e+02    3.7572e+02 ;     C5 - C1     - H1    
     5      2     13      1    1.1988e+02    3.7572e+02 ;     C5 - C2     - H2    
     5     10      7      1    1.1242e+02    5.0484e+02 ;     C5 - C10    - C7    
     5     10      8      1    1.1242e+02    5.0484e+02 ;     C5 - C10    - C8    
     5     10      9      1    1.1242e+02    5.0484e+02 ;     C5 - C10    - C9    
     6      3     14      1    1.1988e+02    3.7572e+02 ;     C6 - C3     - H3    
     6      4     15      1    1.1988e+02    3.7572e+02 ;     C6 - C4     - H4    
     6     11     25      1    1.0858e+02    5.6409e+02 ;     C6 - O1     - H14   
     7     10      8      1    1.1263e+02    5.0099e+02 ;     C7 - C10    - C8    
     7     10      9      1    1.1263e+02    5.0099e+02 ;     C7 - C10    - C9    
     8     10      9      1    1.1263e+02    5.0099e+02 ;     C8 - C10    - C9    
    10      7     16      1    1.0968e+02    3.6208e+02 ;    C10 - C7     - H5    
    10      7     17      1    1.0968e+02    3.6208e+02 ;    C10 - C7     - H6    
    10      7     18      1    1.0968e+02    3.6208e+02 ;    C10 - C7     - H7    
    10      8     19      1    1.0968e+02    3.6208e+02 ;    C10 - C8     - H8    
    10      8     20      1    1.0968e+02    3.6208e+02 ;    C10 - C8     - H9    
    10      8     21      1    1.0968e+02    3.6208e+02 ;    C10 - C8     - H10   
    10      9     22      1    1.0968e+02    3.6208e+02 ;    C10 - C9     - H11   
    10      9     23      1    1.0968e+02    3.6208e+02 ;    C10 - C9     - H12   
    10      9     24      1    1.0968e+02    3.6208e+02 ;    C10 - C9     - H13   
    16      7     17      1    1.0773e+02    2.9957e+02 ;     H5 - C7     - H6    
    16      7     18      1    1.0773e+02    2.9957e+02 ;     H5 - C7     - H7    
    17      7     18      1    1.0773e+02    2.9957e+02 ;     H6 - C7     - H7    
    19      8     20      1    1.0773e+02    2.9957e+02 ;     H8 - C8     - H9    
    19      8     21      1    1.0773e+02    2.9957e+02 ;     H8 - C8     - H10   
    20      8     21      1    1.0773e+02    2.9957e+02 ;     H9 - C8     - H10   
    22      9     23      1    1.0773e+02    2.9957e+02 ;    H11 - C9     - H12   
    22      9     24      1    1.0773e+02    2.9957e+02 ;    H11 - C9     - H13   
    23      9     24      1    1.0773e+02    2.9957e+02 ;    H12 - C9     - H13   

[ dihedrals ] ; propers
; for gromacs 4.5 or higher, using funct 9
;    i      j      k      l   func   phase     kd      pn
     1      3      6      4      9   180.00  15.16700   2 ;     C1-    C3-    C6-    C4
     1      3      6     11      9   180.00  15.16700   2 ;     C1-    C3-    C6-    O1
     1      5      2      4      9   180.00  15.16700   2 ;     C1-    C5-    C2-    C4
     1      5      2     13      9   180.00  15.16700   2 ;     C1-    C5-    C2-    H2
     1      5     10      7      9   180.00   1.00416   2 ;     C1-    C5-   C10-    C7
     1      5     10      8      9   180.00   1.00416   2 ;     C1-    C5-   C10-    C8
     1      5     10      9      9   180.00   1.00416   2 ;     C1-    C5-   C10-    C9
     2      4      6      3      9   180.00  15.16700   2 ;     C2-    C4-    C6-    C3
     2      4      6     11      9   180.00  15.16700   2 ;     C2-    C4-    C6-    O1
     2      5     10      7      9   180.00   1.00416   2 ;     C2-    C5-   C10-    C7
     2      5     10      8      9   180.00   1.00416   2 ;     C2-    C5-   C10-    C8
     2      5     10      9      9   180.00   1.00416   2 ;     C2-    C5-   C10-    C9
     3      1      5      2      9   180.00  15.16700   2 ;     C3-    C1-    C5-    C2
     3      1      5     10      9   180.00  15.16700   2 ;     C3-    C1-    C5-   C10
     3      6      4     15      9   180.00  15.16700   2 ;     C3-    C6-    C4-    H4
     3      6     11     25      9   180.00   3.57732   2 ;     C3-    C6-    O1-   H14
     4      2      5     10      9   180.00  15.16700   2 ;     C4-    C2-    C5-   C10
     4      6      3     14      9   180.00  15.16700   2 ;     C4-    C6-    C3-    H3
     4      6     11     25      9   180.00   3.57732   2 ;     C4-    C6-    O1-   H14
     5      1      3      6      9   180.00  15.16700   2 ;     C5-    C1-    C3-    C6
     5      1      3     14      9   180.00  15.16700   2 ;     C5-    C1-    C3-    H3
     5      2      4      6      9   180.00  15.16700   2 ;     C5-    C2-    C4-    C6
     5      2      4     15      9   180.00  15.16700   2 ;     C5-    C2-    C4-    H4
     5     10      7     16      9     0.00   0.65084   3 ;     C5-   C10-    C7-    H5
     5     10      7     17      9     0.00   0.65084   3 ;     C5-   C10-    C7-    H6
     5     10      7     18      9     0.00   0.65084   3 ;     C5-   C10-    C7-    H7
     5     10      8     19      9     0.00   0.65084   3 ;     C5-   C10-    C8-    H8
     5     10      8     20      9     0.00   0.65084   3 ;     C5-   C10-    C8-    H9
     5     10      8     21      9     0.00   0.65084   3 ;     C5-   C10-    C8-   H10
     5     10      9     22      9     0.00   0.65084   3 ;     C5-   C10-    C9-   H11
     5     10      9     23      9     0.00   0.65084   3 ;     C5-   C10-    C9-   H12
     5     10      9     24      9     0.00   0.65084   3 ;     C5-   C10-    C9-   H13
     6      4      2     13      9   180.00  15.16700   2 ;     C6-    C4-    C2-    H2
     7     10      8     19      9     0.00   0.54392   3 ;     C7-   C10-    C8-    H8
     7     10      8     20      9     0.00   0.54392   3 ;     C7-   C10-    C8-    H9
     7     10      8     21      9     0.00   0.54392   3 ;     C7-   C10-    C8-   H10
     7     10      9     22      9     0.00   0.54392   3 ;     C7-   C10-    C9-   H11
     7     10      9     23      9     0.00   0.54392   3 ;     C7-   C10-    C9-   H12
     7     10      9     24      9     0.00   0.54392   3 ;     C7-   C10-    C9-   H13
     8     10      7     16      9     0.00   0.54392   3 ;     C8-   C10-    C7-    H5
     8     10      7     17      9     0.00   0.54392   3 ;     C8-   C10-    C7-    H6
     8     10      7     18      9     0.00   0.54392   3 ;     C8-   C10-    C7-    H7
     8     10      9     22      9     0.00   0.54392   3 ;     C8-   C10-    C9-   H11
     8     10      9     23      9     0.00   0.54392   3 ;     C8-   C10-    C9-   H12
     8     10      9     24      9     0.00   0.54392   3 ;     C8-   C10-    C9-   H13
     9     10      7     16      9     0.00   0.54392   3 ;     C9-   C10-    C7-    H5
     9     10      7     17      9     0.00   0.54392   3 ;     C9-   C10-    C7-    H6
     9     10      7     18      9     0.00   0.54392   3 ;     C9-   C10-    C7-    H7
     9     10      8     19      9     0.00   0.54392   3 ;     C9-   C10-    C8-    H8
     9     10      8     20      9     0.00   0.54392   3 ;     C9-   C10-    C8-    H9
     9     10      8     21      9     0.00   0.54392   3 ;     C9-   C10-    C8-   H10
    10      5      2     13      9   180.00  15.16700   2 ;    C10-    C5-    C2-    H2
    11      6      3     14      9   180.00  15.16700   2 ;     O1-    C6-    C3-    H3
    11      6      4     15      9   180.00  15.16700   2 ;     O1-    C6-    C4-    H4
    12      1      3      6      9   180.00  15.16700   2 ;     H1-    C1-    C3-    C6
    12      1      3     14      9   180.00  15.16700   2 ;     H1-    C1-    C3-    H3
    12      1      5      2      9   180.00  15.16700   2 ;     H1-    C1-    C5-    C2
    12      1      5     10      9   180.00  15.16700   2 ;     H1-    C1-    C5-   C10
    13      2      4     15      9   180.00  15.16700   2 ;     H2-    C2-    C4-    H4

[ dihedrals ] ; impropers
; treated as propers in GROMACS to use correct AMBER analytical function
;    i      j      k      l   func   phase     kd      pn
     1      2      5     10      4   180.00   4.60240   2 ;     C1-    C2-    C5-   C10
     1      6      3     14      4   180.00   4.60240   2 ;     C1-    C6-    C3-    H3
     2      6      4     15      4   180.00   4.60240   2 ;     C2-    C6-    C4-    H4
     3      4      6     11      4   180.00   4.60240   2 ;     C3-    C4-    C6-    O1
     4      5      2     13      4   180.00   4.60240   2 ;     C4-    C5-    C2-    H2
    12      1      5      3      4   180.00   4.60240   2 ;     H1-    C1-    C5-    C3
