; mobley_242480_GMX.itp created by acpype (v: 2023.10.27) on Thu May 21 00:15:09 2026

[ atomtypes ]
;name   bond_type     mass     charge   ptype   sigma         epsilon       Amb
 ca       ca          0.00000  0.00000   A     3.31521e-01   4.13379e-01 ; 1.86  0.0988
 c        c           0.00000  0.00000   A     3.31521e-01   4.13379e-01 ; 1.86  0.0988
 nv       nv          0.00000  0.00000   A     3.36813e-01   4.68608e-01 ; 1.89  0.1120
 o        o           0.00000  0.00000   A     3.04812e-01   6.12119e-01 ; 1.71  0.1463
 ha       ha          0.00000  0.00000   A     2.62548e-01   6.73624e-02 ; 1.47  0.0161
 hn       hn          0.00000  0.00000   A     1.10650e-01   4.18400e-02 ; 0.62  0.0100

[ moleculetype ]
;name            nrexcl
 mobley_242480    3

[ atoms ]
;   nr  type  resi  res  atom  cgnr     charge      mass       ; qtot   bond_type
     1   ca     1   MOL    C1    1    -0.119500     12.01000 ; qtot -0.119
     2   ca     1   MOL    C2    2    -0.119500     12.01000 ; qtot -0.239
     3   ca     1   MOL    C3    3    -0.087500     12.01000 ; qtot -0.327
     4   ca     1   MOL    C4    4    -0.087500     12.01000 ; qtot -0.414
     5   ca     1   MOL    C5    5    -0.140500     12.01000 ; qtot -0.554
     6   ca     1   MOL    C6    6    -0.140500     12.01000 ; qtot -0.695
     7   ca     1   MOL    C7    7    -0.127100     12.01000 ; qtot -0.822
     8   ca     1   MOL    C8    8    -0.127100     12.01000 ; qtot -0.949
     9   ca     1   MOL    C9    9    -0.175600     12.01000 ; qtot -1.125
    10   ca     1   MOL   C10   10    -0.175600     12.01000 ; qtot -1.300
    11   ca     1   MOL   C11   11     0.173100     12.01000 ; qtot -1.127
    12   ca     1   MOL   C12   12     0.173100     12.01000 ; qtot -0.954
    13    c     1   MOL   C13   13     0.598800     12.01000 ; qtot -0.355
    14    c     1   MOL   C14   14     0.598800     12.01000 ; qtot 0.243
    15   nv     1   MOL    N1   15    -0.831700     14.01000 ; qtot -0.588
    16   nv     1   MOL    N2   16    -0.831700     14.01000 ; qtot -1.420
    17    o     1   MOL    O1   17    -0.554100     16.00000 ; qtot -1.974
    18    o     1   MOL    O2   18    -0.554100     16.00000 ; qtot -2.528
    19   ha     1   MOL    H1   19     0.139000      1.00800 ; qtot -2.389
    20   ha     1   MOL    H2   20     0.139000      1.00800 ; qtot -2.250
    21   ha     1   MOL    H3   21     0.155000      1.00800 ; qtot -2.095
    22   ha     1   MOL    H4   22     0.155000      1.00800 ; qtot -1.940
    23   ha     1   MOL    H5   23     0.138500      1.00800 ; qtot -1.802
    24   ha     1   MOL    H6   24     0.138500      1.00800 ; qtot -1.663
    25   hn     1   MOL    H7   25     0.415800      1.00800 ; qtot -1.247
    26   hn     1   MOL    H8   26     0.415800      1.00800 ; qtot -0.832
    27   hn     1   MOL    H9   27     0.415800      1.00800 ; qtot -0.416
    28   hn     1   MOL   H10   28     0.415800      1.00800 ; qtot 0.000

[ bonds ]
;   ai     aj funct   r             k
     1      2   1    1.3986e-01    2.9644e+05 ;     C1 - C2    
     1      3   1    1.3986e-01    2.9644e+05 ;     C1 - C3    
     1     19   1    1.0860e-01    3.0183e+05 ;     C1 - H1    
     2      4   1    1.3986e-01    2.9644e+05 ;     C2 - C4    
     2     20   1    1.0860e-01    3.0183e+05 ;     C2 - H2    
     3      7   1    1.3986e-01    2.9644e+05 ;     C3 - C7    
     3     21   1    1.0860e-01    3.0183e+05 ;     C3 - H3    
     4      8   1    1.3986e-01    2.9644e+05 ;     C4 - C8    
     4     22   1    1.0860e-01    3.0183e+05 ;     C4 - H4    
     5      6   1    1.3986e-01    2.9644e+05 ;     C5 - C6    
     5     11   1    1.3986e-01    2.9644e+05 ;     C5 - C11   
     5     23   1    1.0860e-01    3.0183e+05 ;     C5 - H5    
     6     12   1    1.3986e-01    2.9644e+05 ;     C6 - C12   
     6     24   1    1.0860e-01    3.0183e+05 ;     C6 - H6    
     7      8   1    1.3986e-01    2.9644e+05 ;     C7 - C8    
     7     13   1    1.4907e-01    2.1994e+05 ;     C7 - C13   
     8     14   1    1.4907e-01    2.1994e+05 ;     C8 - C14   
     9     10   1    1.3986e-01    2.9644e+05 ;     C9 - C10   
     9     11   1    1.3986e-01    2.9644e+05 ;     C9 - C11   
     9     13   1    1.4907e-01    2.1994e+05 ;     C9 - C13   
    10     12   1    1.3986e-01    2.9644e+05 ;    C10 - C12   
    10     14   1    1.4907e-01    2.1994e+05 ;    C10 - C14   
    11     15   1    1.3744e-01    2.8644e+05 ;    C11 - N1    
    12     16   1    1.3744e-01    2.8644e+05 ;    C12 - N2    
    13     17   1    1.2190e-01    4.9421e+05 ;    C13 - O1    
    14     18   1    1.2190e-01    4.9421e+05 ;    C14 - O2    
    15     25   1    1.0114e-01    3.9961e+05 ;     N1 - H7    
    15     26   1    1.0114e-01    3.9961e+05 ;     N1 - H8    
    16     27   1    1.0114e-01    3.9961e+05 ;     N2 - H9    
    16     28   1    1.0114e-01    3.9961e+05 ;     N2 - H10   

[ pairs ]
;   ai     aj    funct
     1      8      1 ;     C1 - C8    
     1     13      1 ;     C1 - C13   
     1     22      1 ;     C1 - H4    
     2      7      1 ;     C2 - C7    
     2     14      1 ;     C2 - C14   
     2     21      1 ;     C2 - H3    
     3      4      1 ;     C3 - C4    
     3      9      1 ;     C3 - C9    
     3     14      1 ;     C3 - C14   
     3     17      1 ;     C3 - O1    
     3     20      1 ;     C3 - H2    
     4     10      1 ;     C4 - C10   
     4     13      1 ;     C4 - C13   
     4     18      1 ;     C4 - O2    
     5     10      1 ;     C5 - C10   
     5     13      1 ;     C5 - C13   
     5     16      1 ;     C5 - N2    
     5     25      1 ;     C5 - H7    
     5     26      1 ;     C5 - H8    
     6      9      1 ;     C6 - C9    
     6     14      1 ;     C6 - C14   
     6     15      1 ;     C6 - N1    
     6     27      1 ;     C6 - H9    
     6     28      1 ;     C6 - H10   
     7     10      1 ;     C7 - C10   
     7     11      1 ;     C7 - C11   
     7     18      1 ;     C7 - O2    
     7     22      1 ;     C7 - H4    
     8      9      1 ;     C8 - C9    
     8     12      1 ;     C8 - C12   
     8     17      1 ;     C8 - O1    
     8     20      1 ;     C8 - H2    
     8     21      1 ;     C8 - H3    
     9     16      1 ;     C9 - N2    
     9     18      1 ;     C9 - O2    
     9     23      1 ;     C9 - H5    
     9     25      1 ;     C9 - H7    
     9     26      1 ;     C9 - H8    
    10     15      1 ;    C10 - N1    
    10     17      1 ;    C10 - O1    
    10     24      1 ;    C10 - H6    
    10     27      1 ;    C10 - H9    
    10     28      1 ;    C10 - H10   
    11     12      1 ;    C11 - C12   
    11     14      1 ;    C11 - C14   
    11     17      1 ;    C11 - O1    
    11     24      1 ;    C11 - H6    
    12     13      1 ;    C12 - C13   
    12     18      1 ;    C12 - O2    
    12     23      1 ;    C12 - H5    
    13     14      1 ;    C13 - C14   
    13     15      1 ;    C13 - N1    
    13     21      1 ;    C13 - H3    
    14     16      1 ;    C14 - N2    
    14     22      1 ;    C14 - H4    
    15     23      1 ;     N1 - H5    
    16     24      1 ;     N2 - H6    
    19      4      1 ;     H1 - C4    
    19      7      1 ;     H1 - C7    
    19     20      1 ;     H1 - H2    
    19     21      1 ;     H1 - H3    
    20     22      1 ;     H2 - H4    
    23     24      1 ;     H5 - H6    

[ angles ]
;   ai     aj     ak    funct   theta         cth
     1      2      4      1    1.2002e+02    5.3279e+02 ;     C1 - C2     - C4    
     1      2     20      1    1.1988e+02    3.7572e+02 ;     C1 - C2     - H2    
     1      3      7      1    1.2002e+02    5.3279e+02 ;     C1 - C3     - C7    
     1      3     21      1    1.1988e+02    3.7572e+02 ;     C1 - C3     - H3    
     2      1      3      1    1.2002e+02    5.3279e+02 ;     C2 - C1     - C3    
     2      1     19      1    1.1988e+02    3.7572e+02 ;     C2 - C1     - H1    
     2      4      8      1    1.2002e+02    5.3279e+02 ;     C2 - C4     - C8    
     2      4     22      1    1.1988e+02    3.7572e+02 ;     C2 - C4     - H4    
     3      1     19      1    1.1988e+02    3.7572e+02 ;     C3 - C1     - H1    
     3      7      8      1    1.2002e+02    5.3279e+02 ;     C3 - C7     - C8    
     3      7     13      1    1.2033e+02    5.1413e+02 ;     C3 - C7     - C13   
     4      2     20      1    1.1988e+02    3.7572e+02 ;     C4 - C2     - H2    
     4      8      7      1    1.2002e+02    5.3279e+02 ;     C4 - C8     - C7    
     4      8     14      1    1.2033e+02    5.1413e+02 ;     C4 - C8     - C14   
     5      6     12      1    1.2002e+02    5.3279e+02 ;     C5 - C6     - C12   
     5      6     24      1    1.1988e+02    3.7572e+02 ;     C5 - C6     - H6    
     5     11      9      1    1.2002e+02    5.3279e+02 ;     C5 - C11    - C9    
     5     11     15      1    1.2094e+02    5.6827e+02 ;     C5 - C11    - N1    
     6      5     11      1    1.2002e+02    5.3279e+02 ;     C6 - C5     - C11   
     6      5     23      1    1.1988e+02    3.7572e+02 ;     C6 - C5     - H5    
     6     12     10      1    1.2002e+02    5.3279e+02 ;     C6 - C12    - C10   
     6     12     16      1    1.2094e+02    5.6827e+02 ;     C6 - C12    - N2    
     7      3     21      1    1.1988e+02    3.7572e+02 ;     C7 - C3     - H3    
     7      8     14      1    1.2033e+02    5.1413e+02 ;     C7 - C8     - C14   
     7     13      9      1    1.1793e+02    5.0434e+02 ;     C7 - C13    - C9    
     7     13     17      1    1.2260e+02    6.5237e+02 ;     C7 - C13    - O1    
     8      4     22      1    1.1988e+02    3.7572e+02 ;     C8 - C4     - H4    
     8      7     13      1    1.2033e+02    5.1413e+02 ;     C8 - C7     - C13   
     8     14     10      1    1.1793e+02    5.0434e+02 ;     C8 - C14    - C10   
     8     14     18      1    1.2260e+02    6.5237e+02 ;     C8 - C14    - O2    
     9     10     12      1    1.2002e+02    5.3279e+02 ;     C9 - C10    - C12   
     9     10     14      1    1.2033e+02    5.1413e+02 ;     C9 - C10    - C14   
     9     11     15      1    1.2094e+02    5.6827e+02 ;     C9 - C11    - N1    
     9     13     17      1    1.2260e+02    6.5237e+02 ;     C9 - C13    - O1    
    10      9     11      1    1.2002e+02    5.3279e+02 ;    C10 - C9     - C11   
    10      9     13      1    1.2033e+02    5.1413e+02 ;    C10 - C9     - C13   
    10     12     16      1    1.2094e+02    5.6827e+02 ;    C10 - C12    - N2    
    10     14     18      1    1.2260e+02    6.5237e+02 ;    C10 - C14    - O2    
    11      5     23      1    1.1988e+02    3.7572e+02 ;    C11 - C5     - H5    
    11      9     13      1    1.2033e+02    5.1413e+02 ;    C11 - C9     - C13   
    11     15     25      1    1.1673e+02    4.8292e+02 ;    C11 - N1     - H7    
    11     15     26      1    1.1673e+02    4.8292e+02 ;    C11 - N1     - H8    
    12      6     24      1    1.1988e+02    3.7572e+02 ;    C12 - C6     - H6    
    12     10     14      1    1.2033e+02    5.1413e+02 ;    C12 - C10    - C14   
    12     16     27      1    1.1673e+02    4.8292e+02 ;    C12 - N2     - H9    
    12     16     28      1    1.1673e+02    4.8292e+02 ;    C12 - N2     - H10   
    25     15     26      1    1.1528e+02    3.8794e+02 ;     H7 - N1     - H8    
    27     16     28      1    1.1528e+02    3.8794e+02 ;     H9 - N2     - H10   

[ dihedrals ] ; propers
; for gromacs 4.5 or higher, using funct 9
;    i      j      k      l   func   phase     kd      pn
     1      2      4      8      9   180.00  15.16700   2 ;     C1-    C2-    C4-    C8
     1      2      4     22      9   180.00  15.16700   2 ;     C1-    C2-    C4-    H4
     1      3      7      8      9   180.00  15.16700   2 ;     C1-    C3-    C7-    C8
     1      3      7     13      9   180.00  15.16700   2 ;     C1-    C3-    C7-   C13
     2      1      3      7      9   180.00  15.16700   2 ;     C2-    C1-    C3-    C7
     2      1      3     21      9   180.00  15.16700   2 ;     C2-    C1-    C3-    H3
     2      4      8      7      9   180.00  15.16700   2 ;     C2-    C4-    C8-    C7
     2      4      8     14      9   180.00  15.16700   2 ;     C2-    C4-    C8-   C14
     3      1      2      4      9   180.00  15.16700   2 ;     C3-    C1-    C2-    C4
     3      1      2     20      9   180.00  15.16700   2 ;     C3-    C1-    C2-    H2
     3      7      8      4      9   180.00  15.16700   2 ;     C3-    C7-    C8-    C4
     3      7      8     14      9   180.00  15.16700   2 ;     C3-    C7-    C8-   C14
     3      7     13      9      9   180.00   5.23000   2 ;     C3-    C7-   C13-    C9
     3      7     13     17      9   180.00   2.42672   2 ;     C3-    C7-   C13-    O1
     4      8      7     13      9   180.00  15.16700   2 ;     C4-    C8-    C7-   C13
     4      8     14     10      9   180.00   5.23000   2 ;     C4-    C8-   C14-   C10
     4      8     14     18      9   180.00   2.42672   2 ;     C4-    C8-   C14-    O2
     5      6     12     10      9   180.00  15.16700   2 ;     C5-    C6-   C12-   C10
     5      6     12     16      9   180.00  15.16700   2 ;     C5-    C6-   C12-    N2
     5     11      9     10      9   180.00  15.16700   2 ;     C5-   C11-    C9-   C10
     5     11      9     13      9   180.00  15.16700   2 ;     C5-   C11-    C9-   C13
     5     11     15     25      9   180.00   4.39320   2 ;     C5-   C11-    N1-    H7
     5     11     15     26      9   180.00   4.39320   2 ;     C5-   C11-    N1-    H8
     6      5     11      9      9   180.00  15.16700   2 ;     C6-    C5-   C11-    C9
     6      5     11     15      9   180.00  15.16700   2 ;     C6-    C5-   C11-    N1
     6     12     10      9      9   180.00  15.16700   2 ;     C6-   C12-   C10-    C9
     6     12     10     14      9   180.00  15.16700   2 ;     C6-   C12-   C10-   C14
     6     12     16     27      9   180.00   4.39320   2 ;     C6-   C12-    N2-    H9
     6     12     16     28      9   180.00   4.39320   2 ;     C6-   C12-    N2-   H10
     7      8      4     22      9   180.00  15.16700   2 ;     C7-    C8-    C4-    H4
     7      8     14     10      9   180.00   5.23000   2 ;     C7-    C8-   C14-   C10
     7      8     14     18      9   180.00   2.42672   2 ;     C7-    C8-   C14-    O2
     7     13      9     10      9   180.00   5.23000   2 ;     C7-   C13-    C9-   C10
     7     13      9     11      9   180.00   5.23000   2 ;     C7-   C13-    C9-   C11
     8      4      2     20      9   180.00  15.16700   2 ;     C8-    C4-    C2-    H2
     8      7      3     21      9   180.00  15.16700   2 ;     C8-    C7-    C3-    H3
     8      7     13      9      9   180.00   5.23000   2 ;     C8-    C7-   C13-    C9
     8      7     13     17      9   180.00   2.42672   2 ;     C8-    C7-   C13-    O1
     8     14     10      9      9   180.00   5.23000   2 ;     C8-   C14-   C10-    C9
     8     14     10     12      9   180.00   5.23000   2 ;     C8-   C14-   C10-   C12
     9     10     12     16      9   180.00  15.16700   2 ;     C9-   C10-   C12-    N2
     9     10     14     18      9   180.00   2.42672   2 ;     C9-   C10-   C14-    O2
     9     11      5     23      9   180.00  15.16700   2 ;     C9-   C11-    C5-    H5
     9     11     15     25      9   180.00   4.39320   2 ;     C9-   C11-    N1-    H7
     9     11     15     26      9   180.00   4.39320   2 ;     C9-   C11-    N1-    H8
    10      9     11     15      9   180.00  15.16700   2 ;    C10-    C9-   C11-    N1
    10      9     13     17      9   180.00   2.42672   2 ;    C10-    C9-   C13-    O1
    10     12      6     24      9   180.00  15.16700   2 ;    C10-   C12-    C6-    H6
    10     12     16     27      9   180.00   4.39320   2 ;    C10-   C12-    N2-    H9
    10     12     16     28      9   180.00   4.39320   2 ;    C10-   C12-    N2-   H10
    11      5      6     12      9   180.00  15.16700   2 ;    C11-    C5-    C6-   C12
    11      5      6     24      9   180.00  15.16700   2 ;    C11-    C5-    C6-    H6
    11      9     10     12      9   180.00  15.16700   2 ;    C11-    C9-   C10-   C12
    11      9     10     14      9   180.00  15.16700   2 ;    C11-    C9-   C10-   C14
    11      9     13     17      9   180.00   2.42672   2 ;    C11-    C9-   C13-    O1
    12      6      5     23      9   180.00  15.16700   2 ;    C12-    C6-    C5-    H5
    12     10      9     13      9   180.00  15.16700   2 ;    C12-   C10-    C9-   C13
    12     10     14     18      9   180.00   2.42672   2 ;    C12-   C10-   C14-    O2
    13      7      3     21      9   180.00  15.16700   2 ;    C13-    C7-    C3-    H3
    13      7      8     14      9   180.00  15.16700   2 ;    C13-    C7-    C8-   C14
    13      9     10     14      9   180.00  15.16700   2 ;    C13-    C9-   C10-   C14
    13      9     11     15      9   180.00  15.16700   2 ;    C13-    C9-   C11-    N1
    14      8      4     22      9   180.00  15.16700   2 ;    C14-    C8-    C4-    H4
    14     10     12     16      9   180.00  15.16700   2 ;    C14-   C10-   C12-    N2
    15     11      5     23      9   180.00  15.16700   2 ;     N1-   C11-    C5-    H5
    16     12      6     24      9   180.00  15.16700   2 ;     N2-   C12-    C6-    H6
    19      1      2      4      9   180.00  15.16700   2 ;     H1-    C1-    C2-    C4
    19      1      2     20      9   180.00  15.16700   2 ;     H1-    C1-    C2-    H2
    19      1      3      7      9   180.00  15.16700   2 ;     H1-    C1-    C3-    C7
    19      1      3     21      9   180.00  15.16700   2 ;     H1-    C1-    C3-    H3
    20      2      4     22      9   180.00  15.16700   2 ;     H2-    C2-    C4-    H4
    23      5      6     24      9   180.00  15.16700   2 ;     H5-    C5-    C6-    H6

[ dihedrals ] ; impropers
; treated as propers in GROMACS to use correct AMBER analytical function
;    i      j      k      l   func   phase     kd      pn
     1      4      2     20      4   180.00   4.60240   2 ;     C1-    C4-    C2-    H2
     1      7      3     21      4   180.00   4.60240   2 ;     C1-    C7-    C3-    H3
     2      8      4     22      4   180.00   4.60240   2 ;     C2-    C8-    C4-    H4
     5      9     11     15      4   180.00   4.60240   2 ;     C5-    C9-   C11-    N1
     5     12      6     24      4   180.00   4.60240   2 ;     C5-   C12-    C6-    H6
     6     10     12     16      4   180.00   4.60240   2 ;     C6-   C10-   C12-    N2
     6     11      5     23      4   180.00   4.60240   2 ;     C6-   C11-    C5-    H5
     7      9     13     17      4   180.00  43.93200   2 ;     C7-    C9-   C13-    O1
     8     10     14     18      4   180.00  43.93200   2 ;     C8-   C10-   C14-    O2
    11     25     15     26      4   180.00   4.60240   2 ;    C11-    H7-    N1-    H8
    12     27     16     28      4   180.00   4.60240   2 ;    C12-    H9-    N2-   H10
    13      3      7      8      4   180.00   4.60240   2 ;    C13-    C3-    C7-    C8
    13     10      9     11      4   180.00   4.60240   2 ;    C13-   C10-    C9-   C11
    14      4      8      7      4   180.00   4.60240   2 ;    C14-    C4-    C8-    C7
    14      9     10     12      4   180.00   4.60240   2 ;    C14-    C9-   C10-   C12
    19      1      3      2      4   180.00   4.60240   2 ;     H1-    C1-    C3-    C2
