mobley_1873346_GMX.gro created by acpype (v: 2023.10.27) on Thu May 21 00:23:27 2026
 2409
    1MOL     H1    1   2.402   2.556   2.302
    1MOL     C1    2   2.302   2.516   2.300
    1MOL     H2    3   2.250   2.555   2.388
    1MOL     H8    4   2.250   2.557   2.211
    1MOL     C2    5   2.297   2.367   2.299
    1MOL     C3    6   2.188   2.297   2.353
    1MOL     H3    7   2.106   2.351   2.397
    1MOL     C5    8   2.184   2.159   2.349
    1MOL     H5    9   2.101   2.105   2.389
    1MOL     C7   10   2.289   2.086   2.291
    1MOL     C6   11   2.398   2.153   2.236
    1MOL     H6   12   2.480   2.100   2.190
    1MOL     C4   13   2.402   2.295   2.240
    1MOL     H4   14   2.488   2.346   2.196
    1MOL     H7   15   2.287   1.978   2.286
   14SOL     OW   16   1.460   1.505   1.339
   14SOL    HW1   17   1.484   1.599   1.365
   14SOL    HW2   18   1.444   1.451   1.421
   18SOL     OW   19   1.127   1.341   1.690
   18SOL    HW1   20   1.174   1.341   1.778
   18SOL    HW2   21   1.079   1.254   1.679
   31SOL     OW   22   1.293   1.228   1.423
   31SOL    HW1   23   1.330   1.155   1.365
   31SOL    HW2   24   1.345   1.233   1.508
   35SOL     OW   25   1.187   1.792   1.616
   35SOL    HW1   26   1.211   1.852   1.540
   35SOL    HW2   27   1.194   1.697   1.586
   56SOL     OW   28   1.227   1.550   1.506
   56SOL    HW1   29   1.233   1.473   1.570
   56SOL    HW2   30   1.175   1.524   1.426
   95SOL     OW   31   1.754   1.223   1.588
   95SOL    HW1   32   1.845   1.184   1.575
   95SOL    HW2   33   1.762   1.319   1.612
   97SOL     OW   34   1.592   1.629   1.625
   97SOL    HW1   35   1.619   1.663   1.535
   97SOL    HW2   36   1.671   1.591   1.671
  109SOL     OW   37   1.272   1.445   1.142
  109SOL    HW1   38   1.319   1.458   1.229
  109SOL    HW2   39   1.206   1.371   1.151
  113SOL     OW   40   1.587   0.779   1.670
  113SOL    HW1   41   1.495   0.817   1.665
  113SOL    HW2   42   1.647   0.826   1.605
  122SOL     OW   43   1.728   0.935   1.854
  122SOL    HW1   44   1.682   0.928   1.765
  122SOL    HW2   45   1.666   0.979   1.920
  126SOL     OW   46   0.980   1.573   1.700
  126SOL    HW1   47   0.960   1.617   1.612
  126SOL    HW2   48   1.019   1.482   1.684
  127SOL     OW   49   1.859   1.518   1.605
  127SOL    HW1   50   1.873   1.545   1.510
  127SOL    HW2   51   1.942   1.540   1.658
  142SOL     OW   52   1.369   0.950   1.660
  142SOL    HW1   53   1.408   1.039   1.680
  142SOL    HW2   54   1.379   0.930   1.563
  147SOL     OW   55   0.930   1.678   1.465
  147SOL    HW1   56   0.906   1.660   1.370
  147SOL    HW2   57   0.960   1.772   1.475
  152SOL     OW   58   1.759   1.747   1.154
  152SOL    HW1   59   1.820   1.777   1.081
  152SOL    HW2   60   1.721   1.658   1.132
  153SOL     OW   61   1.252   1.731   1.128
  153SOL    HW1   62   1.336   1.736   1.074
  153SOL    HW2   63   1.229   1.635   1.146
  163SOL     OW   64   1.650   1.720   1.394
  163SOL    HW1   65   1.703   1.730   1.310
  163SOL    HW2   66   1.623   1.810   1.428
  171SOL     OW   67   1.614   1.292   1.289
  171SOL    HW1   68   1.674   1.295   1.369
  171SOL    HW2   69   1.539   1.356   1.302
  184SOL     OW   70   1.493   1.767   0.959
  184SOL    HW1   71   1.526   1.831   0.890
  184SOL    HW2   72   1.559   1.761   1.034
  186SOL     OW   73   1.450   1.220   1.633
  186SOL    HW1   74   1.441   1.210   1.732
  186SOL    HW2   75   1.546   1.213   1.607
  192SOL     OW   76   1.730   0.934   1.517
  192SOL    HW1   77   1.768   1.025   1.532
  192SOL    HW2   78   1.722   0.917   1.418
  197SOL     OW   79   1.861   1.569   0.851
  197SOL    HW1   80   1.790   1.557   0.781
  197SOL    HW2   81   1.862   1.490   0.911
  203SOL     OW   82   1.705   1.487   1.104
  203SOL    HW1   83   1.612   1.462   1.077
  203SOL    HW2   84   1.731   1.437   1.186
  219SOL     OW   85   1.555   1.511   2.565
  219SOL    HW1   86   1.498   1.495   2.646
  219SOL    HW2   87   1.496   1.521   2.485
  221SOL     OW   88   1.755   0.607   2.093
  221SOL    HW1   89   1.743   0.594   1.994
  221SOL    HW2   90   1.725   0.526   2.142
  227SOL     OW   91   1.460   1.505   3.201
  227SOL    HW1   92   1.484   1.599   3.227
  227SOL    HW2   93   1.444   1.451   3.283
  238SOL     OW   94   1.842   1.767   2.221
  238SOL    HW1   95   1.896   1.738   2.301
  238SOL    HW2   96   1.872   1.857   2.192
  240SOL     OW   97   1.689   0.922   2.474
  240SOL    HW1   98   1.784   0.893   2.482
  240SOL    HW2   99   1.681   0.987   2.399
  241SOL     OW  100   1.641   1.108   2.294
  241SOL    HW1  101   1.727   1.110   2.242
  241SOL    HW2  102   1.655   1.155   2.382
  244SOL     OW  103   1.293   1.228   3.285
  244SOL    HW1  104   1.330   1.155   3.227
  244SOL    HW2  105   1.345   1.233   3.370
  247SOL     OW  106   1.525   0.999   2.052
  247SOL    HW1  107   1.462   0.923   2.065
  247SOL    HW2  108   1.573   1.017   2.138
  248SOL     OW  109   1.187   1.792   3.478
  248SOL    HW1  110   1.211   1.852   3.402
  248SOL    HW2  111   1.194   1.697   3.448
  250SOL     OW  112   1.466   1.417   2.815
  250SOL    HW1  113   1.407   1.423   2.895
  250SOL    HW2  114   1.451   1.329   2.769
  251SOL     OW  115   1.667   1.714   2.434
  251SOL    HW1  116   1.626   1.691   2.346
  251SOL    HW2  117   1.649   1.640   2.499
  254SOL     OW  118   1.576   1.662   2.169
  254SOL    HW1  119   1.665   1.708   2.172
  254SOL    HW2  120   1.555   1.638   2.074
  264SOL     OW  121   1.362   1.144   2.407
  264SOL    HW1  122   1.445   1.115   2.359
  264SOL    HW2  123   1.313   1.211   2.351
  266SOL     OW  124   1.008   1.456   2.339
  266SOL    HW1  125   0.962   1.528   2.287
  266SOL    HW2  126   1.004   1.476   2.437
  268SOL     OW  127   1.795   1.066   2.735
  268SOL    HW1  128   1.733   1.051   2.659
  268SOL    HW2  129   1.743   1.077   2.820
  269SOL     OW  130   1.227   1.550   3.368
  269SOL    HW1  131   1.233   1.473   3.432
  269SOL    HW2  132   1.175   1.524   3.288
  271SOL     OW  133   1.458   0.735   2.590
  271SOL    HW1  134   1.453   0.670   2.665
  271SOL    HW2  135   1.538   0.794   2.603
  273SOL     OW  136   1.111   1.776   2.099
  273SOL    HW1  137   1.051   1.714   2.149
  273SOL    HW2  138   1.142   1.732   2.014
  275SOL     OW  139   1.632   1.377   1.943
  275SOL    HW1  140   1.600   1.471   1.933
  275SOL    HW2  141   1.556   1.314   1.931
  279SOL     OW  142   0.940   1.698   2.766
  279SOL    HW1  143   1.020   1.641   2.787
  279SOL    HW2  144   0.891   1.658   2.689
  284SOL     OW  145   0.888   1.514   3.057
  284SOL    HW1  146   0.865   1.489   2.963
  284SOL    HW2  147   0.949   1.445   3.096
  289SOL     OW  148   1.434   1.188   1.903
  289SOL    HW1  149   1.466   1.112   1.960
  289SOL    HW2  150   1.342   1.215   1.933
  293SOL     OW  151   1.227   1.570   2.655
  293SOL    HW1  152   1.248   1.644   2.590
  293SOL    HW2  153   1.295   1.570   2.728
  295SOL     OW  154   1.271   1.797   2.453
  295SOL    HW1  155   1.315   1.861   2.389
  295SOL    HW2  156   1.221   1.849   2.523
  301SOL     OW  157   1.429   1.173   2.729
  301SOL    HW1  158   1.374   1.089   2.722
  301SOL    HW2  159   1.455   1.202   2.637
  303SOL     OW  160   1.857   0.833   2.239
  303SOL    HW1  161   1.899   0.769   2.303
  303SOL    HW2  162   1.819   0.782   2.161
  305SOL     OW  163   1.664   1.280   2.519
  305SOL    HW1  164   1.763   1.288   2.533
  305SOL    HW2  165   1.619   1.364   2.550
  308SOL     OW  166   1.754   1.223   3.450
  308SOL    HW1  167   1.845   1.184   3.437
  308SOL    HW2  168   1.762   1.319   3.474
  309SOL     OW  169   1.064   1.347   3.202
  309SOL    HW1  170   0.984   1.324   3.257
  309SOL    HW2  171   1.147   1.321   3.251
  310SOL     OW  172   1.592   1.629   3.487
  310SOL    HW1  173   1.619   1.663   3.397
  310SOL    HW2  174   1.671   1.591   3.533
  311SOL     OW  175   1.111   1.195   2.962
  311SOL    HW1  176   1.071   1.239   3.043
  311SOL    HW2  177   1.070   1.232   2.879
  312SOL     OW  178   1.638   1.099   2.941
  312SOL    HW1  179   1.643   1.180   3.000
  312SOL    HW2  180   1.552   1.101   2.890
  321SOL     OW  181   1.252   1.348   2.250
  321SOL    HW1  182   1.302   1.425   2.290
  321SOL    HW2  183   1.157   1.350   2.282
  322SOL     OW  184   1.272   1.445   3.004
  322SOL    HW1  185   1.319   1.458   3.091
  322SOL    HW2  186   1.206   1.371   3.013
  340SOL     OW  187   1.859   1.518   3.467
  340SOL    HW1  188   1.873   1.545   3.372
  340SOL    HW2  189   1.942   1.540   3.520
  344SOL     OW  190   1.068   1.333   2.711
  344SOL    HW1  191   1.075   1.249   2.656
  344SOL    HW2  192   1.130   1.402   2.675
  363SOL     OW  193   1.347   1.059   3.096
  363SOL    HW1  194   1.371   0.996   3.022
  363SOL    HW2  195   1.257   1.099   3.078
  364SOL     OW  196   1.302   0.855   2.171
  364SOL    HW1  197   1.216   0.824   2.213
  364SOL    HW2  198   1.298   0.841   2.072
  365SOL     OW  199   1.759   1.747   3.016
  365SOL    HW1  200   1.820   1.777   2.943
  365SOL    HW2  201   1.721   1.658   2.994
  366SOL     OW  202   1.252   1.731   2.990
  366SOL    HW1  203   1.336   1.736   2.936
  366SOL    HW2  204   1.229   1.635   3.008
  370SOL     OW  205   1.388   1.573   2.339
  370SOL    HW1  206   1.455   1.585   2.265
  370SOL    HW2  207   1.348   1.662   2.362
  372SOL     OW  208   1.280   0.927   2.534
  372SOL    HW1  209   1.340   0.846   2.536
  372SOL    HW2  210   1.320   0.996   2.474
  374SOL     OW  211   0.672   1.616   2.016
  374SOL    HW1  212   0.681   1.626   1.917
  374SOL    HW2  213   0.632   1.527   2.037
  375SOL     OW  214   1.650   1.720   3.256
  375SOL    HW1  215   1.703   1.730   3.172
  375SOL    HW2  216   1.623   1.810   3.290
  378SOL     OW  217   1.194   1.612   1.893
  378SOL    HW1  218   1.200   1.519   1.930
  378SOL    HW2  219   1.135   1.612   1.813
  381SOL     OW  220   1.504   1.607   1.906
  381SOL    HW1  221   1.412   1.644   1.913
  381SOL    HW2  222   1.542   1.627   1.816
  383SOL     OW  223   1.614   1.292   3.151
  383SOL    HW1  224   1.674   1.295   3.231
  383SOL    HW2  225   1.539   1.356   3.164
  384SOL     OW  226   1.039   1.098   2.558
  384SOL    HW1  227   0.969   1.051   2.612
  384SOL    HW2  228   1.098   1.030   2.515
  394SOL     OW  229   1.183   1.335   1.981
  394SOL    HW1  230   1.084   1.324   1.983
  394SOL    HW2  231   1.217   1.350   2.074
  396SOL     OW  232   1.493   1.767   2.821
  396SOL    HW1  233   1.526   1.831   2.752
  396SOL    HW2  234   1.559   1.761   2.896
  400SOL     OW  235   1.674   0.883   3.116
  400SOL    HW1  236   1.647   0.794   3.079
  400SOL    HW2  237   1.675   0.951   3.043
  405SOL     OW  238   0.859   1.374   1.878
  405SOL    HW1  239   0.813   1.389   1.966
  405SOL    HW2  240   0.903   1.459   1.848
  406SOL     OW  241   0.661   1.790   2.815
  406SOL    HW1  242   0.615   1.878   2.802
  406SOL    HW2  243   0.760   1.802   2.808
  409SOL     OW  244   1.861   1.569   2.713
  409SOL    HW1  245   1.790   1.557   2.643
  409SOL    HW2  246   1.862   1.490   2.773
  415SOL     OW  247   1.705   1.487   2.966
  415SOL    HW1  248   1.612   1.462   2.939
  415SOL    HW2  249   1.731   1.437   3.048
  417SOL     OW  250   0.812   1.586   2.549
  417SOL    HW1  251   0.844   1.596   2.455
  417SOL    HW2  252   0.733   1.524   2.551
  426SOL     OW  253   0.875   1.646   2.199
  426SOL    HW1  254   0.798   1.611   2.145
  426SOL    HW2  255   0.843   1.717   2.261
  533SOL     OW  256   0.850   2.660   1.823
  533SOL    HW1  257   0.846   2.736   1.888
  533SOL    HW2  258   0.872   2.696   1.732
  537SOL     OW  259   1.460   3.367   1.339
  537SOL    HW1  260   1.484   3.461   1.365
  537SOL    HW2  261   1.444   3.313   1.421
  539SOL     OW  262   1.603   2.309   0.737
  539SOL    HW1  263   1.529   2.355   0.687
  539SOL    HW2  264   1.654   2.377   0.790
  541SOL     OW  265   1.127   3.203   1.690
  541SOL    HW1  266   1.174   3.203   1.778
  541SOL    HW2  267   1.079   3.116   1.679
  546SOL     OW  268   1.594   1.976   1.480
  546SOL    HW1  269   1.576   2.043   1.408
  546SOL    HW2  270   1.591   2.022   1.569
  554SOL     OW  271   1.293   3.090   1.423
  554SOL    HW1  272   1.330   3.017   1.365
  554SOL    HW2  273   1.345   3.095   1.508
  563SOL     OW  274   1.281   2.207   0.944
  563SOL    HW1  275   1.195   2.157   0.931
  563SOL    HW2  276   1.343   2.153   1.000
  565SOL     OW  277   0.807   2.467   1.465
  565SOL    HW1  278   0.760   2.464   1.554
  565SOL    HW2  279   0.756   2.412   1.399
  566SOL     OW  280   1.394   2.331   1.674
  566SOL    HW1  281   1.374   2.374   1.762
  566SOL    HW2  282   1.472   2.269   1.683
  567SOL     OW  283   0.973   2.752   1.572
  567SOL    HW1  284   1.019   2.668   1.543
  567SOL    HW2  285   0.917   2.786   1.497
  568SOL     OW  286   0.991   2.272   1.242
  568SOL    HW1  287   0.914   2.306   1.296
  568SOL    HW2  288   0.957   2.221   1.163
  573SOL     OW  289   1.719   2.447   1.831
  573SOL    HW1  290   1.693   2.536   1.795
  573SOL    HW2  291   1.717   2.379   1.758
  578SOL     OW  292   1.795   2.928   0.873
  578SOL    HW1  293   1.733   2.913   0.797
  578SOL    HW2  294   1.743   2.939   0.958
  579SOL     OW  295   1.227   3.412   1.506
  579SOL    HW1  296   1.233   3.335   1.570
  579SOL    HW2  297   1.175   3.386   1.426
  591SOL     OW  298   1.547   2.084   1.729
  591SOL    HW1  299   1.542   2.121   1.821
  591SOL    HW2  300   1.475   2.015   1.717
  592SOL     OW  301   0.781   2.126   1.749
  592SOL    HW1  302   0.848   2.065   1.792
  592SOL    HW2  303   0.708   2.145   1.814
  594SOL     OW  304   1.351   2.452   1.433
  594SOL    HW1  305   1.379   2.409   1.518
  594SOL    HW2  306   1.376   2.548   1.434
  601SOL     OW  307   1.076   2.545   1.464
  601SOL    HW1  308   0.996   2.484   1.467
  601SOL    HW2  309   1.157   2.492   1.440
  611SOL     OW  310   1.466   2.452   0.992
  611SOL    HW1  311   1.436   2.357   0.999
  611SOL    HW2  312   1.539   2.468   1.058
  617SOL     OW  313   1.754   3.085   1.588
  617SOL    HW1  314   1.845   3.046   1.575
  617SOL    HW2  315   1.762   3.181   1.612
  619SOL     OW  316   1.592   3.491   1.625
  619SOL    HW1  317   1.619   3.525   1.535
  619SOL    HW2  318   1.671   3.453   1.671
  621SOL     OW  319   1.638   2.961   1.079
  621SOL    HW1  320   1.643   3.042   1.138
  621SOL    HW2  321   1.552   2.963   1.028
  622SOL     OW  322   0.915   1.951   1.402
  622SOL    HW1  323   0.940   1.931   1.307
  622SOL    HW2  324   0.987   2.007   1.444
  623SOL     OW  325   0.980   2.978   1.719
  623SOL    HW1  326   0.881   2.984   1.729
  623SOL    HW2  327   1.003   2.898   1.663
  626SOL     OW  328   1.274   2.248   1.262
  626SOL    HW1  329   1.295   2.322   1.326
  626SOL    HW2  330   1.185   2.265   1.219
  635SOL     OW  331   1.587   2.641   1.670
  635SOL    HW1  332   1.495   2.679   1.665
  635SOL    HW2  333   1.647   2.688   1.605
  636SOL     OW  334   1.013   1.967   1.770
  636SOL    HW1  335   1.019   2.052   1.718
  636SOL    HW2  336   1.045   1.891   1.713
  639SOL     OW  337   1.360   2.724   1.045
  639SOL    HW1  338   1.285   2.724   0.979
  639SOL    HW2  339   1.397   2.632   1.054
  644SOL     OW  340   1.728   2.797   1.854
  644SOL    HW1  341   1.682   2.790   1.765
  644SOL    HW2  342   1.666   2.841   1.920
  649SOL     OW  343   1.859   3.380   1.605
  649SOL    HW1  344   1.873   3.407   1.510
  649SOL    HW2  345   1.942   3.402   1.658
  656SOL     OW  346   1.138   2.242   1.678
  656SOL    HW1  347   1.093   2.305   1.742
  656SOL    HW2  348   1.231   2.273   1.661
  657SOL     OW  349   1.160   2.069   1.477
  657SOL    HW1  350   1.160   2.133   1.554
  657SOL    HW2  351   1.188   2.117   1.394
  661SOL     OW  352   1.002   2.658   1.238
  661SOL    HW1  353   1.043   2.626   1.324
  661SOL    HW2  354   0.906   2.631   1.235
  664SOL     OW  355   1.369   2.812   1.660
  664SOL    HW1  356   1.408   2.901   1.680
  664SOL    HW2  357   1.379   2.792   1.563
  666SOL     OW  358   1.657   2.466   1.206
  666SOL    HW1  359   1.619   2.397   1.268
  666SOL    HW2  360   1.739   2.430   1.162
  672SOL     OW  361   1.347   2.921   1.234
  672SOL    HW1  362   1.371   2.858   1.160
  672SOL    HW2  363   1.257   2.961   1.216
  685SOL     OW  364   1.650   3.582   1.394
  685SOL    HW1  365   1.703   3.592   1.310
  685SOL    HW2  366   1.623   3.672   1.428
  686SOL     OW  367   1.841   2.037   0.963
  686SOL    HW1  368   1.880   1.952   0.927
  686SOL    HW2  369   1.743   2.039   0.944
  693SOL     OW  370   1.614   3.154   1.289
  693SOL    HW1  371   1.674   3.157   1.369
  693SOL    HW2  372   1.539   3.218   1.302
  697SOL     OW  373   1.709   2.247   1.381
  697SOL    HW1  374   1.782   2.316   1.385
  697SOL    HW2  375   1.737   2.172   1.322
  702SOL     OW  376   1.440   2.718   1.398
  702SOL    HW1  377   1.383   2.770   1.335
  702SOL    HW2  378   1.536   2.730   1.374
  707SOL     OW  379   0.716   2.427   1.708
  707SOL    HW1  380   0.735   2.492   1.782
  707SOL    HW2  381   0.776   2.347   1.717
  708SOL     OW  382   1.450   3.082   1.633
  708SOL    HW1  383   1.441   3.072   1.732
  708SOL    HW2  384   1.546   3.075   1.607
  710SOL     OW  385   1.674   2.745   1.254
  710SOL    HW1  386   1.647   2.656   1.217
  710SOL    HW2  387   1.675   2.813   1.181
  713SOL     OW  388   1.777   2.204   1.642
  713SOL    HW1  389   1.760   2.235   1.548
  713SOL    HW2  390   1.693   2.167   1.680
  714SOL     OW  391   1.730   2.796   1.517
  714SOL    HW1  392   1.768   2.887   1.532
  714SOL    HW2  393   1.722   2.779   1.418
  723SOL     OW  394   1.824   2.054   1.227
  723SOL    HW1  395   1.820   1.964   1.271
  723SOL    HW2  396   1.827   2.043   1.128
  725SOL     OW  397   1.705   3.349   1.104
  725SOL    HW1  398   1.612   3.324   1.077
  725SOL    HW2  399   1.731   3.299   1.186
  728SOL     OW  400   1.424   2.076   1.112
  728SOL    HW1  401   1.476   2.011   1.167
  728SOL    HW2  402   1.375   2.139   1.173
  729SOL     OW  403   1.001   1.896   1.154
  729SOL    HW1  404   0.938   1.824   1.123
  729SOL    HW2  405   1.094   1.860   1.154
  734SOL     OW  406   1.593   2.083   0.882
  734SOL    HW1  407   1.509   2.082   0.936
  734SOL    HW2  408   1.595   2.166   0.826
  741SOL     OW  409   1.555   3.373   2.565
  741SOL    HW1  410   1.498   3.357   2.646
  741SOL    HW2  411   1.496   3.383   2.485
  742SOL     OW  412   1.135   2.565   2.579
  742SOL    HW1  413   1.192   2.643   2.554
  742SOL    HW2  414   1.075   2.591   2.655
  743SOL     OW  415   1.755   2.469   2.093
  743SOL    HW1  416   1.743   2.456   1.994
  743SOL    HW2  417   1.725   2.388   2.142
  744SOL     OW  418   0.768   3.006   2.885
  744SOL    HW1  419   0.690   3.023   2.945
  744SOL    HW2  420   0.802   3.093   2.849
  746SOL     OW  421   0.685   2.874   2.527
  746SOL    HW1  422   0.754   2.858   2.597
  746SOL    HW2  423   0.612   2.931   2.565
  749SOL     OW  424   1.460   3.367   3.201
  749SOL    HW1  425   1.484   3.461   3.227
  749SOL    HW2  426   1.444   3.313   3.283
  751SOL     OW  427   1.603   2.309   2.599
  751SOL    HW1  428   1.529   2.355   2.549
  751SOL    HW2  429   1.654   2.377   2.652
  757SOL     OW  430   0.606   2.826   1.985
  757SOL    HW1  431   0.613   2.910   1.931
  757SOL    HW2  432   0.652   2.839   2.073
  758SOL     OW  433   1.594   1.976   3.342
  758SOL    HW1  434   1.576   2.043   3.270
  758SOL    HW2  435   1.591   2.022   3.431
  760SOL     OW  436   1.842   3.629   2.221
  760SOL    HW1  437   1.896   3.600   2.301
  760SOL    HW2  438   1.872   3.719   2.192
  762SOL     OW  439   1.689   2.784   2.474
  762SOL    HW1  440   1.784   2.755   2.482
  762SOL    HW2  441   1.681   2.849   2.399
  763SOL     OW  442   1.641   2.970   2.294
  763SOL    HW1  443   1.727   2.972   2.242
  763SOL    HW2  444   1.655   3.017   2.382
  766SOL     OW  445   1.293   3.090   3.285
  766SOL    HW1  446   1.330   3.017   3.227
  766SOL    HW2  447   1.345   3.095   3.370
  767SOL     OW  448   0.809   1.866   2.364
  767SOL    HW1  449   0.849   1.957   2.355
  767SOL    HW2  450   0.709   1.874   2.370
  769SOL     OW  451   1.525   2.861   2.052
  769SOL    HW1  452   1.462   2.785   2.065
  769SOL    HW2  453   1.573   2.879   2.138
  772SOL     OW  454   1.466   3.279   2.815
  772SOL    HW1  455   1.407   3.285   2.895
  772SOL    HW2  456   1.451   3.191   2.769
  773SOL     OW  457   1.667   3.576   2.434
  773SOL    HW1  458   1.626   3.553   2.346
  773SOL    HW2  459   1.649   3.502   2.499
  774SOL     OW  460   0.598   2.591   2.132
  774SOL    HW1  461   0.622   2.660   2.064
  774SOL    HW2  462   0.520   2.624   2.186
  775SOL     OW  463   1.281   2.207   2.806
  775SOL    HW1  464   1.195   2.157   2.793
  775SOL    HW2  465   1.343   2.153   2.862
  776SOL     OW  466   1.576   3.524   2.169
  776SOL    HW1  467   1.665   3.570   2.172
  776SOL    HW2  468   1.555   3.500   2.074
  778SOL     OW  469   1.394   2.331   3.536
  778SOL    HW1  470   1.374   2.374   3.624
  778SOL    HW2  471   1.472   2.269   3.545
  780SOL     OW  472   0.991   2.272   3.104
  780SOL    HW1  473   0.914   2.306   3.158
  780SOL    HW2  474   0.957   2.221   3.025
  781SOL     OW  475   1.041   2.563   2.291
  781SOL    HW1  476   1.067   2.559   2.387
  781SOL    HW2  477   0.956   2.512   2.277
  784SOL     OW  478   0.865   2.210   2.057
  784SOL    HW1  479   0.924   2.273   2.008
  784SOL    HW2  480   0.884   2.116   2.028
  785SOL     OW  481   1.719   2.447   3.693
  785SOL    HW1  482   1.693   2.536   3.657
  785SOL    HW2  483   1.717   2.379   3.620
  786SOL     OW  484   1.362   3.006   2.407
  786SOL    HW1  485   1.445   2.977   2.359
  786SOL    HW2  486   1.313   3.073   2.351
  788SOL     OW  487   1.008   3.318   2.339
  788SOL    HW1  488   0.962   3.390   2.287
  788SOL    HW2  489   1.004   3.338   2.437
  790SOL     OW  490   1.795   2.928   2.735
  790SOL    HW1  491   1.733   2.913   2.659
  790SOL    HW2  492   1.743   2.939   2.820
  793SOL     OW  493   1.458   2.597   2.590
  793SOL    HW1  494   1.453   2.532   2.665
  793SOL    HW2  495   1.538   2.656   2.603
  797SOL     OW  496   1.632   3.239   1.943
  797SOL    HW1  497   1.600   3.333   1.933
  797SOL    HW2  498   1.556   3.176   1.931
  799SOL     OW  499   1.400   1.969   2.288
  799SOL    HW1  500   1.376   1.932   2.198
  799SOL    HW2  501   1.499   1.985   2.292
  803SOL     OW  502   1.547   2.084   3.591
  803SOL    HW1  503   1.542   2.121   3.683
  803SOL    HW2  504   1.475   2.015   3.579
  804SOL     OW  505   0.614   1.984   1.979
  804SOL    HW1  506   0.712   1.962   1.986
  804SOL    HW2  507   0.583   1.967   1.886
  807SOL     OW  508   1.351   2.452   3.295
  807SOL    HW1  509   1.379   2.409   3.380
  807SOL    HW2  510   1.376   2.548   3.296
  809SOL     OW  511   0.922   2.365   2.761
  809SOL    HW1  512   0.897   2.356   2.665
  809SOL    HW2  513   0.970   2.283   2.792
  810SOL     OW  514   0.539   1.926   2.374
  810SOL    HW1  515   0.458   1.927   2.432
  810SOL    HW2  516   0.542   2.009   2.319
  811SOL     OW  517   1.434   3.050   1.903
  811SOL    HW1  518   1.466   2.974   1.960
  811SOL    HW2  519   1.342   3.077   1.933
  813SOL     OW  520   0.935   2.098   2.342
  813SOL    HW1  521   0.887   2.139   2.264
  813SOL    HW2  522   1.034   2.096   2.323
  814SOL     OW  523   1.076   2.545   3.326
  814SOL    HW1  524   0.996   2.484   3.329
  814SOL    HW2  525   1.157   2.492   3.302
  815SOL     OW  526   1.227   3.432   2.655
  815SOL    HW1  527   1.248   3.506   2.590
  815SOL    HW2  528   1.295   3.432   2.728
  817SOL     OW  529   1.271   3.659   2.453
  817SOL    HW1  530   1.315   3.723   2.389
  817SOL    HW2  531   1.221   3.711   2.523
  818SOL     OW  532   1.032   2.411   1.878
  818SOL    HW1  533   0.991   2.493   1.839
  818SOL    HW2  534   1.096   2.437   1.951
  821SOL     OW  535   0.866   2.316   2.504
  821SOL    HW1  536   0.834   2.388   2.442
  821SOL    HW2  537   0.890   2.235   2.451
  822SOL     OW  538   1.017   1.901   2.615
  822SOL    HW1  539   0.945   1.906   2.546
  822SOL    HW2  540   0.993   1.832   2.684
  823SOL     OW  541   1.429   3.035   2.729
  823SOL    HW1  542   1.374   2.951   2.722
  823SOL    HW2  543   1.455   3.064   2.637
  824SOL     OW  544   1.466   2.452   2.854
  824SOL    HW1  545   1.436   2.357   2.861
  824SOL    HW2  546   1.539   2.468   2.920
  825SOL     OW  547   1.857   2.695   2.239
  825SOL    HW1  548   1.899   2.631   2.303
  825SOL    HW2  549   1.819   2.644   2.161
  827SOL     OW  550   1.664   3.142   2.519
  827SOL    HW1  551   1.763   3.150   2.533
  827SOL    HW2  552   1.619   3.226   2.550
  828SOL     OW  553   1.390   2.437   1.940
  828SOL    HW1  554   1.336   2.416   2.021
  828SOL    HW2  555   1.481   2.396   1.949
  829SOL     OW  556   0.527   2.118   2.190
  829SOL    HW1  557   0.554   2.059   2.115
  829SOL    HW2  558   0.527   2.213   2.159
  830SOL     OW  559   1.754   3.085   3.450
  830SOL    HW1  560   1.845   3.046   3.437
  830SOL    HW2  561   1.762   3.181   3.474
  831SOL     OW  562   1.064   3.209   3.202
  831SOL    HW1  563   0.984   3.186   3.257
  831SOL    HW2  564   1.147   3.183   3.251
  833SOL     OW  565   1.111   3.057   2.962
  833SOL    HW1  566   1.071   3.101   3.043
  833SOL    HW2  567   1.070   3.094   2.879
  834SOL     OW  568   1.638   2.961   2.941
  834SOL    HW1  569   1.643   3.042   3.000
  834SOL    HW2  570   1.552   2.963   2.890
  835SOL     OW  571   0.915   1.951   3.264
  835SOL    HW1  572   0.940   1.931   3.169
  835SOL    HW2  573   0.987   2.007   3.306
  837SOL     OW  574   0.705   2.912   2.230
  837SOL    HW1  575   0.691   2.919   2.329
  837SOL    HW2  576   0.789   2.861   2.212
  839SOL     OW  577   1.274   2.248   3.124
  839SOL    HW1  578   1.295   2.322   3.188
  839SOL    HW2  579   1.185   2.265   3.081
  842SOL     OW  580   0.566   2.399   2.727
  842SOL    HW1  581   0.578   2.465   2.653
  842SOL    HW2  582   0.612   2.433   2.810
  843SOL     OW  583   1.252   3.210   2.250
  843SOL    HW1  584   1.302   3.287   2.290
  843SOL    HW2  585   1.157   3.212   2.282
  844SOL     OW  586   1.272   3.307   3.004
  844SOL    HW1  587   1.319   3.320   3.091
  844SOL    HW2  588   1.206   3.233   3.013
  845SOL     OW  589   1.582   2.501   2.334
  845SOL    HW1  590   1.551   2.562   2.407
  845SOL    HW2  591   1.632   2.553   2.265
  848SOL     OW  592   1.587   2.641   3.532
  848SOL    HW1  593   1.495   2.679   3.527
  848SOL    HW2  594   1.647   2.688   3.467
  852SOL     OW  595   1.360   2.724   2.907
  852SOL    HW1  596   1.285   2.724   2.841
  852SOL    HW2  597   1.397   2.632   2.916
  853SOL     OW  598   1.209   2.387   2.137
  853SOL    HW1  599   1.222   2.303   2.191
  853SOL    HW2  600   1.180   2.461   2.197
  856SOL     OW  601   0.732   2.496   2.926
  856SOL    HW1  602   0.791   2.470   2.850
  856SOL    HW2  603   0.704   2.592   2.915
  857SOL     OW  604   1.728   2.797   3.716
  857SOL    HW1  605   1.682   2.790   3.627
  857SOL    HW2  606   1.666   2.841   3.782
  859SOL     OW  607   1.622   2.229   2.236
  859SOL    HW1  608   1.624   2.153   2.300
  859SOL    HW2  609   1.574   2.306   2.276
  860SOL     OW  610   1.023   2.628   2.828
  860SOL    HW1  611   1.038   2.649   2.924
  860SOL    HW2  612   0.993   2.533   2.819
  862SOL     OW  613   1.859   3.380   3.467
  862SOL    HW1  614   1.873   3.407   3.372
  862SOL    HW2  615   1.942   3.402   3.520
  864SOL     OW  616   1.540   2.136   1.987
  864SOL    HW1  617   1.479   2.061   2.010
  864SOL    HW2  618   1.562   2.188   2.070
  865SOL     OW  619   1.303   2.700   1.904
  865SOL    HW1  620   1.337   2.607   1.919
  865SOL    HW2  621   1.321   2.727   1.809
  866SOL     OW  622   1.068   3.195   2.711
  866SOL    HW1  623   1.075   3.111   2.656
  866SOL    HW2  624   1.130   3.264   2.675
  869SOL     OW  625   1.138   2.242   3.540
  869SOL    HW1  626   1.093   2.305   3.604
  869SOL    HW2  627   1.231   2.273   3.523
  870SOL     OW  628   1.160   2.069   3.339
  870SOL    HW1  629   1.160   2.133   3.416
  870SOL    HW2  630   1.188   2.117   3.256
  874SOL     OW  631   1.002   2.658   3.100
  874SOL    HW1  632   1.043   2.626   3.186
  874SOL    HW2  633   0.906   2.631   3.097
  877SOL     OW  634   1.369   2.812   3.522
  877SOL    HW1  635   1.408   2.901   3.542
  877SOL    HW2  636   1.379   2.792   3.425
  878SOL     OW  637   0.815   2.434   2.187
  878SOL    HW1  638   0.822   2.345   2.141
  878SOL    HW2  639   0.721   2.468   2.179
  879SOL     OW  640   1.657   2.466   3.068
  879SOL    HW1  641   1.619   2.397   3.130
  879SOL    HW2  642   1.739   2.430   3.024
  885SOL     OW  643   1.347   2.921   3.096
  885SOL    HW1  644   1.371   2.858   3.022
  885SOL    HW2  645   1.257   2.961   3.078
  886SOL     OW  646   1.302   2.717   2.171
  886SOL    HW1  647   1.216   2.686   2.213
  886SOL    HW2  648   1.298   2.703   2.072
  887SOL     OW  649   1.759   3.609   3.016
  887SOL    HW1  650   1.820   3.639   2.943
  887SOL    HW2  651   1.721   3.520   2.994
  891SOL     OW  652   1.726   1.997   2.385
  891SOL    HW1  653   1.799   1.980   2.318
  891SOL    HW2  654   1.695   1.910   2.423
  892SOL     OW  655   1.388   3.435   2.339
  892SOL    HW1  656   1.455   3.447   2.265
  892SOL    HW2  657   1.348   3.524   2.362
  894SOL     OW  658   1.280   2.789   2.534
  894SOL    HW1  659   1.340   2.708   2.536
  894SOL    HW2  660   1.320   2.858   2.474
  897SOL     OW  661   1.650   3.582   3.256
  897SOL    HW1  662   1.703   3.592   3.172
  897SOL    HW2  663   1.623   3.672   3.290
  898SOL     OW  664   1.841   2.037   2.825
  898SOL    HW1  665   1.880   1.952   2.789
  898SOL    HW2  666   1.743   2.039   2.806
  900SOL     OW  667   1.194   3.474   1.893
  900SOL    HW1  668   1.200   3.381   1.930
  900SOL    HW2  669   1.135   3.474   1.813
  902SOL     OW  670   0.916   2.772   2.153
  902SOL    HW1  671   0.979   2.810   2.085
  902SOL    HW2  672   0.956   2.689   2.192
  903SOL     OW  673   1.504   3.469   1.906
  903SOL    HW1  674   1.412   3.506   1.913
  903SOL    HW2  675   1.542   3.489   1.816
  905SOL     OW  676   1.614   3.154   3.151
  905SOL    HW1  677   1.674   3.157   3.231
  905SOL    HW2  678   1.539   3.218   3.164
  906SOL     OW  679   1.039   2.960   2.558
  906SOL    HW1  680   0.969   2.913   2.612
  906SOL    HW2  681   1.098   2.892   2.515
  907SOL     OW  682   1.014   2.098   2.833
  907SOL    HW1  683   1.006   2.062   2.740
  907SOL    HW2  684   1.012   2.022   2.898
  909SOL     OW  685   1.709   2.247   3.243
  909SOL    HW1  686   1.782   2.316   3.247
  909SOL    HW2  687   1.737   2.172   3.184
  914SOL     OW  688   1.440   2.718   3.260
  914SOL    HW1  689   1.383   2.770   3.197
  914SOL    HW2  690   1.536   2.730   3.236
  916SOL     OW  691   1.183   3.197   1.981
  916SOL    HW1  692   1.084   3.186   1.983
  916SOL    HW2  693   1.217   3.212   2.074
  918SOL     OW  694   1.493   3.629   2.821
  918SOL    HW1  695   1.526   3.693   2.752
  918SOL    HW2  696   1.559   3.623   2.896
  920SOL     OW  697   1.450   3.082   3.495
  920SOL    HW1  698   1.441   3.072   3.594
  920SOL    HW2  699   1.546   3.075   3.469
  922SOL     OW  700   1.674   2.745   3.116
  922SOL    HW1  701   1.647   2.656   3.079
  922SOL    HW2  702   1.675   2.813   3.043
  923SOL     OW  703   1.225   2.187   2.311
  923SOL    HW1  704   1.290   2.113   2.300
  923SOL    HW2  705   1.245   2.237   2.395
  924SOL     OW  706   0.594   2.607   2.514
  924SOL    HW1  707   0.644   2.692   2.495
  924SOL    HW2  708   0.506   2.609   2.466
  925SOL     OW  709   1.777   2.204   3.504
  925SOL    HW1  710   1.760   2.235   3.410
  925SOL    HW2  711   1.693   2.167   3.542
  926SOL     OW  712   1.730   2.796   3.379
  926SOL    HW1  713   1.768   2.887   3.394
  926SOL    HW2  714   1.722   2.779   3.280
  927SOL     OW  715   0.859   3.236   1.878
  927SOL    HW1  716   0.813   3.251   1.966
  927SOL    HW2  717   0.903   3.321   1.848
  929SOL     OW  718   0.859   2.818   2.723
  929SOL    HW1  719   0.913   2.749   2.771
  929SOL    HW2  720   0.827   2.887   2.789
  930SOL     OW  721   1.083   2.846   1.949
  930SOL    HW1  722   1.060   2.899   1.867
  930SOL    HW2  723   1.164   2.790   1.930
  931SOL     OW  724   1.861   3.431   2.713
  931SOL    HW1  725   1.790   3.419   2.643
  931SOL    HW2  726   1.862   3.352   2.773
  935SOL     OW  727   1.824   2.054   3.089
  935SOL    HW1  728   1.820   1.964   3.133
  935SOL    HW2  729   1.827   2.043   2.990
  937SOL     OW  730   1.705   3.349   2.966
  937SOL    HW1  731   1.612   3.324   2.939
  937SOL    HW2  732   1.731   3.299   3.048
  940SOL     OW  733   1.424   2.076   2.974
  940SOL    HW1  734   1.476   2.011   3.029
  940SOL    HW2  735   1.375   2.139   3.035
  941SOL     OW  736   1.001   1.896   3.016
  941SOL    HW1  737   0.938   1.824   2.985
  941SOL    HW2  738   1.094   1.860   3.016
  942SOL     OW  739   0.770   3.192   2.163
  942SOL    HW1  740   0.724   3.105   2.180
  942SOL    HW2  741   0.861   3.189   2.204
  944SOL     OW  742   1.352   1.914   2.030
  944SOL    HW1  743   1.387   1.873   1.946
  944SOL    HW2  744   1.262   1.876   2.050
  945SOL     OW  745   1.300   2.315   2.553
  945SOL    HW1  746   1.241   2.395   2.557
  945SOL    HW2  747   1.315   2.280   2.646
  946SOL     OW  748   1.593   2.083   2.744
  946SOL    HW1  749   1.509   2.082   2.798
  946SOL    HW2  750   1.595   2.166   2.688
  954SOL     OW  751   1.755   2.469   3.955
  954SOL    HW1  752   1.743   2.456   3.856
  954SOL    HW2  753   1.725   2.388   4.004
 1001SOL     OW  754   1.390   2.437   3.802
 1001SOL    HW1  755   1.336   2.416   3.883
 1001SOL    HW2  756   1.481   2.396   3.811
 1011SOL     OW  757   1.540   2.136   3.849
 1011SOL    HW1  758   1.479   2.061   3.872
 1011SOL    HW2  759   1.562   2.188   3.932
 1171SOL     OW  760   1.400   3.831   2.288
 1171SOL    HW1  761   1.376   3.794   2.198
 1171SOL    HW2  762   1.499   3.847   2.292
 1218SOL     OW  763   1.726   3.859   2.385
 1218SOL    HW1  764   1.799   3.842   2.318
 1218SOL    HW2  765   1.695   3.772   2.423
 1220SOL     OW  766   1.841   3.899   2.825
 1220SOL    HW1  767   1.880   3.814   2.789
 1220SOL    HW2  768   1.743   3.901   2.806
 1241SOL     OW  769   1.352   3.776   2.030
 1241SOL    HW1  770   1.387   3.735   1.946
 1241SOL    HW2  771   1.262   3.738   2.050
 1296SOL     OW  772   2.431   1.275   1.165
 1296SOL    HW1  773   2.338   1.268   1.128
 1296SOL    HW2  774   2.442   1.364   1.209
 1300SOL     OW  775   2.630   1.144   1.023
 1300SOL    HW1  776   2.552   1.161   1.083
 1300SOL    HW2  777   2.664   1.231   0.987
 1301SOL     OW  778   2.712   0.798   1.823
 1301SOL    HW1  779   2.708   0.874   1.888
 1301SOL    HW2  780   2.734   0.834   1.732
 1303SOL     OW  781   2.548   1.161   1.803
 1303SOL    HW1  782   2.608   1.240   1.817
 1303SOL    HW2  783   2.462   1.192   1.762
 1304SOL     OW  784   2.197   1.435   1.061
 1304SOL    HW1  785   2.119   1.404   1.008
 1304SOL    HW2  786   2.255   1.493   1.004
 1305SOL     OW  787   3.322   1.505   1.339
 1305SOL    HW1  788   3.346   1.599   1.365
 1305SOL    HW2  789   3.306   1.451   1.421
 1309SOL     OW  790   2.989   1.341   1.690
 1309SOL    HW1  791   3.036   1.341   1.778
 1309SOL    HW2  792   2.941   1.254   1.679
 1312SOL     OW  793   2.482   1.786   1.439
 1312SOL    HW1  794   2.390   1.769   1.474
 1312SOL    HW2  795   2.510   1.878   1.465
 1320SOL     OW  796   1.975   0.737   1.597
 1320SOL    HW1  797   2.063   0.724   1.642
 1320SOL    HW2  798   1.962   0.834   1.575
 1322SOL     OW  799   3.155   1.228   1.423
 1322SOL    HW1  800   3.192   1.155   1.365
 1322SOL    HW2  801   3.207   1.233   1.508
 1324SOL     OW  802   2.059   0.976   1.264
 1324SOL    HW1  803   2.148   0.931   1.250
 1324SOL    HW2  804   1.986   0.911   1.245
 1326SOL     OW  805   3.049   1.792   1.616
 1326SOL    HW1  806   3.073   1.852   1.540
 1326SOL    HW2  807   3.056   1.697   1.586
 1335SOL     OW  808   2.835   0.890   1.572
 1335SOL    HW1  809   2.881   0.806   1.543
 1335SOL    HW2  810   2.779   0.924   1.497
 1339SOL     OW  811   1.992   1.821   1.571
 1339SOL    HW1  812   1.982   1.806   1.670
 1339SOL    HW2  813   1.906   1.857   1.535
 1345SOL     OW  814   2.213   1.801   0.853
 1345SOL    HW1  815   2.263   1.715   0.859
 1345SOL    HW2  816   2.278   1.878   0.850
 1347SOL     OW  817   3.089   1.550   1.506
 1347SOL    HW1  818   3.095   1.473   1.570
 1347SOL    HW2  819   3.037   1.524   1.426
 1350SOL     OW  820   2.323   1.266   1.727
 1350SOL    HW1  821   2.273   1.267   1.641
 1350SOL    HW2  822   2.260   1.248   1.803
 1356SOL     OW  823   2.111   1.785   1.241
 1356SOL    HW1  824   2.168   1.720   1.291
 1356SOL    HW2  825   2.095   1.752   1.148
 1357SOL     OW  826   2.802   1.698   0.904
 1357SOL    HW1  827   2.882   1.641   0.925
 1357SOL    HW2  828   2.753   1.658   0.827
 1362SOL     OW  829   2.750   1.514   1.195
 1362SOL    HW1  830   2.727   1.489   1.101
 1362SOL    HW2  831   2.811   1.445   1.234
 1364SOL     OW  832   2.665   1.402   0.924
 1364SOL    HW1  833   2.755   1.416   0.882
 1364SOL    HW2  834   2.594   1.404   0.853
 1387SOL     OW  835   2.926   1.347   1.340
 1387SOL    HW1  836   2.846   1.324   1.395
 1387SOL    HW2  837   3.009   1.321   1.389
 1388SOL     OW  838   3.454   1.629   1.625
 1388SOL    HW1  839   3.481   1.663   1.535
 1388SOL    HW2  840   3.533   1.591   1.671
 1389SOL     OW  841   2.973   1.195   1.100
 1389SOL    HW1  842   2.933   1.239   1.181
 1389SOL    HW2  843   2.932   1.232   1.017
 1392SOL     OW  844   2.842   1.116   1.719
 1392SOL    HW1  845   2.743   1.122   1.729
 1392SOL    HW2  846   2.865   1.036   1.663
 1396SOL     OW  847   1.926   1.564   1.331
 1396SOL    HW1  848   1.880   1.646   1.297
 1396SOL    HW2  849   2.024   1.583   1.340
 1400SOL     OW  850   3.134   1.445   1.142
 1400SOL    HW1  851   3.181   1.458   1.229
 1400SOL    HW2  852   3.068   1.371   1.151
 1402SOL     OW  853   2.216   1.510   1.329
 1402SOL    HW1  854   2.195   1.466   1.242
 1402SOL    HW2  855   2.313   1.536   1.332
 1403SOL     OW  856   2.264   0.751   1.598
 1403SOL    HW1  857   2.332   0.806   1.551
 1403SOL    HW2  858   2.304   0.663   1.625
 1411SOL     OW  859   1.899   1.310   1.282
 1411SOL    HW1  860   1.952   1.261   1.350
 1411SOL    HW2  861   1.921   1.408   1.287
 1417SOL     OW  862   2.842   1.573   1.700
 1417SOL    HW1  863   2.822   1.617   1.612
 1417SOL    HW2  864   2.881   1.482   1.684
 1418SOL     OW  865   3.721   1.518   1.605
 1418SOL    HW1  866   3.735   1.545   1.510
 1418SOL    HW2  867   3.804   1.540   1.658
 1419SOL     OW  868   2.212   0.898   1.804
 1419SOL    HW1  869   2.288   0.942   1.852
 1419SOL    HW2  870   2.247   0.851   1.722
 1428SOL     OW  871   1.950   1.801   0.927
 1428SOL    HW1  872   1.908   1.715   0.900
 1428SOL    HW2  873   2.044   1.804   0.893
 1429SOL     OW  874   2.366   1.568   0.910
 1429SOL    HW1  875   2.432   1.642   0.919
 1429SOL    HW2  876   2.410   1.489   0.868
 1433SOL     OW  877   3.231   0.950   1.660
 1433SOL    HW1  878   3.270   1.039   1.680
 1433SOL    HW2  879   3.241   0.930   1.563
 1436SOL     OW  880   2.114   1.564   1.744
 1436SOL    HW1  881   2.084   1.621   1.820
 1436SOL    HW2  882   2.107   1.467   1.770
 1438SOL     OW  883   2.792   1.678   1.465
 1438SOL    HW1  884   2.768   1.660   1.370
 1438SOL    HW2  885   2.822   1.772   1.475
 1440SOL     OW  886   2.021   1.137   1.466
 1440SOL    HW1  887   2.043   1.076   1.542
 1440SOL    HW2  888   2.031   1.088   1.380
 1444SOL     OW  889   3.114   1.731   1.128
 1444SOL    HW1  890   3.198   1.736   1.074
 1444SOL    HW2  891   3.091   1.635   1.146
 1445SOL     OW  892   1.945   1.258   1.022
 1445SOL    HW1  893   1.940   1.257   1.122
 1445SOL    HW2  894   1.862   1.217   0.984
 1446SOL     OW  895   2.550   1.662   1.716
 1446SOL    HW1  896   2.494   1.743   1.725
 1446SOL    HW2  897   2.602   1.666   1.630
 1450SOL     OW  898   1.992   1.794   1.851
 1450SOL    HW1  899   1.951   1.720   1.904
 1450SOL    HW2  900   2.056   1.845   1.909
 1452SOL     OW  901   2.692   1.273   1.422
 1452SOL    HW1  902   2.687   1.306   1.517
 1452SOL    HW2  903   2.606   1.292   1.376
 1454SOL     OW  904   3.512   1.720   1.394
 1454SOL    HW1  905   3.565   1.730   1.310
 1454SOL    HW2  906   3.485   1.810   1.428
 1458SOL     OW  907   2.684   1.002   1.372
 1458SOL    HW1  908   2.724   1.001   1.280
 1458SOL    HW2  909   2.694   1.094   1.412
 1461SOL     OW  910   2.234   1.288   1.490
 1461SOL    HW1  911   2.221   1.381   1.456
 1461SOL    HW2  912   2.150   1.236   1.477
 1468SOL     OW  913   1.967   1.013   1.726
 1468SOL    HW1  914   1.890   0.980   1.780
 1468SOL    HW2  915   2.052   0.983   1.768
 1474SOL     OW  916   2.475   0.842   1.431
 1474SOL    HW1  917   2.531   0.923   1.414
 1474SOL    HW2  918   2.534   0.762   1.434
 1475SOL     OW  919   3.355   1.767   0.959
 1475SOL    HW1  920   3.388   1.831   0.890
 1475SOL    HW2  921   3.421   1.761   1.034
 1477SOL     OW  922   3.312   1.220   1.633
 1477SOL    HW1  923   3.303   1.210   1.732
 1477SOL    HW2  924   3.408   1.213   1.607
 1478SOL     OW  925   2.252   1.741   1.560
 1478SOL    HW1  926   2.161   1.782   1.558
 1478SOL    HW2  927   2.245   1.647   1.592
 1485SOL     OW  928   2.523   1.790   0.953
 1485SOL    HW1  929   2.477   1.878   0.940
 1485SOL    HW2  930   2.622   1.802   0.946
 1489SOL     OW  931   2.083   1.314   1.844
 1489SOL    HW1  932   2.018   1.241   1.823
 1489SOL    HW2  933   2.087   1.328   1.942
 1491SOL     OW  934   2.534   1.391   1.624
 1491SOL    HW1  935   2.456   1.341   1.662
 1491SOL    HW2  936   2.531   1.486   1.655
 1496SOL     OW  937   2.674   1.586   0.687
 1496SOL    HW1  938   2.706   1.596   0.593
 1496SOL    HW2  939   2.595   1.524   0.689
 1500SOL     OW  940   2.480   1.567   1.284
 1500SOL    HW1  941   2.475   1.649   1.341
 1500SOL    HW2  942   2.569   1.564   1.239
 1506SOL     OW  943   2.092   0.628   1.975
 1506SOL    HW1  944   1.999   0.626   2.012
 1506SOL    HW2  945   2.093   0.589   1.883
 1509SOL     OW  946   2.431   1.275   3.027
 1509SOL    HW1  947   2.338   1.268   2.990
 1509SOL    HW2  948   2.442   1.364   3.071
 1510SOL     OW  949   3.417   1.511   2.565
 1510SOL    HW1  950   3.360   1.495   2.646
 1510SOL    HW2  951   3.358   1.521   2.485
 1511SOL     OW  952   2.997   0.703   2.579
 1511SOL    HW1  953   3.054   0.781   2.554
 1511SOL    HW2  954   2.937   0.729   2.655
 1513SOL     OW  955   2.630   1.144   2.885
 1513SOL    HW1  956   2.552   1.161   2.945
 1513SOL    HW2  957   2.664   1.231   2.849
 1515SOL     OW  958   2.547   1.012   2.527
 1515SOL    HW1  959   2.616   0.996   2.597
 1515SOL    HW2  960   2.474   1.069   2.565
 1516SOL     OW  961   2.548   1.161   3.665
 1516SOL    HW1  962   2.608   1.240   3.679
 1516SOL    HW2  963   2.462   1.192   3.624
 1517SOL     OW  964   2.197   1.435   2.923
 1517SOL    HW1  965   2.119   1.404   2.870
 1517SOL    HW2  966   2.255   1.493   2.866
 1518SOL     OW  967   3.322   1.505   3.201
 1518SOL    HW1  968   3.346   1.599   3.227
 1518SOL    HW2  969   3.306   1.451   3.283
 1521SOL     OW  970   2.093   1.713   2.345
 1521SOL    HW1  971   2.127   1.790   2.399
 1521SOL    HW2  972   2.137   1.713   2.255
 1522SOL     OW  973   2.989   1.341   3.552
 1522SOL    HW1  974   3.036   1.341   3.640
 1522SOL    HW2  975   2.941   1.254   3.541
 1523SOL     OW  976   2.092   1.434   2.400
 1523SOL    HW1  977   2.066   1.530   2.400
 1523SOL    HW2  978   2.021   1.380   2.445
 1524SOL     OW  979   2.102   1.091   2.748
 1524SOL    HW1  980   2.116   1.007   2.800
 1524SOL    HW2  981   2.047   1.155   2.803
 1525SOL     OW  982   2.482   1.786   3.301
 1525SOL    HW1  983   2.390   1.769   3.336
 1525SOL    HW2  984   2.510   1.878   3.327
 1526SOL     OW  985   2.468   0.964   1.985
 1526SOL    HW1  986   2.475   1.048   1.931
 1526SOL    HW2  987   2.514   0.977   2.073
 1528SOL     OW  988   1.984   0.643   2.425
 1528SOL    HW1  989   1.939   0.555   2.442
 1528SOL    HW2  990   1.983   0.697   2.509
 1529SOL     OW  991   3.704   1.767   2.221
 1529SOL    HW1  992   3.758   1.738   2.301
 1529SOL    HW2  993   3.734   1.857   2.192
 1530SOL     OW  994   1.889   1.596   1.979
 1530SOL    HW1  995   1.870   1.500   2.000
 1530SOL    HW2  996   1.856   1.654   2.054
 1532SOL     OW  997   3.503   1.108   2.294
 1532SOL    HW1  998   3.589   1.110   2.242
 1532SOL    HW2  999   3.517   1.155   2.382
 1534SOL     OW 1000   2.475   1.365   2.588
 1534SOL    HW1 1001   2.426   1.278   2.597
 1534SOL    HW2 1002   2.452   1.408   2.501
 1535SOL     OW 1003   3.155   1.228   3.285
 1535SOL    HW1 1004   3.192   1.155   3.227
 1535SOL    HW2 1005   3.207   1.233   3.370
 1537SOL     OW 1006   2.059   0.976   3.126
 1537SOL    HW1 1007   2.148   0.931   3.112
 1537SOL    HW2 1008   1.986   0.911   3.107
 1538SOL     OW 1009   3.387   0.999   2.052
 1538SOL    HW1 1010   3.324   0.923   2.065
 1538SOL    HW2 1011   3.435   1.017   2.138
 1539SOL     OW 1012   3.049   1.792   3.478
 1539SOL    HW1 1013   3.073   1.852   3.402
 1539SOL    HW2 1014   3.056   1.697   3.448
 1541SOL     OW 1015   3.328   1.417   2.815
 1541SOL    HW1 1016   3.269   1.423   2.895
 1541SOL    HW2 1017   3.313   1.329   2.769
 1542SOL     OW 1018   3.529   1.714   2.434
 1542SOL    HW1 1019   3.488   1.691   2.346
 1542SOL    HW2 1020   3.511   1.640   2.499
 1543SOL     OW 1021   2.460   0.729   2.132
 1543SOL    HW1 1022   2.484   0.798   2.064
 1543SOL    HW2 1023   2.382   0.762   2.186
 1545SOL     OW 1024   3.438   1.662   2.169
 1545SOL    HW1 1025   3.527   1.708   2.172
 1545SOL    HW2 1026   3.417   1.638   2.074
 1550SOL     OW 1027   2.903   0.701   2.291
 1550SOL    HW1 1028   2.929   0.697   2.387
 1550SOL    HW2 1029   2.818   0.650   2.277
 1551SOL     OW 1030   1.938   0.811   2.651
 1551SOL    HW1 1031   2.037   0.799   2.660
 1551SOL    HW2 1032   1.914   0.906   2.672
 1552SOL     OW 1033   1.992   1.821   3.433
 1552SOL    HW1 1034   1.982   1.806   3.532
 1552SOL    HW2 1035   1.906   1.857   3.397
 1555SOL     OW 1036   3.224   1.144   2.407
 1555SOL    HW1 1037   3.307   1.115   2.359
 1555SOL    HW2 1038   3.175   1.211   2.351
 1557SOL     OW 1039   2.870   1.456   2.339
 1557SOL    HW1 1040   2.824   1.528   2.287
 1557SOL    HW2 1041   2.866   1.476   2.437
 1558SOL     OW 1042   2.213   1.801   2.715
 1558SOL    HW1 1043   2.263   1.715   2.721
 1558SOL    HW2 1044   2.278   1.878   2.712
 1560SOL     OW 1045   3.089   1.550   3.368
 1560SOL    HW1 1046   3.095   1.473   3.432
 1560SOL    HW2 1047   3.037   1.524   3.288
 1561SOL     OW 1048   2.183   0.943   2.104
 1561SOL    HW1 1049   2.265   0.982   2.062
 1561SOL    HW2 1050   2.156   0.861   2.055
 1563SOL     OW 1051   2.323   1.266   3.589
 1563SOL    HW1 1052   2.273   1.267   3.503
 1563SOL    HW2 1053   2.260   1.248   3.665
 1564SOL     OW 1054   2.973   1.776   2.099
 1564SOL    HW1 1055   2.913   1.714   2.149
 1564SOL    HW2 1056   3.004   1.732   2.014
 1566SOL     OW 1057   3.494   1.377   1.943
 1566SOL    HW1 1058   3.462   1.471   1.933
 1566SOL    HW2 1059   3.418   1.314   1.931
 1567SOL     OW 1060   2.326   1.743   2.185
 1567SOL    HW1 1061   2.359   1.782   2.271
 1567SOL    HW2 1062   2.402   1.736   2.120
 1569SOL     OW 1063   2.111   1.785   3.103
 1569SOL    HW1 1064   2.168   1.720   3.153
 1569SOL    HW2 1065   2.095   1.752   3.010
 1570SOL     OW 1066   2.802   1.698   2.766
 1570SOL    HW1 1067   2.882   1.641   2.787
 1570SOL    HW2 1068   2.753   1.658   2.689
 1571SOL     OW 1069   2.244   0.700   2.342
 1571SOL    HW1 1070   2.289   0.610   2.339
 1571SOL    HW2 1071   2.150   0.689   2.375
 1575SOL     OW 1072   2.750   1.514   3.057
 1575SOL    HW1 1073   2.727   1.489   2.963
 1575SOL    HW2 1074   2.811   1.445   3.096
 1577SOL     OW 1075   2.665   1.402   2.786
 1577SOL    HW1 1076   2.755   1.416   2.744
 1577SOL    HW2 1077   2.594   1.404   2.715
 1580SOL     OW 1078   3.296   1.188   1.903
 1580SOL    HW1 1079   3.328   1.112   1.960
 1580SOL    HW2 1080   3.204   1.215   1.933
 1584SOL     OW 1081   3.089   1.570   2.655
 1584SOL    HW1 1082   3.110   1.644   2.590
 1584SOL    HW2 1083   3.157   1.570   2.728
 1585SOL     OW 1084   2.321   1.152   2.603
 1585SOL    HW1 1085   2.250   1.125   2.668
 1585SOL    HW2 1086   2.295   1.124   2.510
 1586SOL     OW 1087   3.133   1.797   2.453
 1586SOL    HW1 1088   3.177   1.861   2.389
 1586SOL    HW2 1089   3.083   1.849   2.523
 1592SOL     OW 1090   3.291   1.173   2.729
 1592SOL    HW1 1091   3.236   1.089   2.722
 1592SOL    HW2 1092   3.317   1.202   2.637
 1595SOL     OW 1093   2.350   1.385   2.036
 1595SOL    HW1 1094   2.263   1.370   2.083
 1595SOL    HW2 1095   2.333   1.411   1.941
 1596SOL     OW 1096   3.526   1.280   2.519
 1596SOL    HW1 1097   3.625   1.288   2.533
 1596SOL    HW2 1098   3.481   1.364   2.550
 1600SOL     OW 1099   2.926   1.347   3.202
 1600SOL    HW1 1100   2.846   1.324   3.257
 1600SOL    HW2 1101   3.009   1.321   3.251
 1601SOL     OW 1102   3.454   1.629   3.487
 1601SOL    HW1 1103   3.481   1.663   3.397
 1601SOL    HW2 1104   3.533   1.591   3.533
 1602SOL     OW 1105   2.973   1.195   2.962
 1602SOL    HW1 1106   2.933   1.239   3.043
 1602SOL    HW2 1107   2.932   1.232   2.879
 1606SOL     OW 1108   2.567   1.050   2.230
 1606SOL    HW1 1109   2.553   1.057   2.329
 1606SOL    HW2 1110   2.651   0.999   2.212
 1607SOL     OW 1111   2.272   0.813   3.113
 1607SOL    HW1 1112   2.358   0.825   3.163
 1607SOL    HW2 1113   2.230   0.726   3.140
 1609SOL     OW 1114   1.926   1.564   3.193
 1609SOL    HW1 1115   1.880   1.646   3.159
 1609SOL    HW2 1116   2.024   1.583   3.202
 1610SOL     OW 1117   2.229   1.100   2.363
 1610SOL    HW1 1118   2.222   1.183   2.307
 1610SOL    HW2 1119   2.233   1.020   2.303
 1612SOL     OW 1120   3.114   1.348   2.250
 1612SOL    HW1 1121   3.164   1.425   2.290
 1612SOL    HW2 1122   3.019   1.350   2.282
 1613SOL     OW 1123   3.134   1.445   3.004
 1613SOL    HW1 1124   3.181   1.458   3.091
 1613SOL    HW2 1125   3.068   1.371   3.013
 1615SOL     OW 1126   2.216   1.510   3.191
 1615SOL    HW1 1127   2.195   1.466   3.104
 1615SOL    HW2 1128   2.313   1.536   3.194
 1620SOL     OW 1129   2.435   0.870   2.891
 1620SOL    HW1 1130   2.479   0.959   2.882
 1620SOL    HW2 1131   2.372   0.870   2.968
 1624SOL     OW 1132   1.899   1.310   3.144
 1624SOL    HW1 1133   1.952   1.261   3.212
 1624SOL    HW2 1134   1.921   1.408   3.149
 1629SOL     OW 1135   2.885   0.766   2.828
 1629SOL    HW1 1136   2.900   0.787   2.924
 1629SOL    HW2 1137   2.855   0.671   2.819
 1630SOL     OW 1138   2.842   1.573   3.562
 1630SOL    HW1 1139   2.822   1.617   3.474
 1630SOL    HW2 1140   2.881   1.482   3.546
 1634SOL     OW 1141   3.165   0.838   1.904
 1634SOL    HW1 1142   3.199   0.745   1.919
 1634SOL    HW2 1143   3.183   0.865   1.809
 1635SOL     OW 1144   2.930   1.333   2.711
 1635SOL    HW1 1145   2.937   1.249   2.656
 1635SOL    HW2 1146   2.992   1.402   2.675
 1636SOL     OW 1147   2.181   0.810   2.811
 1636SOL    HW1 1148   2.274   0.846   2.816
 1636SOL    HW2 1149   2.175   0.725   2.863
 1640SOL     OW 1150   1.870   1.326   2.062
 1640SOL    HW1 1151   1.777   1.347   2.031
 1640SOL    HW2 1152   1.880   1.227   2.075
 1641SOL     OW 1153   1.950   1.801   2.789
 1641SOL    HW1 1154   1.908   1.715   2.762
 1641SOL    HW2 1155   2.044   1.804   2.755
 1642SOL     OW 1156   2.366   1.568   2.772
 1642SOL    HW1 1157   2.432   1.642   2.781
 1642SOL    HW2 1158   2.410   1.489   2.730
 1643SOL     OW 1159   2.864   0.796   3.100
 1643SOL    HW1 1160   2.905   0.764   3.186
 1643SOL    HW2 1161   2.768   0.769   3.097
 1647SOL     OW 1162   2.677   0.572   2.187
 1647SOL    HW1 1163   2.684   0.483   2.141
 1647SOL    HW2 1164   2.583   0.606   2.179
 1649SOL     OW 1165   2.114   1.564   3.606
 1649SOL    HW1 1166   2.084   1.621   3.682
 1649SOL    HW2 1167   2.107   1.467   3.632
 1651SOL     OW 1168   2.792   1.678   3.327
 1651SOL    HW1 1169   2.768   1.660   3.232
 1651SOL    HW2 1170   2.822   1.772   3.337
 1653SOL     OW 1171   2.021   1.137   3.328
 1653SOL    HW1 1172   2.043   1.076   3.404
 1653SOL    HW2 1173   2.031   1.088   3.242
 1654SOL     OW 1174   3.209   1.059   3.096
 1654SOL    HW1 1175   3.233   0.996   3.022
 1654SOL    HW2 1176   3.119   1.099   3.078
 1655SOL     OW 1177   3.164   0.855   2.171
 1655SOL    HW1 1178   3.078   0.824   2.213
 1655SOL    HW2 1179   3.160   0.841   2.072
 1656SOL     OW 1180   3.621   1.747   3.016
 1656SOL    HW1 1181   3.682   1.777   2.943
 1656SOL    HW2 1182   3.583   1.658   2.994
 1657SOL     OW 1183   3.114   1.731   2.990
 1657SOL    HW1 1184   3.198   1.736   2.936
 1657SOL    HW2 1185   3.091   1.635   3.008
 1658SOL     OW 1186   1.945   1.258   2.884
 1658SOL    HW1 1187   1.940   1.257   2.984
 1658SOL    HW2 1188   1.862   1.217   2.846
 1659SOL     OW 1189   2.550   1.662   3.578
 1659SOL    HW1 1190   2.494   1.743   3.587
 1659SOL    HW2 1191   2.602   1.666   3.492
 1661SOL     OW 1192   3.250   1.573   2.339
 1661SOL    HW1 1193   3.317   1.585   2.265
 1661SOL    HW2 1194   3.210   1.662   2.362
 1662SOL     OW 1195   1.992   1.794   3.713
 1662SOL    HW1 1196   1.951   1.720   3.766
 1662SOL    HW2 1197   2.056   1.845   3.771
 1663SOL     OW 1198   3.142   0.927   2.534
 1663SOL    HW1 1199   3.202   0.846   2.536
 1663SOL    HW2 1200   3.182   0.996   2.474
 1664SOL     OW 1201   2.692   1.273   3.284
 1664SOL    HW1 1202   2.687   1.306   3.379
 1664SOL    HW2 1203   2.606   1.292   3.238
 1665SOL     OW 1204   2.534   1.616   2.016
 1665SOL    HW1 1205   2.543   1.626   1.917
 1665SOL    HW2 1206   2.494   1.527   2.037
 1666SOL     OW 1207   3.512   1.720   3.256
 1666SOL    HW1 1208   3.565   1.730   3.172
 1666SOL    HW2 1209   3.485   1.810   3.290
 1669SOL     OW 1210   3.056   1.612   1.893
 1669SOL    HW1 1211   3.062   1.519   1.930
 1669SOL    HW2 1212   2.997   1.612   1.813
 1670SOL     OW 1213   2.684   1.002   3.234
 1670SOL    HW1 1214   2.724   1.001   3.142
 1670SOL    HW2 1215   2.694   1.094   3.274
 1671SOL     OW 1216   2.778   0.910   2.153
 1671SOL    HW1 1217   2.841   0.948   2.085
 1671SOL    HW2 1218   2.818   0.827   2.192
 1672SOL     OW 1219   3.366   1.607   1.906
 1672SOL    HW1 1220   3.274   1.644   1.913
 1672SOL    HW2 1221   3.404   1.627   1.816
 1673SOL     OW 1222   2.234   1.288   3.352
 1673SOL    HW1 1223   2.221   1.381   3.318
 1673SOL    HW2 1224   2.150   1.236   3.339
 1674SOL     OW 1225   3.476   1.292   3.151
 1674SOL    HW1 1226   3.536   1.295   3.231
 1674SOL    HW2 1227   3.401   1.356   3.164
 1675SOL     OW 1228   2.901   1.098   2.558
 1675SOL    HW1 1229   2.831   1.051   2.612
 1675SOL    HW2 1230   2.960   1.030   2.515
 1677SOL     OW 1231   2.452   1.487   2.353
 1677SOL    HW1 1232   2.494   1.429   2.283
 1677SOL    HW2 1233   2.408   1.566   2.309
 1679SOL     OW 1234   2.117   1.348   2.152
 1679SOL    HW1 1235   2.021   1.349   2.125
 1679SOL    HW2 1236   2.129   1.401   2.236
 1685SOL     OW 1237   3.045   1.335   1.981
 1685SOL    HW1 1238   2.946   1.324   1.983
 1685SOL    HW2 1239   3.079   1.350   2.074
 1686SOL     OW 1240   2.475   0.842   3.293
 1686SOL    HW1 1241   2.531   0.923   3.276
 1686SOL    HW2 1242   2.534   0.762   3.296
 1687SOL     OW 1243   3.355   1.767   2.821
 1687SOL    HW1 1244   3.388   1.831   2.752
 1687SOL    HW2 1245   3.421   1.761   2.896
 1690SOL     OW 1246   2.252   1.741   3.422
 1690SOL    HW1 1247   2.161   1.782   3.420
 1690SOL    HW2 1248   2.245   1.647   3.454
 1693SOL     OW 1249   2.456   0.745   2.514
 1693SOL    HW1 1250   2.506   0.830   2.495
 1693SOL    HW2 1251   2.368   0.747   2.466
 1696SOL     OW 1252   2.721   1.374   1.878
 1696SOL    HW1 1253   2.675   1.389   1.966
 1696SOL    HW2 1254   2.765   1.459   1.848
 1697SOL     OW 1255   2.523   1.790   2.815
 1697SOL    HW1 1256   2.477   1.878   2.802
 1697SOL    HW2 1257   2.622   1.802   2.808
 1698SOL     OW 1258   2.721   0.956   2.723
 1698SOL    HW1 1259   2.775   0.887   2.771
 1698SOL    HW2 1260   2.689   1.025   2.789
 1699SOL     OW 1261   2.945   0.984   1.949
 1699SOL    HW1 1262   2.922   1.037   1.867
 1699SOL    HW2 1263   3.026   0.928   1.930
 1700SOL     OW 1264   3.723   1.569   2.713
 1700SOL    HW1 1265   3.652   1.557   2.643
 1700SOL    HW2 1266   3.724   1.490   2.773
 1701SOL     OW 1267   2.083   1.314   3.706
 1701SOL    HW1 1268   2.018   1.241   3.685
 1701SOL    HW2 1269   2.087   1.328   3.804
 1702SOL     OW 1270   1.941   1.240   2.515
 1702SOL    HW1 1271   1.940   1.193   2.603
 1702SOL    HW2 1272   2.023   1.212   2.464
 1703SOL     OW 1273   2.534   1.391   3.486
 1703SOL    HW1 1274   2.456   1.341   3.524
 1703SOL    HW2 1275   2.531   1.486   3.517
 1706SOL     OW 1276   3.567   1.487   2.966
 1706SOL    HW1 1277   3.474   1.462   2.939
 1706SOL    HW2 1278   3.593   1.437   3.048
 1708SOL     OW 1279   2.674   1.586   2.549
 1708SOL    HW1 1280   2.706   1.596   2.455
 1708SOL    HW2 1281   2.595   1.524   2.551
 1711SOL     OW 1282   2.632   1.330   2.163
 1711SOL    HW1 1283   2.586   1.243   2.180
 1711SOL    HW2 1284   2.723   1.327   2.204
 1712SOL     OW 1285   2.480   1.567   3.146
 1712SOL    HW1 1286   2.475   1.649   3.203
 1712SOL    HW2 1287   2.569   1.564   3.101
 1716SOL     OW 1288   1.901   1.077   2.162
 1716SOL    HW1 1289   2.000   1.066   2.153
 1716SOL    HW2 1290   1.861   0.991   2.194
 1717SOL     OW 1291   2.737   1.646   2.199
 1717SOL    HW1 1292   2.660   1.611   2.145
 1717SOL    HW2 1293   2.705   1.717   2.261
 1732SOL     OW 1294   1.889   1.596   3.841
 1732SOL    HW1 1295   1.870   1.500   3.862
 1732SOL    HW2 1296   1.856   1.654   3.916
 1789SOL     OW 1297   2.534   1.616   3.878
 1789SOL    HW1 1298   2.543   1.626   3.779
 1789SOL    HW2 1299   2.494   1.527   3.899
 1792SOL     OW 1300   3.056   1.612   3.755
 1792SOL    HW1 1301   3.062   1.519   3.792
 1792SOL    HW2 1302   2.997   1.612   3.675
 1803SOL     OW 1303   2.721   1.374   3.740
 1803SOL    HW1 1304   2.675   1.389   3.828
 1803SOL    HW2 1305   2.765   1.459   3.710
 1817SOL     OW 1306   2.087   2.137   0.996
 1817SOL    HW1 1307   2.122   2.120   1.088
 1817SOL    HW2 1308   1.999   2.092   0.984
 1818SOL     OW 1309   1.881   2.230   0.647
 1818SOL    HW1 1310   1.799   2.273   0.686
 1818SOL    HW2 1311   1.853   2.157   0.584
 1819SOL     OW 1312   2.431   3.137   1.165
 1819SOL    HW1 1313   2.338   3.130   1.128
 1819SOL    HW2 1314   2.442   3.226   1.209
 1821SOL     OW 1315   2.997   2.565   0.717
 1821SOL    HW1 1316   3.054   2.643   0.692
 1821SOL    HW2 1317   2.937   2.591   0.793
 1823SOL     OW 1318   2.630   3.006   1.023
 1823SOL    HW1 1319   2.552   3.023   1.083
 1823SOL    HW2 1320   2.664   3.093   0.987
 1824SOL     OW 1321   2.712   2.660   1.823
 1824SOL    HW1 1322   2.708   2.736   1.888
 1824SOL    HW2 1323   2.734   2.696   1.732
 1825SOL     OW 1324   2.547   2.874   0.665
 1825SOL    HW1 1325   2.616   2.858   0.735
 1825SOL    HW2 1326   2.474   2.931   0.703
 1826SOL     OW 1327   2.548   3.023   1.803
 1826SOL    HW1 1328   2.608   3.102   1.817
 1826SOL    HW2 1329   2.462   3.054   1.762
 1827SOL     OW 1330   2.197   3.297   1.061
 1827SOL    HW1 1331   2.119   3.266   1.008
 1827SOL    HW2 1332   2.255   3.355   1.004
 1828SOL     OW 1333   3.322   3.367   1.339
 1828SOL    HW1 1334   3.346   3.461   1.365
 1828SOL    HW2 1335   3.306   3.313   1.421
 1829SOL     OW 1336   2.300   2.254   1.499
 1829SOL    HW1 1337   2.382   2.198   1.508
 1829SOL    HW2 1338   2.219   2.196   1.503
 1832SOL     OW 1339   2.989   3.203   1.690
 1832SOL    HW1 1340   3.036   3.203   1.778
 1832SOL    HW2 1341   2.941   3.116   1.679
 1834SOL     OW 1342   2.102   2.953   0.886
 1834SOL    HW1 1343   2.116   2.869   0.938
 1834SOL    HW2 1344   2.047   3.017   0.941
 1835SOL     OW 1345   2.482   3.648   1.439
 1835SOL    HW1 1346   2.390   3.631   1.474
 1835SOL    HW2 1347   2.510   3.740   1.465
 1837SOL     OW 1348   3.456   1.976   1.480
 1837SOL    HW1 1349   3.438   2.043   1.408
 1837SOL    HW2 1350   3.453   2.022   1.569
 1838SOL     OW 1351   1.984   2.505   0.563
 1838SOL    HW1 1352   1.939   2.417   0.580
 1838SOL    HW2 1353   1.983   2.559   0.647
 1843SOL     OW 1354   1.975   2.599   1.597
 1843SOL    HW1 1355   2.063   2.586   1.642
 1843SOL    HW2 1356   1.962   2.696   1.575
 1845SOL     OW 1357   3.155   3.090   1.423
 1845SOL    HW1 1358   3.192   3.017   1.365
 1845SOL    HW2 1359   3.207   3.095   1.508
 1847SOL     OW 1360   2.059   2.838   1.264
 1847SOL    HW1 1361   2.148   2.793   1.250
 1847SOL    HW2 1362   1.986   2.773   1.245
 1849SOL     OW 1363   3.049   3.654   1.616
 1849SOL    HW1 1364   3.073   3.714   1.540
 1849SOL    HW2 1365   3.056   3.559   1.586
 1850SOL     OW 1366   2.179   2.113   1.801
 1850SOL    HW1 1367   2.250   2.184   1.807
 1850SOL    HW2 1368   2.091   2.152   1.829
 1854SOL     OW 1369   3.143   2.207   0.944
 1854SOL    HW1 1370   3.057   2.157   0.931
 1854SOL    HW2 1371   3.205   2.153   1.000
 1856SOL     OW 1372   2.669   2.467   1.465
 1856SOL    HW1 1373   2.622   2.464   1.554
 1856SOL    HW2 1374   2.618   2.412   1.399
 1857SOL     OW 1375   3.256   2.331   1.674
 1857SOL    HW1 1376   3.236   2.374   1.762
 1857SOL    HW2 1377   3.334   2.269   1.683
 1858SOL     OW 1378   2.835   2.752   1.572
 1858SOL    HW1 1379   2.881   2.668   1.543
 1858SOL    HW2 1380   2.779   2.786   1.497
 1859SOL     OW 1381   2.853   2.272   1.242
 1859SOL    HW1 1382   2.776   2.306   1.296
 1859SOL    HW2 1383   2.819   2.221   1.163
 1861SOL     OW 1384   1.938   2.673   0.789
 1861SOL    HW1 1385   2.037   2.661   0.798
 1861SOL    HW2 1386   1.914   2.768   0.810
 1862SOL     OW 1387   1.992   3.683   1.571
 1862SOL    HW1 1388   1.982   3.668   1.670
 1862SOL    HW2 1389   1.906   3.719   1.535
 1864SOL     OW 1390   3.581   2.447   1.831
 1864SOL    HW1 1391   3.555   2.536   1.795
 1864SOL    HW2 1392   3.579   2.379   1.758
 1866SOL     OW 1393   2.412   2.058   0.885
 1866SOL    HW1 1394   2.407   2.053   0.985
 1866SOL    HW2 1395   2.414   2.154   0.856
 1870SOL     OW 1396   3.089   3.412   1.506
 1870SOL    HW1 1397   3.095   3.335   1.570
 1870SOL    HW2 1398   3.037   3.386   1.426
 1873SOL     OW 1399   2.323   3.128   1.727
 1873SOL    HW1 1400   2.273   3.129   1.641
 1873SOL    HW2 1401   2.260   3.110   1.803
 1875SOL     OW 1402   2.064   2.147   1.498
 1875SOL    HW1 1403   1.984   2.207   1.485
 1875SOL    HW2 1404   2.054   2.098   1.584
 1879SOL     OW 1405   2.111   3.647   1.241
 1879SOL    HW1 1406   2.168   3.582   1.291
 1879SOL    HW2 1407   2.095   3.614   1.148
 1882SOL     OW 1408   3.409   2.084   1.729
 1882SOL    HW1 1409   3.404   2.121   1.821
 1882SOL    HW2 1410   3.337   2.015   1.717
 1883SOL     OW 1411   2.643   2.126   1.749
 1883SOL    HW1 1412   2.710   2.065   1.792
 1883SOL    HW2 1413   2.570   2.145   1.814
 1884SOL     OW 1414   2.750   3.376   1.195
 1884SOL    HW1 1415   2.727   3.351   1.101
 1884SOL    HW2 1416   2.811   3.307   1.234
 1885SOL     OW 1417   3.213   2.452   1.433
 1885SOL    HW1 1418   3.241   2.409   1.518
 1885SOL    HW2 1419   3.238   2.548   1.434
 1886SOL     OW 1420   2.665   3.264   0.924
 1886SOL    HW1 1421   2.755   3.278   0.882
 1886SOL    HW2 1422   2.594   3.266   0.853
 1887SOL     OW 1423   2.784   2.365   0.899
 1887SOL    HW1 1424   2.759   2.356   0.803
 1887SOL    HW2 1425   2.832   2.283   0.930
 1892SOL     OW 1426   2.938   2.545   1.464
 1892SOL    HW1 1427   2.858   2.484   1.467
 1892SOL    HW2 1428   3.019   2.492   1.440
 1894SOL     OW 1429   2.321   3.014   0.741
 1894SOL    HW1 1430   2.250   2.987   0.806
 1894SOL    HW2 1431   2.295   2.986   0.648
 1897SOL     OW 1432   1.940   2.418   1.386
 1897SOL    HW1 1433   2.032   2.417   1.345
 1897SOL    HW2 1434   1.934   2.492   1.453
 1898SOL     OW 1435   2.423   2.084   1.147
 1898SOL    HW1 1436   2.461   2.000   1.184
 1898SOL    HW2 1437   2.335   2.103   1.191
 1899SOL     OW 1438   2.728   2.316   0.642
 1899SOL    HW1 1439   2.696   2.388   0.580
 1899SOL    HW2 1440   2.752   2.235   0.589
 1900SOL     OW 1441   2.879   1.901   0.753
 1900SOL    HW1 1442   2.807   1.906   0.684
 1900SOL    HW2 1443   2.855   1.832   0.822
 1902SOL     OW 1444   3.328   2.452   0.992
 1902SOL    HW1 1445   3.298   2.357   0.999
 1902SOL    HW2 1446   3.401   2.468   1.058
 1908SOL     OW 1447   3.616   3.085   1.588
 1908SOL    HW1 1448   3.707   3.046   1.575
 1908SOL    HW2 1449   3.624   3.181   1.612
 1909SOL     OW 1450   2.926   3.209   1.340
 1909SOL    HW1 1451   2.846   3.186   1.395
 1909SOL    HW2 1452   3.009   3.183   1.389
 1910SOL     OW 1453   3.454   3.491   1.625
 1910SOL    HW1 1454   3.481   3.525   1.535
 1910SOL    HW2 1455   3.533   3.453   1.671
 1911SOL     OW 1456   2.973   3.057   1.100
 1911SOL    HW1 1457   2.933   3.101   1.181
 1911SOL    HW2 1458   2.932   3.094   1.017
 1913SOL     OW 1459   2.777   1.951   1.402
 1913SOL    HW1 1460   2.802   1.931   1.307
 1913SOL    HW2 1461   2.849   2.007   1.444
 1914SOL     OW 1462   2.842   2.978   1.719
 1914SOL    HW1 1463   2.743   2.984   1.729
 1914SOL    HW2 1464   2.865   2.898   1.663
 1916SOL     OW 1465   2.272   2.675   1.251
 1916SOL    HW1 1466   2.358   2.687   1.301
 1916SOL    HW2 1467   2.230   2.588   1.278
 1917SOL     OW 1468   3.136   2.248   1.262
 1917SOL    HW1 1469   3.157   2.322   1.326
 1917SOL    HW2 1470   3.047   2.265   1.219
 1918SOL     OW 1471   1.926   3.426   1.331
 1918SOL    HW1 1472   1.880   3.508   1.297
 1918SOL    HW2 1473   2.024   3.445   1.340
 1920SOL     OW 1474   2.428   2.399   0.865
 1920SOL    HW1 1475   2.440   2.465   0.791
 1920SOL    HW2 1476   2.474   2.433   0.948
 1922SOL     OW 1477   3.134   3.307   1.142
 1922SOL    HW1 1478   3.181   3.320   1.229
 1922SOL    HW2 1479   3.068   3.233   1.151
 1924SOL     OW 1480   2.216   3.372   1.329
 1924SOL    HW1 1481   2.195   3.328   1.242
 1924SOL    HW2 1482   2.313   3.398   1.332
 1925SOL     OW 1483   2.264   2.613   1.598
 1925SOL    HW1 1484   2.332   2.668   1.551
 1925SOL    HW2 1485   2.304   2.525   1.625
 1926SOL     OW 1486   3.449   2.641   1.670
 1926SOL    HW1 1487   3.357   2.679   1.665
 1926SOL    HW2 1488   3.509   2.688   1.605
 1927SOL     OW 1489   2.875   1.967   1.770
 1927SOL    HW1 1490   2.881   2.052   1.718
 1927SOL    HW2 1491   2.907   1.891   1.713
 1928SOL     OW 1492   2.366   1.912   1.740
 1928SOL    HW1 1493   2.324   1.855   1.670
 1928SOL    HW2 1494   2.300   1.981   1.772
 1929SOL     OW 1495   2.435   2.732   1.029
 1929SOL    HW1 1496   2.479   2.821   1.020
 1929SOL    HW2 1497   2.372   2.732   1.106
 1930SOL     OW 1498   3.222   2.724   1.045
 1930SOL    HW1 1499   3.147   2.724   0.979
 1930SOL    HW2 1500   3.259   2.632   1.054
 1932SOL     OW 1501   2.169   2.075   1.231
 1932SOL    HW1 1502   2.146   2.112   1.321
 1932SOL    HW2 1503   2.139   1.980   1.225
 1933SOL     OW 1504   1.899   3.172   1.282
 1933SOL    HW1 1505   1.952   3.123   1.350
 1933SOL    HW2 1506   1.921   3.270   1.287
 1934SOL     OW 1507   2.594   2.496   1.064
 1934SOL    HW1 1508   2.653   2.470   0.988
 1934SOL    HW2 1509   2.566   2.592   1.053
 1935SOL     OW 1510   3.590   2.797   1.854
 1935SOL    HW1 1511   3.544   2.790   1.765
 1935SOL    HW2 1512   3.528   2.841   1.920
 1936SOL     OW 1513   2.169   1.925   0.618
 1936SOL    HW1 1514   2.158   2.019   0.651
 1936SOL    HW2 1515   2.164   1.862   0.695
 1938SOL     OW 1516   2.885   2.628   0.966
 1938SOL    HW1 1517   2.900   2.649   1.062
 1938SOL    HW2 1518   2.855   2.533   0.957
 1939SOL     OW 1519   2.842   3.435   1.700
 1939SOL    HW1 1520   2.822   3.479   1.612
 1939SOL    HW2 1521   2.881   3.344   1.684
 1941SOL     OW 1522   2.212   2.760   1.804
 1941SOL    HW1 1523   2.288   2.804   1.852
 1941SOL    HW2 1524   2.247   2.713   1.722
 1945SOL     OW 1525   2.181   2.672   0.949
 1945SOL    HW1 1526   2.274   2.708   0.954
 1945SOL    HW2 1527   2.175   2.587   1.001
 1946SOL     OW 1528   2.201   2.371   1.006
 1946SOL    HW1 1529   2.149   2.288   0.989
 1946SOL    HW2 1530   2.278   2.376   0.942
 1947SOL     OW 1531   3.000   2.242   1.678
 1947SOL    HW1 1532   2.955   2.305   1.742
 1947SOL    HW2 1533   3.093   2.273   1.661
 1948SOL     OW 1534   3.022   2.069   1.477
 1948SOL    HW1 1535   3.022   2.133   1.554
 1948SOL    HW2 1536   3.050   2.117   1.394
 1951SOL     OW 1537   2.366   3.430   0.910
 1951SOL    HW1 1538   2.432   3.504   0.919
 1951SOL    HW2 1539   2.410   3.351   0.868
 1952SOL     OW 1540   2.864   2.658   1.238
 1952SOL    HW1 1541   2.905   2.626   1.324
 1952SOL    HW2 1542   2.768   2.631   1.235
 1953SOL     OW 1543   1.902   2.406   1.114
 1953SOL    HW1 1544   1.987   2.373   1.073
 1953SOL    HW2 1545   1.915   2.421   1.212
 1954SOL     OW 1546   2.051   2.382   1.722
 1954SOL    HW1 1547   2.110   2.342   1.652
 1954SOL    HW2 1548   1.993   2.453   1.681
 1955SOL     OW 1549   3.231   2.812   1.660
 1955SOL    HW1 1550   3.270   2.901   1.680
 1955SOL    HW2 1551   3.241   2.792   1.563
 1957SOL     OW 1552   3.519   2.466   1.206
 1957SOL    HW1 1553   3.481   2.397   1.268
 1957SOL    HW2 1554   3.601   2.430   1.162
 1958SOL     OW 1555   2.114   3.426   1.744
 1958SOL    HW1 1556   2.084   3.483   1.820
 1958SOL    HW2 1557   2.107   3.329   1.770
 1959SOL     OW 1558   2.533   2.326   1.269
 1959SOL    HW1 1559   2.499   2.237   1.239
 1959SOL    HW2 1560   2.559   2.380   1.189
 1960SOL     OW 1561   2.792   3.540   1.465
 1960SOL    HW1 1562   2.768   3.522   1.370
 1960SOL    HW2 1563   2.822   3.634   1.475
 1962SOL     OW 1564   2.021   2.999   1.466
 1962SOL    HW1 1565   2.043   2.938   1.542
 1962SOL    HW2 1566   2.031   2.950   1.380
 1963SOL     OW 1567   3.209   2.921   1.234
 1963SOL    HW1 1568   3.233   2.858   1.160
 1963SOL    HW2 1569   3.119   2.961   1.216
 1967SOL     OW 1570   1.945   3.120   1.022
 1967SOL    HW1 1571   1.940   3.119   1.122
 1967SOL    HW2 1572   1.862   3.079   0.984
 1968SOL     OW 1573   2.550   3.524   1.716
 1968SOL    HW1 1574   2.494   3.605   1.725
 1968SOL    HW2 1575   2.602   3.528   1.630
 1972SOL     OW 1576   1.992   3.656   1.851
 1972SOL    HW1 1577   1.951   3.582   1.904
 1972SOL    HW2 1578   2.056   3.707   1.909
 1974SOL     OW 1579   2.692   3.135   1.422
 1974SOL    HW1 1580   2.687   3.168   1.517
 1974SOL    HW2 1581   2.606   3.154   1.376
 1978SOL     OW 1582   2.125   2.188   0.720
 1978SOL    HW1 1583   2.046   2.239   0.686
 1978SOL    HW2 1584   2.116   2.173   0.818
 1980SOL     OW 1585   2.684   2.864   1.372
 1980SOL    HW1 1586   2.724   2.863   1.280
 1980SOL    HW2 1587   2.694   2.956   1.412
 1983SOL     OW 1588   2.234   3.150   1.490
 1983SOL    HW1 1589   2.221   3.243   1.456
 1983SOL    HW2 1590   2.150   3.098   1.477
 1984SOL     OW 1591   3.476   3.154   1.289
 1984SOL    HW1 1592   3.536   3.157   1.369
 1984SOL    HW2 1593   3.401   3.218   1.302
 1986SOL     OW 1594   2.876   2.098   0.971
 1986SOL    HW1 1595   2.868   2.062   0.878
 1986SOL    HW2 1596   2.874   2.022   1.036
 1988SOL     OW 1597   3.571   2.247   1.381
 1988SOL    HW1 1598   3.644   2.316   1.385
 1988SOL    HW2 1599   3.599   2.172   1.322
 1990SOL     OW 1600   1.967   2.875   1.726
 1990SOL    HW1 1601   1.890   2.842   1.780
 1990SOL    HW2 1602   2.052   2.845   1.768
 1991SOL     OW 1603   2.534   2.065   1.489
 1991SOL    HW1 1604   2.624   2.049   1.449
 1991SOL    HW2 1605   2.542   2.070   1.588
 1993SOL     OW 1606   3.302   2.718   1.398
 1993SOL    HW1 1607   3.245   2.770   1.335
 1993SOL    HW2 1608   3.398   2.730   1.374
 1996SOL     OW 1609   2.475   2.704   1.431
 1996SOL    HW1 1610   2.531   2.785   1.414
 1996SOL    HW2 1611   2.534   2.624   1.434
 1998SOL     OW 1612   2.578   2.427   1.708
 1998SOL    HW1 1613   2.597   2.492   1.782
 1998SOL    HW2 1614   2.638   2.347   1.717
 1999SOL     OW 1615   3.312   3.082   1.633
 1999SOL    HW1 1616   3.303   3.072   1.732
 1999SOL    HW2 1617   3.408   3.075   1.607
 2000SOL     OW 1618   2.252   3.603   1.560
 2000SOL    HW1 1619   2.161   3.644   1.558
 2000SOL    HW2 1620   2.245   3.509   1.592
 2001SOL     OW 1621   3.536   2.745   1.254
 2001SOL    HW1 1622   3.509   2.656   1.217
 2001SOL    HW2 1623   3.537   2.813   1.181
 2003SOL     OW 1624   2.456   2.607   0.652
 2003SOL    HW1 1625   2.506   2.692   0.633
 2003SOL    HW2 1626   2.368   2.609   0.604
 2004SOL     OW 1627   3.639   2.204   1.642
 2004SOL    HW1 1628   3.622   2.235   1.548
 2004SOL    HW2 1629   3.555   2.167   1.680
 2005SOL     OW 1630   3.592   2.796   1.517
 2005SOL    HW1 1631   3.630   2.887   1.532
 2005SOL    HW2 1632   3.584   2.779   1.418
 2008SOL     OW 1633   2.721   2.818   0.861
 2008SOL    HW1 1634   2.775   2.749   0.909
 2008SOL    HW2 1635   2.689   2.887   0.927
 2011SOL     OW 1636   2.083   3.176   1.844
 2011SOL    HW1 1637   2.018   3.103   1.823
 2011SOL    HW2 1638   2.087   3.190   1.942
 2013SOL     OW 1639   2.534   3.253   1.624
 2013SOL    HW1 1640   2.456   3.203   1.662
 2013SOL    HW2 1641   2.531   3.348   1.655
 2014SOL     OW 1642   3.686   2.054   1.227
 2014SOL    HW1 1643   3.682   1.964   1.271
 2014SOL    HW2 1644   3.689   2.043   1.128
 2015SOL     OW 1645   2.290   2.286   0.520
 2015SOL    HW1 1646   2.320   2.214   0.458
 2015SOL    HW2 1647   2.251   2.246   0.603
 2017SOL     OW 1648   2.179   2.409   1.280
 2017SOL    HW1 1649   2.217   2.350   1.352
 2017SOL    HW2 1650   2.219   2.383   1.192
 2019SOL     OW 1651   3.286   2.076   1.112
 2019SOL    HW1 1652   3.338   2.011   1.167
 2019SOL    HW2 1653   3.237   2.139   1.173
 2020SOL     OW 1654   2.863   1.896   1.154
 2020SOL    HW1 1655   2.800   1.824   1.123
 2020SOL    HW2 1656   2.956   1.860   1.154
 2022SOL     OW 1657   2.480   3.429   1.284
 2022SOL    HW1 1658   2.475   3.511   1.341
 2022SOL    HW2 1659   2.569   3.426   1.239
 2028SOL     OW 1660   2.092   2.490   1.975
 2028SOL    HW1 1661   1.999   2.488   2.012
 2028SOL    HW2 1662   2.093   2.451   1.883
 2029SOL     OW 1663   2.087   2.137   2.858
 2029SOL    HW1 1664   2.122   2.120   2.950
 2029SOL    HW2 1665   1.999   2.092   2.846
 2030SOL     OW 1666   1.881   2.230   2.509
 2030SOL    HW1 1667   1.799   2.273   2.548
 2030SOL    HW2 1668   1.853   2.157   2.446
 2031SOL     OW 1669   2.431   3.137   3.027
 2031SOL    HW1 1670   2.338   3.130   2.990
 2031SOL    HW2 1671   2.442   3.226   3.071
 2032SOL     OW 1672   3.417   3.373   2.565
 2032SOL    HW1 1673   3.360   3.357   2.646
 2032SOL    HW2 1674   3.358   3.383   2.485
 2033SOL     OW 1675   2.997   2.565   2.579
 2033SOL    HW1 1676   3.054   2.643   2.554
 2033SOL    HW2 1677   2.937   2.591   2.655
 2034SOL     OW 1678   3.617   2.469   2.093
 2034SOL    HW1 1679   3.605   2.456   1.994
 2034SOL    HW2 1680   3.587   2.388   2.142
 2035SOL     OW 1681   2.630   3.006   2.885
 2035SOL    HW1 1682   2.552   3.023   2.945
 2035SOL    HW2 1683   2.664   3.093   2.849
 2036SOL     OW 1684   2.712   2.660   3.685
 2036SOL    HW1 1685   2.708   2.736   3.750
 2036SOL    HW2 1686   2.734   2.696   3.594
 2037SOL     OW 1687   2.547   2.874   2.527
 2037SOL    HW1 1688   2.616   2.858   2.597
 2037SOL    HW2 1689   2.474   2.931   2.565
 2038SOL     OW 1690   2.548   3.023   3.665
 2038SOL    HW1 1691   2.608   3.102   3.679
 2038SOL    HW2 1692   2.462   3.054   3.624
 2039SOL     OW 1693   2.197   3.297   2.923
 2039SOL    HW1 1694   2.119   3.266   2.870
 2039SOL    HW2 1695   2.255   3.355   2.866
 2040SOL     OW 1696   3.322   3.367   3.201
 2040SOL    HW1 1697   3.346   3.461   3.227
 2040SOL    HW2 1698   3.306   3.313   3.283
 2041SOL     OW 1699   2.300   2.254   3.361
 2041SOL    HW1 1700   2.382   2.198   3.370
 2041SOL    HW2 1701   2.219   2.196   3.365
 2042SOL     OW 1702   3.465   2.309   2.599
 2042SOL    HW1 1703   3.391   2.355   2.549
 2042SOL    HW2 1704   3.516   2.377   2.652
 2043SOL     OW 1705   2.093   3.575   2.345
 2043SOL    HW1 1706   2.127   3.652   2.399
 2043SOL    HW2 1707   2.137   3.575   2.255
 2044SOL     OW 1708   2.989   3.203   3.552
 2044SOL    HW1 1709   3.036   3.203   3.640
 2044SOL    HW2 1710   2.941   3.116   3.541
 2045SOL     OW 1711   2.092   3.296   2.400
 2045SOL    HW1 1712   2.066   3.392   2.400
 2045SOL    HW2 1713   2.021   3.242   2.445
 2046SOL     OW 1714   2.102   2.953   2.748
 2046SOL    HW1 1715   2.116   2.869   2.800
 2046SOL    HW2 1716   2.047   3.017   2.803
 2047SOL     OW 1717   2.482   3.648   3.301
 2047SOL    HW1 1718   2.390   3.631   3.336
 2047SOL    HW2 1719   2.510   3.740   3.327
 2048SOL     OW 1720   2.468   2.826   1.985
 2048SOL    HW1 1721   2.475   2.910   1.931
 2048SOL    HW2 1722   2.514   2.839   2.073
 2049SOL     OW 1723   3.456   1.976   3.342
 2049SOL    HW1 1724   3.438   2.043   3.270
 2049SOL    HW2 1725   3.453   2.022   3.431
 2050SOL     OW 1726   1.984   2.505   2.425
 2050SOL    HW1 1727   1.939   2.417   2.442
 2050SOL    HW2 1728   1.983   2.559   2.509
 2052SOL     OW 1729   1.889   3.458   1.979
 2052SOL    HW1 1730   1.870   3.362   2.000
 2052SOL    HW2 1731   1.856   3.516   2.054
 2053SOL     OW 1732   3.551   2.784   2.474
 2053SOL    HW1 1733   3.646   2.755   2.482
 2053SOL    HW2 1734   3.543   2.849   2.399
 2054SOL     OW 1735   3.503   2.970   2.294
 2054SOL    HW1 1736   3.589   2.972   2.242
 2054SOL    HW2 1737   3.517   3.017   2.382
 2055SOL     OW 1738   1.975   2.599   3.459
 2055SOL    HW1 1739   2.063   2.586   3.504
 2055SOL    HW2 1740   1.962   2.696   3.437
 2056SOL     OW 1741   2.475   3.227   2.588
 2056SOL    HW1 1742   2.426   3.140   2.597
 2056SOL    HW2 1743   2.452   3.270   2.501
 2057SOL     OW 1744   3.155   3.090   3.285
 2057SOL    HW1 1745   3.192   3.017   3.227
 2057SOL    HW2 1746   3.207   3.095   3.370
 2058SOL     OW 1747   2.671   1.866   2.364
 2058SOL    HW1 1748   2.711   1.957   2.355
 2058SOL    HW2 1749   2.571   1.874   2.370
 2059SOL     OW 1750   2.059   2.838   3.126
 2059SOL    HW1 1751   2.148   2.793   3.112
 2059SOL    HW2 1752   1.986   2.773   3.107
 2060SOL     OW 1753   3.387   2.861   2.052
 2060SOL    HW1 1754   3.324   2.785   2.065
 2060SOL    HW2 1755   3.435   2.879   2.138
 2062SOL     OW 1756   2.179   2.113   3.663
 2062SOL    HW1 1757   2.250   2.184   3.669
 2062SOL    HW2 1758   2.091   2.152   3.691
 2063SOL     OW 1759   3.328   3.279   2.815
 2063SOL    HW1 1760   3.269   3.285   2.895
 2063SOL    HW2 1761   3.313   3.191   2.769
 2064SOL     OW 1762   3.529   3.576   2.434
 2064SOL    HW1 1763   3.488   3.553   2.346
 2064SOL    HW2 1764   3.511   3.502   2.499
 2065SOL     OW 1765   3.143   2.207   2.806
 2065SOL    HW1 1766   3.057   2.157   2.793
 2065SOL    HW2 1767   3.205   2.153   2.862
 2066SOL     OW 1768   3.438   3.524   2.169
 2066SOL    HW1 1769   3.527   3.570   2.172
 2066SOL    HW2 1770   3.417   3.500   2.074
 2067SOL     OW 1771   2.669   2.467   3.327
 2067SOL    HW1 1772   2.622   2.464   3.416
 2067SOL    HW2 1773   2.618   2.412   3.261
 2068SOL     OW 1774   3.256   2.331   3.536
 2068SOL    HW1 1775   3.236   2.374   3.624
 2068SOL    HW2 1776   3.334   2.269   3.545
 2069SOL     OW 1777   2.835   2.752   3.434
 2069SOL    HW1 1778   2.881   2.668   3.405
 2069SOL    HW2 1779   2.779   2.786   3.359
 2070SOL     OW 1780   2.853   2.272   3.104
 2070SOL    HW1 1781   2.776   2.306   3.158
 2070SOL    HW2 1782   2.819   2.221   3.025
 2071SOL     OW 1783   2.903   2.563   2.291
 2071SOL    HW1 1784   2.929   2.559   2.387
 2071SOL    HW2 1785   2.818   2.512   2.277
 2072SOL     OW 1786   1.938   2.673   2.651
 2072SOL    HW1 1787   2.037   2.661   2.660
 2072SOL    HW2 1788   1.914   2.768   2.672
 2074SOL     OW 1789   2.727   2.210   2.057
 2074SOL    HW1 1790   2.786   2.273   2.008
 2074SOL    HW2 1791   2.746   2.116   2.028
 2076SOL     OW 1792   3.224   3.006   2.407
 2076SOL    HW1 1793   3.307   2.977   2.359
 2076SOL    HW2 1794   3.175   3.073   2.351
 2077SOL     OW 1795   2.412   2.058   2.747
 2077SOL    HW1 1796   2.407   2.053   2.847
 2077SOL    HW2 1797   2.414   2.154   2.718
 2078SOL     OW 1798   2.870   3.318   2.339
 2078SOL    HW1 1799   2.824   3.390   2.287
 2078SOL    HW2 1800   2.866   3.338   2.437
 2079SOL     OW 1801   2.213   3.663   2.715
 2079SOL    HW1 1802   2.263   3.577   2.721
 2079SOL    HW2 1803   2.278   3.740   2.712
 2080SOL     OW 1804   3.657   2.928   2.735
 2080SOL    HW1 1805   3.595   2.913   2.659
 2080SOL    HW2 1806   3.605   2.939   2.820
 2081SOL     OW 1807   3.089   3.412   3.368
 2081SOL    HW1 1808   3.095   3.335   3.432
 2081SOL    HW2 1809   3.037   3.386   3.288
 2082SOL     OW 1810   2.183   2.805   2.104
 2082SOL    HW1 1811   2.265   2.844   2.062
 2082SOL    HW2 1812   2.156   2.723   2.055
 2083SOL     OW 1813   3.320   2.597   2.590
 2083SOL    HW1 1814   3.315   2.532   2.665
 2083SOL    HW2 1815   3.400   2.656   2.603
 2084SOL     OW 1816   2.323   3.128   3.589
 2084SOL    HW1 1817   2.273   3.129   3.503
 2084SOL    HW2 1818   2.260   3.110   3.665
 2085SOL     OW 1819   2.973   3.638   2.099
 2085SOL    HW1 1820   2.913   3.576   2.149
 2085SOL    HW2 1821   3.004   3.594   2.014
 2086SOL     OW 1822   2.064   2.147   3.360
 2086SOL    HW1 1823   1.984   2.207   3.347
 2086SOL    HW2 1824   2.054   2.098   3.446
 2087SOL     OW 1825   3.494   3.239   1.943
 2087SOL    HW1 1826   3.462   3.333   1.933
 2087SOL    HW2 1827   3.418   3.176   1.931
 2088SOL     OW 1828   2.326   3.605   2.185
 2088SOL    HW1 1829   2.359   3.644   2.271
 2088SOL    HW2 1830   2.402   3.598   2.120
 2089SOL     OW 1831   3.262   1.969   2.288
 2089SOL    HW1 1832   3.238   1.932   2.198
 2089SOL    HW2 1833   3.361   1.985   2.292
 2090SOL     OW 1834   2.111   3.647   3.103
 2090SOL    HW1 1835   2.168   3.582   3.153
 2090SOL    HW2 1836   2.095   3.614   3.010
 2091SOL     OW 1837   2.802   3.560   2.766
 2091SOL    HW1 1838   2.882   3.503   2.787
 2091SOL    HW2 1839   2.753   3.520   2.689
 2092SOL     OW 1840   3.409   2.084   3.591
 2092SOL    HW1 1841   3.404   2.121   3.683
 2092SOL    HW2 1842   3.337   2.015   3.579
 2093SOL     OW 1843   2.476   1.984   1.979
 2093SOL    HW1 1844   2.574   1.962   1.986
 2093SOL    HW2 1845   2.445   1.967   1.886
 2094SOL     OW 1846   2.643   2.126   3.611
 2094SOL    HW1 1847   2.710   2.065   3.654
 2094SOL    HW2 1848   2.570   2.145   3.676
 2095SOL     OW 1849   2.750   3.376   3.057
 2095SOL    HW1 1850   2.727   3.351   2.963
 2095SOL    HW2 1851   2.811   3.307   3.096
 2096SOL     OW 1852   3.213   2.452   3.295
 2096SOL    HW1 1853   3.241   2.409   3.380
 2096SOL    HW2 1854   3.238   2.548   3.296
 2097SOL     OW 1855   2.665   3.264   2.786
 2097SOL    HW1 1856   2.755   3.278   2.744
 2097SOL    HW2 1857   2.594   3.266   2.715
 2098SOL     OW 1858   2.784   2.365   2.761
 2098SOL    HW1 1859   2.759   2.356   2.665
 2098SOL    HW2 1860   2.832   2.283   2.792
 2099SOL     OW 1861   3.296   3.050   1.903
 2099SOL    HW1 1862   3.328   2.974   1.960
 2099SOL    HW2 1863   3.204   3.077   1.933
 2100SOL     OW 1864   2.159   1.897   2.033
 2100SOL    HW1 1865   2.208   1.981   2.012
 2100SOL    HW2 1866   2.221   1.832   2.078
 2101SOL     OW 1867   2.797   2.098   2.342
 2101SOL    HW1 1868   2.749   2.139   2.264
 2101SOL    HW2 1869   2.896   2.096   2.323
 2102SOL     OW 1870   2.938   2.545   3.326
 2102SOL    HW1 1871   2.858   2.484   3.329
 2102SOL    HW2 1872   3.019   2.492   3.302
 2103SOL     OW 1873   3.089   3.432   2.655
 2103SOL    HW1 1874   3.110   3.506   2.590
 2103SOL    HW2 1875   3.157   3.432   2.728
 2104SOL     OW 1876   2.321   3.014   2.603
 2104SOL    HW1 1877   2.250   2.987   2.668
 2104SOL    HW2 1878   2.295   2.986   2.510
 2105SOL     OW 1879   3.133   3.659   2.453
 2105SOL    HW1 1880   3.177   3.723   2.389
 2105SOL    HW2 1881   3.083   3.711   2.523
 2106SOL     OW 1882   2.894   2.411   1.878
 2106SOL    HW1 1883   2.853   2.493   1.839
 2106SOL    HW2 1884   2.958   2.437   1.951
 2107SOL     OW 1885   1.940   2.418   3.248
 2107SOL    HW1 1886   2.032   2.417   3.207
 2107SOL    HW2 1887   1.934   2.492   3.315
 2108SOL     OW 1888   2.423   2.084   3.009
 2108SOL    HW1 1889   2.461   2.000   3.046
 2108SOL    HW2 1890   2.335   2.103   3.053
 2109SOL     OW 1891   2.728   2.316   2.504
 2109SOL    HW1 1892   2.696   2.388   2.442
 2109SOL    HW2 1893   2.752   2.235   2.451
 2110SOL     OW 1894   2.879   1.901   2.615
 2110SOL    HW1 1895   2.807   1.906   2.546
 2110SOL    HW2 1896   2.855   1.832   2.684
 2111SOL     OW 1897   3.291   3.035   2.729
 2111SOL    HW1 1898   3.236   2.951   2.722
 2111SOL    HW2 1899   3.317   3.064   2.637
 2112SOL     OW 1900   3.328   2.452   2.854
 2112SOL    HW1 1901   3.298   2.357   2.861
 2112SOL    HW2 1902   3.401   2.468   2.920
 2113SOL     OW 1903   3.719   2.695   2.239
 2113SOL    HW1 1904   3.761   2.631   2.303
 2113SOL    HW2 1905   3.681   2.644   2.161
 2114SOL     OW 1906   2.350   3.247   2.036
 2114SOL    HW1 1907   2.263   3.232   2.083
 2114SOL    HW2 1908   2.333   3.273   1.941
 2115SOL     OW 1909   3.526   3.142   2.519
 2115SOL    HW1 1910   3.625   3.150   2.533
 2115SOL    HW2 1911   3.481   3.226   2.550
 2116SOL     OW 1912   3.252   2.437   1.940
 2116SOL    HW1 1913   3.198   2.416   2.021
 2116SOL    HW2 1914   3.343   2.396   1.949
 2118SOL     OW 1915   2.926   3.209   3.202
 2118SOL    HW1 1916   2.846   3.186   3.257
 2118SOL    HW2 1917   3.009   3.183   3.251
 2120SOL     OW 1918   2.973   3.057   2.962
 2120SOL    HW1 1919   2.933   3.101   3.043
 2120SOL    HW2 1920   2.932   3.094   2.879
 2121SOL     OW 1921   3.500   2.961   2.941
 2121SOL    HW1 1922   3.505   3.042   3.000
 2121SOL    HW2 1923   3.414   2.963   2.890
 2122SOL     OW 1924   2.777   1.951   3.264
 2122SOL    HW1 1925   2.802   1.931   3.169
 2122SOL    HW2 1926   2.849   2.007   3.306
 2123SOL     OW 1927   2.842   2.978   3.581
 2123SOL    HW1 1928   2.743   2.984   3.591
 2123SOL    HW2 1929   2.865   2.898   3.525
 2124SOL     OW 1930   2.567   2.912   2.230
 2124SOL    HW1 1931   2.553   2.919   2.329
 2124SOL    HW2 1932   2.651   2.861   2.212
 2125SOL     OW 1933   2.272   2.675   3.113
 2125SOL    HW1 1934   2.358   2.687   3.163
 2125SOL    HW2 1935   2.230   2.588   3.140
 2126SOL     OW 1936   3.136   2.248   3.124
 2126SOL    HW1 1937   3.157   2.322   3.188
 2126SOL    HW2 1938   3.047   2.265   3.081
 2127SOL     OW 1939   1.926   3.426   3.193
 2127SOL    HW1 1940   1.880   3.508   3.159
 2127SOL    HW2 1941   2.024   3.445   3.202
 2128SOL     OW 1942   2.229   2.962   2.363
 2128SOL    HW1 1943   2.222   3.045   2.307
 2128SOL    HW2 1944   2.233   2.882   2.303
 2129SOL     OW 1945   2.428   2.399   2.727
 2129SOL    HW1 1946   2.440   2.465   2.653
 2129SOL    HW2 1947   2.474   2.433   2.810
 2130SOL     OW 1948   3.114   3.210   2.250
 2130SOL    HW1 1949   3.164   3.287   2.290
 2130SOL    HW2 1950   3.019   3.212   2.282
 2131SOL     OW 1951   3.134   3.307   3.004
 2131SOL    HW1 1952   3.181   3.320   3.091
 2131SOL    HW2 1953   3.068   3.233   3.013
 2132SOL     OW 1954   3.444   2.501   2.334
 2132SOL    HW1 1955   3.413   2.562   2.407
 2132SOL    HW2 1956   3.494   2.553   2.265
 2133SOL     OW 1957   2.216   3.372   3.191
 2133SOL    HW1 1958   2.195   3.328   3.104
 2133SOL    HW2 1959   2.313   3.398   3.194
 2134SOL     OW 1960   2.264   2.613   3.460
 2134SOL    HW1 1961   2.332   2.668   3.413
 2134SOL    HW2 1962   2.304   2.525   3.487
 2135SOL     OW 1963   3.449   2.641   3.532
 2135SOL    HW1 1964   3.357   2.679   3.527
 2135SOL    HW2 1965   3.509   2.688   3.467
 2136SOL     OW 1966   2.875   1.967   3.632
 2136SOL    HW1 1967   2.881   2.052   3.580
 2136SOL    HW2 1968   2.907   1.891   3.575
 2137SOL     OW 1969   2.366   1.912   3.602
 2137SOL    HW1 1970   2.324   1.855   3.532
 2137SOL    HW2 1971   2.300   1.981   3.634
 2138SOL     OW 1972   2.435   2.732   2.891
 2138SOL    HW1 1973   2.479   2.821   2.882
 2138SOL    HW2 1974   2.372   2.732   2.968
 2139SOL     OW 1975   3.222   2.724   2.907
 2139SOL    HW1 1976   3.147   2.724   2.841
 2139SOL    HW2 1977   3.259   2.632   2.916
 2140SOL     OW 1978   3.071   2.387   2.137
 2140SOL    HW1 1979   3.084   2.303   2.191
 2140SOL    HW2 1980   3.042   2.461   2.197
 2141SOL     OW 1981   2.169   2.075   3.093
 2141SOL    HW1 1982   2.146   2.112   3.183
 2141SOL    HW2 1983   2.139   1.980   3.087
 2142SOL     OW 1984   1.899   3.172   3.144
 2142SOL    HW1 1985   1.952   3.123   3.212
 2142SOL    HW2 1986   1.921   3.270   3.149
 2143SOL     OW 1987   2.594   2.496   2.926
 2143SOL    HW1 1988   2.653   2.470   2.850
 2143SOL    HW2 1989   2.566   2.592   2.915
 2145SOL     OW 1990   2.169   1.925   2.480
 2145SOL    HW1 1991   2.158   2.019   2.513
 2145SOL    HW2 1992   2.164   1.862   2.557
 2146SOL     OW 1993   3.484   2.229   2.236
 2146SOL    HW1 1994   3.486   2.153   2.300
 2146SOL    HW2 1995   3.436   2.306   2.276
 2147SOL     OW 1996   2.885   2.628   2.828
 2147SOL    HW1 1997   2.900   2.649   2.924
 2147SOL    HW2 1998   2.855   2.533   2.819
 2148SOL     OW 1999   2.842   3.435   3.562
 2148SOL    HW1 2000   2.822   3.479   3.474
 2148SOL    HW2 2001   2.881   3.344   3.546
 2150SOL     OW 2002   2.212   2.760   3.666
 2150SOL    HW1 2003   2.288   2.804   3.714
 2150SOL    HW2 2004   2.247   2.713   3.584
 2151SOL     OW 2005   3.402   2.136   1.987
 2151SOL    HW1 2006   3.341   2.061   2.010
 2151SOL    HW2 2007   3.424   2.188   2.070
 2152SOL     OW 2008   3.165   2.700   1.904
 2152SOL    HW1 2009   3.199   2.607   1.919
 2152SOL    HW2 2010   3.183   2.727   1.809
 2153SOL     OW 2011   2.930   3.195   2.711
 2153SOL    HW1 2012   2.937   3.111   2.656
 2153SOL    HW2 2013   2.992   3.264   2.675
 2154SOL     OW 2014   2.181   2.672   2.811
 2154SOL    HW1 2015   2.274   2.708   2.816
 2154SOL    HW2 2016   2.175   2.587   2.863
 2155SOL     OW 2017   2.201   2.371   2.868
 2155SOL    HW1 2018   2.149   2.288   2.851
 2155SOL    HW2 2019   2.278   2.376   2.804
 2156SOL     OW 2020   3.000   2.242   3.540
 2156SOL    HW1 2021   2.955   2.305   3.604
 2156SOL    HW2 2022   3.093   2.273   3.523
 2157SOL     OW 2023   3.022   2.069   3.339
 2157SOL    HW1 2024   3.022   2.133   3.416
 2157SOL    HW2 2025   3.050   2.117   3.256
 2158SOL     OW 2026   1.870   3.188   2.062
 2158SOL    HW1 2027   1.777   3.209   2.031
 2158SOL    HW2 2028   1.880   3.089   2.075
 2159SOL     OW 2029   1.950   3.663   2.789
 2159SOL    HW1 2030   1.908   3.577   2.762
 2159SOL    HW2 2031   2.044   3.666   2.755
 2160SOL     OW 2032   2.366   3.430   2.772
 2160SOL    HW1 2033   2.432   3.504   2.781
 2160SOL    HW2 2034   2.410   3.351   2.730
 2161SOL     OW 2035   2.864   2.658   3.100
 2161SOL    HW1 2036   2.905   2.626   3.186
 2161SOL    HW2 2037   2.768   2.631   3.097
 2162SOL     OW 2038   1.902   2.406   2.976
 2162SOL    HW1 2039   1.987   2.373   2.935
 2162SOL    HW2 2040   1.915   2.421   3.074
 2163SOL     OW 2041   2.051   2.382   3.584
 2163SOL    HW1 2042   2.110   2.342   3.514
 2163SOL    HW2 2043   1.993   2.453   3.543
 2164SOL     OW 2044   3.231   2.812   3.522
 2164SOL    HW1 2045   3.270   2.901   3.542
 2164SOL    HW2 2046   3.241   2.792   3.425
 2165SOL     OW 2047   2.677   2.434   2.187
 2165SOL    HW1 2048   2.684   2.345   2.141
 2165SOL    HW2 2049   2.583   2.468   2.179
 2166SOL     OW 2050   3.519   2.466   3.068
 2166SOL    HW1 2051   3.481   2.397   3.130
 2166SOL    HW2 2052   3.601   2.430   3.024
 2167SOL     OW 2053   2.114   3.426   3.606
 2167SOL    HW1 2054   2.084   3.483   3.682
 2167SOL    HW2 2055   2.107   3.329   3.632
 2168SOL     OW 2056   2.533   2.326   3.131
 2168SOL    HW1 2057   2.499   2.237   3.101
 2168SOL    HW2 2058   2.559   2.380   3.051
 2169SOL     OW 2059   2.792   3.540   3.327
 2169SOL    HW1 2060   2.768   3.522   3.232
 2169SOL    HW2 2061   2.822   3.634   3.337
 2170SOL     OW 2062   2.335   2.362   2.053
 2170SOL    HW1 2063   2.396   2.442   2.057
 2170SOL    HW2 2064   2.240   2.393   2.060
 2171SOL     OW 2065   2.021   2.999   3.328
 2171SOL    HW1 2066   2.043   2.938   3.404
 2171SOL    HW2 2067   2.031   2.950   3.242
 2172SOL     OW 2068   3.209   2.921   3.096
 2172SOL    HW1 2069   3.233   2.858   3.022
 2172SOL    HW2 2070   3.119   2.961   3.078
 2173SOL     OW 2071   3.164   2.717   2.171
 2173SOL    HW1 2072   3.078   2.686   2.213
 2173SOL    HW2 2073   3.160   2.703   2.072
 2175SOL     OW 2074   3.114   3.593   2.990
 2175SOL    HW1 2075   3.198   3.598   2.936
 2175SOL    HW2 2076   3.091   3.497   3.008
 2176SOL     OW 2077   1.945   3.120   2.884
 2176SOL    HW1 2078   1.940   3.119   2.984
 2176SOL    HW2 2079   1.862   3.079   2.846
 2177SOL     OW 2080   2.550   3.524   3.578
 2177SOL    HW1 2081   2.494   3.605   3.587
 2177SOL    HW2 2082   2.602   3.528   3.492
 2178SOL     OW 2083   3.588   1.997   2.385
 2178SOL    HW1 2084   3.661   1.980   2.318
 2178SOL    HW2 2085   3.557   1.910   2.423
 2179SOL     OW 2086   3.250   3.435   2.339
 2179SOL    HW1 2087   3.317   3.447   2.265
 2179SOL    HW2 2088   3.210   3.524   2.362
 2181SOL     OW 2089   3.142   2.789   2.534
 2181SOL    HW1 2090   3.202   2.708   2.536
 2181SOL    HW2 2091   3.182   2.858   2.474
 2182SOL     OW 2092   2.692   3.135   3.284
 2182SOL    HW1 2093   2.687   3.168   3.379
 2182SOL    HW2 2094   2.606   3.154   3.238
 2183SOL     OW 2095   2.534   3.478   2.016
 2183SOL    HW1 2096   2.543   3.488   1.917
 2183SOL    HW2 2097   2.494   3.389   2.037
 2185SOL     OW 2098   3.703   2.037   2.825
 2185SOL    HW1 2099   3.742   1.952   2.789
 2185SOL    HW2 2100   3.605   2.039   2.806
 2186SOL     OW 2101   2.125   2.188   2.582
 2186SOL    HW1 2102   2.046   2.239   2.548
 2186SOL    HW2 2103   2.116   2.173   2.680
 2187SOL     OW 2104   3.056   3.474   1.893
 2187SOL    HW1 2105   3.062   3.381   1.930
 2187SOL    HW2 2106   2.997   3.474   1.813
 2188SOL     OW 2107   2.684   2.864   3.234
 2188SOL    HW1 2108   2.724   2.863   3.142
 2188SOL    HW2 2109   2.694   2.956   3.274
 2189SOL     OW 2110   2.778   2.772   2.153
 2189SOL    HW1 2111   2.841   2.810   2.085
 2189SOL    HW2 2112   2.818   2.689   2.192
 2190SOL     OW 2113   3.366   3.469   1.906
 2190SOL    HW1 2114   3.274   3.506   1.913
 2190SOL    HW2 2115   3.404   3.489   1.816
 2191SOL     OW 2116   2.234   3.150   3.352
 2191SOL    HW1 2117   2.221   3.243   3.318
 2191SOL    HW2 2118   2.150   3.098   3.339
 2192SOL     OW 2119   3.476   3.154   3.151
 2192SOL    HW1 2120   3.536   3.157   3.231
 2192SOL    HW2 2121   3.401   3.218   3.164
 2193SOL     OW 2122   2.901   2.960   2.558
 2193SOL    HW1 2123   2.831   2.913   2.612
 2193SOL    HW2 2124   2.960   2.892   2.515
 2194SOL     OW 2125   2.876   2.098   2.833
 2194SOL    HW1 2126   2.868   2.062   2.740
 2194SOL    HW2 2127   2.874   2.022   2.898
 2195SOL     OW 2128   2.452   3.349   2.353
 2195SOL    HW1 2129   2.494   3.291   2.283
 2195SOL    HW2 2130   2.408   3.428   2.309
 2196SOL     OW 2131   3.571   2.247   3.243
 2196SOL    HW1 2132   3.644   2.316   3.247
 2196SOL    HW2 2133   3.599   2.172   3.184
 2197SOL     OW 2134   2.117   3.210   2.152
 2197SOL    HW1 2135   2.021   3.211   2.125
 2197SOL    HW2 2136   2.129   3.263   2.236
 2198SOL     OW 2137   1.967   2.875   3.588
 2198SOL    HW1 2138   1.890   2.842   3.642
 2198SOL    HW2 2139   2.052   2.845   3.630
 2199SOL     OW 2140   2.534   2.065   3.351
 2199SOL    HW1 2141   2.624   2.049   3.311
 2199SOL    HW2 2142   2.542   2.070   3.450
 2200SOL     OW 2143   1.937   2.207   1.895
 2200SOL    HW1 2144   1.845   2.179   1.866
 2200SOL    HW2 2145   1.968   2.284   1.839
 2201SOL     OW 2146   3.302   2.718   3.260
 2201SOL    HW1 2147   3.245   2.770   3.197
 2201SOL    HW2 2148   3.398   2.730   3.236
 2202SOL     OW 2149   1.934   2.028   2.180
 2202SOL    HW1 2150   1.917   2.111   2.126
 2202SOL    HW2 2151   2.024   1.991   2.158
 2203SOL     OW 2152   3.045   3.197   1.981
 2203SOL    HW1 2153   2.946   3.186   1.983
 2203SOL    HW2 2154   3.079   3.212   2.074
 2204SOL     OW 2155   2.475   2.704   3.293
 2204SOL    HW1 2156   2.531   2.785   3.276
 2204SOL    HW2 2157   2.534   2.624   3.296
 2205SOL     OW 2158   3.355   3.629   2.821
 2205SOL    HW1 2159   3.388   3.693   2.752
 2205SOL    HW2 2160   3.421   3.623   2.896
 2206SOL     OW 2161   2.578   2.427   3.570
 2206SOL    HW1 2162   2.597   2.492   3.644
 2206SOL    HW2 2163   2.638   2.347   3.579
 2207SOL     OW 2164   3.312   3.082   3.495
 2207SOL    HW1 2165   3.303   3.072   3.594
 2207SOL    HW2 2166   3.408   3.075   3.469
 2208SOL     OW 2167   2.252   3.603   3.422
 2208SOL    HW1 2168   2.161   3.644   3.420
 2208SOL    HW2 2169   2.245   3.509   3.454
 2209SOL     OW 2170   3.536   2.745   3.116
 2209SOL    HW1 2171   3.509   2.656   3.079
 2209SOL    HW2 2172   3.537   2.813   3.043
 2210SOL     OW 2173   3.087   2.187   2.311
 2210SOL    HW1 2174   3.152   2.113   2.300
 2210SOL    HW2 2175   3.107   2.237   2.395
 2211SOL     OW 2176   2.456   2.607   2.514
 2211SOL    HW1 2177   2.506   2.692   2.495
 2211SOL    HW2 2178   2.368   2.609   2.466
 2213SOL     OW 2179   3.592   2.796   3.379
 2213SOL    HW1 2180   3.630   2.887   3.394
 2213SOL    HW2 2181   3.584   2.779   3.280
 2214SOL     OW 2182   2.721   3.236   1.878
 2214SOL    HW1 2183   2.675   3.251   1.966
 2214SOL    HW2 2184   2.765   3.321   1.848
 2215SOL     OW 2185   2.523   3.652   2.815
 2215SOL    HW1 2186   2.477   3.740   2.802
 2215SOL    HW2 2187   2.622   3.664   2.808
 2216SOL     OW 2188   2.721   2.818   2.723
 2216SOL    HW1 2189   2.775   2.749   2.771
 2216SOL    HW2 2190   2.689   2.887   2.789
 2217SOL     OW 2191   2.945   2.846   1.949
 2217SOL    HW1 2192   2.922   2.899   1.867
 2217SOL    HW2 2193   3.026   2.790   1.930
 2219SOL     OW 2194   2.083   3.176   3.706
 2219SOL    HW1 2195   2.018   3.103   3.685
 2219SOL    HW2 2196   2.087   3.190   3.804
 2220SOL     OW 2197   1.941   3.102   2.515
 2220SOL    HW1 2198   1.940   3.055   2.603
 2220SOL    HW2 2199   2.023   3.074   2.464
 2221SOL     OW 2200   2.534   3.253   3.486
 2221SOL    HW1 2201   2.456   3.203   3.524
 2221SOL    HW2 2202   2.531   3.348   3.517
 2222SOL     OW 2203   3.686   2.054   3.089
 2222SOL    HW1 2204   3.682   1.964   3.133
 2222SOL    HW2 2205   3.689   2.043   2.990
 2223SOL     OW 2206   3.567   3.349   2.966
 2223SOL    HW1 2207   3.474   3.324   2.939
 2223SOL    HW2 2208   3.593   3.299   3.048
 2224SOL     OW 2209   2.179   2.409   3.142
 2224SOL    HW1 2210   2.217   2.350   3.214
 2224SOL    HW2 2211   2.219   2.383   3.054
 2225SOL     OW 2212   2.674   3.448   2.549
 2225SOL    HW1 2213   2.706   3.458   2.455
 2225SOL    HW2 2214   2.595   3.386   2.551
 2226SOL     OW 2215   3.286   2.076   2.974
 2226SOL    HW1 2216   3.338   2.011   3.029
 2226SOL    HW2 2217   3.237   2.139   3.035
 2227SOL     OW 2218   2.863   1.896   3.016
 2227SOL    HW1 2219   2.800   1.824   2.985
 2227SOL    HW2 2220   2.956   1.860   3.016
 2228SOL     OW 2221   2.632   3.192   2.163
 2228SOL    HW1 2222   2.586   3.105   2.180
 2228SOL    HW2 2223   2.723   3.189   2.204
 2229SOL     OW 2224   2.480   3.429   3.146
 2229SOL    HW1 2225   2.475   3.511   3.203
 2229SOL    HW2 2226   2.569   3.426   3.101
 2230SOL     OW 2227   3.214   1.914   2.030
 2230SOL    HW1 2228   3.249   1.873   1.946
 2230SOL    HW2 2229   3.124   1.876   2.050
 2231SOL     OW 2230   3.162   2.315   2.553
 2231SOL    HW1 2231   3.103   2.395   2.557
 2231SOL    HW2 2232   3.177   2.280   2.646
 2232SOL     OW 2233   3.455   2.083   2.744
 2232SOL    HW1 2234   3.371   2.082   2.798
 2232SOL    HW2 2235   3.457   2.166   2.688
 2233SOL     OW 2236   1.901   2.939   2.162
 2233SOL    HW1 2237   2.000   2.928   2.153
 2233SOL    HW2 2238   1.861   2.853   2.194
 2234SOL     OW 2239   2.737   3.508   2.199
 2234SOL    HW1 2240   2.660   3.473   2.145
 2234SOL    HW2 2241   2.705   3.579   2.261
 2235SOL     OW 2242   2.092   2.490   3.837
 2235SOL    HW1 2243   1.999   2.488   3.874
 2235SOL    HW2 2244   2.093   2.451   3.745
 2246SOL     OW 2245   2.468   2.826   3.847
 2246SOL    HW1 2246   2.475   2.910   3.793
 2246SOL    HW2 2247   2.514   2.839   3.935
 2256SOL     OW 2248   2.460   2.591   3.994
 2256SOL    HW1 2249   2.484   2.660   3.926
 2256SOL    HW2 2250   2.382   2.624   4.048
 2261SOL     OW 2251   2.727   2.210   3.919
 2261SOL    HW1 2252   2.786   2.273   3.870
 2261SOL    HW2 2253   2.746   2.116   3.890
 2266SOL     OW 2254   2.183   2.805   3.966
 2266SOL    HW1 2255   2.265   2.844   3.924
 2266SOL    HW2 2256   2.156   2.723   3.917
 2274SOL     OW 2257   2.476   1.984   3.841
 2274SOL    HW1 2258   2.574   1.962   3.848
 2274SOL    HW2 2259   2.445   1.967   3.748
 2277SOL     OW 2260   2.159   1.897   3.895
 2277SOL    HW1 2261   2.208   1.981   3.874
 2277SOL    HW2 2262   2.221   1.832   3.940
 2281SOL     OW 2263   2.894   2.411   3.740
 2281SOL    HW1 2264   2.853   2.493   3.701
 2281SOL    HW2 2265   2.958   2.437   3.813
 2287SOL     OW 2266   3.252   2.437   3.802
 2287SOL    HW1 2267   3.198   2.416   3.883
 2287SOL    HW2 2268   3.343   2.396   3.811
 2288SOL     OW 2269   2.389   2.118   4.052
 2288SOL    HW1 2270   2.416   2.059   3.977
 2288SOL    HW2 2271   2.389   2.213   4.021
 2298SOL     OW 2272   3.165   2.700   3.766
 2298SOL    HW1 2273   3.199   2.607   3.781
 2298SOL    HW2 2274   3.183   2.727   3.671
 2301SOL     OW 2275   2.335   2.362   3.915
 2301SOL    HW1 2276   2.396   2.442   3.919
 2301SOL    HW2 2277   2.240   2.393   3.922
 2315SOL     OW 2278   1.937   2.207   3.757
 2315SOL    HW1 2279   1.845   2.179   3.728
 2315SOL    HW2 2280   1.968   2.284   3.701
 2320SOL     OW 2281   2.721   3.236   3.740
 2320SOL    HW1 2282   2.675   3.251   3.828
 2320SOL    HW2 2283   2.765   3.321   3.710
 2323SOL     OW 2284   2.945   2.846   3.811
 2323SOL    HW1 2285   2.922   2.899   3.729
 2323SOL    HW2 2286   3.026   2.790   3.792
 2346SOL     OW 2287   2.179   3.975   1.801
 2346SOL    HW1 2288   2.250   4.046   1.807
 2346SOL    HW2 2289   2.091   4.014   1.829
 2384SOL     OW 2290   2.875   3.829   1.770
 2384SOL    HW1 2291   2.881   3.914   1.718
 2384SOL    HW2 2292   2.907   3.753   1.713
 2385SOL     OW 2293   2.366   3.774   1.740
 2385SOL    HW1 2294   2.324   3.717   1.670
 2385SOL    HW2 2295   2.300   3.843   1.772
 2442SOL     OW 2296   2.671   3.728   2.364
 2442SOL    HW1 2297   2.711   3.819   2.355
 2442SOL    HW2 2298   2.571   3.736   2.370
 2452SOL     OW 2299   2.412   3.920   2.747
 2452SOL    HW1 2300   2.407   3.915   2.847
 2452SOL    HW2 2301   2.414   4.016   2.718
 2458SOL     OW 2302   2.476   3.846   1.979
 2458SOL    HW1 2303   2.574   3.824   1.986
 2458SOL    HW2 2304   2.445   3.829   1.886
 2462SOL     OW 2305   2.401   3.788   2.374
 2462SOL    HW1 2306   2.320   3.789   2.432
 2462SOL    HW2 2307   2.404   3.871   2.319
 2463SOL     OW 2308   2.159   3.759   2.033
 2463SOL    HW1 2309   2.208   3.843   2.012
 2463SOL    HW2 2310   2.221   3.694   2.078
 2464SOL     OW 2311   2.797   3.960   2.342
 2464SOL    HW1 2312   2.749   4.001   2.264
 2464SOL    HW2 2313   2.896   3.958   2.323
 2470SOL     OW 2314   2.879   3.763   2.615
 2470SOL    HW1 2315   2.807   3.768   2.546
 2470SOL    HW2 2316   2.855   3.694   2.684
 2474SOL     OW 2317   2.389   3.980   2.190
 2474SOL    HW1 2318   2.416   3.921   2.115
 2474SOL    HW2 2319   2.389   4.075   2.159
 2489SOL     OW 2320   2.169   3.787   2.480
 2489SOL    HW1 2321   2.158   3.881   2.513
 2489SOL    HW2 2322   2.164   3.724   2.557
 2505SOL     OW 2323   2.125   4.050   2.582
 2505SOL    HW1 2324   2.046   4.101   2.548
 2505SOL    HW2 2325   2.116   4.035   2.680
 2513SOL     OW 2326   1.934   3.890   2.180
 2513SOL    HW1 2327   1.917   3.973   2.126
 2513SOL    HW2 2328   2.024   3.853   2.158
 2524SOL     OW 2329   2.863   3.758   3.016
 2524SOL    HW1 2330   2.800   3.686   2.985
 2524SOL    HW2 2331   2.956   3.722   3.016
 2525SOL     OW 2332   3.214   3.776   2.030
 2525SOL    HW1 2333   3.249   3.735   1.946
 2525SOL    HW2 2334   3.124   3.738   2.050
 2599SOL     OW 2335   3.854   1.821   1.571
 2599SOL    HW1 2336   3.844   1.806   1.670
 2599SOL    HW2 2337   3.768   1.857   1.535
 2647SOL     OW 2338   3.854   1.794   1.851
 2647SOL    HW1 2339   3.813   1.720   1.904
 2647SOL    HW2 2340   3.918   1.845   1.909
 2681SOL     OW 2341   3.955   1.713   2.345
 2681SOL    HW1 2342   3.989   1.790   2.399
 2681SOL    HW2 2343   3.999   1.713   2.255
 2687SOL     OW 2344   3.751   1.596   1.979
 2687SOL    HW1 2345   3.732   1.500   2.000
 2687SOL    HW2 2346   3.718   1.654   2.054
 2731SOL     OW 2347   3.732   1.326   2.062
 2731SOL    HW1 2348   3.639   1.347   2.031
 2731SOL    HW2 2349   3.742   1.227   2.075
 2732SOL     OW 2350   3.812   1.801   2.789
 2732SOL    HW1 2351   3.770   1.715   2.762
 2732SOL    HW2 2352   3.906   1.804   2.755
 2829SOL     OW 2353   3.837   2.599   1.597
 2829SOL    HW1 2354   3.925   2.586   1.642
 2829SOL    HW2 2355   3.824   2.696   1.575
 2850SOL     OW 2356   3.802   2.418   1.386
 2850SOL    HW1 2357   3.894   2.417   1.345
 2850SOL    HW2 2358   3.796   2.492   1.453
 2875SOL     OW 2359   3.913   2.382   1.722
 2875SOL    HW1 2360   3.972   2.342   1.652
 2875SOL    HW2 2361   3.855   2.453   1.681
 2891SOL     OW 2362   3.829   2.875   1.726
 2891SOL    HW1 2363   3.752   2.842   1.780
 2891SOL    HW2 2364   3.914   2.845   1.768
 2908SOL     OW 2365   3.954   2.490   1.975
 2908SOL    HW1 2366   3.861   2.488   2.012
 2908SOL    HW2 2367   3.955   2.451   1.883
 2909SOL     OW 2368   3.949   2.137   2.858
 2909SOL    HW1 2369   3.984   2.120   2.950
 2909SOL    HW2 2370   3.861   2.092   2.846
 2910SOL     OW 2371   3.743   2.230   2.509
 2910SOL    HW1 2372   3.661   2.273   2.548
 2910SOL    HW2 2373   3.715   2.157   2.446
 2922SOL     OW 2374   3.846   2.505   2.425
 2922SOL    HW1 2375   3.801   2.417   2.442
 2922SOL    HW2 2376   3.845   2.559   2.509
 2930SOL     OW 2377   3.800   2.673   2.651
 2930SOL    HW1 2378   3.899   2.661   2.660
 2930SOL    HW2 2379   3.776   2.768   2.672
 2944SOL     OW 2380   4.021   1.897   2.033
 2944SOL    HW1 2381   4.070   1.981   2.012
 2944SOL    HW2 2382   4.083   1.832   2.078
 2946SOL     OW 2383   3.802   2.418   3.248
 2946SOL    HW1 2384   3.894   2.417   3.207
 2946SOL    HW2 2385   3.796   2.492   3.315
 2962SOL     OW 2386   4.031   1.925   2.480
 2962SOL    HW1 2387   4.020   2.019   2.513
 2962SOL    HW2 2388   4.026   1.862   2.557
 2967SOL     OW 2389   3.732   3.188   2.062
 2967SOL    HW1 2390   3.639   3.209   2.031
 2967SOL    HW2 2391   3.742   3.089   2.075
 2970SOL     OW 2392   3.764   2.406   2.976
 2970SOL    HW1 2393   3.849   2.373   2.935
 2970SOL    HW2 2394   3.777   2.421   3.074
 2982SOL     OW 2395   3.987   2.188   2.582
 2982SOL    HW1 2396   3.908   2.239   2.548
 2982SOL    HW2 2397   3.978   2.173   2.680
 2989SOL     OW 2398   3.799   2.207   1.895
 2989SOL    HW1 2399   3.707   2.179   1.866
 2989SOL    HW2 2400   3.830   2.284   1.839
 2990SOL     OW 2401   3.796   2.028   2.180
 2990SOL    HW1 2402   3.779   2.111   2.126
 2990SOL    HW2 2403   3.886   1.991   2.158
 2997SOL     OW 2404   3.803   3.102   2.515
 2997SOL    HW1 2405   3.802   3.055   2.603
 2997SOL    HW2 2406   3.885   3.074   2.464
 3003SOL     OW 2407   3.763   2.939   2.162
 3003SOL    HW1 2408   3.862   2.928   2.153
 3003SOL    HW2 2409   3.723   2.853   2.194
   4.58955   4.58955   4.58955
