; mobley_186894_GMX.itp created by acpype (v: 2023.10.27) on Thu May 21 00:26:44 2026

[ atomtypes ]
;name   bond_type     mass     charge   ptype   sigma         epsilon       Amb
 hc       hc          0.00000  0.00000   A     2.60018e-01   8.70272e-02 ; 1.46  0.0208
 c3       c3          0.00000  0.00000   A     3.39771e-01   4.51035e-01 ; 1.91  0.1078
 h1       h1          0.00000  0.00000   A     2.42200e-01   8.70272e-02 ; 1.36  0.0208
 sh       sh          0.00000  0.00000   A     3.53241e-01   1.18156e+00 ; 1.98  0.2824
 hs       hs          0.00000  0.00000   A     1.08903e-01   5.18816e-02 ; 0.61  0.0124

[ moleculetype ]
;name            nrexcl
 mobley_186894    3

[ atoms ]
;   nr  type  resi  res  atom  cgnr     charge      mass       ; qtot   bond_type
     1   hc     1   MOL    H5    1     0.056700      1.00800 ; qtot 0.057
     2   c3     1   MOL    C1    2    -0.074400     12.01000 ; qtot -0.018
     3   hc     1   MOL    H6    3     0.056700      1.00800 ; qtot 0.039
     4   c3     1   MOL    C3    4    -0.092100     12.01000 ; qtot -0.053
     5   hc     1   MOL   H10    5     0.036367      1.00800 ; qtot -0.017
     6   hc     1   MOL   H11    6     0.036367      1.00800 ; qtot 0.020
     7   hc     1   MOL    H9    7     0.036367      1.00800 ; qtot 0.056
     8   c3     1   MOL    C2    8     0.011700     12.01000 ; qtot 0.068
     9   h1     1   MOL    H7    9     0.058700      1.00800 ; qtot 0.126
    10   h1     1   MOL    H8   10     0.058700      1.00800 ; qtot 0.185
    11   sh     1   MOL    S4   11    -0.384901     32.06000 ; qtot -0.200
    12   hs     1   MOL   H12   12     0.199800      1.00800 ; qtot 0.000

[ bonds ]
;   ai     aj funct   r             k
     1      2   1    1.0962e-01    2.8891e+05 ;     H5 - C1    
     2      3   1    1.0962e-01    2.8891e+05 ;     C1 - H6    
     2      4   1    1.5354e-01    1.9154e+05 ;     C1 - C3    
     2      8   1    1.5354e-01    1.9154e+05 ;     C1 - C2    
     4      5   1    1.0962e-01    2.8891e+05 ;     C3 - H10   
     4      6   1    1.0962e-01    2.8891e+05 ;     C3 - H11   
     4      7   1    1.0962e-01    2.8891e+05 ;     C3 - H9    
     8      9   1    1.0969e-01    2.8804e+05 ;     C2 - H7    
     8     10   1    1.0969e-01    2.8804e+05 ;     C2 - H8    
     8     11   1    1.8446e-01    1.5307e+05 ;     C2 - S4    
    11     12   1    1.3503e-01    2.3222e+05 ;     S4 - H12   

[ pairs ]
;   ai     aj    funct
     1      5      1 ;     H5 - H10   
     1      6      1 ;     H5 - H11   
     1      7      1 ;     H5 - H9    
     1      9      1 ;     H5 - H7    
     1     10      1 ;     H5 - H8    
     1     11      1 ;     H5 - S4    
     2     12      1 ;     C1 - H12   
     3      5      1 ;     H6 - H10   
     3      6      1 ;     H6 - H11   
     3      7      1 ;     H6 - H9    
     3      9      1 ;     H6 - H7    
     3     10      1 ;     H6 - H8    
     3     11      1 ;     H6 - S4    
     4      9      1 ;     C3 - H7    
     4     10      1 ;     C3 - H8    
     4     11      1 ;     C3 - S4    
     5      8      1 ;    H10 - C2    
     6      8      1 ;    H11 - C2    
     7      8      1 ;     H9 - C2    
     9     12      1 ;     H7 - H12   
    10     12      1 ;     H8 - H12   

[ angles ]
;   ai     aj     ak    funct   theta         cth
     1      2      3      1    1.0773e+02    2.9957e+02 ;     H5 - C1     - H6    
     1      2      4      1    1.0968e+02    3.6208e+02 ;     H5 - C1     - C3    
     1      2      8      1    1.0968e+02    3.6208e+02 ;     H5 - C1     - C2    
     2      4      5      1    1.0968e+02    3.6208e+02 ;     C1 - C3     - H10   
     2      4      6      1    1.0968e+02    3.6208e+02 ;     C1 - C3     - H11   
     2      4      7      1    1.0968e+02    3.6208e+02 ;     C1 - C3     - H9    
     2      8      9      1    1.0959e+02    3.6217e+02 ;     C1 - C2     - H7    
     2      8     10      1    1.0959e+02    3.6217e+02 ;     C1 - C2     - H8    
     2      8     11      1    1.1330e+02    5.1840e+02 ;     C1 - C2     - S4    
     3      2      4      1    1.0968e+02    3.6208e+02 ;     H6 - C1     - C3    
     3      2      8      1    1.0968e+02    3.6208e+02 ;     H6 - C1     - C2    
     4      2      8      1    1.1263e+02    5.0099e+02 ;     C3 - C1     - C2    
     5      4      6      1    1.0773e+02    2.9957e+02 ;    H10 - C3     - H11   
     5      4      7      1    1.0773e+02    2.9957e+02 ;    H10 - C3     - H9    
     6      4      7      1    1.0773e+02    2.9957e+02 ;    H11 - C3     - H9    
     8     11     12      1    9.6410e+01    5.5957e+02 ;     C2 - S4     - H12   
     9      8     10      1    1.0855e+02    2.9824e+02 ;     H7 - C2     - H8    
     9      8     11      1    1.0837e+02    3.5171e+02 ;     H7 - C2     - S4    
    10      8     11      1    1.0837e+02    3.5171e+02 ;     H8 - C2     - S4    

[ dihedrals ] ; propers
; for gromacs 4.5 or higher, using funct 9
;    i      j      k      l   func   phase     kd      pn
     1      2      4      5      9     0.00   0.50208   3 ;     H5-    C1-    C3-   H10
     1      2      4      6      9     0.00   0.50208   3 ;     H5-    C1-    C3-   H11
     1      2      4      7      9     0.00   0.50208   3 ;     H5-    C1-    C3-    H9
     1      2      8      9      9     0.00   0.65084   3 ;     H5-    C1-    C2-    H7
     1      2      8     10      9     0.00   0.65084   3 ;     H5-    C1-    C2-    H8
     1      2      8     11      9     0.00   0.65084   3 ;     H5-    C1-    C2-    S4
     2      8     11     12      9     0.00   1.04600   3 ;     C1-    C2-    S4-   H12
     3      2      4      5      9     0.00   0.50208   3 ;     H6-    C1-    C3-   H10
     3      2      4      6      9     0.00   0.50208   3 ;     H6-    C1-    C3-   H11
     3      2      4      7      9     0.00   0.50208   3 ;     H6-    C1-    C3-    H9
     3      2      8      9      9     0.00   0.65084   3 ;     H6-    C1-    C2-    H7
     3      2      8     10      9     0.00   0.65084   3 ;     H6-    C1-    C2-    H8
     3      2      8     11      9     0.00   0.65084   3 ;     H6-    C1-    C2-    S4
     4      2      8      9      9     0.00   0.65084   3 ;     C3-    C1-    C2-    H7
     4      2      8     10      9     0.00   0.65084   3 ;     C3-    C1-    C2-    H8
     4      2      8     11      9     0.00   0.65084   3 ;     C3-    C1-    C2-    S4
     5      4      2      8      9     0.00   0.54392   3 ;    H10-    C3-    C1-    C2
     6      4      2      8      9     0.00   0.54392   3 ;    H11-    C3-    C1-    C2
     7      4      2      8      9     0.00   0.54392   3 ;     H9-    C3-    C1-    C2
     9      8     11     12      9     0.00   0.59831   3 ;     H7-    C2-    S4-   H12
    10      8     11     12      9     0.00   0.59831   3 ;     H8-    C2-    S4-   H12
