; mobley_5006685_GMX.itp created by acpype (v: 2023.10.27) on Wed May 20 23:50:22 2026

[ atomtypes ]
;name   bond_type     mass     charge   ptype   sigma         epsilon       Amb
 c2       c2          0.00000  0.00000   A     3.31521e-01   4.13379e-01 ; 1.86  0.0988
 ce       ce          0.00000  0.00000   A     3.31521e-01   4.13379e-01 ; 1.86  0.0988
 c        c           0.00000  0.00000   A     3.31521e-01   4.13379e-01 ; 1.86  0.0988
 c6       c6          0.00000  0.00000   A     3.39771e-01   4.51035e-01 ; 1.91  0.1078
 c3       c3          0.00000  0.00000   A     3.39771e-01   4.51035e-01 ; 1.91  0.1078
 o        o           0.00000  0.00000   A     3.04812e-01   6.12119e-01 ; 1.71  0.1463
 ha       ha          0.00000  0.00000   A     2.62548e-01   6.73624e-02 ; 1.47  0.0161
 h4       h4          0.00000  0.00000   A     2.53639e-01   6.73624e-02 ; 1.42  0.0161
 hc       hc          0.00000  0.00000   A     2.60018e-01   8.70272e-02 ; 1.46  0.0208

[ moleculetype ]
;name            nrexcl
 mobley_5006685   3

[ atoms ]
;   nr  type  resi  res  atom  cgnr     charge      mass       ; qtot   bond_type
     1   c2     1   MOL    C1    1    -0.100200     12.01000 ; qtot -0.100
     2   ce     1   MOL    C2    2    -0.219400     12.01000 ; qtot -0.320
     3   c2     1   MOL    C3    3    -0.222000     12.01000 ; qtot -0.542
     4    c     1   MOL    C4    4     0.566099     12.01000 ; qtot 0.024
     5   c2     1   MOL    C5    5    -0.112400     12.01000 ; qtot -0.088
     6   c6     1   MOL    C6    6    -0.053200     12.01000 ; qtot -0.141
     7   c6     1   MOL    C7    7    -0.037200     12.01000 ; qtot -0.178
     8   c6     1   MOL    C8    8    -0.071400     12.01000 ; qtot -0.250
     9   c6     1   MOL    C9    9    -0.028500     12.01000 ; qtot -0.278
    10   c3     1   MOL   C10   10    -0.061900     12.01000 ; qtot -0.340
    11    o     1   MOL    O1   11    -0.527100     16.00000 ; qtot -0.867
    12   ha     1   MOL    H1   12     0.124000      1.00800 ; qtot -0.743
    13   ha     1   MOL    H2   13     0.113500      1.00800 ; qtot -0.630
    14   ha     1   MOL    H3   14     0.113500      1.00800 ; qtot -0.516
    15   h4     1   MOL    H4   15    -0.008800      1.00800 ; qtot -0.525
    16   hc     1   MOL    H5   16     0.060700      1.00800 ; qtot -0.464
    17   hc     1   MOL    H6   17     0.060700      1.00800 ; qtot -0.404
    18   hc     1   MOL    H7   18     0.062700      1.00800 ; qtot -0.341
    19   hc     1   MOL    H8   19     0.062700      1.00800 ; qtot -0.278
    20   hc     1   MOL    H9   20     0.047700      1.00800 ; qtot -0.231
    21   hc     1   MOL   H10   21     0.047700      1.00800 ; qtot -0.183
    22   hc     1   MOL   H11   22     0.055700      1.00800 ; qtot -0.127
    23   hc     1   MOL   H12   23     0.042367      1.00800 ; qtot -0.085
    24   hc     1   MOL   H13   24     0.042367      1.00800 ; qtot -0.042
    25   hc     1   MOL   H14   25     0.042367      1.00800 ; qtot -0.000

[ bonds ]
;   ai     aj funct   r             k
     1      2   1    1.3457e-01    3.5505e+05 ;     C1 - C2    
     1      6   1    1.5133e-01    2.0498e+05 ;     C1 - C6    
     1     12   1    1.0882e-01    2.9898e+05 ;     C1 - H1    
     2      4   1    1.4848e-01    2.2406e+05 ;     C2 - C4    
     2      7   1    1.5211e-01    2.0011e+05 ;     C2 - C7    
     3      5   1    1.3379e-01    3.6484e+05 ;     C3 - C5    
     3     13   1    1.0882e-01    2.9898e+05 ;     C3 - H2    
     3     14   1    1.0882e-01    2.9898e+05 ;     C3 - H3    
     4     11   1    1.2190e-01    4.9421e+05 ;     C4 - O1    
     4     15   1    1.1123e-01    2.6984e+05 ;     C4 - H4    
     5      9   1    1.5133e-01    2.0498e+05 ;     C5 - C9    
     5     10   1    1.5088e-01    2.0786e+05 ;     C5 - C10   
     6      9   1    1.5384e-01    1.8979e+05 ;     C6 - C9    
     6     16   1    1.0979e-01    2.8681e+05 ;     C6 - H5    
     6     17   1    1.0979e-01    2.8681e+05 ;     C6 - H6    
     7      8   1    1.5384e-01    1.8979e+05 ;     C7 - C8    
     7     18   1    1.0979e-01    2.8681e+05 ;     C7 - H7    
     7     19   1    1.0979e-01    2.8681e+05 ;     C7 - H8    
     8      9   1    1.5384e-01    1.8979e+05 ;     C8 - C9    
     8     20   1    1.0979e-01    2.8681e+05 ;     C8 - H9    
     8     21   1    1.0979e-01    2.8681e+05 ;     C8 - H10   
     9     22   1    1.0979e-01    2.8681e+05 ;     C9 - H11   
    10     23   1    1.0962e-01    2.8891e+05 ;    C10 - H12   
    10     24   1    1.0962e-01    2.8891e+05 ;    C10 - H13   
    10     25   1    1.0962e-01    2.8891e+05 ;    C10 - H14   

[ pairs ]
;   ai     aj    funct
     1      5      1 ;     C1 - C5    
     1      8      1 ;     C1 - C8    
     1     11      1 ;     C1 - O1    
     1     15      1 ;     C1 - H4    
     1     18      1 ;     C1 - H7    
     1     19      1 ;     C1 - H8    
     1     22      1 ;     C1 - H11   
     2      9      1 ;     C2 - C9    
     2     16      1 ;     C2 - H5    
     2     17      1 ;     C2 - H6    
     2     20      1 ;     C2 - H9    
     2     21      1 ;     C2 - H10   
     3      6      1 ;     C3 - C6    
     3      8      1 ;     C3 - C8    
     3     22      1 ;     C3 - H11   
     3     23      1 ;     C3 - H12   
     3     24      1 ;     C3 - H13   
     3     25      1 ;     C3 - H14   
     4      8      1 ;     C4 - C8    
     4     18      1 ;     C4 - H7    
     4     19      1 ;     C4 - H8    
     5      7      1 ;     C5 - C7    
     5     16      1 ;     C5 - H5    
     5     17      1 ;     C5 - H6    
     5     20      1 ;     C5 - H9    
     5     21      1 ;     C5 - H10   
     6      4      1 ;     C6 - C4    
     6      7      1 ;     C6 - C7    
     6     10      1 ;     C6 - C10   
     6     20      1 ;     C6 - H9    
     6     21      1 ;     C6 - H10   
     7     11      1 ;     C7 - O1    
     7     15      1 ;     C7 - H4    
     7     22      1 ;     C7 - H11   
     8     10      1 ;     C8 - C10   
     8     16      1 ;     C8 - H5    
     8     17      1 ;     C8 - H6    
     9     13      1 ;     C9 - H2    
     9     14      1 ;     C9 - H3    
     9     18      1 ;     C9 - H7    
     9     19      1 ;     C9 - H8    
     9     23      1 ;     C9 - H12   
     9     24      1 ;     C9 - H13   
     9     25      1 ;     C9 - H14   
    10     13      1 ;    C10 - H2    
    10     14      1 ;    C10 - H3    
    10     22      1 ;    C10 - H11   
    12      4      1 ;     H1 - C4    
    12      7      1 ;     H1 - C7    
    12      9      1 ;     H1 - C9    
    12     16      1 ;     H1 - H5    
    12     17      1 ;     H1 - H6    
    16     22      1 ;     H5 - H11   
    17     22      1 ;     H6 - H11   
    18     20      1 ;     H7 - H9    
    18     21      1 ;     H7 - H10   
    19     20      1 ;     H8 - H9    
    19     21      1 ;     H8 - H10   
    20     22      1 ;     H9 - H11   
    21     22      1 ;    H10 - H11   

[ angles ]
;   ai     aj     ak    funct   theta         cth
     1      2      4      1    1.2200e+02    5.1974e+02 ;     C1 - C2     - C4    
     1      2      7      1    1.2180e+02    5.1221e+02 ;     C1 - C2     - C7    
     1      6      9      1    1.1141e+02    5.0685e+02 ;     C1 - C6     - C9    
     1      6     16      1    1.0931e+02    3.6736e+02 ;     C1 - C6     - H5    
     1      6     17      1    1.0931e+02    3.6736e+02 ;     C1 - C6     - H6    
     2      1      6      1    1.2265e+02    5.1212e+02 ;     C2 - C1     - C6    
     2      1     12      1    1.2049e+02    3.8618e+02 ;     C2 - C1     - H1    
     2      4     11      1    1.2324e+02    6.5262e+02 ;     C2 - C4     - O1    
     2      4     15      1    1.1489e+02    3.6376e+02 ;     C2 - C4     - H4    
     2      7      8      1    1.1114e+02    5.0618e+02 ;     C2 - C7     - C8    
     2      7     18      1    1.0938e+02    3.6560e+02 ;     C2 - C7     - H7    
     2      7     19      1    1.0938e+02    3.6560e+02 ;     C2 - C7     - H8    
     3      5      9      1    1.2302e+02    5.1246e+02 ;     C3 - C5     - C9    
     3      5     10      1    1.2495e+02    5.0944e+02 ;     C3 - C5     - C10   
     4      2      7      1    1.1736e+02    5.0124e+02 ;     C4 - C2     - C7    
     5      3     13      1    1.2039e+02    3.8802e+02 ;     C5 - C3     - H2    
     5      3     14      1    1.2039e+02    3.8802e+02 ;     C5 - C3     - H3    
     5      9      6      1    1.1141e+02    5.0685e+02 ;     C5 - C9     - C6    
     5      9      8      1    1.1141e+02    5.0685e+02 ;     C5 - C9     - C8    
     5      9     22      1    1.0931e+02    3.6736e+02 ;     C5 - C9     - H11   
     5     10     23      1    1.1065e+02    3.6618e+02 ;     C5 - C10    - H12   
     5     10     24      1    1.1065e+02    3.6618e+02 ;     C5 - C10    - H13   
     5     10     25      1    1.1065e+02    3.6618e+02 ;     C5 - C10    - H14   
     6      1     12      1    1.1657e+02    3.5606e+02 ;     C6 - C1     - H1    
     6      9      8      1    1.1106e+02    5.0359e+02 ;     C6 - C9     - C8    
     6      9     22      1    1.0945e+02    3.6175e+02 ;     C6 - C9     - H11   
     7      8      9      1    1.1106e+02    5.0359e+02 ;     C7 - C8     - C9    
     7      8     20      1    1.0945e+02    3.6175e+02 ;     C7 - C8     - H9    
     7      8     21      1    1.0945e+02    3.6175e+02 ;     C7 - C8     - H10   
     8      7     18      1    1.0945e+02    3.6175e+02 ;     C8 - C7     - H7    
     8      7     19      1    1.0945e+02    3.6175e+02 ;     C8 - C7     - H8    
     8      9     22      1    1.0945e+02    3.6175e+02 ;     C8 - C9     - H11   
     9      5     10      1    1.1671e+02    5.0016e+02 ;     C9 - C5     - C10   
     9      6     16      1    1.0945e+02    3.6175e+02 ;     C9 - C6     - H5    
     9      6     17      1    1.0945e+02    3.6175e+02 ;     C9 - C6     - H6    
     9      8     20      1    1.0945e+02    3.6175e+02 ;     C9 - C8     - H9    
     9      8     21      1    1.0945e+02    3.6175e+02 ;     C9 - C8     - H10   
    11      4     15      1    1.2062e+02    5.0191e+02 ;     O1 - C4     - H4    
    13      3     14      1    1.1666e+02    2.9003e+02 ;     H2 - C3     - H3    
    16      6     17      1    1.0662e+02    3.0066e+02 ;     H5 - C6     - H6    
    18      7     19      1    1.0662e+02    3.0066e+02 ;     H7 - C7     - H8    
    20      8     21      1    1.0662e+02    3.0066e+02 ;     H9 - C8     - H10   
    23     10     24      1    1.0773e+02    2.9957e+02 ;    H12 - C10    - H13   
    23     10     25      1    1.0773e+02    2.9957e+02 ;    H12 - C10    - H14   
    24     10     25      1    1.0773e+02    2.9957e+02 ;    H13 - C10    - H14   

[ dihedrals ] ; propers
; for gromacs 4.5 or higher, using funct 9
;    i      j      k      l   func   phase     kd      pn
     1      2      4     11      9   180.00   9.10020   2 ;     C1-    C2-    C4-    O1
     1      2      4     15      9   180.00   9.10020   2 ;     C1-    C2-    C4-    H4
     1      2      7      8      9     0.00   1.55645   3 ;     C1-    C2-    C7-    C8
     1      2      7     18      9   180.00   1.08784   3 ;     C1-    C2-    C7-    H7
     1      2      7     19      9   180.00   1.08784   3 ;     C1-    C2-    C7-    H8
     1      6      9      5      9     0.00   0.65084   3 ;     C1-    C6-    C9-    C5
     1      6      9      8      9     0.00   0.65084   3 ;     C1-    C6-    C9-    C8
     1      6      9     22      9     0.00   0.65084   3 ;     C1-    C6-    C9-   H11
     2      1      6      9      9     0.00   0.00000   0 ;     C2-    C1-    C6-    C9
     2      1      6     16      9     0.00   0.00000   0 ;     C2-    C1-    C6-    H5
     2      1      6     17      9     0.00   0.00000   0 ;     C2-    C1-    C6-    H6
     2      7      8      9      9     0.00   0.65084   3 ;     C2-    C7-    C8-    C9
     2      7      8     20      9     0.00   0.65084   3 ;     C2-    C7-    C8-    H9
     2      7      8     21      9     0.00   0.65084   3 ;     C2-    C7-    C8-   H10
     3      5      9      6      9     0.00   0.00000   0 ;     C3-    C5-    C9-    C6
     3      5      9      8      9     0.00   0.00000   0 ;     C3-    C5-    C9-    C8
     3      5      9     22      9   180.00   1.08784   3 ;     C3-    C5-    C9-   H11
     3      5     10     23      9   180.00   1.08784   3 ;     C3-    C5-   C10-   H12
     3      5     10     24      9   180.00   1.08784   3 ;     C3-    C5-   C10-   H13
     3      5     10     25      9   180.00   1.08784   3 ;     C3-    C5-   C10-   H14
     4      2      7      8      9     0.00   0.00000   0 ;     C4-    C2-    C7-    C8
     4      2      7     18      9   180.00   1.08784   3 ;     C4-    C2-    C7-    H7
     4      2      7     19      9   180.00   1.08784   3 ;     C4-    C2-    C7-    H8
     5      9      6     16      9     0.00   0.65084   3 ;     C5-    C9-    C6-    H5
     5      9      6     17      9     0.00   0.65084   3 ;     C5-    C9-    C6-    H6
     5      9      8      7      9     0.00   0.65084   3 ;     C5-    C9-    C8-    C7
     5      9      8     20      9     0.00   0.65084   3 ;     C5-    C9-    C8-    H9
     5      9      8     21      9     0.00   0.65084   3 ;     C5-    C9-    C8-   H10
     6      1      2      4      9   180.00  27.82360   2 ;     C6-    C1-    C2-    C4
     6      1      2      7      9   180.00  27.82360   2 ;     C6-    C1-    C2-    C7
     6      9      5     10      9     0.00   0.00000   0 ;     C6-    C9-    C5-   C10
     6      9      8      7      9     0.00   2.17568   3 ;     C6-    C9-    C8-    C7
     6      9      8     20      9     0.00   0.54392   3 ;     C6-    C9-    C8-    H9
     6      9      8     21      9     0.00   0.54392   3 ;     C6-    C9-    C8-   H10
     7      2      4     11      9   180.00   9.10020   2 ;     C7-    C2-    C4-    O1
     7      2      4     15      9   180.00   9.10020   2 ;     C7-    C2-    C4-    H4
     7      8      9     22      9     0.00   0.54392   3 ;     C7-    C8-    C9-   H11
     8      9      5     10      9     0.00   0.00000   0 ;     C8-    C9-    C5-   C10
     8      9      6     16      9     0.00   0.54392   3 ;     C8-    C9-    C6-    H5
     8      9      6     17      9     0.00   0.54392   3 ;     C8-    C9-    C6-    H6
     9      5      3     13      9   180.00  27.82360   2 ;     C9-    C5-    C3-    H2
     9      5      3     14      9   180.00  27.82360   2 ;     C9-    C5-    C3-    H3
     9      5     10     23      9     0.00   0.62760   3 ;     C9-    C5-   C10-   H12
     9      5     10     24      9     0.00   0.62760   3 ;     C9-    C5-   C10-   H13
     9      5     10     25      9     0.00   0.62760   3 ;     C9-    C5-   C10-   H14
     9      8      7     18      9     0.00   0.54392   3 ;     C9-    C8-    C7-    H7
     9      8      7     19      9     0.00   0.54392   3 ;     C9-    C8-    C7-    H8
    10      5      3     13      9   180.00  27.82360   2 ;    C10-    C5-    C3-    H2
    10      5      3     14      9   180.00  27.82360   2 ;    C10-    C5-    C3-    H3
    10      5      9     22      9     0.00   0.62760   3 ;    C10-    C5-    C9-   H11
    12      1      2      4      9   180.00  27.82360   2 ;     H1-    C1-    C2-    C4
    12      1      2      7      9   180.00  27.82360   2 ;     H1-    C1-    C2-    C7
    12      1      6      9      9     0.00   0.00000   0 ;     H1-    C1-    C6-    C9
    12      1      6     16      9     0.00   0.00000   0 ;     H1-    C1-    C6-    H5
    12      1      6     17      9     0.00   0.00000   0 ;     H1-    C1-    C6-    H6
    16      6      9     22      9     0.00   0.50208   3 ;     H5-    C6-    C9-   H11
    17      6      9     22      9     0.00   0.50208   3 ;     H6-    C6-    C9-   H11
    18      7      8     20      9     0.00   0.50208   3 ;     H7-    C7-    C8-    H9
    18      7      8     21      9     0.00   0.50208   3 ;     H7-    C7-    C8-   H10
    19      7      8     20      9     0.00   0.50208   3 ;     H8-    C7-    C8-    H9
    19      7      8     21      9     0.00   0.50208   3 ;     H8-    C7-    C8-   H10
    20      8      9     22      9     0.00   0.50208   3 ;     H9-    C8-    C9-   H11
    21      8      9     22      9     0.00   0.50208   3 ;    H10-    C8-    C9-   H11

[ dihedrals ] ; impropers
; treated as propers in GROMACS to use correct AMBER analytical function
;    i      j      k      l   func   phase     kd      pn
     2     15      4     11      4   180.00  43.93200   2 ;     C2-    H4-    C4-    O1
     3     10      5      9      4   180.00   4.60240   2 ;     C3-   C10-    C5-    C9
     4      1      2      7      4   180.00   4.60240   2 ;     C4-    C1-    C2-    C7
     5     13      3     14      4   180.00   4.60240   2 ;     C5-    H2-    C3-    H3
    12      1      2      6      4   180.00   4.60240   2 ;     H1-    C1-    C2-    C6
