; mobley_5326154_GMX.itp created by acpype (v: 2023.10.27) on Thu May 21 00:27:21 2026

[ atomtypes ]
;name   bond_type     mass     charge   ptype   sigma         epsilon       Amb
 ca       ca          0.00000  0.00000   A     3.31521e-01   4.13379e-01 ; 1.86  0.0988
 c3       c3          0.00000  0.00000   A     3.39771e-01   4.51035e-01 ; 1.91  0.1078
 nh       nh          0.00000  0.00000   A     3.18995e-01   8.99560e-01 ; 1.79  0.2150
 ha       ha          0.00000  0.00000   A     2.62548e-01   6.73624e-02 ; 1.47  0.0161
 h1       h1          0.00000  0.00000   A     2.42200e-01   8.70272e-02 ; 1.36  0.0208

[ moleculetype ]
;name            nrexcl
 mobley_5326154   3

[ atoms ]
;   nr  type  resi  res  atom  cgnr     charge      mass       ; qtot   bond_type
     1   ca     1   MOL    C1    1    -0.172000     12.01000 ; qtot -0.172
     2   ca     1   MOL    C2    2    -0.098000     12.01000 ; qtot -0.270
     3   ca     1   MOL    C3    3    -0.098000     12.01000 ; qtot -0.368
     4   ca     1   MOL    C4    4    -0.187000     12.01000 ; qtot -0.555
     5   ca     1   MOL    C5    5    -0.187000     12.01000 ; qtot -0.742
     6   ca     1   MOL    C6    6     0.156600     12.01000 ; qtot -0.585
     7   c3     1   MOL    C7    7     0.183100     12.01000 ; qtot -0.402
     8   c3     1   MOL    C8    8     0.183100     12.01000 ; qtot -0.219
     9   nh     1   MOL    N1    9    -0.650002     14.01000 ; qtot -0.869
    10   ha     1   MOL    H1   10     0.130000      1.00800 ; qtot -0.739
    11   ha     1   MOL    H2   11     0.128000      1.00800 ; qtot -0.611
    12   ha     1   MOL    H3   12     0.128000      1.00800 ; qtot -0.483
    13   ha     1   MOL    H4   13     0.131000      1.00800 ; qtot -0.352
    14   ha     1   MOL    H5   14     0.131000      1.00800 ; qtot -0.221
    15   h1     1   MOL    H6   15     0.036867      1.00800 ; qtot -0.184
    16   h1     1   MOL    H7   16     0.036867      1.00800 ; qtot -0.147
    17   h1     1   MOL    H8   17     0.036867      1.00800 ; qtot -0.111
    18   h1     1   MOL    H9   18     0.036867      1.00800 ; qtot -0.074
    19   h1     1   MOL   H10   19     0.036867      1.00800 ; qtot -0.037
    20   h1     1   MOL   H11   20     0.036867      1.00800 ; qtot 0.000

[ bonds ]
;   ai     aj funct   r             k
     1      2   1    1.3986e-01    2.9644e+05 ;     C1 - C2    
     1      3   1    1.3986e-01    2.9644e+05 ;     C1 - C3    
     1     10   1    1.0860e-01    3.0183e+05 ;     C1 - H1    
     2      4   1    1.3986e-01    2.9644e+05 ;     C2 - C4    
     2     11   1    1.0860e-01    3.0183e+05 ;     C2 - H2    
     3      5   1    1.3986e-01    2.9644e+05 ;     C3 - C5    
     3     12   1    1.0860e-01    3.0183e+05 ;     C3 - H3    
     4      6   1    1.3986e-01    2.9644e+05 ;     C4 - C6    
     4     13   1    1.0860e-01    3.0183e+05 ;     C4 - H4    
     5      6   1    1.3986e-01    2.9644e+05 ;     C5 - C6    
     5     14   1    1.0860e-01    3.0183e+05 ;     C5 - H5    
     6      9   1    1.4030e-01    2.6011e+05 ;     C6 - N1    
     7      9   1    1.4613e-01    2.1499e+05 ;     C7 - N1    
     7     15   1    1.0969e-01    2.8804e+05 ;     C7 - H6    
     7     16   1    1.0969e-01    2.8804e+05 ;     C7 - H7    
     7     17   1    1.0969e-01    2.8804e+05 ;     C7 - H8    
     8      9   1    1.4613e-01    2.1499e+05 ;     C8 - N1    
     8     18   1    1.0969e-01    2.8804e+05 ;     C8 - H9    
     8     19   1    1.0969e-01    2.8804e+05 ;     C8 - H10   
     8     20   1    1.0969e-01    2.8804e+05 ;     C8 - H11   

[ pairs ]
;   ai     aj    funct
     1      6      1 ;     C1 - C6    
     1     13      1 ;     C1 - H4    
     1     14      1 ;     C1 - H5    
     2      5      1 ;     C2 - C5    
     2      9      1 ;     C2 - N1    
     2     12      1 ;     C2 - H3    
     3      4      1 ;     C3 - C4    
     3      9      1 ;     C3 - N1    
     3     11      1 ;     C3 - H2    
     4      7      1 ;     C4 - C7    
     4      8      1 ;     C4 - C8    
     4     14      1 ;     C4 - H5    
     5      7      1 ;     C5 - C7    
     5      8      1 ;     C5 - C8    
     5     13      1 ;     C5 - H4    
     6     11      1 ;     C6 - H2    
     6     12      1 ;     C6 - H3    
     6     15      1 ;     C6 - H6    
     6     16      1 ;     C6 - H7    
     6     17      1 ;     C6 - H8    
     6     18      1 ;     C6 - H9    
     6     19      1 ;     C6 - H10   
     6     20      1 ;     C6 - H11   
     7     18      1 ;     C7 - H9    
     7     19      1 ;     C7 - H10   
     7     20      1 ;     C7 - H11   
     8     15      1 ;     C8 - H6    
     8     16      1 ;     C8 - H7    
     8     17      1 ;     C8 - H8    
     9     13      1 ;     N1 - H4    
     9     14      1 ;     N1 - H5    
    10      4      1 ;     H1 - C4    
    10      5      1 ;     H1 - C5    
    10     11      1 ;     H1 - H2    
    10     12      1 ;     H1 - H3    
    11     13      1 ;     H2 - H4    
    12     14      1 ;     H3 - H5    

[ angles ]
;   ai     aj     ak    funct   theta         cth
     1      2      4      1    1.2002e+02    5.3279e+02 ;     C1 - C2     - C4    
     1      2     11      1    1.1988e+02    3.7572e+02 ;     C1 - C2     - H2    
     1      3      5      1    1.2002e+02    5.3279e+02 ;     C1 - C3     - C5    
     1      3     12      1    1.1988e+02    3.7572e+02 ;     C1 - C3     - H3    
     2      1      3      1    1.2002e+02    5.3279e+02 ;     C2 - C1     - C3    
     2      1     10      1    1.1988e+02    3.7572e+02 ;     C2 - C1     - H1    
     2      4      6      1    1.2002e+02    5.3279e+02 ;     C2 - C4     - C6    
     2      4     13      1    1.1988e+02    3.7572e+02 ;     C2 - C4     - H4    
     3      1     10      1    1.1988e+02    3.7572e+02 ;     C3 - C1     - H1    
     3      5      6      1    1.2002e+02    5.3279e+02 ;     C3 - C5     - C6    
     3      5     14      1    1.1988e+02    3.7572e+02 ;     C3 - C5     - H5    
     4      2     11      1    1.1988e+02    3.7572e+02 ;     C4 - C2     - H2    
     4      6      5      1    1.2002e+02    5.3279e+02 ;     C4 - C6     - C5    
     4      6      9      1    1.2113e+02    5.6216e+02 ;     C4 - C6     - N1    
     5      3     12      1    1.1988e+02    3.7572e+02 ;     C5 - C3     - H3    
     5      6      9      1    1.2113e+02    5.6216e+02 ;     C5 - C6     - N1    
     6      4     13      1    1.1988e+02    3.7572e+02 ;     C6 - C4     - H4    
     6      5     14      1    1.1988e+02    3.7572e+02 ;     C6 - C5     - H5    
     6      9      7      1    1.1953e+02    6.4383e+02 ;     C6 - N1     - C7    
     6      9      8      1    1.1953e+02    6.4383e+02 ;     C6 - N1     - C8    
     7      9      8      1    1.1656e+02    6.3957e+02 ;     C7 - N1     - C8    
     9      7     15      1    1.0968e+02    4.0141e+02 ;     N1 - C7     - H6    
     9      7     16      1    1.0968e+02    4.0141e+02 ;     N1 - C7     - H7    
     9      7     17      1    1.0968e+02    4.0141e+02 ;     N1 - C7     - H8    
     9      8     18      1    1.0968e+02    4.0141e+02 ;     N1 - C8     - H9    
     9      8     19      1    1.0968e+02    4.0141e+02 ;     N1 - C8     - H10   
     9      8     20      1    1.0968e+02    4.0141e+02 ;     N1 - C8     - H11   
    15      7     16      1    1.0855e+02    2.9824e+02 ;     H6 - C7     - H7    
    15      7     17      1    1.0855e+02    2.9824e+02 ;     H6 - C7     - H8    
    16      7     17      1    1.0855e+02    2.9824e+02 ;     H7 - C7     - H8    
    18      8     19      1    1.0855e+02    2.9824e+02 ;     H9 - C8     - H10   
    18      8     20      1    1.0855e+02    2.9824e+02 ;     H9 - C8     - H11   
    19      8     20      1    1.0855e+02    2.9824e+02 ;    H10 - C8     - H11   

[ dihedrals ] ; propers
; for gromacs 4.5 or higher, using funct 9
;    i      j      k      l   func   phase     kd      pn
     1      2      4      6      9   180.00  15.16700   2 ;     C1-    C2-    C4-    C6
     1      2      4     13      9   180.00  15.16700   2 ;     C1-    C2-    C4-    H4
     1      3      5      6      9   180.00  15.16700   2 ;     C1-    C3-    C5-    C6
     1      3      5     14      9   180.00  15.16700   2 ;     C1-    C3-    C5-    H5
     2      1      3      5      9   180.00  15.16700   2 ;     C2-    C1-    C3-    C5
     2      1      3     12      9   180.00  15.16700   2 ;     C2-    C1-    C3-    H3
     2      4      6      5      9   180.00  15.16700   2 ;     C2-    C4-    C6-    C5
     2      4      6      9      9   180.00  15.16700   2 ;     C2-    C4-    C6-    N1
     3      1      2      4      9   180.00  15.16700   2 ;     C3-    C1-    C2-    C4
     3      1      2     11      9   180.00  15.16700   2 ;     C3-    C1-    C2-    H2
     3      5      6      4      9   180.00  15.16700   2 ;     C3-    C5-    C6-    C4
     3      5      6      9      9   180.00  15.16700   2 ;     C3-    C5-    C6-    N1
     4      6      5     14      9   180.00  15.16700   2 ;     C4-    C6-    C5-    H5
     4      6      9      7      9   180.00   3.15055   2 ;     C4-    C6-    N1-    C7
     4      6      9      8      9   180.00   3.15055   2 ;     C4-    C6-    N1-    C8
     5      6      4     13      9   180.00  15.16700   2 ;     C5-    C6-    C4-    H4
     5      6      9      7      9   180.00   3.15055   2 ;     C5-    C6-    N1-    C7
     5      6      9      8      9   180.00   3.15055   2 ;     C5-    C6-    N1-    C8
     6      4      2     11      9   180.00  15.16700   2 ;     C6-    C4-    C2-    H2
     6      5      3     12      9   180.00  15.16700   2 ;     C6-    C5-    C3-    H3
     6      9      7     15      9     0.00   1.38909   2 ;     C6-    N1-    C7-    H6
     6      9      7     16      9     0.00   1.38909   2 ;     C6-    N1-    C7-    H7
     6      9      7     17      9     0.00   1.38909   2 ;     C6-    N1-    C7-    H8
     6      9      8     18      9     0.00   1.38909   2 ;     C6-    N1-    C8-    H9
     6      9      8     19      9     0.00   1.38909   2 ;     C6-    N1-    C8-   H10
     6      9      8     20      9     0.00   1.38909   2 ;     C6-    N1-    C8-   H11
     7      9      8     18      9     0.00   0.00000   0 ;     C7-    N1-    C8-    H9
     7      9      8     19      9     0.00   0.00000   0 ;     C7-    N1-    C8-   H10
     7      9      8     20      9     0.00   0.00000   0 ;     C7-    N1-    C8-   H11
     8      9      7     15      9     0.00   0.00000   0 ;     C8-    N1-    C7-    H6
     8      9      7     16      9     0.00   0.00000   0 ;     C8-    N1-    C7-    H7
     8      9      7     17      9     0.00   0.00000   0 ;     C8-    N1-    C7-    H8
     9      6      4     13      9   180.00  15.16700   2 ;     N1-    C6-    C4-    H4
     9      6      5     14      9   180.00  15.16700   2 ;     N1-    C6-    C5-    H5
    10      1      2      4      9   180.00  15.16700   2 ;     H1-    C1-    C2-    C4
    10      1      2     11      9   180.00  15.16700   2 ;     H1-    C1-    C2-    H2
    10      1      3      5      9   180.00  15.16700   2 ;     H1-    C1-    C3-    C5
    10      1      3     12      9   180.00  15.16700   2 ;     H1-    C1-    C3-    H3
    11      2      4     13      9   180.00  15.16700   2 ;     H2-    C2-    C4-    H4
    12      3      5     14      9   180.00  15.16700   2 ;     H3-    C3-    C5-    H5

[ dihedrals ] ; impropers
; treated as propers in GROMACS to use correct AMBER analytical function
;    i      j      k      l   func   phase     kd      pn
     1      4      2     11      4   180.00   4.60240   2 ;     C1-    C4-    C2-    H2
     1      5      3     12      4   180.00   4.60240   2 ;     C1-    C5-    C3-    H3
     2      6      4     13      4   180.00   4.60240   2 ;     C2-    C6-    C4-    H4
     3      6      5     14      4   180.00   4.60240   2 ;     C3-    C6-    C5-    H5
     4      5      6      9      4   180.00   4.60240   2 ;     C4-    C5-    C6-    N1
     7      8      9      6      4   180.00   4.60240   2 ;     C7-    C8-    N1-    C6
    10      1      3      2      4   180.00   4.60240   2 ;     H1-    C1-    C3-    C2
