; mobley_5026370_GMX.itp created by acpype (v: 2023.10.27) on Thu May 21 00:12:32 2026

[ atomtypes ]
;name   bond_type     mass     charge   ptype   sigma         epsilon       Amb
 cg       cg          0.00000  0.00000   A     3.47896e-01   6.67766e-01 ; 1.95  0.1596
 ca       ca          0.00000  0.00000   A     3.31521e-01   4.13379e-01 ; 1.86  0.0988
 n1       n1          0.00000  0.00000   A     3.27352e-01   4.59403e-01 ; 1.84  0.1098
 nb       nb          0.00000  0.00000   A     3.38417e-01   3.93714e-01 ; 1.90  0.0941
 ha       ha          0.00000  0.00000   A     2.62548e-01   6.73624e-02 ; 1.47  0.0161
 h4       h4          0.00000  0.00000   A     2.53639e-01   6.73624e-02 ; 1.42  0.0161

[ moleculetype ]
;name            nrexcl
 mobley_5026370   3

[ atoms ]
;   nr  type  resi  res  atom  cgnr     charge      mass       ; qtot   bond_type
     1   cg     1   MOL    C1    1     0.225800     12.01000 ; qtot 0.226
     2   ca     1   MOL    C2    2    -0.210300     12.01000 ; qtot 0.016
     3   ca     1   MOL    C3    3    -0.210300     12.01000 ; qtot -0.195
     4   ca     1   MOL    C4    4     0.393200     12.01000 ; qtot 0.198
     5   ca     1   MOL    C5    5     0.393200     12.01000 ; qtot 0.592
     6   ca     1   MOL    C6    6     0.024000     12.01000 ; qtot 0.616
     7   n1     1   MOL    N1    7    -0.343800     14.01000 ; qtot 0.272
     8   nb     1   MOL    N2    8    -0.648000     14.01000 ; qtot -0.376
     9   ha     1   MOL    H1    9     0.157000      1.00800 ; qtot -0.219
    10   ha     1   MOL    H2   10     0.157000      1.00800 ; qtot -0.062
    11   h4     1   MOL    H3   11     0.031100      1.00800 ; qtot -0.031
    12   h4     1   MOL    H4   12     0.031100      1.00800 ; qtot 0.000

[ bonds ]
;   ai     aj funct   r             k
     1      6   1    1.4318e-01    2.6561e+05 ;     C1 - C6    
     1      7   1    1.1643e-01    6.2260e+05 ;     C1 - N1    
     2      4   1    1.3986e-01    2.9644e+05 ;     C2 - C4    
     2      6   1    1.3986e-01    2.9644e+05 ;     C2 - C6    
     2      9   1    1.0860e-01    3.0183e+05 ;     C2 - H1    
     3      5   1    1.3986e-01    2.9644e+05 ;     C3 - C5    
     3      6   1    1.3986e-01    2.9644e+05 ;     C3 - C6    
     3     10   1    1.0860e-01    3.0183e+05 ;     C3 - H2    
     4      8   1    1.3392e-01    3.2341e+05 ;     C4 - N2    
     4     11   1    1.0885e-01    2.9859e+05 ;     C4 - H3    
     5      8   1    1.3392e-01    3.2341e+05 ;     C5 - N2    
     5     12   1    1.0885e-01    2.9859e+05 ;     C5 - H4    

[ pairs ]
;   ai     aj    funct
     1      4      1 ;     C1 - C4    
     1      5      1 ;     C1 - C5    
     1      9      1 ;     C1 - H1    
     1     10      1 ;     C1 - H2    
     2      5      1 ;     C2 - C5    
     2     10      1 ;     C2 - H2    
     3      4      1 ;     C3 - C4    
     3      9      1 ;     C3 - H1    
     4     12      1 ;     C4 - H4    
     5     11      1 ;     C5 - H3    
     6      8      1 ;     C6 - N2    
     6     11      1 ;     C6 - H3    
     6     12      1 ;     C6 - H4    
     7      2      1 ;     N1 - C2    
     7      3      1 ;     N1 - C3    
     8      9      1 ;     N2 - H1    
     8     10      1 ;     N2 - H2    
     9     11      1 ;     H1 - H3    
    10     12      1 ;     H2 - H4    

[ angles ]
;   ai     aj     ak    funct   theta         cth
     1      6      2      1    1.2025e+02    5.2593e+02 ;     C1 - C6     - C2    
     1      6      3      1    1.2025e+02    5.2593e+02 ;     C1 - C6     - C3    
     2      4      8      1    1.2294e+02    5.7045e+02 ;     C2 - C4     - N2    
     2      4     11      1    1.2032e+02    3.7489e+02 ;     C2 - C4     - H3    
     2      6      3      1    1.2002e+02    5.3279e+02 ;     C2 - C6     - C3    
     3      5      8      1    1.2294e+02    5.7045e+02 ;     C3 - C5     - N2    
     3      5     12      1    1.2032e+02    3.7489e+02 ;     C3 - C5     - H4    
     4      2      6      1    1.2002e+02    5.3279e+02 ;     C4 - C2     - C6    
     4      2      9      1    1.1988e+02    3.7572e+02 ;     C4 - C2     - H1    
     4      8      5      1    1.1724e+02    6.9580e+02 ;     C4 - N2     - C5    
     5      3      6      1    1.2002e+02    5.3279e+02 ;     C5 - C3     - C6    
     5      3     10      1    1.1988e+02    3.7572e+02 ;     C5 - C3     - H2    
     6      1      7      1    1.7952e+02    4.8785e+02 ;     C6 - C1     - N1    
     6      2      9      1    1.1988e+02    3.7572e+02 ;     C6 - C2     - H1    
     6      3     10      1    1.1988e+02    3.7572e+02 ;     C6 - C3     - H2    
     8      4     11      1    1.1602e+02    4.1924e+02 ;     N2 - C4     - H3    
     8      5     12      1    1.1602e+02    4.1924e+02 ;     N2 - C5     - H4    

[ dihedrals ] ; propers
; for gromacs 4.5 or higher, using funct 9
;    i      j      k      l   func   phase     kd      pn
     1      6      2      4      9   180.00  15.16700   2 ;     C1-    C6-    C2-    C4
     1      6      2      9      9   180.00  15.16700   2 ;     C1-    C6-    C2-    H1
     1      6      3      5      9   180.00  15.16700   2 ;     C1-    C6-    C3-    C5
     1      6      3     10      9   180.00  15.16700   2 ;     C1-    C6-    C3-    H2
     2      4      8      5      9   180.00  20.08320   2 ;     C2-    C4-    N2-    C5
     2      6      3      5      9   180.00  15.16700   2 ;     C2-    C6-    C3-    C5
     2      6      3     10      9   180.00  15.16700   2 ;     C2-    C6-    C3-    H2
     3      5      8      4      9   180.00  20.08320   2 ;     C3-    C5-    N2-    C4
     3      6      2      4      9   180.00  15.16700   2 ;     C3-    C6-    C2-    C4
     3      6      2      9      9   180.00  15.16700   2 ;     C3-    C6-    C2-    H1
     4      8      5     12      9   180.00  20.08320   2 ;     C4-    N2-    C5-    H4
     5      8      4     11      9   180.00  20.08320   2 ;     C5-    N2-    C4-    H3
     6      2      4      8      9   180.00  15.16700   2 ;     C6-    C2-    C4-    N2
     6      2      4     11      9   180.00  15.16700   2 ;     C6-    C2-    C4-    H3
     6      3      5      8      9   180.00  15.16700   2 ;     C6-    C3-    C5-    N2
     6      3      5     12      9   180.00  15.16700   2 ;     C6-    C3-    C5-    H4
     7      1      6      2      9   180.00   0.00000   2 ;     N1-    C1-    C6-    C2
     7      1      6      3      9   180.00   0.00000   2 ;     N1-    C1-    C6-    C3
     8      4      2      9      9   180.00  15.16700   2 ;     N2-    C4-    C2-    H1
     8      5      3     10      9   180.00  15.16700   2 ;     N2-    C5-    C3-    H2
     9      2      4     11      9   180.00  15.16700   2 ;     H1-    C2-    C4-    H3
    10      3      5     12      9   180.00  15.16700   2 ;     H2-    C3-    C5-    H4

[ dihedrals ] ; impropers
; treated as propers in GROMACS to use correct AMBER analytical function
;    i      j      k      l   func   phase     kd      pn
     1      6      3      2      4   180.00   4.60240   2 ;     C1-    C6-    C3-    C2
     2     11      4      8      4   180.00   4.60240   2 ;     C2-    H3-    C4-    N2
     3     12      5      8      4   180.00   4.60240   2 ;     C3-    H4-    C5-    N2
     4      6      2      9      4   180.00   4.60240   2 ;     C4-    C6-    C2-    H1
     5      6      3     10      4   180.00   4.60240   2 ;     C5-    C6-    C3-    H2
