mobley_5600967_GMX.gro created by acpype (v: 2023.10.27) on Tue May 19 12:52:30 2026
 2402
    1MOL     C1    1   2.386   2.494   2.527
    1MOL     C2    2   2.597   2.378   2.534
    1MOL     C3    3   2.385   2.503   2.666
    1MOL     C4    4   2.596   2.386   2.674
    1MOL     C5    5   2.491   2.432   2.461
    1MOL     C6    6   2.491   2.448   2.739
    1MOL     C7    7   2.492   2.423   2.316
    1MOL     C8    8   2.557   2.524   2.096
    1MOL     C9    9   2.612   2.643   2.305
    1MOL    C10   10   2.379   2.522   2.936
    1MOL     N1   11   2.551   2.526   2.241
    1MOL     O1   12   2.439   2.323   2.265
    1MOL     O2   13   2.490   2.457   2.875
    1MOL     H1   14   2.303   2.537   2.470
    1MOL     H2   15   2.680   2.328   2.484
    1MOL     H3   16   2.302   2.552   2.717
    1MOL     H4   17   2.679   2.344   2.730
    1MOL     H5   18   2.660   2.544   2.064
    1MOL     H6   19   2.490   2.601   2.057
    1MOL     H7   20   2.525   2.426   2.061
    1MOL     H8   21   2.535   2.695   2.363
    1MOL     H9   22   2.651   2.709   2.228
    1MOL    H10   23   2.693   2.610   2.371
    1MOL    H11   24   2.297   2.450   2.947
    1MOL    H12   25   2.347   2.606   2.874
    1MOL    H13   26   2.409   2.559   3.034
   35SOL     OW   27   1.187   1.792   1.616
   35SOL    HW1   28   1.211   1.852   1.540
   35SOL    HW2   29   1.194   1.697   1.586
   95SOL     OW   30   1.754   1.223   1.588
   95SOL    HW1   31   1.845   1.184   1.575
   95SOL    HW2   32   1.762   1.319   1.612
   97SOL     OW   33   1.592   1.629   1.625
   97SOL    HW1   34   1.619   1.663   1.535
   97SOL    HW2   35   1.671   1.591   1.671
  127SOL     OW   36   1.859   1.518   1.605
  127SOL    HW1   37   1.873   1.545   1.510
  127SOL    HW2   38   1.942   1.540   1.658
  152SOL     OW   39   1.759   1.747   1.154
  152SOL    HW1   40   1.820   1.777   1.081
  152SOL    HW2   41   1.721   1.658   1.132
  163SOL     OW   42   1.650   1.720   1.394
  163SOL    HW1   43   1.703   1.730   1.310
  163SOL    HW2   44   1.623   1.810   1.428
  219SOL     OW   45   1.555   1.511   2.565
  219SOL    HW1   46   1.498   1.495   2.646
  219SOL    HW2   47   1.496   1.521   2.485
  227SOL     OW   48   1.460   1.505   3.201
  227SOL    HW1   49   1.484   1.599   3.227
  227SOL    HW2   50   1.444   1.451   3.283
  238SOL     OW   51   1.842   1.767   2.221
  238SOL    HW1   52   1.896   1.738   2.301
  238SOL    HW2   53   1.872   1.857   2.192
  240SOL     OW   54   1.689   0.922   2.474
  240SOL    HW1   55   1.784   0.893   2.482
  240SOL    HW2   56   1.681   0.987   2.399
  241SOL     OW   57   1.641   1.108   2.294
  241SOL    HW1   58   1.727   1.110   2.242
  241SOL    HW2   59   1.655   1.155   2.382
  248SOL     OW   60   1.187   1.792   3.478
  248SOL    HW1   61   1.211   1.852   3.402
  248SOL    HW2   62   1.194   1.697   3.448
  250SOL     OW   63   1.466   1.417   2.815
  250SOL    HW1   64   1.407   1.423   2.895
  250SOL    HW2   65   1.451   1.329   2.769
  251SOL     OW   66   1.667   1.714   2.434
  251SOL    HW1   67   1.626   1.691   2.346
  251SOL    HW2   68   1.649   1.640   2.499
  254SOL     OW   69   1.576   1.662   2.169
  254SOL    HW1   70   1.665   1.708   2.172
  254SOL    HW2   71   1.555   1.638   2.074
  264SOL     OW   72   1.362   1.144   2.407
  264SOL    HW1   73   1.445   1.115   2.359
  264SOL    HW2   74   1.313   1.211   2.351
  268SOL     OW   75   1.795   1.066   2.735
  268SOL    HW1   76   1.733   1.051   2.659
  268SOL    HW2   77   1.743   1.077   2.820
  273SOL     OW   78   1.111   1.776   2.099
  273SOL    HW1   79   1.051   1.714   2.149
  273SOL    HW2   80   1.142   1.732   2.014
  275SOL     OW   81   1.632   1.377   1.943
  275SOL    HW1   82   1.600   1.471   1.933
  275SOL    HW2   83   1.556   1.314   1.931
  279SOL     OW   84   0.940   1.698   2.766
  279SOL    HW1   85   1.020   1.641   2.787
  279SOL    HW2   86   0.891   1.658   2.689
  289SOL     OW   87   1.434   1.188   1.903
  289SOL    HW1   88   1.466   1.112   1.960
  289SOL    HW2   89   1.342   1.215   1.933
  293SOL     OW   90   1.227   1.570   2.655
  293SOL    HW1   91   1.248   1.644   2.590
  293SOL    HW2   92   1.295   1.570   2.728
  295SOL     OW   93   1.271   1.797   2.453
  295SOL    HW1   94   1.315   1.861   2.389
  295SOL    HW2   95   1.221   1.849   2.523
  301SOL     OW   96   1.429   1.173   2.729
  301SOL    HW1   97   1.374   1.089   2.722
  301SOL    HW2   98   1.455   1.202   2.637
  305SOL     OW   99   1.664   1.280   2.519
  305SOL    HW1  100   1.763   1.288   2.533
  305SOL    HW2  101   1.619   1.364   2.550
  308SOL     OW  102   1.754   1.223   3.450
  308SOL    HW1  103   1.845   1.184   3.437
  308SOL    HW2  104   1.762   1.319   3.474
  310SOL     OW  105   1.592   1.629   3.487
  310SOL    HW1  106   1.619   1.663   3.397
  310SOL    HW2  107   1.671   1.591   3.533
  312SOL     OW  108   1.638   1.099   2.941
  312SOL    HW1  109   1.643   1.180   3.000
  312SOL    HW2  110   1.552   1.101   2.890
  321SOL     OW  111   1.252   1.348   2.250
  321SOL    HW1  112   1.302   1.425   2.290
  321SOL    HW2  113   1.157   1.350   2.282
  322SOL     OW  114   1.272   1.445   3.004
  322SOL    HW1  115   1.319   1.458   3.091
  322SOL    HW2  116   1.206   1.371   3.013
  340SOL     OW  117   1.859   1.518   3.467
  340SOL    HW1  118   1.873   1.545   3.372
  340SOL    HW2  119   1.942   1.540   3.520
  365SOL     OW  120   1.759   1.747   3.016
  365SOL    HW1  121   1.820   1.777   2.943
  365SOL    HW2  122   1.721   1.658   2.994
  366SOL     OW  123   1.252   1.731   2.990
  366SOL    HW1  124   1.336   1.736   2.936
  366SOL    HW2  125   1.229   1.635   3.008
  370SOL     OW  126   1.388   1.573   2.339
  370SOL    HW1  127   1.455   1.585   2.265
  370SOL    HW2  128   1.348   1.662   2.362
  375SOL     OW  129   1.650   1.720   3.256
  375SOL    HW1  130   1.703   1.730   3.172
  375SOL    HW2  131   1.623   1.810   3.290
  378SOL     OW  132   1.194   1.612   1.893
  378SOL    HW1  133   1.200   1.519   1.930
  378SOL    HW2  134   1.135   1.612   1.813
  381SOL     OW  135   1.504   1.607   1.906
  381SOL    HW1  136   1.412   1.644   1.913
  381SOL    HW2  137   1.542   1.627   1.816
  383SOL     OW  138   1.614   1.292   3.151
  383SOL    HW1  139   1.674   1.295   3.231
  383SOL    HW2  140   1.539   1.356   3.164
  396SOL     OW  141   1.493   1.767   2.821
  396SOL    HW1  142   1.526   1.831   2.752
  396SOL    HW2  143   1.559   1.761   2.896
  409SOL     OW  144   1.861   1.569   2.713
  409SOL    HW1  145   1.790   1.557   2.643
  409SOL    HW2  146   1.862   1.490   2.773
  415SOL     OW  147   1.705   1.487   2.966
  415SOL    HW1  148   1.612   1.462   2.939
  415SOL    HW2  149   1.731   1.437   3.048
  581SOL     OW  150   0.850   2.660   1.823
  581SOL    HW1  151   0.846   2.736   1.888
  581SOL    HW2  152   0.872   2.696   1.732
  585SOL     OW  153   1.460   3.367   1.339
  585SOL    HW1  154   1.484   3.461   1.365
  585SOL    HW2  155   1.444   3.313   1.421
  589SOL     OW  156   1.127   3.203   1.690
  589SOL    HW1  157   1.174   3.203   1.778
  589SOL    HW2  158   1.079   3.116   1.679
  594SOL     OW  159   1.594   1.976   1.480
  594SOL    HW1  160   1.576   2.043   1.408
  594SOL    HW2  161   1.591   2.022   1.569
  602SOL     OW  162   1.293   3.090   1.423
  602SOL    HW1  163   1.330   3.017   1.365
  602SOL    HW2  164   1.345   3.095   1.508
  614SOL     OW  165   1.394   2.331   1.674
  614SOL    HW1  166   1.374   2.374   1.762
  614SOL    HW2  167   1.472   2.269   1.683
  621SOL     OW  168   1.719   2.447   1.831
  621SOL    HW1  169   1.693   2.536   1.795
  621SOL    HW2  170   1.717   2.379   1.758
  639SOL     OW  171   1.547   2.084   1.729
  639SOL    HW1  172   1.542   2.121   1.821
  639SOL    HW2  173   1.475   2.015   1.717
  643SOL     OW  174   1.351   2.452   1.433
  643SOL    HW1  175   1.379   2.409   1.518
  643SOL    HW2  176   1.376   2.548   1.434
  650SOL     OW  177   1.076   2.545   1.464
  650SOL    HW1  178   0.996   2.484   1.467
  650SOL    HW2  179   1.157   2.492   1.440
  666SOL     OW  180   1.754   3.085   1.588
  666SOL    HW1  181   1.845   3.046   1.575
  666SOL    HW2  182   1.762   3.181   1.612
  668SOL     OW  183   1.592   3.491   1.625
  668SOL    HW1  184   1.619   3.525   1.535
  668SOL    HW2  185   1.671   3.453   1.671
  670SOL     OW  186   1.638   2.961   1.079
  670SOL    HW1  187   1.643   3.042   1.138
  670SOL    HW2  188   1.552   2.963   1.028
  672SOL     OW  189   0.980   2.978   1.719
  672SOL    HW1  190   0.881   2.984   1.729
  672SOL    HW2  191   1.003   2.898   1.663
  675SOL     OW  192   1.274   2.248   1.262
  675SOL    HW1  193   1.295   2.322   1.326
  675SOL    HW2  194   1.185   2.265   1.219
  684SOL     OW  195   1.587   2.641   1.670
  684SOL    HW1  196   1.495   2.679   1.665
  684SOL    HW2  197   1.647   2.688   1.605
  685SOL     OW  198   1.013   1.967   1.770
  685SOL    HW1  199   1.019   2.052   1.718
  685SOL    HW2  200   1.045   1.891   1.713
  693SOL     OW  201   1.728   2.797   1.854
  693SOL    HW1  202   1.682   2.790   1.765
  693SOL    HW2  203   1.666   2.841   1.920
  698SOL     OW  204   1.859   3.380   1.605
  698SOL    HW1  205   1.873   3.407   1.510
  698SOL    HW2  206   1.942   3.402   1.658
  705SOL     OW  207   1.138   2.242   1.678
  705SOL    HW1  208   1.093   2.305   1.742
  705SOL    HW2  209   1.231   2.273   1.661
  706SOL     OW  210   1.160   2.069   1.477
  706SOL    HW1  211   1.160   2.133   1.554
  706SOL    HW2  212   1.188   2.117   1.394
  713SOL     OW  213   1.369   2.812   1.660
  713SOL    HW1  214   1.408   2.901   1.680
  713SOL    HW2  215   1.379   2.792   1.563
  715SOL     OW  216   1.657   2.466   1.206
  715SOL    HW1  217   1.619   2.397   1.268
  715SOL    HW2  218   1.739   2.430   1.162
  721SOL     OW  219   1.347   2.921   1.234
  721SOL    HW1  220   1.371   2.858   1.160
  721SOL    HW2  221   1.257   2.961   1.216
  734SOL     OW  222   1.650   3.582   1.394
  734SOL    HW1  223   1.703   3.592   1.310
  734SOL    HW2  224   1.623   3.672   1.428
  735SOL     OW  225   1.841   2.037   0.963
  735SOL    HW1  226   1.880   1.952   0.927
  735SOL    HW2  227   1.743   2.039   0.944
  742SOL     OW  228   1.614   3.154   1.289
  742SOL    HW1  229   1.674   3.157   1.369
  742SOL    HW2  230   1.539   3.218   1.302
  746SOL     OW  231   1.709   2.247   1.381
  746SOL    HW1  232   1.782   2.316   1.385
  746SOL    HW2  233   1.737   2.172   1.322
  751SOL     OW  234   1.440   2.718   1.398
  751SOL    HW1  235   1.383   2.770   1.335
  751SOL    HW2  236   1.536   2.730   1.374
  757SOL     OW  237   1.450   3.082   1.633
  757SOL    HW1  238   1.441   3.072   1.732
  757SOL    HW2  239   1.546   3.075   1.607
  759SOL     OW  240   1.674   2.745   1.254
  759SOL    HW1  241   1.647   2.656   1.217
  759SOL    HW2  242   1.675   2.813   1.181
  762SOL     OW  243   1.777   2.204   1.642
  762SOL    HW1  244   1.760   2.235   1.548
  762SOL    HW2  245   1.693   2.167   1.680
  763SOL     OW  246   1.730   2.796   1.517
  763SOL    HW1  247   1.768   2.887   1.532
  763SOL    HW2  248   1.722   2.779   1.418
  772SOL     OW  249   1.824   2.054   1.227
  772SOL    HW1  250   1.820   1.964   1.271
  772SOL    HW2  251   1.827   2.043   1.128
  790SOL     OW  252   1.555   3.373   2.565
  790SOL    HW1  253   1.498   3.357   2.646
  790SOL    HW2  254   1.496   3.383   2.485
  791SOL     OW  255   1.135   2.565   2.579
  791SOL    HW1  256   1.192   2.643   2.554
  791SOL    HW2  257   1.075   2.591   2.655
  792SOL     OW  258   1.755   2.469   2.093
  792SOL    HW1  259   1.743   2.456   1.994
  792SOL    HW2  260   1.725   2.388   2.142
  798SOL     OW  261   1.460   3.367   3.201
  798SOL    HW1  262   1.484   3.461   3.227
  798SOL    HW2  263   1.444   3.313   3.283
  800SOL     OW  264   1.603   2.309   2.599
  800SOL    HW1  265   1.529   2.355   2.549
  800SOL    HW2  266   1.654   2.377   2.652
  807SOL     OW  267   1.594   1.976   3.342
  807SOL    HW1  268   1.576   2.043   3.270
  807SOL    HW2  269   1.591   2.022   3.431
  809SOL     OW  270   1.842   3.629   2.221
  809SOL    HW1  271   1.896   3.600   2.301
  809SOL    HW2  272   1.872   3.719   2.192
  811SOL     OW  273   1.689   2.784   2.474
  811SOL    HW1  274   1.784   2.755   2.482
  811SOL    HW2  275   1.681   2.849   2.399
  812SOL     OW  276   1.641   2.970   2.294
  812SOL    HW1  277   1.727   2.972   2.242
  812SOL    HW2  278   1.655   3.017   2.382
  815SOL     OW  279   1.293   3.090   3.285
  815SOL    HW1  280   1.330   3.017   3.227
  815SOL    HW2  281   1.345   3.095   3.370
  818SOL     OW  282   1.525   2.861   2.052
  818SOL    HW1  283   1.462   2.785   2.065
  818SOL    HW2  284   1.573   2.879   2.138
  821SOL     OW  285   1.466   3.279   2.815
  821SOL    HW1  286   1.407   3.285   2.895
  821SOL    HW2  287   1.451   3.191   2.769
  822SOL     OW  288   1.667   3.576   2.434
  822SOL    HW1  289   1.626   3.553   2.346
  822SOL    HW2  290   1.649   3.502   2.499
  824SOL     OW  291   1.281   2.207   2.806
  824SOL    HW1  292   1.195   2.157   2.793
  824SOL    HW2  293   1.343   2.153   2.862
  825SOL     OW  294   1.576   3.524   2.169
  825SOL    HW1  295   1.665   3.570   2.172
  825SOL    HW2  296   1.555   3.500   2.074
  827SOL     OW  297   1.394   2.331   3.536
  827SOL    HW1  298   1.374   2.374   3.624
  827SOL    HW2  299   1.472   2.269   3.545
  829SOL     OW  300   0.991   2.272   3.104
  829SOL    HW1  301   0.914   2.306   3.158
  829SOL    HW2  302   0.957   2.221   3.025
  830SOL     OW  303   1.041   2.563   2.291
  830SOL    HW1  304   1.067   2.559   2.387
  830SOL    HW2  305   0.956   2.512   2.277
  833SOL     OW  306   0.865   2.210   2.057
  833SOL    HW1  307   0.924   2.273   2.008
  833SOL    HW2  308   0.884   2.116   2.028
  834SOL     OW  309   1.719   2.447   3.693
  834SOL    HW1  310   1.693   2.536   3.657
  834SOL    HW2  311   1.717   2.379   3.620
  835SOL     OW  312   1.362   3.006   2.407
  835SOL    HW1  313   1.445   2.977   2.359
  835SOL    HW2  314   1.313   3.073   2.351
  837SOL     OW  315   1.008   3.318   2.339
  837SOL    HW1  316   0.962   3.390   2.287
  837SOL    HW2  317   1.004   3.338   2.437
  839SOL     OW  318   1.795   2.928   2.735
  839SOL    HW1  319   1.733   2.913   2.659
  839SOL    HW2  320   1.743   2.939   2.820
  840SOL     OW  321   1.227   3.412   3.368
  840SOL    HW1  322   1.233   3.335   3.432
  840SOL    HW2  323   1.175   3.386   3.288
  842SOL     OW  324   1.458   2.597   2.590
  842SOL    HW1  325   1.453   2.532   2.665
  842SOL    HW2  326   1.538   2.656   2.603
  846SOL     OW  327   1.632   3.239   1.943
  846SOL    HW1  328   1.600   3.333   1.933
  846SOL    HW2  329   1.556   3.176   1.931
  848SOL     OW  330   1.400   1.969   2.288
  848SOL    HW1  331   1.376   1.932   2.198
  848SOL    HW2  332   1.499   1.985   2.292
  852SOL     OW  333   1.547   2.084   3.591
  852SOL    HW1  334   1.542   2.121   3.683
  852SOL    HW2  335   1.475   2.015   3.579
  856SOL     OW  336   1.351   2.452   3.295
  856SOL    HW1  337   1.379   2.409   3.380
  856SOL    HW2  338   1.376   2.548   3.296
  858SOL     OW  339   0.922   2.365   2.761
  858SOL    HW1  340   0.897   2.356   2.665
  858SOL    HW2  341   0.970   2.283   2.792
  860SOL     OW  342   1.434   3.050   1.903
  860SOL    HW1  343   1.466   2.974   1.960
  860SOL    HW2  344   1.342   3.077   1.933
  862SOL     OW  345   0.935   2.098   2.342
  862SOL    HW1  346   0.887   2.139   2.264
  862SOL    HW2  347   1.034   2.096   2.323
  863SOL     OW  348   1.076   2.545   3.326
  863SOL    HW1  349   0.996   2.484   3.329
  863SOL    HW2  350   1.157   2.492   3.302
  864SOL     OW  351   1.227   3.432   2.655
  864SOL    HW1  352   1.248   3.506   2.590
  864SOL    HW2  353   1.295   3.432   2.728
  866SOL     OW  354   1.271   3.659   2.453
  866SOL    HW1  355   1.315   3.723   2.389
  866SOL    HW2  356   1.221   3.711   2.523
  867SOL     OW  357   1.032   2.411   1.878
  867SOL    HW1  358   0.991   2.493   1.839
  867SOL    HW2  359   1.096   2.437   1.951
  870SOL     OW  360   0.866   2.316   2.504
  870SOL    HW1  361   0.834   2.388   2.442
  870SOL    HW2  362   0.890   2.235   2.451
  871SOL     OW  363   1.017   1.901   2.615
  871SOL    HW1  364   0.945   1.906   2.546
  871SOL    HW2  365   0.993   1.832   2.684
  872SOL     OW  366   1.429   3.035   2.729
  872SOL    HW1  367   1.374   2.951   2.722
  872SOL    HW2  368   1.455   3.064   2.637
  873SOL     OW  369   1.466   2.452   2.854
  873SOL    HW1  370   1.436   2.357   2.861
  873SOL    HW2  371   1.539   2.468   2.920
  874SOL     OW  372   1.857   2.695   2.239
  874SOL    HW1  373   1.899   2.631   2.303
  874SOL    HW2  374   1.819   2.644   2.161
  876SOL     OW  375   1.664   3.142   2.519
  876SOL    HW1  376   1.763   3.150   2.533
  876SOL    HW2  377   1.619   3.226   2.550
  877SOL     OW  378   1.390   2.437   1.940
  877SOL    HW1  379   1.336   2.416   2.021
  877SOL    HW2  380   1.481   2.396   1.949
  879SOL     OW  381   1.754   3.085   3.450
  879SOL    HW1  382   1.845   3.046   3.437
  879SOL    HW2  383   1.762   3.181   3.474
  880SOL     OW  384   1.064   3.209   3.202
  880SOL    HW1  385   0.984   3.186   3.257
  880SOL    HW2  386   1.147   3.183   3.251
  881SOL     OW  387   1.592   3.491   3.487
  881SOL    HW1  388   1.619   3.525   3.397
  881SOL    HW2  389   1.671   3.453   3.533
  882SOL     OW  390   1.111   3.057   2.962
  882SOL    HW1  391   1.071   3.101   3.043
  882SOL    HW2  392   1.070   3.094   2.879
  883SOL     OW  393   1.638   2.961   2.941
  883SOL    HW1  394   1.643   3.042   3.000
  883SOL    HW2  395   1.552   2.963   2.890
  888SOL     OW  396   1.274   2.248   3.124
  888SOL    HW1  397   1.295   2.322   3.188
  888SOL    HW2  398   1.185   2.265   3.081
  892SOL     OW  399   1.252   3.210   2.250
  892SOL    HW1  400   1.302   3.287   2.290
  892SOL    HW2  401   1.157   3.212   2.282
  893SOL     OW  402   1.272   3.307   3.004
  893SOL    HW1  403   1.319   3.320   3.091
  893SOL    HW2  404   1.206   3.233   3.013
  894SOL     OW  405   1.582   2.501   2.334
  894SOL    HW1  406   1.551   2.562   2.407
  894SOL    HW2  407   1.632   2.553   2.265
  897SOL     OW  408   1.587   2.641   3.532
  897SOL    HW1  409   1.495   2.679   3.527
  897SOL    HW2  410   1.647   2.688   3.467
  901SOL     OW  411   1.360   2.724   2.907
  901SOL    HW1  412   1.285   2.724   2.841
  901SOL    HW2  413   1.397   2.632   2.916
  902SOL     OW  414   1.209   2.387   2.137
  902SOL    HW1  415   1.222   2.303   2.191
  902SOL    HW2  416   1.180   2.461   2.197
  906SOL     OW  417   1.728   2.797   3.716
  906SOL    HW1  418   1.682   2.790   3.627
  906SOL    HW2  419   1.666   2.841   3.782
  908SOL     OW  420   1.622   2.229   2.236
  908SOL    HW1  421   1.624   2.153   2.300
  908SOL    HW2  422   1.574   2.306   2.276
  909SOL     OW  423   1.023   2.628   2.828
  909SOL    HW1  424   1.038   2.649   2.924
  909SOL    HW2  425   0.993   2.533   2.819
  911SOL     OW  426   1.859   3.380   3.467
  911SOL    HW1  427   1.873   3.407   3.372
  911SOL    HW2  428   1.942   3.402   3.520
  913SOL     OW  429   1.540   2.136   1.987
  913SOL    HW1  430   1.479   2.061   2.010
  913SOL    HW2  431   1.562   2.188   2.070
  914SOL     OW  432   1.303   2.700   1.904
  914SOL    HW1  433   1.337   2.607   1.919
  914SOL    HW2  434   1.321   2.727   1.809
  915SOL     OW  435   1.068   3.195   2.711
  915SOL    HW1  436   1.075   3.111   2.656
  915SOL    HW2  437   1.130   3.264   2.675
  918SOL     OW  438   1.138   2.242   3.540
  918SOL    HW1  439   1.093   2.305   3.604
  918SOL    HW2  440   1.231   2.273   3.523
  919SOL     OW  441   1.160   2.069   3.339
  919SOL    HW1  442   1.160   2.133   3.416
  919SOL    HW2  443   1.188   2.117   3.256
  923SOL     OW  444   1.002   2.658   3.100
  923SOL    HW1  445   1.043   2.626   3.186
  923SOL    HW2  446   0.906   2.631   3.097
  926SOL     OW  447   1.369   2.812   3.522
  926SOL    HW1  448   1.408   2.901   3.542
  926SOL    HW2  449   1.379   2.792   3.425
  927SOL     OW  450   0.815   2.434   2.187
  927SOL    HW1  451   0.822   2.345   2.141
  927SOL    HW2  452   0.721   2.468   2.179
  928SOL     OW  453   1.657   2.466   3.068
  928SOL    HW1  454   1.619   2.397   3.130
  928SOL    HW2  455   1.739   2.430   3.024
  934SOL     OW  456   1.347   2.921   3.096
  934SOL    HW1  457   1.371   2.858   3.022
  934SOL    HW2  458   1.257   2.961   3.078
  935SOL     OW  459   1.302   2.717   2.171
  935SOL    HW1  460   1.216   2.686   2.213
  935SOL    HW2  461   1.298   2.703   2.072
  936SOL     OW  462   1.759   3.609   3.016
  936SOL    HW1  463   1.820   3.639   2.943
  936SOL    HW2  464   1.721   3.520   2.994
  937SOL     OW  465   1.252   3.593   2.990
  937SOL    HW1  466   1.336   3.598   2.936
  937SOL    HW2  467   1.229   3.497   3.008
  940SOL     OW  468   1.726   1.997   2.385
  940SOL    HW1  469   1.799   1.980   2.318
  940SOL    HW2  470   1.695   1.910   2.423
  941SOL     OW  471   1.388   3.435   2.339
  941SOL    HW1  472   1.455   3.447   2.265
  941SOL    HW2  473   1.348   3.524   2.362
  943SOL     OW  474   1.280   2.789   2.534
  943SOL    HW1  475   1.340   2.708   2.536
  943SOL    HW2  476   1.320   2.858   2.474
  946SOL     OW  477   1.650   3.582   3.256
  946SOL    HW1  478   1.703   3.592   3.172
  946SOL    HW2  479   1.623   3.672   3.290
  947SOL     OW  480   1.841   2.037   2.825
  947SOL    HW1  481   1.880   1.952   2.789
  947SOL    HW2  482   1.743   2.039   2.806
  949SOL     OW  483   1.194   3.474   1.893
  949SOL    HW1  484   1.200   3.381   1.930
  949SOL    HW2  485   1.135   3.474   1.813
  951SOL     OW  486   0.916   2.772   2.153
  951SOL    HW1  487   0.979   2.810   2.085
  951SOL    HW2  488   0.956   2.689   2.192
  952SOL     OW  489   1.504   3.469   1.906
  952SOL    HW1  490   1.412   3.506   1.913
  952SOL    HW2  491   1.542   3.489   1.816
  954SOL     OW  492   1.614   3.154   3.151
  954SOL    HW1  493   1.674   3.157   3.231
  954SOL    HW2  494   1.539   3.218   3.164
  955SOL     OW  495   1.039   2.960   2.558
  955SOL    HW1  496   0.969   2.913   2.612
  955SOL    HW2  497   1.098   2.892   2.515
  956SOL     OW  498   1.014   2.098   2.833
  956SOL    HW1  499   1.006   2.062   2.740
  956SOL    HW2  500   1.012   2.022   2.898
  958SOL     OW  501   1.709   2.247   3.243
  958SOL    HW1  502   1.782   2.316   3.247
  958SOL    HW2  503   1.737   2.172   3.184
  963SOL     OW  504   1.440   2.718   3.260
  963SOL    HW1  505   1.383   2.770   3.197
  963SOL    HW2  506   1.536   2.730   3.236
  965SOL     OW  507   1.183   3.197   1.981
  965SOL    HW1  508   1.084   3.186   1.983
  965SOL    HW2  509   1.217   3.212   2.074
  967SOL     OW  510   1.493   3.629   2.821
  967SOL    HW1  511   1.526   3.693   2.752
  967SOL    HW2  512   1.559   3.623   2.896
  969SOL     OW  513   1.450   3.082   3.495
  969SOL    HW1  514   1.441   3.072   3.594
  969SOL    HW2  515   1.546   3.075   3.469
  971SOL     OW  516   1.674   2.745   3.116
  971SOL    HW1  517   1.647   2.656   3.079
  971SOL    HW2  518   1.675   2.813   3.043
  972SOL     OW  519   1.225   2.187   2.311
  972SOL    HW1  520   1.290   2.113   2.300
  972SOL    HW2  521   1.245   2.237   2.395
  974SOL     OW  522   1.777   2.204   3.504
  974SOL    HW1  523   1.760   2.235   3.410
  974SOL    HW2  524   1.693   2.167   3.542
  975SOL     OW  525   1.730   2.796   3.379
  975SOL    HW1  526   1.768   2.887   3.394
  975SOL    HW2  527   1.722   2.779   3.280
  978SOL     OW  528   0.859   2.818   2.723
  978SOL    HW1  529   0.913   2.749   2.771
  978SOL    HW2  530   0.827   2.887   2.789
  979SOL     OW  531   1.083   2.846   1.949
  979SOL    HW1  532   1.060   2.899   1.867
  979SOL    HW2  533   1.164   2.790   1.930
  980SOL     OW  534   1.861   3.431   2.713
  980SOL    HW1  535   1.790   3.419   2.643
  980SOL    HW2  536   1.862   3.352   2.773
  984SOL     OW  537   1.824   2.054   3.089
  984SOL    HW1  538   1.820   1.964   3.133
  984SOL    HW2  539   1.827   2.043   2.990
  986SOL     OW  540   1.705   3.349   2.966
  986SOL    HW1  541   1.612   3.324   2.939
  986SOL    HW2  542   1.731   3.299   3.048
  989SOL     OW  543   1.424   2.076   2.974
  989SOL    HW1  544   1.476   2.011   3.029
  989SOL    HW2  545   1.375   2.139   3.035
  990SOL     OW  546   1.001   1.896   3.016
  990SOL    HW1  547   0.938   1.824   2.985
  990SOL    HW2  548   1.094   1.860   3.016
  993SOL     OW  549   1.352   1.914   2.030
  993SOL    HW1  550   1.387   1.873   1.946
  993SOL    HW2  551   1.262   1.876   2.050
  994SOL     OW  552   1.300   2.315   2.553
  994SOL    HW1  553   1.241   2.395   2.557
  994SOL    HW2  554   1.315   2.280   2.646
  995SOL     OW  555   1.593   2.083   2.744
  995SOL    HW1  556   1.509   2.082   2.798
  995SOL    HW2  557   1.595   2.166   2.688
 1004SOL     OW  558   1.755   2.469   3.955
 1004SOL    HW1  559   1.743   2.456   3.856
 1004SOL    HW2  560   1.725   2.388   4.004
 1021SOL     OW  561   1.525   2.861   3.914
 1021SOL    HW1  562   1.462   2.785   3.927
 1021SOL    HW2  563   1.573   2.879   4.000
 1039SOL     OW  564   1.632   3.239   3.805
 1039SOL    HW1  565   1.600   3.333   3.795
 1039SOL    HW2  566   1.556   3.176   3.793
 1049SOL     OW  567   1.434   3.050   3.765
 1049SOL    HW1  568   1.466   2.974   3.822
 1049SOL    HW2  569   1.342   3.077   3.795
 1060SOL     OW  570   1.857   2.695   4.101
 1060SOL    HW1  571   1.899   2.631   4.165
 1060SOL    HW2  572   1.819   2.644   4.023
 1063SOL     OW  573   1.390   2.437   3.802
 1063SOL    HW1  574   1.336   2.416   3.883
 1063SOL    HW2  575   1.481   2.396   3.811
 1083SOL     OW  576   1.540   2.136   3.849
 1083SOL    HW1  577   1.479   2.061   3.872
 1083SOL    HW2  578   1.562   2.188   3.932
 1084SOL     OW  579   1.303   2.700   3.766
 1084SOL    HW1  580   1.337   2.607   3.781
 1084SOL    HW2  581   1.321   2.727   3.671
 1326SOL     OW  582   1.400   3.831   2.288
 1326SOL    HW1  583   1.376   3.794   2.198
 1326SOL    HW2  584   1.499   3.847   2.292
 1392SOL     OW  585   1.726   3.859   2.385
 1392SOL    HW1  586   1.799   3.842   2.318
 1392SOL    HW2  587   1.695   3.772   2.423
 1394SOL     OW  588   1.841   3.899   2.825
 1394SOL    HW1  589   1.880   3.814   2.789
 1394SOL    HW2  590   1.743   3.901   2.806
 1419SOL     OW  591   1.824   3.916   3.089
 1419SOL    HW1  592   1.820   3.826   3.133
 1419SOL    HW2  593   1.827   3.905   2.990
 1425SOL     OW  594   1.352   3.776   2.030
 1425SOL    HW1  595   1.387   3.735   1.946
 1425SOL    HW2  596   1.262   3.738   2.050
 1427SOL     OW  597   1.593   3.945   2.744
 1427SOL    HW1  598   1.509   3.944   2.798
 1427SOL    HW2  599   1.595   4.028   2.688
 1539SOL     OW  600   2.548   1.161   1.803
 1539SOL    HW1  601   2.608   1.240   1.817
 1539SOL    HW2  602   2.462   1.192   1.762
 1541SOL     OW  603   3.322   1.505   1.339
 1541SOL    HW1  604   3.346   1.599   1.365
 1541SOL    HW2  605   3.306   1.451   1.421
 1545SOL     OW  606   2.989   1.341   1.690
 1545SOL    HW1  607   3.036   1.341   1.778
 1545SOL    HW2  608   2.941   1.254   1.679
 1548SOL     OW  609   2.482   1.786   1.439
 1548SOL    HW1  610   2.390   1.769   1.474
 1548SOL    HW2  611   2.510   1.878   1.465
 1558SOL     OW  612   3.155   1.228   1.423
 1558SOL    HW1  613   3.192   1.155   1.365
 1558SOL    HW2  614   3.207   1.233   1.508
 1562SOL     OW  615   3.049   1.792   1.616
 1562SOL    HW1  616   3.073   1.852   1.540
 1562SOL    HW2  617   3.056   1.697   1.586
 1575SOL     OW  618   1.992   1.821   1.571
 1575SOL    HW1  619   1.982   1.806   1.670
 1575SOL    HW2  620   1.906   1.857   1.535
 1583SOL     OW  621   3.089   1.550   1.506
 1583SOL    HW1  622   3.095   1.473   1.570
 1583SOL    HW2  623   3.037   1.524   1.426
 1586SOL     OW  624   2.323   1.266   1.727
 1586SOL    HW1  625   2.273   1.267   1.641
 1586SOL    HW2  626   2.260   1.248   1.803
 1592SOL     OW  627   2.111   1.785   1.241
 1592SOL    HW1  628   2.168   1.720   1.291
 1592SOL    HW2  629   2.095   1.752   1.148
 1598SOL     OW  630   2.750   1.514   1.195
 1598SOL    HW1  631   2.727   1.489   1.101
 1598SOL    HW2  632   2.811   1.445   1.234
 1623SOL     OW  633   2.926   1.347   1.340
 1623SOL    HW1  634   2.846   1.324   1.395
 1623SOL    HW2  635   3.009   1.321   1.389
 1624SOL     OW  636   3.454   1.629   1.625
 1624SOL    HW1  637   3.481   1.663   1.535
 1624SOL    HW2  638   3.533   1.591   1.671
 1628SOL     OW  639   2.842   1.116   1.719
 1628SOL    HW1  640   2.743   1.122   1.729
 1628SOL    HW2  641   2.865   1.036   1.663
 1632SOL     OW  642   1.926   1.564   1.331
 1632SOL    HW1  643   1.880   1.646   1.297
 1632SOL    HW2  644   2.024   1.583   1.340
 1638SOL     OW  645   2.216   1.510   1.329
 1638SOL    HW1  646   2.195   1.466   1.242
 1638SOL    HW2  647   2.313   1.536   1.332
 1653SOL     OW  648   2.842   1.573   1.700
 1653SOL    HW1  649   2.822   1.617   1.612
 1653SOL    HW2  650   2.881   1.482   1.684
 1655SOL     OW  651   2.212   0.898   1.804
 1655SOL    HW1  652   2.288   0.942   1.852
 1655SOL    HW2  653   2.247   0.851   1.722
 1672SOL     OW  654   2.114   1.564   1.744
 1672SOL    HW1  655   2.084   1.621   1.820
 1672SOL    HW2  656   2.107   1.467   1.770
 1674SOL     OW  657   2.792   1.678   1.465
 1674SOL    HW1  658   2.768   1.660   1.370
 1674SOL    HW2  659   2.822   1.772   1.475
 1676SOL     OW  660   2.021   1.137   1.466
 1676SOL    HW1  661   2.043   1.076   1.542
 1676SOL    HW2  662   2.031   1.088   1.380
 1680SOL     OW  663   3.114   1.731   1.128
 1680SOL    HW1  664   3.198   1.736   1.074
 1680SOL    HW2  665   3.091   1.635   1.146
 1682SOL     OW  666   2.550   1.662   1.716
 1682SOL    HW1  667   2.494   1.743   1.725
 1682SOL    HW2  668   2.602   1.666   1.630
 1686SOL     OW  669   1.992   1.794   1.851
 1686SOL    HW1  670   1.951   1.720   1.904
 1686SOL    HW2  671   2.056   1.845   1.909
 1688SOL     OW  672   2.692   1.273   1.422
 1688SOL    HW1  673   2.687   1.306   1.517
 1688SOL    HW2  674   2.606   1.292   1.376
 1690SOL     OW  675   3.512   1.720   1.394
 1690SOL    HW1  676   3.565   1.730   1.310
 1690SOL    HW2  677   3.485   1.810   1.428
 1697SOL     OW  678   2.234   1.288   1.490
 1697SOL    HW1  679   2.221   1.381   1.456
 1697SOL    HW2  680   2.150   1.236   1.477
 1704SOL     OW  681   1.967   1.013   1.726
 1704SOL    HW1  682   1.890   0.980   1.780
 1704SOL    HW2  683   2.052   0.983   1.768
 1712SOL     OW  684   3.312   1.220   1.633
 1712SOL    HW1  685   3.303   1.210   1.732
 1712SOL    HW2  686   3.408   1.213   1.607
 1713SOL     OW  687   2.252   1.741   1.560
 1713SOL    HW1  688   2.161   1.782   1.558
 1713SOL    HW2  689   2.245   1.647   1.592
 1720SOL     OW  690   2.523   1.790   0.953
 1720SOL    HW1  691   2.477   1.878   0.940
 1720SOL    HW2  692   2.622   1.802   0.946
 1724SOL     OW  693   2.083   1.314   1.844
 1724SOL    HW1  694   2.018   1.241   1.823
 1724SOL    HW2  695   2.087   1.328   1.942
 1726SOL     OW  696   2.534   1.391   1.624
 1726SOL    HW1  697   2.456   1.341   1.662
 1726SOL    HW2  698   2.531   1.486   1.655
 1735SOL     OW  699   2.480   1.567   1.284
 1735SOL    HW1  700   2.475   1.649   1.341
 1735SOL    HW2  701   2.569   1.564   1.239
 1743SOL     OW  702   2.431   1.275   3.027
 1743SOL    HW1  703   2.338   1.268   2.990
 1743SOL    HW2  704   2.442   1.364   3.071
 1744SOL     OW  705   3.417   1.511   2.565
 1744SOL    HW1  706   3.360   1.495   2.646
 1744SOL    HW2  707   3.358   1.521   2.485
 1747SOL     OW  708   2.630   1.144   2.885
 1747SOL    HW1  709   2.552   1.161   2.945
 1747SOL    HW2  710   2.664   1.231   2.849
 1749SOL     OW  711   2.547   1.012   2.527
 1749SOL    HW1  712   2.616   0.996   2.597
 1749SOL    HW2  713   2.474   1.069   2.565
 1750SOL     OW  714   2.548   1.161   3.665
 1750SOL    HW1  715   2.608   1.240   3.679
 1750SOL    HW2  716   2.462   1.192   3.624
 1751SOL     OW  717   2.197   1.435   2.923
 1751SOL    HW1  718   2.119   1.404   2.870
 1751SOL    HW2  719   2.255   1.493   2.866
 1752SOL     OW  720   3.322   1.505   3.201
 1752SOL    HW1  721   3.346   1.599   3.227
 1752SOL    HW2  722   3.306   1.451   3.283
 1755SOL     OW  723   2.093   1.713   2.345
 1755SOL    HW1  724   2.127   1.790   2.399
 1755SOL    HW2  725   2.137   1.713   2.255
 1756SOL     OW  726   2.989   1.341   3.552
 1756SOL    HW1  727   3.036   1.341   3.640
 1756SOL    HW2  728   2.941   1.254   3.541
 1757SOL     OW  729   2.092   1.434   2.400
 1757SOL    HW1  730   2.066   1.530   2.400
 1757SOL    HW2  731   2.021   1.380   2.445
 1758SOL     OW  732   2.102   1.091   2.748
 1758SOL    HW1  733   2.116   1.007   2.800
 1758SOL    HW2  734   2.047   1.155   2.803
 1759SOL     OW  735   2.482   1.786   3.301
 1759SOL    HW1  736   2.390   1.769   3.336
 1759SOL    HW2  737   2.510   1.878   3.327
 1760SOL     OW  738   2.468   0.964   1.985
 1760SOL    HW1  739   2.475   1.048   1.931
 1760SOL    HW2  740   2.514   0.977   2.073
 1763SOL     OW  741   3.704   1.767   2.221
 1763SOL    HW1  742   3.758   1.738   2.301
 1763SOL    HW2  743   3.734   1.857   2.192
 1764SOL     OW  744   1.889   1.596   1.979
 1764SOL    HW1  745   1.870   1.500   2.000
 1764SOL    HW2  746   1.856   1.654   2.054
 1766SOL     OW  747   3.503   1.108   2.294
 1766SOL    HW1  748   3.589   1.110   2.242
 1766SOL    HW2  749   3.517   1.155   2.382
 1768SOL     OW  750   2.475   1.365   2.588
 1768SOL    HW1  751   2.426   1.278   2.597
 1768SOL    HW2  752   2.452   1.408   2.501
 1769SOL     OW  753   3.155   1.228   3.285
 1769SOL    HW1  754   3.192   1.155   3.227
 1769SOL    HW2  755   3.207   1.233   3.370
 1771SOL     OW  756   2.059   0.976   3.126
 1771SOL    HW1  757   2.148   0.931   3.112
 1771SOL    HW2  758   1.986   0.911   3.107
 1773SOL     OW  759   3.049   1.792   3.478
 1773SOL    HW1  760   3.073   1.852   3.402
 1773SOL    HW2  761   3.056   1.697   3.448
 1775SOL     OW  762   3.328   1.417   2.815
 1775SOL    HW1  763   3.269   1.423   2.895
 1775SOL    HW2  764   3.313   1.329   2.769
 1776SOL     OW  765   3.529   1.714   2.434
 1776SOL    HW1  766   3.488   1.691   2.346
 1776SOL    HW2  767   3.511   1.640   2.499
 1779SOL     OW  768   3.438   1.662   2.169
 1779SOL    HW1  769   3.527   1.708   2.172
 1779SOL    HW2  770   3.417   1.638   2.074
 1785SOL     OW  771   1.938   0.811   2.651
 1785SOL    HW1  772   2.037   0.799   2.660
 1785SOL    HW2  773   1.914   0.906   2.672
 1786SOL     OW  774   1.992   1.821   3.433
 1786SOL    HW1  775   1.982   1.806   3.532
 1786SOL    HW2  776   1.906   1.857   3.397
 1789SOL     OW  777   3.224   1.144   2.407
 1789SOL    HW1  778   3.307   1.115   2.359
 1789SOL    HW2  779   3.175   1.211   2.351
 1791SOL     OW  780   2.870   1.456   2.339
 1791SOL    HW1  781   2.824   1.528   2.287
 1791SOL    HW2  782   2.866   1.476   2.437
 1792SOL     OW  783   2.213   1.801   2.715
 1792SOL    HW1  784   2.263   1.715   2.721
 1792SOL    HW2  785   2.278   1.878   2.712
 1794SOL     OW  786   3.089   1.550   3.368
 1794SOL    HW1  787   3.095   1.473   3.432
 1794SOL    HW2  788   3.037   1.524   3.288
 1795SOL     OW  789   2.183   0.943   2.104
 1795SOL    HW1  790   2.265   0.982   2.062
 1795SOL    HW2  791   2.156   0.861   2.055
 1797SOL     OW  792   2.323   1.266   3.589
 1797SOL    HW1  793   2.273   1.267   3.503
 1797SOL    HW2  794   2.260   1.248   3.665
 1798SOL     OW  795   2.973   1.776   2.099
 1798SOL    HW1  796   2.913   1.714   2.149
 1798SOL    HW2  797   3.004   1.732   2.014
 1800SOL     OW  798   3.494   1.377   1.943
 1800SOL    HW1  799   3.462   1.471   1.933
 1800SOL    HW2  800   3.418   1.314   1.931
 1801SOL     OW  801   2.326   1.743   2.185
 1801SOL    HW1  802   2.359   1.782   2.271
 1801SOL    HW2  803   2.402   1.736   2.120
 1803SOL     OW  804   2.111   1.785   3.103
 1803SOL    HW1  805   2.168   1.720   3.153
 1803SOL    HW2  806   2.095   1.752   3.010
 1804SOL     OW  807   2.802   1.698   2.766
 1804SOL    HW1  808   2.882   1.641   2.787
 1804SOL    HW2  809   2.753   1.658   2.689
 1809SOL     OW  810   2.750   1.514   3.057
 1809SOL    HW1  811   2.727   1.489   2.963
 1809SOL    HW2  812   2.811   1.445   3.096
 1811SOL     OW  813   2.665   1.402   2.786
 1811SOL    HW1  814   2.755   1.416   2.744
 1811SOL    HW2  815   2.594   1.404   2.715
 1814SOL     OW  816   3.296   1.188   1.903
 1814SOL    HW1  817   3.328   1.112   1.960
 1814SOL    HW2  818   3.204   1.215   1.933
 1818SOL     OW  819   3.089   1.570   2.655
 1818SOL    HW1  820   3.110   1.644   2.590
 1818SOL    HW2  821   3.157   1.570   2.728
 1819SOL     OW  822   2.321   1.152   2.603
 1819SOL    HW1  823   2.250   1.125   2.668
 1819SOL    HW2  824   2.295   1.124   2.510
 1820SOL     OW  825   3.133   1.797   2.453
 1820SOL    HW1  826   3.177   1.861   2.389
 1820SOL    HW2  827   3.083   1.849   2.523
 1826SOL     OW  828   3.291   1.173   2.729
 1826SOL    HW1  829   3.236   1.089   2.722
 1826SOL    HW2  830   3.317   1.202   2.637
 1829SOL     OW  831   2.350   1.385   2.036
 1829SOL    HW1  832   2.263   1.370   2.083
 1829SOL    HW2  833   2.333   1.411   1.941
 1830SOL     OW  834   3.526   1.280   2.519
 1830SOL    HW1  835   3.625   1.288   2.533
 1830SOL    HW2  836   3.481   1.364   2.550
 1834SOL     OW  837   2.926   1.347   3.202
 1834SOL    HW1  838   2.846   1.324   3.257
 1834SOL    HW2  839   3.009   1.321   3.251
 1835SOL     OW  840   3.454   1.629   3.487
 1835SOL    HW1  841   3.481   1.663   3.397
 1835SOL    HW2  842   3.533   1.591   3.533
 1836SOL     OW  843   2.973   1.195   2.962
 1836SOL    HW1  844   2.933   1.239   3.043
 1836SOL    HW2  845   2.932   1.232   2.879
 1837SOL     OW  846   3.500   1.099   2.941
 1837SOL    HW1  847   3.505   1.180   3.000
 1837SOL    HW2  848   3.414   1.101   2.890
 1839SOL     OW  849   2.842   1.116   3.581
 1839SOL    HW1  850   2.743   1.122   3.591
 1839SOL    HW2  851   2.865   1.036   3.525
 1840SOL     OW  852   2.567   1.050   2.230
 1840SOL    HW1  853   2.553   1.057   2.329
 1840SOL    HW2  854   2.651   0.999   2.212
 1843SOL     OW  855   1.926   1.564   3.193
 1843SOL    HW1  856   1.880   1.646   3.159
 1843SOL    HW2  857   2.024   1.583   3.202
 1844SOL     OW  858   2.229   1.100   2.363
 1844SOL    HW1  859   2.222   1.183   2.307
 1844SOL    HW2  860   2.233   1.020   2.303
 1846SOL     OW  861   3.114   1.348   2.250
 1846SOL    HW1  862   3.164   1.425   2.290
 1846SOL    HW2  863   3.019   1.350   2.282
 1847SOL     OW  864   3.134   1.445   3.004
 1847SOL    HW1  865   3.181   1.458   3.091
 1847SOL    HW2  866   3.068   1.371   3.013
 1849SOL     OW  867   2.216   1.510   3.191
 1849SOL    HW1  868   2.195   1.466   3.104
 1849SOL    HW2  869   2.313   1.536   3.194
 1854SOL     OW  870   2.435   0.870   2.891
 1854SOL    HW1  871   2.479   0.959   2.882
 1854SOL    HW2  872   2.372   0.870   2.968
 1858SOL     OW  873   1.899   1.310   3.144
 1858SOL    HW1  874   1.952   1.261   3.212
 1858SOL    HW2  875   1.921   1.408   3.149
 1864SOL     OW  876   2.842   1.573   3.562
 1864SOL    HW1  877   2.822   1.617   3.474
 1864SOL    HW2  878   2.881   1.482   3.546
 1869SOL     OW  879   2.930   1.333   2.711
 1869SOL    HW1  880   2.937   1.249   2.656
 1869SOL    HW2  881   2.992   1.402   2.675
 1870SOL     OW  882   2.181   0.810   2.811
 1870SOL    HW1  883   2.274   0.846   2.816
 1870SOL    HW2  884   2.175   0.725   2.863
 1874SOL     OW  885   1.870   1.326   2.062
 1874SOL    HW1  886   1.777   1.347   2.031
 1874SOL    HW2  887   1.880   1.227   2.075
 1875SOL     OW  888   1.950   1.801   2.789
 1875SOL    HW1  889   1.908   1.715   2.762
 1875SOL    HW2  890   2.044   1.804   2.755
 1876SOL     OW  891   2.366   1.568   2.772
 1876SOL    HW1  892   2.432   1.642   2.781
 1876SOL    HW2  893   2.410   1.489   2.730
 1883SOL     OW  894   2.114   1.564   3.606
 1883SOL    HW1  895   2.084   1.621   3.682
 1883SOL    HW2  896   2.107   1.467   3.632
 1885SOL     OW  897   2.792   1.678   3.327
 1885SOL    HW1  898   2.768   1.660   3.232
 1885SOL    HW2  899   2.822   1.772   3.337
 1887SOL     OW  900   2.021   1.137   3.328
 1887SOL    HW1  901   2.043   1.076   3.404
 1887SOL    HW2  902   2.031   1.088   3.242
 1888SOL     OW  903   3.209   1.059   3.096
 1888SOL    HW1  904   3.233   0.996   3.022
 1888SOL    HW2  905   3.119   1.099   3.078
 1890SOL     OW  906   3.621   1.747   3.016
 1890SOL    HW1  907   3.682   1.777   2.943
 1890SOL    HW2  908   3.583   1.658   2.994
 1891SOL     OW  909   3.114   1.731   2.990
 1891SOL    HW1  910   3.198   1.736   2.936
 1891SOL    HW2  911   3.091   1.635   3.008
 1892SOL     OW  912   1.945   1.258   2.884
 1892SOL    HW1  913   1.940   1.257   2.984
 1892SOL    HW2  914   1.862   1.217   2.846
 1893SOL     OW  915   2.550   1.662   3.578
 1893SOL    HW1  916   2.494   1.743   3.587
 1893SOL    HW2  917   2.602   1.666   3.492
 1895SOL     OW  918   3.250   1.573   2.339
 1895SOL    HW1  919   3.317   1.585   2.265
 1895SOL    HW2  920   3.210   1.662   2.362
 1896SOL     OW  921   1.992   1.794   3.713
 1896SOL    HW1  922   1.951   1.720   3.766
 1896SOL    HW2  923   2.056   1.845   3.771
 1897SOL     OW  924   3.142   0.927   2.534
 1897SOL    HW1  925   3.202   0.846   2.536
 1897SOL    HW2  926   3.182   0.996   2.474
 1898SOL     OW  927   2.692   1.273   3.284
 1898SOL    HW1  928   2.687   1.306   3.379
 1898SOL    HW2  929   2.606   1.292   3.238
 1899SOL     OW  930   2.534   1.616   2.016
 1899SOL    HW1  931   2.543   1.626   1.917
 1899SOL    HW2  932   2.494   1.527   2.037
 1900SOL     OW  933   3.512   1.720   3.256
 1900SOL    HW1  934   3.565   1.730   3.172
 1900SOL    HW2  935   3.485   1.810   3.290
 1903SOL     OW  936   3.056   1.612   1.893
 1903SOL    HW1  937   3.062   1.519   1.930
 1903SOL    HW2  938   2.997   1.612   1.813
 1904SOL     OW  939   2.684   1.002   3.234
 1904SOL    HW1  940   2.724   1.001   3.142
 1904SOL    HW2  941   2.694   1.094   3.274
 1905SOL     OW  942   2.778   0.910   2.153
 1905SOL    HW1  943   2.841   0.948   2.085
 1905SOL    HW2  944   2.818   0.827   2.192
 1906SOL     OW  945   3.366   1.607   1.906
 1906SOL    HW1  946   3.274   1.644   1.913
 1906SOL    HW2  947   3.404   1.627   1.816
 1907SOL     OW  948   2.234   1.288   3.352
 1907SOL    HW1  949   2.221   1.381   3.318
 1907SOL    HW2  950   2.150   1.236   3.339
 1908SOL     OW  951   3.476   1.292   3.151
 1908SOL    HW1  952   3.536   1.295   3.231
 1908SOL    HW2  953   3.401   1.356   3.164
 1909SOL     OW  954   2.901   1.098   2.558
 1909SOL    HW1  955   2.831   1.051   2.612
 1909SOL    HW2  956   2.960   1.030   2.515
 1911SOL     OW  957   2.452   1.487   2.353
 1911SOL    HW1  958   2.494   1.429   2.283
 1911SOL    HW2  959   2.408   1.566   2.309
 1913SOL     OW  960   2.117   1.348   2.152
 1913SOL    HW1  961   2.021   1.349   2.125
 1913SOL    HW2  962   2.129   1.401   2.236
 1919SOL     OW  963   3.045   1.335   1.981
 1919SOL    HW1  964   2.946   1.324   1.983
 1919SOL    HW2  965   3.079   1.350   2.074
 1921SOL     OW  966   3.355   1.767   2.821
 1921SOL    HW1  967   3.388   1.831   2.752
 1921SOL    HW2  968   3.421   1.761   2.896
 1924SOL     OW  969   2.252   1.741   3.422
 1924SOL    HW1  970   2.161   1.782   3.420
 1924SOL    HW2  971   2.245   1.647   3.454
 1927SOL     OW  972   2.456   0.745   2.514
 1927SOL    HW1  973   2.506   0.830   2.495
 1927SOL    HW2  974   2.368   0.747   2.466
 1930SOL     OW  975   2.721   1.374   1.878
 1930SOL    HW1  976   2.675   1.389   1.966
 1930SOL    HW2  977   2.765   1.459   1.848
 1931SOL     OW  978   2.523   1.790   2.815
 1931SOL    HW1  979   2.477   1.878   2.802
 1931SOL    HW2  980   2.622   1.802   2.808
 1932SOL     OW  981   2.721   0.956   2.723
 1932SOL    HW1  982   2.775   0.887   2.771
 1932SOL    HW2  983   2.689   1.025   2.789
 1933SOL     OW  984   2.945   0.984   1.949
 1933SOL    HW1  985   2.922   1.037   1.867
 1933SOL    HW2  986   3.026   0.928   1.930
 1934SOL     OW  987   3.723   1.569   2.713
 1934SOL    HW1  988   3.652   1.557   2.643
 1934SOL    HW2  989   3.724   1.490   2.773
 1935SOL     OW  990   2.083   1.314   3.706
 1935SOL    HW1  991   2.018   1.241   3.685
 1935SOL    HW2  992   2.087   1.328   3.804
 1936SOL     OW  993   1.941   1.240   2.515
 1936SOL    HW1  994   1.940   1.193   2.603
 1936SOL    HW2  995   2.023   1.212   2.464
 1937SOL     OW  996   2.534   1.391   3.486
 1937SOL    HW1  997   2.456   1.341   3.524
 1937SOL    HW2  998   2.531   1.486   3.517
 1940SOL     OW  999   3.567   1.487   2.966
 1940SOL    HW1 1000   3.474   1.462   2.939
 1940SOL    HW2 1001   3.593   1.437   3.048
 1942SOL     OW 1002   2.674   1.586   2.549
 1942SOL    HW1 1003   2.706   1.596   2.455
 1942SOL    HW2 1004   2.595   1.524   2.551
 1945SOL     OW 1005   2.632   1.330   2.163
 1945SOL    HW1 1006   2.586   1.243   2.180
 1945SOL    HW2 1007   2.723   1.327   2.204
 1946SOL     OW 1008   2.480   1.567   3.146
 1946SOL    HW1 1009   2.475   1.649   3.203
 1946SOL    HW2 1010   2.569   1.564   3.101
 1950SOL     OW 1011   1.901   1.077   2.162
 1950SOL    HW1 1012   2.000   1.066   2.153
 1950SOL    HW2 1013   1.861   0.991   2.194
 1951SOL     OW 1014   2.737   1.646   2.199
 1951SOL    HW1 1015   2.660   1.611   2.145
 1951SOL    HW2 1016   2.705   1.717   2.261
 1969SOL     OW 1017   1.889   1.596   3.841
 1969SOL    HW1 1018   1.870   1.500   3.862
 1969SOL    HW2 1019   1.856   1.654   3.916
 1991SOL     OW 1020   2.973   1.776   3.961
 1991SOL    HW1 1021   2.913   1.714   4.011
 1991SOL    HW2 1022   3.004   1.732   3.876
 1993SOL     OW 1023   2.326   1.743   4.047
 1993SOL    HW1 1024   2.359   1.782   4.133
 1993SOL    HW2 1025   2.402   1.736   3.982
 2014SOL     OW 1026   2.350   1.385   3.898
 2014SOL    HW1 1027   2.263   1.370   3.945
 2014SOL    HW2 1028   2.333   1.411   3.803
 2059SOL     OW 1029   2.534   1.616   3.878
 2059SOL    HW1 1030   2.543   1.626   3.779
 2059SOL    HW2 1031   2.494   1.527   3.899
 2063SOL     OW 1032   3.056   1.612   3.755
 2063SOL    HW1 1033   3.062   1.519   3.792
 2063SOL    HW2 1034   2.997   1.612   3.675
 2066SOL     OW 1035   3.366   1.607   3.768
 2066SOL    HW1 1036   3.274   1.644   3.775
 2066SOL    HW2 1037   3.404   1.627   3.678
 2080SOL     OW 1038   2.721   1.374   3.740
 2080SOL    HW1 1039   2.675   1.389   3.828
 2080SOL    HW2 1040   2.765   1.459   3.710
 2097SOL     OW 1041   2.737   1.646   4.061
 2097SOL    HW1 1042   2.660   1.611   4.007
 2097SOL    HW2 1043   2.705   1.717   4.123
 2099SOL     OW 1044   2.087   2.137   0.996
 2099SOL    HW1 1045   2.122   2.120   1.088
 2099SOL    HW2 1046   1.999   2.092   0.984
 2101SOL     OW 1047   2.431   3.137   1.165
 2101SOL    HW1 1048   2.338   3.130   1.128
 2101SOL    HW2 1049   2.442   3.226   1.209
 2105SOL     OW 1050   2.630   3.006   1.023
 2105SOL    HW1 1051   2.552   3.023   1.083
 2105SOL    HW2 1052   2.664   3.093   0.987
 2106SOL     OW 1053   2.712   2.660   1.823
 2106SOL    HW1 1054   2.708   2.736   1.888
 2106SOL    HW2 1055   2.734   2.696   1.732
 2108SOL     OW 1056   2.548   3.023   1.803
 2108SOL    HW1 1057   2.608   3.102   1.817
 2108SOL    HW2 1058   2.462   3.054   1.762
 2109SOL     OW 1059   2.197   3.297   1.061
 2109SOL    HW1 1060   2.119   3.266   1.008
 2109SOL    HW2 1061   2.255   3.355   1.004
 2110SOL     OW 1062   3.322   3.367   1.339
 2110SOL    HW1 1063   3.346   3.461   1.365
 2110SOL    HW2 1064   3.306   3.313   1.421
 2111SOL     OW 1065   2.300   2.254   1.499
 2111SOL    HW1 1066   2.382   2.198   1.508
 2111SOL    HW2 1067   2.219   2.196   1.503
 2114SOL     OW 1068   2.989   3.203   1.690
 2114SOL    HW1 1069   3.036   3.203   1.778
 2114SOL    HW2 1070   2.941   3.116   1.679
 2116SOL     OW 1071   2.102   2.953   0.886
 2116SOL    HW1 1072   2.116   2.869   0.938
 2116SOL    HW2 1073   2.047   3.017   0.941
 2117SOL     OW 1074   2.482   3.648   1.439
 2117SOL    HW1 1075   2.390   3.631   1.474
 2117SOL    HW2 1076   2.510   3.740   1.465
 2119SOL     OW 1077   3.456   1.976   1.480
 2119SOL    HW1 1078   3.438   2.043   1.408
 2119SOL    HW2 1079   3.453   2.022   1.569
 2125SOL     OW 1080   1.975   2.599   1.597
 2125SOL    HW1 1081   2.063   2.586   1.642
 2125SOL    HW2 1082   1.962   2.696   1.575
 2127SOL     OW 1083   3.155   3.090   1.423
 2127SOL    HW1 1084   3.192   3.017   1.365
 2127SOL    HW2 1085   3.207   3.095   1.508
 2129SOL     OW 1086   2.059   2.838   1.264
 2129SOL    HW1 1087   2.148   2.793   1.250
 2129SOL    HW2 1088   1.986   2.773   1.245
 2131SOL     OW 1089   3.049   3.654   1.616
 2131SOL    HW1 1090   3.073   3.714   1.540
 2131SOL    HW2 1091   3.056   3.559   1.586
 2132SOL     OW 1092   2.179   2.113   1.801
 2132SOL    HW1 1093   2.250   2.184   1.807
 2132SOL    HW2 1094   2.091   2.152   1.829
 2136SOL     OW 1095   3.143   2.207   0.944
 2136SOL    HW1 1096   3.057   2.157   0.931
 2136SOL    HW2 1097   3.205   2.153   1.000
 2138SOL     OW 1098   2.669   2.467   1.465
 2138SOL    HW1 1099   2.622   2.464   1.554
 2138SOL    HW2 1100   2.618   2.412   1.399
 2139SOL     OW 1101   3.256   2.331   1.674
 2139SOL    HW1 1102   3.236   2.374   1.762
 2139SOL    HW2 1103   3.334   2.269   1.683
 2140SOL     OW 1104   2.835   2.752   1.572
 2140SOL    HW1 1105   2.881   2.668   1.543
 2140SOL    HW2 1106   2.779   2.786   1.497
 2141SOL     OW 1107   2.853   2.272   1.242
 2141SOL    HW1 1108   2.776   2.306   1.296
 2141SOL    HW2 1109   2.819   2.221   1.163
 2144SOL     OW 1110   1.992   3.683   1.571
 2144SOL    HW1 1111   1.982   3.668   1.670
 2144SOL    HW2 1112   1.906   3.719   1.535
 2146SOL     OW 1113   3.581   2.447   1.831
 2146SOL    HW1 1114   3.555   2.536   1.795
 2146SOL    HW2 1115   3.579   2.379   1.758
 2148SOL     OW 1116   2.412   2.058   0.885
 2148SOL    HW1 1117   2.407   2.053   0.985
 2148SOL    HW2 1118   2.414   2.154   0.856
 2152SOL     OW 1119   3.089   3.412   1.506
 2152SOL    HW1 1120   3.095   3.335   1.570
 2152SOL    HW2 1121   3.037   3.386   1.426
 2155SOL     OW 1122   2.323   3.128   1.727
 2155SOL    HW1 1123   2.273   3.129   1.641
 2155SOL    HW2 1124   2.260   3.110   1.803
 2157SOL     OW 1125   2.064   2.147   1.498
 2157SOL    HW1 1126   1.984   2.207   1.485
 2157SOL    HW2 1127   2.054   2.098   1.584
 2161SOL     OW 1128   2.111   3.647   1.241
 2161SOL    HW1 1129   2.168   3.582   1.291
 2161SOL    HW2 1130   2.095   3.614   1.148
 2164SOL     OW 1131   3.409   2.084   1.729
 2164SOL    HW1 1132   3.404   2.121   1.821
 2164SOL    HW2 1133   3.337   2.015   1.717
 2166SOL     OW 1134   2.643   2.126   1.749
 2166SOL    HW1 1135   2.710   2.065   1.792
 2166SOL    HW2 1136   2.570   2.145   1.814
 2167SOL     OW 1137   2.750   3.376   1.195
 2167SOL    HW1 1138   2.727   3.351   1.101
 2167SOL    HW2 1139   2.811   3.307   1.234
 2168SOL     OW 1140   3.213   2.452   1.433
 2168SOL    HW1 1141   3.241   2.409   1.518
 2168SOL    HW2 1142   3.238   2.548   1.434
 2169SOL     OW 1143   2.665   3.264   0.924
 2169SOL    HW1 1144   2.755   3.278   0.882
 2169SOL    HW2 1145   2.594   3.266   0.853
 2170SOL     OW 1146   2.784   2.365   0.899
 2170SOL    HW1 1147   2.759   2.356   0.803
 2170SOL    HW2 1148   2.832   2.283   0.930
 2175SOL     OW 1149   2.938   2.545   1.464
 2175SOL    HW1 1150   2.858   2.484   1.467
 2175SOL    HW2 1151   3.019   2.492   1.440
 2180SOL     OW 1152   1.940   2.418   1.386
 2180SOL    HW1 1153   2.032   2.417   1.345
 2180SOL    HW2 1154   1.934   2.492   1.453
 2181SOL     OW 1155   2.423   2.084   1.147
 2181SOL    HW1 1156   2.461   2.000   1.184
 2181SOL    HW2 1157   2.335   2.103   1.191
 2185SOL     OW 1158   3.328   2.452   0.992
 2185SOL    HW1 1159   3.298   2.357   0.999
 2185SOL    HW2 1160   3.401   2.468   1.058
 2191SOL     OW 1161   3.616   3.085   1.588
 2191SOL    HW1 1162   3.707   3.046   1.575
 2191SOL    HW2 1163   3.624   3.181   1.612
 2192SOL     OW 1164   2.926   3.209   1.340
 2192SOL    HW1 1165   2.846   3.186   1.395
 2192SOL    HW2 1166   3.009   3.183   1.389
 2193SOL     OW 1167   3.454   3.491   1.625
 2193SOL    HW1 1168   3.481   3.525   1.535
 2193SOL    HW2 1169   3.533   3.453   1.671
 2194SOL     OW 1170   2.973   3.057   1.100
 2194SOL    HW1 1171   2.933   3.101   1.181
 2194SOL    HW2 1172   2.932   3.094   1.017
 2195SOL     OW 1173   3.500   2.961   1.079
 2195SOL    HW1 1174   3.505   3.042   1.138
 2195SOL    HW2 1175   3.414   2.963   1.028
 2196SOL     OW 1176   2.777   1.951   1.402
 2196SOL    HW1 1177   2.802   1.931   1.307
 2196SOL    HW2 1178   2.849   2.007   1.444
 2197SOL     OW 1179   2.842   2.978   1.719
 2197SOL    HW1 1180   2.743   2.984   1.729
 2197SOL    HW2 1181   2.865   2.898   1.663
 2199SOL     OW 1182   2.272   2.675   1.251
 2199SOL    HW1 1183   2.358   2.687   1.301
 2199SOL    HW2 1184   2.230   2.588   1.278
 2200SOL     OW 1185   3.136   2.248   1.262
 2200SOL    HW1 1186   3.157   2.322   1.326
 2200SOL    HW2 1187   3.047   2.265   1.219
 2201SOL     OW 1188   1.926   3.426   1.331
 2201SOL    HW1 1189   1.880   3.508   1.297
 2201SOL    HW2 1190   2.024   3.445   1.340
 2203SOL     OW 1191   2.428   2.399   0.865
 2203SOL    HW1 1192   2.440   2.465   0.791
 2203SOL    HW2 1193   2.474   2.433   0.948
 2205SOL     OW 1194   3.134   3.307   1.142
 2205SOL    HW1 1195   3.181   3.320   1.229
 2205SOL    HW2 1196   3.068   3.233   1.151
 2207SOL     OW 1197   2.216   3.372   1.329
 2207SOL    HW1 1198   2.195   3.328   1.242
 2207SOL    HW2 1199   2.313   3.398   1.332
 2208SOL     OW 1200   2.264   2.613   1.598
 2208SOL    HW1 1201   2.332   2.668   1.551
 2208SOL    HW2 1202   2.304   2.525   1.625
 2209SOL     OW 1203   3.449   2.641   1.670
 2209SOL    HW1 1204   3.357   2.679   1.665
 2209SOL    HW2 1205   3.509   2.688   1.605
 2210SOL     OW 1206   2.875   1.967   1.770
 2210SOL    HW1 1207   2.881   2.052   1.718
 2210SOL    HW2 1208   2.907   1.891   1.713
 2211SOL     OW 1209   2.366   1.912   1.740
 2211SOL    HW1 1210   2.324   1.855   1.670
 2211SOL    HW2 1211   2.300   1.981   1.772
 2212SOL     OW 1212   2.435   2.732   1.029
 2212SOL    HW1 1213   2.479   2.821   1.020
 2212SOL    HW2 1214   2.372   2.732   1.106
 2213SOL     OW 1215   3.222   2.724   1.045
 2213SOL    HW1 1216   3.147   2.724   0.979
 2213SOL    HW2 1217   3.259   2.632   1.054
 2215SOL     OW 1218   2.169   2.075   1.231
 2215SOL    HW1 1219   2.146   2.112   1.321
 2215SOL    HW2 1220   2.139   1.980   1.225
 2216SOL     OW 1221   1.899   3.172   1.282
 2216SOL    HW1 1222   1.952   3.123   1.350
 2216SOL    HW2 1223   1.921   3.270   1.287
 2217SOL     OW 1224   2.594   2.496   1.064
 2217SOL    HW1 1225   2.653   2.470   0.988
 2217SOL    HW2 1226   2.566   2.592   1.053
 2218SOL     OW 1227   3.590   2.797   1.854
 2218SOL    HW1 1228   3.544   2.790   1.765
 2218SOL    HW2 1229   3.528   2.841   1.920
 2221SOL     OW 1230   2.885   2.628   0.966
 2221SOL    HW1 1231   2.900   2.649   1.062
 2221SOL    HW2 1232   2.855   2.533   0.957
 2222SOL     OW 1233   2.842   3.435   1.700
 2222SOL    HW1 1234   2.822   3.479   1.612
 2222SOL    HW2 1235   2.881   3.344   1.684
 2223SOL     OW 1236   3.721   3.380   1.605
 2223SOL    HW1 1237   3.735   3.407   1.510
 2223SOL    HW2 1238   3.804   3.402   1.658
 2224SOL     OW 1239   2.212   2.760   1.804
 2224SOL    HW1 1240   2.288   2.804   1.852
 2224SOL    HW2 1241   2.247   2.713   1.722
 2228SOL     OW 1242   2.181   2.672   0.949
 2228SOL    HW1 1243   2.274   2.708   0.954
 2228SOL    HW2 1244   2.175   2.587   1.001
 2229SOL     OW 1245   2.201   2.371   1.006
 2229SOL    HW1 1246   2.149   2.288   0.989
 2229SOL    HW2 1247   2.278   2.376   0.942
 2230SOL     OW 1248   3.000   2.242   1.678
 2230SOL    HW1 1249   2.955   2.305   1.742
 2230SOL    HW2 1250   3.093   2.273   1.661
 2231SOL     OW 1251   3.022   2.069   1.477
 2231SOL    HW1 1252   3.022   2.133   1.554
 2231SOL    HW2 1253   3.050   2.117   1.394
 2235SOL     OW 1254   2.864   2.658   1.238
 2235SOL    HW1 1255   2.905   2.626   1.324
 2235SOL    HW2 1256   2.768   2.631   1.235
 2236SOL     OW 1257   1.902   2.406   1.114
 2236SOL    HW1 1258   1.987   2.373   1.073
 2236SOL    HW2 1259   1.915   2.421   1.212
 2237SOL     OW 1260   2.051   2.382   1.722
 2237SOL    HW1 1261   2.110   2.342   1.652
 2237SOL    HW2 1262   1.993   2.453   1.681
 2238SOL     OW 1263   3.231   2.812   1.660
 2238SOL    HW1 1264   3.270   2.901   1.680
 2238SOL    HW2 1265   3.241   2.792   1.563
 2240SOL     OW 1266   3.519   2.466   1.206
 2240SOL    HW1 1267   3.481   2.397   1.268
 2240SOL    HW2 1268   3.601   2.430   1.162
 2241SOL     OW 1269   2.114   3.426   1.744
 2241SOL    HW1 1270   2.084   3.483   1.820
 2241SOL    HW2 1271   2.107   3.329   1.770
 2242SOL     OW 1272   2.533   2.326   1.269
 2242SOL    HW1 1273   2.499   2.237   1.239
 2242SOL    HW2 1274   2.559   2.380   1.189
 2243SOL     OW 1275   2.792   3.540   1.465
 2243SOL    HW1 1276   2.768   3.522   1.370
 2243SOL    HW2 1277   2.822   3.634   1.475
 2245SOL     OW 1278   2.021   2.999   1.466
 2245SOL    HW1 1279   2.043   2.938   1.542
 2245SOL    HW2 1280   2.031   2.950   1.380
 2246SOL     OW 1281   3.209   2.921   1.234
 2246SOL    HW1 1282   3.233   2.858   1.160
 2246SOL    HW2 1283   3.119   2.961   1.216
 2250SOL     OW 1284   1.945   3.120   1.022
 2250SOL    HW1 1285   1.940   3.119   1.122
 2250SOL    HW2 1286   1.862   3.079   0.984
 2251SOL     OW 1287   2.550   3.524   1.716
 2251SOL    HW1 1288   2.494   3.605   1.725
 2251SOL    HW2 1289   2.602   3.528   1.630
 2255SOL     OW 1290   1.992   3.656   1.851
 2255SOL    HW1 1291   1.951   3.582   1.904
 2255SOL    HW2 1292   2.056   3.707   1.909
 2257SOL     OW 1293   2.692   3.135   1.422
 2257SOL    HW1 1294   2.687   3.168   1.517
 2257SOL    HW2 1295   2.606   3.154   1.376
 2263SOL     OW 1296   2.684   2.864   1.372
 2263SOL    HW1 1297   2.724   2.863   1.280
 2263SOL    HW2 1298   2.694   2.956   1.412
 2266SOL     OW 1299   2.234   3.150   1.490
 2266SOL    HW1 1300   2.221   3.243   1.456
 2266SOL    HW2 1301   2.150   3.098   1.477
 2267SOL     OW 1302   3.476   3.154   1.289
 2267SOL    HW1 1303   3.536   3.157   1.369
 2267SOL    HW2 1304   3.401   3.218   1.302
 2269SOL     OW 1305   2.876   2.098   0.971
 2269SOL    HW1 1306   2.868   2.062   0.878
 2269SOL    HW2 1307   2.874   2.022   1.036
 2271SOL     OW 1308   3.571   2.247   1.381
 2271SOL    HW1 1309   3.644   2.316   1.385
 2271SOL    HW2 1310   3.599   2.172   1.322
 2273SOL     OW 1311   1.967   2.875   1.726
 2273SOL    HW1 1312   1.890   2.842   1.780
 2273SOL    HW2 1313   2.052   2.845   1.768
 2274SOL     OW 1314   2.534   2.065   1.489
 2274SOL    HW1 1315   2.624   2.049   1.449
 2274SOL    HW2 1316   2.542   2.070   1.588
 2275SOL     OW 1317   3.302   2.718   1.398
 2275SOL    HW1 1318   3.245   2.770   1.335
 2275SOL    HW2 1319   3.398   2.730   1.374
 2278SOL     OW 1320   2.475   2.704   1.431
 2278SOL    HW1 1321   2.531   2.785   1.414
 2278SOL    HW2 1322   2.534   2.624   1.434
 2280SOL     OW 1323   2.578   2.427   1.708
 2280SOL    HW1 1324   2.597   2.492   1.782
 2280SOL    HW2 1325   2.638   2.347   1.717
 2281SOL     OW 1326   3.312   3.082   1.633
 2281SOL    HW1 1327   3.303   3.072   1.732
 2281SOL    HW2 1328   3.408   3.075   1.607
 2282SOL     OW 1329   2.252   3.603   1.560
 2282SOL    HW1 1330   2.161   3.644   1.558
 2282SOL    HW2 1331   2.245   3.509   1.592
 2283SOL     OW 1332   3.536   2.745   1.254
 2283SOL    HW1 1333   3.509   2.656   1.217
 2283SOL    HW2 1334   3.537   2.813   1.181
 2286SOL     OW 1335   3.639   2.204   1.642
 2286SOL    HW1 1336   3.622   2.235   1.548
 2286SOL    HW2 1337   3.555   2.167   1.680
 2287SOL     OW 1338   3.592   2.796   1.517
 2287SOL    HW1 1339   3.630   2.887   1.532
 2287SOL    HW2 1340   3.584   2.779   1.418
 2290SOL     OW 1341   2.721   2.818   0.861
 2290SOL    HW1 1342   2.775   2.749   0.909
 2290SOL    HW2 1343   2.689   2.887   0.927
 2293SOL     OW 1344   2.083   3.176   1.844
 2293SOL    HW1 1345   2.018   3.103   1.823
 2293SOL    HW2 1346   2.087   3.190   1.942
 2295SOL     OW 1347   2.534   3.253   1.624
 2295SOL    HW1 1348   2.456   3.203   1.662
 2295SOL    HW2 1349   2.531   3.348   1.655
 2296SOL     OW 1350   3.686   2.054   1.227
 2296SOL    HW1 1351   3.682   1.964   1.271
 2296SOL    HW2 1352   3.689   2.043   1.128
 2299SOL     OW 1353   2.179   2.409   1.280
 2299SOL    HW1 1354   2.217   2.350   1.352
 2299SOL    HW2 1355   2.219   2.383   1.192
 2301SOL     OW 1356   3.286   2.076   1.112
 2301SOL    HW1 1357   3.338   2.011   1.167
 2301SOL    HW2 1358   3.237   2.139   1.173
 2302SOL     OW 1359   2.863   1.896   1.154
 2302SOL    HW1 1360   2.800   1.824   1.123
 2302SOL    HW2 1361   2.956   1.860   1.154
 2304SOL     OW 1362   2.480   3.429   1.284
 2304SOL    HW1 1363   2.475   3.511   1.341
 2304SOL    HW2 1364   2.569   3.426   1.239
 2309SOL     OW 1365   2.092   2.490   1.975
 2309SOL    HW1 1366   1.999   2.488   2.012
 2309SOL    HW2 1367   2.093   2.451   1.883
 2310SOL     OW 1368   2.087   2.137   2.858
 2310SOL    HW1 1369   2.122   2.120   2.950
 2310SOL    HW2 1370   1.999   2.092   2.846
 2311SOL     OW 1371   1.881   2.230   2.509
 2311SOL    HW1 1372   1.799   2.273   2.548
 2311SOL    HW2 1373   1.853   2.157   2.446
 2312SOL     OW 1374   2.431   3.137   3.027
 2312SOL    HW1 1375   2.338   3.130   2.990
 2312SOL    HW2 1376   2.442   3.226   3.071
 2313SOL     OW 1377   3.417   3.373   2.565
 2313SOL    HW1 1378   3.360   3.357   2.646
 2313SOL    HW2 1379   3.358   3.383   2.485
 2314SOL     OW 1380   2.997   2.565   2.579
 2314SOL    HW1 1381   3.054   2.643   2.554
 2314SOL    HW2 1382   2.937   2.591   2.655
 2315SOL     OW 1383   3.617   2.469   2.093
 2315SOL    HW1 1384   3.605   2.456   1.994
 2315SOL    HW2 1385   3.587   2.388   2.142
 2316SOL     OW 1386   2.630   3.006   2.885
 2316SOL    HW1 1387   2.552   3.023   2.945
 2316SOL    HW2 1388   2.664   3.093   2.849
 2317SOL     OW 1389   2.712   2.660   3.685
 2317SOL    HW1 1390   2.708   2.736   3.750
 2317SOL    HW2 1391   2.734   2.696   3.594
 2318SOL     OW 1392   2.547   2.874   2.527
 2318SOL    HW1 1393   2.616   2.858   2.597
 2318SOL    HW2 1394   2.474   2.931   2.565
 2319SOL     OW 1395   2.548   3.023   3.665
 2319SOL    HW1 1396   2.608   3.102   3.679
 2319SOL    HW2 1397   2.462   3.054   3.624
 2320SOL     OW 1398   2.197   3.297   2.923
 2320SOL    HW1 1399   2.119   3.266   2.870
 2320SOL    HW2 1400   2.255   3.355   2.866
 2321SOL     OW 1401   3.322   3.367   3.201
 2321SOL    HW1 1402   3.346   3.461   3.227
 2321SOL    HW2 1403   3.306   3.313   3.283
 2322SOL     OW 1404   2.300   2.254   3.361
 2322SOL    HW1 1405   2.382   2.198   3.370
 2322SOL    HW2 1406   2.219   2.196   3.365
 2323SOL     OW 1407   3.465   2.309   2.599
 2323SOL    HW1 1408   3.391   2.355   2.549
 2323SOL    HW2 1409   3.516   2.377   2.652
 2324SOL     OW 1410   2.093   3.575   2.345
 2324SOL    HW1 1411   2.127   3.652   2.399
 2324SOL    HW2 1412   2.137   3.575   2.255
 2325SOL     OW 1413   2.989   3.203   3.552
 2325SOL    HW1 1414   3.036   3.203   3.640
 2325SOL    HW2 1415   2.941   3.116   3.541
 2326SOL     OW 1416   2.092   3.296   2.400
 2326SOL    HW1 1417   2.066   3.392   2.400
 2326SOL    HW2 1418   2.021   3.242   2.445
 2327SOL     OW 1419   2.102   2.953   2.748
 2327SOL    HW1 1420   2.116   2.869   2.800
 2327SOL    HW2 1421   2.047   3.017   2.803
 2328SOL     OW 1422   2.482   3.648   3.301
 2328SOL    HW1 1423   2.390   3.631   3.336
 2328SOL    HW2 1424   2.510   3.740   3.327
 2329SOL     OW 1425   2.468   2.826   1.985
 2329SOL    HW1 1426   2.475   2.910   1.931
 2329SOL    HW2 1427   2.514   2.839   2.073
 2330SOL     OW 1428   3.456   1.976   3.342
 2330SOL    HW1 1429   3.438   2.043   3.270
 2330SOL    HW2 1430   3.453   2.022   3.431
 2331SOL     OW 1431   1.984   2.505   2.425
 2331SOL    HW1 1432   1.939   2.417   2.442
 2331SOL    HW2 1433   1.983   2.559   2.509
 2332SOL     OW 1434   3.704   3.629   2.221
 2332SOL    HW1 1435   3.758   3.600   2.301
 2332SOL    HW2 1436   3.734   3.719   2.192
 2333SOL     OW 1437   1.889   3.458   1.979
 2333SOL    HW1 1438   1.870   3.362   2.000
 2333SOL    HW2 1439   1.856   3.516   2.054
 2334SOL     OW 1440   3.551   2.784   2.474
 2334SOL    HW1 1441   3.646   2.755   2.482
 2334SOL    HW2 1442   3.543   2.849   2.399
 2335SOL     OW 1443   3.503   2.970   2.294
 2335SOL    HW1 1444   3.589   2.972   2.242
 2335SOL    HW2 1445   3.517   3.017   2.382
 2336SOL     OW 1446   1.975   2.599   3.459
 2336SOL    HW1 1447   2.063   2.586   3.504
 2336SOL    HW2 1448   1.962   2.696   3.437
 2337SOL     OW 1449   2.475   3.227   2.588
 2337SOL    HW1 1450   2.426   3.140   2.597
 2337SOL    HW2 1451   2.452   3.270   2.501
 2338SOL     OW 1452   3.155   3.090   3.285
 2338SOL    HW1 1453   3.192   3.017   3.227
 2338SOL    HW2 1454   3.207   3.095   3.370
 2339SOL     OW 1455   2.671   1.866   2.364
 2339SOL    HW1 1456   2.711   1.957   2.355
 2339SOL    HW2 1457   2.571   1.874   2.370
 2340SOL     OW 1458   2.059   2.838   3.126
 2340SOL    HW1 1459   2.148   2.793   3.112
 2340SOL    HW2 1460   1.986   2.773   3.107
 2341SOL     OW 1461   3.387   2.861   2.052
 2341SOL    HW1 1462   3.324   2.785   2.065
 2341SOL    HW2 1463   3.435   2.879   2.138
 2342SOL     OW 1464   3.049   3.654   3.478
 2342SOL    HW1 1465   3.073   3.714   3.402
 2342SOL    HW2 1466   3.056   3.559   3.448
 2343SOL     OW 1467   2.179   2.113   3.663
 2343SOL    HW1 1468   2.250   2.184   3.669
 2343SOL    HW2 1469   2.091   2.152   3.691
 2344SOL     OW 1470   3.328   3.279   2.815
 2344SOL    HW1 1471   3.269   3.285   2.895
 2344SOL    HW2 1472   3.313   3.191   2.769
 2345SOL     OW 1473   3.529   3.576   2.434
 2345SOL    HW1 1474   3.488   3.553   2.346
 2345SOL    HW2 1475   3.511   3.502   2.499
 2346SOL     OW 1476   3.143   2.207   2.806
 2346SOL    HW1 1477   3.057   2.157   2.793
 2346SOL    HW2 1478   3.205   2.153   2.862
 2347SOL     OW 1479   3.438   3.524   2.169
 2347SOL    HW1 1480   3.527   3.570   2.172
 2347SOL    HW2 1481   3.417   3.500   2.074
 2348SOL     OW 1482   2.669   2.467   3.327
 2348SOL    HW1 1483   2.622   2.464   3.416
 2348SOL    HW2 1484   2.618   2.412   3.261
 2349SOL     OW 1485   3.256   2.331   3.536
 2349SOL    HW1 1486   3.236   2.374   3.624
 2349SOL    HW2 1487   3.334   2.269   3.545
 2350SOL     OW 1488   2.835   2.752   3.434
 2350SOL    HW1 1489   2.881   2.668   3.405
 2350SOL    HW2 1490   2.779   2.786   3.359
 2351SOL     OW 1491   2.853   2.272   3.104
 2351SOL    HW1 1492   2.776   2.306   3.158
 2351SOL    HW2 1493   2.819   2.221   3.025
 2352SOL     OW 1494   2.903   2.563   2.291
 2352SOL    HW1 1495   2.929   2.559   2.387
 2352SOL    HW2 1496   2.818   2.512   2.277
 2353SOL     OW 1497   1.938   2.673   2.651
 2353SOL    HW1 1498   2.037   2.661   2.660
 2353SOL    HW2 1499   1.914   2.768   2.672
 2354SOL     OW 1500   1.992   3.683   3.433
 2354SOL    HW1 1501   1.982   3.668   3.532
 2354SOL    HW2 1502   1.906   3.719   3.397
 2355SOL     OW 1503   2.727   2.210   2.057
 2355SOL    HW1 1504   2.786   2.273   2.008
 2355SOL    HW2 1505   2.746   2.116   2.028
 2356SOL     OW 1506   3.581   2.447   3.693
 2356SOL    HW1 1507   3.555   2.536   3.657
 2356SOL    HW2 1508   3.579   2.379   3.620
 2357SOL     OW 1509   3.224   3.006   2.407
 2357SOL    HW1 1510   3.307   2.977   2.359
 2357SOL    HW2 1511   3.175   3.073   2.351
 2358SOL     OW 1512   2.412   2.058   2.747
 2358SOL    HW1 1513   2.407   2.053   2.847
 2358SOL    HW2 1514   2.414   2.154   2.718
 2359SOL     OW 1515   2.870   3.318   2.339
 2359SOL    HW1 1516   2.824   3.390   2.287
 2359SOL    HW2 1517   2.866   3.338   2.437
 2360SOL     OW 1518   2.213   3.663   2.715
 2360SOL    HW1 1519   2.263   3.577   2.721
 2360SOL    HW2 1520   2.278   3.740   2.712
 2361SOL     OW 1521   3.657   2.928   2.735
 2361SOL    HW1 1522   3.595   2.913   2.659
 2361SOL    HW2 1523   3.605   2.939   2.820
 2362SOL     OW 1524   3.089   3.412   3.368
 2362SOL    HW1 1525   3.095   3.335   3.432
 2362SOL    HW2 1526   3.037   3.386   3.288
 2363SOL     OW 1527   2.183   2.805   2.104
 2363SOL    HW1 1528   2.265   2.844   2.062
 2363SOL    HW2 1529   2.156   2.723   2.055
 2364SOL     OW 1530   3.320   2.597   2.590
 2364SOL    HW1 1531   3.315   2.532   2.665
 2364SOL    HW2 1532   3.400   2.656   2.603
 2365SOL     OW 1533   2.323   3.128   3.589
 2365SOL    HW1 1534   2.273   3.129   3.503
 2365SOL    HW2 1535   2.260   3.110   3.665
 2366SOL     OW 1536   2.973   3.638   2.099
 2366SOL    HW1 1537   2.913   3.576   2.149
 2366SOL    HW2 1538   3.004   3.594   2.014
 2367SOL     OW 1539   2.064   2.147   3.360
 2367SOL    HW1 1540   1.984   2.207   3.347
 2367SOL    HW2 1541   2.054   2.098   3.446
 2368SOL     OW 1542   3.494   3.239   1.943
 2368SOL    HW1 1543   3.462   3.333   1.933
 2368SOL    HW2 1544   3.418   3.176   1.931
 2369SOL     OW 1545   2.326   3.605   2.185
 2369SOL    HW1 1546   2.359   3.644   2.271
 2369SOL    HW2 1547   2.402   3.598   2.120
 2370SOL     OW 1548   3.262   1.969   2.288
 2370SOL    HW1 1549   3.238   1.932   2.198
 2370SOL    HW2 1550   3.361   1.985   2.292
 2371SOL     OW 1551   2.111   3.647   3.103
 2371SOL    HW1 1552   2.168   3.582   3.153
 2371SOL    HW2 1553   2.095   3.614   3.010
 2372SOL     OW 1554   2.802   3.560   2.766
 2372SOL    HW1 1555   2.882   3.503   2.787
 2372SOL    HW2 1556   2.753   3.520   2.689
 2373SOL     OW 1557   3.409   2.084   3.591
 2373SOL    HW1 1558   3.404   2.121   3.683
 2373SOL    HW2 1559   3.337   2.015   3.579
 2374SOL     OW 1560   2.476   1.984   1.979
 2374SOL    HW1 1561   2.574   1.962   1.986
 2374SOL    HW2 1562   2.445   1.967   1.886
 2375SOL     OW 1563   2.643   2.126   3.611
 2375SOL    HW1 1564   2.710   2.065   3.654
 2375SOL    HW2 1565   2.570   2.145   3.676
 2376SOL     OW 1566   2.750   3.376   3.057
 2376SOL    HW1 1567   2.727   3.351   2.963
 2376SOL    HW2 1568   2.811   3.307   3.096
 2377SOL     OW 1569   3.213   2.452   3.295
 2377SOL    HW1 1570   3.241   2.409   3.380
 2377SOL    HW2 1571   3.238   2.548   3.296
 2378SOL     OW 1572   2.665   3.264   2.786
 2378SOL    HW1 1573   2.755   3.278   2.744
 2378SOL    HW2 1574   2.594   3.266   2.715
 2379SOL     OW 1575   2.401   1.926   2.374
 2379SOL    HW1 1576   2.320   1.927   2.432
 2379SOL    HW2 1577   2.404   2.009   2.319
 2380SOL     OW 1578   3.296   3.050   1.903
 2380SOL    HW1 1579   3.328   2.974   1.960
 2380SOL    HW2 1580   3.204   3.077   1.933
 2381SOL     OW 1581   2.159   1.897   2.033
 2381SOL    HW1 1582   2.208   1.981   2.012
 2381SOL    HW2 1583   2.221   1.832   2.078
 2382SOL     OW 1584   2.797   2.098   2.342
 2382SOL    HW1 1585   2.749   2.139   2.264
 2382SOL    HW2 1586   2.896   2.096   2.323
 2383SOL     OW 1587   2.938   2.545   3.326
 2383SOL    HW1 1588   2.858   2.484   3.329
 2383SOL    HW2 1589   3.019   2.492   3.302
 2384SOL     OW 1590   3.089   3.432   2.655
 2384SOL    HW1 1591   3.110   3.506   2.590
 2384SOL    HW2 1592   3.157   3.432   2.728
 2385SOL     OW 1593   2.321   3.014   2.603
 2385SOL    HW1 1594   2.250   2.987   2.668
 2385SOL    HW2 1595   2.295   2.986   2.510
 2386SOL     OW 1596   3.133   3.659   2.453
 2386SOL    HW1 1597   3.177   3.723   2.389
 2386SOL    HW2 1598   3.083   3.711   2.523
 2387SOL     OW 1599   2.894   2.411   1.878
 2387SOL    HW1 1600   2.853   2.493   1.839
 2387SOL    HW2 1601   2.958   2.437   1.951
 2388SOL     OW 1602   1.940   2.418   3.248
 2388SOL    HW1 1603   2.032   2.417   3.207
 2388SOL    HW2 1604   1.934   2.492   3.315
 2389SOL     OW 1605   2.423   2.084   3.009
 2389SOL    HW1 1606   2.461   2.000   3.046
 2389SOL    HW2 1607   2.335   2.103   3.053
 2390SOL     OW 1608   2.879   1.901   2.615
 2390SOL    HW1 1609   2.807   1.906   2.546
 2390SOL    HW2 1610   2.855   1.832   2.684
 2391SOL     OW 1611   3.291   3.035   2.729
 2391SOL    HW1 1612   3.236   2.951   2.722
 2391SOL    HW2 1613   3.317   3.064   2.637
 2392SOL     OW 1614   3.328   2.452   2.854
 2392SOL    HW1 1615   3.298   2.357   2.861
 2392SOL    HW2 1616   3.401   2.468   2.920
 2393SOL     OW 1617   3.719   2.695   2.239
 2393SOL    HW1 1618   3.761   2.631   2.303
 2393SOL    HW2 1619   3.681   2.644   2.161
 2394SOL     OW 1620   2.350   3.247   2.036
 2394SOL    HW1 1621   2.263   3.232   2.083
 2394SOL    HW2 1622   2.333   3.273   1.941
 2395SOL     OW 1623   3.526   3.142   2.519
 2395SOL    HW1 1624   3.625   3.150   2.533
 2395SOL    HW2 1625   3.481   3.226   2.550
 2396SOL     OW 1626   3.252   2.437   1.940
 2396SOL    HW1 1627   3.198   2.416   2.021
 2396SOL    HW2 1628   3.343   2.396   1.949
 2397SOL     OW 1629   2.389   2.118   2.190
 2397SOL    HW1 1630   2.416   2.059   2.115
 2397SOL    HW2 1631   2.389   2.213   2.159
 2398SOL     OW 1632   3.616   3.085   3.450
 2398SOL    HW1 1633   3.707   3.046   3.437
 2398SOL    HW2 1634   3.624   3.181   3.474
 2399SOL     OW 1635   2.926   3.209   3.202
 2399SOL    HW1 1636   2.846   3.186   3.257
 2399SOL    HW2 1637   3.009   3.183   3.251
 2400SOL     OW 1638   3.454   3.491   3.487
 2400SOL    HW1 1639   3.481   3.525   3.397
 2400SOL    HW2 1640   3.533   3.453   3.533
 2401SOL     OW 1641   2.973   3.057   2.962
 2401SOL    HW1 1642   2.933   3.101   3.043
 2401SOL    HW2 1643   2.932   3.094   2.879
 2402SOL     OW 1644   3.500   2.961   2.941
 2402SOL    HW1 1645   3.505   3.042   3.000
 2402SOL    HW2 1646   3.414   2.963   2.890
 2403SOL     OW 1647   2.777   1.951   3.264
 2403SOL    HW1 1648   2.802   1.931   3.169
 2403SOL    HW2 1649   2.849   2.007   3.306
 2404SOL     OW 1650   2.842   2.978   3.581
 2404SOL    HW1 1651   2.743   2.984   3.591
 2404SOL    HW2 1652   2.865   2.898   3.525
 2405SOL     OW 1653   2.567   2.912   2.230
 2405SOL    HW1 1654   2.553   2.919   2.329
 2405SOL    HW2 1655   2.651   2.861   2.212
 2406SOL     OW 1656   2.272   2.675   3.113
 2406SOL    HW1 1657   2.358   2.687   3.163
 2406SOL    HW2 1658   2.230   2.588   3.140
 2407SOL     OW 1659   3.136   2.248   3.124
 2407SOL    HW1 1660   3.157   2.322   3.188
 2407SOL    HW2 1661   3.047   2.265   3.081
 2408SOL     OW 1662   1.926   3.426   3.193
 2408SOL    HW1 1663   1.880   3.508   3.159
 2408SOL    HW2 1664   2.024   3.445   3.202
 2409SOL     OW 1665   2.229   2.962   2.363
 2409SOL    HW1 1666   2.222   3.045   2.307
 2409SOL    HW2 1667   2.233   2.882   2.303
 2410SOL     OW 1668   3.114   3.210   2.250
 2410SOL    HW1 1669   3.164   3.287   2.290
 2410SOL    HW2 1670   3.019   3.212   2.282
 2411SOL     OW 1671   3.134   3.307   3.004
 2411SOL    HW1 1672   3.181   3.320   3.091
 2411SOL    HW2 1673   3.068   3.233   3.013
 2412SOL     OW 1674   3.444   2.501   2.334
 2412SOL    HW1 1675   3.413   2.562   2.407
 2412SOL    HW2 1676   3.494   2.553   2.265
 2413SOL     OW 1677   2.216   3.372   3.191
 2413SOL    HW1 1678   2.195   3.328   3.104
 2413SOL    HW2 1679   2.313   3.398   3.194
 2414SOL     OW 1680   2.264   2.613   3.460
 2414SOL    HW1 1681   2.332   2.668   3.413
 2414SOL    HW2 1682   2.304   2.525   3.487
 2415SOL     OW 1683   3.449   2.641   3.532
 2415SOL    HW1 1684   3.357   2.679   3.527
 2415SOL    HW2 1685   3.509   2.688   3.467
 2416SOL     OW 1686   2.875   1.967   3.632
 2416SOL    HW1 1687   2.881   2.052   3.580
 2416SOL    HW2 1688   2.907   1.891   3.575
 2417SOL     OW 1689   2.366   1.912   3.602
 2417SOL    HW1 1690   2.324   1.855   3.532
 2417SOL    HW2 1691   2.300   1.981   3.634
 2418SOL     OW 1692   3.222   2.724   2.907
 2418SOL    HW1 1693   3.147   2.724   2.841
 2418SOL    HW2 1694   3.259   2.632   2.916
 2419SOL     OW 1695   3.071   2.387   2.137
 2419SOL    HW1 1696   3.084   2.303   2.191
 2419SOL    HW2 1697   3.042   2.461   2.197
 2420SOL     OW 1698   2.169   2.075   3.093
 2420SOL    HW1 1699   2.146   2.112   3.183
 2420SOL    HW2 1700   2.139   1.980   3.087
 2421SOL     OW 1701   1.899   3.172   3.144
 2421SOL    HW1 1702   1.952   3.123   3.212
 2421SOL    HW2 1703   1.921   3.270   3.149
 2422SOL     OW 1704   3.590   2.797   3.716
 2422SOL    HW1 1705   3.544   2.790   3.627
 2422SOL    HW2 1706   3.528   2.841   3.782
 2423SOL     OW 1707   2.169   1.925   2.480
 2423SOL    HW1 1708   2.158   2.019   2.513
 2423SOL    HW2 1709   2.164   1.862   2.557
 2424SOL     OW 1710   3.484   2.229   2.236
 2424SOL    HW1 1711   3.486   2.153   2.300
 2424SOL    HW2 1712   3.436   2.306   2.276
 2425SOL     OW 1713   2.885   2.628   2.828
 2425SOL    HW1 1714   2.900   2.649   2.924
 2425SOL    HW2 1715   2.855   2.533   2.819
 2426SOL     OW 1716   2.842   3.435   3.562
 2426SOL    HW1 1717   2.822   3.479   3.474
 2426SOL    HW2 1718   2.881   3.344   3.546
 2427SOL     OW 1719   3.721   3.380   3.467
 2427SOL    HW1 1720   3.735   3.407   3.372
 2427SOL    HW2 1721   3.804   3.402   3.520
 2428SOL     OW 1722   2.212   2.760   3.666
 2428SOL    HW1 1723   2.288   2.804   3.714
 2428SOL    HW2 1724   2.247   2.713   3.584
 2429SOL     OW 1725   3.402   2.136   1.987
 2429SOL    HW1 1726   3.341   2.061   2.010
 2429SOL    HW2 1727   3.424   2.188   2.070
 2430SOL     OW 1728   3.165   2.700   1.904
 2430SOL    HW1 1729   3.199   2.607   1.919
 2430SOL    HW2 1730   3.183   2.727   1.809
 2431SOL     OW 1731   2.930   3.195   2.711
 2431SOL    HW1 1732   2.937   3.111   2.656
 2431SOL    HW2 1733   2.992   3.264   2.675
 2432SOL     OW 1734   2.181   2.672   2.811
 2432SOL    HW1 1735   2.274   2.708   2.816
 2432SOL    HW2 1736   2.175   2.587   2.863
 2433SOL     OW 1737   3.000   2.242   3.540
 2433SOL    HW1 1738   2.955   2.305   3.604
 2433SOL    HW2 1739   3.093   2.273   3.523
 2434SOL     OW 1740   3.022   2.069   3.339
 2434SOL    HW1 1741   3.022   2.133   3.416
 2434SOL    HW2 1742   3.050   2.117   3.256
 2435SOL     OW 1743   1.870   3.188   2.062
 2435SOL    HW1 1744   1.777   3.209   2.031
 2435SOL    HW2 1745   1.880   3.089   2.075
 2436SOL     OW 1746   1.950   3.663   2.789
 2436SOL    HW1 1747   1.908   3.577   2.762
 2436SOL    HW2 1748   2.044   3.666   2.755
 2437SOL     OW 1749   2.366   3.430   2.772
 2437SOL    HW1 1750   2.432   3.504   2.781
 2437SOL    HW2 1751   2.410   3.351   2.730
 2438SOL     OW 1752   2.864   2.658   3.100
 2438SOL    HW1 1753   2.905   2.626   3.186
 2438SOL    HW2 1754   2.768   2.631   3.097
 2439SOL     OW 1755   1.902   2.406   2.976
 2439SOL    HW1 1756   1.987   2.373   2.935
 2439SOL    HW2 1757   1.915   2.421   3.074
 2440SOL     OW 1758   2.051   2.382   3.584
 2440SOL    HW1 1759   2.110   2.342   3.514
 2440SOL    HW2 1760   1.993   2.453   3.543
 2441SOL     OW 1761   3.231   2.812   3.522
 2441SOL    HW1 1762   3.270   2.901   3.542
 2441SOL    HW2 1763   3.241   2.792   3.425
 2442SOL     OW 1764   3.519   2.466   3.068
 2442SOL    HW1 1765   3.481   2.397   3.130
 2442SOL    HW2 1766   3.601   2.430   3.024
 2443SOL     OW 1767   2.114   3.426   3.606
 2443SOL    HW1 1768   2.084   3.483   3.682
 2443SOL    HW2 1769   2.107   3.329   3.632
 2444SOL     OW 1770   2.533   2.326   3.131
 2444SOL    HW1 1771   2.499   2.237   3.101
 2444SOL    HW2 1772   2.559   2.380   3.051
 2445SOL     OW 1773   2.792   3.540   3.327
 2445SOL    HW1 1774   2.768   3.522   3.232
 2445SOL    HW2 1775   2.822   3.634   3.337
 2446SOL     OW 1776   2.021   2.999   3.328
 2446SOL    HW1 1777   2.043   2.938   3.404
 2446SOL    HW2 1778   2.031   2.950   3.242
 2447SOL     OW 1779   3.209   2.921   3.096
 2447SOL    HW1 1780   3.233   2.858   3.022
 2447SOL    HW2 1781   3.119   2.961   3.078
 2448SOL     OW 1782   3.164   2.717   2.171
 2448SOL    HW1 1783   3.078   2.686   2.213
 2448SOL    HW2 1784   3.160   2.703   2.072
 2449SOL     OW 1785   3.621   3.609   3.016
 2449SOL    HW1 1786   3.682   3.639   2.943
 2449SOL    HW2 1787   3.583   3.520   2.994
 2450SOL     OW 1788   3.114   3.593   2.990
 2450SOL    HW1 1789   3.198   3.598   2.936
 2450SOL    HW2 1790   3.091   3.497   3.008
 2451SOL     OW 1791   1.945   3.120   2.884
 2451SOL    HW1 1792   1.940   3.119   2.984
 2451SOL    HW2 1793   1.862   3.079   2.846
 2452SOL     OW 1794   2.550   3.524   3.578
 2452SOL    HW1 1795   2.494   3.605   3.587
 2452SOL    HW2 1796   2.602   3.528   3.492
 2453SOL     OW 1797   3.588   1.997   2.385
 2453SOL    HW1 1798   3.661   1.980   2.318
 2453SOL    HW2 1799   3.557   1.910   2.423
 2454SOL     OW 1800   3.250   3.435   2.339
 2454SOL    HW1 1801   3.317   3.447   2.265
 2454SOL    HW2 1802   3.210   3.524   2.362
 2455SOL     OW 1803   1.992   3.656   3.713
 2455SOL    HW1 1804   1.951   3.582   3.766
 2455SOL    HW2 1805   2.056   3.707   3.771
 2456SOL     OW 1806   3.142   2.789   2.534
 2456SOL    HW1 1807   3.202   2.708   2.536
 2456SOL    HW2 1808   3.182   2.858   2.474
 2457SOL     OW 1809   2.692   3.135   3.284
 2457SOL    HW1 1810   2.687   3.168   3.379
 2457SOL    HW2 1811   2.606   3.154   3.238
 2458SOL     OW 1812   2.534   3.478   2.016
 2458SOL    HW1 1813   2.543   3.488   1.917
 2458SOL    HW2 1814   2.494   3.389   2.037
 2459SOL     OW 1815   3.512   3.582   3.256
 2459SOL    HW1 1816   3.565   3.592   3.172
 2459SOL    HW2 1817   3.485   3.672   3.290
 2460SOL     OW 1818   3.703   2.037   2.825
 2460SOL    HW1 1819   3.742   1.952   2.789
 2460SOL    HW2 1820   3.605   2.039   2.806
 2461SOL     OW 1821   2.125   2.188   2.582
 2461SOL    HW1 1822   2.046   2.239   2.548
 2461SOL    HW2 1823   2.116   2.173   2.680
 2462SOL     OW 1824   3.056   3.474   1.893
 2462SOL    HW1 1825   3.062   3.381   1.930
 2462SOL    HW2 1826   2.997   3.474   1.813
 2463SOL     OW 1827   2.684   2.864   3.234
 2463SOL    HW1 1828   2.724   2.863   3.142
 2463SOL    HW2 1829   2.694   2.956   3.274
 2464SOL     OW 1830   2.778   2.772   2.153
 2464SOL    HW1 1831   2.841   2.810   2.085
 2464SOL    HW2 1832   2.818   2.689   2.192
 2465SOL     OW 1833   3.366   3.469   1.906
 2465SOL    HW1 1834   3.274   3.506   1.913
 2465SOL    HW2 1835   3.404   3.489   1.816
 2466SOL     OW 1836   2.234   3.150   3.352
 2466SOL    HW1 1837   2.221   3.243   3.318
 2466SOL    HW2 1838   2.150   3.098   3.339
 2467SOL     OW 1839   3.476   3.154   3.151
 2467SOL    HW1 1840   3.536   3.157   3.231
 2467SOL    HW2 1841   3.401   3.218   3.164
 2468SOL     OW 1842   2.901   2.960   2.558
 2468SOL    HW1 1843   2.831   2.913   2.612
 2468SOL    HW2 1844   2.960   2.892   2.515
 2469SOL     OW 1845   2.876   2.098   2.833
 2469SOL    HW1 1846   2.868   2.062   2.740
 2469SOL    HW2 1847   2.874   2.022   2.898
 2470SOL     OW 1848   2.452   3.349   2.353
 2470SOL    HW1 1849   2.494   3.291   2.283
 2470SOL    HW2 1850   2.408   3.428   2.309
 2471SOL     OW 1851   3.571   2.247   3.243
 2471SOL    HW1 1852   3.644   2.316   3.247
 2471SOL    HW2 1853   3.599   2.172   3.184
 2472SOL     OW 1854   2.117   3.210   2.152
 2472SOL    HW1 1855   2.021   3.211   2.125
 2472SOL    HW2 1856   2.129   3.263   2.236
 2473SOL     OW 1857   1.967   2.875   3.588
 2473SOL    HW1 1858   1.890   2.842   3.642
 2473SOL    HW2 1859   2.052   2.845   3.630
 2474SOL     OW 1860   2.534   2.065   3.351
 2474SOL    HW1 1861   2.624   2.049   3.311
 2474SOL    HW2 1862   2.542   2.070   3.450
 2475SOL     OW 1863   1.937   2.207   1.895
 2475SOL    HW1 1864   1.845   2.179   1.866
 2475SOL    HW2 1865   1.968   2.284   1.839
 2476SOL     OW 1866   3.302   2.718   3.260
 2476SOL    HW1 1867   3.245   2.770   3.197
 2476SOL    HW2 1868   3.398   2.730   3.236
 2477SOL     OW 1869   1.934   2.028   2.180
 2477SOL    HW1 1870   1.917   2.111   2.126
 2477SOL    HW2 1871   2.024   1.991   2.158
 2478SOL     OW 1872   3.045   3.197   1.981
 2478SOL    HW1 1873   2.946   3.186   1.983
 2478SOL    HW2 1874   3.079   3.212   2.074
 2479SOL     OW 1875   2.475   2.704   3.293
 2479SOL    HW1 1876   2.531   2.785   3.276
 2479SOL    HW2 1877   2.534   2.624   3.296
 2480SOL     OW 1878   3.355   3.629   2.821
 2480SOL    HW1 1879   3.388   3.693   2.752
 2480SOL    HW2 1880   3.421   3.623   2.896
 2481SOL     OW 1881   2.578   2.427   3.570
 2481SOL    HW1 1882   2.597   2.492   3.644
 2481SOL    HW2 1883   2.638   2.347   3.579
 2482SOL     OW 1884   3.312   3.082   3.495
 2482SOL    HW1 1885   3.303   3.072   3.594
 2482SOL    HW2 1886   3.408   3.075   3.469
 2483SOL     OW 1887   2.252   3.603   3.422
 2483SOL    HW1 1888   2.161   3.644   3.420
 2483SOL    HW2 1889   2.245   3.509   3.454
 2484SOL     OW 1890   3.536   2.745   3.116
 2484SOL    HW1 1891   3.509   2.656   3.079
 2484SOL    HW2 1892   3.537   2.813   3.043
 2485SOL     OW 1893   3.087   2.187   2.311
 2485SOL    HW1 1894   3.152   2.113   2.300
 2485SOL    HW2 1895   3.107   2.237   2.395
 2486SOL     OW 1896   3.639   2.204   3.504
 2486SOL    HW1 1897   3.622   2.235   3.410
 2486SOL    HW2 1898   3.555   2.167   3.542
 2487SOL     OW 1899   3.592   2.796   3.379
 2487SOL    HW1 1900   3.630   2.887   3.394
 2487SOL    HW2 1901   3.584   2.779   3.280
 2488SOL     OW 1902   2.721   3.236   1.878
 2488SOL    HW1 1903   2.675   3.251   1.966
 2488SOL    HW2 1904   2.765   3.321   1.848
 2489SOL     OW 1905   2.523   3.652   2.815
 2489SOL    HW1 1906   2.477   3.740   2.802
 2489SOL    HW2 1907   2.622   3.664   2.808
 2490SOL     OW 1908   2.721   2.818   2.723
 2490SOL    HW1 1909   2.775   2.749   2.771
 2490SOL    HW2 1910   2.689   2.887   2.789
 2491SOL     OW 1911   2.945   2.846   1.949
 2491SOL    HW1 1912   2.922   2.899   1.867
 2491SOL    HW2 1913   3.026   2.790   1.930
 2492SOL     OW 1914   3.723   3.431   2.713
 2492SOL    HW1 1915   3.652   3.419   2.643
 2492SOL    HW2 1916   3.724   3.352   2.773
 2493SOL     OW 1917   2.083   3.176   3.706
 2493SOL    HW1 1918   2.018   3.103   3.685
 2493SOL    HW2 1919   2.087   3.190   3.804
 2494SOL     OW 1920   1.941   3.102   2.515
 2494SOL    HW1 1921   1.940   3.055   2.603
 2494SOL    HW2 1922   2.023   3.074   2.464
 2495SOL     OW 1923   2.534   3.253   3.486
 2495SOL    HW1 1924   2.456   3.203   3.524
 2495SOL    HW2 1925   2.531   3.348   3.517
 2496SOL     OW 1926   3.686   2.054   3.089
 2496SOL    HW1 1927   3.682   1.964   3.133
 2496SOL    HW2 1928   3.689   2.043   2.990
 2497SOL     OW 1929   2.290   2.286   2.382
 2497SOL    HW1 1930   2.320   2.214   2.320
 2497SOL    HW2 1931   2.251   2.246   2.465
 2498SOL     OW 1932   3.567   3.349   2.966
 2498SOL    HW1 1933   3.474   3.324   2.939
 2498SOL    HW2 1934   3.593   3.299   3.048
 2499SOL     OW 1935   2.179   2.409   3.142
 2499SOL    HW1 1936   2.217   2.350   3.214
 2499SOL    HW2 1937   2.219   2.383   3.054
 2500SOL     OW 1938   2.674   3.448   2.549
 2500SOL    HW1 1939   2.706   3.458   2.455
 2500SOL    HW2 1940   2.595   3.386   2.551
 2501SOL     OW 1941   3.286   2.076   2.974
 2501SOL    HW1 1942   3.338   2.011   3.029
 2501SOL    HW2 1943   3.237   2.139   3.035
 2502SOL     OW 1944   2.863   1.896   3.016
 2502SOL    HW1 1945   2.800   1.824   2.985
 2502SOL    HW2 1946   2.956   1.860   3.016
 2503SOL     OW 1947   2.632   3.192   2.163
 2503SOL    HW1 1948   2.586   3.105   2.180
 2503SOL    HW2 1949   2.723   3.189   2.204
 2504SOL     OW 1950   2.480   3.429   3.146
 2504SOL    HW1 1951   2.475   3.511   3.203
 2504SOL    HW2 1952   2.569   3.426   3.101
 2505SOL     OW 1953   3.214   1.914   2.030
 2505SOL    HW1 1954   3.249   1.873   1.946
 2505SOL    HW2 1955   3.124   1.876   2.050
 2506SOL     OW 1956   3.162   2.315   2.553
 2506SOL    HW1 1957   3.103   2.395   2.557
 2506SOL    HW2 1958   3.177   2.280   2.646
 2507SOL     OW 1959   3.455   2.083   2.744
 2507SOL    HW1 1960   3.371   2.082   2.798
 2507SOL    HW2 1961   3.457   2.166   2.688
 2508SOL     OW 1962   1.901   2.939   2.162
 2508SOL    HW1 1963   2.000   2.928   2.153
 2508SOL    HW2 1964   1.861   2.853   2.194
 2509SOL     OW 1965   2.737   3.508   2.199
 2509SOL    HW1 1966   2.660   3.473   2.145
 2509SOL    HW2 1967   2.705   3.579   2.261
 2510SOL     OW 1968   2.092   2.490   3.837
 2510SOL    HW1 1969   1.999   2.488   3.874
 2510SOL    HW2 1970   2.093   2.451   3.745
 2524SOL     OW 1971   2.468   2.826   3.847
 2524SOL    HW1 1972   2.475   2.910   3.793
 2524SOL    HW2 1973   2.514   2.839   3.935
 2527SOL     OW 1974   1.889   3.458   3.841
 2527SOL    HW1 1975   1.870   3.362   3.862
 2527SOL    HW2 1976   1.856   3.516   3.916
 2533SOL     OW 1977   3.387   2.861   3.914
 2533SOL    HW1 1978   3.324   2.785   3.927
 2533SOL    HW2 1979   3.435   2.879   4.000
 2536SOL     OW 1980   2.460   2.591   3.994
 2536SOL    HW1 1981   2.484   2.660   3.926
 2536SOL    HW2 1982   2.382   2.624   4.048
 2539SOL     OW 1983   2.903   2.563   4.153
 2539SOL    HW1 1984   2.929   2.559   4.249
 2539SOL    HW2 1985   2.818   2.512   4.139
 2541SOL     OW 1986   2.727   2.210   3.919
 2541SOL    HW1 1987   2.786   2.273   3.870
 2541SOL    HW2 1988   2.746   2.116   3.890
 2547SOL     OW 1989   2.183   2.805   3.966
 2547SOL    HW1 1990   2.265   2.844   3.924
 2547SOL    HW2 1991   2.156   2.723   3.917
 2550SOL     OW 1992   3.494   3.239   3.805
 2550SOL    HW1 1993   3.462   3.333   3.795
 2550SOL    HW2 1994   3.418   3.176   3.793
 2555SOL     OW 1995   2.244   2.562   4.204
 2555SOL    HW1 1996   2.289   2.472   4.201
 2555SOL    HW2 1997   2.150   2.551   4.237
 2556SOL     OW 1998   2.476   1.984   3.841
 2556SOL    HW1 1999   2.574   1.962   3.848
 2556SOL    HW2 2000   2.445   1.967   3.748
 2560SOL     OW 2001   3.296   3.050   3.765
 2560SOL    HW1 2002   3.328   2.974   3.822
 2560SOL    HW2 2003   3.204   3.077   3.795
 2561SOL     OW 2004   2.159   1.897   3.895
 2561SOL    HW1 2005   2.208   1.981   3.874
 2561SOL    HW2 2006   2.221   1.832   3.940
 2562SOL     OW 2007   2.797   2.098   4.204
 2562SOL    HW1 2008   2.749   2.139   4.126
 2562SOL    HW2 2009   2.896   2.096   4.185
 2566SOL     OW 2010   2.894   2.411   3.740
 2566SOL    HW1 2011   2.853   2.493   3.701
 2566SOL    HW2 2012   2.958   2.437   3.813
 2572SOL     OW 2013   2.350   3.247   3.898
 2572SOL    HW1 2014   2.263   3.232   3.945
 2572SOL    HW2 2015   2.333   3.273   3.803
 2574SOL     OW 2016   3.252   2.437   3.802
 2574SOL    HW1 2017   3.198   2.416   3.883
 2574SOL    HW2 2018   3.343   2.396   3.811
 2575SOL     OW 2019   2.389   2.118   4.052
 2575SOL    HW1 2020   2.416   2.059   3.977
 2575SOL    HW2 2021   2.389   2.213   4.021
 2578SOL     OW 2022   2.567   2.912   4.092
 2578SOL    HW1 2023   2.553   2.919   4.191
 2578SOL    HW2 2024   2.651   2.861   4.074
 2587SOL     OW 2025   3.071   2.387   3.999
 2587SOL    HW1 2026   3.084   2.303   4.053
 2587SOL    HW2 2027   3.042   2.461   4.059
 2594SOL     OW 2028   3.402   2.136   3.849
 2594SOL    HW1 2029   3.341   2.061   3.872
 2594SOL    HW2 2030   3.424   2.188   3.932
 2595SOL     OW 2031   3.165   2.700   3.766
 2595SOL    HW1 2032   3.199   2.607   3.781
 2595SOL    HW2 2033   3.183   2.727   3.671
 2600SOL     OW 2034   1.870   3.188   3.924
 2600SOL    HW1 2035   1.777   3.209   3.893
 2600SOL    HW2 2036   1.880   3.089   3.937
 2605SOL     OW 2037   2.677   2.434   4.049
 2605SOL    HW1 2038   2.684   2.345   4.003
 2605SOL    HW2 2039   2.583   2.468   4.041
 2608SOL     OW 2040   2.335   2.362   3.915
 2608SOL    HW1 2041   2.396   2.442   3.919
 2608SOL    HW2 2042   2.240   2.393   3.922
 2611SOL     OW 2043   3.164   2.717   4.033
 2611SOL    HW1 2044   3.078   2.686   4.075
 2611SOL    HW2 2045   3.160   2.703   3.934
 2617SOL     OW 2046   2.534   3.478   3.878
 2617SOL    HW1 2047   2.543   3.488   3.779
 2617SOL    HW2 2048   2.494   3.389   3.899
 2621SOL     OW 2049   3.056   3.474   3.755
 2621SOL    HW1 2050   3.062   3.381   3.792
 2621SOL    HW2 2051   2.997   3.474   3.675
 2623SOL     OW 2052   2.778   2.772   4.015
 2623SOL    HW1 2053   2.841   2.810   3.947
 2623SOL    HW2 2054   2.818   2.689   4.054
 2629SOL     OW 2055   2.117   3.210   4.014
 2629SOL    HW1 2056   2.021   3.211   3.987
 2629SOL    HW2 2057   2.129   3.263   4.098
 2630SOL     OW 2058   1.937   2.207   3.757
 2630SOL    HW1 2059   1.845   2.179   3.728
 2630SOL    HW2 2060   1.968   2.284   3.701
 2631SOL     OW 2061   1.934   2.028   4.042
 2631SOL    HW1 2062   1.917   2.111   3.988
 2631SOL    HW2 2063   2.024   1.991   4.020
 2632SOL     OW 2064   3.045   3.197   3.843
 2632SOL    HW1 2065   2.946   3.186   3.845
 2632SOL    HW2 2066   3.079   3.212   3.936
 2635SOL     OW 2067   3.087   2.187   4.173
 2635SOL    HW1 2068   3.152   2.113   4.162
 2635SOL    HW2 2069   3.107   2.237   4.257
 2638SOL     OW 2070   2.721   3.236   3.740
 2638SOL    HW1 2071   2.675   3.251   3.828
 2638SOL    HW2 2072   2.765   3.321   3.710
 2641SOL     OW 2073   2.945   2.846   3.811
 2641SOL    HW1 2074   2.922   2.899   3.729
 2641SOL    HW2 2075   3.026   2.790   3.792
 2645SOL     OW 2076   2.290   2.286   4.244
 2645SOL    HW1 2077   2.320   2.214   4.182
 2645SOL    HW2 2078   2.251   2.246   4.327
 2650SOL     OW 2079   2.632   3.192   4.025
 2650SOL    HW1 2080   2.586   3.105   4.042
 2650SOL    HW2 2081   2.723   3.189   4.066
 2651SOL     OW 2082   3.214   1.914   3.892
 2651SOL    HW1 2083   3.249   1.873   3.808
 2651SOL    HW2 2084   3.124   1.876   3.912
 2654SOL     OW 2085   1.901   2.939   4.024
 2654SOL    HW1 2086   2.000   2.928   4.015
 2654SOL    HW2 2087   1.861   2.853   4.056
 2679SOL     OW 2088   2.179   3.975   1.801
 2679SOL    HW1 2089   2.250   4.046   1.807
 2679SOL    HW2 2090   2.091   4.014   1.829
 2700SOL     OW 2091   2.643   3.988   1.749
 2700SOL    HW1 2092   2.710   3.927   1.792
 2700SOL    HW2 2093   2.570   4.007   1.814
 2720SOL     OW 2094   2.777   3.813   1.402
 2720SOL    HW1 2095   2.802   3.793   1.307
 2720SOL    HW2 2096   2.849   3.869   1.444
 2730SOL     OW 2097   2.875   3.829   1.770
 2730SOL    HW1 2098   2.881   3.914   1.718
 2730SOL    HW2 2099   2.907   3.753   1.713
 2731SOL     OW 2100   2.366   3.774   1.740
 2731SOL    HW1 2101   2.324   3.717   1.670
 2731SOL    HW2 2102   2.300   3.843   1.772
 2774SOL     OW 2103   2.534   3.927   1.489
 2774SOL    HW1 2104   2.624   3.911   1.449
 2774SOL    HW2 2105   2.542   3.932   1.588
 2798SOL     OW 2106   2.087   3.999   2.858
 2798SOL    HW1 2107   2.122   3.982   2.950
 2798SOL    HW2 2108   1.999   3.954   2.846
 2799SOL     OW 2109   1.881   4.092   2.509
 2799SOL    HW1 2110   1.799   4.135   2.548
 2799SOL    HW2 2111   1.853   4.019   2.446
 2816SOL     OW 2112   2.671   3.728   2.364
 2816SOL    HW1 2113   2.711   3.819   2.355
 2816SOL    HW2 2114   2.571   3.736   2.370
 2821SOL     OW 2115   3.143   4.069   2.806
 2821SOL    HW1 2116   3.057   4.019   2.793
 2821SOL    HW2 2117   3.205   4.015   2.862
 2825SOL     OW 2118   2.853   4.134   3.104
 2825SOL    HW1 2119   2.776   4.168   3.158
 2825SOL    HW2 2120   2.819   4.083   3.025
 2828SOL     OW 2121   2.727   4.072   2.057
 2828SOL    HW1 2122   2.786   4.135   2.008
 2828SOL    HW2 2123   2.746   3.978   2.028
 2831SOL     OW 2124   2.412   3.920   2.747
 2831SOL    HW1 2125   2.407   3.915   2.847
 2831SOL    HW2 2126   2.414   4.016   2.718
 2835SOL     OW 2127   2.064   4.009   3.360
 2835SOL    HW1 2128   1.984   4.069   3.347
 2835SOL    HW2 2129   2.054   3.960   3.446
 2836SOL     OW 2130   3.262   3.831   2.288
 2836SOL    HW1 2131   3.238   3.794   2.198
 2836SOL    HW2 2132   3.361   3.847   2.292
 2839SOL     OW 2133   2.476   3.846   1.979
 2839SOL    HW1 2134   2.574   3.824   1.986
 2839SOL    HW2 2135   2.445   3.829   1.886
 2842SOL     OW 2136   2.784   4.227   2.761
 2842SOL    HW1 2137   2.759   4.218   2.665
 2842SOL    HW2 2138   2.832   4.145   2.792
 2843SOL     OW 2139   2.401   3.788   2.374
 2843SOL    HW1 2140   2.320   3.789   2.432
 2843SOL    HW2 2141   2.404   3.871   2.319
 2844SOL     OW 2142   2.159   3.759   2.033
 2844SOL    HW1 2143   2.208   3.843   2.012
 2844SOL    HW2 2144   2.221   3.694   2.078
 2845SOL     OW 2145   2.797   3.960   2.342
 2845SOL    HW1 2146   2.749   4.001   2.264
 2845SOL    HW2 2147   2.896   3.958   2.323
 2850SOL     OW 2148   2.423   3.946   3.009
 2850SOL    HW1 2149   2.461   3.862   3.046
 2850SOL    HW2 2150   2.335   3.965   3.053
 2851SOL     OW 2151   2.728   4.178   2.504
 2851SOL    HW1 2152   2.696   4.250   2.442
 2851SOL    HW2 2153   2.752   4.097   2.451
 2852SOL     OW 2154   2.879   3.763   2.615
 2852SOL    HW1 2155   2.807   3.768   2.546
 2852SOL    HW2 2156   2.855   3.694   2.684
 2857SOL     OW 2157   2.389   3.980   2.190
 2857SOL    HW1 2158   2.416   3.921   2.115
 2857SOL    HW2 2159   2.389   4.075   2.159
 2860SOL     OW 2160   2.777   3.813   3.264
 2860SOL    HW1 2161   2.802   3.793   3.169
 2860SOL    HW2 2162   2.849   3.869   3.306
 2866SOL     OW 2163   2.428   4.261   2.727
 2866SOL    HW1 2164   2.440   4.327   2.653
 2866SOL    HW2 2165   2.474   4.295   2.810
 2870SOL     OW 2166   2.875   3.829   3.632
 2870SOL    HW1 2167   2.881   3.914   3.580
 2870SOL    HW2 2168   2.907   3.753   3.575
 2871SOL     OW 2169   2.366   3.774   3.602
 2871SOL    HW1 2170   2.324   3.717   3.532
 2871SOL    HW2 2171   2.300   3.843   3.634
 2875SOL     OW 2172   2.169   3.937   3.093
 2875SOL    HW1 2173   2.146   3.974   3.183
 2875SOL    HW2 2174   2.139   3.842   3.087
 2878SOL     OW 2175   2.169   3.787   2.480
 2878SOL    HW1 2176   2.158   3.881   2.513
 2878SOL    HW2 2177   2.164   3.724   2.557
 2885SOL     OW 2178   2.201   4.233   2.868
 2885SOL    HW1 2179   2.149   4.150   2.851
 2885SOL    HW2 2180   2.278   4.238   2.804
 2887SOL     OW 2181   3.022   3.931   3.339
 2887SOL    HW1 2182   3.022   3.995   3.416
 2887SOL    HW2 2183   3.050   3.979   3.256
 2896SOL     OW 2184   2.335   4.224   2.053
 2896SOL    HW1 2185   2.396   4.304   2.057
 2896SOL    HW2 2186   2.240   4.255   2.060
 2901SOL     OW 2187   3.588   3.859   2.385
 2901SOL    HW1 2188   3.661   3.842   2.318
 2901SOL    HW2 2189   3.557   3.772   2.423
 2904SOL     OW 2190   2.125   4.050   2.582
 2904SOL    HW1 2191   2.046   4.101   2.548
 2904SOL    HW2 2192   2.116   4.035   2.680
 2910SOL     OW 2193   2.876   3.960   2.833
 2910SOL    HW1 2194   2.868   3.924   2.740
 2910SOL    HW2 2195   2.874   3.884   2.898
 2913SOL     OW 2196   2.534   3.927   3.351
 2913SOL    HW1 2197   2.624   3.911   3.311
 2913SOL    HW2 2198   2.542   3.932   3.450
 2914SOL     OW 2199   1.937   4.069   1.895
 2914SOL    HW1 2200   1.845   4.041   1.866
 2914SOL    HW2 2201   1.968   4.146   1.839
 2916SOL     OW 2202   1.934   3.890   2.180
 2916SOL    HW1 2203   1.917   3.973   2.126
 2916SOL    HW2 2204   2.024   3.853   2.158
 2921SOL     OW 2205   3.087   4.049   2.311
 2921SOL    HW1 2206   3.152   3.975   2.300
 2921SOL    HW2 2207   3.107   4.099   2.395
 2929SOL     OW 2208   2.290   4.148   2.382
 2929SOL    HW1 2209   2.320   4.076   2.320
 2929SOL    HW2 2210   2.251   4.108   2.465
 2931SOL     OW 2211   3.286   3.938   2.974
 2931SOL    HW1 2212   3.338   3.873   3.029
 2931SOL    HW2 2213   3.237   4.001   3.035
 2932SOL     OW 2214   2.863   3.758   3.016
 2932SOL    HW1 2215   2.800   3.686   2.985
 2932SOL    HW2 2216   2.956   3.722   3.016
 2934SOL     OW 2217   3.214   3.776   2.030
 2934SOL    HW1 2218   3.249   3.735   1.946
 2934SOL    HW2 2219   3.124   3.738   2.050
 2936SOL     OW 2220   3.455   3.945   2.744
 2936SOL    HW1 2221   3.371   3.944   2.798
 2936SOL    HW2 2222   3.457   4.028   2.688
 3068SOL     OW 2223   3.854   1.821   1.571
 3068SOL    HW1 2224   3.844   1.806   1.670
 3068SOL    HW2 2225   3.768   1.857   1.535
 3146SOL     OW 2226   3.854   1.794   1.851
 3146SOL    HW1 2227   3.813   1.720   1.904
 3146SOL    HW2 2228   3.918   1.845   1.909
 3189SOL     OW 2229   3.955   1.713   2.345
 3189SOL    HW1 2230   3.989   1.790   2.399
 3189SOL    HW2 2231   3.999   1.713   2.255
 3196SOL     OW 2232   3.751   1.596   1.979
 3196SOL    HW1 2233   3.732   1.500   2.000
 3196SOL    HW2 2234   3.718   1.654   2.054
 3208SOL     OW 2235   3.854   1.821   3.433
 3208SOL    HW1 2236   3.844   1.806   3.532
 3208SOL    HW2 2237   3.768   1.857   3.397
 3212SOL     OW 2238   4.075   1.801   2.715
 3212SOL    HW1 2239   4.125   1.715   2.721
 3212SOL    HW2 2240   4.140   1.878   2.712
 3219SOL     OW 2241   3.973   1.785   3.103
 3219SOL    HW1 2242   4.030   1.720   3.153
 3219SOL    HW2 2243   3.957   1.752   3.010
 3247SOL     OW 2244   3.788   1.564   3.193
 3247SOL    HW1 2245   3.742   1.646   3.159
 3247SOL    HW2 2246   3.886   1.583   3.202
 3271SOL     OW 2247   3.732   1.326   2.062
 3271SOL    HW1 2248   3.639   1.347   2.031
 3271SOL    HW2 2249   3.742   1.227   2.075
 3272SOL     OW 2250   3.812   1.801   2.789
 3272SOL    HW1 2251   3.770   1.715   2.762
 3272SOL    HW2 2252   3.906   1.804   2.755
 3435SOL     OW 2253   3.837   2.599   1.597
 3435SOL    HW1 2254   3.925   2.586   1.642
 3435SOL    HW2 2255   3.824   2.696   1.575
 3439SOL     OW 2256   4.041   2.113   1.801
 3439SOL    HW1 2257   4.112   2.184   1.807
 3439SOL    HW2 2258   3.953   2.152   1.829
 3455SOL     OW 2259   3.926   2.147   1.498
 3455SOL    HW1 2260   3.846   2.207   1.485
 3455SOL    HW2 2261   3.916   2.098   1.584
 3473SOL     OW 2262   3.802   2.418   1.386
 3473SOL    HW1 2263   3.894   2.417   1.345
 3473SOL    HW2 2264   3.796   2.492   1.453
 3502SOL     OW 2265   4.074   2.760   1.804
 3502SOL    HW1 2266   4.150   2.804   1.852
 3502SOL    HW2 2267   4.109   2.713   1.722
 3513SOL     OW 2268   3.913   2.382   1.722
 3513SOL    HW1 2269   3.972   2.342   1.652
 3513SOL    HW2 2270   3.855   2.453   1.681
 3519SOL     OW 2271   3.883   2.999   1.466
 3519SOL    HW1 2272   3.905   2.938   1.542
 3519SOL    HW2 2273   3.893   2.950   1.380
 3535SOL     OW 2274   3.829   2.875   1.726
 3535SOL    HW1 2275   3.752   2.842   1.780
 3535SOL    HW2 2276   3.914   2.845   1.768
 3546SOL     OW 2277   3.945   3.176   1.844
 3546SOL    HW1 2278   3.880   3.103   1.823
 3546SOL    HW2 2279   3.949   3.190   1.942
 3556SOL     OW 2280   3.954   2.490   1.975
 3556SOL    HW1 2281   3.861   2.488   2.012
 3556SOL    HW2 2282   3.955   2.451   1.883
 3557SOL     OW 2283   3.949   2.137   2.858
 3557SOL    HW1 2284   3.984   2.120   2.950
 3557SOL    HW2 2285   3.861   2.092   2.846
 3558SOL     OW 2286   3.743   2.230   2.509
 3558SOL    HW1 2287   3.661   2.273   2.548
 3558SOL    HW2 2288   3.715   2.157   2.446
 3565SOL     OW 2289   4.059   3.297   2.923
 3565SOL    HW1 2290   3.981   3.266   2.870
 3565SOL    HW2 2291   4.117   3.355   2.866
 3569SOL     OW 2292   3.954   3.296   2.400
 3569SOL    HW1 2293   3.928   3.392   2.400
 3569SOL    HW2 2294   3.883   3.242   2.445
 3570SOL     OW 2295   3.964   2.953   2.748
 3570SOL    HW1 2296   3.978   2.869   2.800
 3570SOL    HW2 2297   3.909   3.017   2.803
 3573SOL     OW 2298   3.846   2.505   2.425
 3573SOL    HW1 2299   3.801   2.417   2.442
 3573SOL    HW2 2300   3.845   2.559   2.509
 3574SOL     OW 2301   3.751   3.458   1.979
 3574SOL    HW1 2302   3.732   3.362   2.000
 3574SOL    HW2 2303   3.718   3.516   2.054
 3575SOL     OW 2304   3.837   2.599   3.459
 3575SOL    HW1 2305   3.925   2.586   3.504
 3575SOL    HW2 2306   3.824   2.696   3.437
 3578SOL     OW 2307   3.921   2.838   3.126
 3578SOL    HW1 2308   4.010   2.793   3.112
 3578SOL    HW2 2309   3.848   2.773   3.107
 3585SOL     OW 2310   3.800   2.673   2.651
 3585SOL    HW1 2311   3.899   2.661   2.660
 3585SOL    HW2 2312   3.776   2.768   2.672
 3592SOL     OW 2313   4.045   2.805   2.104
 3592SOL    HW1 2314   4.127   2.844   2.062
 3592SOL    HW2 2315   4.018   2.723   2.055
 3595SOL     OW 2316   3.926   2.147   3.360
 3595SOL    HW1 2317   3.846   2.207   3.347
 3595SOL    HW2 2318   3.916   2.098   3.446
 3599SOL     OW 2319   4.106   2.562   2.342
 3599SOL    HW1 2320   4.151   2.472   2.339
 3599SOL    HW2 2321   4.012   2.551   2.375
 3606SOL     OW 2322   4.021   1.897   2.033
 3606SOL    HW1 2323   4.070   1.981   2.012
 3606SOL    HW2 2324   4.083   1.832   2.078
 3610SOL     OW 2325   4.183   3.014   2.603
 3610SOL    HW1 2326   4.112   2.987   2.668
 3610SOL    HW2 2327   4.157   2.986   2.510
 3613SOL     OW 2328   3.802   2.418   3.248
 3613SOL    HW1 2329   3.894   2.417   3.207
 3613SOL    HW2 2330   3.796   2.492   3.315
 3624SOL     OW 2331   4.134   2.675   3.113
 3624SOL    HW1 2332   4.220   2.687   3.163
 3624SOL    HW2 2333   4.092   2.588   3.140
 3625SOL     OW 2334   3.788   3.426   3.193
 3625SOL    HW1 2335   3.742   3.508   3.159
 3625SOL    HW2 2336   3.886   3.445   3.202
 3626SOL     OW 2337   4.091   2.962   2.363
 3626SOL    HW1 2338   4.084   3.045   2.307
 3626SOL    HW2 2339   4.095   2.882   2.303
 3636SOL     OW 2340   4.031   2.075   3.093
 3636SOL    HW1 2341   4.008   2.112   3.183
 3636SOL    HW2 2342   4.001   1.980   3.087
 3637SOL     OW 2343   3.761   3.172   3.144
 3637SOL    HW1 2344   3.814   3.123   3.212
 3637SOL    HW2 2345   3.783   3.270   3.149
 3639SOL     OW 2346   4.031   1.925   2.480
 3639SOL    HW1 2347   4.020   2.019   2.513
 3639SOL    HW2 2348   4.026   1.862   2.557
 3645SOL     OW 2349   4.043   2.672   2.811
 3645SOL    HW1 2350   4.136   2.708   2.816
 3645SOL    HW2 2351   4.037   2.587   2.863
 3646SOL     OW 2352   4.063   2.371   2.868
 3646SOL    HW1 2353   4.011   2.288   2.851
 3646SOL    HW2 2354   4.140   2.376   2.804
 3649SOL     OW 2355   3.732   3.188   2.062
 3649SOL    HW1 2356   3.639   3.209   2.031
 3649SOL    HW2 2357   3.742   3.089   2.075
 3650SOL     OW 2358   3.812   3.663   2.789
 3650SOL    HW1 2359   3.770   3.577   2.762
 3650SOL    HW2 2360   3.906   3.666   2.755
 3653SOL     OW 2361   3.764   2.406   2.976
 3653SOL    HW1 2362   3.849   2.373   2.935
 3653SOL    HW2 2363   3.777   2.421   3.074
 3654SOL     OW 2364   3.913   2.382   3.584
 3654SOL    HW1 2365   3.972   2.342   3.514
 3654SOL    HW2 2366   3.855   2.453   3.543
 3659SOL     OW 2367   4.197   2.362   2.053
 3659SOL    HW1 2368   4.258   2.442   2.057
 3659SOL    HW2 2369   4.102   2.393   2.060
 3660SOL     OW 2370   3.883   2.999   3.328
 3660SOL    HW1 2371   3.905   2.938   3.404
 3660SOL    HW2 2372   3.893   2.950   3.242
 3662SOL     OW 2373   3.807   3.120   2.884
 3662SOL    HW1 2374   3.802   3.119   2.984
 3662SOL    HW2 2375   3.724   3.079   2.846
 3667SOL     OW 2376   3.987   2.188   2.582
 3667SOL    HW1 2377   3.908   2.239   2.548
 3667SOL    HW2 2378   3.978   2.173   2.680
 3674SOL     OW 2379   3.979   3.210   2.152
 3674SOL    HW1 2380   3.883   3.211   2.125
 3674SOL    HW2 2381   3.991   3.263   2.236
 3675SOL     OW 2382   3.829   2.875   3.588
 3675SOL    HW1 2383   3.752   2.842   3.642
 3675SOL    HW2 2384   3.914   2.845   3.630
 3677SOL     OW 2385   3.799   2.207   1.895
 3677SOL    HW1 2386   3.707   2.179   1.866
 3677SOL    HW2 2387   3.830   2.284   1.839
 3678SOL     OW 2388   3.796   2.028   2.180
 3678SOL    HW1 2389   3.779   2.111   2.126
 3678SOL    HW2 2390   3.886   1.991   2.158
 3688SOL     OW 2391   3.803   3.102   2.515
 3688SOL    HW1 2392   3.802   3.055   2.603
 3688SOL    HW2 2393   3.885   3.074   2.464
 3690SOL     OW 2394   4.152   2.286   2.382
 3690SOL    HW1 2395   4.182   2.214   2.320
 3690SOL    HW2 2396   4.113   2.246   2.465
 3691SOL     OW 2397   4.041   2.409   3.142
 3691SOL    HW1 2398   4.079   2.350   3.214
 3691SOL    HW2 2399   4.081   2.383   3.054
 3696SOL     OW 2400   3.763   2.939   2.162
 3696SOL    HW1 2401   3.862   2.928   2.153
 3696SOL    HW2 2402   3.723   2.853   2.194
   5.00206   5.00206   5.00206
