mobley_242480_GMX.gro created by acpype (v: 2023.10.27) on Tue May 19 12:37:11 2026
 2428
    1MOL     C1    1   2.812   2.562   2.710
    1MOL     C2    2   2.851   2.440   2.655
    1MOL     C3    3   2.688   2.617   2.678
    1MOL     C4    4   2.766   2.373   2.567
    1MOL     C5    5   2.173   2.525   2.342
    1MOL     C6    6   2.212   2.403   2.287
    1MOL     C7    7   2.603   2.550   2.590
    1MOL     C8    8   2.642   2.428   2.534
    1MOL     C9    9   2.382   2.537   2.463
    1MOL    C10   10   2.421   2.415   2.407
    1MOL    C11   11   2.258   2.592   2.430
    1MOL    C12   12   2.336   2.348   2.319
    1MOL    C13   13   2.471   2.609   2.556
    1MOL    C14   14   2.552   2.356   2.441
    1MOL     N1   15   2.211   2.715   2.482
    1MOL     N2   16   2.368   2.224   2.259
    1MOL     O1   17   2.441   2.716   2.607
    1MOL     O2   18   2.590   2.249   2.395
    1MOL     H1   19   2.878   2.614   2.779
    1MOL     H2   20   2.948   2.398   2.680
    1MOL     H3   21   2.660   2.712   2.723
    1MOL     H4   22   2.799   2.278   2.525
    1MOL     H5   23   2.076   2.566   2.316
    1MOL     H6   24   2.144   2.352   2.218
    1MOL     H7   25   2.123   2.751   2.451
    1MOL     H8   26   2.271   2.768   2.542
    1MOL     H9   27   2.301   2.179   2.201
    1MOL    H10   28   2.454   2.179   2.284
   35SOL     OW   29   1.187   1.792   1.616
   35SOL    HW1   30   1.211   1.852   1.540
   35SOL    HW2   31   1.194   1.697   1.586
   95SOL     OW   32   1.754   1.223   1.588
   95SOL    HW1   33   1.845   1.184   1.575
   95SOL    HW2   34   1.762   1.319   1.612
   97SOL     OW   35   1.592   1.629   1.625
   97SOL    HW1   36   1.619   1.663   1.535
   97SOL    HW2   37   1.671   1.591   1.671
  127SOL     OW   38   1.859   1.518   1.605
  127SOL    HW1   39   1.873   1.545   1.510
  127SOL    HW2   40   1.942   1.540   1.658
  152SOL     OW   41   1.759   1.747   1.154
  152SOL    HW1   42   1.820   1.777   1.081
  152SOL    HW2   43   1.721   1.658   1.132
  163SOL     OW   44   1.650   1.720   1.394
  163SOL    HW1   45   1.703   1.730   1.310
  163SOL    HW2   46   1.623   1.810   1.428
  219SOL     OW   47   1.555   1.511   2.565
  219SOL    HW1   48   1.498   1.495   2.646
  219SOL    HW2   49   1.496   1.521   2.485
  227SOL     OW   50   1.460   1.505   3.201
  227SOL    HW1   51   1.484   1.599   3.227
  227SOL    HW2   52   1.444   1.451   3.283
  238SOL     OW   53   1.842   1.767   2.221
  238SOL    HW1   54   1.896   1.738   2.301
  238SOL    HW2   55   1.872   1.857   2.192
  240SOL     OW   56   1.689   0.922   2.474
  240SOL    HW1   57   1.784   0.893   2.482
  240SOL    HW2   58   1.681   0.987   2.399
  241SOL     OW   59   1.641   1.108   2.294
  241SOL    HW1   60   1.727   1.110   2.242
  241SOL    HW2   61   1.655   1.155   2.382
  248SOL     OW   62   1.187   1.792   3.478
  248SOL    HW1   63   1.211   1.852   3.402
  248SOL    HW2   64   1.194   1.697   3.448
  250SOL     OW   65   1.466   1.417   2.815
  250SOL    HW1   66   1.407   1.423   2.895
  250SOL    HW2   67   1.451   1.329   2.769
  251SOL     OW   68   1.667   1.714   2.434
  251SOL    HW1   69   1.626   1.691   2.346
  251SOL    HW2   70   1.649   1.640   2.499
  254SOL     OW   71   1.576   1.662   2.169
  254SOL    HW1   72   1.665   1.708   2.172
  254SOL    HW2   73   1.555   1.638   2.074
  264SOL     OW   74   1.362   1.144   2.407
  264SOL    HW1   75   1.445   1.115   2.359
  264SOL    HW2   76   1.313   1.211   2.351
  266SOL     OW   77   1.008   1.456   2.339
  266SOL    HW1   78   0.962   1.528   2.287
  266SOL    HW2   79   1.004   1.476   2.437
  268SOL     OW   80   1.795   1.066   2.735
  268SOL    HW1   81   1.733   1.051   2.659
  268SOL    HW2   82   1.743   1.077   2.820
  269SOL     OW   83   1.227   1.550   3.368
  269SOL    HW1   84   1.233   1.473   3.432
  269SOL    HW2   85   1.175   1.524   3.288
  273SOL     OW   86   1.111   1.776   2.099
  273SOL    HW1   87   1.051   1.714   2.149
  273SOL    HW2   88   1.142   1.732   2.014
  275SOL     OW   89   1.632   1.377   1.943
  275SOL    HW1   90   1.600   1.471   1.933
  275SOL    HW2   91   1.556   1.314   1.931
  279SOL     OW   92   0.940   1.698   2.766
  279SOL    HW1   93   1.020   1.641   2.787
  279SOL    HW2   94   0.891   1.658   2.689
  289SOL     OW   95   1.434   1.188   1.903
  289SOL    HW1   96   1.466   1.112   1.960
  289SOL    HW2   97   1.342   1.215   1.933
  293SOL     OW   98   1.227   1.570   2.655
  293SOL    HW1   99   1.248   1.644   2.590
  293SOL    HW2  100   1.295   1.570   2.728
  295SOL     OW  101   1.271   1.797   2.453
  295SOL    HW1  102   1.315   1.861   2.389
  295SOL    HW2  103   1.221   1.849   2.523
  301SOL     OW  104   1.429   1.173   2.729
  301SOL    HW1  105   1.374   1.089   2.722
  301SOL    HW2  106   1.455   1.202   2.637
  303SOL     OW  107   1.857   0.833   2.239
  303SOL    HW1  108   1.899   0.769   2.303
  303SOL    HW2  109   1.819   0.782   2.161
  305SOL     OW  110   1.664   1.280   2.519
  305SOL    HW1  111   1.763   1.288   2.533
  305SOL    HW2  112   1.619   1.364   2.550
  308SOL     OW  113   1.754   1.223   3.450
  308SOL    HW1  114   1.845   1.184   3.437
  308SOL    HW2  115   1.762   1.319   3.474
  310SOL     OW  116   1.592   1.629   3.487
  310SOL    HW1  117   1.619   1.663   3.397
  310SOL    HW2  118   1.671   1.591   3.533
  312SOL     OW  119   1.638   1.099   2.941
  312SOL    HW1  120   1.643   1.180   3.000
  312SOL    HW2  121   1.552   1.101   2.890
  321SOL     OW  122   1.252   1.348   2.250
  321SOL    HW1  123   1.302   1.425   2.290
  321SOL    HW2  124   1.157   1.350   2.282
  322SOL     OW  125   1.272   1.445   3.004
  322SOL    HW1  126   1.319   1.458   3.091
  322SOL    HW2  127   1.206   1.371   3.013
  340SOL     OW  128   1.859   1.518   3.467
  340SOL    HW1  129   1.873   1.545   3.372
  340SOL    HW2  130   1.942   1.540   3.520
  365SOL     OW  131   1.759   1.747   3.016
  365SOL    HW1  132   1.820   1.777   2.943
  365SOL    HW2  133   1.721   1.658   2.994
  366SOL     OW  134   1.252   1.731   2.990
  366SOL    HW1  135   1.336   1.736   2.936
  366SOL    HW2  136   1.229   1.635   3.008
  370SOL     OW  137   1.388   1.573   2.339
  370SOL    HW1  138   1.455   1.585   2.265
  370SOL    HW2  139   1.348   1.662   2.362
  375SOL     OW  140   1.650   1.720   3.256
  375SOL    HW1  141   1.703   1.730   3.172
  375SOL    HW2  142   1.623   1.810   3.290
  378SOL     OW  143   1.194   1.612   1.893
  378SOL    HW1  144   1.200   1.519   1.930
  378SOL    HW2  145   1.135   1.612   1.813
  381SOL     OW  146   1.504   1.607   1.906
  381SOL    HW1  147   1.412   1.644   1.913
  381SOL    HW2  148   1.542   1.627   1.816
  383SOL     OW  149   1.614   1.292   3.151
  383SOL    HW1  150   1.674   1.295   3.231
  383SOL    HW2  151   1.539   1.356   3.164
  396SOL     OW  152   1.493   1.767   2.821
  396SOL    HW1  153   1.526   1.831   2.752
  396SOL    HW2  154   1.559   1.761   2.896
  409SOL     OW  155   1.861   1.569   2.713
  409SOL    HW1  156   1.790   1.557   2.643
  409SOL    HW2  157   1.862   1.490   2.773
  415SOL     OW  158   1.705   1.487   2.966
  415SOL    HW1  159   1.612   1.462   2.939
  415SOL    HW2  160   1.731   1.437   3.048
  574SOL     OW  161   0.850   2.660   1.823
  574SOL    HW1  162   0.846   2.736   1.888
  574SOL    HW2  163   0.872   2.696   1.732
  578SOL     OW  164   1.460   3.367   1.339
  578SOL    HW1  165   1.484   3.461   1.365
  578SOL    HW2  166   1.444   3.313   1.421
  582SOL     OW  167   1.127   3.203   1.690
  582SOL    HW1  168   1.174   3.203   1.778
  582SOL    HW2  169   1.079   3.116   1.679
  587SOL     OW  170   1.594   1.976   1.480
  587SOL    HW1  171   1.576   2.043   1.408
  587SOL    HW2  172   1.591   2.022   1.569
  595SOL     OW  173   1.293   3.090   1.423
  595SOL    HW1  174   1.330   3.017   1.365
  595SOL    HW2  175   1.345   3.095   1.508
  607SOL     OW  176   1.394   2.331   1.674
  607SOL    HW1  177   1.374   2.374   1.762
  607SOL    HW2  178   1.472   2.269   1.683
  608SOL     OW  179   0.973   2.752   1.572
  608SOL    HW1  180   1.019   2.668   1.543
  608SOL    HW2  181   0.917   2.786   1.497
  614SOL     OW  182   1.719   2.447   1.831
  614SOL    HW1  183   1.693   2.536   1.795
  614SOL    HW2  184   1.717   2.379   1.758
  632SOL     OW  185   1.547   2.084   1.729
  632SOL    HW1  186   1.542   2.121   1.821
  632SOL    HW2  187   1.475   2.015   1.717
  636SOL     OW  188   1.351   2.452   1.433
  636SOL    HW1  189   1.379   2.409   1.518
  636SOL    HW2  190   1.376   2.548   1.434
  643SOL     OW  191   1.076   2.545   1.464
  643SOL    HW1  192   0.996   2.484   1.467
  643SOL    HW2  193   1.157   2.492   1.440
  659SOL     OW  194   1.754   3.085   1.588
  659SOL    HW1  195   1.845   3.046   1.575
  659SOL    HW2  196   1.762   3.181   1.612
  661SOL     OW  197   1.592   3.491   1.625
  661SOL    HW1  198   1.619   3.525   1.535
  661SOL    HW2  199   1.671   3.453   1.671
  663SOL     OW  200   1.638   2.961   1.079
  663SOL    HW1  201   1.643   3.042   1.138
  663SOL    HW2  202   1.552   2.963   1.028
  665SOL     OW  203   0.980   2.978   1.719
  665SOL    HW1  204   0.881   2.984   1.729
  665SOL    HW2  205   1.003   2.898   1.663
  668SOL     OW  206   1.274   2.248   1.262
  668SOL    HW1  207   1.295   2.322   1.326
  668SOL    HW2  208   1.185   2.265   1.219
  677SOL     OW  209   1.587   2.641   1.670
  677SOL    HW1  210   1.495   2.679   1.665
  677SOL    HW2  211   1.647   2.688   1.605
  678SOL     OW  212   1.013   1.967   1.770
  678SOL    HW1  213   1.019   2.052   1.718
  678SOL    HW2  214   1.045   1.891   1.713
  686SOL     OW  215   1.728   2.797   1.854
  686SOL    HW1  216   1.682   2.790   1.765
  686SOL    HW2  217   1.666   2.841   1.920
  691SOL     OW  218   1.859   3.380   1.605
  691SOL    HW1  219   1.873   3.407   1.510
  691SOL    HW2  220   1.942   3.402   1.658
  698SOL     OW  221   1.138   2.242   1.678
  698SOL    HW1  222   1.093   2.305   1.742
  698SOL    HW2  223   1.231   2.273   1.661
  699SOL     OW  224   1.160   2.069   1.477
  699SOL    HW1  225   1.160   2.133   1.554
  699SOL    HW2  226   1.188   2.117   1.394
  706SOL     OW  227   1.369   2.812   1.660
  706SOL    HW1  228   1.408   2.901   1.680
  706SOL    HW2  229   1.379   2.792   1.563
  708SOL     OW  230   1.657   2.466   1.206
  708SOL    HW1  231   1.619   2.397   1.268
  708SOL    HW2  232   1.739   2.430   1.162
  714SOL     OW  233   1.347   2.921   1.234
  714SOL    HW1  234   1.371   2.858   1.160
  714SOL    HW2  235   1.257   2.961   1.216
  727SOL     OW  236   1.650   3.582   1.394
  727SOL    HW1  237   1.703   3.592   1.310
  727SOL    HW2  238   1.623   3.672   1.428
  728SOL     OW  239   1.841   2.037   0.963
  728SOL    HW1  240   1.880   1.952   0.927
  728SOL    HW2  241   1.743   2.039   0.944
  735SOL     OW  242   1.614   3.154   1.289
  735SOL    HW1  243   1.674   3.157   1.369
  735SOL    HW2  244   1.539   3.218   1.302
  739SOL     OW  245   1.709   2.247   1.381
  739SOL    HW1  246   1.782   2.316   1.385
  739SOL    HW2  247   1.737   2.172   1.322
  744SOL     OW  248   1.440   2.718   1.398
  744SOL    HW1  249   1.383   2.770   1.335
  744SOL    HW2  250   1.536   2.730   1.374
  750SOL     OW  251   1.450   3.082   1.633
  750SOL    HW1  252   1.441   3.072   1.732
  750SOL    HW2  253   1.546   3.075   1.607
  752SOL     OW  254   1.674   2.745   1.254
  752SOL    HW1  255   1.647   2.656   1.217
  752SOL    HW2  256   1.675   2.813   1.181
  755SOL     OW  257   1.777   2.204   1.642
  755SOL    HW1  258   1.760   2.235   1.548
  755SOL    HW2  259   1.693   2.167   1.680
  756SOL     OW  260   1.730   2.796   1.517
  756SOL    HW1  261   1.768   2.887   1.532
  756SOL    HW2  262   1.722   2.779   1.418
  765SOL     OW  263   1.824   2.054   1.227
  765SOL    HW1  264   1.820   1.964   1.271
  765SOL    HW2  265   1.827   2.043   1.128
  770SOL     OW  266   1.424   2.076   1.112
  770SOL    HW1  267   1.476   2.011   1.167
  770SOL    HW2  268   1.375   2.139   1.173
  783SOL     OW  269   1.555   3.373   2.565
  783SOL    HW1  270   1.498   3.357   2.646
  783SOL    HW2  271   1.496   3.383   2.485
  784SOL     OW  272   1.135   2.565   2.579
  784SOL    HW1  273   1.192   2.643   2.554
  784SOL    HW2  274   1.075   2.591   2.655
  785SOL     OW  275   1.755   2.469   2.093
  785SOL    HW1  276   1.743   2.456   1.994
  785SOL    HW2  277   1.725   2.388   2.142
  791SOL     OW  278   1.460   3.367   3.201
  791SOL    HW1  279   1.484   3.461   3.227
  791SOL    HW2  280   1.444   3.313   3.283
  793SOL     OW  281   1.603   2.309   2.599
  793SOL    HW1  282   1.529   2.355   2.549
  793SOL    HW2  283   1.654   2.377   2.652
  800SOL     OW  284   1.594   1.976   3.342
  800SOL    HW1  285   1.576   2.043   3.270
  800SOL    HW2  286   1.591   2.022   3.431
  802SOL     OW  287   1.842   3.629   2.221
  802SOL    HW1  288   1.896   3.600   2.301
  802SOL    HW2  289   1.872   3.719   2.192
  804SOL     OW  290   1.689   2.784   2.474
  804SOL    HW1  291   1.784   2.755   2.482
  804SOL    HW2  292   1.681   2.849   2.399
  805SOL     OW  293   1.641   2.970   2.294
  805SOL    HW1  294   1.727   2.972   2.242
  805SOL    HW2  295   1.655   3.017   2.382
  808SOL     OW  296   1.293   3.090   3.285
  808SOL    HW1  297   1.330   3.017   3.227
  808SOL    HW2  298   1.345   3.095   3.370
  809SOL     OW  299   0.809   1.866   2.364
  809SOL    HW1  300   0.849   1.957   2.355
  809SOL    HW2  301   0.709   1.874   2.370
  811SOL     OW  302   1.525   2.861   2.052
  811SOL    HW1  303   1.462   2.785   2.065
  811SOL    HW2  304   1.573   2.879   2.138
  814SOL     OW  305   1.466   3.279   2.815
  814SOL    HW1  306   1.407   3.285   2.895
  814SOL    HW2  307   1.451   3.191   2.769
  815SOL     OW  308   1.667   3.576   2.434
  815SOL    HW1  309   1.626   3.553   2.346
  815SOL    HW2  310   1.649   3.502   2.499
  817SOL     OW  311   1.281   2.207   2.806
  817SOL    HW1  312   1.195   2.157   2.793
  817SOL    HW2  313   1.343   2.153   2.862
  818SOL     OW  314   1.576   3.524   2.169
  818SOL    HW1  315   1.665   3.570   2.172
  818SOL    HW2  316   1.555   3.500   2.074
  820SOL     OW  317   1.394   2.331   3.536
  820SOL    HW1  318   1.374   2.374   3.624
  820SOL    HW2  319   1.472   2.269   3.545
  822SOL     OW  320   0.991   2.272   3.104
  822SOL    HW1  321   0.914   2.306   3.158
  822SOL    HW2  322   0.957   2.221   3.025
  823SOL     OW  323   1.041   2.563   2.291
  823SOL    HW1  324   1.067   2.559   2.387
  823SOL    HW2  325   0.956   2.512   2.277
  826SOL     OW  326   0.865   2.210   2.057
  826SOL    HW1  327   0.924   2.273   2.008
  826SOL    HW2  328   0.884   2.116   2.028
  827SOL     OW  329   1.719   2.447   3.693
  827SOL    HW1  330   1.693   2.536   3.657
  827SOL    HW2  331   1.717   2.379   3.620
  828SOL     OW  332   1.362   3.006   2.407
  828SOL    HW1  333   1.445   2.977   2.359
  828SOL    HW2  334   1.313   3.073   2.351
  830SOL     OW  335   1.008   3.318   2.339
  830SOL    HW1  336   0.962   3.390   2.287
  830SOL    HW2  337   1.004   3.338   2.437
  832SOL     OW  338   1.795   2.928   2.735
  832SOL    HW1  339   1.733   2.913   2.659
  832SOL    HW2  340   1.743   2.939   2.820
  833SOL     OW  341   1.227   3.412   3.368
  833SOL    HW1  342   1.233   3.335   3.432
  833SOL    HW2  343   1.175   3.386   3.288
  835SOL     OW  344   1.458   2.597   2.590
  835SOL    HW1  345   1.453   2.532   2.665
  835SOL    HW2  346   1.538   2.656   2.603
  839SOL     OW  347   1.632   3.239   1.943
  839SOL    HW1  348   1.600   3.333   1.933
  839SOL    HW2  349   1.556   3.176   1.931
  841SOL     OW  350   1.400   1.969   2.288
  841SOL    HW1  351   1.376   1.932   2.198
  841SOL    HW2  352   1.499   1.985   2.292
  845SOL     OW  353   1.547   2.084   3.591
  845SOL    HW1  354   1.542   2.121   3.683
  845SOL    HW2  355   1.475   2.015   3.579
  849SOL     OW  356   1.351   2.452   3.295
  849SOL    HW1  357   1.379   2.409   3.380
  849SOL    HW2  358   1.376   2.548   3.296
  851SOL     OW  359   0.922   2.365   2.761
  851SOL    HW1  360   0.897   2.356   2.665
  851SOL    HW2  361   0.970   2.283   2.792
  853SOL     OW  362   1.434   3.050   1.903
  853SOL    HW1  363   1.466   2.974   1.960
  853SOL    HW2  364   1.342   3.077   1.933
  855SOL     OW  365   0.935   2.098   2.342
  855SOL    HW1  366   0.887   2.139   2.264
  855SOL    HW2  367   1.034   2.096   2.323
  856SOL     OW  368   1.076   2.545   3.326
  856SOL    HW1  369   0.996   2.484   3.329
  856SOL    HW2  370   1.157   2.492   3.302
  857SOL     OW  371   1.227   3.432   2.655
  857SOL    HW1  372   1.248   3.506   2.590
  857SOL    HW2  373   1.295   3.432   2.728
  859SOL     OW  374   1.271   3.659   2.453
  859SOL    HW1  375   1.315   3.723   2.389
  859SOL    HW2  376   1.221   3.711   2.523
  860SOL     OW  377   1.032   2.411   1.878
  860SOL    HW1  378   0.991   2.493   1.839
  860SOL    HW2  379   1.096   2.437   1.951
  863SOL     OW  380   0.866   2.316   2.504
  863SOL    HW1  381   0.834   2.388   2.442
  863SOL    HW2  382   0.890   2.235   2.451
  864SOL     OW  383   1.017   1.901   2.615
  864SOL    HW1  384   0.945   1.906   2.546
  864SOL    HW2  385   0.993   1.832   2.684
  865SOL     OW  386   1.429   3.035   2.729
  865SOL    HW1  387   1.374   2.951   2.722
  865SOL    HW2  388   1.455   3.064   2.637
  866SOL     OW  389   1.466   2.452   2.854
  866SOL    HW1  390   1.436   2.357   2.861
  866SOL    HW2  391   1.539   2.468   2.920
  867SOL     OW  392   1.857   2.695   2.239
  867SOL    HW1  393   1.899   2.631   2.303
  867SOL    HW2  394   1.819   2.644   2.161
  869SOL     OW  395   1.664   3.142   2.519
  869SOL    HW1  396   1.763   3.150   2.533
  869SOL    HW2  397   1.619   3.226   2.550
  870SOL     OW  398   1.390   2.437   1.940
  870SOL    HW1  399   1.336   2.416   2.021
  870SOL    HW2  400   1.481   2.396   1.949
  872SOL     OW  401   1.754   3.085   3.450
  872SOL    HW1  402   1.845   3.046   3.437
  872SOL    HW2  403   1.762   3.181   3.474
  873SOL     OW  404   1.064   3.209   3.202
  873SOL    HW1  405   0.984   3.186   3.257
  873SOL    HW2  406   1.147   3.183   3.251
  874SOL     OW  407   1.592   3.491   3.487
  874SOL    HW1  408   1.619   3.525   3.397
  874SOL    HW2  409   1.671   3.453   3.533
  875SOL     OW  410   1.111   3.057   2.962
  875SOL    HW1  411   1.071   3.101   3.043
  875SOL    HW2  412   1.070   3.094   2.879
  876SOL     OW  413   1.638   2.961   2.941
  876SOL    HW1  414   1.643   3.042   3.000
  876SOL    HW2  415   1.552   2.963   2.890
  881SOL     OW  416   1.274   2.248   3.124
  881SOL    HW1  417   1.295   2.322   3.188
  881SOL    HW2  418   1.185   2.265   3.081
  885SOL     OW  419   1.252   3.210   2.250
  885SOL    HW1  420   1.302   3.287   2.290
  885SOL    HW2  421   1.157   3.212   2.282
  886SOL     OW  422   1.272   3.307   3.004
  886SOL    HW1  423   1.319   3.320   3.091
  886SOL    HW2  424   1.206   3.233   3.013
  887SOL     OW  425   1.582   2.501   2.334
  887SOL    HW1  426   1.551   2.562   2.407
  887SOL    HW2  427   1.632   2.553   2.265
  890SOL     OW  428   1.587   2.641   3.532
  890SOL    HW1  429   1.495   2.679   3.527
  890SOL    HW2  430   1.647   2.688   3.467
  894SOL     OW  431   1.360   2.724   2.907
  894SOL    HW1  432   1.285   2.724   2.841
  894SOL    HW2  433   1.397   2.632   2.916
  895SOL     OW  434   1.209   2.387   2.137
  895SOL    HW1  435   1.222   2.303   2.191
  895SOL    HW2  436   1.180   2.461   2.197
  899SOL     OW  437   1.728   2.797   3.716
  899SOL    HW1  438   1.682   2.790   3.627
  899SOL    HW2  439   1.666   2.841   3.782
  901SOL     OW  440   1.622   2.229   2.236
  901SOL    HW1  441   1.624   2.153   2.300
  901SOL    HW2  442   1.574   2.306   2.276
  902SOL     OW  443   1.023   2.628   2.828
  902SOL    HW1  444   1.038   2.649   2.924
  902SOL    HW2  445   0.993   2.533   2.819
  904SOL     OW  446   1.859   3.380   3.467
  904SOL    HW1  447   1.873   3.407   3.372
  904SOL    HW2  448   1.942   3.402   3.520
  906SOL     OW  449   1.540   2.136   1.987
  906SOL    HW1  450   1.479   2.061   2.010
  906SOL    HW2  451   1.562   2.188   2.070
  907SOL     OW  452   1.303   2.700   1.904
  907SOL    HW1  453   1.337   2.607   1.919
  907SOL    HW2  454   1.321   2.727   1.809
  908SOL     OW  455   1.068   3.195   2.711
  908SOL    HW1  456   1.075   3.111   2.656
  908SOL    HW2  457   1.130   3.264   2.675
  911SOL     OW  458   1.138   2.242   3.540
  911SOL    HW1  459   1.093   2.305   3.604
  911SOL    HW2  460   1.231   2.273   3.523
  912SOL     OW  461   1.160   2.069   3.339
  912SOL    HW1  462   1.160   2.133   3.416
  912SOL    HW2  463   1.188   2.117   3.256
  916SOL     OW  464   1.002   2.658   3.100
  916SOL    HW1  465   1.043   2.626   3.186
  916SOL    HW2  466   0.906   2.631   3.097
  919SOL     OW  467   1.369   2.812   3.522
  919SOL    HW1  468   1.408   2.901   3.542
  919SOL    HW2  469   1.379   2.792   3.425
  920SOL     OW  470   0.815   2.434   2.187
  920SOL    HW1  471   0.822   2.345   2.141
  920SOL    HW2  472   0.721   2.468   2.179
  921SOL     OW  473   1.657   2.466   3.068
  921SOL    HW1  474   1.619   2.397   3.130
  921SOL    HW2  475   1.739   2.430   3.024
  927SOL     OW  476   1.347   2.921   3.096
  927SOL    HW1  477   1.371   2.858   3.022
  927SOL    HW2  478   1.257   2.961   3.078
  928SOL     OW  479   1.302   2.717   2.171
  928SOL    HW1  480   1.216   2.686   2.213
  928SOL    HW2  481   1.298   2.703   2.072
  929SOL     OW  482   1.759   3.609   3.016
  929SOL    HW1  483   1.820   3.639   2.943
  929SOL    HW2  484   1.721   3.520   2.994
  930SOL     OW  485   1.252   3.593   2.990
  930SOL    HW1  486   1.336   3.598   2.936
  930SOL    HW2  487   1.229   3.497   3.008
  933SOL     OW  488   1.726   1.997   2.385
  933SOL    HW1  489   1.799   1.980   2.318
  933SOL    HW2  490   1.695   1.910   2.423
  934SOL     OW  491   1.388   3.435   2.339
  934SOL    HW1  492   1.455   3.447   2.265
  934SOL    HW2  493   1.348   3.524   2.362
  936SOL     OW  494   1.280   2.789   2.534
  936SOL    HW1  495   1.340   2.708   2.536
  936SOL    HW2  496   1.320   2.858   2.474
  939SOL     OW  497   1.650   3.582   3.256
  939SOL    HW1  498   1.703   3.592   3.172
  939SOL    HW2  499   1.623   3.672   3.290
  940SOL     OW  500   1.841   2.037   2.825
  940SOL    HW1  501   1.880   1.952   2.789
  940SOL    HW2  502   1.743   2.039   2.806
  942SOL     OW  503   1.194   3.474   1.893
  942SOL    HW1  504   1.200   3.381   1.930
  942SOL    HW2  505   1.135   3.474   1.813
  944SOL     OW  506   0.916   2.772   2.153
  944SOL    HW1  507   0.979   2.810   2.085
  944SOL    HW2  508   0.956   2.689   2.192
  945SOL     OW  509   1.504   3.469   1.906
  945SOL    HW1  510   1.412   3.506   1.913
  945SOL    HW2  511   1.542   3.489   1.816
  947SOL     OW  512   1.614   3.154   3.151
  947SOL    HW1  513   1.674   3.157   3.231
  947SOL    HW2  514   1.539   3.218   3.164
  948SOL     OW  515   1.039   2.960   2.558
  948SOL    HW1  516   0.969   2.913   2.612
  948SOL    HW2  517   1.098   2.892   2.515
  949SOL     OW  518   1.014   2.098   2.833
  949SOL    HW1  519   1.006   2.062   2.740
  949SOL    HW2  520   1.012   2.022   2.898
  951SOL     OW  521   1.709   2.247   3.243
  951SOL    HW1  522   1.782   2.316   3.247
  951SOL    HW2  523   1.737   2.172   3.184
  956SOL     OW  524   1.440   2.718   3.260
  956SOL    HW1  525   1.383   2.770   3.197
  956SOL    HW2  526   1.536   2.730   3.236
  958SOL     OW  527   1.183   3.197   1.981
  958SOL    HW1  528   1.084   3.186   1.983
  958SOL    HW2  529   1.217   3.212   2.074
  960SOL     OW  530   1.493   3.629   2.821
  960SOL    HW1  531   1.526   3.693   2.752
  960SOL    HW2  532   1.559   3.623   2.896
  962SOL     OW  533   1.450   3.082   3.495
  962SOL    HW1  534   1.441   3.072   3.594
  962SOL    HW2  535   1.546   3.075   3.469
  964SOL     OW  536   1.674   2.745   3.116
  964SOL    HW1  537   1.647   2.656   3.079
  964SOL    HW2  538   1.675   2.813   3.043
  965SOL     OW  539   1.225   2.187   2.311
  965SOL    HW1  540   1.290   2.113   2.300
  965SOL    HW2  541   1.245   2.237   2.395
  967SOL     OW  542   1.777   2.204   3.504
  967SOL    HW1  543   1.760   2.235   3.410
  967SOL    HW2  544   1.693   2.167   3.542
  968SOL     OW  545   1.730   2.796   3.379
  968SOL    HW1  546   1.768   2.887   3.394
  968SOL    HW2  547   1.722   2.779   3.280
  971SOL     OW  548   0.859   2.818   2.723
  971SOL    HW1  549   0.913   2.749   2.771
  971SOL    HW2  550   0.827   2.887   2.789
  972SOL     OW  551   1.083   2.846   1.949
  972SOL    HW1  552   1.060   2.899   1.867
  972SOL    HW2  553   1.164   2.790   1.930
  973SOL     OW  554   1.861   3.431   2.713
  973SOL    HW1  555   1.790   3.419   2.643
  973SOL    HW2  556   1.862   3.352   2.773
  977SOL     OW  557   1.824   2.054   3.089
  977SOL    HW1  558   1.820   1.964   3.133
  977SOL    HW2  559   1.827   2.043   2.990
  979SOL     OW  560   1.705   3.349   2.966
  979SOL    HW1  561   1.612   3.324   2.939
  979SOL    HW2  562   1.731   3.299   3.048
  982SOL     OW  563   1.424   2.076   2.974
  982SOL    HW1  564   1.476   2.011   3.029
  982SOL    HW2  565   1.375   2.139   3.035
  983SOL     OW  566   1.001   1.896   3.016
  983SOL    HW1  567   0.938   1.824   2.985
  983SOL    HW2  568   1.094   1.860   3.016
  986SOL     OW  569   1.352   1.914   2.030
  986SOL    HW1  570   1.387   1.873   1.946
  986SOL    HW2  571   1.262   1.876   2.050
  987SOL     OW  572   1.300   2.315   2.553
  987SOL    HW1  573   1.241   2.395   2.557
  987SOL    HW2  574   1.315   2.280   2.646
  988SOL     OW  575   1.593   2.083   2.744
  988SOL    HW1  576   1.509   2.082   2.798
  988SOL    HW2  577   1.595   2.166   2.688
  997SOL     OW  578   1.755   2.469   3.955
  997SOL    HW1  579   1.743   2.456   3.856
  997SOL    HW2  580   1.725   2.388   4.004
 1014SOL     OW  581   1.525   2.861   3.914
 1014SOL    HW1  582   1.462   2.785   3.927
 1014SOL    HW2  583   1.573   2.879   4.000
 1031SOL     OW  584   1.632   3.239   3.805
 1031SOL    HW1  585   1.600   3.333   3.795
 1031SOL    HW2  586   1.556   3.176   3.793
 1041SOL     OW  587   1.434   3.050   3.765
 1041SOL    HW1  588   1.466   2.974   3.822
 1041SOL    HW2  589   1.342   3.077   3.795
 1052SOL     OW  590   1.857   2.695   4.101
 1052SOL    HW1  591   1.899   2.631   4.165
 1052SOL    HW2  592   1.819   2.644   4.023
 1055SOL     OW  593   1.390   2.437   3.802
 1055SOL    HW1  594   1.336   2.416   3.883
 1055SOL    HW2  595   1.481   2.396   3.811
 1073SOL     OW  596   1.540   2.136   3.849
 1073SOL    HW1  597   1.479   2.061   3.872
 1073SOL    HW2  598   1.562   2.188   3.932
 1074SOL     OW  599   1.303   2.700   3.766
 1074SOL    HW1  600   1.337   2.607   3.781
 1074SOL    HW2  601   1.321   2.727   3.671
 1312SOL     OW  602   1.400   3.831   2.288
 1312SOL    HW1  603   1.376   3.794   2.198
 1312SOL    HW2  604   1.499   3.847   2.292
 1377SOL     OW  605   1.726   3.859   2.385
 1377SOL    HW1  606   1.799   3.842   2.318
 1377SOL    HW2  607   1.695   3.772   2.423
 1379SOL     OW  608   1.841   3.899   2.825
 1379SOL    HW1  609   1.880   3.814   2.789
 1379SOL    HW2  610   1.743   3.901   2.806
 1403SOL     OW  611   1.824   3.916   3.089
 1403SOL    HW1  612   1.820   3.826   3.133
 1403SOL    HW2  613   1.827   3.905   2.990
 1409SOL     OW  614   1.352   3.776   2.030
 1409SOL    HW1  615   1.387   3.735   1.946
 1409SOL    HW2  616   1.262   3.738   2.050
 1411SOL     OW  617   1.593   3.945   2.744
 1411SOL    HW1  618   1.509   3.944   2.798
 1411SOL    HW2  619   1.595   4.028   2.688
 1513SOL     OW  620   2.431   1.275   1.165
 1513SOL    HW1  621   2.338   1.268   1.128
 1513SOL    HW2  622   2.442   1.364   1.209
 1520SOL     OW  623   2.548   1.161   1.803
 1520SOL    HW1  624   2.608   1.240   1.817
 1520SOL    HW2  625   2.462   1.192   1.762
 1521SOL     OW  626   2.197   1.435   1.061
 1521SOL    HW1  627   2.119   1.404   1.008
 1521SOL    HW2  628   2.255   1.493   1.004
 1522SOL     OW  629   3.322   1.505   1.339
 1522SOL    HW1  630   3.346   1.599   1.365
 1522SOL    HW2  631   3.306   1.451   1.421
 1526SOL     OW  632   2.989   1.341   1.690
 1526SOL    HW1  633   3.036   1.341   1.778
 1526SOL    HW2  634   2.941   1.254   1.679
 1529SOL     OW  635   2.482   1.786   1.439
 1529SOL    HW1  636   2.390   1.769   1.474
 1529SOL    HW2  637   2.510   1.878   1.465
 1539SOL     OW  638   3.155   1.228   1.423
 1539SOL    HW1  639   3.192   1.155   1.365
 1539SOL    HW2  640   3.207   1.233   1.508
 1543SOL     OW  641   3.049   1.792   1.616
 1543SOL    HW1  642   3.073   1.852   1.540
 1543SOL    HW2  643   3.056   1.697   1.586
 1556SOL     OW  644   1.992   1.821   1.571
 1556SOL    HW1  645   1.982   1.806   1.670
 1556SOL    HW2  646   1.906   1.857   1.535
 1562SOL     OW  647   2.213   1.801   0.853
 1562SOL    HW1  648   2.263   1.715   0.859
 1562SOL    HW2  649   2.278   1.878   0.850
 1564SOL     OW  650   3.089   1.550   1.506
 1564SOL    HW1  651   3.095   1.473   1.570
 1564SOL    HW2  652   3.037   1.524   1.426
 1567SOL     OW  653   2.323   1.266   1.727
 1567SOL    HW1  654   2.273   1.267   1.641
 1567SOL    HW2  655   2.260   1.248   1.803
 1573SOL     OW  656   2.111   1.785   1.241
 1573SOL    HW1  657   2.168   1.720   1.291
 1573SOL    HW2  658   2.095   1.752   1.148
 1574SOL     OW  659   2.802   1.698   0.904
 1574SOL    HW1  660   2.882   1.641   0.925
 1574SOL    HW2  661   2.753   1.658   0.827
 1579SOL     OW  662   2.750   1.514   1.195
 1579SOL    HW1  663   2.727   1.489   1.101
 1579SOL    HW2  664   2.811   1.445   1.234
 1604SOL     OW  665   2.926   1.347   1.340
 1604SOL    HW1  666   2.846   1.324   1.395
 1604SOL    HW2  667   3.009   1.321   1.389
 1605SOL     OW  668   3.454   1.629   1.625
 1605SOL    HW1  669   3.481   1.663   1.535
 1605SOL    HW2  670   3.533   1.591   1.671
 1609SOL     OW  671   2.842   1.116   1.719
 1609SOL    HW1  672   2.743   1.122   1.729
 1609SOL    HW2  673   2.865   1.036   1.663
 1613SOL     OW  674   1.926   1.564   1.331
 1613SOL    HW1  675   1.880   1.646   1.297
 1613SOL    HW2  676   2.024   1.583   1.340
 1619SOL     OW  677   2.216   1.510   1.329
 1619SOL    HW1  678   2.195   1.466   1.242
 1619SOL    HW2  679   2.313   1.536   1.332
 1628SOL     OW  680   1.899   1.310   1.282
 1628SOL    HW1  681   1.952   1.261   1.350
 1628SOL    HW2  682   1.921   1.408   1.287
 1634SOL     OW  683   2.842   1.573   1.700
 1634SOL    HW1  684   2.822   1.617   1.612
 1634SOL    HW2  685   2.881   1.482   1.684
 1635SOL     OW  686   3.721   1.518   1.605
 1635SOL    HW1  687   3.735   1.545   1.510
 1635SOL    HW2  688   3.804   1.540   1.658
 1636SOL     OW  689   2.212   0.898   1.804
 1636SOL    HW1  690   2.288   0.942   1.852
 1636SOL    HW2  691   2.247   0.851   1.722
 1645SOL     OW  692   1.950   1.801   0.927
 1645SOL    HW1  693   1.908   1.715   0.900
 1645SOL    HW2  694   2.044   1.804   0.893
 1653SOL     OW  695   2.114   1.564   1.744
 1653SOL    HW1  696   2.084   1.621   1.820
 1653SOL    HW2  697   2.107   1.467   1.770
 1655SOL     OW  698   2.792   1.678   1.465
 1655SOL    HW1  699   2.768   1.660   1.370
 1655SOL    HW2  700   2.822   1.772   1.475
 1657SOL     OW  701   2.021   1.137   1.466
 1657SOL    HW1  702   2.043   1.076   1.542
 1657SOL    HW2  703   2.031   1.088   1.380
 1661SOL     OW  704   3.114   1.731   1.128
 1661SOL    HW1  705   3.198   1.736   1.074
 1661SOL    HW2  706   3.091   1.635   1.146
 1663SOL     OW  707   2.550   1.662   1.716
 1663SOL    HW1  708   2.494   1.743   1.725
 1663SOL    HW2  709   2.602   1.666   1.630
 1667SOL     OW  710   1.992   1.794   1.851
 1667SOL    HW1  711   1.951   1.720   1.904
 1667SOL    HW2  712   2.056   1.845   1.909
 1669SOL     OW  713   2.692   1.273   1.422
 1669SOL    HW1  714   2.687   1.306   1.517
 1669SOL    HW2  715   2.606   1.292   1.376
 1671SOL     OW  716   3.512   1.720   1.394
 1671SOL    HW1  717   3.565   1.730   1.310
 1671SOL    HW2  718   3.485   1.810   1.428
 1678SOL     OW  719   2.234   1.288   1.490
 1678SOL    HW1  720   2.221   1.381   1.456
 1678SOL    HW2  721   2.150   1.236   1.477
 1685SOL     OW  722   1.967   1.013   1.726
 1685SOL    HW1  723   1.890   0.980   1.780
 1685SOL    HW2  724   2.052   0.983   1.768
 1693SOL     OW  725   3.312   1.220   1.633
 1693SOL    HW1  726   3.303   1.210   1.732
 1693SOL    HW2  727   3.408   1.213   1.607
 1694SOL     OW  728   2.252   1.741   1.560
 1694SOL    HW1  729   2.161   1.782   1.558
 1694SOL    HW2  730   2.245   1.647   1.592
 1701SOL     OW  731   2.523   1.790   0.953
 1701SOL    HW1  732   2.477   1.878   0.940
 1701SOL    HW2  733   2.622   1.802   0.946
 1705SOL     OW  734   2.083   1.314   1.844
 1705SOL    HW1  735   2.018   1.241   1.823
 1705SOL    HW2  736   2.087   1.328   1.942
 1707SOL     OW  737   2.534   1.391   1.624
 1707SOL    HW1  738   2.456   1.341   1.662
 1707SOL    HW2  739   2.531   1.486   1.655
 1716SOL     OW  740   2.480   1.567   1.284
 1716SOL    HW1  741   2.475   1.649   1.341
 1716SOL    HW2  742   2.569   1.564   1.239
 1725SOL     OW  743   2.431   1.275   3.027
 1725SOL    HW1  744   2.338   1.268   2.990
 1725SOL    HW2  745   2.442   1.364   3.071
 1726SOL     OW  746   3.417   1.511   2.565
 1726SOL    HW1  747   3.360   1.495   2.646
 1726SOL    HW2  748   3.358   1.521   2.485
 1729SOL     OW  749   2.630   1.144   2.885
 1729SOL    HW1  750   2.552   1.161   2.945
 1729SOL    HW2  751   2.664   1.231   2.849
 1731SOL     OW  752   2.547   1.012   2.527
 1731SOL    HW1  753   2.616   0.996   2.597
 1731SOL    HW2  754   2.474   1.069   2.565
 1732SOL     OW  755   2.548   1.161   3.665
 1732SOL    HW1  756   2.608   1.240   3.679
 1732SOL    HW2  757   2.462   1.192   3.624
 1733SOL     OW  758   2.197   1.435   2.923
 1733SOL    HW1  759   2.119   1.404   2.870
 1733SOL    HW2  760   2.255   1.493   2.866
 1734SOL     OW  761   3.322   1.505   3.201
 1734SOL    HW1  762   3.346   1.599   3.227
 1734SOL    HW2  763   3.306   1.451   3.283
 1737SOL     OW  764   2.093   1.713   2.345
 1737SOL    HW1  765   2.127   1.790   2.399
 1737SOL    HW2  766   2.137   1.713   2.255
 1738SOL     OW  767   2.989   1.341   3.552
 1738SOL    HW1  768   3.036   1.341   3.640
 1738SOL    HW2  769   2.941   1.254   3.541
 1739SOL     OW  770   2.092   1.434   2.400
 1739SOL    HW1  771   2.066   1.530   2.400
 1739SOL    HW2  772   2.021   1.380   2.445
 1740SOL     OW  773   2.102   1.091   2.748
 1740SOL    HW1  774   2.116   1.007   2.800
 1740SOL    HW2  775   2.047   1.155   2.803
 1741SOL     OW  776   2.482   1.786   3.301
 1741SOL    HW1  777   2.390   1.769   3.336
 1741SOL    HW2  778   2.510   1.878   3.327
 1742SOL     OW  779   2.468   0.964   1.985
 1742SOL    HW1  780   2.475   1.048   1.931
 1742SOL    HW2  781   2.514   0.977   2.073
 1745SOL     OW  782   3.704   1.767   2.221
 1745SOL    HW1  783   3.758   1.738   2.301
 1745SOL    HW2  784   3.734   1.857   2.192
 1746SOL     OW  785   1.889   1.596   1.979
 1746SOL    HW1  786   1.870   1.500   2.000
 1746SOL    HW2  787   1.856   1.654   2.054
 1748SOL     OW  788   3.503   1.108   2.294
 1748SOL    HW1  789   3.589   1.110   2.242
 1748SOL    HW2  790   3.517   1.155   2.382
 1750SOL     OW  791   2.475   1.365   2.588
 1750SOL    HW1  792   2.426   1.278   2.597
 1750SOL    HW2  793   2.452   1.408   2.501
 1751SOL     OW  794   3.155   1.228   3.285
 1751SOL    HW1  795   3.192   1.155   3.227
 1751SOL    HW2  796   3.207   1.233   3.370
 1753SOL     OW  797   2.059   0.976   3.126
 1753SOL    HW1  798   2.148   0.931   3.112
 1753SOL    HW2  799   1.986   0.911   3.107
 1754SOL     OW  800   3.387   0.999   2.052
 1754SOL    HW1  801   3.324   0.923   2.065
 1754SOL    HW2  802   3.435   1.017   2.138
 1755SOL     OW  803   3.049   1.792   3.478
 1755SOL    HW1  804   3.073   1.852   3.402
 1755SOL    HW2  805   3.056   1.697   3.448
 1757SOL     OW  806   3.328   1.417   2.815
 1757SOL    HW1  807   3.269   1.423   2.895
 1757SOL    HW2  808   3.313   1.329   2.769
 1758SOL     OW  809   3.529   1.714   2.434
 1758SOL    HW1  810   3.488   1.691   2.346
 1758SOL    HW2  811   3.511   1.640   2.499
 1759SOL     OW  812   2.460   0.729   2.132
 1759SOL    HW1  813   2.484   0.798   2.064
 1759SOL    HW2  814   2.382   0.762   2.186
 1761SOL     OW  815   3.438   1.662   2.169
 1761SOL    HW1  816   3.527   1.708   2.172
 1761SOL    HW2  817   3.417   1.638   2.074
 1767SOL     OW  818   1.938   0.811   2.651
 1767SOL    HW1  819   2.037   0.799   2.660
 1767SOL    HW2  820   1.914   0.906   2.672
 1768SOL     OW  821   1.992   1.821   3.433
 1768SOL    HW1  822   1.982   1.806   3.532
 1768SOL    HW2  823   1.906   1.857   3.397
 1771SOL     OW  824   3.224   1.144   2.407
 1771SOL    HW1  825   3.307   1.115   2.359
 1771SOL    HW2  826   3.175   1.211   2.351
 1773SOL     OW  827   2.870   1.456   2.339
 1773SOL    HW1  828   2.824   1.528   2.287
 1773SOL    HW2  829   2.866   1.476   2.437
 1774SOL     OW  830   2.213   1.801   2.715
 1774SOL    HW1  831   2.263   1.715   2.721
 1774SOL    HW2  832   2.278   1.878   2.712
 1776SOL     OW  833   3.089   1.550   3.368
 1776SOL    HW1  834   3.095   1.473   3.432
 1776SOL    HW2  835   3.037   1.524   3.288
 1777SOL     OW  836   2.183   0.943   2.104
 1777SOL    HW1  837   2.265   0.982   2.062
 1777SOL    HW2  838   2.156   0.861   2.055
 1779SOL     OW  839   2.323   1.266   3.589
 1779SOL    HW1  840   2.273   1.267   3.503
 1779SOL    HW2  841   2.260   1.248   3.665
 1780SOL     OW  842   2.973   1.776   2.099
 1780SOL    HW1  843   2.913   1.714   2.149
 1780SOL    HW2  844   3.004   1.732   2.014
 1782SOL     OW  845   3.494   1.377   1.943
 1782SOL    HW1  846   3.462   1.471   1.933
 1782SOL    HW2  847   3.418   1.314   1.931
 1783SOL     OW  848   2.326   1.743   2.185
 1783SOL    HW1  849   2.359   1.782   2.271
 1783SOL    HW2  850   2.402   1.736   2.120
 1785SOL     OW  851   2.111   1.785   3.103
 1785SOL    HW1  852   2.168   1.720   3.153
 1785SOL    HW2  853   2.095   1.752   3.010
 1786SOL     OW  854   2.802   1.698   2.766
 1786SOL    HW1  855   2.882   1.641   2.787
 1786SOL    HW2  856   2.753   1.658   2.689
 1791SOL     OW  857   2.750   1.514   3.057
 1791SOL    HW1  858   2.727   1.489   2.963
 1791SOL    HW2  859   2.811   1.445   3.096
 1793SOL     OW  860   2.665   1.402   2.786
 1793SOL    HW1  861   2.755   1.416   2.744
 1793SOL    HW2  862   2.594   1.404   2.715
 1796SOL     OW  863   3.296   1.188   1.903
 1796SOL    HW1  864   3.328   1.112   1.960
 1796SOL    HW2  865   3.204   1.215   1.933
 1800SOL     OW  866   3.089   1.570   2.655
 1800SOL    HW1  867   3.110   1.644   2.590
 1800SOL    HW2  868   3.157   1.570   2.728
 1801SOL     OW  869   2.321   1.152   2.603
 1801SOL    HW1  870   2.250   1.125   2.668
 1801SOL    HW2  871   2.295   1.124   2.510
 1802SOL     OW  872   3.133   1.797   2.453
 1802SOL    HW1  873   3.177   1.861   2.389
 1802SOL    HW2  874   3.083   1.849   2.523
 1808SOL     OW  875   3.291   1.173   2.729
 1808SOL    HW1  876   3.236   1.089   2.722
 1808SOL    HW2  877   3.317   1.202   2.637
 1811SOL     OW  878   2.350   1.385   2.036
 1811SOL    HW1  879   2.263   1.370   2.083
 1811SOL    HW2  880   2.333   1.411   1.941
 1812SOL     OW  881   3.526   1.280   2.519
 1812SOL    HW1  882   3.625   1.288   2.533
 1812SOL    HW2  883   3.481   1.364   2.550
 1816SOL     OW  884   2.926   1.347   3.202
 1816SOL    HW1  885   2.846   1.324   3.257
 1816SOL    HW2  886   3.009   1.321   3.251
 1817SOL     OW  887   3.454   1.629   3.487
 1817SOL    HW1  888   3.481   1.663   3.397
 1817SOL    HW2  889   3.533   1.591   3.533
 1818SOL     OW  890   2.973   1.195   2.962
 1818SOL    HW1  891   2.933   1.239   3.043
 1818SOL    HW2  892   2.932   1.232   2.879
 1819SOL     OW  893   3.500   1.099   2.941
 1819SOL    HW1  894   3.505   1.180   3.000
 1819SOL    HW2  895   3.414   1.101   2.890
 1821SOL     OW  896   2.842   1.116   3.581
 1821SOL    HW1  897   2.743   1.122   3.591
 1821SOL    HW2  898   2.865   1.036   3.525
 1822SOL     OW  899   2.567   1.050   2.230
 1822SOL    HW1  900   2.553   1.057   2.329
 1822SOL    HW2  901   2.651   0.999   2.212
 1823SOL     OW  902   2.272   0.813   3.113
 1823SOL    HW1  903   2.358   0.825   3.163
 1823SOL    HW2  904   2.230   0.726   3.140
 1825SOL     OW  905   1.926   1.564   3.193
 1825SOL    HW1  906   1.880   1.646   3.159
 1825SOL    HW2  907   2.024   1.583   3.202
 1826SOL     OW  908   2.229   1.100   2.363
 1826SOL    HW1  909   2.222   1.183   2.307
 1826SOL    HW2  910   2.233   1.020   2.303
 1828SOL     OW  911   3.114   1.348   2.250
 1828SOL    HW1  912   3.164   1.425   2.290
 1828SOL    HW2  913   3.019   1.350   2.282
 1829SOL     OW  914   3.134   1.445   3.004
 1829SOL    HW1  915   3.181   1.458   3.091
 1829SOL    HW2  916   3.068   1.371   3.013
 1831SOL     OW  917   2.216   1.510   3.191
 1831SOL    HW1  918   2.195   1.466   3.104
 1831SOL    HW2  919   2.313   1.536   3.194
 1836SOL     OW  920   2.435   0.870   2.891
 1836SOL    HW1  921   2.479   0.959   2.882
 1836SOL    HW2  922   2.372   0.870   2.968
 1840SOL     OW  923   1.899   1.310   3.144
 1840SOL    HW1  924   1.952   1.261   3.212
 1840SOL    HW2  925   1.921   1.408   3.149
 1845SOL     OW  926   2.885   0.766   2.828
 1845SOL    HW1  927   2.900   0.787   2.924
 1845SOL    HW2  928   2.855   0.671   2.819
 1846SOL     OW  929   2.842   1.573   3.562
 1846SOL    HW1  930   2.822   1.617   3.474
 1846SOL    HW2  931   2.881   1.482   3.546
 1851SOL     OW  932   2.930   1.333   2.711
 1851SOL    HW1  933   2.937   1.249   2.656
 1851SOL    HW2  934   2.992   1.402   2.675
 1852SOL     OW  935   2.181   0.810   2.811
 1852SOL    HW1  936   2.274   0.846   2.816
 1852SOL    HW2  937   2.175   0.725   2.863
 1856SOL     OW  938   1.870   1.326   2.062
 1856SOL    HW1  939   1.777   1.347   2.031
 1856SOL    HW2  940   1.880   1.227   2.075
 1857SOL     OW  941   1.950   1.801   2.789
 1857SOL    HW1  942   1.908   1.715   2.762
 1857SOL    HW2  943   2.044   1.804   2.755
 1858SOL     OW  944   2.366   1.568   2.772
 1858SOL    HW1  945   2.432   1.642   2.781
 1858SOL    HW2  946   2.410   1.489   2.730
 1865SOL     OW  947   2.114   1.564   3.606
 1865SOL    HW1  948   2.084   1.621   3.682
 1865SOL    HW2  949   2.107   1.467   3.632
 1867SOL     OW  950   2.792   1.678   3.327
 1867SOL    HW1  951   2.768   1.660   3.232
 1867SOL    HW2  952   2.822   1.772   3.337
 1869SOL     OW  953   2.021   1.137   3.328
 1869SOL    HW1  954   2.043   1.076   3.404
 1869SOL    HW2  955   2.031   1.088   3.242
 1870SOL     OW  956   3.209   1.059   3.096
 1870SOL    HW1  957   3.233   0.996   3.022
 1870SOL    HW2  958   3.119   1.099   3.078
 1871SOL     OW  959   3.164   0.855   2.171
 1871SOL    HW1  960   3.078   0.824   2.213
 1871SOL    HW2  961   3.160   0.841   2.072
 1872SOL     OW  962   3.621   1.747   3.016
 1872SOL    HW1  963   3.682   1.777   2.943
 1872SOL    HW2  964   3.583   1.658   2.994
 1873SOL     OW  965   3.114   1.731   2.990
 1873SOL    HW1  966   3.198   1.736   2.936
 1873SOL    HW2  967   3.091   1.635   3.008
 1874SOL     OW  968   1.945   1.258   2.884
 1874SOL    HW1  969   1.940   1.257   2.984
 1874SOL    HW2  970   1.862   1.217   2.846
 1875SOL     OW  971   2.550   1.662   3.578
 1875SOL    HW1  972   2.494   1.743   3.587
 1875SOL    HW2  973   2.602   1.666   3.492
 1877SOL     OW  974   3.250   1.573   2.339
 1877SOL    HW1  975   3.317   1.585   2.265
 1877SOL    HW2  976   3.210   1.662   2.362
 1878SOL     OW  977   1.992   1.794   3.713
 1878SOL    HW1  978   1.951   1.720   3.766
 1878SOL    HW2  979   2.056   1.845   3.771
 1879SOL     OW  980   3.142   0.927   2.534
 1879SOL    HW1  981   3.202   0.846   2.536
 1879SOL    HW2  982   3.182   0.996   2.474
 1880SOL     OW  983   2.692   1.273   3.284
 1880SOL    HW1  984   2.687   1.306   3.379
 1880SOL    HW2  985   2.606   1.292   3.238
 1881SOL     OW  986   2.534   1.616   2.016
 1881SOL    HW1  987   2.543   1.626   1.917
 1881SOL    HW2  988   2.494   1.527   2.037
 1882SOL     OW  989   3.512   1.720   3.256
 1882SOL    HW1  990   3.565   1.730   3.172
 1882SOL    HW2  991   3.485   1.810   3.290
 1885SOL     OW  992   3.056   1.612   1.893
 1885SOL    HW1  993   3.062   1.519   1.930
 1885SOL    HW2  994   2.997   1.612   1.813
 1886SOL     OW  995   2.684   1.002   3.234
 1886SOL    HW1  996   2.724   1.001   3.142
 1886SOL    HW2  997   2.694   1.094   3.274
 1887SOL     OW  998   2.778   0.910   2.153
 1887SOL    HW1  999   2.841   0.948   2.085
 1887SOL    HW2 1000   2.818   0.827   2.192
 1888SOL     OW 1001   3.366   1.607   1.906
 1888SOL    HW1 1002   3.274   1.644   1.913
 1888SOL    HW2 1003   3.404   1.627   1.816
 1889SOL     OW 1004   2.234   1.288   3.352
 1889SOL    HW1 1005   2.221   1.381   3.318
 1889SOL    HW2 1006   2.150   1.236   3.339
 1890SOL     OW 1007   3.476   1.292   3.151
 1890SOL    HW1 1008   3.536   1.295   3.231
 1890SOL    HW2 1009   3.401   1.356   3.164
 1891SOL     OW 1010   2.901   1.098   2.558
 1891SOL    HW1 1011   2.831   1.051   2.612
 1891SOL    HW2 1012   2.960   1.030   2.515
 1893SOL     OW 1013   2.452   1.487   2.353
 1893SOL    HW1 1014   2.494   1.429   2.283
 1893SOL    HW2 1015   2.408   1.566   2.309
 1895SOL     OW 1016   2.117   1.348   2.152
 1895SOL    HW1 1017   2.021   1.349   2.125
 1895SOL    HW2 1018   2.129   1.401   2.236
 1901SOL     OW 1019   3.045   1.335   1.981
 1901SOL    HW1 1020   2.946   1.324   1.983
 1901SOL    HW2 1021   3.079   1.350   2.074
 1903SOL     OW 1022   3.355   1.767   2.821
 1903SOL    HW1 1023   3.388   1.831   2.752
 1903SOL    HW2 1024   3.421   1.761   2.896
 1906SOL     OW 1025   2.252   1.741   3.422
 1906SOL    HW1 1026   2.161   1.782   3.420
 1906SOL    HW2 1027   2.245   1.647   3.454
 1909SOL     OW 1028   2.456   0.745   2.514
 1909SOL    HW1 1029   2.506   0.830   2.495
 1909SOL    HW2 1030   2.368   0.747   2.466
 1912SOL     OW 1031   2.721   1.374   1.878
 1912SOL    HW1 1032   2.675   1.389   1.966
 1912SOL    HW2 1033   2.765   1.459   1.848
 1913SOL     OW 1034   2.523   1.790   2.815
 1913SOL    HW1 1035   2.477   1.878   2.802
 1913SOL    HW2 1036   2.622   1.802   2.808
 1914SOL     OW 1037   2.721   0.956   2.723
 1914SOL    HW1 1038   2.775   0.887   2.771
 1914SOL    HW2 1039   2.689   1.025   2.789
 1915SOL     OW 1040   2.945   0.984   1.949
 1915SOL    HW1 1041   2.922   1.037   1.867
 1915SOL    HW2 1042   3.026   0.928   1.930
 1916SOL     OW 1043   3.723   1.569   2.713
 1916SOL    HW1 1044   3.652   1.557   2.643
 1916SOL    HW2 1045   3.724   1.490   2.773
 1917SOL     OW 1046   2.083   1.314   3.706
 1917SOL    HW1 1047   2.018   1.241   3.685
 1917SOL    HW2 1048   2.087   1.328   3.804
 1918SOL     OW 1049   1.941   1.240   2.515
 1918SOL    HW1 1050   1.940   1.193   2.603
 1918SOL    HW2 1051   2.023   1.212   2.464
 1919SOL     OW 1052   2.534   1.391   3.486
 1919SOL    HW1 1053   2.456   1.341   3.524
 1919SOL    HW2 1054   2.531   1.486   3.517
 1922SOL     OW 1055   3.567   1.487   2.966
 1922SOL    HW1 1056   3.474   1.462   2.939
 1922SOL    HW2 1057   3.593   1.437   3.048
 1924SOL     OW 1058   2.674   1.586   2.549
 1924SOL    HW1 1059   2.706   1.596   2.455
 1924SOL    HW2 1060   2.595   1.524   2.551
 1927SOL     OW 1061   2.632   1.330   2.163
 1927SOL    HW1 1062   2.586   1.243   2.180
 1927SOL    HW2 1063   2.723   1.327   2.204
 1928SOL     OW 1064   2.480   1.567   3.146
 1928SOL    HW1 1065   2.475   1.649   3.203
 1928SOL    HW2 1066   2.569   1.564   3.101
 1932SOL     OW 1067   1.901   1.077   2.162
 1932SOL    HW1 1068   2.000   1.066   2.153
 1932SOL    HW2 1069   1.861   0.991   2.194
 1933SOL     OW 1070   2.737   1.646   2.199
 1933SOL    HW1 1071   2.660   1.611   2.145
 1933SOL    HW2 1072   2.705   1.717   2.261
 1951SOL     OW 1073   1.889   1.596   3.841
 1951SOL    HW1 1074   1.870   1.500   3.862
 1951SOL    HW2 1075   1.856   1.654   3.916
 1973SOL     OW 1076   2.973   1.776   3.961
 1973SOL    HW1 1077   2.913   1.714   4.011
 1973SOL    HW2 1078   3.004   1.732   3.876
 1975SOL     OW 1079   2.326   1.743   4.047
 1975SOL    HW1 1080   2.359   1.782   4.133
 1975SOL    HW2 1081   2.402   1.736   3.982
 1996SOL     OW 1082   2.350   1.385   3.898
 1996SOL    HW1 1083   2.263   1.370   3.945
 1996SOL    HW2 1084   2.333   1.411   3.803
 2037SOL     OW 1085   2.534   1.616   3.878
 2037SOL    HW1 1086   2.543   1.626   3.779
 2037SOL    HW2 1087   2.494   1.527   3.899
 2040SOL     OW 1088   3.056   1.612   3.755
 2040SOL    HW1 1089   3.062   1.519   3.792
 2040SOL    HW2 1090   2.997   1.612   3.675
 2043SOL     OW 1091   3.366   1.607   3.768
 2043SOL    HW1 1092   3.274   1.644   3.775
 2043SOL    HW2 1093   3.404   1.627   3.678
 2056SOL     OW 1094   2.721   1.374   3.740
 2056SOL    HW1 1095   2.675   1.389   3.828
 2056SOL    HW2 1096   2.765   1.459   3.710
 2074SOL     OW 1097   2.087   2.137   0.996
 2074SOL    HW1 1098   2.122   2.120   1.088
 2074SOL    HW2 1099   1.999   2.092   0.984
 2076SOL     OW 1100   2.431   3.137   1.165
 2076SOL    HW1 1101   2.338   3.130   1.128
 2076SOL    HW2 1102   2.442   3.226   1.209
 2080SOL     OW 1103   2.630   3.006   1.023
 2080SOL    HW1 1104   2.552   3.023   1.083
 2080SOL    HW2 1105   2.664   3.093   0.987
 2081SOL     OW 1106   2.712   2.660   1.823
 2081SOL    HW1 1107   2.708   2.736   1.888
 2081SOL    HW2 1108   2.734   2.696   1.732
 2083SOL     OW 1109   2.548   3.023   1.803
 2083SOL    HW1 1110   2.608   3.102   1.817
 2083SOL    HW2 1111   2.462   3.054   1.762
 2084SOL     OW 1112   2.197   3.297   1.061
 2084SOL    HW1 1113   2.119   3.266   1.008
 2084SOL    HW2 1114   2.255   3.355   1.004
 2085SOL     OW 1115   3.322   3.367   1.339
 2085SOL    HW1 1116   3.346   3.461   1.365
 2085SOL    HW2 1117   3.306   3.313   1.421
 2086SOL     OW 1118   2.300   2.254   1.499
 2086SOL    HW1 1119   2.382   2.198   1.508
 2086SOL    HW2 1120   2.219   2.196   1.503
 2089SOL     OW 1121   2.989   3.203   1.690
 2089SOL    HW1 1122   3.036   3.203   1.778
 2089SOL    HW2 1123   2.941   3.116   1.679
 2091SOL     OW 1124   2.102   2.953   0.886
 2091SOL    HW1 1125   2.116   2.869   0.938
 2091SOL    HW2 1126   2.047   3.017   0.941
 2092SOL     OW 1127   2.482   3.648   1.439
 2092SOL    HW1 1128   2.390   3.631   1.474
 2092SOL    HW2 1129   2.510   3.740   1.465
 2094SOL     OW 1130   3.456   1.976   1.480
 2094SOL    HW1 1131   3.438   2.043   1.408
 2094SOL    HW2 1132   3.453   2.022   1.569
 2100SOL     OW 1133   1.975   2.599   1.597
 2100SOL    HW1 1134   2.063   2.586   1.642
 2100SOL    HW2 1135   1.962   2.696   1.575
 2102SOL     OW 1136   3.155   3.090   1.423
 2102SOL    HW1 1137   3.192   3.017   1.365
 2102SOL    HW2 1138   3.207   3.095   1.508
 2104SOL     OW 1139   2.059   2.838   1.264
 2104SOL    HW1 1140   2.148   2.793   1.250
 2104SOL    HW2 1141   1.986   2.773   1.245
 2106SOL     OW 1142   3.049   3.654   1.616
 2106SOL    HW1 1143   3.073   3.714   1.540
 2106SOL    HW2 1144   3.056   3.559   1.586
 2107SOL     OW 1145   2.179   2.113   1.801
 2107SOL    HW1 1146   2.250   2.184   1.807
 2107SOL    HW2 1147   2.091   2.152   1.829
 2111SOL     OW 1148   3.143   2.207   0.944
 2111SOL    HW1 1149   3.057   2.157   0.931
 2111SOL    HW2 1150   3.205   2.153   1.000
 2113SOL     OW 1151   2.669   2.467   1.465
 2113SOL    HW1 1152   2.622   2.464   1.554
 2113SOL    HW2 1153   2.618   2.412   1.399
 2114SOL     OW 1154   3.256   2.331   1.674
 2114SOL    HW1 1155   3.236   2.374   1.762
 2114SOL    HW2 1156   3.334   2.269   1.683
 2115SOL     OW 1157   2.835   2.752   1.572
 2115SOL    HW1 1158   2.881   2.668   1.543
 2115SOL    HW2 1159   2.779   2.786   1.497
 2116SOL     OW 1160   2.853   2.272   1.242
 2116SOL    HW1 1161   2.776   2.306   1.296
 2116SOL    HW2 1162   2.819   2.221   1.163
 2118SOL     OW 1163   1.938   2.673   0.789
 2118SOL    HW1 1164   2.037   2.661   0.798
 2118SOL    HW2 1165   1.914   2.768   0.810
 2119SOL     OW 1166   1.992   3.683   1.571
 2119SOL    HW1 1167   1.982   3.668   1.670
 2119SOL    HW2 1168   1.906   3.719   1.535
 2121SOL     OW 1169   3.581   2.447   1.831
 2121SOL    HW1 1170   3.555   2.536   1.795
 2121SOL    HW2 1171   3.579   2.379   1.758
 2123SOL     OW 1172   2.412   2.058   0.885
 2123SOL    HW1 1173   2.407   2.053   0.985
 2123SOL    HW2 1174   2.414   2.154   0.856
 2127SOL     OW 1175   3.089   3.412   1.506
 2127SOL    HW1 1176   3.095   3.335   1.570
 2127SOL    HW2 1177   3.037   3.386   1.426
 2130SOL     OW 1178   2.323   3.128   1.727
 2130SOL    HW1 1179   2.273   3.129   1.641
 2130SOL    HW2 1180   2.260   3.110   1.803
 2132SOL     OW 1181   2.064   2.147   1.498
 2132SOL    HW1 1182   1.984   2.207   1.485
 2132SOL    HW2 1183   2.054   2.098   1.584
 2136SOL     OW 1184   2.111   3.647   1.241
 2136SOL    HW1 1185   2.168   3.582   1.291
 2136SOL    HW2 1186   2.095   3.614   1.148
 2139SOL     OW 1187   3.409   2.084   1.729
 2139SOL    HW1 1188   3.404   2.121   1.821
 2139SOL    HW2 1189   3.337   2.015   1.717
 2141SOL     OW 1190   2.643   2.126   1.749
 2141SOL    HW1 1191   2.710   2.065   1.792
 2141SOL    HW2 1192   2.570   2.145   1.814
 2142SOL     OW 1193   2.750   3.376   1.195
 2142SOL    HW1 1194   2.727   3.351   1.101
 2142SOL    HW2 1195   2.811   3.307   1.234
 2143SOL     OW 1196   3.213   2.452   1.433
 2143SOL    HW1 1197   3.241   2.409   1.518
 2143SOL    HW2 1198   3.238   2.548   1.434
 2144SOL     OW 1199   2.665   3.264   0.924
 2144SOL    HW1 1200   2.755   3.278   0.882
 2144SOL    HW2 1201   2.594   3.266   0.853
 2145SOL     OW 1202   2.784   2.365   0.899
 2145SOL    HW1 1203   2.759   2.356   0.803
 2145SOL    HW2 1204   2.832   2.283   0.930
 2150SOL     OW 1205   2.938   2.545   1.464
 2150SOL    HW1 1206   2.858   2.484   1.467
 2150SOL    HW2 1207   3.019   2.492   1.440
 2155SOL     OW 1208   1.940   2.418   1.386
 2155SOL    HW1 1209   2.032   2.417   1.345
 2155SOL    HW2 1210   1.934   2.492   1.453
 2156SOL     OW 1211   2.423   2.084   1.147
 2156SOL    HW1 1212   2.461   2.000   1.184
 2156SOL    HW2 1213   2.335   2.103   1.191
 2160SOL     OW 1214   3.328   2.452   0.992
 2160SOL    HW1 1215   3.298   2.357   0.999
 2160SOL    HW2 1216   3.401   2.468   1.058
 2166SOL     OW 1217   3.616   3.085   1.588
 2166SOL    HW1 1218   3.707   3.046   1.575
 2166SOL    HW2 1219   3.624   3.181   1.612
 2167SOL     OW 1220   2.926   3.209   1.340
 2167SOL    HW1 1221   2.846   3.186   1.395
 2167SOL    HW2 1222   3.009   3.183   1.389
 2168SOL     OW 1223   3.454   3.491   1.625
 2168SOL    HW1 1224   3.481   3.525   1.535
 2168SOL    HW2 1225   3.533   3.453   1.671
 2169SOL     OW 1226   2.973   3.057   1.100
 2169SOL    HW1 1227   2.933   3.101   1.181
 2169SOL    HW2 1228   2.932   3.094   1.017
 2170SOL     OW 1229   3.500   2.961   1.079
 2170SOL    HW1 1230   3.505   3.042   1.138
 2170SOL    HW2 1231   3.414   2.963   1.028
 2171SOL     OW 1232   2.777   1.951   1.402
 2171SOL    HW1 1233   2.802   1.931   1.307
 2171SOL    HW2 1234   2.849   2.007   1.444
 2172SOL     OW 1235   2.842   2.978   1.719
 2172SOL    HW1 1236   2.743   2.984   1.729
 2172SOL    HW2 1237   2.865   2.898   1.663
 2174SOL     OW 1238   2.272   2.675   1.251
 2174SOL    HW1 1239   2.358   2.687   1.301
 2174SOL    HW2 1240   2.230   2.588   1.278
 2175SOL     OW 1241   3.136   2.248   1.262
 2175SOL    HW1 1242   3.157   2.322   1.326
 2175SOL    HW2 1243   3.047   2.265   1.219
 2176SOL     OW 1244   1.926   3.426   1.331
 2176SOL    HW1 1245   1.880   3.508   1.297
 2176SOL    HW2 1246   2.024   3.445   1.340
 2178SOL     OW 1247   2.428   2.399   0.865
 2178SOL    HW1 1248   2.440   2.465   0.791
 2178SOL    HW2 1249   2.474   2.433   0.948
 2180SOL     OW 1250   3.134   3.307   1.142
 2180SOL    HW1 1251   3.181   3.320   1.229
 2180SOL    HW2 1252   3.068   3.233   1.151
 2182SOL     OW 1253   2.216   3.372   1.329
 2182SOL    HW1 1254   2.195   3.328   1.242
 2182SOL    HW2 1255   2.313   3.398   1.332
 2183SOL     OW 1256   2.264   2.613   1.598
 2183SOL    HW1 1257   2.332   2.668   1.551
 2183SOL    HW2 1258   2.304   2.525   1.625
 2184SOL     OW 1259   3.449   2.641   1.670
 2184SOL    HW1 1260   3.357   2.679   1.665
 2184SOL    HW2 1261   3.509   2.688   1.605
 2185SOL     OW 1262   2.875   1.967   1.770
 2185SOL    HW1 1263   2.881   2.052   1.718
 2185SOL    HW2 1264   2.907   1.891   1.713
 2186SOL     OW 1265   2.366   1.912   1.740
 2186SOL    HW1 1266   2.324   1.855   1.670
 2186SOL    HW2 1267   2.300   1.981   1.772
 2187SOL     OW 1268   2.435   2.732   1.029
 2187SOL    HW1 1269   2.479   2.821   1.020
 2187SOL    HW2 1270   2.372   2.732   1.106
 2188SOL     OW 1271   3.222   2.724   1.045
 2188SOL    HW1 1272   3.147   2.724   0.979
 2188SOL    HW2 1273   3.259   2.632   1.054
 2190SOL     OW 1274   2.169   2.075   1.231
 2190SOL    HW1 1275   2.146   2.112   1.321
 2190SOL    HW2 1276   2.139   1.980   1.225
 2191SOL     OW 1277   1.899   3.172   1.282
 2191SOL    HW1 1278   1.952   3.123   1.350
 2191SOL    HW2 1279   1.921   3.270   1.287
 2192SOL     OW 1280   2.594   2.496   1.064
 2192SOL    HW1 1281   2.653   2.470   0.988
 2192SOL    HW2 1282   2.566   2.592   1.053
 2193SOL     OW 1283   3.590   2.797   1.854
 2193SOL    HW1 1284   3.544   2.790   1.765
 2193SOL    HW2 1285   3.528   2.841   1.920
 2196SOL     OW 1286   2.885   2.628   0.966
 2196SOL    HW1 1287   2.900   2.649   1.062
 2196SOL    HW2 1288   2.855   2.533   0.957
 2197SOL     OW 1289   2.842   3.435   1.700
 2197SOL    HW1 1290   2.822   3.479   1.612
 2197SOL    HW2 1291   2.881   3.344   1.684
 2198SOL     OW 1292   3.721   3.380   1.605
 2198SOL    HW1 1293   3.735   3.407   1.510
 2198SOL    HW2 1294   3.804   3.402   1.658
 2199SOL     OW 1295   2.212   2.760   1.804
 2199SOL    HW1 1296   2.288   2.804   1.852
 2199SOL    HW2 1297   2.247   2.713   1.722
 2203SOL     OW 1298   2.181   2.672   0.949
 2203SOL    HW1 1299   2.274   2.708   0.954
 2203SOL    HW2 1300   2.175   2.587   1.001
 2204SOL     OW 1301   2.201   2.371   1.006
 2204SOL    HW1 1302   2.149   2.288   0.989
 2204SOL    HW2 1303   2.278   2.376   0.942
 2205SOL     OW 1304   3.000   2.242   1.678
 2205SOL    HW1 1305   2.955   2.305   1.742
 2205SOL    HW2 1306   3.093   2.273   1.661
 2206SOL     OW 1307   3.022   2.069   1.477
 2206SOL    HW1 1308   3.022   2.133   1.554
 2206SOL    HW2 1309   3.050   2.117   1.394
 2210SOL     OW 1310   2.864   2.658   1.238
 2210SOL    HW1 1311   2.905   2.626   1.324
 2210SOL    HW2 1312   2.768   2.631   1.235
 2211SOL     OW 1313   1.902   2.406   1.114
 2211SOL    HW1 1314   1.987   2.373   1.073
 2211SOL    HW2 1315   1.915   2.421   1.212
 2212SOL     OW 1316   2.051   2.382   1.722
 2212SOL    HW1 1317   2.110   2.342   1.652
 2212SOL    HW2 1318   1.993   2.453   1.681
 2213SOL     OW 1319   3.231   2.812   1.660
 2213SOL    HW1 1320   3.270   2.901   1.680
 2213SOL    HW2 1321   3.241   2.792   1.563
 2215SOL     OW 1322   3.519   2.466   1.206
 2215SOL    HW1 1323   3.481   2.397   1.268
 2215SOL    HW2 1324   3.601   2.430   1.162
 2216SOL     OW 1325   2.114   3.426   1.744
 2216SOL    HW1 1326   2.084   3.483   1.820
 2216SOL    HW2 1327   2.107   3.329   1.770
 2217SOL     OW 1328   2.533   2.326   1.269
 2217SOL    HW1 1329   2.499   2.237   1.239
 2217SOL    HW2 1330   2.559   2.380   1.189
 2218SOL     OW 1331   2.792   3.540   1.465
 2218SOL    HW1 1332   2.768   3.522   1.370
 2218SOL    HW2 1333   2.822   3.634   1.475
 2220SOL     OW 1334   2.021   2.999   1.466
 2220SOL    HW1 1335   2.043   2.938   1.542
 2220SOL    HW2 1336   2.031   2.950   1.380
 2221SOL     OW 1337   3.209   2.921   1.234
 2221SOL    HW1 1338   3.233   2.858   1.160
 2221SOL    HW2 1339   3.119   2.961   1.216
 2225SOL     OW 1340   1.945   3.120   1.022
 2225SOL    HW1 1341   1.940   3.119   1.122
 2225SOL    HW2 1342   1.862   3.079   0.984
 2226SOL     OW 1343   2.550   3.524   1.716
 2226SOL    HW1 1344   2.494   3.605   1.725
 2226SOL    HW2 1345   2.602   3.528   1.630
 2230SOL     OW 1346   1.992   3.656   1.851
 2230SOL    HW1 1347   1.951   3.582   1.904
 2230SOL    HW2 1348   2.056   3.707   1.909
 2232SOL     OW 1349   2.692   3.135   1.422
 2232SOL    HW1 1350   2.687   3.168   1.517
 2232SOL    HW2 1351   2.606   3.154   1.376
 2238SOL     OW 1352   2.684   2.864   1.372
 2238SOL    HW1 1353   2.724   2.863   1.280
 2238SOL    HW2 1354   2.694   2.956   1.412
 2241SOL     OW 1355   2.234   3.150   1.490
 2241SOL    HW1 1356   2.221   3.243   1.456
 2241SOL    HW2 1357   2.150   3.098   1.477
 2242SOL     OW 1358   3.476   3.154   1.289
 2242SOL    HW1 1359   3.536   3.157   1.369
 2242SOL    HW2 1360   3.401   3.218   1.302
 2244SOL     OW 1361   2.876   2.098   0.971
 2244SOL    HW1 1362   2.868   2.062   0.878
 2244SOL    HW2 1363   2.874   2.022   1.036
 2246SOL     OW 1364   3.571   2.247   1.381
 2246SOL    HW1 1365   3.644   2.316   1.385
 2246SOL    HW2 1366   3.599   2.172   1.322
 2248SOL     OW 1367   1.967   2.875   1.726
 2248SOL    HW1 1368   1.890   2.842   1.780
 2248SOL    HW2 1369   2.052   2.845   1.768
 2249SOL     OW 1370   2.534   2.065   1.489
 2249SOL    HW1 1371   2.624   2.049   1.449
 2249SOL    HW2 1372   2.542   2.070   1.588
 2250SOL     OW 1373   3.302   2.718   1.398
 2250SOL    HW1 1374   3.245   2.770   1.335
 2250SOL    HW2 1375   3.398   2.730   1.374
 2253SOL     OW 1376   2.475   2.704   1.431
 2253SOL    HW1 1377   2.531   2.785   1.414
 2253SOL    HW2 1378   2.534   2.624   1.434
 2255SOL     OW 1379   2.578   2.427   1.708
 2255SOL    HW1 1380   2.597   2.492   1.782
 2255SOL    HW2 1381   2.638   2.347   1.717
 2256SOL     OW 1382   3.312   3.082   1.633
 2256SOL    HW1 1383   3.303   3.072   1.732
 2256SOL    HW2 1384   3.408   3.075   1.607
 2257SOL     OW 1385   2.252   3.603   1.560
 2257SOL    HW1 1386   2.161   3.644   1.558
 2257SOL    HW2 1387   2.245   3.509   1.592
 2258SOL     OW 1388   3.536   2.745   1.254
 2258SOL    HW1 1389   3.509   2.656   1.217
 2258SOL    HW2 1390   3.537   2.813   1.181
 2261SOL     OW 1391   3.639   2.204   1.642
 2261SOL    HW1 1392   3.622   2.235   1.548
 2261SOL    HW2 1393   3.555   2.167   1.680
 2262SOL     OW 1394   3.592   2.796   1.517
 2262SOL    HW1 1395   3.630   2.887   1.532
 2262SOL    HW2 1396   3.584   2.779   1.418
 2265SOL     OW 1397   2.721   2.818   0.861
 2265SOL    HW1 1398   2.775   2.749   0.909
 2265SOL    HW2 1399   2.689   2.887   0.927
 2268SOL     OW 1400   2.083   3.176   1.844
 2268SOL    HW1 1401   2.018   3.103   1.823
 2268SOL    HW2 1402   2.087   3.190   1.942
 2270SOL     OW 1403   2.534   3.253   1.624
 2270SOL    HW1 1404   2.456   3.203   1.662
 2270SOL    HW2 1405   2.531   3.348   1.655
 2271SOL     OW 1406   3.686   2.054   1.227
 2271SOL    HW1 1407   3.682   1.964   1.271
 2271SOL    HW2 1408   3.689   2.043   1.128
 2274SOL     OW 1409   2.179   2.409   1.280
 2274SOL    HW1 1410   2.217   2.350   1.352
 2274SOL    HW2 1411   2.219   2.383   1.192
 2276SOL     OW 1412   3.286   2.076   1.112
 2276SOL    HW1 1413   3.338   2.011   1.167
 2276SOL    HW2 1414   3.237   2.139   1.173
 2277SOL     OW 1415   2.863   1.896   1.154
 2277SOL    HW1 1416   2.800   1.824   1.123
 2277SOL    HW2 1417   2.956   1.860   1.154
 2279SOL     OW 1418   2.480   3.429   1.284
 2279SOL    HW1 1419   2.475   3.511   1.341
 2279SOL    HW2 1420   2.569   3.426   1.239
 2285SOL     OW 1421   2.092   2.490   1.975
 2285SOL    HW1 1422   1.999   2.488   2.012
 2285SOL    HW2 1423   2.093   2.451   1.883
 2286SOL     OW 1424   2.087   2.137   2.858
 2286SOL    HW1 1425   2.122   2.120   2.950
 2286SOL    HW2 1426   1.999   2.092   2.846
 2287SOL     OW 1427   1.881   2.230   2.509
 2287SOL    HW1 1428   1.799   2.273   2.548
 2287SOL    HW2 1429   1.853   2.157   2.446
 2288SOL     OW 1430   2.431   3.137   3.027
 2288SOL    HW1 1431   2.338   3.130   2.990
 2288SOL    HW2 1432   2.442   3.226   3.071
 2289SOL     OW 1433   3.417   3.373   2.565
 2289SOL    HW1 1434   3.360   3.357   2.646
 2289SOL    HW2 1435   3.358   3.383   2.485
 2290SOL     OW 1436   3.617   2.469   2.093
 2290SOL    HW1 1437   3.605   2.456   1.994
 2290SOL    HW2 1438   3.587   2.388   2.142
 2291SOL     OW 1439   2.630   3.006   2.885
 2291SOL    HW1 1440   2.552   3.023   2.945
 2291SOL    HW2 1441   2.664   3.093   2.849
 2292SOL     OW 1442   2.712   2.660   3.685
 2292SOL    HW1 1443   2.708   2.736   3.750
 2292SOL    HW2 1444   2.734   2.696   3.594
 2293SOL     OW 1445   2.547   2.874   2.527
 2293SOL    HW1 1446   2.616   2.858   2.597
 2293SOL    HW2 1447   2.474   2.931   2.565
 2294SOL     OW 1448   2.548   3.023   3.665
 2294SOL    HW1 1449   2.608   3.102   3.679
 2294SOL    HW2 1450   2.462   3.054   3.624
 2295SOL     OW 1451   2.197   3.297   2.923
 2295SOL    HW1 1452   2.119   3.266   2.870
 2295SOL    HW2 1453   2.255   3.355   2.866
 2296SOL     OW 1454   3.322   3.367   3.201
 2296SOL    HW1 1455   3.346   3.461   3.227
 2296SOL    HW2 1456   3.306   3.313   3.283
 2297SOL     OW 1457   2.300   2.254   3.361
 2297SOL    HW1 1458   2.382   2.198   3.370
 2297SOL    HW2 1459   2.219   2.196   3.365
 2298SOL     OW 1460   3.465   2.309   2.599
 2298SOL    HW1 1461   3.391   2.355   2.549
 2298SOL    HW2 1462   3.516   2.377   2.652
 2299SOL     OW 1463   2.093   3.575   2.345
 2299SOL    HW1 1464   2.127   3.652   2.399
 2299SOL    HW2 1465   2.137   3.575   2.255
 2300SOL     OW 1466   2.989   3.203   3.552
 2300SOL    HW1 1467   3.036   3.203   3.640
 2300SOL    HW2 1468   2.941   3.116   3.541
 2301SOL     OW 1469   2.092   3.296   2.400
 2301SOL    HW1 1470   2.066   3.392   2.400
 2301SOL    HW2 1471   2.021   3.242   2.445
 2302SOL     OW 1472   2.102   2.953   2.748
 2302SOL    HW1 1473   2.116   2.869   2.800
 2302SOL    HW2 1474   2.047   3.017   2.803
 2303SOL     OW 1475   2.482   3.648   3.301
 2303SOL    HW1 1476   2.390   3.631   3.336
 2303SOL    HW2 1477   2.510   3.740   3.327
 2304SOL     OW 1478   2.468   2.826   1.985
 2304SOL    HW1 1479   2.475   2.910   1.931
 2304SOL    HW2 1480   2.514   2.839   2.073
 2305SOL     OW 1481   3.456   1.976   3.342
 2305SOL    HW1 1482   3.438   2.043   3.270
 2305SOL    HW2 1483   3.453   2.022   3.431
 2306SOL     OW 1484   1.984   2.505   2.425
 2306SOL    HW1 1485   1.939   2.417   2.442
 2306SOL    HW2 1486   1.983   2.559   2.509
 2307SOL     OW 1487   3.704   3.629   2.221
 2307SOL    HW1 1488   3.758   3.600   2.301
 2307SOL    HW2 1489   3.734   3.719   2.192
 2308SOL     OW 1490   1.889   3.458   1.979
 2308SOL    HW1 1491   1.870   3.362   2.000
 2308SOL    HW2 1492   1.856   3.516   2.054
 2309SOL     OW 1493   3.551   2.784   2.474
 2309SOL    HW1 1494   3.646   2.755   2.482
 2309SOL    HW2 1495   3.543   2.849   2.399
 2310SOL     OW 1496   3.503   2.970   2.294
 2310SOL    HW1 1497   3.589   2.972   2.242
 2310SOL    HW2 1498   3.517   3.017   2.382
 2311SOL     OW 1499   1.975   2.599   3.459
 2311SOL    HW1 1500   2.063   2.586   3.504
 2311SOL    HW2 1501   1.962   2.696   3.437
 2312SOL     OW 1502   2.475   3.227   2.588
 2312SOL    HW1 1503   2.426   3.140   2.597
 2312SOL    HW2 1504   2.452   3.270   2.501
 2313SOL     OW 1505   3.155   3.090   3.285
 2313SOL    HW1 1506   3.192   3.017   3.227
 2313SOL    HW2 1507   3.207   3.095   3.370
 2314SOL     OW 1508   2.671   1.866   2.364
 2314SOL    HW1 1509   2.711   1.957   2.355
 2314SOL    HW2 1510   2.571   1.874   2.370
 2315SOL     OW 1511   2.059   2.838   3.126
 2315SOL    HW1 1512   2.148   2.793   3.112
 2315SOL    HW2 1513   1.986   2.773   3.107
 2316SOL     OW 1514   3.387   2.861   2.052
 2316SOL    HW1 1515   3.324   2.785   2.065
 2316SOL    HW2 1516   3.435   2.879   2.138
 2317SOL     OW 1517   3.049   3.654   3.478
 2317SOL    HW1 1518   3.073   3.714   3.402
 2317SOL    HW2 1519   3.056   3.559   3.448
 2318SOL     OW 1520   2.179   2.113   3.663
 2318SOL    HW1 1521   2.250   2.184   3.669
 2318SOL    HW2 1522   2.091   2.152   3.691
 2319SOL     OW 1523   3.328   3.279   2.815
 2319SOL    HW1 1524   3.269   3.285   2.895
 2319SOL    HW2 1525   3.313   3.191   2.769
 2320SOL     OW 1526   3.529   3.576   2.434
 2320SOL    HW1 1527   3.488   3.553   2.346
 2320SOL    HW2 1528   3.511   3.502   2.499
 2321SOL     OW 1529   2.460   2.591   2.132
 2321SOL    HW1 1530   2.484   2.660   2.064
 2321SOL    HW2 1531   2.382   2.624   2.186
 2322SOL     OW 1532   3.143   2.207   2.806
 2322SOL    HW1 1533   3.057   2.157   2.793
 2322SOL    HW2 1534   3.205   2.153   2.862
 2323SOL     OW 1535   3.438   3.524   2.169
 2323SOL    HW1 1536   3.527   3.570   2.172
 2323SOL    HW2 1537   3.417   3.500   2.074
 2324SOL     OW 1538   2.669   2.467   3.327
 2324SOL    HW1 1539   2.622   2.464   3.416
 2324SOL    HW2 1540   2.618   2.412   3.261
 2325SOL     OW 1541   3.256   2.331   3.536
 2325SOL    HW1 1542   3.236   2.374   3.624
 2325SOL    HW2 1543   3.334   2.269   3.545
 2326SOL     OW 1544   2.835   2.752   3.434
 2326SOL    HW1 1545   2.881   2.668   3.405
 2326SOL    HW2 1546   2.779   2.786   3.359
 2327SOL     OW 1547   2.853   2.272   3.104
 2327SOL    HW1 1548   2.776   2.306   3.158
 2327SOL    HW2 1549   2.819   2.221   3.025
 2328SOL     OW 1550   2.903   2.563   2.291
 2328SOL    HW1 1551   2.929   2.559   2.387
 2328SOL    HW2 1552   2.818   2.512   2.277
 2329SOL     OW 1553   1.938   2.673   2.651
 2329SOL    HW1 1554   2.037   2.661   2.660
 2329SOL    HW2 1555   1.914   2.768   2.672
 2330SOL     OW 1556   1.992   3.683   3.433
 2330SOL    HW1 1557   1.982   3.668   3.532
 2330SOL    HW2 1558   1.906   3.719   3.397
 2331SOL     OW 1559   2.727   2.210   2.057
 2331SOL    HW1 1560   2.786   2.273   2.008
 2331SOL    HW2 1561   2.746   2.116   2.028
 2332SOL     OW 1562   3.581   2.447   3.693
 2332SOL    HW1 1563   3.555   2.536   3.657
 2332SOL    HW2 1564   3.579   2.379   3.620
 2333SOL     OW 1565   3.224   3.006   2.407
 2333SOL    HW1 1566   3.307   2.977   2.359
 2333SOL    HW2 1567   3.175   3.073   2.351
 2334SOL     OW 1568   2.412   2.058   2.747
 2334SOL    HW1 1569   2.407   2.053   2.847
 2334SOL    HW2 1570   2.414   2.154   2.718
 2335SOL     OW 1571   2.870   3.318   2.339
 2335SOL    HW1 1572   2.824   3.390   2.287
 2335SOL    HW2 1573   2.866   3.338   2.437
 2336SOL     OW 1574   2.213   3.663   2.715
 2336SOL    HW1 1575   2.263   3.577   2.721
 2336SOL    HW2 1576   2.278   3.740   2.712
 2337SOL     OW 1577   3.657   2.928   2.735
 2337SOL    HW1 1578   3.595   2.913   2.659
 2337SOL    HW2 1579   3.605   2.939   2.820
 2338SOL     OW 1580   3.089   3.412   3.368
 2338SOL    HW1 1581   3.095   3.335   3.432
 2338SOL    HW2 1582   3.037   3.386   3.288
 2339SOL     OW 1583   2.183   2.805   2.104
 2339SOL    HW1 1584   2.265   2.844   2.062
 2339SOL    HW2 1585   2.156   2.723   2.055
 2340SOL     OW 1586   3.320   2.597   2.590
 2340SOL    HW1 1587   3.315   2.532   2.665
 2340SOL    HW2 1588   3.400   2.656   2.603
 2341SOL     OW 1589   2.323   3.128   3.589
 2341SOL    HW1 1590   2.273   3.129   3.503
 2341SOL    HW2 1591   2.260   3.110   3.665
 2342SOL     OW 1592   2.973   3.638   2.099
 2342SOL    HW1 1593   2.913   3.576   2.149
 2342SOL    HW2 1594   3.004   3.594   2.014
 2343SOL     OW 1595   2.064   2.147   3.360
 2343SOL    HW1 1596   1.984   2.207   3.347
 2343SOL    HW2 1597   2.054   2.098   3.446
 2344SOL     OW 1598   3.494   3.239   1.943
 2344SOL    HW1 1599   3.462   3.333   1.933
 2344SOL    HW2 1600   3.418   3.176   1.931
 2345SOL     OW 1601   2.326   3.605   2.185
 2345SOL    HW1 1602   2.359   3.644   2.271
 2345SOL    HW2 1603   2.402   3.598   2.120
 2346SOL     OW 1604   3.262   1.969   2.288
 2346SOL    HW1 1605   3.238   1.932   2.198
 2346SOL    HW2 1606   3.361   1.985   2.292
 2347SOL     OW 1607   2.111   3.647   3.103
 2347SOL    HW1 1608   2.168   3.582   3.153
 2347SOL    HW2 1609   2.095   3.614   3.010
 2348SOL     OW 1610   2.802   3.560   2.766
 2348SOL    HW1 1611   2.882   3.503   2.787
 2348SOL    HW2 1612   2.753   3.520   2.689
 2349SOL     OW 1613   3.409   2.084   3.591
 2349SOL    HW1 1614   3.404   2.121   3.683
 2349SOL    HW2 1615   3.337   2.015   3.579
 2350SOL     OW 1616   2.476   1.984   1.979
 2350SOL    HW1 1617   2.574   1.962   1.986
 2350SOL    HW2 1618   2.445   1.967   1.886
 2351SOL     OW 1619   2.643   2.126   3.611
 2351SOL    HW1 1620   2.710   2.065   3.654
 2351SOL    HW2 1621   2.570   2.145   3.676
 2352SOL     OW 1622   2.750   3.376   3.057
 2352SOL    HW1 1623   2.727   3.351   2.963
 2352SOL    HW2 1624   2.811   3.307   3.096
 2353SOL     OW 1625   3.213   2.452   3.295
 2353SOL    HW1 1626   3.241   2.409   3.380
 2353SOL    HW2 1627   3.238   2.548   3.296
 2354SOL     OW 1628   2.665   3.264   2.786
 2354SOL    HW1 1629   2.755   3.278   2.744
 2354SOL    HW2 1630   2.594   3.266   2.715
 2355SOL     OW 1631   2.401   1.926   2.374
 2355SOL    HW1 1632   2.320   1.927   2.432
 2355SOL    HW2 1633   2.404   2.009   2.319
 2356SOL     OW 1634   3.296   3.050   1.903
 2356SOL    HW1 1635   3.328   2.974   1.960
 2356SOL    HW2 1636   3.204   3.077   1.933
 2357SOL     OW 1637   2.159   1.897   2.033
 2357SOL    HW1 1638   2.208   1.981   2.012
 2357SOL    HW2 1639   2.221   1.832   2.078
 2358SOL     OW 1640   2.797   2.098   2.342
 2358SOL    HW1 1641   2.749   2.139   2.264
 2358SOL    HW2 1642   2.896   2.096   2.323
 2359SOL     OW 1643   2.938   2.545   3.326
 2359SOL    HW1 1644   2.858   2.484   3.329
 2359SOL    HW2 1645   3.019   2.492   3.302
 2360SOL     OW 1646   3.089   3.432   2.655
 2360SOL    HW1 1647   3.110   3.506   2.590
 2360SOL    HW2 1648   3.157   3.432   2.728
 2361SOL     OW 1649   2.321   3.014   2.603
 2361SOL    HW1 1650   2.250   2.987   2.668
 2361SOL    HW2 1651   2.295   2.986   2.510
 2362SOL     OW 1652   3.133   3.659   2.453
 2362SOL    HW1 1653   3.177   3.723   2.389
 2362SOL    HW2 1654   3.083   3.711   2.523
 2363SOL     OW 1655   2.894   2.411   1.878
 2363SOL    HW1 1656   2.853   2.493   1.839
 2363SOL    HW2 1657   2.958   2.437   1.951
 2364SOL     OW 1658   1.940   2.418   3.248
 2364SOL    HW1 1659   2.032   2.417   3.207
 2364SOL    HW2 1660   1.934   2.492   3.315
 2365SOL     OW 1661   2.423   2.084   3.009
 2365SOL    HW1 1662   2.461   2.000   3.046
 2365SOL    HW2 1663   2.335   2.103   3.053
 2366SOL     OW 1664   2.879   1.901   2.615
 2366SOL    HW1 1665   2.807   1.906   2.546
 2366SOL    HW2 1666   2.855   1.832   2.684
 2367SOL     OW 1667   3.291   3.035   2.729
 2367SOL    HW1 1668   3.236   2.951   2.722
 2367SOL    HW2 1669   3.317   3.064   2.637
 2368SOL     OW 1670   3.328   2.452   2.854
 2368SOL    HW1 1671   3.298   2.357   2.861
 2368SOL    HW2 1672   3.401   2.468   2.920
 2369SOL     OW 1673   3.719   2.695   2.239
 2369SOL    HW1 1674   3.761   2.631   2.303
 2369SOL    HW2 1675   3.681   2.644   2.161
 2370SOL     OW 1676   2.350   3.247   2.036
 2370SOL    HW1 1677   2.263   3.232   2.083
 2370SOL    HW2 1678   2.333   3.273   1.941
 2371SOL     OW 1679   3.526   3.142   2.519
 2371SOL    HW1 1680   3.625   3.150   2.533
 2371SOL    HW2 1681   3.481   3.226   2.550
 2372SOL     OW 1682   3.252   2.437   1.940
 2372SOL    HW1 1683   3.198   2.416   2.021
 2372SOL    HW2 1684   3.343   2.396   1.949
 2373SOL     OW 1685   3.616   3.085   3.450
 2373SOL    HW1 1686   3.707   3.046   3.437
 2373SOL    HW2 1687   3.624   3.181   3.474
 2374SOL     OW 1688   2.926   3.209   3.202
 2374SOL    HW1 1689   2.846   3.186   3.257
 2374SOL    HW2 1690   3.009   3.183   3.251
 2375SOL     OW 1691   3.454   3.491   3.487
 2375SOL    HW1 1692   3.481   3.525   3.397
 2375SOL    HW2 1693   3.533   3.453   3.533
 2376SOL     OW 1694   2.973   3.057   2.962
 2376SOL    HW1 1695   2.933   3.101   3.043
 2376SOL    HW2 1696   2.932   3.094   2.879
 2377SOL     OW 1697   3.500   2.961   2.941
 2377SOL    HW1 1698   3.505   3.042   3.000
 2377SOL    HW2 1699   3.414   2.963   2.890
 2378SOL     OW 1700   2.777   1.951   3.264
 2378SOL    HW1 1701   2.802   1.931   3.169
 2378SOL    HW2 1702   2.849   2.007   3.306
 2379SOL     OW 1703   2.842   2.978   3.581
 2379SOL    HW1 1704   2.743   2.984   3.591
 2379SOL    HW2 1705   2.865   2.898   3.525
 2380SOL     OW 1706   2.567   2.912   2.230
 2380SOL    HW1 1707   2.553   2.919   2.329
 2380SOL    HW2 1708   2.651   2.861   2.212
 2381SOL     OW 1709   2.272   2.675   3.113
 2381SOL    HW1 1710   2.358   2.687   3.163
 2381SOL    HW2 1711   2.230   2.588   3.140
 2382SOL     OW 1712   3.136   2.248   3.124
 2382SOL    HW1 1713   3.157   2.322   3.188
 2382SOL    HW2 1714   3.047   2.265   3.081
 2383SOL     OW 1715   1.926   3.426   3.193
 2383SOL    HW1 1716   1.880   3.508   3.159
 2383SOL    HW2 1717   2.024   3.445   3.202
 2384SOL     OW 1718   2.229   2.962   2.363
 2384SOL    HW1 1719   2.222   3.045   2.307
 2384SOL    HW2 1720   2.233   2.882   2.303
 2385SOL     OW 1721   2.428   2.399   2.727
 2385SOL    HW1 1722   2.440   2.465   2.653
 2385SOL    HW2 1723   2.474   2.433   2.810
 2386SOL     OW 1724   3.114   3.210   2.250
 2386SOL    HW1 1725   3.164   3.287   2.290
 2386SOL    HW2 1726   3.019   3.212   2.282
 2387SOL     OW 1727   3.134   3.307   3.004
 2387SOL    HW1 1728   3.181   3.320   3.091
 2387SOL    HW2 1729   3.068   3.233   3.013
 2388SOL     OW 1730   3.444   2.501   2.334
 2388SOL    HW1 1731   3.413   2.562   2.407
 2388SOL    HW2 1732   3.494   2.553   2.265
 2389SOL     OW 1733   2.216   3.372   3.191
 2389SOL    HW1 1734   2.195   3.328   3.104
 2389SOL    HW2 1735   2.313   3.398   3.194
 2390SOL     OW 1736   2.264   2.613   3.460
 2390SOL    HW1 1737   2.332   2.668   3.413
 2390SOL    HW2 1738   2.304   2.525   3.487
 2391SOL     OW 1739   3.449   2.641   3.532
 2391SOL    HW1 1740   3.357   2.679   3.527
 2391SOL    HW2 1741   3.509   2.688   3.467
 2392SOL     OW 1742   2.875   1.967   3.632
 2392SOL    HW1 1743   2.881   2.052   3.580
 2392SOL    HW2 1744   2.907   1.891   3.575
 2393SOL     OW 1745   2.366   1.912   3.602
 2393SOL    HW1 1746   2.324   1.855   3.532
 2393SOL    HW2 1747   2.300   1.981   3.634
 2394SOL     OW 1748   2.435   2.732   2.891
 2394SOL    HW1 1749   2.479   2.821   2.882
 2394SOL    HW2 1750   2.372   2.732   2.968
 2395SOL     OW 1751   3.222   2.724   2.907
 2395SOL    HW1 1752   3.147   2.724   2.841
 2395SOL    HW2 1753   3.259   2.632   2.916
 2396SOL     OW 1754   3.071   2.387   2.137
 2396SOL    HW1 1755   3.084   2.303   2.191
 2396SOL    HW2 1756   3.042   2.461   2.197
 2397SOL     OW 1757   2.169   2.075   3.093
 2397SOL    HW1 1758   2.146   2.112   3.183
 2397SOL    HW2 1759   2.139   1.980   3.087
 2398SOL     OW 1760   1.899   3.172   3.144
 2398SOL    HW1 1761   1.952   3.123   3.212
 2398SOL    HW2 1762   1.921   3.270   3.149
 2399SOL     OW 1763   2.594   2.496   2.926
 2399SOL    HW1 1764   2.653   2.470   2.850
 2399SOL    HW2 1765   2.566   2.592   2.915
 2400SOL     OW 1766   3.590   2.797   3.716
 2400SOL    HW1 1767   3.544   2.790   3.627
 2400SOL    HW2 1768   3.528   2.841   3.782
 2401SOL     OW 1769   2.169   1.925   2.480
 2401SOL    HW1 1770   2.158   2.019   2.513
 2401SOL    HW2 1771   2.164   1.862   2.557
 2402SOL     OW 1772   3.484   2.229   2.236
 2402SOL    HW1 1773   3.486   2.153   2.300
 2402SOL    HW2 1774   3.436   2.306   2.276
 2403SOL     OW 1775   2.842   3.435   3.562
 2403SOL    HW1 1776   2.822   3.479   3.474
 2403SOL    HW2 1777   2.881   3.344   3.546
 2405SOL     OW 1778   2.212   2.760   3.666
 2405SOL    HW1 1779   2.288   2.804   3.714
 2405SOL    HW2 1780   2.247   2.713   3.584
 2406SOL     OW 1781   3.402   2.136   1.987
 2406SOL    HW1 1782   3.341   2.061   2.010
 2406SOL    HW2 1783   3.424   2.188   2.070
 2407SOL     OW 1784   3.165   2.700   1.904
 2407SOL    HW1 1785   3.199   2.607   1.919
 2407SOL    HW2 1786   3.183   2.727   1.809
 2408SOL     OW 1787   2.930   3.195   2.711
 2408SOL    HW1 1788   2.937   3.111   2.656
 2408SOL    HW2 1789   2.992   3.264   2.675
 2409SOL     OW 1790   2.181   2.672   2.811
 2409SOL    HW1 1791   2.274   2.708   2.816
 2409SOL    HW2 1792   2.175   2.587   2.863
 2410SOL     OW 1793   2.201   2.371   2.868
 2410SOL    HW1 1794   2.149   2.288   2.851
 2410SOL    HW2 1795   2.278   2.376   2.804
 2411SOL     OW 1796   3.000   2.242   3.540
 2411SOL    HW1 1797   2.955   2.305   3.604
 2411SOL    HW2 1798   3.093   2.273   3.523
 2412SOL     OW 1799   3.022   2.069   3.339
 2412SOL    HW1 1800   3.022   2.133   3.416
 2412SOL    HW2 1801   3.050   2.117   3.256
 2413SOL     OW 1802   1.870   3.188   2.062
 2413SOL    HW1 1803   1.777   3.209   2.031
 2413SOL    HW2 1804   1.880   3.089   2.075
 2414SOL     OW 1805   1.950   3.663   2.789
 2414SOL    HW1 1806   1.908   3.577   2.762
 2414SOL    HW2 1807   2.044   3.666   2.755
 2415SOL     OW 1808   2.366   3.430   2.772
 2415SOL    HW1 1809   2.432   3.504   2.781
 2415SOL    HW2 1810   2.410   3.351   2.730
 2416SOL     OW 1811   2.864   2.658   3.100
 2416SOL    HW1 1812   2.905   2.626   3.186
 2416SOL    HW2 1813   2.768   2.631   3.097
 2417SOL     OW 1814   1.902   2.406   2.976
 2417SOL    HW1 1815   1.987   2.373   2.935
 2417SOL    HW2 1816   1.915   2.421   3.074
 2418SOL     OW 1817   2.051   2.382   3.584
 2418SOL    HW1 1818   2.110   2.342   3.514
 2418SOL    HW2 1819   1.993   2.453   3.543
 2419SOL     OW 1820   3.231   2.812   3.522
 2419SOL    HW1 1821   3.270   2.901   3.542
 2419SOL    HW2 1822   3.241   2.792   3.425
 2420SOL     OW 1823   2.677   2.434   2.187
 2420SOL    HW1 1824   2.684   2.345   2.141
 2420SOL    HW2 1825   2.583   2.468   2.179
 2421SOL     OW 1826   3.519   2.466   3.068
 2421SOL    HW1 1827   3.481   2.397   3.130
 2421SOL    HW2 1828   3.601   2.430   3.024
 2422SOL     OW 1829   2.114   3.426   3.606
 2422SOL    HW1 1830   2.084   3.483   3.682
 2422SOL    HW2 1831   2.107   3.329   3.632
 2423SOL     OW 1832   2.533   2.326   3.131
 2423SOL    HW1 1833   2.499   2.237   3.101
 2423SOL    HW2 1834   2.559   2.380   3.051
 2424SOL     OW 1835   2.792   3.540   3.327
 2424SOL    HW1 1836   2.768   3.522   3.232
 2424SOL    HW2 1837   2.822   3.634   3.337
 2425SOL     OW 1838   2.335   2.362   2.053
 2425SOL    HW1 1839   2.396   2.442   2.057
 2425SOL    HW2 1840   2.240   2.393   2.060
 2426SOL     OW 1841   2.021   2.999   3.328
 2426SOL    HW1 1842   2.043   2.938   3.404
 2426SOL    HW2 1843   2.031   2.950   3.242
 2427SOL     OW 1844   3.209   2.921   3.096
 2427SOL    HW1 1845   3.233   2.858   3.022
 2427SOL    HW2 1846   3.119   2.961   3.078
 2428SOL     OW 1847   3.164   2.717   2.171
 2428SOL    HW1 1848   3.078   2.686   2.213
 2428SOL    HW2 1849   3.160   2.703   2.072
 2429SOL     OW 1850   3.621   3.609   3.016
 2429SOL    HW1 1851   3.682   3.639   2.943
 2429SOL    HW2 1852   3.583   3.520   2.994
 2430SOL     OW 1853   3.114   3.593   2.990
 2430SOL    HW1 1854   3.198   3.598   2.936
 2430SOL    HW2 1855   3.091   3.497   3.008
 2431SOL     OW 1856   1.945   3.120   2.884
 2431SOL    HW1 1857   1.940   3.119   2.984
 2431SOL    HW2 1858   1.862   3.079   2.846
 2432SOL     OW 1859   2.550   3.524   3.578
 2432SOL    HW1 1860   2.494   3.605   3.587
 2432SOL    HW2 1861   2.602   3.528   3.492
 2433SOL     OW 1862   3.588   1.997   2.385
 2433SOL    HW1 1863   3.661   1.980   2.318
 2433SOL    HW2 1864   3.557   1.910   2.423
 2434SOL     OW 1865   3.250   3.435   2.339
 2434SOL    HW1 1866   3.317   3.447   2.265
 2434SOL    HW2 1867   3.210   3.524   2.362
 2435SOL     OW 1868   1.992   3.656   3.713
 2435SOL    HW1 1869   1.951   3.582   3.766
 2435SOL    HW2 1870   2.056   3.707   3.771
 2436SOL     OW 1871   3.142   2.789   2.534
 2436SOL    HW1 1872   3.202   2.708   2.536
 2436SOL    HW2 1873   3.182   2.858   2.474
 2437SOL     OW 1874   2.692   3.135   3.284
 2437SOL    HW1 1875   2.687   3.168   3.379
 2437SOL    HW2 1876   2.606   3.154   3.238
 2438SOL     OW 1877   2.534   3.478   2.016
 2438SOL    HW1 1878   2.543   3.488   1.917
 2438SOL    HW2 1879   2.494   3.389   2.037
 2439SOL     OW 1880   3.512   3.582   3.256
 2439SOL    HW1 1881   3.565   3.592   3.172
 2439SOL    HW2 1882   3.485   3.672   3.290
 2440SOL     OW 1883   3.703   2.037   2.825
 2440SOL    HW1 1884   3.742   1.952   2.789
 2440SOL    HW2 1885   3.605   2.039   2.806
 2441SOL     OW 1886   2.125   2.188   2.582
 2441SOL    HW1 1887   2.046   2.239   2.548
 2441SOL    HW2 1888   2.116   2.173   2.680
 2442SOL     OW 1889   3.056   3.474   1.893
 2442SOL    HW1 1890   3.062   3.381   1.930
 2442SOL    HW2 1891   2.997   3.474   1.813
 2443SOL     OW 1892   2.684   2.864   3.234
 2443SOL    HW1 1893   2.724   2.863   3.142
 2443SOL    HW2 1894   2.694   2.956   3.274
 2444SOL     OW 1895   2.778   2.772   2.153
 2444SOL    HW1 1896   2.841   2.810   2.085
 2444SOL    HW2 1897   2.818   2.689   2.192
 2445SOL     OW 1898   3.366   3.469   1.906
 2445SOL    HW1 1899   3.274   3.506   1.913
 2445SOL    HW2 1900   3.404   3.489   1.816
 2446SOL     OW 1901   2.234   3.150   3.352
 2446SOL    HW1 1902   2.221   3.243   3.318
 2446SOL    HW2 1903   2.150   3.098   3.339
 2447SOL     OW 1904   3.476   3.154   3.151
 2447SOL    HW1 1905   3.536   3.157   3.231
 2447SOL    HW2 1906   3.401   3.218   3.164
 2448SOL     OW 1907   2.901   2.960   2.558
 2448SOL    HW1 1908   2.831   2.913   2.612
 2448SOL    HW2 1909   2.960   2.892   2.515
 2449SOL     OW 1910   2.876   2.098   2.833
 2449SOL    HW1 1911   2.868   2.062   2.740
 2449SOL    HW2 1912   2.874   2.022   2.898
 2450SOL     OW 1913   2.452   3.349   2.353
 2450SOL    HW1 1914   2.494   3.291   2.283
 2450SOL    HW2 1915   2.408   3.428   2.309
 2451SOL     OW 1916   3.571   2.247   3.243
 2451SOL    HW1 1917   3.644   2.316   3.247
 2451SOL    HW2 1918   3.599   2.172   3.184
 2452SOL     OW 1919   2.117   3.210   2.152
 2452SOL    HW1 1920   2.021   3.211   2.125
 2452SOL    HW2 1921   2.129   3.263   2.236
 2453SOL     OW 1922   1.967   2.875   3.588
 2453SOL    HW1 1923   1.890   2.842   3.642
 2453SOL    HW2 1924   2.052   2.845   3.630
 2454SOL     OW 1925   2.534   2.065   3.351
 2454SOL    HW1 1926   2.624   2.049   3.311
 2454SOL    HW2 1927   2.542   2.070   3.450
 2455SOL     OW 1928   1.937   2.207   1.895
 2455SOL    HW1 1929   1.845   2.179   1.866
 2455SOL    HW2 1930   1.968   2.284   1.839
 2456SOL     OW 1931   3.302   2.718   3.260
 2456SOL    HW1 1932   3.245   2.770   3.197
 2456SOL    HW2 1933   3.398   2.730   3.236
 2457SOL     OW 1934   1.934   2.028   2.180
 2457SOL    HW1 1935   1.917   2.111   2.126
 2457SOL    HW2 1936   2.024   1.991   2.158
 2458SOL     OW 1937   3.045   3.197   1.981
 2458SOL    HW1 1938   2.946   3.186   1.983
 2458SOL    HW2 1939   3.079   3.212   2.074
 2459SOL     OW 1940   2.475   2.704   3.293
 2459SOL    HW1 1941   2.531   2.785   3.276
 2459SOL    HW2 1942   2.534   2.624   3.296
 2460SOL     OW 1943   3.355   3.629   2.821
 2460SOL    HW1 1944   3.388   3.693   2.752
 2460SOL    HW2 1945   3.421   3.623   2.896
 2461SOL     OW 1946   2.578   2.427   3.570
 2461SOL    HW1 1947   2.597   2.492   3.644
 2461SOL    HW2 1948   2.638   2.347   3.579
 2462SOL     OW 1949   3.312   3.082   3.495
 2462SOL    HW1 1950   3.303   3.072   3.594
 2462SOL    HW2 1951   3.408   3.075   3.469
 2463SOL     OW 1952   2.252   3.603   3.422
 2463SOL    HW1 1953   2.161   3.644   3.420
 2463SOL    HW2 1954   2.245   3.509   3.454
 2464SOL     OW 1955   3.536   2.745   3.116
 2464SOL    HW1 1956   3.509   2.656   3.079
 2464SOL    HW2 1957   3.537   2.813   3.043
 2465SOL     OW 1958   3.087   2.187   2.311
 2465SOL    HW1 1959   3.152   2.113   2.300
 2465SOL    HW2 1960   3.107   2.237   2.395
 2466SOL     OW 1961   3.639   2.204   3.504
 2466SOL    HW1 1962   3.622   2.235   3.410
 2466SOL    HW2 1963   3.555   2.167   3.542
 2467SOL     OW 1964   3.592   2.796   3.379
 2467SOL    HW1 1965   3.630   2.887   3.394
 2467SOL    HW2 1966   3.584   2.779   3.280
 2468SOL     OW 1967   2.721   3.236   1.878
 2468SOL    HW1 1968   2.675   3.251   1.966
 2468SOL    HW2 1969   2.765   3.321   1.848
 2469SOL     OW 1970   2.523   3.652   2.815
 2469SOL    HW1 1971   2.477   3.740   2.802
 2469SOL    HW2 1972   2.622   3.664   2.808
 2470SOL     OW 1973   2.945   2.846   1.949
 2470SOL    HW1 1974   2.922   2.899   1.867
 2470SOL    HW2 1975   3.026   2.790   1.930
 2471SOL     OW 1976   3.723   3.431   2.713
 2471SOL    HW1 1977   3.652   3.419   2.643
 2471SOL    HW2 1978   3.724   3.352   2.773
 2472SOL     OW 1979   2.083   3.176   3.706
 2472SOL    HW1 1980   2.018   3.103   3.685
 2472SOL    HW2 1981   2.087   3.190   3.804
 2473SOL     OW 1982   1.941   3.102   2.515
 2473SOL    HW1 1983   1.940   3.055   2.603
 2473SOL    HW2 1984   2.023   3.074   2.464
 2474SOL     OW 1985   2.534   3.253   3.486
 2474SOL    HW1 1986   2.456   3.203   3.524
 2474SOL    HW2 1987   2.531   3.348   3.517
 2475SOL     OW 1988   3.686   2.054   3.089
 2475SOL    HW1 1989   3.682   1.964   3.133
 2475SOL    HW2 1990   3.689   2.043   2.990
 2476SOL     OW 1991   3.567   3.349   2.966
 2476SOL    HW1 1992   3.474   3.324   2.939
 2476SOL    HW2 1993   3.593   3.299   3.048
 2477SOL     OW 1994   2.179   2.409   3.142
 2477SOL    HW1 1995   2.217   2.350   3.214
 2477SOL    HW2 1996   2.219   2.383   3.054
 2478SOL     OW 1997   2.674   3.448   2.549
 2478SOL    HW1 1998   2.706   3.458   2.455
 2478SOL    HW2 1999   2.595   3.386   2.551
 2479SOL     OW 2000   3.286   2.076   2.974
 2479SOL    HW1 2001   3.338   2.011   3.029
 2479SOL    HW2 2002   3.237   2.139   3.035
 2480SOL     OW 2003   2.863   1.896   3.016
 2480SOL    HW1 2004   2.800   1.824   2.985
 2480SOL    HW2 2005   2.956   1.860   3.016
 2481SOL     OW 2006   2.632   3.192   2.163
 2481SOL    HW1 2007   2.586   3.105   2.180
 2481SOL    HW2 2008   2.723   3.189   2.204
 2482SOL     OW 2009   2.480   3.429   3.146
 2482SOL    HW1 2010   2.475   3.511   3.203
 2482SOL    HW2 2011   2.569   3.426   3.101
 2483SOL     OW 2012   3.214   1.914   2.030
 2483SOL    HW1 2013   3.249   1.873   1.946
 2483SOL    HW2 2014   3.124   1.876   2.050
 2484SOL     OW 2015   3.162   2.315   2.553
 2484SOL    HW1 2016   3.103   2.395   2.557
 2484SOL    HW2 2017   3.177   2.280   2.646
 2485SOL     OW 2018   3.455   2.083   2.744
 2485SOL    HW1 2019   3.371   2.082   2.798
 2485SOL    HW2 2020   3.457   2.166   2.688
 2486SOL     OW 2021   1.901   2.939   2.162
 2486SOL    HW1 2022   2.000   2.928   2.153
 2486SOL    HW2 2023   1.861   2.853   2.194
 2487SOL     OW 2024   2.737   3.508   2.199
 2487SOL    HW1 2025   2.660   3.473   2.145
 2487SOL    HW2 2026   2.705   3.579   2.261
 2488SOL     OW 2027   2.092   2.490   3.837
 2488SOL    HW1 2028   1.999   2.488   3.874
 2488SOL    HW2 2029   2.093   2.451   3.745
 2502SOL     OW 2030   2.468   2.826   3.847
 2502SOL    HW1 2031   2.475   2.910   3.793
 2502SOL    HW2 2032   2.514   2.839   3.935
 2505SOL     OW 2033   1.889   3.458   3.841
 2505SOL    HW1 2034   1.870   3.362   3.862
 2505SOL    HW2 2035   1.856   3.516   3.916
 2511SOL     OW 2036   3.387   2.861   3.914
 2511SOL    HW1 2037   3.324   2.785   3.927
 2511SOL    HW2 2038   3.435   2.879   4.000
 2514SOL     OW 2039   2.460   2.591   3.994
 2514SOL    HW1 2040   2.484   2.660   3.926
 2514SOL    HW2 2041   2.382   2.624   4.048
 2517SOL     OW 2042   2.903   2.563   4.153
 2517SOL    HW1 2043   2.929   2.559   4.249
 2517SOL    HW2 2044   2.818   2.512   4.139
 2519SOL     OW 2045   2.727   2.210   3.919
 2519SOL    HW1 2046   2.786   2.273   3.870
 2519SOL    HW2 2047   2.746   2.116   3.890
 2525SOL     OW 2048   2.183   2.805   3.966
 2525SOL    HW1 2049   2.265   2.844   3.924
 2525SOL    HW2 2050   2.156   2.723   3.917
 2533SOL     OW 2051   2.244   2.562   4.204
 2533SOL    HW1 2052   2.289   2.472   4.201
 2533SOL    HW2 2053   2.150   2.551   4.237
 2534SOL     OW 2054   2.476   1.984   3.841
 2534SOL    HW1 2055   2.574   1.962   3.848
 2534SOL    HW2 2056   2.445   1.967   3.748
 2538SOL     OW 2057   3.296   3.050   3.765
 2538SOL    HW1 2058   3.328   2.974   3.822
 2538SOL    HW2 2059   3.204   3.077   3.795
 2539SOL     OW 2060   2.159   1.897   3.895
 2539SOL    HW1 2061   2.208   1.981   3.874
 2539SOL    HW2 2062   2.221   1.832   3.940
 2540SOL     OW 2063   2.797   2.098   4.204
 2540SOL    HW1 2064   2.749   2.139   4.126
 2540SOL    HW2 2065   2.896   2.096   4.185
 2544SOL     OW 2066   2.894   2.411   3.740
 2544SOL    HW1 2067   2.853   2.493   3.701
 2544SOL    HW2 2068   2.958   2.437   3.813
 2550SOL     OW 2069   2.350   3.247   3.898
 2550SOL    HW1 2070   2.263   3.232   3.945
 2550SOL    HW2 2071   2.333   3.273   3.803
 2552SOL     OW 2072   3.252   2.437   3.802
 2552SOL    HW1 2073   3.198   2.416   3.883
 2552SOL    HW2 2074   3.343   2.396   3.811
 2553SOL     OW 2075   2.389   2.118   4.052
 2553SOL    HW1 2076   2.416   2.059   3.977
 2553SOL    HW2 2077   2.389   2.213   4.021
 2556SOL     OW 2078   2.567   2.912   4.092
 2556SOL    HW1 2079   2.553   2.919   4.191
 2556SOL    HW2 2080   2.651   2.861   4.074
 2564SOL     OW 2081   3.071   2.387   3.999
 2564SOL    HW1 2082   3.084   2.303   4.053
 2564SOL    HW2 2083   3.042   2.461   4.059
 2570SOL     OW 2084   3.402   2.136   3.849
 2570SOL    HW1 2085   3.341   2.061   3.872
 2570SOL    HW2 2086   3.424   2.188   3.932
 2571SOL     OW 2087   3.165   2.700   3.766
 2571SOL    HW1 2088   3.199   2.607   3.781
 2571SOL    HW2 2089   3.183   2.727   3.671
 2576SOL     OW 2090   1.870   3.188   3.924
 2576SOL    HW1 2091   1.777   3.209   3.893
 2576SOL    HW2 2092   1.880   3.089   3.937
 2581SOL     OW 2093   2.677   2.434   4.049
 2581SOL    HW1 2094   2.684   2.345   4.003
 2581SOL    HW2 2095   2.583   2.468   4.041
 2584SOL     OW 2096   2.335   2.362   3.915
 2584SOL    HW1 2097   2.396   2.442   3.919
 2584SOL    HW2 2098   2.240   2.393   3.922
 2585SOL     OW 2099   3.164   2.717   4.033
 2585SOL    HW1 2100   3.078   2.686   4.075
 2585SOL    HW2 2101   3.160   2.703   3.934
 2591SOL     OW 2102   2.534   3.478   3.878
 2591SOL    HW1 2103   2.543   3.488   3.779
 2591SOL    HW2 2104   2.494   3.389   3.899
 2594SOL     OW 2105   3.056   3.474   3.755
 2594SOL    HW1 2106   3.062   3.381   3.792
 2594SOL    HW2 2107   2.997   3.474   3.675
 2596SOL     OW 2108   2.778   2.772   4.015
 2596SOL    HW1 2109   2.841   2.810   3.947
 2596SOL    HW2 2110   2.818   2.689   4.054
 2602SOL     OW 2111   2.117   3.210   4.014
 2602SOL    HW1 2112   2.021   3.211   3.987
 2602SOL    HW2 2113   2.129   3.263   4.098
 2603SOL     OW 2114   1.937   2.207   3.757
 2603SOL    HW1 2115   1.845   2.179   3.728
 2603SOL    HW2 2116   1.968   2.284   3.701
 2604SOL     OW 2117   1.934   2.028   4.042
 2604SOL    HW1 2118   1.917   2.111   3.988
 2604SOL    HW2 2119   2.024   1.991   4.020
 2605SOL     OW 2120   3.045   3.197   3.843
 2605SOL    HW1 2121   2.946   3.186   3.845
 2605SOL    HW2 2122   3.079   3.212   3.936
 2610SOL     OW 2123   2.721   3.236   3.740
 2610SOL    HW1 2124   2.675   3.251   3.828
 2610SOL    HW2 2125   2.765   3.321   3.710
 2613SOL     OW 2126   2.945   2.846   3.811
 2613SOL    HW1 2127   2.922   2.899   3.729
 2613SOL    HW2 2128   3.026   2.790   3.792
 2617SOL     OW 2129   2.290   2.286   4.244
 2617SOL    HW1 2130   2.320   2.214   4.182
 2617SOL    HW2 2131   2.251   2.246   4.327
 2621SOL     OW 2132   2.632   3.192   4.025
 2621SOL    HW1 2133   2.586   3.105   4.042
 2621SOL    HW2 2134   2.723   3.189   4.066
 2622SOL     OW 2135   3.214   1.914   3.892
 2622SOL    HW1 2136   3.249   1.873   3.808
 2622SOL    HW2 2137   3.124   1.876   3.912
 2625SOL     OW 2138   1.901   2.939   4.024
 2625SOL    HW1 2139   2.000   2.928   4.015
 2625SOL    HW2 2140   1.861   2.853   4.056
 2650SOL     OW 2141   2.179   3.975   1.801
 2650SOL    HW1 2142   2.250   4.046   1.807
 2650SOL    HW2 2143   2.091   4.014   1.829
 2671SOL     OW 2144   2.643   3.988   1.749
 2671SOL    HW1 2145   2.710   3.927   1.792
 2671SOL    HW2 2146   2.570   4.007   1.814
 2691SOL     OW 2147   2.777   3.813   1.402
 2691SOL    HW1 2148   2.802   3.793   1.307
 2691SOL    HW2 2149   2.849   3.869   1.444
 2701SOL     OW 2150   2.875   3.829   1.770
 2701SOL    HW1 2151   2.881   3.914   1.718
 2701SOL    HW2 2152   2.907   3.753   1.713
 2702SOL     OW 2153   2.366   3.774   1.740
 2702SOL    HW1 2154   2.324   3.717   1.670
 2702SOL    HW2 2155   2.300   3.843   1.772
 2742SOL     OW 2156   2.534   3.927   1.489
 2742SOL    HW1 2157   2.624   3.911   1.449
 2742SOL    HW2 2158   2.542   3.932   1.588
 2767SOL     OW 2159   2.087   3.999   2.858
 2767SOL    HW1 2160   2.122   3.982   2.950
 2767SOL    HW2 2161   1.999   3.954   2.846
 2768SOL     OW 2162   1.881   4.092   2.509
 2768SOL    HW1 2163   1.799   4.135   2.548
 2768SOL    HW2 2164   1.853   4.019   2.446
 2786SOL     OW 2165   2.671   3.728   2.364
 2786SOL    HW1 2166   2.711   3.819   2.355
 2786SOL    HW2 2167   2.571   3.736   2.370
 2791SOL     OW 2168   3.143   4.069   2.806
 2791SOL    HW1 2169   3.057   4.019   2.793
 2791SOL    HW2 2170   3.205   4.015   2.862
 2798SOL     OW 2171   2.727   4.072   2.057
 2798SOL    HW1 2172   2.786   4.135   2.008
 2798SOL    HW2 2173   2.746   3.978   2.028
 2801SOL     OW 2174   2.412   3.920   2.747
 2801SOL    HW1 2175   2.407   3.915   2.847
 2801SOL    HW2 2176   2.414   4.016   2.718
 2806SOL     OW 2177   3.262   3.831   2.288
 2806SOL    HW1 2178   3.238   3.794   2.198
 2806SOL    HW2 2179   3.361   3.847   2.292
 2809SOL     OW 2180   2.476   3.846   1.979
 2809SOL    HW1 2181   2.574   3.824   1.986
 2809SOL    HW2 2182   2.445   3.829   1.886
 2812SOL     OW 2183   2.784   4.227   2.761
 2812SOL    HW1 2184   2.759   4.218   2.665
 2812SOL    HW2 2185   2.832   4.145   2.792
 2813SOL     OW 2186   2.401   3.788   2.374
 2813SOL    HW1 2187   2.320   3.789   2.432
 2813SOL    HW2 2188   2.404   3.871   2.319
 2814SOL     OW 2189   2.159   3.759   2.033
 2814SOL    HW1 2190   2.208   3.843   2.012
 2814SOL    HW2 2191   2.221   3.694   2.078
 2815SOL     OW 2192   2.797   3.960   2.342
 2815SOL    HW1 2193   2.749   4.001   2.264
 2815SOL    HW2 2194   2.896   3.958   2.323
 2820SOL     OW 2195   2.423   3.946   3.009
 2820SOL    HW1 2196   2.461   3.862   3.046
 2820SOL    HW2 2197   2.335   3.965   3.053
 2821SOL     OW 2198   2.728   4.178   2.504
 2821SOL    HW1 2199   2.696   4.250   2.442
 2821SOL    HW2 2200   2.752   4.097   2.451
 2822SOL     OW 2201   2.879   3.763   2.615
 2822SOL    HW1 2202   2.807   3.768   2.546
 2822SOL    HW2 2203   2.855   3.694   2.684
 2827SOL     OW 2204   2.389   3.980   2.190
 2827SOL    HW1 2205   2.416   3.921   2.115
 2827SOL    HW2 2206   2.389   4.075   2.159
 2830SOL     OW 2207   2.777   3.813   3.264
 2830SOL    HW1 2208   2.802   3.793   3.169
 2830SOL    HW2 2209   2.849   3.869   3.306
 2836SOL     OW 2210   2.428   4.261   2.727
 2836SOL    HW1 2211   2.440   4.327   2.653
 2836SOL    HW2 2212   2.474   4.295   2.810
 2841SOL     OW 2213   2.366   3.774   3.602
 2841SOL    HW1 2214   2.324   3.717   3.532
 2841SOL    HW2 2215   2.300   3.843   3.634
 2845SOL     OW 2216   2.169   3.937   3.093
 2845SOL    HW1 2217   2.146   3.974   3.183
 2845SOL    HW2 2218   2.139   3.842   3.087
 2848SOL     OW 2219   2.169   3.787   2.480
 2848SOL    HW1 2220   2.158   3.881   2.513
 2848SOL    HW2 2221   2.164   3.724   2.557
 2857SOL     OW 2222   3.022   3.931   3.339
 2857SOL    HW1 2223   3.022   3.995   3.416
 2857SOL    HW2 2224   3.050   3.979   3.256
 2869SOL     OW 2225   3.588   3.859   2.385
 2869SOL    HW1 2226   3.661   3.842   2.318
 2869SOL    HW2 2227   3.557   3.772   2.423
 2872SOL     OW 2228   2.125   4.050   2.582
 2872SOL    HW1 2229   2.046   4.101   2.548
 2872SOL    HW2 2230   2.116   4.035   2.680
 2877SOL     OW 2231   2.876   3.960   2.833
 2877SOL    HW1 2232   2.868   3.924   2.740
 2877SOL    HW2 2233   2.874   3.884   2.898
 2880SOL     OW 2234   2.534   3.927   3.351
 2880SOL    HW1 2235   2.624   3.911   3.311
 2880SOL    HW2 2236   2.542   3.932   3.450
 2881SOL     OW 2237   1.937   4.069   1.895
 2881SOL    HW1 2238   1.845   4.041   1.866
 2881SOL    HW2 2239   1.968   4.146   1.839
 2883SOL     OW 2240   1.934   3.890   2.180
 2883SOL    HW1 2241   1.917   3.973   2.126
 2883SOL    HW2 2242   2.024   3.853   2.158
 2888SOL     OW 2243   3.087   4.049   2.311
 2888SOL    HW1 2244   3.152   3.975   2.300
 2888SOL    HW2 2245   3.107   4.099   2.395
 2896SOL     OW 2246   2.290   4.148   2.382
 2896SOL    HW1 2247   2.320   4.076   2.320
 2896SOL    HW2 2248   2.251   4.108   2.465
 2898SOL     OW 2249   3.286   3.938   2.974
 2898SOL    HW1 2250   3.338   3.873   3.029
 2898SOL    HW2 2251   3.237   4.001   3.035
 2899SOL     OW 2252   2.863   3.758   3.016
 2899SOL    HW1 2253   2.800   3.686   2.985
 2899SOL    HW2 2254   2.956   3.722   3.016
 2901SOL     OW 2255   3.214   3.776   2.030
 2901SOL    HW1 2256   3.249   3.735   1.946
 2901SOL    HW2 2257   3.124   3.738   2.050
 2903SOL     OW 2258   3.455   3.945   2.744
 2903SOL    HW1 2259   3.371   3.944   2.798
 2903SOL    HW2 2260   3.457   4.028   2.688
 3030SOL     OW 2261   3.854   1.821   1.571
 3030SOL    HW1 2262   3.844   1.806   1.670
 3030SOL    HW2 2263   3.768   1.857   1.535
 3108SOL     OW 2264   3.854   1.794   1.851
 3108SOL    HW1 2265   3.813   1.720   1.904
 3108SOL    HW2 2266   3.918   1.845   1.909
 3152SOL     OW 2267   3.955   1.713   2.345
 3152SOL    HW1 2268   3.989   1.790   2.399
 3152SOL    HW2 2269   3.999   1.713   2.255
 3159SOL     OW 2270   3.751   1.596   1.979
 3159SOL    HW1 2271   3.732   1.500   2.000
 3159SOL    HW2 2272   3.718   1.654   2.054
 3171SOL     OW 2273   3.854   1.821   3.433
 3171SOL    HW1 2274   3.844   1.806   3.532
 3171SOL    HW2 2275   3.768   1.857   3.397
 3175SOL     OW 2276   4.075   1.801   2.715
 3175SOL    HW1 2277   4.125   1.715   2.721
 3175SOL    HW2 2278   4.140   1.878   2.712
 3181SOL     OW 2279   3.973   1.785   3.103
 3181SOL    HW1 2280   4.030   1.720   3.153
 3181SOL    HW2 2281   3.957   1.752   3.010
 3209SOL     OW 2282   3.788   1.564   3.193
 3209SOL    HW1 2283   3.742   1.646   3.159
 3209SOL    HW2 2284   3.886   1.583   3.202
 3232SOL     OW 2285   3.732   1.326   2.062
 3232SOL    HW1 2286   3.639   1.347   2.031
 3232SOL    HW2 2287   3.742   1.227   2.075
 3233SOL     OW 2288   3.812   1.801   2.789
 3233SOL    HW1 2289   3.770   1.715   2.762
 3233SOL    HW2 2290   3.906   1.804   2.755
 3393SOL     OW 2291   3.837   2.599   1.597
 3393SOL    HW1 2292   3.925   2.586   1.642
 3393SOL    HW2 2293   3.824   2.696   1.575
 3397SOL     OW 2294   4.041   2.113   1.801
 3397SOL    HW1 2295   4.112   2.184   1.807
 3397SOL    HW2 2296   3.953   2.152   1.829
 3412SOL     OW 2297   3.926   2.147   1.498
 3412SOL    HW1 2298   3.846   2.207   1.485
 3412SOL    HW2 2299   3.916   2.098   1.584
 3431SOL     OW 2300   3.802   2.418   1.386
 3431SOL    HW1 2301   3.894   2.417   1.345
 3431SOL    HW2 2302   3.796   2.492   1.453
 3460SOL     OW 2303   4.074   2.760   1.804
 3460SOL    HW1 2304   4.150   2.804   1.852
 3460SOL    HW2 2305   4.109   2.713   1.722
 3471SOL     OW 2306   3.913   2.382   1.722
 3471SOL    HW1 2307   3.972   2.342   1.652
 3471SOL    HW2 2308   3.855   2.453   1.681
 3493SOL     OW 2309   3.829   2.875   1.726
 3493SOL    HW1 2310   3.752   2.842   1.780
 3493SOL    HW2 2311   3.914   2.845   1.768
 3504SOL     OW 2312   3.945   3.176   1.844
 3504SOL    HW1 2313   3.880   3.103   1.823
 3504SOL    HW2 2314   3.949   3.190   1.942
 3515SOL     OW 2315   3.954   2.490   1.975
 3515SOL    HW1 2316   3.861   2.488   2.012
 3515SOL    HW2 2317   3.955   2.451   1.883
 3516SOL     OW 2318   3.949   2.137   2.858
 3516SOL    HW1 2319   3.984   2.120   2.950
 3516SOL    HW2 2320   3.861   2.092   2.846
 3517SOL     OW 2321   3.743   2.230   2.509
 3517SOL    HW1 2322   3.661   2.273   2.548
 3517SOL    HW2 2323   3.715   2.157   2.446
 3528SOL     OW 2324   3.954   3.296   2.400
 3528SOL    HW1 2325   3.928   3.392   2.400
 3528SOL    HW2 2326   3.883   3.242   2.445
 3529SOL     OW 2327   3.964   2.953   2.748
 3529SOL    HW1 2328   3.978   2.869   2.800
 3529SOL    HW2 2329   3.909   3.017   2.803
 3532SOL     OW 2330   3.846   2.505   2.425
 3532SOL    HW1 2331   3.801   2.417   2.442
 3532SOL    HW2 2332   3.845   2.559   2.509
 3533SOL     OW 2333   3.751   3.458   1.979
 3533SOL    HW1 2334   3.732   3.362   2.000
 3533SOL    HW2 2335   3.718   3.516   2.054
 3534SOL     OW 2336   3.837   2.599   3.459
 3534SOL    HW1 2337   3.925   2.586   3.504
 3534SOL    HW2 2338   3.824   2.696   3.437
 3537SOL     OW 2339   3.921   2.838   3.126
 3537SOL    HW1 2340   4.010   2.793   3.112
 3537SOL    HW2 2341   3.848   2.773   3.107
 3544SOL     OW 2342   3.800   2.673   2.651
 3544SOL    HW1 2343   3.899   2.661   2.660
 3544SOL    HW2 2344   3.776   2.768   2.672
 3551SOL     OW 2345   4.045   2.805   2.104
 3551SOL    HW1 2346   4.127   2.844   2.062
 3551SOL    HW2 2347   4.018   2.723   2.055
 3553SOL     OW 2348   3.926   2.147   3.360
 3553SOL    HW1 2349   3.846   2.207   3.347
 3553SOL    HW2 2350   3.916   2.098   3.446
 3557SOL     OW 2351   4.106   2.562   2.342
 3557SOL    HW1 2352   4.151   2.472   2.339
 3557SOL    HW2 2353   4.012   2.551   2.375
 3564SOL     OW 2354   4.021   1.897   2.033
 3564SOL    HW1 2355   4.070   1.981   2.012
 3564SOL    HW2 2356   4.083   1.832   2.078
 3568SOL     OW 2357   4.183   3.014   2.603
 3568SOL    HW1 2358   4.112   2.987   2.668
 3568SOL    HW2 2359   4.157   2.986   2.510
 3571SOL     OW 2360   3.802   2.418   3.248
 3571SOL    HW1 2361   3.894   2.417   3.207
 3571SOL    HW2 2362   3.796   2.492   3.315
 3582SOL     OW 2363   4.134   2.675   3.113
 3582SOL    HW1 2364   4.220   2.687   3.163
 3582SOL    HW2 2365   4.092   2.588   3.140
 3583SOL     OW 2366   3.788   3.426   3.193
 3583SOL    HW1 2367   3.742   3.508   3.159
 3583SOL    HW2 2368   3.886   3.445   3.202
 3584SOL     OW 2369   4.091   2.962   2.363
 3584SOL    HW1 2370   4.084   3.045   2.307
 3584SOL    HW2 2371   4.095   2.882   2.303
 3594SOL     OW 2372   4.031   2.075   3.093
 3594SOL    HW1 2373   4.008   2.112   3.183
 3594SOL    HW2 2374   4.001   1.980   3.087
 3595SOL     OW 2375   3.761   3.172   3.144
 3595SOL    HW1 2376   3.814   3.123   3.212
 3595SOL    HW2 2377   3.783   3.270   3.149
 3597SOL     OW 2378   4.031   1.925   2.480
 3597SOL    HW1 2379   4.020   2.019   2.513
 3597SOL    HW2 2380   4.026   1.862   2.557
 3602SOL     OW 2381   4.043   2.672   2.811
 3602SOL    HW1 2382   4.136   2.708   2.816
 3602SOL    HW2 2383   4.037   2.587   2.863
 3603SOL     OW 2384   4.063   2.371   2.868
 3603SOL    HW1 2385   4.011   2.288   2.851
 3603SOL    HW2 2386   4.140   2.376   2.804
 3606SOL     OW 2387   3.732   3.188   2.062
 3606SOL    HW1 2388   3.639   3.209   2.031
 3606SOL    HW2 2389   3.742   3.089   2.075
 3610SOL     OW 2390   3.764   2.406   2.976
 3610SOL    HW1 2391   3.849   2.373   2.935
 3610SOL    HW2 2392   3.777   2.421   3.074
 3616SOL     OW 2393   4.197   2.362   2.053
 3616SOL    HW1 2394   4.258   2.442   2.057
 3616SOL    HW2 2395   4.102   2.393   2.060
 3617SOL     OW 2396   3.883   2.999   3.328
 3617SOL    HW1 2397   3.905   2.938   3.404
 3617SOL    HW2 2398   3.893   2.950   3.242
 3619SOL     OW 2399   3.807   3.120   2.884
 3619SOL    HW1 2400   3.802   3.119   2.984
 3619SOL    HW2 2401   3.724   3.079   2.846
 3624SOL     OW 2402   3.987   2.188   2.582
 3624SOL    HW1 2403   3.908   2.239   2.548
 3624SOL    HW2 2404   3.978   2.173   2.680
 3631SOL     OW 2405   3.979   3.210   2.152
 3631SOL    HW1 2406   3.883   3.211   2.125
 3631SOL    HW2 2407   3.991   3.263   2.236
 3632SOL     OW 2408   3.829   2.875   3.588
 3632SOL    HW1 2409   3.752   2.842   3.642
 3632SOL    HW2 2410   3.914   2.845   3.630
 3634SOL     OW 2411   3.799   2.207   1.895
 3634SOL    HW1 2412   3.707   2.179   1.866
 3634SOL    HW2 2413   3.830   2.284   1.839
 3635SOL     OW 2414   3.796   2.028   2.180
 3635SOL    HW1 2415   3.779   2.111   2.126
 3635SOL    HW2 2416   3.886   1.991   2.158
 3645SOL     OW 2417   3.803   3.102   2.515
 3645SOL    HW1 2418   3.802   3.055   2.603
 3645SOL    HW2 2419   3.885   3.074   2.464
 3647SOL     OW 2420   4.152   2.286   2.382
 3647SOL    HW1 2421   4.182   2.214   2.320
 3647SOL    HW2 2422   4.113   2.246   2.465
 3648SOL     OW 2423   4.041   2.409   3.142
 3648SOL    HW1 2424   4.079   2.350   3.214
 3648SOL    HW2 2425   4.081   2.383   3.054
 3653SOL     OW 2426   3.763   2.939   2.162
 3653SOL    HW1 2427   3.862   2.928   2.153
 3653SOL    HW2 2428   3.723   2.853   2.194
   4.96027   4.96027   4.96027
