mobley_2864987_GMX.gro created by acpype (v: 2023.10.27) on Tue May 19 12:41:06 2026
 2403
    1MOL     C1    1   2.338   2.503   2.554
    1MOL     C2    2   2.299   2.146   2.199
    1MOL     C3    3   2.386   2.457   2.418
    1MOL     C4    4   2.322   2.323   2.378
    1MOL     C5    5   2.366   2.277   2.239
    1MOL     O1    6   2.334   2.376   2.142
    1MOL     H1    7   2.385   2.599   2.580
    1MOL     H2    8   2.363   2.430   2.632
    1MOL     H3    9   2.229   2.518   2.555
    1MOL     H4   10   2.190   2.158   2.196
    1MOL     H5   11   2.330   2.116   2.099
    1MOL     H6   12   2.323   2.066   2.270
    1MOL     H7   13   2.362   2.533   2.343
    1MOL     H8   14   2.495   2.446   2.420
    1MOL     H9   15   2.348   2.247   2.453
    1MOL    H10   16   2.213   2.335   2.380
    1MOL    H11   17   2.475   2.263   2.237
    1MOL    H12   18   2.388   2.356   2.064
   14SOL     OW   19   1.460   1.505   1.339
   14SOL    HW1   20   1.484   1.599   1.365
   14SOL    HW2   21   1.444   1.451   1.421
   18SOL     OW   22   1.127   1.341   1.690
   18SOL    HW1   23   1.174   1.341   1.778
   18SOL    HW2   24   1.079   1.254   1.679
   31SOL     OW   25   1.293   1.228   1.423
   31SOL    HW1   26   1.330   1.155   1.365
   31SOL    HW2   27   1.345   1.233   1.508
   35SOL     OW   28   1.187   1.792   1.616
   35SOL    HW1   29   1.211   1.852   1.540
   35SOL    HW2   30   1.194   1.697   1.586
   56SOL     OW   31   1.227   1.550   1.506
   56SOL    HW1   32   1.233   1.473   1.570
   56SOL    HW2   33   1.175   1.524   1.426
   95SOL     OW   34   1.754   1.223   1.588
   95SOL    HW1   35   1.845   1.184   1.575
   95SOL    HW2   36   1.762   1.319   1.612
   97SOL     OW   37   1.592   1.629   1.625
   97SOL    HW1   38   1.619   1.663   1.535
   97SOL    HW2   39   1.671   1.591   1.671
  122SOL     OW   40   1.728   0.935   1.854
  122SOL    HW1   41   1.682   0.928   1.765
  122SOL    HW2   42   1.666   0.979   1.920
  126SOL     OW   43   0.980   1.573   1.700
  126SOL    HW1   44   0.960   1.617   1.612
  126SOL    HW2   45   1.019   1.482   1.684
  127SOL     OW   46   1.859   1.518   1.605
  127SOL    HW1   47   1.873   1.545   1.510
  127SOL    HW2   48   1.942   1.540   1.658
  147SOL     OW   49   0.930   1.678   1.465
  147SOL    HW1   50   0.906   1.660   1.370
  147SOL    HW2   51   0.960   1.772   1.475
  152SOL     OW   52   1.759   1.747   1.154
  152SOL    HW1   53   1.820   1.777   1.081
  152SOL    HW2   54   1.721   1.658   1.132
  153SOL     OW   55   1.252   1.731   1.128
  153SOL    HW1   56   1.336   1.736   1.074
  153SOL    HW2   57   1.229   1.635   1.146
  163SOL     OW   58   1.650   1.720   1.394
  163SOL    HW1   59   1.703   1.730   1.310
  163SOL    HW2   60   1.623   1.810   1.428
  171SOL     OW   61   1.614   1.292   1.289
  171SOL    HW1   62   1.674   1.295   1.369
  171SOL    HW2   63   1.539   1.356   1.302
  184SOL     OW   64   1.493   1.767   0.959
  184SOL    HW1   65   1.526   1.831   0.890
  184SOL    HW2   66   1.559   1.761   1.034
  186SOL     OW   67   1.450   1.220   1.633
  186SOL    HW1   68   1.441   1.210   1.732
  186SOL    HW2   69   1.546   1.213   1.607
  192SOL     OW   70   1.730   0.934   1.517
  192SOL    HW1   71   1.768   1.025   1.532
  192SOL    HW2   72   1.722   0.917   1.418
  197SOL     OW   73   1.861   1.569   0.851
  197SOL    HW1   74   1.790   1.557   0.781
  197SOL    HW2   75   1.862   1.490   0.911
  203SOL     OW   76   1.705   1.487   1.104
  203SOL    HW1   77   1.612   1.462   1.077
  203SOL    HW2   78   1.731   1.437   1.186
  219SOL     OW   79   1.555   1.511   2.565
  219SOL    HW1   80   1.498   1.495   2.646
  219SOL    HW2   81   1.496   1.521   2.485
  227SOL     OW   82   1.460   1.505   3.201
  227SOL    HW1   83   1.484   1.599   3.227
  227SOL    HW2   84   1.444   1.451   3.283
  238SOL     OW   85   1.842   1.767   2.221
  238SOL    HW1   86   1.896   1.738   2.301
  238SOL    HW2   87   1.872   1.857   2.192
  240SOL     OW   88   1.689   0.922   2.474
  240SOL    HW1   89   1.784   0.893   2.482
  240SOL    HW2   90   1.681   0.987   2.399
  241SOL     OW   91   1.641   1.108   2.294
  241SOL    HW1   92   1.727   1.110   2.242
  241SOL    HW2   93   1.655   1.155   2.382
  244SOL     OW   94   1.293   1.228   3.285
  244SOL    HW1   95   1.330   1.155   3.227
  244SOL    HW2   96   1.345   1.233   3.370
  247SOL     OW   97   1.525   0.999   2.052
  247SOL    HW1   98   1.462   0.923   2.065
  247SOL    HW2   99   1.573   1.017   2.138
  248SOL     OW  100   1.187   1.792   3.478
  248SOL    HW1  101   1.211   1.852   3.402
  248SOL    HW2  102   1.194   1.697   3.448
  250SOL     OW  103   1.466   1.417   2.815
  250SOL    HW1  104   1.407   1.423   2.895
  250SOL    HW2  105   1.451   1.329   2.769
  251SOL     OW  106   1.667   1.714   2.434
  251SOL    HW1  107   1.626   1.691   2.346
  251SOL    HW2  108   1.649   1.640   2.499
  254SOL     OW  109   1.576   1.662   2.169
  254SOL    HW1  110   1.665   1.708   2.172
  254SOL    HW2  111   1.555   1.638   2.074
  264SOL     OW  112   1.362   1.144   2.407
  264SOL    HW1  113   1.445   1.115   2.359
  264SOL    HW2  114   1.313   1.211   2.351
  266SOL     OW  115   1.008   1.456   2.339
  266SOL    HW1  116   0.962   1.528   2.287
  266SOL    HW2  117   1.004   1.476   2.437
  268SOL     OW  118   1.795   1.066   2.735
  268SOL    HW1  119   1.733   1.051   2.659
  268SOL    HW2  120   1.743   1.077   2.820
  269SOL     OW  121   1.227   1.550   3.368
  269SOL    HW1  122   1.233   1.473   3.432
  269SOL    HW2  123   1.175   1.524   3.288
  273SOL     OW  124   1.111   1.776   2.099
  273SOL    HW1  125   1.051   1.714   2.149
  273SOL    HW2  126   1.142   1.732   2.014
  275SOL     OW  127   1.632   1.377   1.943
  275SOL    HW1  128   1.600   1.471   1.933
  275SOL    HW2  129   1.556   1.314   1.931
  279SOL     OW  130   0.940   1.698   2.766
  279SOL    HW1  131   1.020   1.641   2.787
  279SOL    HW2  132   0.891   1.658   2.689
  289SOL     OW  133   1.434   1.188   1.903
  289SOL    HW1  134   1.466   1.112   1.960
  289SOL    HW2  135   1.342   1.215   1.933
  293SOL     OW  136   1.227   1.570   2.655
  293SOL    HW1  137   1.248   1.644   2.590
  293SOL    HW2  138   1.295   1.570   2.728
  295SOL     OW  139   1.271   1.797   2.453
  295SOL    HW1  140   1.315   1.861   2.389
  295SOL    HW2  141   1.221   1.849   2.523
  301SOL     OW  142   1.429   1.173   2.729
  301SOL    HW1  143   1.374   1.089   2.722
  301SOL    HW2  144   1.455   1.202   2.637
  303SOL     OW  145   1.857   0.833   2.239
  303SOL    HW1  146   1.899   0.769   2.303
  303SOL    HW2  147   1.819   0.782   2.161
  305SOL     OW  148   1.664   1.280   2.519
  305SOL    HW1  149   1.763   1.288   2.533
  305SOL    HW2  150   1.619   1.364   2.550
  308SOL     OW  151   1.754   1.223   3.450
  308SOL    HW1  152   1.845   1.184   3.437
  308SOL    HW2  153   1.762   1.319   3.474
  310SOL     OW  154   1.592   1.629   3.487
  310SOL    HW1  155   1.619   1.663   3.397
  310SOL    HW2  156   1.671   1.591   3.533
  311SOL     OW  157   1.111   1.195   2.962
  311SOL    HW1  158   1.071   1.239   3.043
  311SOL    HW2  159   1.070   1.232   2.879
  312SOL     OW  160   1.638   1.099   2.941
  312SOL    HW1  161   1.643   1.180   3.000
  312SOL    HW2  162   1.552   1.101   2.890
  321SOL     OW  163   1.252   1.348   2.250
  321SOL    HW1  164   1.302   1.425   2.290
  321SOL    HW2  165   1.157   1.350   2.282
  322SOL     OW  166   1.272   1.445   3.004
  322SOL    HW1  167   1.319   1.458   3.091
  322SOL    HW2  168   1.206   1.371   3.013
  340SOL     OW  169   1.859   1.518   3.467
  340SOL    HW1  170   1.873   1.545   3.372
  340SOL    HW2  171   1.942   1.540   3.520
  344SOL     OW  172   1.068   1.333   2.711
  344SOL    HW1  173   1.075   1.249   2.656
  344SOL    HW2  174   1.130   1.402   2.675
  363SOL     OW  175   1.347   1.059   3.096
  363SOL    HW1  176   1.371   0.996   3.022
  363SOL    HW2  177   1.257   1.099   3.078
  365SOL     OW  178   1.759   1.747   3.016
  365SOL    HW1  179   1.820   1.777   2.943
  365SOL    HW2  180   1.721   1.658   2.994
  366SOL     OW  181   1.252   1.731   2.990
  366SOL    HW1  182   1.336   1.736   2.936
  366SOL    HW2  183   1.229   1.635   3.008
  370SOL     OW  184   1.388   1.573   2.339
  370SOL    HW1  185   1.455   1.585   2.265
  370SOL    HW2  186   1.348   1.662   2.362
  372SOL     OW  187   1.280   0.927   2.534
  372SOL    HW1  188   1.340   0.846   2.536
  372SOL    HW2  189   1.320   0.996   2.474
  375SOL     OW  190   1.650   1.720   3.256
  375SOL    HW1  191   1.703   1.730   3.172
  375SOL    HW2  192   1.623   1.810   3.290
  378SOL     OW  193   1.194   1.612   1.893
  378SOL    HW1  194   1.200   1.519   1.930
  378SOL    HW2  195   1.135   1.612   1.813
  381SOL     OW  196   1.504   1.607   1.906
  381SOL    HW1  197   1.412   1.644   1.913
  381SOL    HW2  198   1.542   1.627   1.816
  383SOL     OW  199   1.614   1.292   3.151
  383SOL    HW1  200   1.674   1.295   3.231
  383SOL    HW2  201   1.539   1.356   3.164
  394SOL     OW  202   1.183   1.335   1.981
  394SOL    HW1  203   1.084   1.324   1.983
  394SOL    HW2  204   1.217   1.350   2.074
  396SOL     OW  205   1.493   1.767   2.821
  396SOL    HW1  206   1.526   1.831   2.752
  396SOL    HW2  207   1.559   1.761   2.896
  400SOL     OW  208   1.674   0.883   3.116
  400SOL    HW1  209   1.647   0.794   3.079
  400SOL    HW2  210   1.675   0.951   3.043
  409SOL     OW  211   1.861   1.569   2.713
  409SOL    HW1  212   1.790   1.557   2.643
  409SOL    HW2  213   1.862   1.490   2.773
  415SOL     OW  214   1.705   1.487   2.966
  415SOL    HW1  215   1.612   1.462   2.939
  415SOL    HW2  216   1.731   1.437   3.048
  417SOL     OW  217   0.812   1.586   2.549
  417SOL    HW1  218   0.844   1.596   2.455
  417SOL    HW2  219   0.733   1.524   2.551
  426SOL     OW  220   0.875   1.646   2.199
  426SOL    HW1  221   0.798   1.611   2.145
  426SOL    HW2  222   0.843   1.717   2.261
  539SOL     OW  223   0.850   2.660   1.823
  539SOL    HW1  224   0.846   2.736   1.888
  539SOL    HW2  225   0.872   2.696   1.732
  543SOL     OW  226   1.460   3.367   1.339
  543SOL    HW1  227   1.484   3.461   1.365
  543SOL    HW2  228   1.444   3.313   1.421
  545SOL     OW  229   1.603   2.309   0.737
  545SOL    HW1  230   1.529   2.355   0.687
  545SOL    HW2  231   1.654   2.377   0.790
  547SOL     OW  232   1.127   3.203   1.690
  547SOL    HW1  233   1.174   3.203   1.778
  547SOL    HW2  234   1.079   3.116   1.679
  552SOL     OW  235   1.594   1.976   1.480
  552SOL    HW1  236   1.576   2.043   1.408
  552SOL    HW2  237   1.591   2.022   1.569
  560SOL     OW  238   1.293   3.090   1.423
  560SOL    HW1  239   1.330   3.017   1.365
  560SOL    HW2  240   1.345   3.095   1.508
  569SOL     OW  241   1.281   2.207   0.944
  569SOL    HW1  242   1.195   2.157   0.931
  569SOL    HW2  243   1.343   2.153   1.000
  571SOL     OW  244   0.807   2.467   1.465
  571SOL    HW1  245   0.760   2.464   1.554
  571SOL    HW2  246   0.756   2.412   1.399
  572SOL     OW  247   1.394   2.331   1.674
  572SOL    HW1  248   1.374   2.374   1.762
  572SOL    HW2  249   1.472   2.269   1.683
  573SOL     OW  250   0.973   2.752   1.572
  573SOL    HW1  251   1.019   2.668   1.543
  573SOL    HW2  252   0.917   2.786   1.497
  574SOL     OW  253   0.991   2.272   1.242
  574SOL    HW1  254   0.914   2.306   1.296
  574SOL    HW2  255   0.957   2.221   1.163
  579SOL     OW  256   1.719   2.447   1.831
  579SOL    HW1  257   1.693   2.536   1.795
  579SOL    HW2  258   1.717   2.379   1.758
  584SOL     OW  259   1.795   2.928   0.873
  584SOL    HW1  260   1.733   2.913   0.797
  584SOL    HW2  261   1.743   2.939   0.958
  585SOL     OW  262   1.227   3.412   1.506
  585SOL    HW1  263   1.233   3.335   1.570
  585SOL    HW2  264   1.175   3.386   1.426
  597SOL     OW  265   1.547   2.084   1.729
  597SOL    HW1  266   1.542   2.121   1.821
  597SOL    HW2  267   1.475   2.015   1.717
  598SOL     OW  268   0.781   2.126   1.749
  598SOL    HW1  269   0.848   2.065   1.792
  598SOL    HW2  270   0.708   2.145   1.814
  600SOL     OW  271   1.351   2.452   1.433
  600SOL    HW1  272   1.379   2.409   1.518
  600SOL    HW2  273   1.376   2.548   1.434
  607SOL     OW  274   1.076   2.545   1.464
  607SOL    HW1  275   0.996   2.484   1.467
  607SOL    HW2  276   1.157   2.492   1.440
  617SOL     OW  277   1.466   2.452   0.992
  617SOL    HW1  278   1.436   2.357   0.999
  617SOL    HW2  279   1.539   2.468   1.058
  623SOL     OW  280   1.754   3.085   1.588
  623SOL    HW1  281   1.845   3.046   1.575
  623SOL    HW2  282   1.762   3.181   1.612
  625SOL     OW  283   1.592   3.491   1.625
  625SOL    HW1  284   1.619   3.525   1.535
  625SOL    HW2  285   1.671   3.453   1.671
  627SOL     OW  286   1.638   2.961   1.079
  627SOL    HW1  287   1.643   3.042   1.138
  627SOL    HW2  288   1.552   2.963   1.028
  628SOL     OW  289   0.915   1.951   1.402
  628SOL    HW1  290   0.940   1.931   1.307
  628SOL    HW2  291   0.987   2.007   1.444
  629SOL     OW  292   0.980   2.978   1.719
  629SOL    HW1  293   0.881   2.984   1.729
  629SOL    HW2  294   1.003   2.898   1.663
  632SOL     OW  295   1.274   2.248   1.262
  632SOL    HW1  296   1.295   2.322   1.326
  632SOL    HW2  297   1.185   2.265   1.219
  641SOL     OW  298   1.587   2.641   1.670
  641SOL    HW1  299   1.495   2.679   1.665
  641SOL    HW2  300   1.647   2.688   1.605
  642SOL     OW  301   1.013   1.967   1.770
  642SOL    HW1  302   1.019   2.052   1.718
  642SOL    HW2  303   1.045   1.891   1.713
  645SOL     OW  304   1.360   2.724   1.045
  645SOL    HW1  305   1.285   2.724   0.979
  645SOL    HW2  306   1.397   2.632   1.054
  650SOL     OW  307   1.728   2.797   1.854
  650SOL    HW1  308   1.682   2.790   1.765
  650SOL    HW2  309   1.666   2.841   1.920
  655SOL     OW  310   1.859   3.380   1.605
  655SOL    HW1  311   1.873   3.407   1.510
  655SOL    HW2  312   1.942   3.402   1.658
  662SOL     OW  313   1.138   2.242   1.678
  662SOL    HW1  314   1.093   2.305   1.742
  662SOL    HW2  315   1.231   2.273   1.661
  663SOL     OW  316   1.160   2.069   1.477
  663SOL    HW1  317   1.160   2.133   1.554
  663SOL    HW2  318   1.188   2.117   1.394
  667SOL     OW  319   1.002   2.658   1.238
  667SOL    HW1  320   1.043   2.626   1.324
  667SOL    HW2  321   0.906   2.631   1.235
  670SOL     OW  322   1.369   2.812   1.660
  670SOL    HW1  323   1.408   2.901   1.680
  670SOL    HW2  324   1.379   2.792   1.563
  672SOL     OW  325   1.657   2.466   1.206
  672SOL    HW1  326   1.619   2.397   1.268
  672SOL    HW2  327   1.739   2.430   1.162
  678SOL     OW  328   1.347   2.921   1.234
  678SOL    HW1  329   1.371   2.858   1.160
  678SOL    HW2  330   1.257   2.961   1.216
  691SOL     OW  331   1.650   3.582   1.394
  691SOL    HW1  332   1.703   3.592   1.310
  691SOL    HW2  333   1.623   3.672   1.428
  692SOL     OW  334   1.841   2.037   0.963
  692SOL    HW1  335   1.880   1.952   0.927
  692SOL    HW2  336   1.743   2.039   0.944
  699SOL     OW  337   1.614   3.154   1.289
  699SOL    HW1  338   1.674   3.157   1.369
  699SOL    HW2  339   1.539   3.218   1.302
  703SOL     OW  340   1.709   2.247   1.381
  703SOL    HW1  341   1.782   2.316   1.385
  703SOL    HW2  342   1.737   2.172   1.322
  708SOL     OW  343   1.440   2.718   1.398
  708SOL    HW1  344   1.383   2.770   1.335
  708SOL    HW2  345   1.536   2.730   1.374
  713SOL     OW  346   0.716   2.427   1.708
  713SOL    HW1  347   0.735   2.492   1.782
  713SOL    HW2  348   0.776   2.347   1.717
  714SOL     OW  349   1.450   3.082   1.633
  714SOL    HW1  350   1.441   3.072   1.732
  714SOL    HW2  351   1.546   3.075   1.607
  716SOL     OW  352   1.674   2.745   1.254
  716SOL    HW1  353   1.647   2.656   1.217
  716SOL    HW2  354   1.675   2.813   1.181
  719SOL     OW  355   1.777   2.204   1.642
  719SOL    HW1  356   1.760   2.235   1.548
  719SOL    HW2  357   1.693   2.167   1.680
  720SOL     OW  358   1.730   2.796   1.517
  720SOL    HW1  359   1.768   2.887   1.532
  720SOL    HW2  360   1.722   2.779   1.418
  729SOL     OW  361   1.824   2.054   1.227
  729SOL    HW1  362   1.820   1.964   1.271
  729SOL    HW2  363   1.827   2.043   1.128
  731SOL     OW  364   1.705   3.349   1.104
  731SOL    HW1  365   1.612   3.324   1.077
  731SOL    HW2  366   1.731   3.299   1.186
  734SOL     OW  367   1.424   2.076   1.112
  734SOL    HW1  368   1.476   2.011   1.167
  734SOL    HW2  369   1.375   2.139   1.173
  740SOL     OW  370   1.593   2.083   0.882
  740SOL    HW1  371   1.509   2.082   0.936
  740SOL    HW2  372   1.595   2.166   0.826
  747SOL     OW  373   1.555   3.373   2.565
  747SOL    HW1  374   1.498   3.357   2.646
  747SOL    HW2  375   1.496   3.383   2.485
  748SOL     OW  376   1.135   2.565   2.579
  748SOL    HW1  377   1.192   2.643   2.554
  748SOL    HW2  378   1.075   2.591   2.655
  749SOL     OW  379   1.755   2.469   2.093
  749SOL    HW1  380   1.743   2.456   1.994
  749SOL    HW2  381   1.725   2.388   2.142
  750SOL     OW  382   0.768   3.006   2.885
  750SOL    HW1  383   0.690   3.023   2.945
  750SOL    HW2  384   0.802   3.093   2.849
  752SOL     OW  385   0.685   2.874   2.527
  752SOL    HW1  386   0.754   2.858   2.597
  752SOL    HW2  387   0.612   2.931   2.565
  755SOL     OW  388   1.460   3.367   3.201
  755SOL    HW1  389   1.484   3.461   3.227
  755SOL    HW2  390   1.444   3.313   3.283
  757SOL     OW  391   1.603   2.309   2.599
  757SOL    HW1  392   1.529   2.355   2.549
  757SOL    HW2  393   1.654   2.377   2.652
  764SOL     OW  394   1.594   1.976   3.342
  764SOL    HW1  395   1.576   2.043   3.270
  764SOL    HW2  396   1.591   2.022   3.431
  766SOL     OW  397   1.842   3.629   2.221
  766SOL    HW1  398   1.896   3.600   2.301
  766SOL    HW2  399   1.872   3.719   2.192
  768SOL     OW  400   1.689   2.784   2.474
  768SOL    HW1  401   1.784   2.755   2.482
  768SOL    HW2  402   1.681   2.849   2.399
  769SOL     OW  403   1.641   2.970   2.294
  769SOL    HW1  404   1.727   2.972   2.242
  769SOL    HW2  405   1.655   3.017   2.382
  772SOL     OW  406   1.293   3.090   3.285
  772SOL    HW1  407   1.330   3.017   3.227
  772SOL    HW2  408   1.345   3.095   3.370
  773SOL     OW  409   0.809   1.866   2.364
  773SOL    HW1  410   0.849   1.957   2.355
  773SOL    HW2  411   0.709   1.874   2.370
  775SOL     OW  412   1.525   2.861   2.052
  775SOL    HW1  413   1.462   2.785   2.065
  775SOL    HW2  414   1.573   2.879   2.138
  778SOL     OW  415   1.466   3.279   2.815
  778SOL    HW1  416   1.407   3.285   2.895
  778SOL    HW2  417   1.451   3.191   2.769
  779SOL     OW  418   1.667   3.576   2.434
  779SOL    HW1  419   1.626   3.553   2.346
  779SOL    HW2  420   1.649   3.502   2.499
  780SOL     OW  421   0.598   2.591   2.132
  780SOL    HW1  422   0.622   2.660   2.064
  780SOL    HW2  423   0.520   2.624   2.186
  781SOL     OW  424   1.281   2.207   2.806
  781SOL    HW1  425   1.195   2.157   2.793
  781SOL    HW2  426   1.343   2.153   2.862
  782SOL     OW  427   1.576   3.524   2.169
  782SOL    HW1  428   1.665   3.570   2.172
  782SOL    HW2  429   1.555   3.500   2.074
  784SOL     OW  430   1.394   2.331   3.536
  784SOL    HW1  431   1.374   2.374   3.624
  784SOL    HW2  432   1.472   2.269   3.545
  785SOL     OW  433   0.973   2.752   3.434
  785SOL    HW1  434   1.019   2.668   3.405
  785SOL    HW2  435   0.917   2.786   3.359
  786SOL     OW  436   0.991   2.272   3.104
  786SOL    HW1  437   0.914   2.306   3.158
  786SOL    HW2  438   0.957   2.221   3.025
  787SOL     OW  439   1.041   2.563   2.291
  787SOL    HW1  440   1.067   2.559   2.387
  787SOL    HW2  441   0.956   2.512   2.277
  790SOL     OW  442   0.865   2.210   2.057
  790SOL    HW1  443   0.924   2.273   2.008
  790SOL    HW2  444   0.884   2.116   2.028
  791SOL     OW  445   1.719   2.447   3.693
  791SOL    HW1  446   1.693   2.536   3.657
  791SOL    HW2  447   1.717   2.379   3.620
  792SOL     OW  448   1.362   3.006   2.407
  792SOL    HW1  449   1.445   2.977   2.359
  792SOL    HW2  450   1.313   3.073   2.351
  794SOL     OW  451   1.008   3.318   2.339
  794SOL    HW1  452   0.962   3.390   2.287
  794SOL    HW2  453   1.004   3.338   2.437
  796SOL     OW  454   1.795   2.928   2.735
  796SOL    HW1  455   1.733   2.913   2.659
  796SOL    HW2  456   1.743   2.939   2.820
  799SOL     OW  457   1.458   2.597   2.590
  799SOL    HW1  458   1.453   2.532   2.665
  799SOL    HW2  459   1.538   2.656   2.603
  803SOL     OW  460   1.632   3.239   1.943
  803SOL    HW1  461   1.600   3.333   1.933
  803SOL    HW2  462   1.556   3.176   1.931
  805SOL     OW  463   1.400   1.969   2.288
  805SOL    HW1  464   1.376   1.932   2.198
  805SOL    HW2  465   1.499   1.985   2.292
  809SOL     OW  466   1.547   2.084   3.591
  809SOL    HW1  467   1.542   2.121   3.683
  809SOL    HW2  468   1.475   2.015   3.579
  813SOL     OW  469   1.351   2.452   3.295
  813SOL    HW1  470   1.379   2.409   3.380
  813SOL    HW2  471   1.376   2.548   3.296
  815SOL     OW  472   0.922   2.365   2.761
  815SOL    HW1  473   0.897   2.356   2.665
  815SOL    HW2  474   0.970   2.283   2.792
  817SOL     OW  475   1.434   3.050   1.903
  817SOL    HW1  476   1.466   2.974   1.960
  817SOL    HW2  477   1.342   3.077   1.933
  819SOL     OW  478   0.935   2.098   2.342
  819SOL    HW1  479   0.887   2.139   2.264
  819SOL    HW2  480   1.034   2.096   2.323
  820SOL     OW  481   1.076   2.545   3.326
  820SOL    HW1  482   0.996   2.484   3.329
  820SOL    HW2  483   1.157   2.492   3.302
  821SOL     OW  484   1.227   3.432   2.655
  821SOL    HW1  485   1.248   3.506   2.590
  821SOL    HW2  486   1.295   3.432   2.728
  823SOL     OW  487   1.271   3.659   2.453
  823SOL    HW1  488   1.315   3.723   2.389
  823SOL    HW2  489   1.221   3.711   2.523
  824SOL     OW  490   1.032   2.411   1.878
  824SOL    HW1  491   0.991   2.493   1.839
  824SOL    HW2  492   1.096   2.437   1.951
  827SOL     OW  493   0.866   2.316   2.504
  827SOL    HW1  494   0.834   2.388   2.442
  827SOL    HW2  495   0.890   2.235   2.451
  828SOL     OW  496   1.017   1.901   2.615
  828SOL    HW1  497   0.945   1.906   2.546
  828SOL    HW2  498   0.993   1.832   2.684
  829SOL     OW  499   1.429   3.035   2.729
  829SOL    HW1  500   1.374   2.951   2.722
  829SOL    HW2  501   1.455   3.064   2.637
  830SOL     OW  502   1.466   2.452   2.854
  830SOL    HW1  503   1.436   2.357   2.861
  830SOL    HW2  504   1.539   2.468   2.920
  831SOL     OW  505   1.857   2.695   2.239
  831SOL    HW1  506   1.899   2.631   2.303
  831SOL    HW2  507   1.819   2.644   2.161
  833SOL     OW  508   1.664   3.142   2.519
  833SOL    HW1  509   1.763   3.150   2.533
  833SOL    HW2  510   1.619   3.226   2.550
  834SOL     OW  511   1.390   2.437   1.940
  834SOL    HW1  512   1.336   2.416   2.021
  834SOL    HW2  513   1.481   2.396   1.949
  836SOL     OW  514   1.754   3.085   3.450
  836SOL    HW1  515   1.845   3.046   3.437
  836SOL    HW2  516   1.762   3.181   3.474
  837SOL     OW  517   1.064   3.209   3.202
  837SOL    HW1  518   0.984   3.186   3.257
  837SOL    HW2  519   1.147   3.183   3.251
  838SOL     OW  520   1.592   3.491   3.487
  838SOL    HW1  521   1.619   3.525   3.397
  838SOL    HW2  522   1.671   3.453   3.533
  839SOL     OW  523   1.111   3.057   2.962
  839SOL    HW1  524   1.071   3.101   3.043
  839SOL    HW2  525   1.070   3.094   2.879
  840SOL     OW  526   1.638   2.961   2.941
  840SOL    HW1  527   1.643   3.042   3.000
  840SOL    HW2  528   1.552   2.963   2.890
  841SOL     OW  529   0.915   1.951   3.264
  841SOL    HW1  530   0.940   1.931   3.169
  841SOL    HW2  531   0.987   2.007   3.306
  843SOL     OW  532   0.705   2.912   2.230
  843SOL    HW1  533   0.691   2.919   2.329
  843SOL    HW2  534   0.789   2.861   2.212
  845SOL     OW  535   1.274   2.248   3.124
  845SOL    HW1  536   1.295   2.322   3.188
  845SOL    HW2  537   1.185   2.265   3.081
  849SOL     OW  538   1.252   3.210   2.250
  849SOL    HW1  539   1.302   3.287   2.290
  849SOL    HW2  540   1.157   3.212   2.282
  850SOL     OW  541   1.272   3.307   3.004
  850SOL    HW1  542   1.319   3.320   3.091
  850SOL    HW2  543   1.206   3.233   3.013
  851SOL     OW  544   1.582   2.501   2.334
  851SOL    HW1  545   1.551   2.562   2.407
  851SOL    HW2  546   1.632   2.553   2.265
  854SOL     OW  547   1.587   2.641   3.532
  854SOL    HW1  548   1.495   2.679   3.527
  854SOL    HW2  549   1.647   2.688   3.467
  858SOL     OW  550   1.360   2.724   2.907
  858SOL    HW1  551   1.285   2.724   2.841
  858SOL    HW2  552   1.397   2.632   2.916
  859SOL     OW  553   1.209   2.387   2.137
  859SOL    HW1  554   1.222   2.303   2.191
  859SOL    HW2  555   1.180   2.461   2.197
  862SOL     OW  556   0.732   2.496   2.926
  862SOL    HW1  557   0.791   2.470   2.850
  862SOL    HW2  558   0.704   2.592   2.915
  863SOL     OW  559   1.728   2.797   3.716
  863SOL    HW1  560   1.682   2.790   3.627
  863SOL    HW2  561   1.666   2.841   3.782
  865SOL     OW  562   1.622   2.229   2.236
  865SOL    HW1  563   1.624   2.153   2.300
  865SOL    HW2  564   1.574   2.306   2.276
  866SOL     OW  565   1.023   2.628   2.828
  866SOL    HW1  566   1.038   2.649   2.924
  866SOL    HW2  567   0.993   2.533   2.819
  868SOL     OW  568   1.859   3.380   3.467
  868SOL    HW1  569   1.873   3.407   3.372
  868SOL    HW2  570   1.942   3.402   3.520
  870SOL     OW  571   1.540   2.136   1.987
  870SOL    HW1  572   1.479   2.061   2.010
  870SOL    HW2  573   1.562   2.188   2.070
  871SOL     OW  574   1.303   2.700   1.904
  871SOL    HW1  575   1.337   2.607   1.919
  871SOL    HW2  576   1.321   2.727   1.809
  872SOL     OW  577   1.068   3.195   2.711
  872SOL    HW1  578   1.075   3.111   2.656
  872SOL    HW2  579   1.130   3.264   2.675
  875SOL     OW  580   1.138   2.242   3.540
  875SOL    HW1  581   1.093   2.305   3.604
  875SOL    HW2  582   1.231   2.273   3.523
  876SOL     OW  583   1.160   2.069   3.339
  876SOL    HW1  584   1.160   2.133   3.416
  876SOL    HW2  585   1.188   2.117   3.256
  880SOL     OW  586   1.002   2.658   3.100
  880SOL    HW1  587   1.043   2.626   3.186
  880SOL    HW2  588   0.906   2.631   3.097
  883SOL     OW  589   1.369   2.812   3.522
  883SOL    HW1  590   1.408   2.901   3.542
  883SOL    HW2  591   1.379   2.792   3.425
  884SOL     OW  592   0.815   2.434   2.187
  884SOL    HW1  593   0.822   2.345   2.141
  884SOL    HW2  594   0.721   2.468   2.179
  885SOL     OW  595   1.657   2.466   3.068
  885SOL    HW1  596   1.619   2.397   3.130
  885SOL    HW2  597   1.739   2.430   3.024
  891SOL     OW  598   1.347   2.921   3.096
  891SOL    HW1  599   1.371   2.858   3.022
  891SOL    HW2  600   1.257   2.961   3.078
  892SOL     OW  601   1.302   2.717   2.171
  892SOL    HW1  602   1.216   2.686   2.213
  892SOL    HW2  603   1.298   2.703   2.072
  893SOL     OW  604   1.759   3.609   3.016
  893SOL    HW1  605   1.820   3.639   2.943
  893SOL    HW2  606   1.721   3.520   2.994
  894SOL     OW  607   1.252   3.593   2.990
  894SOL    HW1  608   1.336   3.598   2.936
  894SOL    HW2  609   1.229   3.497   3.008
  897SOL     OW  610   1.726   1.997   2.385
  897SOL    HW1  611   1.799   1.980   2.318
  897SOL    HW2  612   1.695   1.910   2.423
  898SOL     OW  613   1.388   3.435   2.339
  898SOL    HW1  614   1.455   3.447   2.265
  898SOL    HW2  615   1.348   3.524   2.362
  900SOL     OW  616   1.280   2.789   2.534
  900SOL    HW1  617   1.340   2.708   2.536
  900SOL    HW2  618   1.320   2.858   2.474
  903SOL     OW  619   1.650   3.582   3.256
  903SOL    HW1  620   1.703   3.592   3.172
  903SOL    HW2  621   1.623   3.672   3.290
  904SOL     OW  622   1.841   2.037   2.825
  904SOL    HW1  623   1.880   1.952   2.789
  904SOL    HW2  624   1.743   2.039   2.806
  906SOL     OW  625   1.194   3.474   1.893
  906SOL    HW1  626   1.200   3.381   1.930
  906SOL    HW2  627   1.135   3.474   1.813
  908SOL     OW  628   0.916   2.772   2.153
  908SOL    HW1  629   0.979   2.810   2.085
  908SOL    HW2  630   0.956   2.689   2.192
  909SOL     OW  631   1.504   3.469   1.906
  909SOL    HW1  632   1.412   3.506   1.913
  909SOL    HW2  633   1.542   3.489   1.816
  911SOL     OW  634   1.614   3.154   3.151
  911SOL    HW1  635   1.674   3.157   3.231
  911SOL    HW2  636   1.539   3.218   3.164
  912SOL     OW  637   1.039   2.960   2.558
  912SOL    HW1  638   0.969   2.913   2.612
  912SOL    HW2  639   1.098   2.892   2.515
  913SOL     OW  640   1.014   2.098   2.833
  913SOL    HW1  641   1.006   2.062   2.740
  913SOL    HW2  642   1.012   2.022   2.898
  915SOL     OW  643   1.709   2.247   3.243
  915SOL    HW1  644   1.782   2.316   3.247
  915SOL    HW2  645   1.737   2.172   3.184
  920SOL     OW  646   1.440   2.718   3.260
  920SOL    HW1  647   1.383   2.770   3.197
  920SOL    HW2  648   1.536   2.730   3.236
  922SOL     OW  649   1.183   3.197   1.981
  922SOL    HW1  650   1.084   3.186   1.983
  922SOL    HW2  651   1.217   3.212   2.074
  924SOL     OW  652   1.493   3.629   2.821
  924SOL    HW1  653   1.526   3.693   2.752
  924SOL    HW2  654   1.559   3.623   2.896
  926SOL     OW  655   1.450   3.082   3.495
  926SOL    HW1  656   1.441   3.072   3.594
  926SOL    HW2  657   1.546   3.075   3.469
  928SOL     OW  658   1.674   2.745   3.116
  928SOL    HW1  659   1.647   2.656   3.079
  928SOL    HW2  660   1.675   2.813   3.043
  929SOL     OW  661   1.225   2.187   2.311
  929SOL    HW1  662   1.290   2.113   2.300
  929SOL    HW2  663   1.245   2.237   2.395
  930SOL     OW  664   0.594   2.607   2.514
  930SOL    HW1  665   0.644   2.692   2.495
  930SOL    HW2  666   0.506   2.609   2.466
  931SOL     OW  667   1.777   2.204   3.504
  931SOL    HW1  668   1.760   2.235   3.410
  931SOL    HW2  669   1.693   2.167   3.542
  932SOL     OW  670   1.730   2.796   3.379
  932SOL    HW1  671   1.768   2.887   3.394
  932SOL    HW2  672   1.722   2.779   3.280
  933SOL     OW  673   0.859   3.236   1.878
  933SOL    HW1  674   0.813   3.251   1.966
  933SOL    HW2  675   0.903   3.321   1.848
  935SOL     OW  676   0.859   2.818   2.723
  935SOL    HW1  677   0.913   2.749   2.771
  935SOL    HW2  678   0.827   2.887   2.789
  936SOL     OW  679   1.083   2.846   1.949
  936SOL    HW1  680   1.060   2.899   1.867
  936SOL    HW2  681   1.164   2.790   1.930
  937SOL     OW  682   1.861   3.431   2.713
  937SOL    HW1  683   1.790   3.419   2.643
  937SOL    HW2  684   1.862   3.352   2.773
  941SOL     OW  685   1.824   2.054   3.089
  941SOL    HW1  686   1.820   1.964   3.133
  941SOL    HW2  687   1.827   2.043   2.990
  943SOL     OW  688   1.705   3.349   2.966
  943SOL    HW1  689   1.612   3.324   2.939
  943SOL    HW2  690   1.731   3.299   3.048
  946SOL     OW  691   1.424   2.076   2.974
  946SOL    HW1  692   1.476   2.011   3.029
  946SOL    HW2  693   1.375   2.139   3.035
  947SOL     OW  694   1.001   1.896   3.016
  947SOL    HW1  695   0.938   1.824   2.985
  947SOL    HW2  696   1.094   1.860   3.016
  948SOL     OW  697   0.770   3.192   2.163
  948SOL    HW1  698   0.724   3.105   2.180
  948SOL    HW2  699   0.861   3.189   2.204
  950SOL     OW  700   1.352   1.914   2.030
  950SOL    HW1  701   1.387   1.873   1.946
  950SOL    HW2  702   1.262   1.876   2.050
  951SOL     OW  703   1.300   2.315   2.553
  951SOL    HW1  704   1.241   2.395   2.557
  951SOL    HW2  705   1.315   2.280   2.646
  952SOL     OW  706   1.593   2.083   2.744
  952SOL    HW1  707   1.509   2.082   2.798
  952SOL    HW2  708   1.595   2.166   2.688
  959SOL     OW  709   1.755   2.469   3.955
  959SOL    HW1  710   1.743   2.456   3.856
  959SOL    HW2  711   1.725   2.388   4.004
 1008SOL     OW  712   1.390   2.437   3.802
 1008SOL    HW1  713   1.336   2.416   3.883
 1008SOL    HW2  714   1.481   2.396   3.811
 1019SOL     OW  715   1.540   2.136   3.849
 1019SOL    HW1  716   1.479   2.061   3.872
 1019SOL    HW2  717   1.562   2.188   3.932
 1020SOL     OW  718   1.303   2.700   3.766
 1020SOL    HW1  719   1.337   2.607   3.781
 1020SOL    HW2  720   1.321   2.727   3.671
 1191SOL     OW  721   1.400   3.831   2.288
 1191SOL    HW1  722   1.376   3.794   2.198
 1191SOL    HW2  723   1.499   3.847   2.292
 1243SOL     OW  724   1.726   3.859   2.385
 1243SOL    HW1  725   1.799   3.842   2.318
 1243SOL    HW2  726   1.695   3.772   2.423
 1245SOL     OW  727   1.841   3.899   2.825
 1245SOL    HW1  728   1.880   3.814   2.789
 1245SOL    HW2  729   1.743   3.901   2.806
 1267SOL     OW  730   1.352   3.776   2.030
 1267SOL    HW1  731   1.387   3.735   1.946
 1267SOL    HW2  732   1.262   3.738   2.050
 1327SOL     OW  733   2.431   1.275   1.165
 1327SOL    HW1  734   2.338   1.268   1.128
 1327SOL    HW2  735   2.442   1.364   1.209
 1332SOL     OW  736   2.712   0.798   1.823
 1332SOL    HW1  737   2.708   0.874   1.888
 1332SOL    HW2  738   2.734   0.834   1.732
 1334SOL     OW  739   2.548   1.161   1.803
 1334SOL    HW1  740   2.608   1.240   1.817
 1334SOL    HW2  741   2.462   1.192   1.762
 1335SOL     OW  742   2.197   1.435   1.061
 1335SOL    HW1  743   2.119   1.404   1.008
 1335SOL    HW2  744   2.255   1.493   1.004
 1336SOL     OW  745   3.322   1.505   1.339
 1336SOL    HW1  746   3.346   1.599   1.365
 1336SOL    HW2  747   3.306   1.451   1.421
 1340SOL     OW  748   2.989   1.341   1.690
 1340SOL    HW1  749   3.036   1.341   1.778
 1340SOL    HW2  750   2.941   1.254   1.679
 1343SOL     OW  751   2.482   1.786   1.439
 1343SOL    HW1  752   2.390   1.769   1.474
 1343SOL    HW2  753   2.510   1.878   1.465
 1353SOL     OW  754   3.155   1.228   1.423
 1353SOL    HW1  755   3.192   1.155   1.365
 1353SOL    HW2  756   3.207   1.233   1.508
 1355SOL     OW  757   2.059   0.976   1.264
 1355SOL    HW1  758   2.148   0.931   1.250
 1355SOL    HW2  759   1.986   0.911   1.245
 1357SOL     OW  760   3.049   1.792   1.616
 1357SOL    HW1  761   3.073   1.852   1.540
 1357SOL    HW2  762   3.056   1.697   1.586
 1366SOL     OW  763   2.835   0.890   1.572
 1366SOL    HW1  764   2.881   0.806   1.543
 1366SOL    HW2  765   2.779   0.924   1.497
 1370SOL     OW  766   1.992   1.821   1.571
 1370SOL    HW1  767   1.982   1.806   1.670
 1370SOL    HW2  768   1.906   1.857   1.535
 1376SOL     OW  769   2.213   1.801   0.853
 1376SOL    HW1  770   2.263   1.715   0.859
 1376SOL    HW2  771   2.278   1.878   0.850
 1378SOL     OW  772   3.089   1.550   1.506
 1378SOL    HW1  773   3.095   1.473   1.570
 1378SOL    HW2  774   3.037   1.524   1.426
 1381SOL     OW  775   2.323   1.266   1.727
 1381SOL    HW1  776   2.273   1.267   1.641
 1381SOL    HW2  777   2.260   1.248   1.803
 1387SOL     OW  778   2.111   1.785   1.241
 1387SOL    HW1  779   2.168   1.720   1.291
 1387SOL    HW2  780   2.095   1.752   1.148
 1388SOL     OW  781   2.802   1.698   0.904
 1388SOL    HW1  782   2.882   1.641   0.925
 1388SOL    HW2  783   2.753   1.658   0.827
 1393SOL     OW  784   2.750   1.514   1.195
 1393SOL    HW1  785   2.727   1.489   1.101
 1393SOL    HW2  786   2.811   1.445   1.234
 1395SOL     OW  787   2.665   1.402   0.924
 1395SOL    HW1  788   2.755   1.416   0.882
 1395SOL    HW2  789   2.594   1.404   0.853
 1418SOL     OW  790   2.926   1.347   1.340
 1418SOL    HW1  791   2.846   1.324   1.395
 1418SOL    HW2  792   3.009   1.321   1.389
 1419SOL     OW  793   3.454   1.629   1.625
 1419SOL    HW1  794   3.481   1.663   1.535
 1419SOL    HW2  795   3.533   1.591   1.671
 1423SOL     OW  796   2.842   1.116   1.719
 1423SOL    HW1  797   2.743   1.122   1.729
 1423SOL    HW2  798   2.865   1.036   1.663
 1427SOL     OW  799   1.926   1.564   1.331
 1427SOL    HW1  800   1.880   1.646   1.297
 1427SOL    HW2  801   2.024   1.583   1.340
 1431SOL     OW  802   3.134   1.445   1.142
 1431SOL    HW1  803   3.181   1.458   1.229
 1431SOL    HW2  804   3.068   1.371   1.151
 1433SOL     OW  805   2.216   1.510   1.329
 1433SOL    HW1  806   2.195   1.466   1.242
 1433SOL    HW2  807   2.313   1.536   1.332
 1434SOL     OW  808   2.264   0.751   1.598
 1434SOL    HW1  809   2.332   0.806   1.551
 1434SOL    HW2  810   2.304   0.663   1.625
 1442SOL     OW  811   1.899   1.310   1.282
 1442SOL    HW1  812   1.952   1.261   1.350
 1442SOL    HW2  813   1.921   1.408   1.287
 1448SOL     OW  814   2.842   1.573   1.700
 1448SOL    HW1  815   2.822   1.617   1.612
 1448SOL    HW2  816   2.881   1.482   1.684
 1449SOL     OW  817   3.721   1.518   1.605
 1449SOL    HW1  818   3.735   1.545   1.510
 1449SOL    HW2  819   3.804   1.540   1.658
 1450SOL     OW  820   2.212   0.898   1.804
 1450SOL    HW1  821   2.288   0.942   1.852
 1450SOL    HW2  822   2.247   0.851   1.722
 1459SOL     OW  823   1.950   1.801   0.927
 1459SOL    HW1  824   1.908   1.715   0.900
 1459SOL    HW2  825   2.044   1.804   0.893
 1460SOL     OW  826   2.366   1.568   0.910
 1460SOL    HW1  827   2.432   1.642   0.919
 1460SOL    HW2  828   2.410   1.489   0.868
 1464SOL     OW  829   3.231   0.950   1.660
 1464SOL    HW1  830   3.270   1.039   1.680
 1464SOL    HW2  831   3.241   0.930   1.563
 1467SOL     OW  832   2.114   1.564   1.744
 1467SOL    HW1  833   2.084   1.621   1.820
 1467SOL    HW2  834   2.107   1.467   1.770
 1469SOL     OW  835   2.792   1.678   1.465
 1469SOL    HW1  836   2.768   1.660   1.370
 1469SOL    HW2  837   2.822   1.772   1.475
 1471SOL     OW  838   2.021   1.137   1.466
 1471SOL    HW1  839   2.043   1.076   1.542
 1471SOL    HW2  840   2.031   1.088   1.380
 1475SOL     OW  841   3.114   1.731   1.128
 1475SOL    HW1  842   3.198   1.736   1.074
 1475SOL    HW2  843   3.091   1.635   1.146
 1476SOL     OW  844   1.945   1.258   1.022
 1476SOL    HW1  845   1.940   1.257   1.122
 1476SOL    HW2  846   1.862   1.217   0.984
 1477SOL     OW  847   2.550   1.662   1.716
 1477SOL    HW1  848   2.494   1.743   1.725
 1477SOL    HW2  849   2.602   1.666   1.630
 1481SOL     OW  850   1.992   1.794   1.851
 1481SOL    HW1  851   1.951   1.720   1.904
 1481SOL    HW2  852   2.056   1.845   1.909
 1483SOL     OW  853   2.692   1.273   1.422
 1483SOL    HW1  854   2.687   1.306   1.517
 1483SOL    HW2  855   2.606   1.292   1.376
 1485SOL     OW  856   3.512   1.720   1.394
 1485SOL    HW1  857   3.565   1.730   1.310
 1485SOL    HW2  858   3.485   1.810   1.428
 1489SOL     OW  859   2.684   1.002   1.372
 1489SOL    HW1  860   2.724   1.001   1.280
 1489SOL    HW2  861   2.694   1.094   1.412
 1492SOL     OW  862   2.234   1.288   1.490
 1492SOL    HW1  863   2.221   1.381   1.456
 1492SOL    HW2  864   2.150   1.236   1.477
 1499SOL     OW  865   1.967   1.013   1.726
 1499SOL    HW1  866   1.890   0.980   1.780
 1499SOL    HW2  867   2.052   0.983   1.768
 1503SOL     OW  868   2.475   0.842   1.431
 1503SOL    HW1  869   2.531   0.923   1.414
 1503SOL    HW2  870   2.534   0.762   1.434
 1506SOL     OW  871   3.312   1.220   1.633
 1506SOL    HW1  872   3.303   1.210   1.732
 1506SOL    HW2  873   3.408   1.213   1.607
 1507SOL     OW  874   2.252   1.741   1.560
 1507SOL    HW1  875   2.161   1.782   1.558
 1507SOL    HW2  876   2.245   1.647   1.592
 1514SOL     OW  877   2.523   1.790   0.953
 1514SOL    HW1  878   2.477   1.878   0.940
 1514SOL    HW2  879   2.622   1.802   0.946
 1518SOL     OW  880   2.083   1.314   1.844
 1518SOL    HW1  881   2.018   1.241   1.823
 1518SOL    HW2  882   2.087   1.328   1.942
 1520SOL     OW  883   2.534   1.391   1.624
 1520SOL    HW1  884   2.456   1.341   1.662
 1520SOL    HW2  885   2.531   1.486   1.655
 1529SOL     OW  886   2.480   1.567   1.284
 1529SOL    HW1  887   2.475   1.649   1.341
 1529SOL    HW2  888   2.569   1.564   1.239
 1535SOL     OW  889   2.092   0.628   1.975
 1535SOL    HW1  890   1.999   0.626   2.012
 1535SOL    HW2  891   2.093   0.589   1.883
 1538SOL     OW  892   2.431   1.275   3.027
 1538SOL    HW1  893   2.338   1.268   2.990
 1538SOL    HW2  894   2.442   1.364   3.071
 1539SOL     OW  895   3.417   1.511   2.565
 1539SOL    HW1  896   3.360   1.495   2.646
 1539SOL    HW2  897   3.358   1.521   2.485
 1540SOL     OW  898   2.997   0.703   2.579
 1540SOL    HW1  899   3.054   0.781   2.554
 1540SOL    HW2  900   2.937   0.729   2.655
 1542SOL     OW  901   2.630   1.144   2.885
 1542SOL    HW1  902   2.552   1.161   2.945
 1542SOL    HW2  903   2.664   1.231   2.849
 1544SOL     OW  904   2.547   1.012   2.527
 1544SOL    HW1  905   2.616   0.996   2.597
 1544SOL    HW2  906   2.474   1.069   2.565
 1545SOL     OW  907   2.548   1.161   3.665
 1545SOL    HW1  908   2.608   1.240   3.679
 1545SOL    HW2  909   2.462   1.192   3.624
 1546SOL     OW  910   2.197   1.435   2.923
 1546SOL    HW1  911   2.119   1.404   2.870
 1546SOL    HW2  912   2.255   1.493   2.866
 1547SOL     OW  913   3.322   1.505   3.201
 1547SOL    HW1  914   3.346   1.599   3.227
 1547SOL    HW2  915   3.306   1.451   3.283
 1550SOL     OW  916   2.093   1.713   2.345
 1550SOL    HW1  917   2.127   1.790   2.399
 1550SOL    HW2  918   2.137   1.713   2.255
 1551SOL     OW  919   2.989   1.341   3.552
 1551SOL    HW1  920   3.036   1.341   3.640
 1551SOL    HW2  921   2.941   1.254   3.541
 1552SOL     OW  922   2.092   1.434   2.400
 1552SOL    HW1  923   2.066   1.530   2.400
 1552SOL    HW2  924   2.021   1.380   2.445
 1553SOL     OW  925   2.102   1.091   2.748
 1553SOL    HW1  926   2.116   1.007   2.800
 1553SOL    HW2  927   2.047   1.155   2.803
 1554SOL     OW  928   2.482   1.786   3.301
 1554SOL    HW1  929   2.390   1.769   3.336
 1554SOL    HW2  930   2.510   1.878   3.327
 1555SOL     OW  931   2.468   0.964   1.985
 1555SOL    HW1  932   2.475   1.048   1.931
 1555SOL    HW2  933   2.514   0.977   2.073
 1557SOL     OW  934   1.984   0.643   2.425
 1557SOL    HW1  935   1.939   0.555   2.442
 1557SOL    HW2  936   1.983   0.697   2.509
 1558SOL     OW  937   3.704   1.767   2.221
 1558SOL    HW1  938   3.758   1.738   2.301
 1558SOL    HW2  939   3.734   1.857   2.192
 1559SOL     OW  940   1.889   1.596   1.979
 1559SOL    HW1  941   1.870   1.500   2.000
 1559SOL    HW2  942   1.856   1.654   2.054
 1561SOL     OW  943   3.503   1.108   2.294
 1561SOL    HW1  944   3.589   1.110   2.242
 1561SOL    HW2  945   3.517   1.155   2.382
 1563SOL     OW  946   2.475   1.365   2.588
 1563SOL    HW1  947   2.426   1.278   2.597
 1563SOL    HW2  948   2.452   1.408   2.501
 1564SOL     OW  949   3.155   1.228   3.285
 1564SOL    HW1  950   3.192   1.155   3.227
 1564SOL    HW2  951   3.207   1.233   3.370
 1566SOL     OW  952   2.059   0.976   3.126
 1566SOL    HW1  953   2.148   0.931   3.112
 1566SOL    HW2  954   1.986   0.911   3.107
 1567SOL     OW  955   3.387   0.999   2.052
 1567SOL    HW1  956   3.324   0.923   2.065
 1567SOL    HW2  957   3.435   1.017   2.138
 1568SOL     OW  958   3.049   1.792   3.478
 1568SOL    HW1  959   3.073   1.852   3.402
 1568SOL    HW2  960   3.056   1.697   3.448
 1570SOL     OW  961   3.328   1.417   2.815
 1570SOL    HW1  962   3.269   1.423   2.895
 1570SOL    HW2  963   3.313   1.329   2.769
 1571SOL     OW  964   3.529   1.714   2.434
 1571SOL    HW1  965   3.488   1.691   2.346
 1571SOL    HW2  966   3.511   1.640   2.499
 1572SOL     OW  967   2.460   0.729   2.132
 1572SOL    HW1  968   2.484   0.798   2.064
 1572SOL    HW2  969   2.382   0.762   2.186
 1574SOL     OW  970   3.438   1.662   2.169
 1574SOL    HW1  971   3.527   1.708   2.172
 1574SOL    HW2  972   3.417   1.638   2.074
 1579SOL     OW  973   2.903   0.701   2.291
 1579SOL    HW1  974   2.929   0.697   2.387
 1579SOL    HW2  975   2.818   0.650   2.277
 1580SOL     OW  976   1.938   0.811   2.651
 1580SOL    HW1  977   2.037   0.799   2.660
 1580SOL    HW2  978   1.914   0.906   2.672
 1581SOL     OW  979   1.992   1.821   3.433
 1581SOL    HW1  980   1.982   1.806   3.532
 1581SOL    HW2  981   1.906   1.857   3.397
 1584SOL     OW  982   3.224   1.144   2.407
 1584SOL    HW1  983   3.307   1.115   2.359
 1584SOL    HW2  984   3.175   1.211   2.351
 1586SOL     OW  985   2.870   1.456   2.339
 1586SOL    HW1  986   2.824   1.528   2.287
 1586SOL    HW2  987   2.866   1.476   2.437
 1587SOL     OW  988   2.213   1.801   2.715
 1587SOL    HW1  989   2.263   1.715   2.721
 1587SOL    HW2  990   2.278   1.878   2.712
 1589SOL     OW  991   3.089   1.550   3.368
 1589SOL    HW1  992   3.095   1.473   3.432
 1589SOL    HW2  993   3.037   1.524   3.288
 1590SOL     OW  994   2.183   0.943   2.104
 1590SOL    HW1  995   2.265   0.982   2.062
 1590SOL    HW2  996   2.156   0.861   2.055
 1592SOL     OW  997   2.323   1.266   3.589
 1592SOL    HW1  998   2.273   1.267   3.503
 1592SOL    HW2  999   2.260   1.248   3.665
 1593SOL     OW 1000   2.973   1.776   2.099
 1593SOL    HW1 1001   2.913   1.714   2.149
 1593SOL    HW2 1002   3.004   1.732   2.014
 1595SOL     OW 1003   3.494   1.377   1.943
 1595SOL    HW1 1004   3.462   1.471   1.933
 1595SOL    HW2 1005   3.418   1.314   1.931
 1596SOL     OW 1006   2.326   1.743   2.185
 1596SOL    HW1 1007   2.359   1.782   2.271
 1596SOL    HW2 1008   2.402   1.736   2.120
 1598SOL     OW 1009   2.111   1.785   3.103
 1598SOL    HW1 1010   2.168   1.720   3.153
 1598SOL    HW2 1011   2.095   1.752   3.010
 1599SOL     OW 1012   2.802   1.698   2.766
 1599SOL    HW1 1013   2.882   1.641   2.787
 1599SOL    HW2 1014   2.753   1.658   2.689
 1600SOL     OW 1015   2.244   0.700   2.342
 1600SOL    HW1 1016   2.289   0.610   2.339
 1600SOL    HW2 1017   2.150   0.689   2.375
 1604SOL     OW 1018   2.750   1.514   3.057
 1604SOL    HW1 1019   2.727   1.489   2.963
 1604SOL    HW2 1020   2.811   1.445   3.096
 1606SOL     OW 1021   2.665   1.402   2.786
 1606SOL    HW1 1022   2.755   1.416   2.744
 1606SOL    HW2 1023   2.594   1.404   2.715
 1609SOL     OW 1024   3.296   1.188   1.903
 1609SOL    HW1 1025   3.328   1.112   1.960
 1609SOL    HW2 1026   3.204   1.215   1.933
 1613SOL     OW 1027   3.089   1.570   2.655
 1613SOL    HW1 1028   3.110   1.644   2.590
 1613SOL    HW2 1029   3.157   1.570   2.728
 1614SOL     OW 1030   2.321   1.152   2.603
 1614SOL    HW1 1031   2.250   1.125   2.668
 1614SOL    HW2 1032   2.295   1.124   2.510
 1615SOL     OW 1033   3.133   1.797   2.453
 1615SOL    HW1 1034   3.177   1.861   2.389
 1615SOL    HW2 1035   3.083   1.849   2.523
 1621SOL     OW 1036   3.291   1.173   2.729
 1621SOL    HW1 1037   3.236   1.089   2.722
 1621SOL    HW2 1038   3.317   1.202   2.637
 1624SOL     OW 1039   2.350   1.385   2.036
 1624SOL    HW1 1040   2.263   1.370   2.083
 1624SOL    HW2 1041   2.333   1.411   1.941
 1625SOL     OW 1042   3.526   1.280   2.519
 1625SOL    HW1 1043   3.625   1.288   2.533
 1625SOL    HW2 1044   3.481   1.364   2.550
 1629SOL     OW 1045   2.926   1.347   3.202
 1629SOL    HW1 1046   2.846   1.324   3.257
 1629SOL    HW2 1047   3.009   1.321   3.251
 1630SOL     OW 1048   3.454   1.629   3.487
 1630SOL    HW1 1049   3.481   1.663   3.397
 1630SOL    HW2 1050   3.533   1.591   3.533
 1631SOL     OW 1051   2.973   1.195   2.962
 1631SOL    HW1 1052   2.933   1.239   3.043
 1631SOL    HW2 1053   2.932   1.232   2.879
 1635SOL     OW 1054   2.567   1.050   2.230
 1635SOL    HW1 1055   2.553   1.057   2.329
 1635SOL    HW2 1056   2.651   0.999   2.212
 1636SOL     OW 1057   2.272   0.813   3.113
 1636SOL    HW1 1058   2.358   0.825   3.163
 1636SOL    HW2 1059   2.230   0.726   3.140
 1638SOL     OW 1060   1.926   1.564   3.193
 1638SOL    HW1 1061   1.880   1.646   3.159
 1638SOL    HW2 1062   2.024   1.583   3.202
 1639SOL     OW 1063   2.229   1.100   2.363
 1639SOL    HW1 1064   2.222   1.183   2.307
 1639SOL    HW2 1065   2.233   1.020   2.303
 1641SOL     OW 1066   3.114   1.348   2.250
 1641SOL    HW1 1067   3.164   1.425   2.290
 1641SOL    HW2 1068   3.019   1.350   2.282
 1642SOL     OW 1069   3.134   1.445   3.004
 1642SOL    HW1 1070   3.181   1.458   3.091
 1642SOL    HW2 1071   3.068   1.371   3.013
 1644SOL     OW 1072   2.216   1.510   3.191
 1644SOL    HW1 1073   2.195   1.466   3.104
 1644SOL    HW2 1074   2.313   1.536   3.194
 1649SOL     OW 1075   2.435   0.870   2.891
 1649SOL    HW1 1076   2.479   0.959   2.882
 1649SOL    HW2 1077   2.372   0.870   2.968
 1653SOL     OW 1078   1.899   1.310   3.144
 1653SOL    HW1 1079   1.952   1.261   3.212
 1653SOL    HW2 1080   1.921   1.408   3.149
 1658SOL     OW 1081   2.885   0.766   2.828
 1658SOL    HW1 1082   2.900   0.787   2.924
 1658SOL    HW2 1083   2.855   0.671   2.819
 1659SOL     OW 1084   2.842   1.573   3.562
 1659SOL    HW1 1085   2.822   1.617   3.474
 1659SOL    HW2 1086   2.881   1.482   3.546
 1663SOL     OW 1087   3.165   0.838   1.904
 1663SOL    HW1 1088   3.199   0.745   1.919
 1663SOL    HW2 1089   3.183   0.865   1.809
 1664SOL     OW 1090   2.930   1.333   2.711
 1664SOL    HW1 1091   2.937   1.249   2.656
 1664SOL    HW2 1092   2.992   1.402   2.675
 1665SOL     OW 1093   2.181   0.810   2.811
 1665SOL    HW1 1094   2.274   0.846   2.816
 1665SOL    HW2 1095   2.175   0.725   2.863
 1669SOL     OW 1096   1.870   1.326   2.062
 1669SOL    HW1 1097   1.777   1.347   2.031
 1669SOL    HW2 1098   1.880   1.227   2.075
 1670SOL     OW 1099   1.950   1.801   2.789
 1670SOL    HW1 1100   1.908   1.715   2.762
 1670SOL    HW2 1101   2.044   1.804   2.755
 1671SOL     OW 1102   2.366   1.568   2.772
 1671SOL    HW1 1103   2.432   1.642   2.781
 1671SOL    HW2 1104   2.410   1.489   2.730
 1672SOL     OW 1105   2.864   0.796   3.100
 1672SOL    HW1 1106   2.905   0.764   3.186
 1672SOL    HW2 1107   2.768   0.769   3.097
 1678SOL     OW 1108   2.114   1.564   3.606
 1678SOL    HW1 1109   2.084   1.621   3.682
 1678SOL    HW2 1110   2.107   1.467   3.632
 1680SOL     OW 1111   2.792   1.678   3.327
 1680SOL    HW1 1112   2.768   1.660   3.232
 1680SOL    HW2 1113   2.822   1.772   3.337
 1682SOL     OW 1114   2.021   1.137   3.328
 1682SOL    HW1 1115   2.043   1.076   3.404
 1682SOL    HW2 1116   2.031   1.088   3.242
 1683SOL     OW 1117   3.209   1.059   3.096
 1683SOL    HW1 1118   3.233   0.996   3.022
 1683SOL    HW2 1119   3.119   1.099   3.078
 1684SOL     OW 1120   3.164   0.855   2.171
 1684SOL    HW1 1121   3.078   0.824   2.213
 1684SOL    HW2 1122   3.160   0.841   2.072
 1685SOL     OW 1123   3.621   1.747   3.016
 1685SOL    HW1 1124   3.682   1.777   2.943
 1685SOL    HW2 1125   3.583   1.658   2.994
 1686SOL     OW 1126   3.114   1.731   2.990
 1686SOL    HW1 1127   3.198   1.736   2.936
 1686SOL    HW2 1128   3.091   1.635   3.008
 1687SOL     OW 1129   1.945   1.258   2.884
 1687SOL    HW1 1130   1.940   1.257   2.984
 1687SOL    HW2 1131   1.862   1.217   2.846
 1688SOL     OW 1132   2.550   1.662   3.578
 1688SOL    HW1 1133   2.494   1.743   3.587
 1688SOL    HW2 1134   2.602   1.666   3.492
 1690SOL     OW 1135   3.250   1.573   2.339
 1690SOL    HW1 1136   3.317   1.585   2.265
 1690SOL    HW2 1137   3.210   1.662   2.362
 1691SOL     OW 1138   1.992   1.794   3.713
 1691SOL    HW1 1139   1.951   1.720   3.766
 1691SOL    HW2 1140   2.056   1.845   3.771
 1692SOL     OW 1141   3.142   0.927   2.534
 1692SOL    HW1 1142   3.202   0.846   2.536
 1692SOL    HW2 1143   3.182   0.996   2.474
 1693SOL     OW 1144   2.692   1.273   3.284
 1693SOL    HW1 1145   2.687   1.306   3.379
 1693SOL    HW2 1146   2.606   1.292   3.238
 1694SOL     OW 1147   2.534   1.616   2.016
 1694SOL    HW1 1148   2.543   1.626   1.917
 1694SOL    HW2 1149   2.494   1.527   2.037
 1695SOL     OW 1150   3.512   1.720   3.256
 1695SOL    HW1 1151   3.565   1.730   3.172
 1695SOL    HW2 1152   3.485   1.810   3.290
 1698SOL     OW 1153   3.056   1.612   1.893
 1698SOL    HW1 1154   3.062   1.519   1.930
 1698SOL    HW2 1155   2.997   1.612   1.813
 1699SOL     OW 1156   2.684   1.002   3.234
 1699SOL    HW1 1157   2.724   1.001   3.142
 1699SOL    HW2 1158   2.694   1.094   3.274
 1700SOL     OW 1159   2.778   0.910   2.153
 1700SOL    HW1 1160   2.841   0.948   2.085
 1700SOL    HW2 1161   2.818   0.827   2.192
 1701SOL     OW 1162   3.366   1.607   1.906
 1701SOL    HW1 1163   3.274   1.644   1.913
 1701SOL    HW2 1164   3.404   1.627   1.816
 1702SOL     OW 1165   2.234   1.288   3.352
 1702SOL    HW1 1166   2.221   1.381   3.318
 1702SOL    HW2 1167   2.150   1.236   3.339
 1703SOL     OW 1168   3.476   1.292   3.151
 1703SOL    HW1 1169   3.536   1.295   3.231
 1703SOL    HW2 1170   3.401   1.356   3.164
 1704SOL     OW 1171   2.901   1.098   2.558
 1704SOL    HW1 1172   2.831   1.051   2.612
 1704SOL    HW2 1173   2.960   1.030   2.515
 1706SOL     OW 1174   2.452   1.487   2.353
 1706SOL    HW1 1175   2.494   1.429   2.283
 1706SOL    HW2 1176   2.408   1.566   2.309
 1708SOL     OW 1177   2.117   1.348   2.152
 1708SOL    HW1 1178   2.021   1.349   2.125
 1708SOL    HW2 1179   2.129   1.401   2.236
 1714SOL     OW 1180   3.045   1.335   1.981
 1714SOL    HW1 1181   2.946   1.324   1.983
 1714SOL    HW2 1182   3.079   1.350   2.074
 1715SOL     OW 1183   2.475   0.842   3.293
 1715SOL    HW1 1184   2.531   0.923   3.276
 1715SOL    HW2 1185   2.534   0.762   3.296
 1716SOL     OW 1186   3.355   1.767   2.821
 1716SOL    HW1 1187   3.388   1.831   2.752
 1716SOL    HW2 1188   3.421   1.761   2.896
 1719SOL     OW 1189   2.252   1.741   3.422
 1719SOL    HW1 1190   2.161   1.782   3.420
 1719SOL    HW2 1191   2.245   1.647   3.454
 1722SOL     OW 1192   2.456   0.745   2.514
 1722SOL    HW1 1193   2.506   0.830   2.495
 1722SOL    HW2 1194   2.368   0.747   2.466
 1725SOL     OW 1195   2.721   1.374   1.878
 1725SOL    HW1 1196   2.675   1.389   1.966
 1725SOL    HW2 1197   2.765   1.459   1.848
 1726SOL     OW 1198   2.523   1.790   2.815
 1726SOL    HW1 1199   2.477   1.878   2.802
 1726SOL    HW2 1200   2.622   1.802   2.808
 1727SOL     OW 1201   2.721   0.956   2.723
 1727SOL    HW1 1202   2.775   0.887   2.771
 1727SOL    HW2 1203   2.689   1.025   2.789
 1728SOL     OW 1204   2.945   0.984   1.949
 1728SOL    HW1 1205   2.922   1.037   1.867
 1728SOL    HW2 1206   3.026   0.928   1.930
 1729SOL     OW 1207   3.723   1.569   2.713
 1729SOL    HW1 1208   3.652   1.557   2.643
 1729SOL    HW2 1209   3.724   1.490   2.773
 1730SOL     OW 1210   2.083   1.314   3.706
 1730SOL    HW1 1211   2.018   1.241   3.685
 1730SOL    HW2 1212   2.087   1.328   3.804
 1731SOL     OW 1213   1.941   1.240   2.515
 1731SOL    HW1 1214   1.940   1.193   2.603
 1731SOL    HW2 1215   2.023   1.212   2.464
 1732SOL     OW 1216   2.534   1.391   3.486
 1732SOL    HW1 1217   2.456   1.341   3.524
 1732SOL    HW2 1218   2.531   1.486   3.517
 1735SOL     OW 1219   3.567   1.487   2.966
 1735SOL    HW1 1220   3.474   1.462   2.939
 1735SOL    HW2 1221   3.593   1.437   3.048
 1737SOL     OW 1222   2.674   1.586   2.549
 1737SOL    HW1 1223   2.706   1.596   2.455
 1737SOL    HW2 1224   2.595   1.524   2.551
 1740SOL     OW 1225   2.632   1.330   2.163
 1740SOL    HW1 1226   2.586   1.243   2.180
 1740SOL    HW2 1227   2.723   1.327   2.204
 1741SOL     OW 1228   2.480   1.567   3.146
 1741SOL    HW1 1229   2.475   1.649   3.203
 1741SOL    HW2 1230   2.569   1.564   3.101
 1745SOL     OW 1231   1.901   1.077   2.162
 1745SOL    HW1 1232   2.000   1.066   2.153
 1745SOL    HW2 1233   1.861   0.991   2.194
 1746SOL     OW 1234   2.737   1.646   2.199
 1746SOL    HW1 1235   2.660   1.611   2.145
 1746SOL    HW2 1236   2.705   1.717   2.261
 1761SOL     OW 1237   1.889   1.596   3.841
 1761SOL    HW1 1238   1.870   1.500   3.862
 1761SOL    HW2 1239   1.856   1.654   3.916
 1823SOL     OW 1240   2.534   1.616   3.878
 1823SOL    HW1 1241   2.543   1.626   3.779
 1823SOL    HW2 1242   2.494   1.527   3.899
 1826SOL     OW 1243   3.056   1.612   3.755
 1826SOL    HW1 1244   3.062   1.519   3.792
 1826SOL    HW2 1245   2.997   1.612   3.675
 1837SOL     OW 1246   2.721   1.374   3.740
 1837SOL    HW1 1247   2.675   1.389   3.828
 1837SOL    HW2 1248   2.765   1.459   3.710
 1853SOL     OW 1249   2.087   2.137   0.996
 1853SOL    HW1 1250   2.122   2.120   1.088
 1853SOL    HW2 1251   1.999   2.092   0.984
 1854SOL     OW 1252   1.881   2.230   0.647
 1854SOL    HW1 1253   1.799   2.273   0.686
 1854SOL    HW2 1254   1.853   2.157   0.584
 1855SOL     OW 1255   2.431   3.137   1.165
 1855SOL    HW1 1256   2.338   3.130   1.128
 1855SOL    HW2 1257   2.442   3.226   1.209
 1857SOL     OW 1258   2.997   2.565   0.717
 1857SOL    HW1 1259   3.054   2.643   0.692
 1857SOL    HW2 1260   2.937   2.591   0.793
 1859SOL     OW 1261   2.630   3.006   1.023
 1859SOL    HW1 1262   2.552   3.023   1.083
 1859SOL    HW2 1263   2.664   3.093   0.987
 1860SOL     OW 1264   2.712   2.660   1.823
 1860SOL    HW1 1265   2.708   2.736   1.888
 1860SOL    HW2 1266   2.734   2.696   1.732
 1861SOL     OW 1267   2.547   2.874   0.665
 1861SOL    HW1 1268   2.616   2.858   0.735
 1861SOL    HW2 1269   2.474   2.931   0.703
 1862SOL     OW 1270   2.548   3.023   1.803
 1862SOL    HW1 1271   2.608   3.102   1.817
 1862SOL    HW2 1272   2.462   3.054   1.762
 1863SOL     OW 1273   2.197   3.297   1.061
 1863SOL    HW1 1274   2.119   3.266   1.008
 1863SOL    HW2 1275   2.255   3.355   1.004
 1864SOL     OW 1276   3.322   3.367   1.339
 1864SOL    HW1 1277   3.346   3.461   1.365
 1864SOL    HW2 1278   3.306   3.313   1.421
 1865SOL     OW 1279   2.300   2.254   1.499
 1865SOL    HW1 1280   2.382   2.198   1.508
 1865SOL    HW2 1281   2.219   2.196   1.503
 1868SOL     OW 1282   2.989   3.203   1.690
 1868SOL    HW1 1283   3.036   3.203   1.778
 1868SOL    HW2 1284   2.941   3.116   1.679
 1870SOL     OW 1285   2.102   2.953   0.886
 1870SOL    HW1 1286   2.116   2.869   0.938
 1870SOL    HW2 1287   2.047   3.017   0.941
 1871SOL     OW 1288   2.482   3.648   1.439
 1871SOL    HW1 1289   2.390   3.631   1.474
 1871SOL    HW2 1290   2.510   3.740   1.465
 1873SOL     OW 1291   3.456   1.976   1.480
 1873SOL    HW1 1292   3.438   2.043   1.408
 1873SOL    HW2 1293   3.453   2.022   1.569
 1879SOL     OW 1294   1.975   2.599   1.597
 1879SOL    HW1 1295   2.063   2.586   1.642
 1879SOL    HW2 1296   1.962   2.696   1.575
 1881SOL     OW 1297   3.155   3.090   1.423
 1881SOL    HW1 1298   3.192   3.017   1.365
 1881SOL    HW2 1299   3.207   3.095   1.508
 1883SOL     OW 1300   2.059   2.838   1.264
 1883SOL    HW1 1301   2.148   2.793   1.250
 1883SOL    HW2 1302   1.986   2.773   1.245
 1885SOL     OW 1303   3.049   3.654   1.616
 1885SOL    HW1 1304   3.073   3.714   1.540
 1885SOL    HW2 1305   3.056   3.559   1.586
 1886SOL     OW 1306   2.179   2.113   1.801
 1886SOL    HW1 1307   2.250   2.184   1.807
 1886SOL    HW2 1308   2.091   2.152   1.829
 1890SOL     OW 1309   3.143   2.207   0.944
 1890SOL    HW1 1310   3.057   2.157   0.931
 1890SOL    HW2 1311   3.205   2.153   1.000
 1892SOL     OW 1312   2.669   2.467   1.465
 1892SOL    HW1 1313   2.622   2.464   1.554
 1892SOL    HW2 1314   2.618   2.412   1.399
 1893SOL     OW 1315   3.256   2.331   1.674
 1893SOL    HW1 1316   3.236   2.374   1.762
 1893SOL    HW2 1317   3.334   2.269   1.683
 1894SOL     OW 1318   2.835   2.752   1.572
 1894SOL    HW1 1319   2.881   2.668   1.543
 1894SOL    HW2 1320   2.779   2.786   1.497
 1895SOL     OW 1321   2.853   2.272   1.242
 1895SOL    HW1 1322   2.776   2.306   1.296
 1895SOL    HW2 1323   2.819   2.221   1.163
 1897SOL     OW 1324   1.938   2.673   0.789
 1897SOL    HW1 1325   2.037   2.661   0.798
 1897SOL    HW2 1326   1.914   2.768   0.810
 1898SOL     OW 1327   1.992   3.683   1.571
 1898SOL    HW1 1328   1.982   3.668   1.670
 1898SOL    HW2 1329   1.906   3.719   1.535
 1900SOL     OW 1330   3.581   2.447   1.831
 1900SOL    HW1 1331   3.555   2.536   1.795
 1900SOL    HW2 1332   3.579   2.379   1.758
 1902SOL     OW 1333   2.412   2.058   0.885
 1902SOL    HW1 1334   2.407   2.053   0.985
 1902SOL    HW2 1335   2.414   2.154   0.856
 1906SOL     OW 1336   3.089   3.412   1.506
 1906SOL    HW1 1337   3.095   3.335   1.570
 1906SOL    HW2 1338   3.037   3.386   1.426
 1909SOL     OW 1339   2.323   3.128   1.727
 1909SOL    HW1 1340   2.273   3.129   1.641
 1909SOL    HW2 1341   2.260   3.110   1.803
 1911SOL     OW 1342   2.064   2.147   1.498
 1911SOL    HW1 1343   1.984   2.207   1.485
 1911SOL    HW2 1344   2.054   2.098   1.584
 1915SOL     OW 1345   2.111   3.647   1.241
 1915SOL    HW1 1346   2.168   3.582   1.291
 1915SOL    HW2 1347   2.095   3.614   1.148
 1918SOL     OW 1348   3.409   2.084   1.729
 1918SOL    HW1 1349   3.404   2.121   1.821
 1918SOL    HW2 1350   3.337   2.015   1.717
 1919SOL     OW 1351   2.643   2.126   1.749
 1919SOL    HW1 1352   2.710   2.065   1.792
 1919SOL    HW2 1353   2.570   2.145   1.814
 1920SOL     OW 1354   2.750   3.376   1.195
 1920SOL    HW1 1355   2.727   3.351   1.101
 1920SOL    HW2 1356   2.811   3.307   1.234
 1921SOL     OW 1357   3.213   2.452   1.433
 1921SOL    HW1 1358   3.241   2.409   1.518
 1921SOL    HW2 1359   3.238   2.548   1.434
 1922SOL     OW 1360   2.665   3.264   0.924
 1922SOL    HW1 1361   2.755   3.278   0.882
 1922SOL    HW2 1362   2.594   3.266   0.853
 1923SOL     OW 1363   2.784   2.365   0.899
 1923SOL    HW1 1364   2.759   2.356   0.803
 1923SOL    HW2 1365   2.832   2.283   0.930
 1928SOL     OW 1366   2.938   2.545   1.464
 1928SOL    HW1 1367   2.858   2.484   1.467
 1928SOL    HW2 1368   3.019   2.492   1.440
 1930SOL     OW 1369   2.321   3.014   0.741
 1930SOL    HW1 1370   2.250   2.987   0.806
 1930SOL    HW2 1371   2.295   2.986   0.648
 1933SOL     OW 1372   1.940   2.418   1.386
 1933SOL    HW1 1373   2.032   2.417   1.345
 1933SOL    HW2 1374   1.934   2.492   1.453
 1934SOL     OW 1375   2.423   2.084   1.147
 1934SOL    HW1 1376   2.461   2.000   1.184
 1934SOL    HW2 1377   2.335   2.103   1.191
 1935SOL     OW 1378   2.728   2.316   0.642
 1935SOL    HW1 1379   2.696   2.388   0.580
 1935SOL    HW2 1380   2.752   2.235   0.589
 1936SOL     OW 1381   2.879   1.901   0.753
 1936SOL    HW1 1382   2.807   1.906   0.684
 1936SOL    HW2 1383   2.855   1.832   0.822
 1938SOL     OW 1384   3.328   2.452   0.992
 1938SOL    HW1 1385   3.298   2.357   0.999
 1938SOL    HW2 1386   3.401   2.468   1.058
 1944SOL     OW 1387   3.616   3.085   1.588
 1944SOL    HW1 1388   3.707   3.046   1.575
 1944SOL    HW2 1389   3.624   3.181   1.612
 1945SOL     OW 1390   2.926   3.209   1.340
 1945SOL    HW1 1391   2.846   3.186   1.395
 1945SOL    HW2 1392   3.009   3.183   1.389
 1946SOL     OW 1393   3.454   3.491   1.625
 1946SOL    HW1 1394   3.481   3.525   1.535
 1946SOL    HW2 1395   3.533   3.453   1.671
 1947SOL     OW 1396   2.973   3.057   1.100
 1947SOL    HW1 1397   2.933   3.101   1.181
 1947SOL    HW2 1398   2.932   3.094   1.017
 1949SOL     OW 1399   2.777   1.951   1.402
 1949SOL    HW1 1400   2.802   1.931   1.307
 1949SOL    HW2 1401   2.849   2.007   1.444
 1950SOL     OW 1402   2.842   2.978   1.719
 1950SOL    HW1 1403   2.743   2.984   1.729
 1950SOL    HW2 1404   2.865   2.898   1.663
 1952SOL     OW 1405   2.272   2.675   1.251
 1952SOL    HW1 1406   2.358   2.687   1.301
 1952SOL    HW2 1407   2.230   2.588   1.278
 1953SOL     OW 1408   3.136   2.248   1.262
 1953SOL    HW1 1409   3.157   2.322   1.326
 1953SOL    HW2 1410   3.047   2.265   1.219
 1954SOL     OW 1411   1.926   3.426   1.331
 1954SOL    HW1 1412   1.880   3.508   1.297
 1954SOL    HW2 1413   2.024   3.445   1.340
 1956SOL     OW 1414   2.428   2.399   0.865
 1956SOL    HW1 1415   2.440   2.465   0.791
 1956SOL    HW2 1416   2.474   2.433   0.948
 1958SOL     OW 1417   3.134   3.307   1.142
 1958SOL    HW1 1418   3.181   3.320   1.229
 1958SOL    HW2 1419   3.068   3.233   1.151
 1960SOL     OW 1420   2.216   3.372   1.329
 1960SOL    HW1 1421   2.195   3.328   1.242
 1960SOL    HW2 1422   2.313   3.398   1.332
 1961SOL     OW 1423   2.264   2.613   1.598
 1961SOL    HW1 1424   2.332   2.668   1.551
 1961SOL    HW2 1425   2.304   2.525   1.625
 1962SOL     OW 1426   3.449   2.641   1.670
 1962SOL    HW1 1427   3.357   2.679   1.665
 1962SOL    HW2 1428   3.509   2.688   1.605
 1963SOL     OW 1429   2.875   1.967   1.770
 1963SOL    HW1 1430   2.881   2.052   1.718
 1963SOL    HW2 1431   2.907   1.891   1.713
 1964SOL     OW 1432   2.366   1.912   1.740
 1964SOL    HW1 1433   2.324   1.855   1.670
 1964SOL    HW2 1434   2.300   1.981   1.772
 1965SOL     OW 1435   2.435   2.732   1.029
 1965SOL    HW1 1436   2.479   2.821   1.020
 1965SOL    HW2 1437   2.372   2.732   1.106
 1966SOL     OW 1438   3.222   2.724   1.045
 1966SOL    HW1 1439   3.147   2.724   0.979
 1966SOL    HW2 1440   3.259   2.632   1.054
 1968SOL     OW 1441   2.169   2.075   1.231
 1968SOL    HW1 1442   2.146   2.112   1.321
 1968SOL    HW2 1443   2.139   1.980   1.225
 1969SOL     OW 1444   1.899   3.172   1.282
 1969SOL    HW1 1445   1.952   3.123   1.350
 1969SOL    HW2 1446   1.921   3.270   1.287
 1970SOL     OW 1447   2.594   2.496   1.064
 1970SOL    HW1 1448   2.653   2.470   0.988
 1970SOL    HW2 1449   2.566   2.592   1.053
 1971SOL     OW 1450   3.590   2.797   1.854
 1971SOL    HW1 1451   3.544   2.790   1.765
 1971SOL    HW2 1452   3.528   2.841   1.920
 1972SOL     OW 1453   2.169   1.925   0.618
 1972SOL    HW1 1454   2.158   2.019   0.651
 1972SOL    HW2 1455   2.164   1.862   0.695
 1974SOL     OW 1456   2.885   2.628   0.966
 1974SOL    HW1 1457   2.900   2.649   1.062
 1974SOL    HW2 1458   2.855   2.533   0.957
 1975SOL     OW 1459   2.842   3.435   1.700
 1975SOL    HW1 1460   2.822   3.479   1.612
 1975SOL    HW2 1461   2.881   3.344   1.684
 1977SOL     OW 1462   2.212   2.760   1.804
 1977SOL    HW1 1463   2.288   2.804   1.852
 1977SOL    HW2 1464   2.247   2.713   1.722
 1981SOL     OW 1465   2.181   2.672   0.949
 1981SOL    HW1 1466   2.274   2.708   0.954
 1981SOL    HW2 1467   2.175   2.587   1.001
 1982SOL     OW 1468   2.201   2.371   1.006
 1982SOL    HW1 1469   2.149   2.288   0.989
 1982SOL    HW2 1470   2.278   2.376   0.942
 1983SOL     OW 1471   3.000   2.242   1.678
 1983SOL    HW1 1472   2.955   2.305   1.742
 1983SOL    HW2 1473   3.093   2.273   1.661
 1984SOL     OW 1474   3.022   2.069   1.477
 1984SOL    HW1 1475   3.022   2.133   1.554
 1984SOL    HW2 1476   3.050   2.117   1.394
 1987SOL     OW 1477   2.366   3.430   0.910
 1987SOL    HW1 1478   2.432   3.504   0.919
 1987SOL    HW2 1479   2.410   3.351   0.868
 1988SOL     OW 1480   2.864   2.658   1.238
 1988SOL    HW1 1481   2.905   2.626   1.324
 1988SOL    HW2 1482   2.768   2.631   1.235
 1989SOL     OW 1483   1.902   2.406   1.114
 1989SOL    HW1 1484   1.987   2.373   1.073
 1989SOL    HW2 1485   1.915   2.421   1.212
 1990SOL     OW 1486   2.051   2.382   1.722
 1990SOL    HW1 1487   2.110   2.342   1.652
 1990SOL    HW2 1488   1.993   2.453   1.681
 1991SOL     OW 1489   3.231   2.812   1.660
 1991SOL    HW1 1490   3.270   2.901   1.680
 1991SOL    HW2 1491   3.241   2.792   1.563
 1993SOL     OW 1492   3.519   2.466   1.206
 1993SOL    HW1 1493   3.481   2.397   1.268
 1993SOL    HW2 1494   3.601   2.430   1.162
 1994SOL     OW 1495   2.114   3.426   1.744
 1994SOL    HW1 1496   2.084   3.483   1.820
 1994SOL    HW2 1497   2.107   3.329   1.770
 1995SOL     OW 1498   2.533   2.326   1.269
 1995SOL    HW1 1499   2.499   2.237   1.239
 1995SOL    HW2 1500   2.559   2.380   1.189
 1996SOL     OW 1501   2.792   3.540   1.465
 1996SOL    HW1 1502   2.768   3.522   1.370
 1996SOL    HW2 1503   2.822   3.634   1.475
 1998SOL     OW 1504   2.021   2.999   1.466
 1998SOL    HW1 1505   2.043   2.938   1.542
 1998SOL    HW2 1506   2.031   2.950   1.380
 1999SOL     OW 1507   3.209   2.921   1.234
 1999SOL    HW1 1508   3.233   2.858   1.160
 1999SOL    HW2 1509   3.119   2.961   1.216
 2003SOL     OW 1510   1.945   3.120   1.022
 2003SOL    HW1 1511   1.940   3.119   1.122
 2003SOL    HW2 1512   1.862   3.079   0.984
 2004SOL     OW 1513   2.550   3.524   1.716
 2004SOL    HW1 1514   2.494   3.605   1.725
 2004SOL    HW2 1515   2.602   3.528   1.630
 2008SOL     OW 1516   1.992   3.656   1.851
 2008SOL    HW1 1517   1.951   3.582   1.904
 2008SOL    HW2 1518   2.056   3.707   1.909
 2010SOL     OW 1519   2.692   3.135   1.422
 2010SOL    HW1 1520   2.687   3.168   1.517
 2010SOL    HW2 1521   2.606   3.154   1.376
 2014SOL     OW 1522   2.125   2.188   0.720
 2014SOL    HW1 1523   2.046   2.239   0.686
 2014SOL    HW2 1524   2.116   2.173   0.818
 2016SOL     OW 1525   2.684   2.864   1.372
 2016SOL    HW1 1526   2.724   2.863   1.280
 2016SOL    HW2 1527   2.694   2.956   1.412
 2019SOL     OW 1528   2.234   3.150   1.490
 2019SOL    HW1 1529   2.221   3.243   1.456
 2019SOL    HW2 1530   2.150   3.098   1.477
 2020SOL     OW 1531   3.476   3.154   1.289
 2020SOL    HW1 1532   3.536   3.157   1.369
 2020SOL    HW2 1533   3.401   3.218   1.302
 2022SOL     OW 1534   2.876   2.098   0.971
 2022SOL    HW1 1535   2.868   2.062   0.878
 2022SOL    HW2 1536   2.874   2.022   1.036
 2024SOL     OW 1537   3.571   2.247   1.381
 2024SOL    HW1 1538   3.644   2.316   1.385
 2024SOL    HW2 1539   3.599   2.172   1.322
 2026SOL     OW 1540   1.967   2.875   1.726
 2026SOL    HW1 1541   1.890   2.842   1.780
 2026SOL    HW2 1542   2.052   2.845   1.768
 2027SOL     OW 1543   2.534   2.065   1.489
 2027SOL    HW1 1544   2.624   2.049   1.449
 2027SOL    HW2 1545   2.542   2.070   1.588
 2028SOL     OW 1546   3.302   2.718   1.398
 2028SOL    HW1 1547   3.245   2.770   1.335
 2028SOL    HW2 1548   3.398   2.730   1.374
 2031SOL     OW 1549   2.475   2.704   1.431
 2031SOL    HW1 1550   2.531   2.785   1.414
 2031SOL    HW2 1551   2.534   2.624   1.434
 2033SOL     OW 1552   2.578   2.427   1.708
 2033SOL    HW1 1553   2.597   2.492   1.782
 2033SOL    HW2 1554   2.638   2.347   1.717
 2034SOL     OW 1555   3.312   3.082   1.633
 2034SOL    HW1 1556   3.303   3.072   1.732
 2034SOL    HW2 1557   3.408   3.075   1.607
 2035SOL     OW 1558   2.252   3.603   1.560
 2035SOL    HW1 1559   2.161   3.644   1.558
 2035SOL    HW2 1560   2.245   3.509   1.592
 2036SOL     OW 1561   3.536   2.745   1.254
 2036SOL    HW1 1562   3.509   2.656   1.217
 2036SOL    HW2 1563   3.537   2.813   1.181
 2038SOL     OW 1564   2.456   2.607   0.652
 2038SOL    HW1 1565   2.506   2.692   0.633
 2038SOL    HW2 1566   2.368   2.609   0.604
 2039SOL     OW 1567   3.639   2.204   1.642
 2039SOL    HW1 1568   3.622   2.235   1.548
 2039SOL    HW2 1569   3.555   2.167   1.680
 2040SOL     OW 1570   3.592   2.796   1.517
 2040SOL    HW1 1571   3.630   2.887   1.532
 2040SOL    HW2 1572   3.584   2.779   1.418
 2043SOL     OW 1573   2.721   2.818   0.861
 2043SOL    HW1 1574   2.775   2.749   0.909
 2043SOL    HW2 1575   2.689   2.887   0.927
 2046SOL     OW 1576   2.083   3.176   1.844
 2046SOL    HW1 1577   2.018   3.103   1.823
 2046SOL    HW2 1578   2.087   3.190   1.942
 2048SOL     OW 1579   2.534   3.253   1.624
 2048SOL    HW1 1580   2.456   3.203   1.662
 2048SOL    HW2 1581   2.531   3.348   1.655
 2049SOL     OW 1582   3.686   2.054   1.227
 2049SOL    HW1 1583   3.682   1.964   1.271
 2049SOL    HW2 1584   3.689   2.043   1.128
 2052SOL     OW 1585   2.179   2.409   1.280
 2052SOL    HW1 1586   2.217   2.350   1.352
 2052SOL    HW2 1587   2.219   2.383   1.192
 2054SOL     OW 1588   3.286   2.076   1.112
 2054SOL    HW1 1589   3.338   2.011   1.167
 2054SOL    HW2 1590   3.237   2.139   1.173
 2055SOL     OW 1591   2.863   1.896   1.154
 2055SOL    HW1 1592   2.800   1.824   1.123
 2055SOL    HW2 1593   2.956   1.860   1.154
 2057SOL     OW 1594   2.480   3.429   1.284
 2057SOL    HW1 1595   2.475   3.511   1.341
 2057SOL    HW2 1596   2.569   3.426   1.239
 2063SOL     OW 1597   2.092   2.490   1.975
 2063SOL    HW1 1598   1.999   2.488   2.012
 2063SOL    HW2 1599   2.093   2.451   1.883
 2064SOL     OW 1600   2.087   2.137   2.858
 2064SOL    HW1 1601   2.122   2.120   2.950
 2064SOL    HW2 1602   1.999   2.092   2.846
 2065SOL     OW 1603   1.881   2.230   2.509
 2065SOL    HW1 1604   1.799   2.273   2.548
 2065SOL    HW2 1605   1.853   2.157   2.446
 2066SOL     OW 1606   2.431   3.137   3.027
 2066SOL    HW1 1607   2.338   3.130   2.990
 2066SOL    HW2 1608   2.442   3.226   3.071
 2067SOL     OW 1609   3.417   3.373   2.565
 2067SOL    HW1 1610   3.360   3.357   2.646
 2067SOL    HW2 1611   3.358   3.383   2.485
 2068SOL     OW 1612   2.997   2.565   2.579
 2068SOL    HW1 1613   3.054   2.643   2.554
 2068SOL    HW2 1614   2.937   2.591   2.655
 2069SOL     OW 1615   3.617   2.469   2.093
 2069SOL    HW1 1616   3.605   2.456   1.994
 2069SOL    HW2 1617   3.587   2.388   2.142
 2070SOL     OW 1618   2.630   3.006   2.885
 2070SOL    HW1 1619   2.552   3.023   2.945
 2070SOL    HW2 1620   2.664   3.093   2.849
 2071SOL     OW 1621   2.712   2.660   3.685
 2071SOL    HW1 1622   2.708   2.736   3.750
 2071SOL    HW2 1623   2.734   2.696   3.594
 2072SOL     OW 1624   2.547   2.874   2.527
 2072SOL    HW1 1625   2.616   2.858   2.597
 2072SOL    HW2 1626   2.474   2.931   2.565
 2073SOL     OW 1627   2.548   3.023   3.665
 2073SOL    HW1 1628   2.608   3.102   3.679
 2073SOL    HW2 1629   2.462   3.054   3.624
 2074SOL     OW 1630   2.197   3.297   2.923
 2074SOL    HW1 1631   2.119   3.266   2.870
 2074SOL    HW2 1632   2.255   3.355   2.866
 2075SOL     OW 1633   3.322   3.367   3.201
 2075SOL    HW1 1634   3.346   3.461   3.227
 2075SOL    HW2 1635   3.306   3.313   3.283
 2076SOL     OW 1636   2.300   2.254   3.361
 2076SOL    HW1 1637   2.382   2.198   3.370
 2076SOL    HW2 1638   2.219   2.196   3.365
 2077SOL     OW 1639   3.465   2.309   2.599
 2077SOL    HW1 1640   3.391   2.355   2.549
 2077SOL    HW2 1641   3.516   2.377   2.652
 2078SOL     OW 1642   2.093   3.575   2.345
 2078SOL    HW1 1643   2.127   3.652   2.399
 2078SOL    HW2 1644   2.137   3.575   2.255
 2079SOL     OW 1645   2.989   3.203   3.552
 2079SOL    HW1 1646   3.036   3.203   3.640
 2079SOL    HW2 1647   2.941   3.116   3.541
 2080SOL     OW 1648   2.092   3.296   2.400
 2080SOL    HW1 1649   2.066   3.392   2.400
 2080SOL    HW2 1650   2.021   3.242   2.445
 2081SOL     OW 1651   2.102   2.953   2.748
 2081SOL    HW1 1652   2.116   2.869   2.800
 2081SOL    HW2 1653   2.047   3.017   2.803
 2082SOL     OW 1654   2.482   3.648   3.301
 2082SOL    HW1 1655   2.390   3.631   3.336
 2082SOL    HW2 1656   2.510   3.740   3.327
 2083SOL     OW 1657   2.468   2.826   1.985
 2083SOL    HW1 1658   2.475   2.910   1.931
 2083SOL    HW2 1659   2.514   2.839   2.073
 2084SOL     OW 1660   3.456   1.976   3.342
 2084SOL    HW1 1661   3.438   2.043   3.270
 2084SOL    HW2 1662   3.453   2.022   3.431
 2085SOL     OW 1663   1.984   2.505   2.425
 2085SOL    HW1 1664   1.939   2.417   2.442
 2085SOL    HW2 1665   1.983   2.559   2.509
 2087SOL     OW 1666   1.889   3.458   1.979
 2087SOL    HW1 1667   1.870   3.362   2.000
 2087SOL    HW2 1668   1.856   3.516   2.054
 2088SOL     OW 1669   3.551   2.784   2.474
 2088SOL    HW1 1670   3.646   2.755   2.482
 2088SOL    HW2 1671   3.543   2.849   2.399
 2089SOL     OW 1672   3.503   2.970   2.294
 2089SOL    HW1 1673   3.589   2.972   2.242
 2089SOL    HW2 1674   3.517   3.017   2.382
 2090SOL     OW 1675   1.975   2.599   3.459
 2090SOL    HW1 1676   2.063   2.586   3.504
 2090SOL    HW2 1677   1.962   2.696   3.437
 2091SOL     OW 1678   2.475   3.227   2.588
 2091SOL    HW1 1679   2.426   3.140   2.597
 2091SOL    HW2 1680   2.452   3.270   2.501
 2092SOL     OW 1681   3.155   3.090   3.285
 2092SOL    HW1 1682   3.192   3.017   3.227
 2092SOL    HW2 1683   3.207   3.095   3.370
 2093SOL     OW 1684   2.671   1.866   2.364
 2093SOL    HW1 1685   2.711   1.957   2.355
 2093SOL    HW2 1686   2.571   1.874   2.370
 2094SOL     OW 1687   2.059   2.838   3.126
 2094SOL    HW1 1688   2.148   2.793   3.112
 2094SOL    HW2 1689   1.986   2.773   3.107
 2095SOL     OW 1690   3.387   2.861   2.052
 2095SOL    HW1 1691   3.324   2.785   2.065
 2095SOL    HW2 1692   3.435   2.879   2.138
 2097SOL     OW 1693   2.179   2.113   3.663
 2097SOL    HW1 1694   2.250   2.184   3.669
 2097SOL    HW2 1695   2.091   2.152   3.691
 2098SOL     OW 1696   3.328   3.279   2.815
 2098SOL    HW1 1697   3.269   3.285   2.895
 2098SOL    HW2 1698   3.313   3.191   2.769
 2099SOL     OW 1699   3.529   3.576   2.434
 2099SOL    HW1 1700   3.488   3.553   2.346
 2099SOL    HW2 1701   3.511   3.502   2.499
 2100SOL     OW 1702   2.460   2.591   2.132
 2100SOL    HW1 1703   2.484   2.660   2.064
 2100SOL    HW2 1704   2.382   2.624   2.186
 2101SOL     OW 1705   3.143   2.207   2.806
 2101SOL    HW1 1706   3.057   2.157   2.793
 2101SOL    HW2 1707   3.205   2.153   2.862
 2102SOL     OW 1708   3.438   3.524   2.169
 2102SOL    HW1 1709   3.527   3.570   2.172
 2102SOL    HW2 1710   3.417   3.500   2.074
 2103SOL     OW 1711   2.669   2.467   3.327
 2103SOL    HW1 1712   2.622   2.464   3.416
 2103SOL    HW2 1713   2.618   2.412   3.261
 2104SOL     OW 1714   3.256   2.331   3.536
 2104SOL    HW1 1715   3.236   2.374   3.624
 2104SOL    HW2 1716   3.334   2.269   3.545
 2105SOL     OW 1717   2.835   2.752   3.434
 2105SOL    HW1 1718   2.881   2.668   3.405
 2105SOL    HW2 1719   2.779   2.786   3.359
 2106SOL     OW 1720   2.853   2.272   3.104
 2106SOL    HW1 1721   2.776   2.306   3.158
 2106SOL    HW2 1722   2.819   2.221   3.025
 2107SOL     OW 1723   2.903   2.563   2.291
 2107SOL    HW1 1724   2.929   2.559   2.387
 2107SOL    HW2 1725   2.818   2.512   2.277
 2108SOL     OW 1726   1.938   2.673   2.651
 2108SOL    HW1 1727   2.037   2.661   2.660
 2108SOL    HW2 1728   1.914   2.768   2.672
 2109SOL     OW 1729   1.992   3.683   3.433
 2109SOL    HW1 1730   1.982   3.668   3.532
 2109SOL    HW2 1731   1.906   3.719   3.397
 2110SOL     OW 1732   2.727   2.210   2.057
 2110SOL    HW1 1733   2.786   2.273   2.008
 2110SOL    HW2 1734   2.746   2.116   2.028
 2112SOL     OW 1735   3.224   3.006   2.407
 2112SOL    HW1 1736   3.307   2.977   2.359
 2112SOL    HW2 1737   3.175   3.073   2.351
 2113SOL     OW 1738   2.412   2.058   2.747
 2113SOL    HW1 1739   2.407   2.053   2.847
 2113SOL    HW2 1740   2.414   2.154   2.718
 2114SOL     OW 1741   2.870   3.318   2.339
 2114SOL    HW1 1742   2.824   3.390   2.287
 2114SOL    HW2 1743   2.866   3.338   2.437
 2115SOL     OW 1744   2.213   3.663   2.715
 2115SOL    HW1 1745   2.263   3.577   2.721
 2115SOL    HW2 1746   2.278   3.740   2.712
 2116SOL     OW 1747   3.657   2.928   2.735
 2116SOL    HW1 1748   3.595   2.913   2.659
 2116SOL    HW2 1749   3.605   2.939   2.820
 2117SOL     OW 1750   3.089   3.412   3.368
 2117SOL    HW1 1751   3.095   3.335   3.432
 2117SOL    HW2 1752   3.037   3.386   3.288
 2118SOL     OW 1753   2.183   2.805   2.104
 2118SOL    HW1 1754   2.265   2.844   2.062
 2118SOL    HW2 1755   2.156   2.723   2.055
 2119SOL     OW 1756   3.320   2.597   2.590
 2119SOL    HW1 1757   3.315   2.532   2.665
 2119SOL    HW2 1758   3.400   2.656   2.603
 2120SOL     OW 1759   2.323   3.128   3.589
 2120SOL    HW1 1760   2.273   3.129   3.503
 2120SOL    HW2 1761   2.260   3.110   3.665
 2121SOL     OW 1762   2.973   3.638   2.099
 2121SOL    HW1 1763   2.913   3.576   2.149
 2121SOL    HW2 1764   3.004   3.594   2.014
 2122SOL     OW 1765   2.064   2.147   3.360
 2122SOL    HW1 1766   1.984   2.207   3.347
 2122SOL    HW2 1767   2.054   2.098   3.446
 2123SOL     OW 1768   3.494   3.239   1.943
 2123SOL    HW1 1769   3.462   3.333   1.933
 2123SOL    HW2 1770   3.418   3.176   1.931
 2124SOL     OW 1771   2.326   3.605   2.185
 2124SOL    HW1 1772   2.359   3.644   2.271
 2124SOL    HW2 1773   2.402   3.598   2.120
 2125SOL     OW 1774   3.262   1.969   2.288
 2125SOL    HW1 1775   3.238   1.932   2.198
 2125SOL    HW2 1776   3.361   1.985   2.292
 2126SOL     OW 1777   2.111   3.647   3.103
 2126SOL    HW1 1778   2.168   3.582   3.153
 2126SOL    HW2 1779   2.095   3.614   3.010
 2127SOL     OW 1780   2.802   3.560   2.766
 2127SOL    HW1 1781   2.882   3.503   2.787
 2127SOL    HW2 1782   2.753   3.520   2.689
 2128SOL     OW 1783   3.409   2.084   3.591
 2128SOL    HW1 1784   3.404   2.121   3.683
 2128SOL    HW2 1785   3.337   2.015   3.579
 2129SOL     OW 1786   2.476   1.984   1.979
 2129SOL    HW1 1787   2.574   1.962   1.986
 2129SOL    HW2 1788   2.445   1.967   1.886
 2130SOL     OW 1789   2.643   2.126   3.611
 2130SOL    HW1 1790   2.710   2.065   3.654
 2130SOL    HW2 1791   2.570   2.145   3.676
 2131SOL     OW 1792   2.750   3.376   3.057
 2131SOL    HW1 1793   2.727   3.351   2.963
 2131SOL    HW2 1794   2.811   3.307   3.096
 2132SOL     OW 1795   3.213   2.452   3.295
 2132SOL    HW1 1796   3.241   2.409   3.380
 2132SOL    HW2 1797   3.238   2.548   3.296
 2133SOL     OW 1798   2.665   3.264   2.786
 2133SOL    HW1 1799   2.755   3.278   2.744
 2133SOL    HW2 1800   2.594   3.266   2.715
 2134SOL     OW 1801   2.784   2.365   2.761
 2134SOL    HW1 1802   2.759   2.356   2.665
 2134SOL    HW2 1803   2.832   2.283   2.792
 2135SOL     OW 1804   3.296   3.050   1.903
 2135SOL    HW1 1805   3.328   2.974   1.960
 2135SOL    HW2 1806   3.204   3.077   1.933
 2136SOL     OW 1807   2.159   1.897   2.033
 2136SOL    HW1 1808   2.208   1.981   2.012
 2136SOL    HW2 1809   2.221   1.832   2.078
 2137SOL     OW 1810   2.797   2.098   2.342
 2137SOL    HW1 1811   2.749   2.139   2.264
 2137SOL    HW2 1812   2.896   2.096   2.323
 2138SOL     OW 1813   2.938   2.545   3.326
 2138SOL    HW1 1814   2.858   2.484   3.329
 2138SOL    HW2 1815   3.019   2.492   3.302
 2139SOL     OW 1816   3.089   3.432   2.655
 2139SOL    HW1 1817   3.110   3.506   2.590
 2139SOL    HW2 1818   3.157   3.432   2.728
 2140SOL     OW 1819   2.321   3.014   2.603
 2140SOL    HW1 1820   2.250   2.987   2.668
 2140SOL    HW2 1821   2.295   2.986   2.510
 2141SOL     OW 1822   3.133   3.659   2.453
 2141SOL    HW1 1823   3.177   3.723   2.389
 2141SOL    HW2 1824   3.083   3.711   2.523
 2142SOL     OW 1825   2.894   2.411   1.878
 2142SOL    HW1 1826   2.853   2.493   1.839
 2142SOL    HW2 1827   2.958   2.437   1.951
 2143SOL     OW 1828   1.940   2.418   3.248
 2143SOL    HW1 1829   2.032   2.417   3.207
 2143SOL    HW2 1830   1.934   2.492   3.315
 2144SOL     OW 1831   2.423   2.084   3.009
 2144SOL    HW1 1832   2.461   2.000   3.046
 2144SOL    HW2 1833   2.335   2.103   3.053
 2145SOL     OW 1834   2.728   2.316   2.504
 2145SOL    HW1 1835   2.696   2.388   2.442
 2145SOL    HW2 1836   2.752   2.235   2.451
 2146SOL     OW 1837   2.879   1.901   2.615
 2146SOL    HW1 1838   2.807   1.906   2.546
 2146SOL    HW2 1839   2.855   1.832   2.684
 2147SOL     OW 1840   3.291   3.035   2.729
 2147SOL    HW1 1841   3.236   2.951   2.722
 2147SOL    HW2 1842   3.317   3.064   2.637
 2148SOL     OW 1843   3.328   2.452   2.854
 2148SOL    HW1 1844   3.298   2.357   2.861
 2148SOL    HW2 1845   3.401   2.468   2.920
 2149SOL     OW 1846   3.719   2.695   2.239
 2149SOL    HW1 1847   3.761   2.631   2.303
 2149SOL    HW2 1848   3.681   2.644   2.161
 2150SOL     OW 1849   2.350   3.247   2.036
 2150SOL    HW1 1850   2.263   3.232   2.083
 2150SOL    HW2 1851   2.333   3.273   1.941
 2151SOL     OW 1852   3.526   3.142   2.519
 2151SOL    HW1 1853   3.625   3.150   2.533
 2151SOL    HW2 1854   3.481   3.226   2.550
 2152SOL     OW 1855   3.252   2.437   1.940
 2152SOL    HW1 1856   3.198   2.416   2.021
 2152SOL    HW2 1857   3.343   2.396   1.949
 2154SOL     OW 1858   2.926   3.209   3.202
 2154SOL    HW1 1859   2.846   3.186   3.257
 2154SOL    HW2 1860   3.009   3.183   3.251
 2156SOL     OW 1861   2.973   3.057   2.962
 2156SOL    HW1 1862   2.933   3.101   3.043
 2156SOL    HW2 1863   2.932   3.094   2.879
 2157SOL     OW 1864   3.500   2.961   2.941
 2157SOL    HW1 1865   3.505   3.042   3.000
 2157SOL    HW2 1866   3.414   2.963   2.890
 2158SOL     OW 1867   2.777   1.951   3.264
 2158SOL    HW1 1868   2.802   1.931   3.169
 2158SOL    HW2 1869   2.849   2.007   3.306
 2159SOL     OW 1870   2.842   2.978   3.581
 2159SOL    HW1 1871   2.743   2.984   3.591
 2159SOL    HW2 1872   2.865   2.898   3.525
 2160SOL     OW 1873   2.567   2.912   2.230
 2160SOL    HW1 1874   2.553   2.919   2.329
 2160SOL    HW2 1875   2.651   2.861   2.212
 2161SOL     OW 1876   2.272   2.675   3.113
 2161SOL    HW1 1877   2.358   2.687   3.163
 2161SOL    HW2 1878   2.230   2.588   3.140
 2162SOL     OW 1879   3.136   2.248   3.124
 2162SOL    HW1 1880   3.157   2.322   3.188
 2162SOL    HW2 1881   3.047   2.265   3.081
 2163SOL     OW 1882   1.926   3.426   3.193
 2163SOL    HW1 1883   1.880   3.508   3.159
 2163SOL    HW2 1884   2.024   3.445   3.202
 2164SOL     OW 1885   2.229   2.962   2.363
 2164SOL    HW1 1886   2.222   3.045   2.307
 2164SOL    HW2 1887   2.233   2.882   2.303
 2165SOL     OW 1888   3.114   3.210   2.250
 2165SOL    HW1 1889   3.164   3.287   2.290
 2165SOL    HW2 1890   3.019   3.212   2.282
 2166SOL     OW 1891   3.134   3.307   3.004
 2166SOL    HW1 1892   3.181   3.320   3.091
 2166SOL    HW2 1893   3.068   3.233   3.013
 2167SOL     OW 1894   3.444   2.501   2.334
 2167SOL    HW1 1895   3.413   2.562   2.407
 2167SOL    HW2 1896   3.494   2.553   2.265
 2168SOL     OW 1897   2.216   3.372   3.191
 2168SOL    HW1 1898   2.195   3.328   3.104
 2168SOL    HW2 1899   2.313   3.398   3.194
 2169SOL     OW 1900   2.264   2.613   3.460
 2169SOL    HW1 1901   2.332   2.668   3.413
 2169SOL    HW2 1902   2.304   2.525   3.487
 2170SOL     OW 1903   3.449   2.641   3.532
 2170SOL    HW1 1904   3.357   2.679   3.527
 2170SOL    HW2 1905   3.509   2.688   3.467
 2171SOL     OW 1906   2.875   1.967   3.632
 2171SOL    HW1 1907   2.881   2.052   3.580
 2171SOL    HW2 1908   2.907   1.891   3.575
 2172SOL     OW 1909   2.366   1.912   3.602
 2172SOL    HW1 1910   2.324   1.855   3.532
 2172SOL    HW2 1911   2.300   1.981   3.634
 2173SOL     OW 1912   2.435   2.732   2.891
 2173SOL    HW1 1913   2.479   2.821   2.882
 2173SOL    HW2 1914   2.372   2.732   2.968
 2174SOL     OW 1915   3.222   2.724   2.907
 2174SOL    HW1 1916   3.147   2.724   2.841
 2174SOL    HW2 1917   3.259   2.632   2.916
 2175SOL     OW 1918   3.071   2.387   2.137
 2175SOL    HW1 1919   3.084   2.303   2.191
 2175SOL    HW2 1920   3.042   2.461   2.197
 2176SOL     OW 1921   2.169   2.075   3.093
 2176SOL    HW1 1922   2.146   2.112   3.183
 2176SOL    HW2 1923   2.139   1.980   3.087
 2177SOL     OW 1924   1.899   3.172   3.144
 2177SOL    HW1 1925   1.952   3.123   3.212
 2177SOL    HW2 1926   1.921   3.270   3.149
 2178SOL     OW 1927   2.594   2.496   2.926
 2178SOL    HW1 1928   2.653   2.470   2.850
 2178SOL    HW2 1929   2.566   2.592   2.915
 2180SOL     OW 1930   2.169   1.925   2.480
 2180SOL    HW1 1931   2.158   2.019   2.513
 2180SOL    HW2 1932   2.164   1.862   2.557
 2181SOL     OW 1933   3.484   2.229   2.236
 2181SOL    HW1 1934   3.486   2.153   2.300
 2181SOL    HW2 1935   3.436   2.306   2.276
 2182SOL     OW 1936   2.885   2.628   2.828
 2182SOL    HW1 1937   2.900   2.649   2.924
 2182SOL    HW2 1938   2.855   2.533   2.819
 2183SOL     OW 1939   2.842   3.435   3.562
 2183SOL    HW1 1940   2.822   3.479   3.474
 2183SOL    HW2 1941   2.881   3.344   3.546
 2185SOL     OW 1942   2.212   2.760   3.666
 2185SOL    HW1 1943   2.288   2.804   3.714
 2185SOL    HW2 1944   2.247   2.713   3.584
 2186SOL     OW 1945   3.402   2.136   1.987
 2186SOL    HW1 1946   3.341   2.061   2.010
 2186SOL    HW2 1947   3.424   2.188   2.070
 2187SOL     OW 1948   3.165   2.700   1.904
 2187SOL    HW1 1949   3.199   2.607   1.919
 2187SOL    HW2 1950   3.183   2.727   1.809
 2188SOL     OW 1951   2.930   3.195   2.711
 2188SOL    HW1 1952   2.937   3.111   2.656
 2188SOL    HW2 1953   2.992   3.264   2.675
 2189SOL     OW 1954   2.181   2.672   2.811
 2189SOL    HW1 1955   2.274   2.708   2.816
 2189SOL    HW2 1956   2.175   2.587   2.863
 2190SOL     OW 1957   2.201   2.371   2.868
 2190SOL    HW1 1958   2.149   2.288   2.851
 2190SOL    HW2 1959   2.278   2.376   2.804
 2191SOL     OW 1960   3.000   2.242   3.540
 2191SOL    HW1 1961   2.955   2.305   3.604
 2191SOL    HW2 1962   3.093   2.273   3.523
 2192SOL     OW 1963   3.022   2.069   3.339
 2192SOL    HW1 1964   3.022   2.133   3.416
 2192SOL    HW2 1965   3.050   2.117   3.256
 2193SOL     OW 1966   1.870   3.188   2.062
 2193SOL    HW1 1967   1.777   3.209   2.031
 2193SOL    HW2 1968   1.880   3.089   2.075
 2194SOL     OW 1969   1.950   3.663   2.789
 2194SOL    HW1 1970   1.908   3.577   2.762
 2194SOL    HW2 1971   2.044   3.666   2.755
 2195SOL     OW 1972   2.366   3.430   2.772
 2195SOL    HW1 1973   2.432   3.504   2.781
 2195SOL    HW2 1974   2.410   3.351   2.730
 2196SOL     OW 1975   2.864   2.658   3.100
 2196SOL    HW1 1976   2.905   2.626   3.186
 2196SOL    HW2 1977   2.768   2.631   3.097
 2197SOL     OW 1978   1.902   2.406   2.976
 2197SOL    HW1 1979   1.987   2.373   2.935
 2197SOL    HW2 1980   1.915   2.421   3.074
 2198SOL     OW 1981   2.051   2.382   3.584
 2198SOL    HW1 1982   2.110   2.342   3.514
 2198SOL    HW2 1983   1.993   2.453   3.543
 2199SOL     OW 1984   3.231   2.812   3.522
 2199SOL    HW1 1985   3.270   2.901   3.542
 2199SOL    HW2 1986   3.241   2.792   3.425
 2200SOL     OW 1987   2.677   2.434   2.187
 2200SOL    HW1 1988   2.684   2.345   2.141
 2200SOL    HW2 1989   2.583   2.468   2.179
 2201SOL     OW 1990   3.519   2.466   3.068
 2201SOL    HW1 1991   3.481   2.397   3.130
 2201SOL    HW2 1992   3.601   2.430   3.024
 2202SOL     OW 1993   2.114   3.426   3.606
 2202SOL    HW1 1994   2.084   3.483   3.682
 2202SOL    HW2 1995   2.107   3.329   3.632
 2203SOL     OW 1996   2.533   2.326   3.131
 2203SOL    HW1 1997   2.499   2.237   3.101
 2203SOL    HW2 1998   2.559   2.380   3.051
 2204SOL     OW 1999   2.792   3.540   3.327
 2204SOL    HW1 2000   2.768   3.522   3.232
 2204SOL    HW2 2001   2.822   3.634   3.337
 2205SOL     OW 2002   2.021   2.999   3.328
 2205SOL    HW1 2003   2.043   2.938   3.404
 2205SOL    HW2 2004   2.031   2.950   3.242
 2206SOL     OW 2005   3.209   2.921   3.096
 2206SOL    HW1 2006   3.233   2.858   3.022
 2206SOL    HW2 2007   3.119   2.961   3.078
 2207SOL     OW 2008   3.164   2.717   2.171
 2207SOL    HW1 2009   3.078   2.686   2.213
 2207SOL    HW2 2010   3.160   2.703   2.072
 2209SOL     OW 2011   3.114   3.593   2.990
 2209SOL    HW1 2012   3.198   3.598   2.936
 2209SOL    HW2 2013   3.091   3.497   3.008
 2210SOL     OW 2014   1.945   3.120   2.884
 2210SOL    HW1 2015   1.940   3.119   2.984
 2210SOL    HW2 2016   1.862   3.079   2.846
 2211SOL     OW 2017   2.550   3.524   3.578
 2211SOL    HW1 2018   2.494   3.605   3.587
 2211SOL    HW2 2019   2.602   3.528   3.492
 2212SOL     OW 2020   3.588   1.997   2.385
 2212SOL    HW1 2021   3.661   1.980   2.318
 2212SOL    HW2 2022   3.557   1.910   2.423
 2213SOL     OW 2023   3.250   3.435   2.339
 2213SOL    HW1 2024   3.317   3.447   2.265
 2213SOL    HW2 2025   3.210   3.524   2.362
 2215SOL     OW 2026   3.142   2.789   2.534
 2215SOL    HW1 2027   3.202   2.708   2.536
 2215SOL    HW2 2028   3.182   2.858   2.474
 2216SOL     OW 2029   2.692   3.135   3.284
 2216SOL    HW1 2030   2.687   3.168   3.379
 2216SOL    HW2 2031   2.606   3.154   3.238
 2217SOL     OW 2032   2.534   3.478   2.016
 2217SOL    HW1 2033   2.543   3.488   1.917
 2217SOL    HW2 2034   2.494   3.389   2.037
 2219SOL     OW 2035   3.703   2.037   2.825
 2219SOL    HW1 2036   3.742   1.952   2.789
 2219SOL    HW2 2037   3.605   2.039   2.806
 2220SOL     OW 2038   2.125   2.188   2.582
 2220SOL    HW1 2039   2.046   2.239   2.548
 2220SOL    HW2 2040   2.116   2.173   2.680
 2221SOL     OW 2041   3.056   3.474   1.893
 2221SOL    HW1 2042   3.062   3.381   1.930
 2221SOL    HW2 2043   2.997   3.474   1.813
 2222SOL     OW 2044   2.684   2.864   3.234
 2222SOL    HW1 2045   2.724   2.863   3.142
 2222SOL    HW2 2046   2.694   2.956   3.274
 2223SOL     OW 2047   2.778   2.772   2.153
 2223SOL    HW1 2048   2.841   2.810   2.085
 2223SOL    HW2 2049   2.818   2.689   2.192
 2224SOL     OW 2050   3.366   3.469   1.906
 2224SOL    HW1 2051   3.274   3.506   1.913
 2224SOL    HW2 2052   3.404   3.489   1.816
 2225SOL     OW 2053   2.234   3.150   3.352
 2225SOL    HW1 2054   2.221   3.243   3.318
 2225SOL    HW2 2055   2.150   3.098   3.339
 2226SOL     OW 2056   3.476   3.154   3.151
 2226SOL    HW1 2057   3.536   3.157   3.231
 2226SOL    HW2 2058   3.401   3.218   3.164
 2227SOL     OW 2059   2.901   2.960   2.558
 2227SOL    HW1 2060   2.831   2.913   2.612
 2227SOL    HW2 2061   2.960   2.892   2.515
 2228SOL     OW 2062   2.876   2.098   2.833
 2228SOL    HW1 2063   2.868   2.062   2.740
 2228SOL    HW2 2064   2.874   2.022   2.898
 2229SOL     OW 2065   2.452   3.349   2.353
 2229SOL    HW1 2066   2.494   3.291   2.283
 2229SOL    HW2 2067   2.408   3.428   2.309
 2230SOL     OW 2068   3.571   2.247   3.243
 2230SOL    HW1 2069   3.644   2.316   3.247
 2230SOL    HW2 2070   3.599   2.172   3.184
 2231SOL     OW 2071   2.117   3.210   2.152
 2231SOL    HW1 2072   2.021   3.211   2.125
 2231SOL    HW2 2073   2.129   3.263   2.236
 2232SOL     OW 2074   1.967   2.875   3.588
 2232SOL    HW1 2075   1.890   2.842   3.642
 2232SOL    HW2 2076   2.052   2.845   3.630
 2233SOL     OW 2077   2.534   2.065   3.351
 2233SOL    HW1 2078   2.624   2.049   3.311
 2233SOL    HW2 2079   2.542   2.070   3.450
 2234SOL     OW 2080   1.937   2.207   1.895
 2234SOL    HW1 2081   1.845   2.179   1.866
 2234SOL    HW2 2082   1.968   2.284   1.839
 2235SOL     OW 2083   3.302   2.718   3.260
 2235SOL    HW1 2084   3.245   2.770   3.197
 2235SOL    HW2 2085   3.398   2.730   3.236
 2236SOL     OW 2086   1.934   2.028   2.180
 2236SOL    HW1 2087   1.917   2.111   2.126
 2236SOL    HW2 2088   2.024   1.991   2.158
 2237SOL     OW 2089   3.045   3.197   1.981
 2237SOL    HW1 2090   2.946   3.186   1.983
 2237SOL    HW2 2091   3.079   3.212   2.074
 2238SOL     OW 2092   2.475   2.704   3.293
 2238SOL    HW1 2093   2.531   2.785   3.276
 2238SOL    HW2 2094   2.534   2.624   3.296
 2239SOL     OW 2095   3.355   3.629   2.821
 2239SOL    HW1 2096   3.388   3.693   2.752
 2239SOL    HW2 2097   3.421   3.623   2.896
 2240SOL     OW 2098   2.578   2.427   3.570
 2240SOL    HW1 2099   2.597   2.492   3.644
 2240SOL    HW2 2100   2.638   2.347   3.579
 2241SOL     OW 2101   3.312   3.082   3.495
 2241SOL    HW1 2102   3.303   3.072   3.594
 2241SOL    HW2 2103   3.408   3.075   3.469
 2242SOL     OW 2104   2.252   3.603   3.422
 2242SOL    HW1 2105   2.161   3.644   3.420
 2242SOL    HW2 2106   2.245   3.509   3.454
 2243SOL     OW 2107   3.536   2.745   3.116
 2243SOL    HW1 2108   3.509   2.656   3.079
 2243SOL    HW2 2109   3.537   2.813   3.043
 2244SOL     OW 2110   3.087   2.187   2.311
 2244SOL    HW1 2111   3.152   2.113   2.300
 2244SOL    HW2 2112   3.107   2.237   2.395
 2245SOL     OW 2113   3.639   2.204   3.504
 2245SOL    HW1 2114   3.622   2.235   3.410
 2245SOL    HW2 2115   3.555   2.167   3.542
 2246SOL     OW 2116   3.592   2.796   3.379
 2246SOL    HW1 2117   3.630   2.887   3.394
 2246SOL    HW2 2118   3.584   2.779   3.280
 2247SOL     OW 2119   2.721   3.236   1.878
 2247SOL    HW1 2120   2.675   3.251   1.966
 2247SOL    HW2 2121   2.765   3.321   1.848
 2248SOL     OW 2122   2.523   3.652   2.815
 2248SOL    HW1 2123   2.477   3.740   2.802
 2248SOL    HW2 2124   2.622   3.664   2.808
 2249SOL     OW 2125   2.721   2.818   2.723
 2249SOL    HW1 2126   2.775   2.749   2.771
 2249SOL    HW2 2127   2.689   2.887   2.789
 2250SOL     OW 2128   2.945   2.846   1.949
 2250SOL    HW1 2129   2.922   2.899   1.867
 2250SOL    HW2 2130   3.026   2.790   1.930
 2251SOL     OW 2131   3.723   3.431   2.713
 2251SOL    HW1 2132   3.652   3.419   2.643
 2251SOL    HW2 2133   3.724   3.352   2.773
 2252SOL     OW 2134   2.083   3.176   3.706
 2252SOL    HW1 2135   2.018   3.103   3.685
 2252SOL    HW2 2136   2.087   3.190   3.804
 2253SOL     OW 2137   1.941   3.102   2.515
 2253SOL    HW1 2138   1.940   3.055   2.603
 2253SOL    HW2 2139   2.023   3.074   2.464
 2254SOL     OW 2140   2.534   3.253   3.486
 2254SOL    HW1 2141   2.456   3.203   3.524
 2254SOL    HW2 2142   2.531   3.348   3.517
 2255SOL     OW 2143   3.686   2.054   3.089
 2255SOL    HW1 2144   3.682   1.964   3.133
 2255SOL    HW2 2145   3.689   2.043   2.990
 2256SOL     OW 2146   3.567   3.349   2.966
 2256SOL    HW1 2147   3.474   3.324   2.939
 2256SOL    HW2 2148   3.593   3.299   3.048
 2257SOL     OW 2149   2.179   2.409   3.142
 2257SOL    HW1 2150   2.217   2.350   3.214
 2257SOL    HW2 2151   2.219   2.383   3.054
 2258SOL     OW 2152   2.674   3.448   2.549
 2258SOL    HW1 2153   2.706   3.458   2.455
 2258SOL    HW2 2154   2.595   3.386   2.551
 2259SOL     OW 2155   3.286   2.076   2.974
 2259SOL    HW1 2156   3.338   2.011   3.029
 2259SOL    HW2 2157   3.237   2.139   3.035
 2260SOL     OW 2158   2.863   1.896   3.016
 2260SOL    HW1 2159   2.800   1.824   2.985
 2260SOL    HW2 2160   2.956   1.860   3.016
 2261SOL     OW 2161   2.632   3.192   2.163
 2261SOL    HW1 2162   2.586   3.105   2.180
 2261SOL    HW2 2163   2.723   3.189   2.204
 2262SOL     OW 2164   2.480   3.429   3.146
 2262SOL    HW1 2165   2.475   3.511   3.203
 2262SOL    HW2 2166   2.569   3.426   3.101
 2263SOL     OW 2167   3.214   1.914   2.030
 2263SOL    HW1 2168   3.249   1.873   1.946
 2263SOL    HW2 2169   3.124   1.876   2.050
 2264SOL     OW 2170   3.162   2.315   2.553
 2264SOL    HW1 2171   3.103   2.395   2.557
 2264SOL    HW2 2172   3.177   2.280   2.646
 2265SOL     OW 2173   3.455   2.083   2.744
 2265SOL    HW1 2174   3.371   2.082   2.798
 2265SOL    HW2 2175   3.457   2.166   2.688
 2266SOL     OW 2176   1.901   2.939   2.162
 2266SOL    HW1 2177   2.000   2.928   2.153
 2266SOL    HW2 2178   1.861   2.853   2.194
 2267SOL     OW 2179   2.737   3.508   2.199
 2267SOL    HW1 2180   2.660   3.473   2.145
 2267SOL    HW2 2181   2.705   3.579   2.261
 2268SOL     OW 2182   2.092   2.490   3.837
 2268SOL    HW1 2183   1.999   2.488   3.874
 2268SOL    HW2 2184   2.093   2.451   3.745
 2279SOL     OW 2185   2.468   2.826   3.847
 2279SOL    HW1 2186   2.475   2.910   3.793
 2279SOL    HW2 2187   2.514   2.839   3.935
 2290SOL     OW 2188   2.460   2.591   3.994
 2290SOL    HW1 2189   2.484   2.660   3.926
 2290SOL    HW2 2190   2.382   2.624   4.048
 2295SOL     OW 2191   2.727   2.210   3.919
 2295SOL    HW1 2192   2.786   2.273   3.870
 2295SOL    HW2 2193   2.746   2.116   3.890
 2301SOL     OW 2194   2.183   2.805   3.966
 2301SOL    HW1 2195   2.265   2.844   3.924
 2301SOL    HW2 2196   2.156   2.723   3.917
 2308SOL     OW 2197   2.476   1.984   3.841
 2308SOL    HW1 2198   2.574   1.962   3.848
 2308SOL    HW2 2199   2.445   1.967   3.748
 2311SOL     OW 2200   2.159   1.897   3.895
 2311SOL    HW1 2201   2.208   1.981   3.874
 2311SOL    HW2 2202   2.221   1.832   3.940
 2316SOL     OW 2203   2.894   2.411   3.740
 2316SOL    HW1 2204   2.853   2.493   3.701
 2316SOL    HW2 2205   2.958   2.437   3.813
 2322SOL     OW 2206   3.252   2.437   3.802
 2322SOL    HW1 2207   3.198   2.416   3.883
 2322SOL    HW2 2208   3.343   2.396   3.811
 2323SOL     OW 2209   2.389   2.118   4.052
 2323SOL    HW1 2210   2.416   2.059   3.977
 2323SOL    HW2 2211   2.389   2.213   4.021
 2334SOL     OW 2212   3.165   2.700   3.766
 2334SOL    HW1 2213   3.199   2.607   3.781
 2334SOL    HW2 2214   3.183   2.727   3.671
 2339SOL     OW 2215   2.677   2.434   4.049
 2339SOL    HW1 2216   2.684   2.345   4.003
 2339SOL    HW2 2217   2.583   2.468   4.041
 2340SOL     OW 2218   2.335   2.362   3.915
 2340SOL    HW1 2219   2.396   2.442   3.919
 2340SOL    HW2 2220   2.240   2.393   3.922
 2349SOL     OW 2221   2.778   2.772   4.015
 2349SOL    HW1 2222   2.841   2.810   3.947
 2349SOL    HW2 2223   2.818   2.689   4.054
 2354SOL     OW 2224   1.937   2.207   3.757
 2354SOL    HW1 2225   1.845   2.179   3.728
 2354SOL    HW2 2226   1.968   2.284   3.701
 2355SOL     OW 2227   1.934   2.028   4.042
 2355SOL    HW1 2228   1.917   2.111   3.988
 2355SOL    HW2 2229   2.024   1.991   4.020
 2359SOL     OW 2230   2.721   3.236   3.740
 2359SOL    HW1 2231   2.675   3.251   3.828
 2359SOL    HW2 2232   2.765   3.321   3.710
 2362SOL     OW 2233   2.945   2.846   3.811
 2362SOL    HW1 2234   2.922   2.899   3.729
 2362SOL    HW2 2235   3.026   2.790   3.792
 2386SOL     OW 2236   2.179   3.975   1.801
 2386SOL    HW1 2237   2.250   4.046   1.807
 2386SOL    HW2 2238   2.091   4.014   1.829
 2403SOL     OW 2239   2.643   3.988   1.749
 2403SOL    HW1 2240   2.710   3.927   1.792
 2403SOL    HW2 2241   2.570   4.007   1.814
 2419SOL     OW 2242   2.777   3.813   1.402
 2419SOL    HW1 2243   2.802   3.793   1.307
 2419SOL    HW2 2244   2.849   3.869   1.444
 2426SOL     OW 2245   2.875   3.829   1.770
 2426SOL    HW1 2246   2.881   3.914   1.718
 2426SOL    HW2 2247   2.907   3.753   1.713
 2427SOL     OW 2248   2.366   3.774   1.740
 2427SOL    HW1 2249   2.324   3.717   1.670
 2427SOL    HW2 2250   2.300   3.843   1.772
 2478SOL     OW 2251   2.087   3.999   2.858
 2478SOL    HW1 2252   2.122   3.982   2.950
 2478SOL    HW2 2253   1.999   3.954   2.846
 2489SOL     OW 2254   2.671   3.728   2.364
 2489SOL    HW1 2255   2.711   3.819   2.355
 2489SOL    HW2 2256   2.571   3.736   2.370
 2499SOL     OW 2257   2.727   4.072   2.057
 2499SOL    HW1 2258   2.786   4.135   2.008
 2499SOL    HW2 2259   2.746   3.978   2.028
 2501SOL     OW 2260   2.412   3.920   2.747
 2501SOL    HW1 2261   2.407   3.915   2.847
 2501SOL    HW2 2262   2.414   4.016   2.718
 2504SOL     OW 2263   3.262   3.831   2.288
 2504SOL    HW1 2264   3.238   3.794   2.198
 2504SOL    HW2 2265   3.361   3.847   2.292
 2507SOL     OW 2266   2.476   3.846   1.979
 2507SOL    HW1 2267   2.574   3.824   1.986
 2507SOL    HW2 2268   2.445   3.829   1.886
 2511SOL     OW 2269   2.401   3.788   2.374
 2511SOL    HW1 2270   2.320   3.789   2.432
 2511SOL    HW2 2271   2.404   3.871   2.319
 2512SOL     OW 2272   2.159   3.759   2.033
 2512SOL    HW1 2273   2.208   3.843   2.012
 2512SOL    HW2 2274   2.221   3.694   2.078
 2513SOL     OW 2275   2.797   3.960   2.342
 2513SOL    HW1 2276   2.749   4.001   2.264
 2513SOL    HW2 2277   2.896   3.958   2.323
 2517SOL     OW 2278   2.423   3.946   3.009
 2517SOL    HW1 2279   2.461   3.862   3.046
 2517SOL    HW2 2280   2.335   3.965   3.053
 2519SOL     OW 2281   2.879   3.763   2.615
 2519SOL    HW1 2282   2.807   3.768   2.546
 2519SOL    HW2 2283   2.855   3.694   2.684
 2523SOL     OW 2284   2.389   3.980   2.190
 2523SOL    HW1 2285   2.416   3.921   2.115
 2523SOL    HW2 2286   2.389   4.075   2.159
 2524SOL     OW 2287   2.777   3.813   3.264
 2524SOL    HW1 2288   2.802   3.793   3.169
 2524SOL    HW2 2289   2.849   3.869   3.306
 2536SOL     OW 2290   2.169   3.937   3.093
 2536SOL    HW1 2291   2.146   3.974   3.183
 2536SOL    HW2 2292   2.139   3.842   3.087
 2539SOL     OW 2293   2.169   3.787   2.480
 2539SOL    HW1 2294   2.158   3.881   2.513
 2539SOL    HW2 2295   2.164   3.724   2.557
 2559SOL     OW 2296   2.125   4.050   2.582
 2559SOL    HW1 2297   2.046   4.101   2.548
 2559SOL    HW2 2298   2.116   4.035   2.680
 2561SOL     OW 2299   2.876   3.960   2.833
 2561SOL    HW1 2300   2.868   3.924   2.740
 2561SOL    HW2 2301   2.874   3.884   2.898
 2567SOL     OW 2302   1.934   3.890   2.180
 2567SOL    HW1 2303   1.917   3.973   2.126
 2567SOL    HW2 2304   2.024   3.853   2.158
 2579SOL     OW 2305   2.863   3.758   3.016
 2579SOL    HW1 2306   2.800   3.686   2.985
 2579SOL    HW2 2307   2.956   3.722   3.016
 2580SOL     OW 2308   3.214   3.776   2.030
 2580SOL    HW1 2309   3.249   3.735   1.946
 2580SOL    HW2 2310   3.124   3.738   2.050
 2662SOL     OW 2311   3.854   1.821   1.571
 2662SOL    HW1 2312   3.844   1.806   1.670
 2662SOL    HW2 2313   3.768   1.857   1.535
 2717SOL     OW 2314   3.854   1.794   1.851
 2717SOL    HW1 2315   3.813   1.720   1.904
 2717SOL    HW2 2316   3.918   1.845   1.909
 2755SOL     OW 2317   3.955   1.713   2.345
 2755SOL    HW1 2318   3.989   1.790   2.399
 2755SOL    HW2 2319   3.999   1.713   2.255
 2761SOL     OW 2320   3.751   1.596   1.979
 2761SOL    HW1 2321   3.732   1.500   2.000
 2761SOL    HW2 2322   3.718   1.654   2.054
 2812SOL     OW 2323   3.732   1.326   2.062
 2812SOL    HW1 2324   3.639   1.347   2.031
 2812SOL    HW2 2325   3.742   1.227   2.075
 2813SOL     OW 2326   3.812   1.801   2.789
 2813SOL    HW1 2327   3.770   1.715   2.762
 2813SOL    HW2 2328   3.906   1.804   2.755
 2928SOL     OW 2329   3.837   2.599   1.597
 2928SOL    HW1 2330   3.925   2.586   1.642
 2928SOL    HW2 2331   3.824   2.696   1.575
 2932SOL     OW 2332   4.041   2.113   1.801
 2932SOL    HW1 2333   4.112   2.184   1.807
 2932SOL    HW2 2334   3.953   2.152   1.829
 2954SOL     OW 2335   3.802   2.418   1.386
 2954SOL    HW1 2336   3.894   2.417   1.345
 2954SOL    HW2 2337   3.796   2.492   1.453
 2981SOL     OW 2338   3.913   2.382   1.722
 2981SOL    HW1 2339   3.972   2.342   1.652
 2981SOL    HW2 2340   3.855   2.453   1.681
 2999SOL     OW 2341   3.829   2.875   1.726
 2999SOL    HW1 2342   3.752   2.842   1.780
 2999SOL    HW2 2343   3.914   2.845   1.768
 3019SOL     OW 2344   3.954   2.490   1.975
 3019SOL    HW1 2345   3.861   2.488   2.012
 3019SOL    HW2 2346   3.955   2.451   1.883
 3020SOL     OW 2347   3.949   2.137   2.858
 3020SOL    HW1 2348   3.984   2.120   2.950
 3020SOL    HW2 2349   3.861   2.092   2.846
 3021SOL     OW 2350   3.743   2.230   2.509
 3021SOL    HW1 2351   3.661   2.273   2.548
 3021SOL    HW2 2352   3.715   2.157   2.446
 3031SOL     OW 2353   3.964   2.953   2.748
 3031SOL    HW1 2354   3.978   2.869   2.800
 3031SOL    HW2 2355   3.909   3.017   2.803
 3034SOL     OW 2356   3.846   2.505   2.425
 3034SOL    HW1 2357   3.801   2.417   2.442
 3034SOL    HW2 2358   3.845   2.559   2.509
 3043SOL     OW 2359   3.800   2.673   2.651
 3043SOL    HW1 2360   3.899   2.661   2.660
 3043SOL    HW2 2361   3.776   2.768   2.672
 3049SOL     OW 2362   4.045   2.805   2.104
 3049SOL    HW1 2363   4.127   2.844   2.062
 3049SOL    HW2 2364   4.018   2.723   2.055
 3055SOL     OW 2365   4.106   2.562   2.342
 3055SOL    HW1 2366   4.151   2.472   2.339
 3055SOL    HW2 2367   4.012   2.551   2.375
 3061SOL     OW 2368   4.021   1.897   2.033
 3061SOL    HW1 2369   4.070   1.981   2.012
 3061SOL    HW2 2370   4.083   1.832   2.078
 3063SOL     OW 2371   3.802   2.418   3.248
 3063SOL    HW1 2372   3.894   2.417   3.207
 3063SOL    HW2 2373   3.796   2.492   3.315
 3080SOL     OW 2374   4.031   1.925   2.480
 3080SOL    HW1 2375   4.020   2.019   2.513
 3080SOL    HW2 2376   4.026   1.862   2.557
 3084SOL     OW 2377   4.043   2.672   2.811
 3084SOL    HW1 2378   4.136   2.708   2.816
 3084SOL    HW2 2379   4.037   2.587   2.863
 3086SOL     OW 2380   3.732   3.188   2.062
 3086SOL    HW1 2381   3.639   3.209   2.031
 3086SOL    HW2 2382   3.742   3.089   2.075
 3089SOL     OW 2383   3.764   2.406   2.976
 3089SOL    HW1 2384   3.849   2.373   2.935
 3089SOL    HW2 2385   3.777   2.421   3.074
 3096SOL     OW 2386   3.807   3.120   2.884
 3096SOL    HW1 2387   3.802   3.119   2.984
 3096SOL    HW2 2388   3.724   3.079   2.846
 3102SOL     OW 2389   3.987   2.188   2.582
 3102SOL    HW1 2390   3.908   2.239   2.548
 3102SOL    HW2 2391   3.978   2.173   2.680
 3109SOL     OW 2392   3.799   2.207   1.895
 3109SOL    HW1 2393   3.707   2.179   1.866
 3109SOL    HW2 2394   3.830   2.284   1.839
 3110SOL     OW 2395   3.796   2.028   2.180
 3110SOL    HW1 2396   3.779   2.111   2.126
 3110SOL    HW2 2397   3.886   1.991   2.158
 3118SOL     OW 2398   3.803   3.102   2.515
 3118SOL    HW1 2399   3.802   3.055   2.603
 3118SOL    HW2 2400   3.885   3.074   2.464
 3126SOL     OW 2401   3.763   2.939   2.162
 3126SOL    HW1 2402   3.862   2.928   2.153
 3126SOL    HW2 2403   3.723   2.853   2.194
   4.68387   4.68387   4.68387
