; mobley_4219614_GMX.top created by acpype (v: 2023.10.27) on Tue May 19 12:45:46 2026

[ defaults ]
; nbfunc        comb-rule       gen-pairs       fudgeLJ fudgeQQ
1               2               yes             0.5     0.8333333333

; Include mobley_4219614_GMX.itp topology
#include "mobley_4219614_GMX.itp"

; Ligand position restraints
#ifdef POSRES_LIG
#include "posre_mobley_4219614.itp"
#endif


#include "/home/carla/github/Solvation-openMM/DADES/common/SOL.TIP3P.itp"

[ system ]
mobley_4219614 in water

[ molecules ]
; Compound        nmols
 mobley_4219614   1     
SOL 798
