; mobley_7106722_GMX.top created by acpype (v: 2023.10.27) on Thu May 21 00:14:47 2026

[ defaults ]
; nbfunc        comb-rule       gen-pairs       fudgeLJ fudgeQQ
1               2               yes             0.5     0.8333333333

; Include mobley_7106722_GMX.itp topology
#include "mobley_7106722_GMX.itp"

; Ligand position restraints
#ifdef POSRES_LIG
#include "posre_mobley_7106722.itp"
#endif


#include "/home/carla/github/Solvation-openMM/DADES/common/SOL.TIP3P.itp"

[ system ]
mobley_7106722 in water

[ molecules ]
; Compound        nmols
 mobley_7106722   1     
SOL 795
