; mobley_6714389_GMX.itp created by acpype (v: 2023.10.27) on Thu May 21 00:02:04 2026

[ atomtypes ]
;name   bond_type     mass     charge   ptype   sigma         epsilon       Amb
 c3       c3          0.00000  0.00000   A     3.39771e-01   4.51035e-01 ; 1.91  0.1078
 n8       n8          0.00000  0.00000   A     3.65019e-01   1.35143e-01 ; 2.05  0.0323
 h1       h1          0.00000  0.00000   A     2.42200e-01   8.70272e-02 ; 1.36  0.0208
 hn       hn          0.00000  0.00000   A     1.10650e-01   4.18400e-02 ; 0.62  0.0100

[ moleculetype ]
;name            nrexcl
 mobley_6714389   3

[ atoms ]
;   nr  type  resi  res  atom  cgnr     charge      mass       ; qtot   bond_type
     1   c3     1   MOL    C1    1     0.147100     12.01000 ; qtot 0.147
     2   n8     1   MOL    N1    2    -0.919800     14.01000 ; qtot -0.773
     3   h1     1   MOL    H1    3     0.025700      1.00800 ; qtot -0.747
     4   h1     1   MOL    H2    4     0.025700      1.00800 ; qtot -0.721
     5   h1     1   MOL    H3    5     0.025700      1.00800 ; qtot -0.696
     6   hn     1   MOL    H4    6     0.347800      1.00800 ; qtot -0.348
     7   hn     1   MOL    H5    7     0.347800      1.00800 ; qtot -0.000

[ bonds ]
;   ai     aj funct   r             k
     1      2   1    1.4651e-01    2.1239e+05 ;     C1 - N1    
     1      3   1    1.0969e-01    2.8804e+05 ;     C1 - H1    
     1      4   1    1.0969e-01    2.8804e+05 ;     C1 - H2    
     1      5   1    1.0969e-01    2.8804e+05 ;     C1 - H3    
     2      6   1    1.0192e-01    3.8550e+05 ;     N1 - H4    
     2      7   1    1.0192e-01    3.8550e+05 ;     N1 - H5    

[ pairs ]
;   ai     aj    funct
     3      6      1 ;     H1 - H4    
     3      7      1 ;     H1 - H5    
     4      6      1 ;     H2 - H4    
     4      7      1 ;     H2 - H5    
     5      6      1 ;     H3 - H4    
     5      7      1 ;     H3 - H5    

[ angles ]
;   ai     aj     ak    funct   theta         cth
     1      2      6      1    1.0961e+02    4.7003e+02 ;     C1 - N1     - H4    
     1      2      7      1    1.0961e+02    4.7003e+02 ;     C1 - N1     - H5    
     2      1      3      1    1.0812e+02    4.0342e+02 ;     N1 - C1     - H1    
     2      1      4      1    1.0812e+02    4.0342e+02 ;     N1 - C1     - H2    
     2      1      5      1    1.0812e+02    4.0342e+02 ;     N1 - C1     - H3    
     3      1      4      1    1.0855e+02    2.9824e+02 ;     H1 - C1     - H2    
     3      1      5      1    1.0855e+02    2.9824e+02 ;     H1 - C1     - H3    
     4      1      5      1    1.0855e+02    2.9824e+02 ;     H2 - C1     - H3    
     6      2      7      1    1.0638e+02    4.0074e+02 ;     H4 - N1     - H5    

[ dihedrals ] ; propers
; for gromacs 4.5 or higher, using funct 9
;    i      j      k      l   func   phase     kd      pn
     3      1      2      6      9     0.00   1.25520   3 ;     H1-    C1-    N1-    H4
     3      1      2      7      9     0.00   1.25520   3 ;     H1-    C1-    N1-    H5
     4      1      2      6      9     0.00   1.25520   3 ;     H2-    C1-    N1-    H4
     4      1      2      7      9     0.00   1.25520   3 ;     H2-    C1-    N1-    H5
     5      1      2      6      9     0.00   1.25520   3 ;     H3-    C1-    N1-    H4
     5      1      2      7      9     0.00   1.25520   3 ;     H3-    C1-    N1-    H5
