; mobley_2523689_GMX.itp created by acpype (v: 2023.10.27) on Wed May 20 23:59:23 2026

[ atomtypes ]
;name   bond_type     mass     charge   ptype   sigma         epsilon       Amb
 ca       ca          0.00000  0.00000   A     3.31521e-01   4.13379e-01 ; 1.86  0.0988
 cc       cc          0.00000  0.00000   A     3.31521e-01   4.13379e-01 ; 1.86  0.0988
 cd       cd          0.00000  0.00000   A     3.31521e-01   4.13379e-01 ; 1.86  0.0988
 c        c           0.00000  0.00000   A     3.31521e-01   4.13379e-01 ; 1.86  0.0988
 nd       nd          0.00000  0.00000   A     3.38417e-01   3.93714e-01 ; 1.90  0.0941
 n        n           0.00000  0.00000   A     3.18086e-01   6.84502e-01 ; 1.79  0.1636
 nv       nv          0.00000  0.00000   A     3.36813e-01   4.68608e-01 ; 1.89  0.1120
 o        o           0.00000  0.00000   A     3.04812e-01   6.12119e-01 ; 1.71  0.1463
 cl       cl          0.00000  0.00000   A     3.46595e-01   1.10374e+00 ; 1.95  0.2638
 ha       ha          0.00000  0.00000   A     2.62548e-01   6.73624e-02 ; 1.47  0.0161
 h4       h4          0.00000  0.00000   A     2.53639e-01   6.73624e-02 ; 1.42  0.0161
 hn       hn          0.00000  0.00000   A     1.10650e-01   4.18400e-02 ; 0.62  0.0100

[ moleculetype ]
;name            nrexcl
 mobley_2523689   3

[ atoms ]
;   nr  type  resi  res  atom  cgnr     charge      mass       ; qtot   bond_type
     1   ca     1   MOL    C1    1    -0.126000     12.01000 ; qtot -0.126
     2   ca     1   MOL    C2    2    -0.126000     12.01000 ; qtot -0.252
     3   ca     1   MOL    C3    3    -0.126000     12.01000 ; qtot -0.378
     4   ca     1   MOL    C4    4    -0.111000     12.01000 ; qtot -0.489
     5   ca     1   MOL    C5    5    -0.111000     12.01000 ; qtot -0.600
     6   ca     1   MOL    C6    6     0.052600     12.01000 ; qtot -0.547
     7   cc     1   MOL    C7    7     0.297500     12.01000 ; qtot -0.250
     8   cc     1   MOL    C8    8     0.136400     12.01000 ; qtot -0.114
     9   cd     1   MOL    C9    9    -0.212800     12.01000 ; qtot -0.326
    10    c     1   MOL   C10   10     0.706700     12.01000 ; qtot 0.380
    11   nd     1   MOL    N1   11    -0.385300     14.01000 ; qtot -0.005
    12    n     1   MOL    N2   12    -0.124000     14.01000 ; qtot -0.129
    13   nv     1   MOL    N3   13    -0.844600     14.01000 ; qtot -0.973
    14    o     1   MOL    O1   14    -0.592500     16.00000 ; qtot -1.566
    15   cl     1   MOL   CL1   15    -0.062400     35.45000 ; qtot -1.628
    16   ha     1   MOL    H1   16     0.134000      1.00800 ; qtot -1.494
    17   ha     1   MOL    H2   17     0.136500      1.00800 ; qtot -1.358
    18   ha     1   MOL    H3   18     0.136500      1.00800 ; qtot -1.221
    19   ha     1   MOL    H4   19     0.150500      1.00800 ; qtot -1.071
    20   ha     1   MOL    H5   20     0.150500      1.00800 ; qtot -0.920
    21   h4     1   MOL    H6   21     0.050800      1.00800 ; qtot -0.870
    22   hn     1   MOL    H7   22     0.434800      1.00800 ; qtot -0.435
    23   hn     1   MOL    H8   23     0.434800      1.00800 ; qtot -0.000

[ bonds ]
;   ai     aj funct   r             k
     1      2   1    1.3986e-01    2.9644e+05 ;     C1 - C2    
     1      3   1    1.3986e-01    2.9644e+05 ;     C1 - C3    
     1     16   1    1.0860e-01    3.0183e+05 ;     C1 - H1    
     2      4   1    1.3986e-01    2.9644e+05 ;     C2 - C4    
     2     17   1    1.0860e-01    3.0183e+05 ;     C2 - H2    
     3      5   1    1.3986e-01    2.9644e+05 ;     C3 - C5    
     3     18   1    1.0860e-01    3.0183e+05 ;     C3 - H3    
     4      6   1    1.3986e-01    2.9644e+05 ;     C4 - C6    
     4     19   1    1.0860e-01    3.0183e+05 ;     C4 - H4    
     5      6   1    1.3986e-01    2.9644e+05 ;     C5 - C6    
     5     20   1    1.0860e-01    3.0183e+05 ;     C5 - H5    
     6     12   1    1.4228e-01    2.4360e+05 ;     C6 - N2    
     7      8   1    1.4274e-01    2.6947e+05 ;     C7 - C8    
     7     11   1    1.3158e-01    3.5122e+05 ;     C7 - N1    
     7     21   1    1.0809e-01    3.0854e+05 ;     C7 - H6    
     8      9   1    1.3730e-01    3.2321e+05 ;     C8 - C9    
     8     13   1    1.3685e-01    2.9226e+05 ;     C8 - N3    
     9     10   1    1.4728e-01    2.3273e+05 ;     C9 - C10   
     9     15   1    1.7333e-01    1.6771e+05 ;     C9 - CL1   
    10     12   1    1.3967e-01    2.6565e+05 ;    C10 - N2    
    10     14   1    1.2190e-01    4.9421e+05 ;    C10 - O1    
    11     12   1    1.3683e-01    2.3377e+05 ;     N1 - N2    
    13     22   1    1.0114e-01    3.9961e+05 ;     N3 - H7    
    13     23   1    1.0114e-01    3.9961e+05 ;     N3 - H8    

[ pairs ]
;   ai     aj    funct
     1      6      1 ;     C1 - C6    
     1     19      1 ;     C1 - H4    
     1     20      1 ;     C1 - H5    
     2      5      1 ;     C2 - C5    
     2     12      1 ;     C2 - N2    
     2     18      1 ;     C2 - H3    
     3      4      1 ;     C3 - C4    
     3     12      1 ;     C3 - N2    
     3     17      1 ;     C3 - H2    
     4     10      1 ;     C4 - C10   
     4     11      1 ;     C4 - N1    
     4     20      1 ;     C4 - H5    
     5     10      1 ;     C5 - C10   
     5     11      1 ;     C5 - N1    
     5     19      1 ;     C5 - H4    
     6      7      1 ;     C6 - C7    
     6      9      1 ;     C6 - C9    
     6     14      1 ;     C6 - O1    
     6     17      1 ;     C6 - H2    
     6     18      1 ;     C6 - H3    
     7     10      1 ;     C7 - C10   
     7     15      1 ;     C7 - CL1   
     7     22      1 ;     C7 - H7    
     7     23      1 ;     C7 - H8    
     8     12      1 ;     C8 - N2    
     8     14      1 ;     C8 - O1    
     9     11      1 ;     C9 - N1    
     9     21      1 ;     C9 - H6    
     9     22      1 ;     C9 - H7    
     9     23      1 ;     C9 - H8    
    10     13      1 ;    C10 - N3    
    11     13      1 ;     N1 - N3    
    11     14      1 ;     N1 - O1    
    12     15      1 ;     N2 - CL1   
    12     19      1 ;     N2 - H4    
    12     20      1 ;     N2 - H5    
    12     21      1 ;     N2 - H6    
    13     15      1 ;     N3 - CL1   
    13     21      1 ;     N3 - H6    
    14     15      1 ;     O1 - CL1   
    16      4      1 ;     H1 - C4    
    16      5      1 ;     H1 - C5    
    16     17      1 ;     H1 - H2    
    16     18      1 ;     H1 - H3    
    17     19      1 ;     H2 - H4    
    18     20      1 ;     H3 - H5    

[ angles ]
;   ai     aj     ak    funct   theta         cth
     1      2      4      1    1.2002e+02    5.3279e+02 ;     C1 - C2     - C4    
     1      2     17      1    1.1988e+02    3.7572e+02 ;     C1 - C2     - H2    
     1      3      5      1    1.2002e+02    5.3279e+02 ;     C1 - C3     - C5    
     1      3     18      1    1.1988e+02    3.7572e+02 ;     C1 - C3     - H3    
     2      1      3      1    1.2002e+02    5.3279e+02 ;     C2 - C1     - C3    
     2      1     16      1    1.1988e+02    3.7572e+02 ;     C2 - C1     - H1    
     2      4      6      1    1.2002e+02    5.3279e+02 ;     C2 - C4     - C6    
     2      4     19      1    1.1988e+02    3.7572e+02 ;     C2 - C4     - H4    
     3      1     16      1    1.1988e+02    3.7572e+02 ;     C3 - C1     - H1    
     3      5      6      1    1.2002e+02    5.3279e+02 ;     C3 - C5     - C6    
     3      5     20      1    1.1988e+02    3.7572e+02 ;     C3 - C5     - H5    
     4      2     17      1    1.1988e+02    3.7572e+02 ;     C4 - C2     - H2    
     4      6      5      1    1.2002e+02    5.3279e+02 ;     C4 - C6     - C5    
     4      6     12      1    1.2019e+02    5.6032e+02 ;     C4 - C6     - N2    
     5      3     18      1    1.1988e+02    3.7572e+02 ;     C5 - C3     - H3    
     5      6     12      1    1.2019e+02    5.6032e+02 ;     C5 - C6     - N2    
     6      4     19      1    1.1988e+02    3.7572e+02 ;     C6 - C4     - H4    
     6      5     20      1    1.1988e+02    3.7572e+02 ;     C6 - C5     - H5    
     6     12     10      1    1.2266e+02    6.4609e+02 ;     C6 - N2     - C10   
     6     12     11      1    1.1395e+02    7.1839e+02 ;     C6 - N2     - N1    
     7      8      9      1    1.1919e+02    5.3363e+02 ;     C7 - C8     - C9    
     7      8     13      1    1.2028e+02    5.6476e+02 ;     C7 - C8     - N3    
     7     11     12      1    1.0740e+02    7.6952e+02 ;     C7 - N1     - N2    
     8      7     11      1    1.2605e+02    5.6091e+02 ;     C8 - C7     - N1    
     8      7     21      1    1.2688e+02    3.5941e+02 ;     C8 - C7     - H6    
     8      9     10      1    1.2132e+02    5.1965e+02 ;     C8 - C9     - C10   
     8      9     15      1    1.2336e+02    5.3513e+02 ;     C8 - C9     - CL1   
     8     13     22      1    1.1650e+02    4.8526e+02 ;     C8 - N3     - H7    
     8     13     23      1    1.1650e+02    4.8526e+02 ;     C8 - N3     - H8    
     9      8     13      1    1.2647e+02    5.6216e+02 ;     C9 - C8     - N3    
     9     10     12      1    1.1259e+02    5.6844e+02 ;     C9 - C10    - N2    
     9     10     14      1    1.2371e+02    6.5530e+02 ;     C9 - C10    - O1    
    10      9     15      1    1.1644e+02    5.4099e+02 ;    C10 - C9     - CL1   
    10     12     11      1    1.2514e+02    6.9237e+02 ;    C10 - N2     - N1    
    11      7     21      1    1.1836e+02    4.2133e+02 ;     N1 - C7     - H6    
    12     10     14      1    1.2257e+02    7.2534e+02 ;     N2 - C10    - O1    
    22     13     23      1    1.1528e+02    3.8794e+02 ;     H7 - N3     - H8    

[ dihedrals ] ; propers
; for gromacs 4.5 or higher, using funct 9
;    i      j      k      l   func   phase     kd      pn
     1      2      4      6      9   180.00  15.16700   2 ;     C1-    C2-    C4-    C6
     1      2      4     19      9   180.00  15.16700   2 ;     C1-    C2-    C4-    H4
     1      3      5      6      9   180.00  15.16700   2 ;     C1-    C3-    C5-    C6
     1      3      5     20      9   180.00  15.16700   2 ;     C1-    C3-    C5-    H5
     2      1      3      5      9   180.00  15.16700   2 ;     C2-    C1-    C3-    C5
     2      1      3     18      9   180.00  15.16700   2 ;     C2-    C1-    C3-    H3
     2      4      6      5      9   180.00  15.16700   2 ;     C2-    C4-    C6-    C5
     2      4      6     12      9   180.00  15.16700   2 ;     C2-    C4-    C6-    N2
     3      1      2      4      9   180.00  15.16700   2 ;     C3-    C1-    C2-    C4
     3      1      2     17      9   180.00  15.16700   2 ;     C3-    C1-    C2-    H2
     3      5      6      4      9   180.00  15.16700   2 ;     C3-    C5-    C6-    C4
     3      5      6     12      9   180.00  15.16700   2 ;     C3-    C5-    C6-    N2
     4      6      5     20      9   180.00  15.16700   2 ;     C4-    C6-    C5-    H5
     4      6     12     10      9   180.00   3.97480   2 ;     C4-    C6-    N2-   C10
     4      6     12     11      9   180.00   1.88280   2 ;     C4-    C6-    N2-    N1
     5      6      4     19      9   180.00  15.16700   2 ;     C5-    C6-    C4-    H4
     5      6     12     10      9   180.00   3.97480   2 ;     C5-    C6-    N2-   C10
     5      6     12     11      9   180.00   1.88280   2 ;     C5-    C6-    N2-    N1
     6      4      2     17      9   180.00  15.16700   2 ;     C6-    C4-    C2-    H2
     6      5      3     18      9   180.00  15.16700   2 ;     C6-    C5-    C3-    H3
     6     12     10      9      9   180.00  10.46000   2 ;     C6-    N2-   C10-    C9
     6     12     10     14      9   180.00  10.46000   2 ;     C6-    N2-   C10-    O1
     6     12     11      7      9   180.00  20.08320   2 ;     C6-    N2-    N1-    C7
     7      8      9     10      9   180.00  16.73600   2 ;     C7-    C8-    C9-   C10
     7      8      9     15      9   180.00  16.73600   2 ;     C7-    C8-    C9-   CL1
     7      8     13     22      9   180.00   4.39320   2 ;     C7-    C8-    N3-    H7
     7      8     13     23      9   180.00   4.39320   2 ;     C7-    C8-    N3-    H8
     7     11     12     10      9   180.00  20.08320   2 ;     C7-    N1-    N2-   C10
     8      7     11     12      9   180.00  19.87400   2 ;     C8-    C7-    N1-    N2
     8      9     10     12      9   180.00  12.02900   2 ;     C8-    C9-   C10-    N2
     8      9     10     14      9   180.00  12.02900   2 ;     C8-    C9-   C10-    O1
     9      8      7     11      9   180.00  16.73600   2 ;     C9-    C8-    C7-    N1
     9      8      7     21      9   180.00  16.73600   2 ;     C9-    C8-    C7-    H6
     9      8     13     22      9   180.00   4.39320   2 ;     C9-    C8-    N3-    H7
     9      8     13     23      9   180.00   4.39320   2 ;     C9-    C8-    N3-    H8
     9     10     12     11      9   180.00  10.46000   2 ;     C9-   C10-    N2-    N1
    10      9      8     13      9   180.00  16.73600   2 ;    C10-    C9-    C8-    N3
    11      7      8     13      9   180.00  16.73600   2 ;     N1-    C7-    C8-    N3
    11     12     10     14      9   180.00  10.46000   2 ;     N1-    N2-   C10-    O1
    12      6      4     19      9   180.00  15.16700   2 ;     N2-    C6-    C4-    H4
    12      6      5     20      9   180.00  15.16700   2 ;     N2-    C6-    C5-    H5
    12     10      9     15      9   180.00  12.02900   2 ;     N2-   C10-    C9-   CL1
    12     11      7     21      9   180.00  19.87400   2 ;     N2-    N1-    C7-    H6
    13      8      7     21      9   180.00  16.73600   2 ;     N3-    C8-    C7-    H6
    13      8      9     15      9   180.00  16.73600   2 ;     N3-    C8-    C9-   CL1
    14     10      9     15      9   180.00  12.02900   2 ;     O1-   C10-    C9-   CL1
    16      1      2      4      9   180.00  15.16700   2 ;     H1-    C1-    C2-    C4
    16      1      2     17      9   180.00  15.16700   2 ;     H1-    C1-    C2-    H2
    16      1      3      5      9   180.00  15.16700   2 ;     H1-    C1-    C3-    C5
    16      1      3     18      9   180.00  15.16700   2 ;     H1-    C1-    C3-    H3
    17      2      4     19      9   180.00  15.16700   2 ;     H2-    C2-    C4-    H4
    18      3      5     20      9   180.00  15.16700   2 ;     H3-    C3-    C5-    H5

[ dihedrals ] ; impropers
; treated as propers in GROMACS to use correct AMBER analytical function
;    i      j      k      l   func   phase     kd      pn
     1      4      2     17      4   180.00   4.60240   2 ;     C1-    C4-    C2-    H2
     1      5      3     18      4   180.00   4.60240   2 ;     C1-    C5-    C3-    H3
     2      6      4     19      4   180.00   4.60240   2 ;     C2-    C6-    C4-    H4
     3      6      5     20      4   180.00   4.60240   2 ;     C3-    C6-    C5-    H5
     4      5      6     12      4   180.00   4.60240   2 ;     C4-    C5-    C6-    N2
     7      9      8     13      4   180.00   4.60240   2 ;     C7-    C9-    C8-    N3
     8     21      7     11      4   180.00   4.60240   2 ;     C8-    H6-    C7-    N1
     8     22     13     23      4   180.00   4.60240   2 ;     C8-    H7-    N3-    H8
     9     12     10     14      4   180.00  43.93200   2 ;     C9-    N2-   C10-    O1
    10      6     12     11      4   180.00   4.60240   2 ;    C10-    C6-    N2-    N1
    10      8      9     15      4   180.00   4.60240   2 ;    C10-    C8-    C9-   CL1
    16      1      3      2      4   180.00   4.60240   2 ;     H1-    C1-    C3-    C2
