; mobley_9139060_GMX.itp created by acpype (v: 2023.10.27) on Thu May 21 00:14:58 2026

[ atomtypes ]
;name   bond_type     mass     charge   ptype   sigma         epsilon       Amb
 c6       c6          0.00000  0.00000   A     3.39771e-01   4.51035e-01 ; 1.91  0.1078
 c3       c3          0.00000  0.00000   A     3.39771e-01   4.51035e-01 ; 1.91  0.1078
 hc       hc          0.00000  0.00000   A     2.60018e-01   8.70272e-02 ; 1.46  0.0208

[ moleculetype ]
;name            nrexcl
 mobley_9139060   3

[ atoms ]
;   nr  type  resi  res  atom  cgnr     charge      mass       ; qtot   bond_type
     1   c6     1   MOL    C1    1    -0.073400     12.01000 ; qtot -0.073
     2   c6     1   MOL    C2    2    -0.073400     12.01000 ; qtot -0.147
     3   c6     1   MOL    C3    3    -0.073400     12.01000 ; qtot -0.220
     4   c6     1   MOL    C4    4    -0.073400     12.01000 ; qtot -0.294
     5   c6     1   MOL    C5    5    -0.065700     12.01000 ; qtot -0.359
     6   c6     1   MOL    C6    6    -0.065700     12.01000 ; qtot -0.425
     7   c3     1   MOL    C7    7    -0.089100     12.01000 ; qtot -0.514
     8   c3     1   MOL    C8    8    -0.089100     12.01000 ; qtot -0.603
     9   hc     1   MOL    H1    9     0.039200      1.00800 ; qtot -0.564
    10   hc     1   MOL    H2   10     0.039200      1.00800 ; qtot -0.525
    11   hc     1   MOL    H3   11     0.039200      1.00800 ; qtot -0.486
    12   hc     1   MOL    H4   12     0.039200      1.00800 ; qtot -0.446
    13   hc     1   MOL    H5   13     0.039200      1.00800 ; qtot -0.407
    14   hc     1   MOL    H6   14     0.039200      1.00800 ; qtot -0.368
    15   hc     1   MOL    H7   15     0.039200      1.00800 ; qtot -0.329
    16   hc     1   MOL    H8   16     0.039200      1.00800 ; qtot -0.290
    17   hc     1   MOL    H9   17     0.046700      1.00800 ; qtot -0.243
    18   hc     1   MOL   H10   18     0.046700      1.00800 ; qtot -0.196
    19   hc     1   MOL   H11   19     0.032700      1.00800 ; qtot -0.164
    20   hc     1   MOL   H12   20     0.032700      1.00800 ; qtot -0.131
    21   hc     1   MOL   H13   21     0.032700      1.00800 ; qtot -0.098
    22   hc     1   MOL   H14   22     0.032700      1.00800 ; qtot -0.065
    23   hc     1   MOL   H15   23     0.032700      1.00800 ; qtot -0.033
    24   hc     1   MOL   H16   24     0.032700      1.00800 ; qtot -0.000

[ bonds ]
;   ai     aj funct   r             k
     1      2   1    1.5384e-01    1.8979e+05 ;     C1 - C2    
     1      5   1    1.5384e-01    1.8979e+05 ;     C1 - C5    
     1      9   1    1.0979e-01    2.8681e+05 ;     C1 - H1    
     1     10   1    1.0979e-01    2.8681e+05 ;     C1 - H2    
     2      6   1    1.5384e-01    1.8979e+05 ;     C2 - C6    
     2     11   1    1.0979e-01    2.8681e+05 ;     C2 - H3    
     2     12   1    1.0979e-01    2.8681e+05 ;     C2 - H4    
     3      4   1    1.5384e-01    1.8979e+05 ;     C3 - C4    
     3      5   1    1.5384e-01    1.8979e+05 ;     C3 - C5    
     3     13   1    1.0979e-01    2.8681e+05 ;     C3 - H5    
     3     14   1    1.0979e-01    2.8681e+05 ;     C3 - H6    
     4      6   1    1.5384e-01    1.8979e+05 ;     C4 - C6    
     4     15   1    1.0979e-01    2.8681e+05 ;     C4 - H7    
     4     16   1    1.0979e-01    2.8681e+05 ;     C4 - H8    
     5      7   1    1.5428e-01    1.8728e+05 ;     C5 - C7    
     5     17   1    1.0979e-01    2.8681e+05 ;     C5 - H9    
     6      8   1    1.5428e-01    1.8728e+05 ;     C6 - C8    
     6     18   1    1.0979e-01    2.8681e+05 ;     C6 - H10   
     7     19   1    1.0962e-01    2.8891e+05 ;     C7 - H11   
     7     20   1    1.0962e-01    2.8891e+05 ;     C7 - H12   
     7     21   1    1.0962e-01    2.8891e+05 ;     C7 - H13   
     8     22   1    1.0962e-01    2.8891e+05 ;     C8 - H14   
     8     23   1    1.0962e-01    2.8891e+05 ;     C8 - H15   
     8     24   1    1.0962e-01    2.8891e+05 ;     C8 - H16   

[ pairs ]
;   ai     aj    funct
     1      4      1 ;     C1 - C4    
     1      8      1 ;     C1 - C8    
     1     13      1 ;     C1 - H5    
     1     14      1 ;     C1 - H6    
     1     18      1 ;     C1 - H10   
     1     19      1 ;     C1 - H11   
     1     20      1 ;     C1 - H12   
     1     21      1 ;     C1 - H13   
     2      3      1 ;     C2 - C3    
     2      7      1 ;     C2 - C7    
     2     15      1 ;     C2 - H7    
     2     16      1 ;     C2 - H8    
     2     17      1 ;     C2 - H9    
     2     22      1 ;     C2 - H14   
     2     23      1 ;     C2 - H15   
     2     24      1 ;     C2 - H16   
     3      8      1 ;     C3 - C8    
     3     18      1 ;     C3 - H10   
     3     19      1 ;     C3 - H11   
     3     20      1 ;     C3 - H12   
     3     21      1 ;     C3 - H13   
     4      7      1 ;     C4 - C7    
     4     11      1 ;     C4 - H3    
     4     12      1 ;     C4 - H4    
     4     17      1 ;     C4 - H9    
     4     22      1 ;     C4 - H14   
     4     23      1 ;     C4 - H15   
     4     24      1 ;     C4 - H16   
     5      6      1 ;     C5 - C6    
     5     11      1 ;     C5 - H3    
     5     12      1 ;     C5 - H4    
     5     15      1 ;     C5 - H7    
     5     16      1 ;     C5 - H8    
     6     13      1 ;     C6 - H5    
     6     14      1 ;     C6 - H6    
     7     13      1 ;     C7 - H5    
     7     14      1 ;     C7 - H6    
     8     11      1 ;     C8 - H3    
     8     12      1 ;     C8 - H4    
     8     15      1 ;     C8 - H7    
     8     16      1 ;     C8 - H8    
     9      3      1 ;     H1 - C3    
     9      6      1 ;     H1 - C6    
     9      7      1 ;     H1 - C7    
     9     11      1 ;     H1 - H3    
     9     12      1 ;     H1 - H4    
     9     17      1 ;     H1 - H9    
    10      3      1 ;     H2 - C3    
    10      6      1 ;     H2 - C6    
    10      7      1 ;     H2 - C7    
    10     11      1 ;     H2 - H3    
    10     12      1 ;     H2 - H4    
    10     17      1 ;     H2 - H9    
    11     18      1 ;     H3 - H10   
    12     18      1 ;     H4 - H10   
    13     15      1 ;     H5 - H7    
    13     16      1 ;     H5 - H8    
    13     17      1 ;     H5 - H9    
    14     15      1 ;     H6 - H7    
    14     16      1 ;     H6 - H8    
    14     17      1 ;     H6 - H9    
    15     18      1 ;     H7 - H10   
    16     18      1 ;     H8 - H10   
    17     19      1 ;     H9 - H11   
    17     20      1 ;     H9 - H12   
    17     21      1 ;     H9 - H13   
    18     22      1 ;    H10 - H14   
    18     23      1 ;    H10 - H15   
    18     24      1 ;    H10 - H16   

[ angles ]
;   ai     aj     ak    funct   theta         cth
     1      2      6      1    1.1106e+02    5.0359e+02 ;     C1 - C2     - C6    
     1      2     11      1    1.0945e+02    3.6175e+02 ;     C1 - C2     - H3    
     1      2     12      1    1.0945e+02    3.6175e+02 ;     C1 - C2     - H4    
     1      5      3      1    1.1106e+02    5.0359e+02 ;     C1 - C5     - C3    
     1      5      7      1    1.1143e+02    5.0200e+02 ;     C1 - C5     - C7    
     1      5     17      1    1.0945e+02    3.6175e+02 ;     C1 - C5     - H9    
     2      1      5      1    1.1106e+02    5.0359e+02 ;     C2 - C1     - C5    
     2      1      9      1    1.0945e+02    3.6175e+02 ;     C2 - C1     - H1    
     2      1     10      1    1.0945e+02    3.6175e+02 ;     C2 - C1     - H2    
     2      6      4      1    1.1106e+02    5.0359e+02 ;     C2 - C6     - C4    
     2      6      8      1    1.1143e+02    5.0200e+02 ;     C2 - C6     - C8    
     2      6     18      1    1.0945e+02    3.6175e+02 ;     C2 - C6     - H10   
     3      4      6      1    1.1106e+02    5.0359e+02 ;     C3 - C4     - C6    
     3      4     15      1    1.0945e+02    3.6175e+02 ;     C3 - C4     - H7    
     3      4     16      1    1.0945e+02    3.6175e+02 ;     C3 - C4     - H8    
     3      5      7      1    1.1143e+02    5.0200e+02 ;     C3 - C5     - C7    
     3      5     17      1    1.0945e+02    3.6175e+02 ;     C3 - C5     - H9    
     4      3      5      1    1.1106e+02    5.0359e+02 ;     C4 - C3     - C5    
     4      3     13      1    1.0945e+02    3.6175e+02 ;     C4 - C3     - H5    
     4      3     14      1    1.0945e+02    3.6175e+02 ;     C4 - C3     - H6    
     4      6      8      1    1.1143e+02    5.0200e+02 ;     C4 - C6     - C8    
     4      6     18      1    1.0945e+02    3.6175e+02 ;     C4 - C6     - H10   
     5      1      9      1    1.0945e+02    3.6175e+02 ;     C5 - C1     - H1    
     5      1     10      1    1.0945e+02    3.6175e+02 ;     C5 - C1     - H2    
     5      3     13      1    1.0945e+02    3.6175e+02 ;     C5 - C3     - H5    
     5      3     14      1    1.0945e+02    3.6175e+02 ;     C5 - C3     - H6    
     5      7     19      1    1.1063e+02    3.5890e+02 ;     C5 - C7     - H11   
     5      7     20      1    1.1063e+02    3.5890e+02 ;     C5 - C7     - H12   
     5      7     21      1    1.1063e+02    3.5890e+02 ;     C5 - C7     - H13   
     6      2     11      1    1.0945e+02    3.6175e+02 ;     C6 - C2     - H3    
     6      2     12      1    1.0945e+02    3.6175e+02 ;     C6 - C2     - H4    
     6      4     15      1    1.0945e+02    3.6175e+02 ;     C6 - C4     - H7    
     6      4     16      1    1.0945e+02    3.6175e+02 ;     C6 - C4     - H8    
     6      8     22      1    1.1063e+02    3.5890e+02 ;     C6 - C8     - H14   
     6      8     23      1    1.1063e+02    3.5890e+02 ;     C6 - C8     - H15   
     6      8     24      1    1.1063e+02    3.5890e+02 ;     C6 - C8     - H16   
     7      5     17      1    1.0746e+02    3.6418e+02 ;     C7 - C5     - H9    
     8      6     18      1    1.0746e+02    3.6418e+02 ;     C8 - C6     - H10   
     9      1     10      1    1.0662e+02    3.0066e+02 ;     H1 - C1     - H2    
    11      2     12      1    1.0662e+02    3.0066e+02 ;     H3 - C2     - H4    
    13      3     14      1    1.0662e+02    3.0066e+02 ;     H5 - C3     - H6    
    15      4     16      1    1.0662e+02    3.0066e+02 ;     H7 - C4     - H8    
    19      7     20      1    1.0773e+02    2.9957e+02 ;    H11 - C7     - H12   
    19      7     21      1    1.0773e+02    2.9957e+02 ;    H11 - C7     - H13   
    20      7     21      1    1.0773e+02    2.9957e+02 ;    H12 - C7     - H13   
    22      8     23      1    1.0773e+02    2.9957e+02 ;    H14 - C8     - H15   
    22      8     24      1    1.0773e+02    2.9957e+02 ;    H14 - C8     - H16   
    23      8     24      1    1.0773e+02    2.9957e+02 ;    H15 - C8     - H16   

[ dihedrals ] ; propers
; for gromacs 4.5 or higher, using funct 9
;    i      j      k      l   func   phase     kd      pn
     1      2      6      4      9     0.00   2.17568   3 ;     C1-    C2-    C6-    C4
     1      2      6      8      9     0.00   2.17568   3 ;     C1-    C2-    C6-    C8
     1      2      6     18      9     0.00   0.54392   3 ;     C1-    C2-    C6-   H10
     1      5      3      4      9     0.00   2.17568   3 ;     C1-    C5-    C3-    C4
     1      5      3     13      9     0.00   0.54392   3 ;     C1-    C5-    C3-    H5
     1      5      3     14      9     0.00   0.54392   3 ;     C1-    C5-    C3-    H6
     1      5      7     19      9     0.00   0.54392   3 ;     C1-    C5-    C7-   H11
     1      5      7     20      9     0.00   0.54392   3 ;     C1-    C5-    C7-   H12
     1      5      7     21      9     0.00   0.54392   3 ;     C1-    C5-    C7-   H13
     2      1      5      3      9     0.00   2.17568   3 ;     C2-    C1-    C5-    C3
     2      1      5      7      9     0.00   2.17568   3 ;     C2-    C1-    C5-    C7
     2      1      5     17      9     0.00   0.54392   3 ;     C2-    C1-    C5-    H9
     2      6      4      3      9     0.00   2.17568   3 ;     C2-    C6-    C4-    C3
     2      6      4     15      9     0.00   0.54392   3 ;     C2-    C6-    C4-    H7
     2      6      4     16      9     0.00   0.54392   3 ;     C2-    C6-    C4-    H8
     2      6      8     22      9     0.00   0.54392   3 ;     C2-    C6-    C8-   H14
     2      6      8     23      9     0.00   0.54392   3 ;     C2-    C6-    C8-   H15
     2      6      8     24      9     0.00   0.54392   3 ;     C2-    C6-    C8-   H16
     3      4      6      8      9     0.00   2.17568   3 ;     C3-    C4-    C6-    C8
     3      4      6     18      9     0.00   0.54392   3 ;     C3-    C4-    C6-   H10
     3      5      7     19      9     0.00   0.54392   3 ;     C3-    C5-    C7-   H11
     3      5      7     20      9     0.00   0.54392   3 ;     C3-    C5-    C7-   H12
     3      5      7     21      9     0.00   0.54392   3 ;     C3-    C5-    C7-   H13
     4      3      5      7      9     0.00   2.17568   3 ;     C4-    C3-    C5-    C7
     4      3      5     17      9     0.00   0.54392   3 ;     C4-    C3-    C5-    H9
     4      6      2     11      9     0.00   0.54392   3 ;     C4-    C6-    C2-    H3
     4      6      2     12      9     0.00   0.54392   3 ;     C4-    C6-    C2-    H4
     4      6      8     22      9     0.00   0.54392   3 ;     C4-    C6-    C8-   H14
     4      6      8     23      9     0.00   0.54392   3 ;     C4-    C6-    C8-   H15
     4      6      8     24      9     0.00   0.54392   3 ;     C4-    C6-    C8-   H16
     5      1      2      6      9     0.00   2.17568   3 ;     C5-    C1-    C2-    C6
     5      1      2     11      9     0.00   0.54392   3 ;     C5-    C1-    C2-    H3
     5      1      2     12      9     0.00   0.54392   3 ;     C5-    C1-    C2-    H4
     5      3      4      6      9     0.00   2.17568   3 ;     C5-    C3-    C4-    C6
     5      3      4     15      9     0.00   0.54392   3 ;     C5-    C3-    C4-    H7
     5      3      4     16      9     0.00   0.54392   3 ;     C5-    C3-    C4-    H8
     6      4      3     13      9     0.00   0.54392   3 ;     C6-    C4-    C3-    H5
     6      4      3     14      9     0.00   0.54392   3 ;     C6-    C4-    C3-    H6
     7      5      3     13      9     0.00   0.54392   3 ;     C7-    C5-    C3-    H5
     7      5      3     14      9     0.00   0.54392   3 ;     C7-    C5-    C3-    H6
     8      6      2     11      9     0.00   0.54392   3 ;     C8-    C6-    C2-    H3
     8      6      2     12      9     0.00   0.54392   3 ;     C8-    C6-    C2-    H4
     8      6      4     15      9     0.00   0.54392   3 ;     C8-    C6-    C4-    H7
     8      6      4     16      9     0.00   0.54392   3 ;     C8-    C6-    C4-    H8
     9      1      2      6      9     0.00   0.54392   3 ;     H1-    C1-    C2-    C6
     9      1      2     11      9     0.00   0.50208   3 ;     H1-    C1-    C2-    H3
     9      1      2     12      9     0.00   0.50208   3 ;     H1-    C1-    C2-    H4
     9      1      5      3      9     0.00   0.54392   3 ;     H1-    C1-    C5-    C3
     9      1      5      7      9     0.00   0.54392   3 ;     H1-    C1-    C5-    C7
     9      1      5     17      9     0.00   0.50208   3 ;     H1-    C1-    C5-    H9
    10      1      2      6      9     0.00   0.54392   3 ;     H2-    C1-    C2-    C6
    10      1      2     11      9     0.00   0.50208   3 ;     H2-    C1-    C2-    H3
    10      1      2     12      9     0.00   0.50208   3 ;     H2-    C1-    C2-    H4
    10      1      5      3      9     0.00   0.54392   3 ;     H2-    C1-    C5-    C3
    10      1      5      7      9     0.00   0.54392   3 ;     H2-    C1-    C5-    C7
    10      1      5     17      9     0.00   0.50208   3 ;     H2-    C1-    C5-    H9
    11      2      6     18      9     0.00   0.50208   3 ;     H3-    C2-    C6-   H10
    12      2      6     18      9     0.00   0.50208   3 ;     H4-    C2-    C6-   H10
    13      3      4     15      9     0.00   0.50208   3 ;     H5-    C3-    C4-    H7
    13      3      4     16      9     0.00   0.50208   3 ;     H5-    C3-    C4-    H8
    13      3      5     17      9     0.00   0.50208   3 ;     H5-    C3-    C5-    H9
    14      3      4     15      9     0.00   0.50208   3 ;     H6-    C3-    C4-    H7
    14      3      4     16      9     0.00   0.50208   3 ;     H6-    C3-    C4-    H8
    14      3      5     17      9     0.00   0.50208   3 ;     H6-    C3-    C5-    H9
    15      4      6     18      9     0.00   0.50208   3 ;     H7-    C4-    C6-   H10
    16      4      6     18      9     0.00   0.50208   3 ;     H8-    C4-    C6-   H10
    17      5      7     19      9     0.00   0.50208   3 ;     H9-    C5-    C7-   H11
    17      5      7     20      9     0.00   0.50208   3 ;     H9-    C5-    C7-   H12
    17      5      7     21      9     0.00   0.50208   3 ;     H9-    C5-    C7-   H13
    18      6      8     22      9     0.00   0.50208   3 ;    H10-    C6-    C8-   H14
    18      6      8     23      9     0.00   0.50208   3 ;    H10-    C6-    C8-   H15
    18      6      8     24      9     0.00   0.50208   3 ;    H10-    C6-    C8-   H16
