; mobley_4059279_GMX.itp created by acpype (v: 2023.10.27) on Thu May 21 00:14:43 2026

[ atomtypes ]
;name   bond_type     mass     charge   ptype   sigma         epsilon       Amb
 c6       c6          0.00000  0.00000   A     3.39771e-01   4.51035e-01 ; 1.91  0.1078
 c3       c3          0.00000  0.00000   A     3.39771e-01   4.51035e-01 ; 1.91  0.1078
 n3       n3          0.00000  0.00000   A     3.36510e-01   3.58987e-01 ; 1.89  0.0858
 h1       h1          0.00000  0.00000   A     2.42200e-01   8.70272e-02 ; 1.36  0.0208

[ moleculetype ]
;name            nrexcl
 mobley_4059279   3

[ atoms ]
;   nr  type  resi  res  atom  cgnr     charge      mass       ; qtot   bond_type
     1   c6     1   MOL    C1    1     0.167800     12.01000 ; qtot 0.168
     2   c6     1   MOL    C2    2     0.167800     12.01000 ; qtot 0.336
     3   c6     1   MOL    C3    3     0.167800     12.01000 ; qtot 0.503
     4   c6     1   MOL    C4    4     0.167800     12.01000 ; qtot 0.671
     5   c3     1   MOL    C5    5     0.157100     12.01000 ; qtot 0.828
     6   c3     1   MOL    C6    6     0.157100     12.01000 ; qtot 0.985
     7   n3     1   MOL    N1    7    -0.731601     14.01000 ; qtot 0.254
     8   n3     1   MOL    N2    8    -0.731601     14.01000 ; qtot -0.478
     9   h1     1   MOL    H1    9     0.036200      1.00800 ; qtot -0.442
    10   h1     1   MOL    H2   10     0.036200      1.00800 ; qtot -0.405
    11   h1     1   MOL    H3   11     0.036200      1.00800 ; qtot -0.369
    12   h1     1   MOL    H4   12     0.036200      1.00800 ; qtot -0.333
    13   h1     1   MOL    H5   13     0.036200      1.00800 ; qtot -0.297
    14   h1     1   MOL    H6   14     0.036200      1.00800 ; qtot -0.261
    15   h1     1   MOL    H7   15     0.036200      1.00800 ; qtot -0.224
    16   h1     1   MOL    H8   16     0.036200      1.00800 ; qtot -0.188
    17   h1     1   MOL    H9   17     0.031367      1.00800 ; qtot -0.157
    18   h1     1   MOL   H10   18     0.031367      1.00800 ; qtot -0.125
    19   h1     1   MOL   H11   19     0.031367      1.00800 ; qtot -0.094
    20   h1     1   MOL   H12   20     0.031367      1.00800 ; qtot -0.063
    21   h1     1   MOL   H13   21     0.031367      1.00800 ; qtot -0.031
    22   h1     1   MOL   H14   22     0.031367      1.00800 ; qtot 0.000

[ bonds ]
;   ai     aj funct   r             k
     1      2   1    1.5384e-01    1.8979e+05 ;     C1 - C2    
     1      7   1    1.4657e-01    2.1199e+05 ;     C1 - N1    
     1      9   1    1.0984e-01    2.8620e+05 ;     C1 - H1    
     1     10   1    1.0984e-01    2.8620e+05 ;     C1 - H2    
     2      8   1    1.4657e-01    2.1199e+05 ;     C2 - N2    
     2     11   1    1.0984e-01    2.8620e+05 ;     C2 - H3    
     2     12   1    1.0984e-01    2.8620e+05 ;     C2 - H4    
     3      4   1    1.5384e-01    1.8979e+05 ;     C3 - C4    
     3      7   1    1.4657e-01    2.1199e+05 ;     C3 - N1    
     3     13   1    1.0984e-01    2.8620e+05 ;     C3 - H5    
     3     14   1    1.0984e-01    2.8620e+05 ;     C3 - H6    
     4      8   1    1.4657e-01    2.1199e+05 ;     C4 - N2    
     4     15   1    1.0984e-01    2.8620e+05 ;     C4 - H7    
     4     16   1    1.0984e-01    2.8620e+05 ;     C4 - H8    
     5      7   1    1.4626e-01    2.1410e+05 ;     C5 - N1    
     5     17   1    1.0969e-01    2.8804e+05 ;     C5 - H9    
     5     18   1    1.0969e-01    2.8804e+05 ;     C5 - H10   
     5     19   1    1.0969e-01    2.8804e+05 ;     C5 - H11   
     6      8   1    1.4626e-01    2.1410e+05 ;     C6 - N2    
     6     20   1    1.0969e-01    2.8804e+05 ;     C6 - H12   
     6     21   1    1.0969e-01    2.8804e+05 ;     C6 - H13   
     6     22   1    1.0969e-01    2.8804e+05 ;     C6 - H14   

[ pairs ]
;   ai     aj    funct
     1      4      1 ;     C1 - C4    
     1      6      1 ;     C1 - C6    
     1     13      1 ;     C1 - H5    
     1     14      1 ;     C1 - H6    
     1     17      1 ;     C1 - H9    
     1     18      1 ;     C1 - H10   
     1     19      1 ;     C1 - H11   
     2      3      1 ;     C2 - C3    
     2      5      1 ;     C2 - C5    
     2     15      1 ;     C2 - H7    
     2     16      1 ;     C2 - H8    
     2     20      1 ;     C2 - H12   
     2     21      1 ;     C2 - H13   
     2     22      1 ;     C2 - H14   
     3      6      1 ;     C3 - C6    
     3     17      1 ;     C3 - H9    
     3     18      1 ;     C3 - H10   
     3     19      1 ;     C3 - H11   
     4      5      1 ;     C4 - C5    
     4     11      1 ;     C4 - H3    
     4     12      1 ;     C4 - H4    
     4     20      1 ;     C4 - H12   
     4     21      1 ;     C4 - H13   
     4     22      1 ;     C4 - H14   
     5     13      1 ;     C5 - H5    
     5     14      1 ;     C5 - H6    
     6     11      1 ;     C6 - H3    
     6     12      1 ;     C6 - H4    
     6     15      1 ;     C6 - H7    
     6     16      1 ;     C6 - H8    
     7      8      1 ;     N1 - N2    
     7     11      1 ;     N1 - H3    
     7     12      1 ;     N1 - H4    
     7     15      1 ;     N1 - H7    
     7     16      1 ;     N1 - H8    
     8     13      1 ;     N2 - H5    
     8     14      1 ;     N2 - H6    
     9      3      1 ;     H1 - C3    
     9      5      1 ;     H1 - C5    
     9      8      1 ;     H1 - N2    
     9     11      1 ;     H1 - H3    
     9     12      1 ;     H1 - H4    
    10      3      1 ;     H2 - C3    
    10      5      1 ;     H2 - C5    
    10      8      1 ;     H2 - N2    
    10     11      1 ;     H2 - H3    
    10     12      1 ;     H2 - H4    
    13     15      1 ;     H5 - H7    
    13     16      1 ;     H5 - H8    
    14     15      1 ;     H6 - H7    
    14     16      1 ;     H6 - H8    

[ angles ]
;   ai     aj     ak    funct   theta         cth
     1      2      8      1    1.1084e+02    5.4743e+02 ;     C1 - C2     - N2    
     1      2     11      1    1.0918e+02    3.6217e+02 ;     C1 - C2     - H3    
     1      2     12      1    1.0918e+02    3.6217e+02 ;     C1 - C2     - H4    
     1      7      3      1    1.1070e+02    6.5429e+02 ;     C1 - N1     - C3    
     1      7      5      1    1.1238e+02    6.5003e+02 ;     C1 - N1     - C5    
     2      1      7      1    1.1084e+02    5.4743e+02 ;     C2 - C1     - N1    
     2      1      9      1    1.0918e+02    3.6217e+02 ;     C2 - C1     - H1    
     2      1     10      1    1.0918e+02    3.6217e+02 ;     C2 - C1     - H2    
     2      8      4      1    1.1070e+02    6.5429e+02 ;     C2 - N2     - C4    
     2      8      6      1    1.1238e+02    6.5003e+02 ;     C2 - N2     - C6    
     3      4      8      1    1.1084e+02    5.4743e+02 ;     C3 - C4     - N2    
     3      4     15      1    1.0918e+02    3.6217e+02 ;     C3 - C4     - H7    
     3      4     16      1    1.0918e+02    3.6217e+02 ;     C3 - C4     - H8    
     3      7      5      1    1.1238e+02    6.5003e+02 ;     C3 - N1     - C5    
     4      3      7      1    1.1084e+02    5.4743e+02 ;     C4 - C3     - N1    
     4      3     13      1    1.0918e+02    3.6217e+02 ;     C4 - C3     - H5    
     4      3     14      1    1.0918e+02    3.6217e+02 ;     C4 - C3     - H6    
     4      8      6      1    1.1238e+02    6.5003e+02 ;     C4 - N2     - C6    
     7      1      9      1    1.0963e+02    4.0041e+02 ;     N1 - C1     - H1    
     7      1     10      1    1.0963e+02    4.0041e+02 ;     N1 - C1     - H2    
     7      3     13      1    1.0963e+02    4.0041e+02 ;     N1 - C3     - H5    
     7      3     14      1    1.0963e+02    4.0041e+02 ;     N1 - C3     - H6    
     7      5     17      1    1.1009e+02    4.0033e+02 ;     N1 - C5     - H9    
     7      5     18      1    1.1009e+02    4.0033e+02 ;     N1 - C5     - H10   
     7      5     19      1    1.1009e+02    4.0033e+02 ;     N1 - C5     - H11   
     8      2     11      1    1.0963e+02    4.0041e+02 ;     N2 - C2     - H3    
     8      2     12      1    1.0963e+02    4.0041e+02 ;     N2 - C2     - H4    
     8      4     15      1    1.0963e+02    4.0041e+02 ;     N2 - C4     - H7    
     8      4     16      1    1.0963e+02    4.0041e+02 ;     N2 - C4     - H8    
     8      6     20      1    1.1009e+02    4.0033e+02 ;     N2 - C6     - H12   
     8      6     21      1    1.1009e+02    4.0033e+02 ;     N2 - C6     - H13   
     8      6     22      1    1.1009e+02    4.0033e+02 ;     N2 - C6     - H14   
     9      1     10      1    1.0750e+02    2.9932e+02 ;     H1 - C1     - H2    
    11      2     12      1    1.0750e+02    2.9932e+02 ;     H3 - C2     - H4    
    13      3     14      1    1.0750e+02    2.9932e+02 ;     H5 - C3     - H6    
    15      4     16      1    1.0750e+02    2.9932e+02 ;     H7 - C4     - H8    
    17      5     18      1    1.0855e+02    2.9824e+02 ;     H9 - C5     - H10   
    17      5     19      1    1.0855e+02    2.9824e+02 ;     H9 - C5     - H11   
    18      5     19      1    1.0855e+02    2.9824e+02 ;    H10 - C5     - H11   
    20      6     21      1    1.0855e+02    2.9824e+02 ;    H12 - C6     - H13   
    20      6     22      1    1.0855e+02    2.9824e+02 ;    H12 - C6     - H14   
    21      6     22      1    1.0855e+02    2.9824e+02 ;    H13 - C6     - H14   

[ dihedrals ] ; propers
; for gromacs 4.5 or higher, using funct 9
;    i      j      k      l   func   phase     kd      pn
     1      2      8      4      9     0.00   3.05432   3 ;     C1-    C2-    N2-    C4
     1      2      8      6      9     0.00   3.05432   3 ;     C1-    C2-    N2-    C6
     1      7      3      4      9     0.00   3.05432   3 ;     C1-    N1-    C3-    C4
     1      7      3     13      9     0.00   0.94140   3 ;     C1-    N1-    C3-    H5
     1      7      3     14      9     0.00   0.94140   3 ;     C1-    N1-    C3-    H6
     1      7      5     17      9     0.00   0.94140   3 ;     C1-    N1-    C5-    H9
     1      7      5     18      9     0.00   0.94140   3 ;     C1-    N1-    C5-   H10
     1      7      5     19      9     0.00   0.94140   3 ;     C1-    N1-    C5-   H11
     2      1      7      3      9     0.00   3.05432   3 ;     C2-    C1-    N1-    C3
     2      1      7      5      9     0.00   3.05432   3 ;     C2-    C1-    N1-    C5
     2      8      4      3      9     0.00   3.05432   3 ;     C2-    N2-    C4-    C3
     2      8      4     15      9     0.00   0.94140   3 ;     C2-    N2-    C4-    H7
     2      8      4     16      9     0.00   0.94140   3 ;     C2-    N2-    C4-    H8
     2      8      6     20      9     0.00   0.94140   3 ;     C2-    N2-    C6-   H12
     2      8      6     21      9     0.00   0.94140   3 ;     C2-    N2-    C6-   H13
     2      8      6     22      9     0.00   0.94140   3 ;     C2-    N2-    C6-   H14
     3      4      8      6      9     0.00   3.05432   3 ;     C3-    C4-    N2-    C6
     3      7      5     17      9     0.00   0.94140   3 ;     C3-    N1-    C5-    H9
     3      7      5     18      9     0.00   0.94140   3 ;     C3-    N1-    C5-   H10
     3      7      5     19      9     0.00   0.94140   3 ;     C3-    N1-    C5-   H11
     4      3      7      5      9     0.00   3.05432   3 ;     C4-    C3-    N1-    C5
     4      8      2     11      9     0.00   0.94140   3 ;     C4-    N2-    C2-    H3
     4      8      2     12      9     0.00   0.94140   3 ;     C4-    N2-    C2-    H4
     4      8      6     20      9     0.00   0.94140   3 ;     C4-    N2-    C6-   H12
     4      8      6     21      9     0.00   0.94140   3 ;     C4-    N2-    C6-   H13
     4      8      6     22      9     0.00   0.94140   3 ;     C4-    N2-    C6-   H14
     5      7      3     13      9     0.00   0.94140   3 ;     C5-    N1-    C3-    H5
     5      7      3     14      9     0.00   0.94140   3 ;     C5-    N1-    C3-    H6
     6      8      2     11      9     0.00   0.94140   3 ;     C6-    N2-    C2-    H3
     6      8      2     12      9     0.00   0.94140   3 ;     C6-    N2-    C2-    H4
     6      8      4     15      9     0.00   0.94140   3 ;     C6-    N2-    C4-    H7
     6      8      4     16      9     0.00   0.94140   3 ;     C6-    N2-    C4-    H8
     7      1      2      8      9     0.00   0.65084   3 ;     N1-    C1-    C2-    N2
     7      1      2     11      9     0.00   0.65084   3 ;     N1-    C1-    C2-    H3
     7      1      2     12      9     0.00   0.65084   3 ;     N1-    C1-    C2-    H4
     7      3      4      8      9     0.00   0.65084   3 ;     N1-    C3-    C4-    N2
     7      3      4     15      9     0.00   0.65084   3 ;     N1-    C3-    C4-    H7
     7      3      4     16      9     0.00   0.65084   3 ;     N1-    C3-    C4-    H8
     8      4      3     13      9     0.00   0.65084   3 ;     N2-    C4-    C3-    H5
     8      4      3     14      9     0.00   0.65084   3 ;     N2-    C4-    C3-    H6
     9      1      2      8      9     0.00   0.65084   3 ;     H1-    C1-    C2-    N2
     9      1      2     11      9     0.00   0.65084   3 ;     H1-    C1-    C2-    H3
     9      1      2     12      9     0.00   0.65084   3 ;     H1-    C1-    C2-    H4
     9      1      7      3      9     0.00   0.94140   3 ;     H1-    C1-    N1-    C3
     9      1      7      5      9     0.00   0.94140   3 ;     H1-    C1-    N1-    C5
    10      1      2      8      9     0.00   0.65084   3 ;     H2-    C1-    C2-    N2
    10      1      2     11      9     0.00   0.65084   3 ;     H2-    C1-    C2-    H3
    10      1      2     12      9     0.00   0.65084   3 ;     H2-    C1-    C2-    H4
    10      1      7      3      9     0.00   0.94140   3 ;     H2-    C1-    N1-    C3
    10      1      7      5      9     0.00   0.94140   3 ;     H2-    C1-    N1-    C5
    13      3      4     15      9     0.00   0.65084   3 ;     H5-    C3-    C4-    H7
    13      3      4     16      9     0.00   0.65084   3 ;     H5-    C3-    C4-    H8
    14      3      4     15      9     0.00   0.65084   3 ;     H6-    C3-    C4-    H7
    14      3      4     16      9     0.00   0.65084   3 ;     H6-    C3-    C4-    H8
