; mobley_550662_GMX.itp created by acpype (v: 2023.10.27) on Thu May 21 00:16:31 2026

[ atomtypes ]
;name   bond_type     mass     charge   ptype   sigma         epsilon       Amb
 c3       c3          0.00000  0.00000   A     3.39771e-01   4.51035e-01 ; 1.91  0.1078
 os       os          0.00000  0.00000   A     3.15610e-01   3.03758e-01 ; 1.77  0.0726
 hc       hc          0.00000  0.00000   A     2.60018e-01   8.70272e-02 ; 1.46  0.0208
 h1       h1          0.00000  0.00000   A     2.42200e-01   8.70272e-02 ; 1.36  0.0208

[ moleculetype ]
;name            nrexcl
 mobley_550662    3

[ atoms ]
;   nr  type  resi  res  atom  cgnr     charge      mass       ; qtot   bond_type
     1   c3     1   MOL    C1    1    -0.116100     12.01000 ; qtot -0.116
     2   c3     1   MOL    C2    2     0.131700     12.01000 ; qtot 0.016
     3   c3     1   MOL    C3    3     0.131700     12.01000 ; qtot 0.147
     4   c3     1   MOL    C4    4     0.131700     12.01000 ; qtot 0.279
     5   c3     1   MOL    C5    5     0.522402     12.01000 ; qtot 0.801
     6   os     1   MOL    O1    6    -0.448600     16.00000 ; qtot 0.353
     7   os     1   MOL    O2    7    -0.448600     16.00000 ; qtot -0.096
     8   os     1   MOL    O3    8    -0.448600     16.00000 ; qtot -0.544
     9   hc     1   MOL    H1    9     0.061700      1.00800 ; qtot -0.483
    10   hc     1   MOL    H2   10     0.061700      1.00800 ; qtot -0.421
    11   hc     1   MOL    H3   11     0.061700      1.00800 ; qtot -0.359
    12   h1     1   MOL    H4   12     0.039922      1.00800 ; qtot -0.319
    13   h1     1   MOL    H5   13     0.039922      1.00800 ; qtot -0.279
    14   h1     1   MOL    H6   14     0.039922      1.00800 ; qtot -0.240
    15   h1     1   MOL    H7   15     0.039922      1.00800 ; qtot -0.200
    16   h1     1   MOL    H8   16     0.039922      1.00800 ; qtot -0.160
    17   h1     1   MOL    H9   17     0.039922      1.00800 ; qtot -0.120
    18   h1     1   MOL   H10   18     0.039922      1.00800 ; qtot -0.080
    19   h1     1   MOL   H11   19     0.039922      1.00800 ; qtot -0.040
    20   h1     1   MOL   H12   20     0.039922      1.00800 ; qtot -0.000

[ bonds ]
;   ai     aj funct   r             k
     1      5   1    1.5354e-01    1.9154e+05 ;     C1 - C5    
     1      9   1    1.0962e-01    2.8891e+05 ;     C1 - H1    
     1     10   1    1.0962e-01    2.8891e+05 ;     C1 - H2    
     1     11   1    1.0962e-01    2.8891e+05 ;     C1 - H3    
     2      6   1    1.4273e-01    2.3620e+05 ;     C2 - O1    
     2     12   1    1.0969e-01    2.8804e+05 ;     C2 - H4    
     2     13   1    1.0969e-01    2.8804e+05 ;     C2 - H5    
     2     14   1    1.0969e-01    2.8804e+05 ;     C2 - H6    
     3      7   1    1.4273e-01    2.3620e+05 ;     C3 - O2    
     3     15   1    1.0969e-01    2.8804e+05 ;     C3 - H7    
     3     16   1    1.0969e-01    2.8804e+05 ;     C3 - H8    
     3     17   1    1.0969e-01    2.8804e+05 ;     C3 - H9    
     4      8   1    1.4273e-01    2.3620e+05 ;     C4 - O3    
     4     18   1    1.0969e-01    2.8804e+05 ;     C4 - H10   
     4     19   1    1.0969e-01    2.8804e+05 ;     C4 - H11   
     4     20   1    1.0969e-01    2.8804e+05 ;     C4 - H12   
     5      6   1    1.4273e-01    2.3620e+05 ;     C5 - O1    
     5      7   1    1.4273e-01    2.3620e+05 ;     C5 - O2    
     5      8   1    1.4273e-01    2.3620e+05 ;     C5 - O3    

[ pairs ]
;   ai     aj    funct
     1      2      1 ;     C1 - C2    
     1      3      1 ;     C1 - C3    
     1      4      1 ;     C1 - C4    
     2      7      1 ;     C2 - O2    
     2      8      1 ;     C2 - O3    
     3      6      1 ;     C3 - O1    
     3      8      1 ;     C3 - O3    
     4      6      1 ;     C4 - O1    
     4      7      1 ;     C4 - O2    
     5     12      1 ;     C5 - H4    
     5     13      1 ;     C5 - H5    
     5     14      1 ;     C5 - H6    
     5     15      1 ;     C5 - H7    
     5     16      1 ;     C5 - H8    
     5     17      1 ;     C5 - H9    
     5     18      1 ;     C5 - H10   
     5     19      1 ;     C5 - H11   
     5     20      1 ;     C5 - H12   
     9      6      1 ;     H1 - O1    
     9      7      1 ;     H1 - O2    
     9      8      1 ;     H1 - O3    
    10      6      1 ;     H2 - O1    
    10      7      1 ;     H2 - O2    
    10      8      1 ;     H2 - O3    
    11      6      1 ;     H3 - O1    
    11      7      1 ;     H3 - O2    
    11      8      1 ;     H3 - O3    

[ angles ]
;   ai     aj     ak    funct   theta         cth
     1      5      6      1    1.0762e+02    6.4802e+02 ;     C1 - C5     - O1    
     1      5      7      1    1.0762e+02    6.4802e+02 ;     C1 - C5     - O2    
     1      5      8      1    1.0762e+02    6.4802e+02 ;     C1 - C5     - O3    
     2      6      5      1    1.1360e+02    7.3915e+02 ;     C2 - O1     - C5    
     3      7      5      1    1.1360e+02    7.3915e+02 ;     C3 - O2     - C5    
     4      8      5      1    1.1360e+02    7.3915e+02 ;     C4 - O3     - C5    
     5      1      9      1    1.0968e+02    3.6208e+02 ;     C5 - C1     - H1    
     5      1     10      1    1.0968e+02    3.6208e+02 ;     C5 - C1     - H2    
     5      1     11      1    1.0968e+02    3.6208e+02 ;     C5 - C1     - H3    
     6      2     12      1    1.1034e+02    4.7028e+02 ;     O1 - C2     - H4    
     6      2     13      1    1.1034e+02    4.7028e+02 ;     O1 - C2     - H5    
     6      2     14      1    1.1034e+02    4.7028e+02 ;     O1 - C2     - H6    
     6      5      7      1    1.0789e+02    8.2375e+02 ;     O1 - C5     - O2    
     6      5      8      1    1.0789e+02    8.2375e+02 ;     O1 - C5     - O3    
     7      3     15      1    1.1034e+02    4.7028e+02 ;     O2 - C3     - H7    
     7      3     16      1    1.1034e+02    4.7028e+02 ;     O2 - C3     - H8    
     7      3     17      1    1.1034e+02    4.7028e+02 ;     O2 - C3     - H9    
     7      5      8      1    1.0789e+02    8.2375e+02 ;     O2 - C5     - O3    
     8      4     18      1    1.1034e+02    4.7028e+02 ;     O3 - C4     - H10   
     8      4     19      1    1.1034e+02    4.7028e+02 ;     O3 - C4     - H11   
     8      4     20      1    1.1034e+02    4.7028e+02 ;     O3 - C4     - H12   
     9      1     10      1    1.0773e+02    2.9957e+02 ;     H1 - C1     - H2    
     9      1     11      1    1.0773e+02    2.9957e+02 ;     H1 - C1     - H3    
    10      1     11      1    1.0773e+02    2.9957e+02 ;     H2 - C1     - H3    
    12      2     13      1    1.0855e+02    2.9824e+02 ;     H4 - C2     - H5    
    12      2     14      1    1.0855e+02    2.9824e+02 ;     H4 - C2     - H6    
    13      2     14      1    1.0855e+02    2.9824e+02 ;     H5 - C2     - H6    
    15      3     16      1    1.0855e+02    2.9824e+02 ;     H7 - C3     - H8    
    15      3     17      1    1.0855e+02    2.9824e+02 ;     H7 - C3     - H9    
    16      3     17      1    1.0855e+02    2.9824e+02 ;     H8 - C3     - H9    
    18      4     19      1    1.0855e+02    2.9824e+02 ;    H10 - C4     - H11   
    18      4     20      1    1.0855e+02    2.9824e+02 ;    H10 - C4     - H12   
    19      4     20      1    1.0855e+02    2.9824e+02 ;    H11 - C4     - H12   

[ dihedrals ] ; propers
; for gromacs 4.5 or higher, using funct 9
;    i      j      k      l   func   phase     kd      pn
     1      5      6      2      9     0.00   0.33472   2 ;     C1-    C5-    O1-    C2
     1      5      6      2      9     0.00   3.13800   3 ;     C1-    C5-    O1-    C2
     1      5      6      2      9   180.00   3.68192   1 ;     C1-    C5-    O1-    C2
     1      5      7      3      9     0.00   0.33472   2 ;     C1-    C5-    O2-    C3
     1      5      7      3      9     0.00   3.13800   3 ;     C1-    C5-    O2-    C3
     1      5      7      3      9   180.00   3.68192   1 ;     C1-    C5-    O2-    C3
     1      5      8      4      9     0.00   0.33472   2 ;     C1-    C5-    O3-    C4
     1      5      8      4      9     0.00   3.13800   3 ;     C1-    C5-    O3-    C4
     1      5      8      4      9   180.00   3.68192   1 ;     C1-    C5-    O3-    C4
     2      6      5      7      9     0.00   3.55640   2 ;     C2-    O1-    C5-    O2
     2      6      5      7      9     0.00   3.55640   3 ;     C2-    O1-    C5-    O2
     2      6      5      7      9   180.00   1.92464   1 ;     C2-    O1-    C5-    O2
     2      6      5      8      9     0.00   3.55640   2 ;     C2-    O1-    C5-    O3
     2      6      5      8      9     0.00   3.55640   3 ;     C2-    O1-    C5-    O3
     2      6      5      8      9   180.00   1.92464   1 ;     C2-    O1-    C5-    O3
     3      7      5      6      9     0.00   3.55640   2 ;     C3-    O2-    C5-    O1
     3      7      5      6      9     0.00   3.55640   3 ;     C3-    O2-    C5-    O1
     3      7      5      6      9   180.00   1.92464   1 ;     C3-    O2-    C5-    O1
     3      7      5      8      9     0.00   3.55640   2 ;     C3-    O2-    C5-    O3
     3      7      5      8      9     0.00   3.55640   3 ;     C3-    O2-    C5-    O3
     3      7      5      8      9   180.00   1.92464   1 ;     C3-    O2-    C5-    O3
     4      8      5      6      9     0.00   3.55640   2 ;     C4-    O3-    C5-    O1
     4      8      5      6      9     0.00   3.55640   3 ;     C4-    O3-    C5-    O1
     4      8      5      6      9   180.00   1.92464   1 ;     C4-    O3-    C5-    O1
     4      8      5      7      9     0.00   3.55640   2 ;     C4-    O3-    C5-    O2
     4      8      5      7      9     0.00   3.55640   3 ;     C4-    O3-    C5-    O2
     4      8      5      7      9   180.00   1.92464   1 ;     C4-    O3-    C5-    O2
     5      6      2     12      9     0.00   1.41001   3 ;     C5-    O1-    C2-    H4
     5      6      2     13      9     0.00   1.41001   3 ;     C5-    O1-    C2-    H5
     5      6      2     14      9     0.00   1.41001   3 ;     C5-    O1-    C2-    H6
     5      7      3     15      9     0.00   1.41001   3 ;     C5-    O2-    C3-    H7
     5      7      3     16      9     0.00   1.41001   3 ;     C5-    O2-    C3-    H8
     5      7      3     17      9     0.00   1.41001   3 ;     C5-    O2-    C3-    H9
     5      8      4     18      9     0.00   1.41001   3 ;     C5-    O3-    C4-   H10
     5      8      4     19      9     0.00   1.41001   3 ;     C5-    O3-    C4-   H11
     5      8      4     20      9     0.00   1.41001   3 ;     C5-    O3-    C4-   H12
     9      1      5      6      9     0.00   0.00000   0 ;     H1-    C1-    C5-    O1
     9      1      5      6      9     0.00   1.04600   1 ;     H1-    C1-    C5-    O1
     9      1      5      7      9     0.00   0.00000   0 ;     H1-    C1-    C5-    O2
     9      1      5      7      9     0.00   1.04600   1 ;     H1-    C1-    C5-    O2
     9      1      5      8      9     0.00   0.00000   0 ;     H1-    C1-    C5-    O3
     9      1      5      8      9     0.00   1.04600   1 ;     H1-    C1-    C5-    O3
    10      1      5      6      9     0.00   0.00000   0 ;     H2-    C1-    C5-    O1
    10      1      5      6      9     0.00   1.04600   1 ;     H2-    C1-    C5-    O1
    10      1      5      7      9     0.00   0.00000   0 ;     H2-    C1-    C5-    O2
    10      1      5      7      9     0.00   1.04600   1 ;     H2-    C1-    C5-    O2
    10      1      5      8      9     0.00   0.00000   0 ;     H2-    C1-    C5-    O3
    10      1      5      8      9     0.00   1.04600   1 ;     H2-    C1-    C5-    O3
    11      1      5      6      9     0.00   0.00000   0 ;     H3-    C1-    C5-    O1
    11      1      5      6      9     0.00   1.04600   1 ;     H3-    C1-    C5-    O1
    11      1      5      7      9     0.00   0.00000   0 ;     H3-    C1-    C5-    O2
    11      1      5      7      9     0.00   1.04600   1 ;     H3-    C1-    C5-    O2
    11      1      5      8      9     0.00   0.00000   0 ;     H3-    C1-    C5-    O3
    11      1      5      8      9     0.00   1.04600   1 ;     H3-    C1-    C5-    O3
