mobley_3775790_GMX.gro created by acpype (v: 2023.10.27) on Thu May 21 00:26:48 2026
 2413
    1MOL     C1    1   2.381   2.345   2.149
    1MOL     C2    2   2.263   2.298   2.087
    1MOL     C3    3   2.372   2.315   2.283
    1MOL     C4    4   2.185   2.240   2.185
    1MOL     C5    5   2.204   2.204   2.431
    1MOL     N1    6   2.252   2.252   2.304
    1MOL     H1    7   2.464   2.396   2.102
    1MOL     H2    8   2.238   2.305   1.982
    1MOL     H3    9   2.440   2.334   2.366
    1MOL     H4   10   2.088   2.193   2.179
    1MOL     H5   11   2.282   2.220   2.505
    1MOL     H6   12   2.113   2.258   2.459
    1MOL     H7   13   2.180   2.097   2.423
   14SOL     OW   14   1.460   1.505   1.339
   14SOL    HW1   15   1.484   1.599   1.365
   14SOL    HW2   16   1.444   1.451   1.421
   18SOL     OW   17   1.127   1.341   1.690
   18SOL    HW1   18   1.174   1.341   1.778
   18SOL    HW2   19   1.079   1.254   1.679
   31SOL     OW   20   1.293   1.228   1.423
   31SOL    HW1   21   1.330   1.155   1.365
   31SOL    HW2   22   1.345   1.233   1.508
   35SOL     OW   23   1.187   1.792   1.616
   35SOL    HW1   24   1.211   1.852   1.540
   35SOL    HW2   25   1.194   1.697   1.586
   37SOL     OW   26   1.466   1.417   0.953
   37SOL    HW1   27   1.407   1.423   1.033
   37SOL    HW2   28   1.451   1.329   0.907
   56SOL     OW   29   1.227   1.550   1.506
   56SOL    HW1   30   1.233   1.473   1.570
   56SOL    HW2   31   1.175   1.524   1.426
   95SOL     OW   32   1.754   1.223   1.588
   95SOL    HW1   33   1.845   1.184   1.575
   95SOL    HW2   34   1.762   1.319   1.612
   96SOL     OW   35   1.064   1.347   1.340
   96SOL    HW1   36   0.984   1.324   1.395
   96SOL    HW2   37   1.147   1.321   1.389
   97SOL     OW   38   1.592   1.629   1.625
   97SOL    HW1   39   1.619   1.663   1.535
   97SOL    HW2   40   1.671   1.591   1.671
   99SOL     OW   41   1.638   1.099   1.079
   99SOL    HW1   42   1.643   1.180   1.138
   99SOL    HW2   43   1.552   1.101   1.028
  109SOL     OW   44   1.272   1.445   1.142
  109SOL    HW1   45   1.319   1.458   1.229
  109SOL    HW2   46   1.206   1.371   1.151
  113SOL     OW   47   1.587   0.779   1.670
  113SOL    HW1   48   1.495   0.817   1.665
  113SOL    HW2   49   1.647   0.826   1.605
  122SOL     OW   50   1.728   0.935   1.854
  122SOL    HW1   51   1.682   0.928   1.765
  122SOL    HW2   52   1.666   0.979   1.920
  126SOL     OW   53   0.980   1.573   1.700
  126SOL    HW1   54   0.960   1.617   1.612
  126SOL    HW2   55   1.019   1.482   1.684
  127SOL     OW   56   1.859   1.518   1.605
  127SOL    HW1   57   1.873   1.545   1.510
  127SOL    HW2   58   1.942   1.540   1.658
  142SOL     OW   59   1.369   0.950   1.660
  142SOL    HW1   60   1.408   1.039   1.680
  142SOL    HW2   61   1.379   0.930   1.563
  147SOL     OW   62   0.930   1.678   1.465
  147SOL    HW1   63   0.906   1.660   1.370
  147SOL    HW2   64   0.960   1.772   1.475
  152SOL     OW   65   1.759   1.747   1.154
  152SOL    HW1   66   1.820   1.777   1.081
  152SOL    HW2   67   1.721   1.658   1.132
  153SOL     OW   68   1.252   1.731   1.128
  153SOL    HW1   69   1.336   1.736   1.074
  153SOL    HW2   70   1.229   1.635   1.146
  155SOL     OW   71   0.688   1.662   1.716
  155SOL    HW1   72   0.632   1.743   1.725
  155SOL    HW2   73   0.740   1.666   1.630
  163SOL     OW   74   1.650   1.720   1.394
  163SOL    HW1   75   1.703   1.730   1.310
  163SOL    HW2   76   1.623   1.810   1.428
  171SOL     OW   77   1.614   1.292   1.289
  171SOL    HW1   78   1.674   1.295   1.369
  171SOL    HW2   79   1.539   1.356   1.302
  184SOL     OW   80   1.493   1.767   0.959
  184SOL    HW1   81   1.526   1.831   0.890
  184SOL    HW2   82   1.559   1.761   1.034
  186SOL     OW   83   1.450   1.220   1.633
  186SOL    HW1   84   1.441   1.210   1.732
  186SOL    HW2   85   1.546   1.213   1.607
  192SOL     OW   86   1.730   0.934   1.517
  192SOL    HW1   87   1.768   1.025   1.532
  192SOL    HW2   88   1.722   0.917   1.418
  197SOL     OW   89   1.861   1.569   0.851
  197SOL    HW1   90   1.790   1.557   0.781
  197SOL    HW2   91   1.862   1.490   0.911
  203SOL     OW   92   1.705   1.487   1.104
  203SOL    HW1   93   1.612   1.462   1.077
  203SOL    HW2   94   1.731   1.437   1.186
  219SOL     OW   95   1.555   1.511   2.565
  219SOL    HW1   96   1.498   1.495   2.646
  219SOL    HW2   97   1.496   1.521   2.485
  221SOL     OW   98   1.755   0.607   2.093
  221SOL    HW1   99   1.743   0.594   1.994
  221SOL    HW2  100   1.725   0.526   2.142
  227SOL     OW  101   1.460   1.505   3.201
  227SOL    HW1  102   1.484   1.599   3.227
  227SOL    HW2  103   1.444   1.451   3.283
  238SOL     OW  104   1.842   1.767   2.221
  238SOL    HW1  105   1.896   1.738   2.301
  238SOL    HW2  106   1.872   1.857   2.192
  240SOL     OW  107   1.689   0.922   2.474
  240SOL    HW1  108   1.784   0.893   2.482
  240SOL    HW2  109   1.681   0.987   2.399
  241SOL     OW  110   1.641   1.108   2.294
  241SOL    HW1  111   1.727   1.110   2.242
  241SOL    HW2  112   1.655   1.155   2.382
  244SOL     OW  113   1.293   1.228   3.285
  244SOL    HW1  114   1.330   1.155   3.227
  244SOL    HW2  115   1.345   1.233   3.370
  247SOL     OW  116   1.525   0.999   2.052
  247SOL    HW1  117   1.462   0.923   2.065
  247SOL    HW2  118   1.573   1.017   2.138
  248SOL     OW  119   1.187   1.792   3.478
  248SOL    HW1  120   1.211   1.852   3.402
  248SOL    HW2  121   1.194   1.697   3.448
  250SOL     OW  122   1.466   1.417   2.815
  250SOL    HW1  123   1.407   1.423   2.895
  250SOL    HW2  124   1.451   1.329   2.769
  251SOL     OW  125   1.667   1.714   2.434
  251SOL    HW1  126   1.626   1.691   2.346
  251SOL    HW2  127   1.649   1.640   2.499
  254SOL     OW  128   1.576   1.662   2.169
  254SOL    HW1  129   1.665   1.708   2.172
  254SOL    HW2  130   1.555   1.638   2.074
  264SOL     OW  131   1.362   1.144   2.407
  264SOL    HW1  132   1.445   1.115   2.359
  264SOL    HW2  133   1.313   1.211   2.351
  266SOL     OW  134   1.008   1.456   2.339
  266SOL    HW1  135   0.962   1.528   2.287
  266SOL    HW2  136   1.004   1.476   2.437
  268SOL     OW  137   1.795   1.066   2.735
  268SOL    HW1  138   1.733   1.051   2.659
  268SOL    HW2  139   1.743   1.077   2.820
  269SOL     OW  140   1.227   1.550   3.368
  269SOL    HW1  141   1.233   1.473   3.432
  269SOL    HW2  142   1.175   1.524   3.288
  271SOL     OW  143   1.458   0.735   2.590
  271SOL    HW1  144   1.453   0.670   2.665
  271SOL    HW2  145   1.538   0.794   2.603
  273SOL     OW  146   1.111   1.776   2.099
  273SOL    HW1  147   1.051   1.714   2.149
  273SOL    HW2  148   1.142   1.732   2.014
  275SOL     OW  149   1.632   1.377   1.943
  275SOL    HW1  150   1.600   1.471   1.933
  275SOL    HW2  151   1.556   1.314   1.931
  279SOL     OW  152   0.940   1.698   2.766
  279SOL    HW1  153   1.020   1.641   2.787
  279SOL    HW2  154   0.891   1.658   2.689
  284SOL     OW  155   0.888   1.514   3.057
  284SOL    HW1  156   0.865   1.489   2.963
  284SOL    HW2  157   0.949   1.445   3.096
  286SOL     OW  158   0.803   1.402   2.786
  286SOL    HW1  159   0.893   1.416   2.744
  286SOL    HW2  160   0.732   1.404   2.715
  289SOL     OW  161   1.434   1.188   1.903
  289SOL    HW1  162   1.466   1.112   1.960
  289SOL    HW2  163   1.342   1.215   1.933
  293SOL     OW  164   1.227   1.570   2.655
  293SOL    HW1  165   1.248   1.644   2.590
  293SOL    HW2  166   1.295   1.570   2.728
  295SOL     OW  167   1.271   1.797   2.453
  295SOL    HW1  168   1.315   1.861   2.389
  295SOL    HW2  169   1.221   1.849   2.523
  301SOL     OW  170   1.429   1.173   2.729
  301SOL    HW1  171   1.374   1.089   2.722
  301SOL    HW2  172   1.455   1.202   2.637
  303SOL     OW  173   1.857   0.833   2.239
  303SOL    HW1  174   1.899   0.769   2.303
  303SOL    HW2  175   1.819   0.782   2.161
  305SOL     OW  176   1.664   1.280   2.519
  305SOL    HW1  177   1.763   1.288   2.533
  305SOL    HW2  178   1.619   1.364   2.550
  308SOL     OW  179   1.754   1.223   3.450
  308SOL    HW1  180   1.845   1.184   3.437
  308SOL    HW2  181   1.762   1.319   3.474
  309SOL     OW  182   1.064   1.347   3.202
  309SOL    HW1  183   0.984   1.324   3.257
  309SOL    HW2  184   1.147   1.321   3.251
  310SOL     OW  185   1.592   1.629   3.487
  310SOL    HW1  186   1.619   1.663   3.397
  310SOL    HW2  187   1.671   1.591   3.533
  311SOL     OW  188   1.111   1.195   2.962
  311SOL    HW1  189   1.071   1.239   3.043
  311SOL    HW2  190   1.070   1.232   2.879
  312SOL     OW  191   1.638   1.099   2.941
  312SOL    HW1  192   1.643   1.180   3.000
  312SOL    HW2  193   1.552   1.101   2.890
  321SOL     OW  194   1.252   1.348   2.250
  321SOL    HW1  195   1.302   1.425   2.290
  321SOL    HW2  196   1.157   1.350   2.282
  322SOL     OW  197   1.272   1.445   3.004
  322SOL    HW1  198   1.319   1.458   3.091
  322SOL    HW2  199   1.206   1.371   3.013
  323SOL     OW  200   1.582   0.639   2.334
  323SOL    HW1  201   1.551   0.700   2.407
  323SOL    HW2  202   1.632   0.691   2.265
  330SOL     OW  203   1.360   0.862   2.907
  330SOL    HW1  204   1.285   0.862   2.841
  330SOL    HW2  205   1.397   0.770   2.916
  340SOL     OW  206   1.859   1.518   3.467
  340SOL    HW1  207   1.873   1.545   3.372
  340SOL    HW2  208   1.942   1.540   3.520
  343SOL     OW  209   1.303   0.838   1.904
  343SOL    HW1  210   1.337   0.745   1.919
  343SOL    HW2  211   1.321   0.865   1.809
  344SOL     OW  212   1.068   1.333   2.711
  344SOL    HW1  213   1.075   1.249   2.656
  344SOL    HW2  214   1.130   1.402   2.675
  363SOL     OW  215   1.347   1.059   3.096
  363SOL    HW1  216   1.371   0.996   3.022
  363SOL    HW2  217   1.257   1.099   3.078
  364SOL     OW  218   1.302   0.855   2.171
  364SOL    HW1  219   1.216   0.824   2.213
  364SOL    HW2  220   1.298   0.841   2.072
  365SOL     OW  221   1.759   1.747   3.016
  365SOL    HW1  222   1.820   1.777   2.943
  365SOL    HW2  223   1.721   1.658   2.994
  366SOL     OW  224   1.252   1.731   2.990
  366SOL    HW1  225   1.336   1.736   2.936
  366SOL    HW2  226   1.229   1.635   3.008
  370SOL     OW  227   1.388   1.573   2.339
  370SOL    HW1  228   1.455   1.585   2.265
  370SOL    HW2  229   1.348   1.662   2.362
  372SOL     OW  230   1.280   0.927   2.534
  372SOL    HW1  231   1.340   0.846   2.536
  372SOL    HW2  232   1.320   0.996   2.474
  374SOL     OW  233   0.672   1.616   2.016
  374SOL    HW1  234   0.681   1.626   1.917
  374SOL    HW2  235   0.632   1.527   2.037
  375SOL     OW  236   1.650   1.720   3.256
  375SOL    HW1  237   1.703   1.730   3.172
  375SOL    HW2  238   1.623   1.810   3.290
  378SOL     OW  239   1.194   1.612   1.893
  378SOL    HW1  240   1.200   1.519   1.930
  378SOL    HW2  241   1.135   1.612   1.813
  381SOL     OW  242   1.504   1.607   1.906
  381SOL    HW1  243   1.412   1.644   1.913
  381SOL    HW2  244   1.542   1.627   1.816
  383SOL     OW  245   1.614   1.292   3.151
  383SOL    HW1  246   1.674   1.295   3.231
  383SOL    HW2  247   1.539   1.356   3.164
  384SOL     OW  248   1.039   1.098   2.558
  384SOL    HW1  249   0.969   1.051   2.612
  384SOL    HW2  250   1.098   1.030   2.515
  394SOL     OW  251   1.183   1.335   1.981
  394SOL    HW1  252   1.084   1.324   1.983
  394SOL    HW2  253   1.217   1.350   2.074
  396SOL     OW  254   1.493   1.767   2.821
  396SOL    HW1  255   1.526   1.831   2.752
  396SOL    HW2  256   1.559   1.761   2.896
  400SOL     OW  257   1.674   0.883   3.116
  400SOL    HW1  258   1.647   0.794   3.079
  400SOL    HW2  259   1.675   0.951   3.043
  405SOL     OW  260   0.859   1.374   1.878
  405SOL    HW1  261   0.813   1.389   1.966
  405SOL    HW2  262   0.903   1.459   1.848
  406SOL     OW  263   0.661   1.790   2.815
  406SOL    HW1  264   0.615   1.878   2.802
  406SOL    HW2  265   0.760   1.802   2.808
  408SOL     OW  266   1.083   0.984   1.949
  408SOL    HW1  267   1.060   1.037   1.867
  408SOL    HW2  268   1.164   0.928   1.930
  409SOL     OW  269   1.861   1.569   2.713
  409SOL    HW1  270   1.790   1.557   2.643
  409SOL    HW2  271   1.862   1.490   2.773
  415SOL     OW  272   1.705   1.487   2.966
  415SOL    HW1  273   1.612   1.462   2.939
  415SOL    HW2  274   1.731   1.437   3.048
  417SOL     OW  275   0.812   1.586   2.549
  417SOL    HW1  276   0.844   1.596   2.455
  417SOL    HW2  277   0.733   1.524   2.551
  420SOL     OW  278   0.770   1.330   2.163
  420SOL    HW1  279   0.724   1.243   2.180
  420SOL    HW2  280   0.861   1.327   2.204
  426SOL     OW  281   0.875   1.646   2.199
  426SOL    HW1  282   0.798   1.611   2.145
  426SOL    HW2  283   0.843   1.717   2.261
  521SOL     OW  284   0.850   2.660   1.823
  521SOL    HW1  285   0.846   2.736   1.888
  521SOL    HW2  286   0.872   2.696   1.732
  525SOL     OW  287   1.460   3.367   1.339
  525SOL    HW1  288   1.484   3.461   1.365
  525SOL    HW2  289   1.444   3.313   1.421
  527SOL     OW  290   1.603   2.309   0.737
  527SOL    HW1  291   1.529   2.355   0.687
  527SOL    HW2  292   1.654   2.377   0.790
  529SOL     OW  293   1.127   3.203   1.690
  529SOL    HW1  294   1.174   3.203   1.778
  529SOL    HW2  295   1.079   3.116   1.679
  534SOL     OW  296   1.594   1.976   1.480
  534SOL    HW1  297   1.576   2.043   1.408
  534SOL    HW2  298   1.591   2.022   1.569
  542SOL     OW  299   1.293   3.090   1.423
  542SOL    HW1  300   1.330   3.017   1.365
  542SOL    HW2  301   1.345   3.095   1.508
  551SOL     OW  302   1.281   2.207   0.944
  551SOL    HW1  303   1.195   2.157   0.931
  551SOL    HW2  304   1.343   2.153   1.000
  553SOL     OW  305   0.807   2.467   1.465
  553SOL    HW1  306   0.760   2.464   1.554
  553SOL    HW2  307   0.756   2.412   1.399
  554SOL     OW  308   1.394   2.331   1.674
  554SOL    HW1  309   1.374   2.374   1.762
  554SOL    HW2  310   1.472   2.269   1.683
  555SOL     OW  311   0.973   2.752   1.572
  555SOL    HW1  312   1.019   2.668   1.543
  555SOL    HW2  313   0.917   2.786   1.497
  556SOL     OW  314   0.991   2.272   1.242
  556SOL    HW1  315   0.914   2.306   1.296
  556SOL    HW2  316   0.957   2.221   1.163
  561SOL     OW  317   1.719   2.447   1.831
  561SOL    HW1  318   1.693   2.536   1.795
  561SOL    HW2  319   1.717   2.379   1.758
  566SOL     OW  320   1.795   2.928   0.873
  566SOL    HW1  321   1.733   2.913   0.797
  566SOL    HW2  322   1.743   2.939   0.958
  567SOL     OW  323   1.227   3.412   1.506
  567SOL    HW1  324   1.233   3.335   1.570
  567SOL    HW2  325   1.175   3.386   1.426
  569SOL     OW  326   1.458   2.597   0.728
  569SOL    HW1  327   1.453   2.532   0.803
  569SOL    HW2  328   1.538   2.656   0.741
  579SOL     OW  329   1.547   2.084   1.729
  579SOL    HW1  330   1.542   2.121   1.821
  579SOL    HW2  331   1.475   2.015   1.717
  580SOL     OW  332   0.781   2.126   1.749
  580SOL    HW1  333   0.848   2.065   1.792
  580SOL    HW2  334   0.708   2.145   1.814
  582SOL     OW  335   1.351   2.452   1.433
  582SOL    HW1  336   1.379   2.409   1.518
  582SOL    HW2  337   1.376   2.548   1.434
  588SOL     OW  338   1.076   2.545   1.464
  588SOL    HW1  339   0.996   2.484   1.467
  588SOL    HW2  340   1.157   2.492   1.440
  598SOL     OW  341   1.466   2.452   0.992
  598SOL    HW1  342   1.436   2.357   0.999
  598SOL    HW2  343   1.539   2.468   1.058
  604SOL     OW  344   1.754   3.085   1.588
  604SOL    HW1  345   1.845   3.046   1.575
  604SOL    HW2  346   1.762   3.181   1.612
  605SOL     OW  347   1.064   3.209   1.340
  605SOL    HW1  348   0.984   3.186   1.395
  605SOL    HW2  349   1.147   3.183   1.389
  606SOL     OW  350   1.592   3.491   1.625
  606SOL    HW1  351   1.619   3.525   1.535
  606SOL    HW2  352   1.671   3.453   1.671
  608SOL     OW  353   1.638   2.961   1.079
  608SOL    HW1  354   1.643   3.042   1.138
  608SOL    HW2  355   1.552   2.963   1.028
  609SOL     OW  356   0.915   1.951   1.402
  609SOL    HW1  357   0.940   1.931   1.307
  609SOL    HW2  358   0.987   2.007   1.444
  610SOL     OW  359   0.980   2.978   1.719
  610SOL    HW1  360   0.881   2.984   1.729
  610SOL    HW2  361   1.003   2.898   1.663
  613SOL     OW  362   1.274   2.248   1.262
  613SOL    HW1  363   1.295   2.322   1.326
  613SOL    HW2  364   1.185   2.265   1.219
  622SOL     OW  365   1.587   2.641   1.670
  622SOL    HW1  366   1.495   2.679   1.665
  622SOL    HW2  367   1.647   2.688   1.605
  623SOL     OW  368   1.013   1.967   1.770
  623SOL    HW1  369   1.019   2.052   1.718
  623SOL    HW2  370   1.045   1.891   1.713
  626SOL     OW  371   1.360   2.724   1.045
  626SOL    HW1  372   1.285   2.724   0.979
  626SOL    HW2  373   1.397   2.632   1.054
  631SOL     OW  374   1.728   2.797   1.854
  631SOL    HW1  375   1.682   2.790   1.765
  631SOL    HW2  376   1.666   2.841   1.920
  636SOL     OW  377   1.859   3.380   1.605
  636SOL    HW1  378   1.873   3.407   1.510
  636SOL    HW2  379   1.942   3.402   1.658
  643SOL     OW  380   1.138   2.242   1.678
  643SOL    HW1  381   1.093   2.305   1.742
  643SOL    HW2  382   1.231   2.273   1.661
  644SOL     OW  383   1.160   2.069   1.477
  644SOL    HW1  384   1.160   2.133   1.554
  644SOL    HW2  385   1.188   2.117   1.394
  648SOL     OW  386   1.002   2.658   1.238
  648SOL    HW1  387   1.043   2.626   1.324
  648SOL    HW2  388   0.906   2.631   1.235
  651SOL     OW  389   1.369   2.812   1.660
  651SOL    HW1  390   1.408   2.901   1.680
  651SOL    HW2  391   1.379   2.792   1.563
  653SOL     OW  392   1.657   2.466   1.206
  653SOL    HW1  393   1.619   2.397   1.268
  653SOL    HW2  394   1.739   2.430   1.162
  659SOL     OW  395   1.347   2.921   1.234
  659SOL    HW1  396   1.371   2.858   1.160
  659SOL    HW2  397   1.257   2.961   1.216
  672SOL     OW  398   1.650   3.582   1.394
  672SOL    HW1  399   1.703   3.592   1.310
  672SOL    HW2  400   1.623   3.672   1.428
  673SOL     OW  401   1.841   2.037   0.963
  673SOL    HW1  402   1.880   1.952   0.927
  673SOL    HW2  403   1.743   2.039   0.944
  680SOL     OW  404   1.614   3.154   1.289
  680SOL    HW1  405   1.674   3.157   1.369
  680SOL    HW2  406   1.539   3.218   1.302
  684SOL     OW  407   1.709   2.247   1.381
  684SOL    HW1  408   1.782   2.316   1.385
  684SOL    HW2  409   1.737   2.172   1.322
  687SOL     OW  410   0.672   2.065   1.489
  687SOL    HW1  411   0.762   2.049   1.449
  687SOL    HW2  412   0.680   2.070   1.588
  689SOL     OW  413   1.440   2.718   1.398
  689SOL    HW1  414   1.383   2.770   1.335
  689SOL    HW2  415   1.536   2.730   1.374
  694SOL     OW  416   0.716   2.427   1.708
  694SOL    HW1  417   0.735   2.492   1.782
  694SOL    HW2  418   0.776   2.347   1.717
  695SOL     OW  419   1.450   3.082   1.633
  695SOL    HW1  420   1.441   3.072   1.732
  695SOL    HW2  421   1.546   3.075   1.607
  697SOL     OW  422   1.674   2.745   1.254
  697SOL    HW1  423   1.647   2.656   1.217
  697SOL    HW2  424   1.675   2.813   1.181
  700SOL     OW  425   1.777   2.204   1.642
  700SOL    HW1  426   1.760   2.235   1.548
  700SOL    HW2  427   1.693   2.167   1.680
  701SOL     OW  428   1.730   2.796   1.517
  701SOL    HW1  429   1.768   2.887   1.532
  701SOL    HW2  430   1.722   2.779   1.418
  710SOL     OW  431   1.824   2.054   1.227
  710SOL    HW1  432   1.820   1.964   1.271
  710SOL    HW2  433   1.827   2.043   1.128
  712SOL     OW  434   1.705   3.349   1.104
  712SOL    HW1  435   1.612   3.324   1.077
  712SOL    HW2  436   1.731   3.299   1.186
  715SOL     OW  437   1.424   2.076   1.112
  715SOL    HW1  438   1.476   2.011   1.167
  715SOL    HW2  439   1.375   2.139   1.173
  716SOL     OW  440   1.001   1.896   1.154
  716SOL    HW1  441   0.938   1.824   1.123
  716SOL    HW2  442   1.094   1.860   1.154
  721SOL     OW  443   1.593   2.083   0.882
  721SOL    HW1  444   1.509   2.082   0.936
  721SOL    HW2  445   1.595   2.166   0.826
  728SOL     OW  446   1.555   3.373   2.565
  728SOL    HW1  447   1.498   3.357   2.646
  728SOL    HW2  448   1.496   3.383   2.485
  729SOL     OW  449   1.135   2.565   2.579
  729SOL    HW1  450   1.192   2.643   2.554
  729SOL    HW2  451   1.075   2.591   2.655
  730SOL     OW  452   1.755   2.469   2.093
  730SOL    HW1  453   1.743   2.456   1.994
  730SOL    HW2  454   1.725   2.388   2.142
  731SOL     OW  455   0.768   3.006   2.885
  731SOL    HW1  456   0.690   3.023   2.945
  731SOL    HW2  457   0.802   3.093   2.849
  733SOL     OW  458   0.685   2.874   2.527
  733SOL    HW1  459   0.754   2.858   2.597
  733SOL    HW2  460   0.612   2.931   2.565
  736SOL     OW  461   1.460   3.367   3.201
  736SOL    HW1  462   1.484   3.461   3.227
  736SOL    HW2  463   1.444   3.313   3.283
  738SOL     OW  464   1.603   2.309   2.599
  738SOL    HW1  465   1.529   2.355   2.549
  738SOL    HW2  466   1.654   2.377   2.652
  744SOL     OW  467   0.606   2.826   1.985
  744SOL    HW1  468   0.613   2.910   1.931
  744SOL    HW2  469   0.652   2.839   2.073
  745SOL     OW  470   1.594   1.976   3.342
  745SOL    HW1  471   1.576   2.043   3.270
  745SOL    HW2  472   1.591   2.022   3.431
  747SOL     OW  473   1.842   3.629   2.221
  747SOL    HW1  474   1.896   3.600   2.301
  747SOL    HW2  475   1.872   3.719   2.192
  749SOL     OW  476   1.689   2.784   2.474
  749SOL    HW1  477   1.784   2.755   2.482
  749SOL    HW2  478   1.681   2.849   2.399
  750SOL     OW  479   1.641   2.970   2.294
  750SOL    HW1  480   1.727   2.972   2.242
  750SOL    HW2  481   1.655   3.017   2.382
  753SOL     OW  482   1.293   3.090   3.285
  753SOL    HW1  483   1.330   3.017   3.227
  753SOL    HW2  484   1.345   3.095   3.370
  754SOL     OW  485   0.809   1.866   2.364
  754SOL    HW1  486   0.849   1.957   2.355
  754SOL    HW2  487   0.709   1.874   2.370
  756SOL     OW  488   1.525   2.861   2.052
  756SOL    HW1  489   1.462   2.785   2.065
  756SOL    HW2  490   1.573   2.879   2.138
  759SOL     OW  491   1.466   3.279   2.815
  759SOL    HW1  492   1.407   3.285   2.895
  759SOL    HW2  493   1.451   3.191   2.769
  760SOL     OW  494   1.667   3.576   2.434
  760SOL    HW1  495   1.626   3.553   2.346
  760SOL    HW2  496   1.649   3.502   2.499
  761SOL     OW  497   0.598   2.591   2.132
  761SOL    HW1  498   0.622   2.660   2.064
  761SOL    HW2  499   0.520   2.624   2.186
  762SOL     OW  500   1.281   2.207   2.806
  762SOL    HW1  501   1.195   2.157   2.793
  762SOL    HW2  502   1.343   2.153   2.862
  763SOL     OW  503   1.576   3.524   2.169
  763SOL    HW1  504   1.665   3.570   2.172
  763SOL    HW2  505   1.555   3.500   2.074
  765SOL     OW  506   1.394   2.331   3.536
  765SOL    HW1  507   1.374   2.374   3.624
  765SOL    HW2  508   1.472   2.269   3.545
  767SOL     OW  509   0.991   2.272   3.104
  767SOL    HW1  510   0.914   2.306   3.158
  767SOL    HW2  511   0.957   2.221   3.025
  768SOL     OW  512   1.041   2.563   2.291
  768SOL    HW1  513   1.067   2.559   2.387
  768SOL    HW2  514   0.956   2.512   2.277
  771SOL     OW  515   0.865   2.210   2.057
  771SOL    HW1  516   0.924   2.273   2.008
  771SOL    HW2  517   0.884   2.116   2.028
  772SOL     OW  518   1.719   2.447   3.693
  772SOL    HW1  519   1.693   2.536   3.657
  772SOL    HW2  520   1.717   2.379   3.620
  773SOL     OW  521   1.362   3.006   2.407
  773SOL    HW1  522   1.445   2.977   2.359
  773SOL    HW2  523   1.313   3.073   2.351
  774SOL     OW  524   0.550   2.058   2.747
  774SOL    HW1  525   0.545   2.053   2.847
  774SOL    HW2  526   0.552   2.154   2.718
  775SOL     OW  527   1.008   3.318   2.339
  775SOL    HW1  528   0.962   3.390   2.287
  775SOL    HW2  529   1.004   3.338   2.437
  777SOL     OW  530   1.795   2.928   2.735
  777SOL    HW1  531   1.733   2.913   2.659
  777SOL    HW2  532   1.743   2.939   2.820
  780SOL     OW  533   1.458   2.597   2.590
  780SOL    HW1  534   1.453   2.532   2.665
  780SOL    HW2  535   1.538   2.656   2.603
  784SOL     OW  536   1.632   3.239   1.943
  784SOL    HW1  537   1.600   3.333   1.933
  784SOL    HW2  538   1.556   3.176   1.931
  786SOL     OW  539   1.400   1.969   2.288
  786SOL    HW1  540   1.376   1.932   2.198
  786SOL    HW2  541   1.499   1.985   2.292
  790SOL     OW  542   1.547   2.084   3.591
  790SOL    HW1  543   1.542   2.121   3.683
  790SOL    HW2  544   1.475   2.015   3.579
  791SOL     OW  545   0.614   1.984   1.979
  791SOL    HW1  546   0.712   1.962   1.986
  791SOL    HW2  547   0.583   1.967   1.886
  794SOL     OW  548   1.351   2.452   3.295
  794SOL    HW1  549   1.379   2.409   3.380
  794SOL    HW2  550   1.376   2.548   3.296
  796SOL     OW  551   0.922   2.365   2.761
  796SOL    HW1  552   0.897   2.356   2.665
  796SOL    HW2  553   0.970   2.283   2.792
  797SOL     OW  554   0.539   1.926   2.374
  797SOL    HW1  555   0.458   1.927   2.432
  797SOL    HW2  556   0.542   2.009   2.319
  798SOL     OW  557   1.434   3.050   1.903
  798SOL    HW1  558   1.466   2.974   1.960
  798SOL    HW2  559   1.342   3.077   1.933
  800SOL     OW  560   0.935   2.098   2.342
  800SOL    HW1  561   0.887   2.139   2.264
  800SOL    HW2  562   1.034   2.096   2.323
  801SOL     OW  563   1.076   2.545   3.326
  801SOL    HW1  564   0.996   2.484   3.329
  801SOL    HW2  565   1.157   2.492   3.302
  802SOL     OW  566   1.227   3.432   2.655
  802SOL    HW1  567   1.248   3.506   2.590
  802SOL    HW2  568   1.295   3.432   2.728
  804SOL     OW  569   1.271   3.659   2.453
  804SOL    HW1  570   1.315   3.723   2.389
  804SOL    HW2  571   1.221   3.711   2.523
  805SOL     OW  572   1.032   2.411   1.878
  805SOL    HW1  573   0.991   2.493   1.839
  805SOL    HW2  574   1.096   2.437   1.951
  808SOL     OW  575   0.866   2.316   2.504
  808SOL    HW1  576   0.834   2.388   2.442
  808SOL    HW2  577   0.890   2.235   2.451
  809SOL     OW  578   1.017   1.901   2.615
  809SOL    HW1  579   0.945   1.906   2.546
  809SOL    HW2  580   0.993   1.832   2.684
  810SOL     OW  581   1.429   3.035   2.729
  810SOL    HW1  582   1.374   2.951   2.722
  810SOL    HW2  583   1.455   3.064   2.637
  811SOL     OW  584   1.466   2.452   2.854
  811SOL    HW1  585   1.436   2.357   2.861
  811SOL    HW2  586   1.539   2.468   2.920
  812SOL     OW  587   1.857   2.695   2.239
  812SOL    HW1  588   1.899   2.631   2.303
  812SOL    HW2  589   1.819   2.644   2.161
  814SOL     OW  590   1.664   3.142   2.519
  814SOL    HW1  591   1.763   3.150   2.533
  814SOL    HW2  592   1.619   3.226   2.550
  815SOL     OW  593   1.390   2.437   1.940
  815SOL    HW1  594   1.336   2.416   2.021
  815SOL    HW2  595   1.481   2.396   1.949
  816SOL     OW  596   0.527   2.118   2.190
  816SOL    HW1  597   0.554   2.059   2.115
  816SOL    HW2  598   0.527   2.213   2.159
  817SOL     OW  599   1.754   3.085   3.450
  817SOL    HW1  600   1.845   3.046   3.437
  817SOL    HW2  601   1.762   3.181   3.474
  818SOL     OW  602   1.064   3.209   3.202
  818SOL    HW1  603   0.984   3.186   3.257
  818SOL    HW2  604   1.147   3.183   3.251
  820SOL     OW  605   1.111   3.057   2.962
  820SOL    HW1  606   1.071   3.101   3.043
  820SOL    HW2  607   1.070   3.094   2.879
  821SOL     OW  608   1.638   2.961   2.941
  821SOL    HW1  609   1.643   3.042   3.000
  821SOL    HW2  610   1.552   2.963   2.890
  822SOL     OW  611   0.915   1.951   3.264
  822SOL    HW1  612   0.940   1.931   3.169
  822SOL    HW2  613   0.987   2.007   3.306
  824SOL     OW  614   0.705   2.912   2.230
  824SOL    HW1  615   0.691   2.919   2.329
  824SOL    HW2  616   0.789   2.861   2.212
  826SOL     OW  617   1.274   2.248   3.124
  826SOL    HW1  618   1.295   2.322   3.188
  826SOL    HW2  619   1.185   2.265   3.081
  829SOL     OW  620   0.566   2.399   2.727
  829SOL    HW1  621   0.578   2.465   2.653
  829SOL    HW2  622   0.612   2.433   2.810
  830SOL     OW  623   1.252   3.210   2.250
  830SOL    HW1  624   1.302   3.287   2.290
  830SOL    HW2  625   1.157   3.212   2.282
  831SOL     OW  626   1.272   3.307   3.004
  831SOL    HW1  627   1.319   3.320   3.091
  831SOL    HW2  628   1.206   3.233   3.013
  832SOL     OW  629   1.582   2.501   2.334
  832SOL    HW1  630   1.551   2.562   2.407
  832SOL    HW2  631   1.632   2.553   2.265
  835SOL     OW  632   1.587   2.641   3.532
  835SOL    HW1  633   1.495   2.679   3.527
  835SOL    HW2  634   1.647   2.688   3.467
  839SOL     OW  635   1.360   2.724   2.907
  839SOL    HW1  636   1.285   2.724   2.841
  839SOL    HW2  637   1.397   2.632   2.916
  840SOL     OW  638   1.209   2.387   2.137
  840SOL    HW1  639   1.222   2.303   2.191
  840SOL    HW2  640   1.180   2.461   2.197
  843SOL     OW  641   0.732   2.496   2.926
  843SOL    HW1  642   0.791   2.470   2.850
  843SOL    HW2  643   0.704   2.592   2.915
  844SOL     OW  644   1.728   2.797   3.716
  844SOL    HW1  645   1.682   2.790   3.627
  844SOL    HW2  646   1.666   2.841   3.782
  846SOL     OW  647   1.622   2.229   2.236
  846SOL    HW1  648   1.624   2.153   2.300
  846SOL    HW2  649   1.574   2.306   2.276
  847SOL     OW  650   1.023   2.628   2.828
  847SOL    HW1  651   1.038   2.649   2.924
  847SOL    HW2  652   0.993   2.533   2.819
  849SOL     OW  653   1.859   3.380   3.467
  849SOL    HW1  654   1.873   3.407   3.372
  849SOL    HW2  655   1.942   3.402   3.520
  851SOL     OW  656   1.540   2.136   1.987
  851SOL    HW1  657   1.479   2.061   2.010
  851SOL    HW2  658   1.562   2.188   2.070
  852SOL     OW  659   1.303   2.700   1.904
  852SOL    HW1  660   1.337   2.607   1.919
  852SOL    HW2  661   1.321   2.727   1.809
  853SOL     OW  662   1.068   3.195   2.711
  853SOL    HW1  663   1.075   3.111   2.656
  853SOL    HW2  664   1.130   3.264   2.675
  856SOL     OW  665   1.138   2.242   3.540
  856SOL    HW1  666   1.093   2.305   3.604
  856SOL    HW2  667   1.231   2.273   3.523
  857SOL     OW  668   1.160   2.069   3.339
  857SOL    HW1  669   1.160   2.133   3.416
  857SOL    HW2  670   1.188   2.117   3.256
  861SOL     OW  671   1.002   2.658   3.100
  861SOL    HW1  672   1.043   2.626   3.186
  861SOL    HW2  673   0.906   2.631   3.097
  864SOL     OW  674   1.369   2.812   3.522
  864SOL    HW1  675   1.408   2.901   3.542
  864SOL    HW2  676   1.379   2.792   3.425
  865SOL     OW  677   0.815   2.434   2.187
  865SOL    HW1  678   0.822   2.345   2.141
  865SOL    HW2  679   0.721   2.468   2.179
  866SOL     OW  680   1.657   2.466   3.068
  866SOL    HW1  681   1.619   2.397   3.130
  866SOL    HW2  682   1.739   2.430   3.024
  872SOL     OW  683   1.347   2.921   3.096
  872SOL    HW1  684   1.371   2.858   3.022
  872SOL    HW2  685   1.257   2.961   3.078
  873SOL     OW  686   1.302   2.717   2.171
  873SOL    HW1  687   1.216   2.686   2.213
  873SOL    HW2  688   1.298   2.703   2.072
  874SOL     OW  689   1.759   3.609   3.016
  874SOL    HW1  690   1.820   3.639   2.943
  874SOL    HW2  691   1.721   3.520   2.994
  878SOL     OW  692   1.726   1.997   2.385
  878SOL    HW1  693   1.799   1.980   2.318
  878SOL    HW2  694   1.695   1.910   2.423
  879SOL     OW  695   1.388   3.435   2.339
  879SOL    HW1  696   1.455   3.447   2.265
  879SOL    HW2  697   1.348   3.524   2.362
  881SOL     OW  698   1.280   2.789   2.534
  881SOL    HW1  699   1.340   2.708   2.536
  881SOL    HW2  700   1.320   2.858   2.474
  884SOL     OW  701   1.650   3.582   3.256
  884SOL    HW1  702   1.703   3.592   3.172
  884SOL    HW2  703   1.623   3.672   3.290
  885SOL     OW  704   1.841   2.037   2.825
  885SOL    HW1  705   1.880   1.952   2.789
  885SOL    HW2  706   1.743   2.039   2.806
  887SOL     OW  707   1.194   3.474   1.893
  887SOL    HW1  708   1.200   3.381   1.930
  887SOL    HW2  709   1.135   3.474   1.813
  889SOL     OW  710   0.916   2.772   2.153
  889SOL    HW1  711   0.979   2.810   2.085
  889SOL    HW2  712   0.956   2.689   2.192
  890SOL     OW  713   1.504   3.469   1.906
  890SOL    HW1  714   1.412   3.506   1.913
  890SOL    HW2  715   1.542   3.489   1.816
  892SOL     OW  716   1.614   3.154   3.151
  892SOL    HW1  717   1.674   3.157   3.231
  892SOL    HW2  718   1.539   3.218   3.164
  893SOL     OW  719   1.039   2.960   2.558
  893SOL    HW1  720   0.969   2.913   2.612
  893SOL    HW2  721   1.098   2.892   2.515
  894SOL     OW  722   1.014   2.098   2.833
  894SOL    HW1  723   1.006   2.062   2.740
  894SOL    HW2  724   1.012   2.022   2.898
  896SOL     OW  725   1.709   2.247   3.243
  896SOL    HW1  726   1.782   2.316   3.247
  896SOL    HW2  727   1.737   2.172   3.184
  901SOL     OW  728   1.440   2.718   3.260
  901SOL    HW1  729   1.383   2.770   3.197
  901SOL    HW2  730   1.536   2.730   3.236
  903SOL     OW  731   1.183   3.197   1.981
  903SOL    HW1  732   1.084   3.186   1.983
  903SOL    HW2  733   1.217   3.212   2.074
  905SOL     OW  734   1.493   3.629   2.821
  905SOL    HW1  735   1.526   3.693   2.752
  905SOL    HW2  736   1.559   3.623   2.896
  907SOL     OW  737   1.450   3.082   3.495
  907SOL    HW1  738   1.441   3.072   3.594
  907SOL    HW2  739   1.546   3.075   3.469
  909SOL     OW  740   1.674   2.745   3.116
  909SOL    HW1  741   1.647   2.656   3.079
  909SOL    HW2  742   1.675   2.813   3.043
  910SOL     OW  743   1.225   2.187   2.311
  910SOL    HW1  744   1.290   2.113   2.300
  910SOL    HW2  745   1.245   2.237   2.395
  911SOL     OW  746   0.594   2.607   2.514
  911SOL    HW1  747   0.644   2.692   2.495
  911SOL    HW2  748   0.506   2.609   2.466
  912SOL     OW  749   1.777   2.204   3.504
  912SOL    HW1  750   1.760   2.235   3.410
  912SOL    HW2  751   1.693   2.167   3.542
  913SOL     OW  752   1.730   2.796   3.379
  913SOL    HW1  753   1.768   2.887   3.394
  913SOL    HW2  754   1.722   2.779   3.280
  914SOL     OW  755   0.859   3.236   1.878
  914SOL    HW1  756   0.813   3.251   1.966
  914SOL    HW2  757   0.903   3.321   1.848
  916SOL     OW  758   0.859   2.818   2.723
  916SOL    HW1  759   0.913   2.749   2.771
  916SOL    HW2  760   0.827   2.887   2.789
  917SOL     OW  761   1.083   2.846   1.949
  917SOL    HW1  762   1.060   2.899   1.867
  917SOL    HW2  763   1.164   2.790   1.930
  918SOL     OW  764   1.861   3.431   2.713
  918SOL    HW1  765   1.790   3.419   2.643
  918SOL    HW2  766   1.862   3.352   2.773
  922SOL     OW  767   1.824   2.054   3.089
  922SOL    HW1  768   1.820   1.964   3.133
  922SOL    HW2  769   1.827   2.043   2.990
  924SOL     OW  770   1.705   3.349   2.966
  924SOL    HW1  771   1.612   3.324   2.939
  924SOL    HW2  772   1.731   3.299   3.048
  927SOL     OW  773   1.424   2.076   2.974
  927SOL    HW1  774   1.476   2.011   3.029
  927SOL    HW2  775   1.375   2.139   3.035
  928SOL     OW  776   1.001   1.896   3.016
  928SOL    HW1  777   0.938   1.824   2.985
  928SOL    HW2  778   1.094   1.860   3.016
  929SOL     OW  779   0.770   3.192   2.163
  929SOL    HW1  780   0.724   3.105   2.180
  929SOL    HW2  781   0.861   3.189   2.204
  931SOL     OW  782   1.352   1.914   2.030
  931SOL    HW1  783   1.387   1.873   1.946
  931SOL    HW2  784   1.262   1.876   2.050
  932SOL     OW  785   1.300   2.315   2.553
  932SOL    HW1  786   1.241   2.395   2.557
  932SOL    HW2  787   1.315   2.280   2.646
  933SOL     OW  788   1.593   2.083   2.744
  933SOL    HW1  789   1.509   2.082   2.798
  933SOL    HW2  790   1.595   2.166   2.688
  938SOL     OW  791   1.755   2.469   3.955
  938SOL    HW1  792   1.743   2.456   3.856
  938SOL    HW2  793   1.725   2.388   4.004
  982SOL     OW  794   1.390   2.437   3.802
  982SOL    HW1  795   1.336   2.416   3.883
  982SOL    HW2  796   1.481   2.396   3.811
  991SOL     OW  797   1.540   2.136   3.849
  991SOL    HW1  798   1.479   2.061   3.872
  991SOL    HW2  799   1.562   2.188   3.932
 1141SOL     OW  800   1.400   3.831   2.288
 1141SOL    HW1  801   1.376   3.794   2.198
 1141SOL    HW2  802   1.499   3.847   2.292
 1187SOL     OW  803   1.726   3.859   2.385
 1187SOL    HW1  804   1.799   3.842   2.318
 1187SOL    HW2  805   1.695   3.772   2.423
 1189SOL     OW  806   1.841   3.899   2.825
 1189SOL    HW1  807   1.880   3.814   2.789
 1189SOL    HW2  808   1.743   3.901   2.806
 1209SOL     OW  809   1.352   3.776   2.030
 1209SOL    HW1  810   1.387   3.735   1.946
 1209SOL    HW2  811   1.262   3.738   2.050
 1256SOL     OW  812   2.431   1.275   1.165
 1256SOL    HW1  813   2.338   1.268   1.128
 1256SOL    HW2  814   2.442   1.364   1.209
 1260SOL     OW  815   2.630   1.144   1.023
 1260SOL    HW1  816   2.552   1.161   1.083
 1260SOL    HW2  817   2.664   1.231   0.987
 1261SOL     OW  818   2.712   0.798   1.823
 1261SOL    HW1  819   2.708   0.874   1.888
 1261SOL    HW2  820   2.734   0.834   1.732
 1263SOL     OW  821   2.548   1.161   1.803
 1263SOL    HW1  822   2.608   1.240   1.817
 1263SOL    HW2  823   2.462   1.192   1.762
 1264SOL     OW  824   2.197   1.435   1.061
 1264SOL    HW1  825   2.119   1.404   1.008
 1264SOL    HW2  826   2.255   1.493   1.004
 1265SOL     OW  827   3.322   1.505   1.339
 1265SOL    HW1  828   3.346   1.599   1.365
 1265SOL    HW2  829   3.306   1.451   1.421
 1269SOL     OW  830   2.989   1.341   1.690
 1269SOL    HW1  831   3.036   1.341   1.778
 1269SOL    HW2  832   2.941   1.254   1.679
 1272SOL     OW  833   2.482   1.786   1.439
 1272SOL    HW1  834   2.390   1.769   1.474
 1272SOL    HW2  835   2.510   1.878   1.465
 1280SOL     OW  836   1.975   0.737   1.597
 1280SOL    HW1  837   2.063   0.724   1.642
 1280SOL    HW2  838   1.962   0.834   1.575
 1281SOL     OW  839   2.475   1.365   0.726
 1281SOL    HW1  840   2.426   1.278   0.735
 1281SOL    HW2  841   2.452   1.408   0.639
 1282SOL     OW  842   3.155   1.228   1.423
 1282SOL    HW1  843   3.192   1.155   1.365
 1282SOL    HW2  844   3.207   1.233   1.508
 1284SOL     OW  845   2.059   0.976   1.264
 1284SOL    HW1  846   2.148   0.931   1.250
 1284SOL    HW2  847   1.986   0.911   1.245
 1286SOL     OW  848   3.049   1.792   1.616
 1286SOL    HW1  849   3.073   1.852   1.540
 1286SOL    HW2  850   3.056   1.697   1.586
 1295SOL     OW  851   2.835   0.890   1.572
 1295SOL    HW1  852   2.881   0.806   1.543
 1295SOL    HW2  853   2.779   0.924   1.497
 1299SOL     OW  854   1.992   1.821   1.571
 1299SOL    HW1  855   1.982   1.806   1.670
 1299SOL    HW2  856   1.906   1.857   1.535
 1305SOL     OW  857   2.213   1.801   0.853
 1305SOL    HW1  858   2.263   1.715   0.859
 1305SOL    HW2  859   2.278   1.878   0.850
 1307SOL     OW  860   3.089   1.550   1.506
 1307SOL    HW1  861   3.095   1.473   1.570
 1307SOL    HW2  862   3.037   1.524   1.426
 1310SOL     OW  863   2.323   1.266   1.727
 1310SOL    HW1  864   2.273   1.267   1.641
 1310SOL    HW2  865   2.260   1.248   1.803
 1316SOL     OW  866   2.111   1.785   1.241
 1316SOL    HW1  867   2.168   1.720   1.291
 1316SOL    HW2  868   2.095   1.752   1.148
 1317SOL     OW  869   2.802   1.698   0.904
 1317SOL    HW1  870   2.882   1.641   0.925
 1317SOL    HW2  871   2.753   1.658   0.827
 1322SOL     OW  872   2.750   1.514   1.195
 1322SOL    HW1  873   2.727   1.489   1.101
 1322SOL    HW2  874   2.811   1.445   1.234
 1324SOL     OW  875   2.665   1.402   0.924
 1324SOL    HW1  876   2.755   1.416   0.882
 1324SOL    HW2  877   2.594   1.404   0.853
 1347SOL     OW  878   2.926   1.347   1.340
 1347SOL    HW1  879   2.846   1.324   1.395
 1347SOL    HW2  880   3.009   1.321   1.389
 1348SOL     OW  881   3.454   1.629   1.625
 1348SOL    HW1  882   3.481   1.663   1.535
 1348SOL    HW2  883   3.533   1.591   1.671
 1349SOL     OW  884   2.973   1.195   1.100
 1349SOL    HW1  885   2.933   1.239   1.181
 1349SOL    HW2  886   2.932   1.232   1.017
 1352SOL     OW  887   2.842   1.116   1.719
 1352SOL    HW1  888   2.743   1.122   1.729
 1352SOL    HW2  889   2.865   1.036   1.663
 1354SOL     OW  890   2.272   0.813   1.251
 1354SOL    HW1  891   2.358   0.825   1.301
 1354SOL    HW2  892   2.230   0.726   1.278
 1356SOL     OW  893   1.926   1.564   1.331
 1356SOL    HW1  894   1.880   1.646   1.297
 1356SOL    HW2  895   2.024   1.583   1.340
 1360SOL     OW  896   3.134   1.445   1.142
 1360SOL    HW1  897   3.181   1.458   1.229
 1360SOL    HW2  898   3.068   1.371   1.151
 1362SOL     OW  899   2.216   1.510   1.329
 1362SOL    HW1  900   2.195   1.466   1.242
 1362SOL    HW2  901   2.313   1.536   1.332
 1363SOL     OW  902   2.264   0.751   1.598
 1363SOL    HW1  903   2.332   0.806   1.551
 1363SOL    HW2  904   2.304   0.663   1.625
 1371SOL     OW  905   1.899   1.310   1.282
 1371SOL    HW1  906   1.952   1.261   1.350
 1371SOL    HW2  907   1.921   1.408   1.287
 1377SOL     OW  908   2.842   1.573   1.700
 1377SOL    HW1  909   2.822   1.617   1.612
 1377SOL    HW2  910   2.881   1.482   1.684
 1378SOL     OW  911   3.721   1.518   1.605
 1378SOL    HW1  912   3.735   1.545   1.510
 1378SOL    HW2  913   3.804   1.540   1.658
 1379SOL     OW  914   2.212   0.898   1.804
 1379SOL    HW1  915   2.288   0.942   1.852
 1379SOL    HW2  916   2.247   0.851   1.722
 1388SOL     OW  917   1.950   1.801   0.927
 1388SOL    HW1  918   1.908   1.715   0.900
 1388SOL    HW2  919   2.044   1.804   0.893
 1389SOL     OW  920   2.366   1.568   0.910
 1389SOL    HW1  921   2.432   1.642   0.919
 1389SOL    HW2  922   2.410   1.489   0.868
 1393SOL     OW  923   3.231   0.950   1.660
 1393SOL    HW1  924   3.270   1.039   1.680
 1393SOL    HW2  925   3.241   0.930   1.563
 1396SOL     OW  926   2.114   1.564   1.744
 1396SOL    HW1  927   2.084   1.621   1.820
 1396SOL    HW2  928   2.107   1.467   1.770
 1398SOL     OW  929   2.792   1.678   1.465
 1398SOL    HW1  930   2.768   1.660   1.370
 1398SOL    HW2  931   2.822   1.772   1.475
 1400SOL     OW  932   2.021   1.137   1.466
 1400SOL    HW1  933   2.043   1.076   1.542
 1400SOL    HW2  934   2.031   1.088   1.380
 1404SOL     OW  935   3.114   1.731   1.128
 1404SOL    HW1  936   3.198   1.736   1.074
 1404SOL    HW2  937   3.091   1.635   1.146
 1405SOL     OW  938   1.945   1.258   1.022
 1405SOL    HW1  939   1.940   1.257   1.122
 1405SOL    HW2  940   1.862   1.217   0.984
 1406SOL     OW  941   2.550   1.662   1.716
 1406SOL    HW1  942   2.494   1.743   1.725
 1406SOL    HW2  943   2.602   1.666   1.630
 1410SOL     OW  944   1.992   1.794   1.851
 1410SOL    HW1  945   1.951   1.720   1.904
 1410SOL    HW2  946   2.056   1.845   1.909
 1412SOL     OW  947   2.692   1.273   1.422
 1412SOL    HW1  948   2.687   1.306   1.517
 1412SOL    HW2  949   2.606   1.292   1.376
 1414SOL     OW  950   3.512   1.720   1.394
 1414SOL    HW1  951   3.565   1.730   1.310
 1414SOL    HW2  952   3.485   1.810   1.428
 1418SOL     OW  953   2.684   1.002   1.372
 1418SOL    HW1  954   2.724   1.001   1.280
 1418SOL    HW2  955   2.694   1.094   1.412
 1421SOL     OW  956   2.234   1.288   1.490
 1421SOL    HW1  957   2.221   1.381   1.456
 1421SOL    HW2  958   2.150   1.236   1.477
 1428SOL     OW  959   1.967   1.013   1.726
 1428SOL    HW1  960   1.890   0.980   1.780
 1428SOL    HW2  961   2.052   0.983   1.768
 1434SOL     OW  962   2.475   0.842   1.431
 1434SOL    HW1  963   2.531   0.923   1.414
 1434SOL    HW2  964   2.534   0.762   1.434
 1435SOL     OW  965   3.355   1.767   0.959
 1435SOL    HW1  966   3.388   1.831   0.890
 1435SOL    HW2  967   3.421   1.761   1.034
 1437SOL     OW  968   3.312   1.220   1.633
 1437SOL    HW1  969   3.303   1.210   1.732
 1437SOL    HW2  970   3.408   1.213   1.607
 1438SOL     OW  971   2.252   1.741   1.560
 1438SOL    HW1  972   2.161   1.782   1.558
 1438SOL    HW2  973   2.245   1.647   1.592
 1445SOL     OW  974   2.523   1.790   0.953
 1445SOL    HW1  975   2.477   1.878   0.940
 1445SOL    HW2  976   2.622   1.802   0.946
 1449SOL     OW  977   2.083   1.314   1.844
 1449SOL    HW1  978   2.018   1.241   1.823
 1449SOL    HW2  979   2.087   1.328   1.942
 1451SOL     OW  980   2.534   1.391   1.624
 1451SOL    HW1  981   2.456   1.341   1.662
 1451SOL    HW2  982   2.531   1.486   1.655
 1456SOL     OW  983   2.674   1.586   0.687
 1456SOL    HW1  984   2.706   1.596   0.593
 1456SOL    HW2  985   2.595   1.524   0.689
 1460SOL     OW  986   2.480   1.567   1.284
 1460SOL    HW1  987   2.475   1.649   1.341
 1460SOL    HW2  988   2.569   1.564   1.239
 1466SOL     OW  989   2.092   0.628   1.975
 1466SOL    HW1  990   1.999   0.626   2.012
 1466SOL    HW2  991   2.093   0.589   1.883
 1469SOL     OW  992   2.431   1.275   3.027
 1469SOL    HW1  993   2.338   1.268   2.990
 1469SOL    HW2  994   2.442   1.364   3.071
 1470SOL     OW  995   3.417   1.511   2.565
 1470SOL    HW1  996   3.360   1.495   2.646
 1470SOL    HW2  997   3.358   1.521   2.485
 1471SOL     OW  998   2.997   0.703   2.579
 1471SOL    HW1  999   3.054   0.781   2.554
 1471SOL    HW2 1000   2.937   0.729   2.655
 1473SOL     OW 1001   2.630   1.144   2.885
 1473SOL    HW1 1002   2.552   1.161   2.945
 1473SOL    HW2 1003   2.664   1.231   2.849
 1475SOL     OW 1004   2.547   1.012   2.527
 1475SOL    HW1 1005   2.616   0.996   2.597
 1475SOL    HW2 1006   2.474   1.069   2.565
 1477SOL     OW 1007   2.197   1.435   2.923
 1477SOL    HW1 1008   2.119   1.404   2.870
 1477SOL    HW2 1009   2.255   1.493   2.866
 1478SOL     OW 1010   3.322   1.505   3.201
 1478SOL    HW1 1011   3.346   1.599   3.227
 1478SOL    HW2 1012   3.306   1.451   3.283
 1481SOL     OW 1013   2.093   1.713   2.345
 1481SOL    HW1 1014   2.127   1.790   2.399
 1481SOL    HW2 1015   2.137   1.713   2.255
 1482SOL     OW 1016   2.989   1.341   3.552
 1482SOL    HW1 1017   3.036   1.341   3.640
 1482SOL    HW2 1018   2.941   1.254   3.541
 1483SOL     OW 1019   2.092   1.434   2.400
 1483SOL    HW1 1020   2.066   1.530   2.400
 1483SOL    HW2 1021   2.021   1.380   2.445
 1484SOL     OW 1022   2.102   1.091   2.748
 1484SOL    HW1 1023   2.116   1.007   2.800
 1484SOL    HW2 1024   2.047   1.155   2.803
 1485SOL     OW 1025   2.482   1.786   3.301
 1485SOL    HW1 1026   2.390   1.769   3.336
 1485SOL    HW2 1027   2.510   1.878   3.327
 1486SOL     OW 1028   2.468   0.964   1.985
 1486SOL    HW1 1029   2.475   1.048   1.931
 1486SOL    HW2 1030   2.514   0.977   2.073
 1488SOL     OW 1031   1.984   0.643   2.425
 1488SOL    HW1 1032   1.939   0.555   2.442
 1488SOL    HW2 1033   1.983   0.697   2.509
 1489SOL     OW 1034   3.704   1.767   2.221
 1489SOL    HW1 1035   3.758   1.738   2.301
 1489SOL    HW2 1036   3.734   1.857   2.192
 1490SOL     OW 1037   1.889   1.596   1.979
 1490SOL    HW1 1038   1.870   1.500   2.000
 1490SOL    HW2 1039   1.856   1.654   2.054
 1492SOL     OW 1040   3.503   1.108   2.294
 1492SOL    HW1 1041   3.589   1.110   2.242
 1492SOL    HW2 1042   3.517   1.155   2.382
 1494SOL     OW 1043   2.475   1.365   2.588
 1494SOL    HW1 1044   2.426   1.278   2.597
 1494SOL    HW2 1045   2.452   1.408   2.501
 1495SOL     OW 1046   3.155   1.228   3.285
 1495SOL    HW1 1047   3.192   1.155   3.227
 1495SOL    HW2 1048   3.207   1.233   3.370
 1497SOL     OW 1049   2.059   0.976   3.126
 1497SOL    HW1 1050   2.148   0.931   3.112
 1497SOL    HW2 1051   1.986   0.911   3.107
 1498SOL     OW 1052   3.387   0.999   2.052
 1498SOL    HW1 1053   3.324   0.923   2.065
 1498SOL    HW2 1054   3.435   1.017   2.138
 1499SOL     OW 1055   3.049   1.792   3.478
 1499SOL    HW1 1056   3.073   1.852   3.402
 1499SOL    HW2 1057   3.056   1.697   3.448
 1501SOL     OW 1058   3.328   1.417   2.815
 1501SOL    HW1 1059   3.269   1.423   2.895
 1501SOL    HW2 1060   3.313   1.329   2.769
 1502SOL     OW 1061   3.529   1.714   2.434
 1502SOL    HW1 1062   3.488   1.691   2.346
 1502SOL    HW2 1063   3.511   1.640   2.499
 1503SOL     OW 1064   2.460   0.729   2.132
 1503SOL    HW1 1065   2.484   0.798   2.064
 1503SOL    HW2 1066   2.382   0.762   2.186
 1505SOL     OW 1067   3.438   1.662   2.169
 1505SOL    HW1 1068   3.527   1.708   2.172
 1505SOL    HW2 1069   3.417   1.638   2.074
 1510SOL     OW 1070   2.903   0.701   2.291
 1510SOL    HW1 1071   2.929   0.697   2.387
 1510SOL    HW2 1072   2.818   0.650   2.277
 1511SOL     OW 1073   1.938   0.811   2.651
 1511SOL    HW1 1074   2.037   0.799   2.660
 1511SOL    HW2 1075   1.914   0.906   2.672
 1512SOL     OW 1076   1.992   1.821   3.433
 1512SOL    HW1 1077   1.982   1.806   3.532
 1512SOL    HW2 1078   1.906   1.857   3.397
 1515SOL     OW 1079   3.224   1.144   2.407
 1515SOL    HW1 1080   3.307   1.115   2.359
 1515SOL    HW2 1081   3.175   1.211   2.351
 1517SOL     OW 1082   2.870   1.456   2.339
 1517SOL    HW1 1083   2.824   1.528   2.287
 1517SOL    HW2 1084   2.866   1.476   2.437
 1518SOL     OW 1085   2.213   1.801   2.715
 1518SOL    HW1 1086   2.263   1.715   2.721
 1518SOL    HW2 1087   2.278   1.878   2.712
 1520SOL     OW 1088   3.089   1.550   3.368
 1520SOL    HW1 1089   3.095   1.473   3.432
 1520SOL    HW2 1090   3.037   1.524   3.288
 1521SOL     OW 1091   2.183   0.943   2.104
 1521SOL    HW1 1092   2.265   0.982   2.062
 1521SOL    HW2 1093   2.156   0.861   2.055
 1523SOL     OW 1094   2.323   1.266   3.589
 1523SOL    HW1 1095   2.273   1.267   3.503
 1523SOL    HW2 1096   2.260   1.248   3.665
 1524SOL     OW 1097   2.973   1.776   2.099
 1524SOL    HW1 1098   2.913   1.714   2.149
 1524SOL    HW2 1099   3.004   1.732   2.014
 1526SOL     OW 1100   3.494   1.377   1.943
 1526SOL    HW1 1101   3.462   1.471   1.933
 1526SOL    HW2 1102   3.418   1.314   1.931
 1527SOL     OW 1103   2.326   1.743   2.185
 1527SOL    HW1 1104   2.359   1.782   2.271
 1527SOL    HW2 1105   2.402   1.736   2.120
 1529SOL     OW 1106   2.111   1.785   3.103
 1529SOL    HW1 1107   2.168   1.720   3.153
 1529SOL    HW2 1108   2.095   1.752   3.010
 1530SOL     OW 1109   2.802   1.698   2.766
 1530SOL    HW1 1110   2.882   1.641   2.787
 1530SOL    HW2 1111   2.753   1.658   2.689
 1531SOL     OW 1112   2.244   0.700   2.342
 1531SOL    HW1 1113   2.289   0.610   2.339
 1531SOL    HW2 1114   2.150   0.689   2.375
 1535SOL     OW 1115   2.750   1.514   3.057
 1535SOL    HW1 1116   2.727   1.489   2.963
 1535SOL    HW2 1117   2.811   1.445   3.096
 1537SOL     OW 1118   2.665   1.402   2.786
 1537SOL    HW1 1119   2.755   1.416   2.744
 1537SOL    HW2 1120   2.594   1.404   2.715
 1540SOL     OW 1121   3.296   1.188   1.903
 1540SOL    HW1 1122   3.328   1.112   1.960
 1540SOL    HW2 1123   3.204   1.215   1.933
 1544SOL     OW 1124   3.089   1.570   2.655
 1544SOL    HW1 1125   3.110   1.644   2.590
 1544SOL    HW2 1126   3.157   1.570   2.728
 1545SOL     OW 1127   2.321   1.152   2.603
 1545SOL    HW1 1128   2.250   1.125   2.668
 1545SOL    HW2 1129   2.295   1.124   2.510
 1546SOL     OW 1130   3.133   1.797   2.453
 1546SOL    HW1 1131   3.177   1.861   2.389
 1546SOL    HW2 1132   3.083   1.849   2.523
 1552SOL     OW 1133   3.291   1.173   2.729
 1552SOL    HW1 1134   3.236   1.089   2.722
 1552SOL    HW2 1135   3.317   1.202   2.637
 1555SOL     OW 1136   2.350   1.385   2.036
 1555SOL    HW1 1137   2.263   1.370   2.083
 1555SOL    HW2 1138   2.333   1.411   1.941
 1556SOL     OW 1139   3.526   1.280   2.519
 1556SOL    HW1 1140   3.625   1.288   2.533
 1556SOL    HW2 1141   3.481   1.364   2.550
 1560SOL     OW 1142   2.926   1.347   3.202
 1560SOL    HW1 1143   2.846   1.324   3.257
 1560SOL    HW2 1144   3.009   1.321   3.251
 1562SOL     OW 1145   2.973   1.195   2.962
 1562SOL    HW1 1146   2.933   1.239   3.043
 1562SOL    HW2 1147   2.932   1.232   2.879
 1566SOL     OW 1148   2.567   1.050   2.230
 1566SOL    HW1 1149   2.553   1.057   2.329
 1566SOL    HW2 1150   2.651   0.999   2.212
 1567SOL     OW 1151   2.272   0.813   3.113
 1567SOL    HW1 1152   2.358   0.825   3.163
 1567SOL    HW2 1153   2.230   0.726   3.140
 1569SOL     OW 1154   1.926   1.564   3.193
 1569SOL    HW1 1155   1.880   1.646   3.159
 1569SOL    HW2 1156   2.024   1.583   3.202
 1570SOL     OW 1157   2.229   1.100   2.363
 1570SOL    HW1 1158   2.222   1.183   2.307
 1570SOL    HW2 1159   2.233   1.020   2.303
 1571SOL     OW 1160   2.428   0.537   2.727
 1571SOL    HW1 1161   2.440   0.603   2.653
 1571SOL    HW2 1162   2.474   0.571   2.810
 1572SOL     OW 1163   3.114   1.348   2.250
 1572SOL    HW1 1164   3.164   1.425   2.290
 1572SOL    HW2 1165   3.019   1.350   2.282
 1573SOL     OW 1166   3.134   1.445   3.004
 1573SOL    HW1 1167   3.181   1.458   3.091
 1573SOL    HW2 1168   3.068   1.371   3.013
 1575SOL     OW 1169   2.216   1.510   3.191
 1575SOL    HW1 1170   2.195   1.466   3.104
 1575SOL    HW2 1171   2.313   1.536   3.194
 1580SOL     OW 1172   2.435   0.870   2.891
 1580SOL    HW1 1173   2.479   0.959   2.882
 1580SOL    HW2 1174   2.372   0.870   2.968
 1584SOL     OW 1175   1.899   1.310   3.144
 1584SOL    HW1 1176   1.952   1.261   3.212
 1584SOL    HW2 1177   1.921   1.408   3.149
 1585SOL     OW 1178   2.594   0.634   2.926
 1585SOL    HW1 1179   2.653   0.608   2.850
 1585SOL    HW2 1180   2.566   0.730   2.915
 1589SOL     OW 1181   2.885   0.766   2.828
 1589SOL    HW1 1182   2.900   0.787   2.924
 1589SOL    HW2 1183   2.855   0.671   2.819
 1590SOL     OW 1184   2.842   1.573   3.562
 1590SOL    HW1 1185   2.822   1.617   3.474
 1590SOL    HW2 1186   2.881   1.482   3.546
 1594SOL     OW 1187   3.165   0.838   1.904
 1594SOL    HW1 1188   3.199   0.745   1.919
 1594SOL    HW2 1189   3.183   0.865   1.809
 1595SOL     OW 1190   2.930   1.333   2.711
 1595SOL    HW1 1191   2.937   1.249   2.656
 1595SOL    HW2 1192   2.992   1.402   2.675
 1596SOL     OW 1193   2.181   0.810   2.811
 1596SOL    HW1 1194   2.274   0.846   2.816
 1596SOL    HW2 1195   2.175   0.725   2.863
 1600SOL     OW 1196   1.870   1.326   2.062
 1600SOL    HW1 1197   1.777   1.347   2.031
 1600SOL    HW2 1198   1.880   1.227   2.075
 1601SOL     OW 1199   1.950   1.801   2.789
 1601SOL    HW1 1200   1.908   1.715   2.762
 1601SOL    HW2 1201   2.044   1.804   2.755
 1602SOL     OW 1202   2.366   1.568   2.772
 1602SOL    HW1 1203   2.432   1.642   2.781
 1602SOL    HW2 1204   2.410   1.489   2.730
 1603SOL     OW 1205   2.864   0.796   3.100
 1603SOL    HW1 1206   2.905   0.764   3.186
 1603SOL    HW2 1207   2.768   0.769   3.097
 1607SOL     OW 1208   2.677   0.572   2.187
 1607SOL    HW1 1209   2.684   0.483   2.141
 1607SOL    HW2 1210   2.583   0.606   2.179
 1609SOL     OW 1211   2.114   1.564   3.606
 1609SOL    HW1 1212   2.084   1.621   3.682
 1609SOL    HW2 1213   2.107   1.467   3.632
 1611SOL     OW 1214   2.792   1.678   3.327
 1611SOL    HW1 1215   2.768   1.660   3.232
 1611SOL    HW2 1216   2.822   1.772   3.337
 1612SOL     OW 1217   2.335   0.500   2.053
 1612SOL    HW1 1218   2.396   0.580   2.057
 1612SOL    HW2 1219   2.240   0.531   2.060
 1613SOL     OW 1220   2.021   1.137   3.328
 1613SOL    HW1 1221   2.043   1.076   3.404
 1613SOL    HW2 1222   2.031   1.088   3.242
 1614SOL     OW 1223   3.209   1.059   3.096
 1614SOL    HW1 1224   3.233   0.996   3.022
 1614SOL    HW2 1225   3.119   1.099   3.078
 1615SOL     OW 1226   3.164   0.855   2.171
 1615SOL    HW1 1227   3.078   0.824   2.213
 1615SOL    HW2 1228   3.160   0.841   2.072
 1616SOL     OW 1229   3.621   1.747   3.016
 1616SOL    HW1 1230   3.682   1.777   2.943
 1616SOL    HW2 1231   3.583   1.658   2.994
 1617SOL     OW 1232   3.114   1.731   2.990
 1617SOL    HW1 1233   3.198   1.736   2.936
 1617SOL    HW2 1234   3.091   1.635   3.008
 1618SOL     OW 1235   1.945   1.258   2.884
 1618SOL    HW1 1236   1.940   1.257   2.984
 1618SOL    HW2 1237   1.862   1.217   2.846
 1619SOL     OW 1238   2.550   1.662   3.578
 1619SOL    HW1 1239   2.494   1.743   3.587
 1619SOL    HW2 1240   2.602   1.666   3.492
 1621SOL     OW 1241   3.250   1.573   2.339
 1621SOL    HW1 1242   3.317   1.585   2.265
 1621SOL    HW2 1243   3.210   1.662   2.362
 1622SOL     OW 1244   1.992   1.794   3.713
 1622SOL    HW1 1245   1.951   1.720   3.766
 1622SOL    HW2 1246   2.056   1.845   3.771
 1623SOL     OW 1247   3.142   0.927   2.534
 1623SOL    HW1 1248   3.202   0.846   2.536
 1623SOL    HW2 1249   3.182   0.996   2.474
 1624SOL     OW 1250   2.692   1.273   3.284
 1624SOL    HW1 1251   2.687   1.306   3.379
 1624SOL    HW2 1252   2.606   1.292   3.238
 1625SOL     OW 1253   2.534   1.616   2.016
 1625SOL    HW1 1254   2.543   1.626   1.917
 1625SOL    HW2 1255   2.494   1.527   2.037
 1626SOL     OW 1256   3.512   1.720   3.256
 1626SOL    HW1 1257   3.565   1.730   3.172
 1626SOL    HW2 1258   3.485   1.810   3.290
 1629SOL     OW 1259   3.056   1.612   1.893
 1629SOL    HW1 1260   3.062   1.519   1.930
 1629SOL    HW2 1261   2.997   1.612   1.813
 1630SOL     OW 1262   2.684   1.002   3.234
 1630SOL    HW1 1263   2.724   1.001   3.142
 1630SOL    HW2 1264   2.694   1.094   3.274
 1631SOL     OW 1265   2.778   0.910   2.153
 1631SOL    HW1 1266   2.841   0.948   2.085
 1631SOL    HW2 1267   2.818   0.827   2.192
 1632SOL     OW 1268   3.366   1.607   1.906
 1632SOL    HW1 1269   3.274   1.644   1.913
 1632SOL    HW2 1270   3.404   1.627   1.816
 1633SOL     OW 1271   2.234   1.288   3.352
 1633SOL    HW1 1272   2.221   1.381   3.318
 1633SOL    HW2 1273   2.150   1.236   3.339
 1634SOL     OW 1274   3.476   1.292   3.151
 1634SOL    HW1 1275   3.536   1.295   3.231
 1634SOL    HW2 1276   3.401   1.356   3.164
 1635SOL     OW 1277   2.901   1.098   2.558
 1635SOL    HW1 1278   2.831   1.051   2.612
 1635SOL    HW2 1279   2.960   1.030   2.515
 1637SOL     OW 1280   2.452   1.487   2.353
 1637SOL    HW1 1281   2.494   1.429   2.283
 1637SOL    HW2 1282   2.408   1.566   2.309
 1639SOL     OW 1283   2.117   1.348   2.152
 1639SOL    HW1 1284   2.021   1.349   2.125
 1639SOL    HW2 1285   2.129   1.401   2.236
 1645SOL     OW 1286   3.045   1.335   1.981
 1645SOL    HW1 1287   2.946   1.324   1.983
 1645SOL    HW2 1288   3.079   1.350   2.074
 1646SOL     OW 1289   2.475   0.842   3.293
 1646SOL    HW1 1290   2.531   0.923   3.276
 1646SOL    HW2 1291   2.534   0.762   3.296
 1647SOL     OW 1292   3.355   1.767   2.821
 1647SOL    HW1 1293   3.388   1.831   2.752
 1647SOL    HW2 1294   3.421   1.761   2.896
 1650SOL     OW 1295   2.252   1.741   3.422
 1650SOL    HW1 1296   2.161   1.782   3.420
 1650SOL    HW2 1297   2.245   1.647   3.454
 1653SOL     OW 1298   2.456   0.745   2.514
 1653SOL    HW1 1299   2.506   0.830   2.495
 1653SOL    HW2 1300   2.368   0.747   2.466
 1656SOL     OW 1301   2.721   1.374   1.878
 1656SOL    HW1 1302   2.675   1.389   1.966
 1656SOL    HW2 1303   2.765   1.459   1.848
 1657SOL     OW 1304   2.523   1.790   2.815
 1657SOL    HW1 1305   2.477   1.878   2.802
 1657SOL    HW2 1306   2.622   1.802   2.808
 1658SOL     OW 1307   2.721   0.956   2.723
 1658SOL    HW1 1308   2.775   0.887   2.771
 1658SOL    HW2 1309   2.689   1.025   2.789
 1659SOL     OW 1310   2.945   0.984   1.949
 1659SOL    HW1 1311   2.922   1.037   1.867
 1659SOL    HW2 1312   3.026   0.928   1.930
 1660SOL     OW 1313   3.723   1.569   2.713
 1660SOL    HW1 1314   3.652   1.557   2.643
 1660SOL    HW2 1315   3.724   1.490   2.773
 1661SOL     OW 1316   2.083   1.314   3.706
 1661SOL    HW1 1317   2.018   1.241   3.685
 1661SOL    HW2 1318   2.087   1.328   3.804
 1662SOL     OW 1319   1.941   1.240   2.515
 1662SOL    HW1 1320   1.940   1.193   2.603
 1662SOL    HW2 1321   2.023   1.212   2.464
 1663SOL     OW 1322   2.534   1.391   3.486
 1663SOL    HW1 1323   2.456   1.341   3.524
 1663SOL    HW2 1324   2.531   1.486   3.517
 1666SOL     OW 1325   3.567   1.487   2.966
 1666SOL    HW1 1326   3.474   1.462   2.939
 1666SOL    HW2 1327   3.593   1.437   3.048
 1668SOL     OW 1328   2.674   1.586   2.549
 1668SOL    HW1 1329   2.706   1.596   2.455
 1668SOL    HW2 1330   2.595   1.524   2.551
 1671SOL     OW 1331   2.632   1.330   2.163
 1671SOL    HW1 1332   2.586   1.243   2.180
 1671SOL    HW2 1333   2.723   1.327   2.204
 1672SOL     OW 1334   2.480   1.567   3.146
 1672SOL    HW1 1335   2.475   1.649   3.203
 1672SOL    HW2 1336   2.569   1.564   3.101
 1676SOL     OW 1337   1.901   1.077   2.162
 1676SOL    HW1 1338   2.000   1.066   2.153
 1676SOL    HW2 1339   1.861   0.991   2.194
 1677SOL     OW 1340   2.737   1.646   2.199
 1677SOL    HW1 1341   2.660   1.611   2.145
 1677SOL    HW2 1342   2.705   1.717   2.261
 1688SOL     OW 1343   1.889   1.596   3.841
 1688SOL    HW1 1344   1.870   1.500   3.862
 1688SOL    HW2 1345   1.856   1.654   3.916
 1741SOL     OW 1346   2.534   1.616   3.878
 1741SOL    HW1 1347   2.543   1.626   3.779
 1741SOL    HW2 1348   2.494   1.527   3.899
 1752SOL     OW 1349   2.721   1.374   3.740
 1752SOL    HW1 1350   2.675   1.389   3.828
 1752SOL    HW2 1351   2.765   1.459   3.710
 1765SOL     OW 1352   2.087   2.137   0.996
 1765SOL    HW1 1353   2.122   2.120   1.088
 1765SOL    HW2 1354   1.999   2.092   0.984
 1766SOL     OW 1355   1.881   2.230   0.647
 1766SOL    HW1 1356   1.799   2.273   0.686
 1766SOL    HW2 1357   1.853   2.157   0.584
 1767SOL     OW 1358   2.431   3.137   1.165
 1767SOL    HW1 1359   2.338   3.130   1.128
 1767SOL    HW2 1360   2.442   3.226   1.209
 1769SOL     OW 1361   2.997   2.565   0.717
 1769SOL    HW1 1362   3.054   2.643   0.692
 1769SOL    HW2 1363   2.937   2.591   0.793
 1771SOL     OW 1364   2.630   3.006   1.023
 1771SOL    HW1 1365   2.552   3.023   1.083
 1771SOL    HW2 1366   2.664   3.093   0.987
 1772SOL     OW 1367   2.712   2.660   1.823
 1772SOL    HW1 1368   2.708   2.736   1.888
 1772SOL    HW2 1369   2.734   2.696   1.732
 1773SOL     OW 1370   2.547   2.874   0.665
 1773SOL    HW1 1371   2.616   2.858   0.735
 1773SOL    HW2 1372   2.474   2.931   0.703
 1774SOL     OW 1373   2.548   3.023   1.803
 1774SOL    HW1 1374   2.608   3.102   1.817
 1774SOL    HW2 1375   2.462   3.054   1.762
 1775SOL     OW 1376   2.197   3.297   1.061
 1775SOL    HW1 1377   2.119   3.266   1.008
 1775SOL    HW2 1378   2.255   3.355   1.004
 1776SOL     OW 1379   3.322   3.367   1.339
 1776SOL    HW1 1380   3.346   3.461   1.365
 1776SOL    HW2 1381   3.306   3.313   1.421
 1777SOL     OW 1382   2.300   2.254   1.499
 1777SOL    HW1 1383   2.382   2.198   1.508
 1777SOL    HW2 1384   2.219   2.196   1.503
 1780SOL     OW 1385   2.989   3.203   1.690
 1780SOL    HW1 1386   3.036   3.203   1.778
 1780SOL    HW2 1387   2.941   3.116   1.679
 1782SOL     OW 1388   2.102   2.953   0.886
 1782SOL    HW1 1389   2.116   2.869   0.938
 1782SOL    HW2 1390   2.047   3.017   0.941
 1783SOL     OW 1391   2.482   3.648   1.439
 1783SOL    HW1 1392   2.390   3.631   1.474
 1783SOL    HW2 1393   2.510   3.740   1.465
 1785SOL     OW 1394   3.456   1.976   1.480
 1785SOL    HW1 1395   3.438   2.043   1.408
 1785SOL    HW2 1396   3.453   2.022   1.569
 1786SOL     OW 1397   1.984   2.505   0.563
 1786SOL    HW1 1398   1.939   2.417   0.580
 1786SOL    HW2 1399   1.983   2.559   0.647
 1791SOL     OW 1400   1.975   2.599   1.597
 1791SOL    HW1 1401   2.063   2.586   1.642
 1791SOL    HW2 1402   1.962   2.696   1.575
 1793SOL     OW 1403   3.155   3.090   1.423
 1793SOL    HW1 1404   3.192   3.017   1.365
 1793SOL    HW2 1405   3.207   3.095   1.508
 1795SOL     OW 1406   2.059   2.838   1.264
 1795SOL    HW1 1407   2.148   2.793   1.250
 1795SOL    HW2 1408   1.986   2.773   1.245
 1797SOL     OW 1409   3.049   3.654   1.616
 1797SOL    HW1 1410   3.073   3.714   1.540
 1797SOL    HW2 1411   3.056   3.559   1.586
 1798SOL     OW 1412   2.179   2.113   1.801
 1798SOL    HW1 1413   2.250   2.184   1.807
 1798SOL    HW2 1414   2.091   2.152   1.829
 1802SOL     OW 1415   3.143   2.207   0.944
 1802SOL    HW1 1416   3.057   2.157   0.931
 1802SOL    HW2 1417   3.205   2.153   1.000
 1804SOL     OW 1418   2.669   2.467   1.465
 1804SOL    HW1 1419   2.622   2.464   1.554
 1804SOL    HW2 1420   2.618   2.412   1.399
 1805SOL     OW 1421   3.256   2.331   1.674
 1805SOL    HW1 1422   3.236   2.374   1.762
 1805SOL    HW2 1423   3.334   2.269   1.683
 1806SOL     OW 1424   2.835   2.752   1.572
 1806SOL    HW1 1425   2.881   2.668   1.543
 1806SOL    HW2 1426   2.779   2.786   1.497
 1807SOL     OW 1427   2.853   2.272   1.242
 1807SOL    HW1 1428   2.776   2.306   1.296
 1807SOL    HW2 1429   2.819   2.221   1.163
 1809SOL     OW 1430   1.938   2.673   0.789
 1809SOL    HW1 1431   2.037   2.661   0.798
 1809SOL    HW2 1432   1.914   2.768   0.810
 1810SOL     OW 1433   1.992   3.683   1.571
 1810SOL    HW1 1434   1.982   3.668   1.670
 1810SOL    HW2 1435   1.906   3.719   1.535
 1812SOL     OW 1436   3.581   2.447   1.831
 1812SOL    HW1 1437   3.555   2.536   1.795
 1812SOL    HW2 1438   3.579   2.379   1.758
 1814SOL     OW 1439   2.412   2.058   0.885
 1814SOL    HW1 1440   2.407   2.053   0.985
 1814SOL    HW2 1441   2.414   2.154   0.856
 1818SOL     OW 1442   3.089   3.412   1.506
 1818SOL    HW1 1443   3.095   3.335   1.570
 1818SOL    HW2 1444   3.037   3.386   1.426
 1821SOL     OW 1445   2.323   3.128   1.727
 1821SOL    HW1 1446   2.273   3.129   1.641
 1821SOL    HW2 1447   2.260   3.110   1.803
 1823SOL     OW 1448   2.064   2.147   1.498
 1823SOL    HW1 1449   1.984   2.207   1.485
 1823SOL    HW2 1450   2.054   2.098   1.584
 1827SOL     OW 1451   2.111   3.647   1.241
 1827SOL    HW1 1452   2.168   3.582   1.291
 1827SOL    HW2 1453   2.095   3.614   1.148
 1830SOL     OW 1454   3.409   2.084   1.729
 1830SOL    HW1 1455   3.404   2.121   1.821
 1830SOL    HW2 1456   3.337   2.015   1.717
 1831SOL     OW 1457   2.643   2.126   1.749
 1831SOL    HW1 1458   2.710   2.065   1.792
 1831SOL    HW2 1459   2.570   2.145   1.814
 1832SOL     OW 1460   2.750   3.376   1.195
 1832SOL    HW1 1461   2.727   3.351   1.101
 1832SOL    HW2 1462   2.811   3.307   1.234
 1833SOL     OW 1463   3.213   2.452   1.433
 1833SOL    HW1 1464   3.241   2.409   1.518
 1833SOL    HW2 1465   3.238   2.548   1.434
 1834SOL     OW 1466   2.665   3.264   0.924
 1834SOL    HW1 1467   2.755   3.278   0.882
 1834SOL    HW2 1468   2.594   3.266   0.853
 1835SOL     OW 1469   2.784   2.365   0.899
 1835SOL    HW1 1470   2.759   2.356   0.803
 1835SOL    HW2 1471   2.832   2.283   0.930
 1836SOL     OW 1472   2.401   1.926   0.512
 1836SOL    HW1 1473   2.320   1.927   0.570
 1836SOL    HW2 1474   2.404   2.009   0.457
 1839SOL     OW 1475   2.938   2.545   1.464
 1839SOL    HW1 1476   2.858   2.484   1.467
 1839SOL    HW2 1477   3.019   2.492   1.440
 1841SOL     OW 1478   2.321   3.014   0.741
 1841SOL    HW1 1479   2.250   2.987   0.806
 1841SOL    HW2 1480   2.295   2.986   0.648
 1844SOL     OW 1481   1.940   2.418   1.386
 1844SOL    HW1 1482   2.032   2.417   1.345
 1844SOL    HW2 1483   1.934   2.492   1.453
 1845SOL     OW 1484   2.423   2.084   1.147
 1845SOL    HW1 1485   2.461   2.000   1.184
 1845SOL    HW2 1486   2.335   2.103   1.191
 1846SOL     OW 1487   2.728   2.316   0.642
 1846SOL    HW1 1488   2.696   2.388   0.580
 1846SOL    HW2 1489   2.752   2.235   0.589
 1847SOL     OW 1490   2.879   1.901   0.753
 1847SOL    HW1 1491   2.807   1.906   0.684
 1847SOL    HW2 1492   2.855   1.832   0.822
 1849SOL     OW 1493   3.328   2.452   0.992
 1849SOL    HW1 1494   3.298   2.357   0.999
 1849SOL    HW2 1495   3.401   2.468   1.058
 1855SOL     OW 1496   3.616   3.085   1.588
 1855SOL    HW1 1497   3.707   3.046   1.575
 1855SOL    HW2 1498   3.624   3.181   1.612
 1856SOL     OW 1499   2.926   3.209   1.340
 1856SOL    HW1 1500   2.846   3.186   1.395
 1856SOL    HW2 1501   3.009   3.183   1.389
 1858SOL     OW 1502   2.973   3.057   1.100
 1858SOL    HW1 1503   2.933   3.101   1.181
 1858SOL    HW2 1504   2.932   3.094   1.017
 1860SOL     OW 1505   2.777   1.951   1.402
 1860SOL    HW1 1506   2.802   1.931   1.307
 1860SOL    HW2 1507   2.849   2.007   1.444
 1861SOL     OW 1508   2.842   2.978   1.719
 1861SOL    HW1 1509   2.743   2.984   1.729
 1861SOL    HW2 1510   2.865   2.898   1.663
 1863SOL     OW 1511   2.272   2.675   1.251
 1863SOL    HW1 1512   2.358   2.687   1.301
 1863SOL    HW2 1513   2.230   2.588   1.278
 1864SOL     OW 1514   3.136   2.248   1.262
 1864SOL    HW1 1515   3.157   2.322   1.326
 1864SOL    HW2 1516   3.047   2.265   1.219
 1865SOL     OW 1517   1.926   3.426   1.331
 1865SOL    HW1 1518   1.880   3.508   1.297
 1865SOL    HW2 1519   2.024   3.445   1.340
 1867SOL     OW 1520   2.428   2.399   0.865
 1867SOL    HW1 1521   2.440   2.465   0.791
 1867SOL    HW2 1522   2.474   2.433   0.948
 1869SOL     OW 1523   3.134   3.307   1.142
 1869SOL    HW1 1524   3.181   3.320   1.229
 1869SOL    HW2 1525   3.068   3.233   1.151
 1871SOL     OW 1526   2.216   3.372   1.329
 1871SOL    HW1 1527   2.195   3.328   1.242
 1871SOL    HW2 1528   2.313   3.398   1.332
 1872SOL     OW 1529   2.264   2.613   1.598
 1872SOL    HW1 1530   2.332   2.668   1.551
 1872SOL    HW2 1531   2.304   2.525   1.625
 1873SOL     OW 1532   3.449   2.641   1.670
 1873SOL    HW1 1533   3.357   2.679   1.665
 1873SOL    HW2 1534   3.509   2.688   1.605
 1874SOL     OW 1535   2.875   1.967   1.770
 1874SOL    HW1 1536   2.881   2.052   1.718
 1874SOL    HW2 1537   2.907   1.891   1.713
 1875SOL     OW 1538   2.366   1.912   1.740
 1875SOL    HW1 1539   2.324   1.855   1.670
 1875SOL    HW2 1540   2.300   1.981   1.772
 1876SOL     OW 1541   2.435   2.732   1.029
 1876SOL    HW1 1542   2.479   2.821   1.020
 1876SOL    HW2 1543   2.372   2.732   1.106
 1877SOL     OW 1544   3.222   2.724   1.045
 1877SOL    HW1 1545   3.147   2.724   0.979
 1877SOL    HW2 1546   3.259   2.632   1.054
 1879SOL     OW 1547   2.169   2.075   1.231
 1879SOL    HW1 1548   2.146   2.112   1.321
 1879SOL    HW2 1549   2.139   1.980   1.225
 1880SOL     OW 1550   1.899   3.172   1.282
 1880SOL    HW1 1551   1.952   3.123   1.350
 1880SOL    HW2 1552   1.921   3.270   1.287
 1881SOL     OW 1553   2.594   2.496   1.064
 1881SOL    HW1 1554   2.653   2.470   0.988
 1881SOL    HW2 1555   2.566   2.592   1.053
 1882SOL     OW 1556   3.590   2.797   1.854
 1882SOL    HW1 1557   3.544   2.790   1.765
 1882SOL    HW2 1558   3.528   2.841   1.920
 1883SOL     OW 1559   2.169   1.925   0.618
 1883SOL    HW1 1560   2.158   2.019   0.651
 1883SOL    HW2 1561   2.164   1.862   0.695
 1885SOL     OW 1562   2.885   2.628   0.966
 1885SOL    HW1 1563   2.900   2.649   1.062
 1885SOL    HW2 1564   2.855   2.533   0.957
 1886SOL     OW 1565   2.842   3.435   1.700
 1886SOL    HW1 1566   2.822   3.479   1.612
 1886SOL    HW2 1567   2.881   3.344   1.684
 1888SOL     OW 1568   2.212   2.760   1.804
 1888SOL    HW1 1569   2.288   2.804   1.852
 1888SOL    HW2 1570   2.247   2.713   1.722
 1892SOL     OW 1571   2.181   2.672   0.949
 1892SOL    HW1 1572   2.274   2.708   0.954
 1892SOL    HW2 1573   2.175   2.587   1.001
 1893SOL     OW 1574   2.201   2.371   1.006
 1893SOL    HW1 1575   2.149   2.288   0.989
 1893SOL    HW2 1576   2.278   2.376   0.942
 1894SOL     OW 1577   3.000   2.242   1.678
 1894SOL    HW1 1578   2.955   2.305   1.742
 1894SOL    HW2 1579   3.093   2.273   1.661
 1895SOL     OW 1580   3.022   2.069   1.477
 1895SOL    HW1 1581   3.022   2.133   1.554
 1895SOL    HW2 1582   3.050   2.117   1.394
 1898SOL     OW 1583   2.366   3.430   0.910
 1898SOL    HW1 1584   2.432   3.504   0.919
 1898SOL    HW2 1585   2.410   3.351   0.868
 1899SOL     OW 1586   2.864   2.658   1.238
 1899SOL    HW1 1587   2.905   2.626   1.324
 1899SOL    HW2 1588   2.768   2.631   1.235
 1900SOL     OW 1589   1.902   2.406   1.114
 1900SOL    HW1 1590   1.987   2.373   1.073
 1900SOL    HW2 1591   1.915   2.421   1.212
 1901SOL     OW 1592   2.051   2.382   1.722
 1901SOL    HW1 1593   2.110   2.342   1.652
 1901SOL    HW2 1594   1.993   2.453   1.681
 1902SOL     OW 1595   3.231   2.812   1.660
 1902SOL    HW1 1596   3.270   2.901   1.680
 1902SOL    HW2 1597   3.241   2.792   1.563
 1904SOL     OW 1598   3.519   2.466   1.206
 1904SOL    HW1 1599   3.481   2.397   1.268
 1904SOL    HW2 1600   3.601   2.430   1.162
 1905SOL     OW 1601   2.114   3.426   1.744
 1905SOL    HW1 1602   2.084   3.483   1.820
 1905SOL    HW2 1603   2.107   3.329   1.770
 1906SOL     OW 1604   2.533   2.326   1.269
 1906SOL    HW1 1605   2.499   2.237   1.239
 1906SOL    HW2 1606   2.559   2.380   1.189
 1907SOL     OW 1607   2.792   3.540   1.465
 1907SOL    HW1 1608   2.768   3.522   1.370
 1907SOL    HW2 1609   2.822   3.634   1.475
 1909SOL     OW 1610   2.021   2.999   1.466
 1909SOL    HW1 1611   2.043   2.938   1.542
 1909SOL    HW2 1612   2.031   2.950   1.380
 1910SOL     OW 1613   3.209   2.921   1.234
 1910SOL    HW1 1614   3.233   2.858   1.160
 1910SOL    HW2 1615   3.119   2.961   1.216
 1914SOL     OW 1616   1.945   3.120   1.022
 1914SOL    HW1 1617   1.940   3.119   1.122
 1914SOL    HW2 1618   1.862   3.079   0.984
 1915SOL     OW 1619   2.550   3.524   1.716
 1915SOL    HW1 1620   2.494   3.605   1.725
 1915SOL    HW2 1621   2.602   3.528   1.630
 1919SOL     OW 1622   1.992   3.656   1.851
 1919SOL    HW1 1623   1.951   3.582   1.904
 1919SOL    HW2 1624   2.056   3.707   1.909
 1921SOL     OW 1625   2.692   3.135   1.422
 1921SOL    HW1 1626   2.687   3.168   1.517
 1921SOL    HW2 1627   2.606   3.154   1.376
 1925SOL     OW 1628   2.125   2.188   0.720
 1925SOL    HW1 1629   2.046   2.239   0.686
 1925SOL    HW2 1630   2.116   2.173   0.818
 1927SOL     OW 1631   2.684   2.864   1.372
 1927SOL    HW1 1632   2.724   2.863   1.280
 1927SOL    HW2 1633   2.694   2.956   1.412
 1930SOL     OW 1634   2.234   3.150   1.490
 1930SOL    HW1 1635   2.221   3.243   1.456
 1930SOL    HW2 1636   2.150   3.098   1.477
 1931SOL     OW 1637   3.476   3.154   1.289
 1931SOL    HW1 1638   3.536   3.157   1.369
 1931SOL    HW2 1639   3.401   3.218   1.302
 1933SOL     OW 1640   2.876   2.098   0.971
 1933SOL    HW1 1641   2.868   2.062   0.878
 1933SOL    HW2 1642   2.874   2.022   1.036
 1935SOL     OW 1643   3.571   2.247   1.381
 1935SOL    HW1 1644   3.644   2.316   1.385
 1935SOL    HW2 1645   3.599   2.172   1.322
 1937SOL     OW 1646   1.967   2.875   1.726
 1937SOL    HW1 1647   1.890   2.842   1.780
 1937SOL    HW2 1648   2.052   2.845   1.768
 1938SOL     OW 1649   2.534   2.065   1.489
 1938SOL    HW1 1650   2.624   2.049   1.449
 1938SOL    HW2 1651   2.542   2.070   1.588
 1940SOL     OW 1652   3.302   2.718   1.398
 1940SOL    HW1 1653   3.245   2.770   1.335
 1940SOL    HW2 1654   3.398   2.730   1.374
 1943SOL     OW 1655   2.475   2.704   1.431
 1943SOL    HW1 1656   2.531   2.785   1.414
 1943SOL    HW2 1657   2.534   2.624   1.434
 1945SOL     OW 1658   2.578   2.427   1.708
 1945SOL    HW1 1659   2.597   2.492   1.782
 1945SOL    HW2 1660   2.638   2.347   1.717
 1946SOL     OW 1661   3.312   3.082   1.633
 1946SOL    HW1 1662   3.303   3.072   1.732
 1946SOL    HW2 1663   3.408   3.075   1.607
 1947SOL     OW 1664   2.252   3.603   1.560
 1947SOL    HW1 1665   2.161   3.644   1.558
 1947SOL    HW2 1666   2.245   3.509   1.592
 1948SOL     OW 1667   3.536   2.745   1.254
 1948SOL    HW1 1668   3.509   2.656   1.217
 1948SOL    HW2 1669   3.537   2.813   1.181
 1950SOL     OW 1670   2.456   2.607   0.652
 1950SOL    HW1 1671   2.506   2.692   0.633
 1950SOL    HW2 1672   2.368   2.609   0.604
 1951SOL     OW 1673   3.639   2.204   1.642
 1951SOL    HW1 1674   3.622   2.235   1.548
 1951SOL    HW2 1675   3.555   2.167   1.680
 1952SOL     OW 1676   3.592   2.796   1.517
 1952SOL    HW1 1677   3.630   2.887   1.532
 1952SOL    HW2 1678   3.584   2.779   1.418
 1955SOL     OW 1679   2.721   2.818   0.861
 1955SOL    HW1 1680   2.775   2.749   0.909
 1955SOL    HW2 1681   2.689   2.887   0.927
 1958SOL     OW 1682   2.083   3.176   1.844
 1958SOL    HW1 1683   2.018   3.103   1.823
 1958SOL    HW2 1684   2.087   3.190   1.942
 1960SOL     OW 1685   2.534   3.253   1.624
 1960SOL    HW1 1686   2.456   3.203   1.662
 1960SOL    HW2 1687   2.531   3.348   1.655
 1961SOL     OW 1688   3.686   2.054   1.227
 1961SOL    HW1 1689   3.682   1.964   1.271
 1961SOL    HW2 1690   3.689   2.043   1.128
 1962SOL     OW 1691   2.290   2.286   0.520
 1962SOL    HW1 1692   2.320   2.214   0.458
 1962SOL    HW2 1693   2.251   2.246   0.603
 1964SOL     OW 1694   2.179   2.409   1.280
 1964SOL    HW1 1695   2.217   2.350   1.352
 1964SOL    HW2 1696   2.219   2.383   1.192
 1966SOL     OW 1697   3.286   2.076   1.112
 1966SOL    HW1 1698   3.338   2.011   1.167
 1966SOL    HW2 1699   3.237   2.139   1.173
 1967SOL     OW 1700   2.863   1.896   1.154
 1967SOL    HW1 1701   2.800   1.824   1.123
 1967SOL    HW2 1702   2.956   1.860   1.154
 1969SOL     OW 1703   2.480   3.429   1.284
 1969SOL    HW1 1704   2.475   3.511   1.341
 1969SOL    HW2 1705   2.569   3.426   1.239
 1975SOL     OW 1706   2.092   2.490   1.975
 1975SOL    HW1 1707   1.999   2.488   2.012
 1975SOL    HW2 1708   2.093   2.451   1.883
 1976SOL     OW 1709   2.087   2.137   2.858
 1976SOL    HW1 1710   2.122   2.120   2.950
 1976SOL    HW2 1711   1.999   2.092   2.846
 1977SOL     OW 1712   1.881   2.230   2.509
 1977SOL    HW1 1713   1.799   2.273   2.548
 1977SOL    HW2 1714   1.853   2.157   2.446
 1978SOL     OW 1715   2.431   3.137   3.027
 1978SOL    HW1 1716   2.338   3.130   2.990
 1978SOL    HW2 1717   2.442   3.226   3.071
 1979SOL     OW 1718   3.417   3.373   2.565
 1979SOL    HW1 1719   3.360   3.357   2.646
 1979SOL    HW2 1720   3.358   3.383   2.485
 1980SOL     OW 1721   2.997   2.565   2.579
 1980SOL    HW1 1722   3.054   2.643   2.554
 1980SOL    HW2 1723   2.937   2.591   2.655
 1981SOL     OW 1724   3.617   2.469   2.093
 1981SOL    HW1 1725   3.605   2.456   1.994
 1981SOL    HW2 1726   3.587   2.388   2.142
 1982SOL     OW 1727   2.630   3.006   2.885
 1982SOL    HW1 1728   2.552   3.023   2.945
 1982SOL    HW2 1729   2.664   3.093   2.849
 1983SOL     OW 1730   2.712   2.660   3.685
 1983SOL    HW1 1731   2.708   2.736   3.750
 1983SOL    HW2 1732   2.734   2.696   3.594
 1984SOL     OW 1733   2.547   2.874   2.527
 1984SOL    HW1 1734   2.616   2.858   2.597
 1984SOL    HW2 1735   2.474   2.931   2.565
 1985SOL     OW 1736   2.548   3.023   3.665
 1985SOL    HW1 1737   2.608   3.102   3.679
 1985SOL    HW2 1738   2.462   3.054   3.624
 1986SOL     OW 1739   2.197   3.297   2.923
 1986SOL    HW1 1740   2.119   3.266   2.870
 1986SOL    HW2 1741   2.255   3.355   2.866
 1987SOL     OW 1742   3.322   3.367   3.201
 1987SOL    HW1 1743   3.346   3.461   3.227
 1987SOL    HW2 1744   3.306   3.313   3.283
 1988SOL     OW 1745   2.300   2.254   3.361
 1988SOL    HW1 1746   2.382   2.198   3.370
 1988SOL    HW2 1747   2.219   2.196   3.365
 1989SOL     OW 1748   3.465   2.309   2.599
 1989SOL    HW1 1749   3.391   2.355   2.549
 1989SOL    HW2 1750   3.516   2.377   2.652
 1990SOL     OW 1751   2.093   3.575   2.345
 1990SOL    HW1 1752   2.127   3.652   2.399
 1990SOL    HW2 1753   2.137   3.575   2.255
 1991SOL     OW 1754   2.989   3.203   3.552
 1991SOL    HW1 1755   3.036   3.203   3.640
 1991SOL    HW2 1756   2.941   3.116   3.541
 1992SOL     OW 1757   2.092   3.296   2.400
 1992SOL    HW1 1758   2.066   3.392   2.400
 1992SOL    HW2 1759   2.021   3.242   2.445
 1993SOL     OW 1760   2.102   2.953   2.748
 1993SOL    HW1 1761   2.116   2.869   2.800
 1993SOL    HW2 1762   2.047   3.017   2.803
 1994SOL     OW 1763   2.482   3.648   3.301
 1994SOL    HW1 1764   2.390   3.631   3.336
 1994SOL    HW2 1765   2.510   3.740   3.327
 1995SOL     OW 1766   2.468   2.826   1.985
 1995SOL    HW1 1767   2.475   2.910   1.931
 1995SOL    HW2 1768   2.514   2.839   2.073
 1996SOL     OW 1769   3.456   1.976   3.342
 1996SOL    HW1 1770   3.438   2.043   3.270
 1996SOL    HW2 1771   3.453   2.022   3.431
 1997SOL     OW 1772   1.984   2.505   2.425
 1997SOL    HW1 1773   1.939   2.417   2.442
 1997SOL    HW2 1774   1.983   2.559   2.509
 1999SOL     OW 1775   1.889   3.458   1.979
 1999SOL    HW1 1776   1.870   3.362   2.000
 1999SOL    HW2 1777   1.856   3.516   2.054
 2000SOL     OW 1778   3.551   2.784   2.474
 2000SOL    HW1 1779   3.646   2.755   2.482
 2000SOL    HW2 1780   3.543   2.849   2.399
 2001SOL     OW 1781   3.503   2.970   2.294
 2001SOL    HW1 1782   3.589   2.972   2.242
 2001SOL    HW2 1783   3.517   3.017   2.382
 2002SOL     OW 1784   1.975   2.599   3.459
 2002SOL    HW1 1785   2.063   2.586   3.504
 2002SOL    HW2 1786   1.962   2.696   3.437
 2003SOL     OW 1787   2.475   3.227   2.588
 2003SOL    HW1 1788   2.426   3.140   2.597
 2003SOL    HW2 1789   2.452   3.270   2.501
 2004SOL     OW 1790   3.155   3.090   3.285
 2004SOL    HW1 1791   3.192   3.017   3.227
 2004SOL    HW2 1792   3.207   3.095   3.370
 2005SOL     OW 1793   2.671   1.866   2.364
 2005SOL    HW1 1794   2.711   1.957   2.355
 2005SOL    HW2 1795   2.571   1.874   2.370
 2006SOL     OW 1796   2.059   2.838   3.126
 2006SOL    HW1 1797   2.148   2.793   3.112
 2006SOL    HW2 1798   1.986   2.773   3.107
 2007SOL     OW 1799   3.387   2.861   2.052
 2007SOL    HW1 1800   3.324   2.785   2.065
 2007SOL    HW2 1801   3.435   2.879   2.138
 2009SOL     OW 1802   2.179   2.113   3.663
 2009SOL    HW1 1803   2.250   2.184   3.669
 2009SOL    HW2 1804   2.091   2.152   3.691
 2010SOL     OW 1805   3.328   3.279   2.815
 2010SOL    HW1 1806   3.269   3.285   2.895
 2010SOL    HW2 1807   3.313   3.191   2.769
 2012SOL     OW 1808   2.460   2.591   2.132
 2012SOL    HW1 1809   2.484   2.660   2.064
 2012SOL    HW2 1810   2.382   2.624   2.186
 2013SOL     OW 1811   3.143   2.207   2.806
 2013SOL    HW1 1812   3.057   2.157   2.793
 2013SOL    HW2 1813   3.205   2.153   2.862
 2014SOL     OW 1814   3.438   3.524   2.169
 2014SOL    HW1 1815   3.527   3.570   2.172
 2014SOL    HW2 1816   3.417   3.500   2.074
 2015SOL     OW 1817   2.669   2.467   3.327
 2015SOL    HW1 1818   2.622   2.464   3.416
 2015SOL    HW2 1819   2.618   2.412   3.261
 2016SOL     OW 1820   3.256   2.331   3.536
 2016SOL    HW1 1821   3.236   2.374   3.624
 2016SOL    HW2 1822   3.334   2.269   3.545
 2017SOL     OW 1823   2.835   2.752   3.434
 2017SOL    HW1 1824   2.881   2.668   3.405
 2017SOL    HW2 1825   2.779   2.786   3.359
 2018SOL     OW 1826   2.853   2.272   3.104
 2018SOL    HW1 1827   2.776   2.306   3.158
 2018SOL    HW2 1828   2.819   2.221   3.025
 2019SOL     OW 1829   2.903   2.563   2.291
 2019SOL    HW1 1830   2.929   2.559   2.387
 2019SOL    HW2 1831   2.818   2.512   2.277
 2020SOL     OW 1832   1.938   2.673   2.651
 2020SOL    HW1 1833   2.037   2.661   2.660
 2020SOL    HW2 1834   1.914   2.768   2.672
 2022SOL     OW 1835   2.727   2.210   2.057
 2022SOL    HW1 1836   2.786   2.273   2.008
 2022SOL    HW2 1837   2.746   2.116   2.028
 2024SOL     OW 1838   3.224   3.006   2.407
 2024SOL    HW1 1839   3.307   2.977   2.359
 2024SOL    HW2 1840   3.175   3.073   2.351
 2025SOL     OW 1841   2.412   2.058   2.747
 2025SOL    HW1 1842   2.407   2.053   2.847
 2025SOL    HW2 1843   2.414   2.154   2.718
 2026SOL     OW 1844   2.870   3.318   2.339
 2026SOL    HW1 1845   2.824   3.390   2.287
 2026SOL    HW2 1846   2.866   3.338   2.437
 2027SOL     OW 1847   2.213   3.663   2.715
 2027SOL    HW1 1848   2.263   3.577   2.721
 2027SOL    HW2 1849   2.278   3.740   2.712
 2028SOL     OW 1850   3.657   2.928   2.735
 2028SOL    HW1 1851   3.595   2.913   2.659
 2028SOL    HW2 1852   3.605   2.939   2.820
 2029SOL     OW 1853   3.089   3.412   3.368
 2029SOL    HW1 1854   3.095   3.335   3.432
 2029SOL    HW2 1855   3.037   3.386   3.288
 2030SOL     OW 1856   2.183   2.805   2.104
 2030SOL    HW1 1857   2.265   2.844   2.062
 2030SOL    HW2 1858   2.156   2.723   2.055
 2031SOL     OW 1859   3.320   2.597   2.590
 2031SOL    HW1 1860   3.315   2.532   2.665
 2031SOL    HW2 1861   3.400   2.656   2.603
 2032SOL     OW 1862   2.323   3.128   3.589
 2032SOL    HW1 1863   2.273   3.129   3.503
 2032SOL    HW2 1864   2.260   3.110   3.665
 2033SOL     OW 1865   2.973   3.638   2.099
 2033SOL    HW1 1866   2.913   3.576   2.149
 2033SOL    HW2 1867   3.004   3.594   2.014
 2034SOL     OW 1868   2.064   2.147   3.360
 2034SOL    HW1 1869   1.984   2.207   3.347
 2034SOL    HW2 1870   2.054   2.098   3.446
 2035SOL     OW 1871   3.494   3.239   1.943
 2035SOL    HW1 1872   3.462   3.333   1.933
 2035SOL    HW2 1873   3.418   3.176   1.931
 2036SOL     OW 1874   2.326   3.605   2.185
 2036SOL    HW1 1875   2.359   3.644   2.271
 2036SOL    HW2 1876   2.402   3.598   2.120
 2037SOL     OW 1877   3.262   1.969   2.288
 2037SOL    HW1 1878   3.238   1.932   2.198
 2037SOL    HW2 1879   3.361   1.985   2.292
 2038SOL     OW 1880   2.111   3.647   3.103
 2038SOL    HW1 1881   2.168   3.582   3.153
 2038SOL    HW2 1882   2.095   3.614   3.010
 2039SOL     OW 1883   2.802   3.560   2.766
 2039SOL    HW1 1884   2.882   3.503   2.787
 2039SOL    HW2 1885   2.753   3.520   2.689
 2040SOL     OW 1886   2.244   2.562   2.342
 2040SOL    HW1 1887   2.289   2.472   2.339
 2040SOL    HW2 1888   2.150   2.551   2.375
 2041SOL     OW 1889   3.409   2.084   3.591
 2041SOL    HW1 1890   3.404   2.121   3.683
 2041SOL    HW2 1891   3.337   2.015   3.579
 2042SOL     OW 1892   2.476   1.984   1.979
 2042SOL    HW1 1893   2.574   1.962   1.986
 2042SOL    HW2 1894   2.445   1.967   1.886
 2043SOL     OW 1895   2.643   2.126   3.611
 2043SOL    HW1 1896   2.710   2.065   3.654
 2043SOL    HW2 1897   2.570   2.145   3.676
 2044SOL     OW 1898   2.750   3.376   3.057
 2044SOL    HW1 1899   2.727   3.351   2.963
 2044SOL    HW2 1900   2.811   3.307   3.096
 2045SOL     OW 1901   3.213   2.452   3.295
 2045SOL    HW1 1902   3.241   2.409   3.380
 2045SOL    HW2 1903   3.238   2.548   3.296
 2046SOL     OW 1904   2.665   3.264   2.786
 2046SOL    HW1 1905   2.755   3.278   2.744
 2046SOL    HW2 1906   2.594   3.266   2.715
 2047SOL     OW 1907   2.784   2.365   2.761
 2047SOL    HW1 1908   2.759   2.356   2.665
 2047SOL    HW2 1909   2.832   2.283   2.792
 2048SOL     OW 1910   2.401   1.926   2.374
 2048SOL    HW1 1911   2.320   1.927   2.432
 2048SOL    HW2 1912   2.404   2.009   2.319
 2049SOL     OW 1913   3.296   3.050   1.903
 2049SOL    HW1 1914   3.328   2.974   1.960
 2049SOL    HW2 1915   3.204   3.077   1.933
 2050SOL     OW 1916   2.159   1.897   2.033
 2050SOL    HW1 1917   2.208   1.981   2.012
 2050SOL    HW2 1918   2.221   1.832   2.078
 2051SOL     OW 1919   2.797   2.098   2.342
 2051SOL    HW1 1920   2.749   2.139   2.264
 2051SOL    HW2 1921   2.896   2.096   2.323
 2052SOL     OW 1922   2.938   2.545   3.326
 2052SOL    HW1 1923   2.858   2.484   3.329
 2052SOL    HW2 1924   3.019   2.492   3.302
 2053SOL     OW 1925   3.089   3.432   2.655
 2053SOL    HW1 1926   3.110   3.506   2.590
 2053SOL    HW2 1927   3.157   3.432   2.728
 2054SOL     OW 1928   2.321   3.014   2.603
 2054SOL    HW1 1929   2.250   2.987   2.668
 2054SOL    HW2 1930   2.295   2.986   2.510
 2055SOL     OW 1931   3.133   3.659   2.453
 2055SOL    HW1 1932   3.177   3.723   2.389
 2055SOL    HW2 1933   3.083   3.711   2.523
 2056SOL     OW 1934   2.894   2.411   1.878
 2056SOL    HW1 1935   2.853   2.493   1.839
 2056SOL    HW2 1936   2.958   2.437   1.951
 2057SOL     OW 1937   1.940   2.418   3.248
 2057SOL    HW1 1938   2.032   2.417   3.207
 2057SOL    HW2 1939   1.934   2.492   3.315
 2058SOL     OW 1940   2.423   2.084   3.009
 2058SOL    HW1 1941   2.461   2.000   3.046
 2058SOL    HW2 1942   2.335   2.103   3.053
 2059SOL     OW 1943   2.728   2.316   2.504
 2059SOL    HW1 1944   2.696   2.388   2.442
 2059SOL    HW2 1945   2.752   2.235   2.451
 2060SOL     OW 1946   2.879   1.901   2.615
 2060SOL    HW1 1947   2.807   1.906   2.546
 2060SOL    HW2 1948   2.855   1.832   2.684
 2061SOL     OW 1949   3.291   3.035   2.729
 2061SOL    HW1 1950   3.236   2.951   2.722
 2061SOL    HW2 1951   3.317   3.064   2.637
 2062SOL     OW 1952   3.328   2.452   2.854
 2062SOL    HW1 1953   3.298   2.357   2.861
 2062SOL    HW2 1954   3.401   2.468   2.920
 2063SOL     OW 1955   3.719   2.695   2.239
 2063SOL    HW1 1956   3.761   2.631   2.303
 2063SOL    HW2 1957   3.681   2.644   2.161
 2064SOL     OW 1958   2.350   3.247   2.036
 2064SOL    HW1 1959   2.263   3.232   2.083
 2064SOL    HW2 1960   2.333   3.273   1.941
 2065SOL     OW 1961   3.526   3.142   2.519
 2065SOL    HW1 1962   3.625   3.150   2.533
 2065SOL    HW2 1963   3.481   3.226   2.550
 2066SOL     OW 1964   3.252   2.437   1.940
 2066SOL    HW1 1965   3.198   2.416   2.021
 2066SOL    HW2 1966   3.343   2.396   1.949
 2068SOL     OW 1967   2.926   3.209   3.202
 2068SOL    HW1 1968   2.846   3.186   3.257
 2068SOL    HW2 1969   3.009   3.183   3.251
 2070SOL     OW 1970   2.973   3.057   2.962
 2070SOL    HW1 1971   2.933   3.101   3.043
 2070SOL    HW2 1972   2.932   3.094   2.879
 2071SOL     OW 1973   3.500   2.961   2.941
 2071SOL    HW1 1974   3.505   3.042   3.000
 2071SOL    HW2 1975   3.414   2.963   2.890
 2072SOL     OW 1976   2.777   1.951   3.264
 2072SOL    HW1 1977   2.802   1.931   3.169
 2072SOL    HW2 1978   2.849   2.007   3.306
 2073SOL     OW 1979   2.842   2.978   3.581
 2073SOL    HW1 1980   2.743   2.984   3.591
 2073SOL    HW2 1981   2.865   2.898   3.525
 2074SOL     OW 1982   2.567   2.912   2.230
 2074SOL    HW1 1983   2.553   2.919   2.329
 2074SOL    HW2 1984   2.651   2.861   2.212
 2075SOL     OW 1985   2.272   2.675   3.113
 2075SOL    HW1 1986   2.358   2.687   3.163
 2075SOL    HW2 1987   2.230   2.588   3.140
 2076SOL     OW 1988   3.136   2.248   3.124
 2076SOL    HW1 1989   3.157   2.322   3.188
 2076SOL    HW2 1990   3.047   2.265   3.081
 2077SOL     OW 1991   1.926   3.426   3.193
 2077SOL    HW1 1992   1.880   3.508   3.159
 2077SOL    HW2 1993   2.024   3.445   3.202
 2078SOL     OW 1994   2.229   2.962   2.363
 2078SOL    HW1 1995   2.222   3.045   2.307
 2078SOL    HW2 1996   2.233   2.882   2.303
 2079SOL     OW 1997   2.428   2.399   2.727
 2079SOL    HW1 1998   2.440   2.465   2.653
 2079SOL    HW2 1999   2.474   2.433   2.810
 2080SOL     OW 2000   3.114   3.210   2.250
 2080SOL    HW1 2001   3.164   3.287   2.290
 2080SOL    HW2 2002   3.019   3.212   2.282
 2081SOL     OW 2003   3.134   3.307   3.004
 2081SOL    HW1 2004   3.181   3.320   3.091
 2081SOL    HW2 2005   3.068   3.233   3.013
 2082SOL     OW 2006   3.444   2.501   2.334
 2082SOL    HW1 2007   3.413   2.562   2.407
 2082SOL    HW2 2008   3.494   2.553   2.265
 2083SOL     OW 2009   2.216   3.372   3.191
 2083SOL    HW1 2010   2.195   3.328   3.104
 2083SOL    HW2 2011   2.313   3.398   3.194
 2084SOL     OW 2012   2.264   2.613   3.460
 2084SOL    HW1 2013   2.332   2.668   3.413
 2084SOL    HW2 2014   2.304   2.525   3.487
 2085SOL     OW 2015   3.449   2.641   3.532
 2085SOL    HW1 2016   3.357   2.679   3.527
 2085SOL    HW2 2017   3.509   2.688   3.467
 2086SOL     OW 2018   2.875   1.967   3.632
 2086SOL    HW1 2019   2.881   2.052   3.580
 2086SOL    HW2 2020   2.907   1.891   3.575
 2087SOL     OW 2021   2.366   1.912   3.602
 2087SOL    HW1 2022   2.324   1.855   3.532
 2087SOL    HW2 2023   2.300   1.981   3.634
 2088SOL     OW 2024   2.435   2.732   2.891
 2088SOL    HW1 2025   2.479   2.821   2.882
 2088SOL    HW2 2026   2.372   2.732   2.968
 2089SOL     OW 2027   3.222   2.724   2.907
 2089SOL    HW1 2028   3.147   2.724   2.841
 2089SOL    HW2 2029   3.259   2.632   2.916
 2090SOL     OW 2030   3.071   2.387   2.137
 2090SOL    HW1 2031   3.084   2.303   2.191
 2090SOL    HW2 2032   3.042   2.461   2.197
 2091SOL     OW 2033   2.169   2.075   3.093
 2091SOL    HW1 2034   2.146   2.112   3.183
 2091SOL    HW2 2035   2.139   1.980   3.087
 2092SOL     OW 2036   1.899   3.172   3.144
 2092SOL    HW1 2037   1.952   3.123   3.212
 2092SOL    HW2 2038   1.921   3.270   3.149
 2093SOL     OW 2039   2.594   2.496   2.926
 2093SOL    HW1 2040   2.653   2.470   2.850
 2093SOL    HW2 2041   2.566   2.592   2.915
 2095SOL     OW 2042   3.484   2.229   2.236
 2095SOL    HW1 2043   3.486   2.153   2.300
 2095SOL    HW2 2044   3.436   2.306   2.276
 2096SOL     OW 2045   2.885   2.628   2.828
 2096SOL    HW1 2046   2.900   2.649   2.924
 2096SOL    HW2 2047   2.855   2.533   2.819
 2099SOL     OW 2048   2.212   2.760   3.666
 2099SOL    HW1 2049   2.288   2.804   3.714
 2099SOL    HW2 2050   2.247   2.713   3.584
 2100SOL     OW 2051   3.402   2.136   1.987
 2100SOL    HW1 2052   3.341   2.061   2.010
 2100SOL    HW2 2053   3.424   2.188   2.070
 2101SOL     OW 2054   3.165   2.700   1.904
 2101SOL    HW1 2055   3.199   2.607   1.919
 2101SOL    HW2 2056   3.183   2.727   1.809
 2102SOL     OW 2057   2.930   3.195   2.711
 2102SOL    HW1 2058   2.937   3.111   2.656
 2102SOL    HW2 2059   2.992   3.264   2.675
 2103SOL     OW 2060   2.181   2.672   2.811
 2103SOL    HW1 2061   2.274   2.708   2.816
 2103SOL    HW2 2062   2.175   2.587   2.863
 2104SOL     OW 2063   2.201   2.371   2.868
 2104SOL    HW1 2064   2.149   2.288   2.851
 2104SOL    HW2 2065   2.278   2.376   2.804
 2105SOL     OW 2066   3.000   2.242   3.540
 2105SOL    HW1 2067   2.955   2.305   3.604
 2105SOL    HW2 2068   3.093   2.273   3.523
 2106SOL     OW 2069   3.022   2.069   3.339
 2106SOL    HW1 2070   3.022   2.133   3.416
 2106SOL    HW2 2071   3.050   2.117   3.256
 2107SOL     OW 2072   1.870   3.188   2.062
 2107SOL    HW1 2073   1.777   3.209   2.031
 2107SOL    HW2 2074   1.880   3.089   2.075
 2108SOL     OW 2075   1.950   3.663   2.789
 2108SOL    HW1 2076   1.908   3.577   2.762
 2108SOL    HW2 2077   2.044   3.666   2.755
 2109SOL     OW 2078   2.366   3.430   2.772
 2109SOL    HW1 2079   2.432   3.504   2.781
 2109SOL    HW2 2080   2.410   3.351   2.730
 2110SOL     OW 2081   2.864   2.658   3.100
 2110SOL    HW1 2082   2.905   2.626   3.186
 2110SOL    HW2 2083   2.768   2.631   3.097
 2111SOL     OW 2084   1.902   2.406   2.976
 2111SOL    HW1 2085   1.987   2.373   2.935
 2111SOL    HW2 2086   1.915   2.421   3.074
 2112SOL     OW 2087   2.051   2.382   3.584
 2112SOL    HW1 2088   2.110   2.342   3.514
 2112SOL    HW2 2089   1.993   2.453   3.543
 2113SOL     OW 2090   3.231   2.812   3.522
 2113SOL    HW1 2091   3.270   2.901   3.542
 2113SOL    HW2 2092   3.241   2.792   3.425
 2114SOL     OW 2093   2.677   2.434   2.187
 2114SOL    HW1 2094   2.684   2.345   2.141
 2114SOL    HW2 2095   2.583   2.468   2.179
 2115SOL     OW 2096   3.519   2.466   3.068
 2115SOL    HW1 2097   3.481   2.397   3.130
 2115SOL    HW2 2098   3.601   2.430   3.024
 2116SOL     OW 2099   2.114   3.426   3.606
 2116SOL    HW1 2100   2.084   3.483   3.682
 2116SOL    HW2 2101   2.107   3.329   3.632
 2117SOL     OW 2102   2.533   2.326   3.131
 2117SOL    HW1 2103   2.499   2.237   3.101
 2117SOL    HW2 2104   2.559   2.380   3.051
 2118SOL     OW 2105   2.792   3.540   3.327
 2118SOL    HW1 2106   2.768   3.522   3.232
 2118SOL    HW2 2107   2.822   3.634   3.337
 2119SOL     OW 2108   2.021   2.999   3.328
 2119SOL    HW1 2109   2.043   2.938   3.404
 2119SOL    HW2 2110   2.031   2.950   3.242
 2120SOL     OW 2111   3.209   2.921   3.096
 2120SOL    HW1 2112   3.233   2.858   3.022
 2120SOL    HW2 2113   3.119   2.961   3.078
 2121SOL     OW 2114   3.164   2.717   2.171
 2121SOL    HW1 2115   3.078   2.686   2.213
 2121SOL    HW2 2116   3.160   2.703   2.072
 2123SOL     OW 2117   3.114   3.593   2.990
 2123SOL    HW1 2118   3.198   3.598   2.936
 2123SOL    HW2 2119   3.091   3.497   3.008
 2124SOL     OW 2120   1.945   3.120   2.884
 2124SOL    HW1 2121   1.940   3.119   2.984
 2124SOL    HW2 2122   1.862   3.079   2.846
 2126SOL     OW 2123   3.588   1.997   2.385
 2126SOL    HW1 2124   3.661   1.980   2.318
 2126SOL    HW2 2125   3.557   1.910   2.423
 2127SOL     OW 2126   3.250   3.435   2.339
 2127SOL    HW1 2127   3.317   3.447   2.265
 2127SOL    HW2 2128   3.210   3.524   2.362
 2129SOL     OW 2129   3.142   2.789   2.534
 2129SOL    HW1 2130   3.202   2.708   2.536
 2129SOL    HW2 2131   3.182   2.858   2.474
 2130SOL     OW 2132   2.692   3.135   3.284
 2130SOL    HW1 2133   2.687   3.168   3.379
 2130SOL    HW2 2134   2.606   3.154   3.238
 2131SOL     OW 2135   2.534   3.478   2.016
 2131SOL    HW1 2136   2.543   3.488   1.917
 2131SOL    HW2 2137   2.494   3.389   2.037
 2133SOL     OW 2138   3.703   2.037   2.825
 2133SOL    HW1 2139   3.742   1.952   2.789
 2133SOL    HW2 2140   3.605   2.039   2.806
 2134SOL     OW 2141   3.056   3.474   1.893
 2134SOL    HW1 2142   3.062   3.381   1.930
 2134SOL    HW2 2143   2.997   3.474   1.813
 2135SOL     OW 2144   2.684   2.864   3.234
 2135SOL    HW1 2145   2.724   2.863   3.142
 2135SOL    HW2 2146   2.694   2.956   3.274
 2136SOL     OW 2147   2.778   2.772   2.153
 2136SOL    HW1 2148   2.841   2.810   2.085
 2136SOL    HW2 2149   2.818   2.689   2.192
 2137SOL     OW 2150   3.366   3.469   1.906
 2137SOL    HW1 2151   3.274   3.506   1.913
 2137SOL    HW2 2152   3.404   3.489   1.816
 2138SOL     OW 2153   2.234   3.150   3.352
 2138SOL    HW1 2154   2.221   3.243   3.318
 2138SOL    HW2 2155   2.150   3.098   3.339
 2139SOL     OW 2156   3.476   3.154   3.151
 2139SOL    HW1 2157   3.536   3.157   3.231
 2139SOL    HW2 2158   3.401   3.218   3.164
 2140SOL     OW 2159   2.901   2.960   2.558
 2140SOL    HW1 2160   2.831   2.913   2.612
 2140SOL    HW2 2161   2.960   2.892   2.515
 2141SOL     OW 2162   2.876   2.098   2.833
 2141SOL    HW1 2163   2.868   2.062   2.740
 2141SOL    HW2 2164   2.874   2.022   2.898
 2142SOL     OW 2165   2.452   3.349   2.353
 2142SOL    HW1 2166   2.494   3.291   2.283
 2142SOL    HW2 2167   2.408   3.428   2.309
 2143SOL     OW 2168   3.571   2.247   3.243
 2143SOL    HW1 2169   3.644   2.316   3.247
 2143SOL    HW2 2170   3.599   2.172   3.184
 2144SOL     OW 2171   2.117   3.210   2.152
 2144SOL    HW1 2172   2.021   3.211   2.125
 2144SOL    HW2 2173   2.129   3.263   2.236
 2145SOL     OW 2174   1.967   2.875   3.588
 2145SOL    HW1 2175   1.890   2.842   3.642
 2145SOL    HW2 2176   2.052   2.845   3.630
 2146SOL     OW 2177   2.534   2.065   3.351
 2146SOL    HW1 2178   2.624   2.049   3.311
 2146SOL    HW2 2179   2.542   2.070   3.450
 2147SOL     OW 2180   1.937   2.207   1.895
 2147SOL    HW1 2181   1.845   2.179   1.866
 2147SOL    HW2 2182   1.968   2.284   1.839
 2148SOL     OW 2183   3.302   2.718   3.260
 2148SOL    HW1 2184   3.245   2.770   3.197
 2148SOL    HW2 2185   3.398   2.730   3.236
 2149SOL     OW 2186   1.934   2.028   2.180
 2149SOL    HW1 2187   1.917   2.111   2.126
 2149SOL    HW2 2188   2.024   1.991   2.158
 2150SOL     OW 2189   3.045   3.197   1.981
 2150SOL    HW1 2190   2.946   3.186   1.983
 2150SOL    HW2 2191   3.079   3.212   2.074
 2151SOL     OW 2192   2.475   2.704   3.293
 2151SOL    HW1 2193   2.531   2.785   3.276
 2151SOL    HW2 2194   2.534   2.624   3.296
 2153SOL     OW 2195   2.578   2.427   3.570
 2153SOL    HW1 2196   2.597   2.492   3.644
 2153SOL    HW2 2197   2.638   2.347   3.579
 2155SOL     OW 2198   2.252   3.603   3.422
 2155SOL    HW1 2199   2.161   3.644   3.420
 2155SOL    HW2 2200   2.245   3.509   3.454
 2156SOL     OW 2201   3.536   2.745   3.116
 2156SOL    HW1 2202   3.509   2.656   3.079
 2156SOL    HW2 2203   3.537   2.813   3.043
 2157SOL     OW 2204   3.087   2.187   2.311
 2157SOL    HW1 2205   3.152   2.113   2.300
 2157SOL    HW2 2206   3.107   2.237   2.395
 2158SOL     OW 2207   2.456   2.607   2.514
 2158SOL    HW1 2208   2.506   2.692   2.495
 2158SOL    HW2 2209   2.368   2.609   2.466
 2161SOL     OW 2210   2.721   3.236   1.878
 2161SOL    HW1 2211   2.675   3.251   1.966
 2161SOL    HW2 2212   2.765   3.321   1.848
 2162SOL     OW 2213   2.523   3.652   2.815
 2162SOL    HW1 2214   2.477   3.740   2.802
 2162SOL    HW2 2215   2.622   3.664   2.808
 2163SOL     OW 2216   2.721   2.818   2.723
 2163SOL    HW1 2217   2.775   2.749   2.771
 2163SOL    HW2 2218   2.689   2.887   2.789
 2164SOL     OW 2219   2.945   2.846   1.949
 2164SOL    HW1 2220   2.922   2.899   1.867
 2164SOL    HW2 2221   3.026   2.790   1.930
 2166SOL     OW 2222   2.083   3.176   3.706
 2166SOL    HW1 2223   2.018   3.103   3.685
 2166SOL    HW2 2224   2.087   3.190   3.804
 2167SOL     OW 2225   1.941   3.102   2.515
 2167SOL    HW1 2226   1.940   3.055   2.603
 2167SOL    HW2 2227   2.023   3.074   2.464
 2168SOL     OW 2228   2.534   3.253   3.486
 2168SOL    HW1 2229   2.456   3.203   3.524
 2168SOL    HW2 2230   2.531   3.348   3.517
 2169SOL     OW 2231   3.686   2.054   3.089
 2169SOL    HW1 2232   3.682   1.964   3.133
 2169SOL    HW2 2233   3.689   2.043   2.990
 2171SOL     OW 2234   2.179   2.409   3.142
 2171SOL    HW1 2235   2.217   2.350   3.214
 2171SOL    HW2 2236   2.219   2.383   3.054
 2172SOL     OW 2237   2.674   3.448   2.549
 2172SOL    HW1 2238   2.706   3.458   2.455
 2172SOL    HW2 2239   2.595   3.386   2.551
 2173SOL     OW 2240   3.286   2.076   2.974
 2173SOL    HW1 2241   3.338   2.011   3.029
 2173SOL    HW2 2242   3.237   2.139   3.035
 2174SOL     OW 2243   2.863   1.896   3.016
 2174SOL    HW1 2244   2.800   1.824   2.985
 2174SOL    HW2 2245   2.956   1.860   3.016
 2175SOL     OW 2246   2.632   3.192   2.163
 2175SOL    HW1 2247   2.586   3.105   2.180
 2175SOL    HW2 2248   2.723   3.189   2.204
 2176SOL     OW 2249   2.480   3.429   3.146
 2176SOL    HW1 2250   2.475   3.511   3.203
 2176SOL    HW2 2251   2.569   3.426   3.101
 2177SOL     OW 2252   3.214   1.914   2.030
 2177SOL    HW1 2253   3.249   1.873   1.946
 2177SOL    HW2 2254   3.124   1.876   2.050
 2178SOL     OW 2255   3.162   2.315   2.553
 2178SOL    HW1 2256   3.103   2.395   2.557
 2178SOL    HW2 2257   3.177   2.280   2.646
 2179SOL     OW 2258   3.455   2.083   2.744
 2179SOL    HW1 2259   3.371   2.082   2.798
 2179SOL    HW2 2260   3.457   2.166   2.688
 2180SOL     OW 2261   1.901   2.939   2.162
 2180SOL    HW1 2262   2.000   2.928   2.153
 2180SOL    HW2 2263   1.861   2.853   2.194
 2181SOL     OW 2264   2.737   3.508   2.199
 2181SOL    HW1 2265   2.660   3.473   2.145
 2181SOL    HW2 2266   2.705   3.579   2.261
 2182SOL     OW 2267   2.092   2.490   3.837
 2182SOL    HW1 2268   1.999   2.488   3.874
 2182SOL    HW2 2269   2.093   2.451   3.745
 2189SOL     OW 2270   2.468   2.826   3.847
 2189SOL    HW1 2271   2.475   2.910   3.793
 2189SOL    HW2 2272   2.514   2.839   3.935
 2199SOL     OW 2273   2.460   2.591   3.994
 2199SOL    HW1 2274   2.484   2.660   3.926
 2199SOL    HW2 2275   2.382   2.624   4.048
 2204SOL     OW 2276   2.727   2.210   3.919
 2204SOL    HW1 2277   2.786   2.273   3.870
 2204SOL    HW2 2278   2.746   2.116   3.890
 2209SOL     OW 2279   2.183   2.805   3.966
 2209SOL    HW1 2280   2.265   2.844   3.924
 2209SOL    HW2 2281   2.156   2.723   3.917
 2216SOL     OW 2282   2.476   1.984   3.841
 2216SOL    HW1 2283   2.574   1.962   3.848
 2216SOL    HW2 2284   2.445   1.967   3.748
 2219SOL     OW 2285   2.159   1.897   3.895
 2219SOL    HW1 2286   2.208   1.981   3.874
 2219SOL    HW2 2287   2.221   1.832   3.940
 2223SOL     OW 2288   2.894   2.411   3.740
 2223SOL    HW1 2289   2.853   2.493   3.701
 2223SOL    HW2 2290   2.958   2.437   3.813
 2229SOL     OW 2291   2.389   2.118   4.052
 2229SOL    HW1 2292   2.416   2.059   3.977
 2229SOL    HW2 2293   2.389   2.213   4.021
 2241SOL     OW 2294   2.335   2.362   3.915
 2241SOL    HW1 2295   2.396   2.442   3.919
 2241SOL    HW2 2296   2.240   2.393   3.922
 2251SOL     OW 2297   1.937   2.207   3.757
 2251SOL    HW1 2298   1.845   2.179   3.728
 2251SOL    HW2 2299   1.968   2.284   3.701
 2259SOL     OW 2300   2.945   2.846   3.811
 2259SOL    HW1 2301   2.922   2.899   3.729
 2259SOL    HW2 2302   3.026   2.790   3.792
 2280SOL     OW 2303   2.179   3.975   1.801
 2280SOL    HW1 2304   2.250   4.046   1.807
 2280SOL    HW2 2305   2.091   4.014   1.829
 2316SOL     OW 2306   2.875   3.829   1.770
 2316SOL    HW1 2307   2.881   3.914   1.718
 2316SOL    HW2 2308   2.907   3.753   1.713
 2317SOL     OW 2309   2.366   3.774   1.740
 2317SOL    HW1 2310   2.324   3.717   1.670
 2317SOL    HW2 2311   2.300   3.843   1.772
 2372SOL     OW 2312   2.671   3.728   2.364
 2372SOL    HW1 2313   2.711   3.819   2.355
 2372SOL    HW2 2314   2.571   3.736   2.370
 2382SOL     OW 2315   2.412   3.920   2.747
 2382SOL    HW1 2316   2.407   3.915   2.847
 2382SOL    HW2 2317   2.414   4.016   2.718
 2388SOL     OW 2318   2.476   3.846   1.979
 2388SOL    HW1 2319   2.574   3.824   1.986
 2388SOL    HW2 2320   2.445   3.829   1.886
 2392SOL     OW 2321   2.401   3.788   2.374
 2392SOL    HW1 2322   2.320   3.789   2.432
 2392SOL    HW2 2323   2.404   3.871   2.319
 2393SOL     OW 2324   2.159   3.759   2.033
 2393SOL    HW1 2325   2.208   3.843   2.012
 2393SOL    HW2 2326   2.221   3.694   2.078
 2394SOL     OW 2327   2.797   3.960   2.342
 2394SOL    HW1 2328   2.749   4.001   2.264
 2394SOL    HW2 2329   2.896   3.958   2.323
 2400SOL     OW 2330   2.879   3.763   2.615
 2400SOL    HW1 2331   2.807   3.768   2.546
 2400SOL    HW2 2332   2.855   3.694   2.684
 2403SOL     OW 2333   2.389   3.980   2.190
 2403SOL    HW1 2334   2.416   3.921   2.115
 2403SOL    HW2 2335   2.389   4.075   2.159
 2418SOL     OW 2336   2.169   3.787   2.480
 2418SOL    HW1 2337   2.158   3.881   2.513
 2418SOL    HW2 2338   2.164   3.724   2.557
 2441SOL     OW 2339   1.934   3.890   2.180
 2441SOL    HW1 2340   1.917   3.973   2.126
 2441SOL    HW2 2341   2.024   3.853   2.158
 2452SOL     OW 2342   2.863   3.758   3.016
 2452SOL    HW1 2343   2.800   3.686   2.985
 2452SOL    HW2 2344   2.956   3.722   3.016
 2453SOL     OW 2345   3.214   3.776   2.030
 2453SOL    HW1 2346   3.249   3.735   1.946
 2453SOL    HW2 2347   3.124   3.738   2.050
 2520SOL     OW 2348   3.854   1.821   1.571
 2520SOL    HW1 2349   3.844   1.806   1.670
 2520SOL    HW2 2350   3.768   1.857   1.535
 2565SOL     OW 2351   3.854   1.794   1.851
 2565SOL    HW1 2352   3.813   1.720   1.904
 2565SOL    HW2 2353   3.918   1.845   1.909
 2596SOL     OW 2354   3.955   1.713   2.345
 2596SOL    HW1 2355   3.989   1.790   2.399
 2596SOL    HW2 2356   3.999   1.713   2.255
 2602SOL     OW 2357   3.751   1.596   1.979
 2602SOL    HW1 2358   3.732   1.500   2.000
 2602SOL    HW2 2359   3.718   1.654   2.054
 2643SOL     OW 2360   3.732   1.326   2.062
 2643SOL    HW1 2361   3.639   1.347   2.031
 2643SOL    HW2 2362   3.742   1.227   2.075
 2644SOL     OW 2363   3.812   1.801   2.789
 2644SOL    HW1 2364   3.770   1.715   2.762
 2644SOL    HW2 2365   3.906   1.804   2.755
 2731SOL     OW 2366   3.837   2.599   1.597
 2731SOL    HW1 2367   3.925   2.586   1.642
 2731SOL    HW2 2368   3.824   2.696   1.575
 2751SOL     OW 2369   3.802   2.418   1.386
 2751SOL    HW1 2370   3.894   2.417   1.345
 2751SOL    HW2 2371   3.796   2.492   1.453
 2773SOL     OW 2372   3.913   2.382   1.722
 2773SOL    HW1 2373   3.972   2.342   1.652
 2773SOL    HW2 2374   3.855   2.453   1.681
 2787SOL     OW 2375   3.829   2.875   1.726
 2787SOL    HW1 2376   3.752   2.842   1.780
 2787SOL    HW2 2377   3.914   2.845   1.768
 2803SOL     OW 2378   3.954   2.490   1.975
 2803SOL    HW1 2379   3.861   2.488   2.012
 2803SOL    HW2 2380   3.955   2.451   1.883
 2804SOL     OW 2381   3.949   2.137   2.858
 2804SOL    HW1 2382   3.984   2.120   2.950
 2804SOL    HW2 2383   3.861   2.092   2.846
 2805SOL     OW 2384   3.743   2.230   2.509
 2805SOL    HW1 2385   3.661   2.273   2.548
 2805SOL    HW2 2386   3.715   2.157   2.446
 2817SOL     OW 2387   3.846   2.505   2.425
 2817SOL    HW1 2388   3.801   2.417   2.442
 2817SOL    HW2 2389   3.845   2.559   2.509
 2825SOL     OW 2390   3.800   2.673   2.651
 2825SOL    HW1 2391   3.899   2.661   2.660
 2825SOL    HW2 2392   3.776   2.768   2.672
 2859SOL     OW 2393   3.732   3.188   2.062
 2859SOL    HW1 2394   3.639   3.209   2.031
 2859SOL    HW2 2395   3.742   3.089   2.075
 2862SOL     OW 2396   3.764   2.406   2.976
 2862SOL    HW1 2397   3.849   2.373   2.935
 2862SOL    HW2 2398   3.777   2.421   3.074
 2872SOL     OW 2399   3.987   2.188   2.582
 2872SOL    HW1 2400   3.908   2.239   2.548
 2872SOL    HW2 2401   3.978   2.173   2.680
 2879SOL     OW 2402   3.799   2.207   1.895
 2879SOL    HW1 2403   3.707   2.179   1.866
 2879SOL    HW2 2404   3.830   2.284   1.839
 2880SOL     OW 2405   3.796   2.028   2.180
 2880SOL    HW1 2406   3.779   2.111   2.126
 2880SOL    HW2 2407   3.886   1.991   2.158
 2886SOL     OW 2408   3.803   3.102   2.515
 2886SOL    HW1 2409   3.802   3.055   2.603
 2886SOL    HW2 2410   3.885   3.074   2.464
 2892SOL     OW 2411   3.763   2.939   2.162
 2892SOL    HW1 2412   3.862   2.928   2.153
 2892SOL    HW2 2413   3.723   2.853   2.194
   4.53169   4.53169   4.53169
