; mobley_2501588_GMX.itp created by acpype (v: 2023.10.27) on Thu May 21 00:19:19 2026

[ atomtypes ]
;name   bond_type     mass     charge   ptype   sigma         epsilon       Amb
 ca       ca          0.00000  0.00000   A     3.31521e-01   4.13379e-01 ; 1.86  0.0988
 cx       cx          0.00000  0.00000   A     3.39771e-01   4.51035e-01 ; 1.91  0.1078
 c3       c3          0.00000  0.00000   A     3.39771e-01   4.51035e-01 ; 1.91  0.1078
 nh       nh          0.00000  0.00000   A     3.18995e-01   8.99560e-01 ; 1.79  0.2150
 no       no          0.00000  0.00000   A     3.36510e-01   3.58987e-01 ; 1.89  0.0858
 o        o           0.00000  0.00000   A     3.04812e-01   6.12119e-01 ; 1.71  0.1463
 f        f           0.00000  0.00000   A     3.03422e-01   3.48109e-01 ; 1.70  0.0832
 ha       ha          0.00000  0.00000   A     2.62548e-01   6.73624e-02 ; 1.47  0.0161
 hc       hc          0.00000  0.00000   A     2.60018e-01   8.70272e-02 ; 1.46  0.0208
 h1       h1          0.00000  0.00000   A     2.42200e-01   8.70272e-02 ; 1.36  0.0208

[ moleculetype ]
;name            nrexcl
 mobley_2501588   3

[ atoms ]
;   nr  type  resi  res  atom  cgnr     charge      mass       ; qtot   bond_type
     1   ca     1   MOL    C1    1     0.005000     12.01000 ; qtot 0.005
     2   ca     1   MOL    C2    2     0.005000     12.01000 ; qtot 0.010
     3   ca     1   MOL    C3    3    -0.197300     12.01000 ; qtot -0.187
     4   ca     1   MOL    C4    4    -0.203700     12.01000 ; qtot -0.391
     5   ca     1   MOL    C5    5    -0.203700     12.01000 ; qtot -0.595
     6   ca     1   MOL    C6    6     0.287600     12.01000 ; qtot -0.307
     7   cx     1   MOL    C7    7    -0.129400     12.01000 ; qtot -0.436
     8   cx     1   MOL    C8    8    -0.129400     12.01000 ; qtot -0.566
     9   cx     1   MOL    C9    9    -0.133700     12.01000 ; qtot -0.700
    10   c3     1   MOL   C10   10    -0.094100     12.01000 ; qtot -0.794
    11   c3     1   MOL   C11   11     0.227800     12.01000 ; qtot -0.566
    12   c3     1   MOL   C12   12    -0.092400     12.01000 ; qtot -0.658
    13   c3     1   MOL   C13   13     0.176800     12.01000 ; qtot -0.481
    14   c3     1   MOL   C14   14     0.700199     12.01000 ; qtot 0.219
    15   nh     1   MOL    N1   15    -0.682000     14.01000 ; qtot -0.463
    16   no     1   MOL    N2   16     0.322200     14.01000 ; qtot -0.141
    17   no     1   MOL    N3   17     0.322200     14.01000 ; qtot 0.181
    18    o     1   MOL    O1   18    -0.187500     16.00000 ; qtot -0.006
    19    o     1   MOL    O2   19    -0.187500     16.00000 ; qtot -0.194
    20    o     1   MOL    O3   20    -0.187500     16.00000 ; qtot -0.381
    21    o     1   MOL    O4   21    -0.187500     16.00000 ; qtot -0.569
    22    f     1   MOL    F1   22    -0.225300     19.00000 ; qtot -0.794
    23    f     1   MOL    F2   23    -0.225300     19.00000 ; qtot -1.020
    24    f     1   MOL    F3   24    -0.225300     19.00000 ; qtot -1.245
    25   ha     1   MOL    H1   25     0.190000      1.00800 ; qtot -1.055
    26   ha     1   MOL    H2   26     0.190000      1.00800 ; qtot -0.865
    27   hc     1   MOL    H3   27     0.073450      1.00800 ; qtot -0.791
    28   hc     1   MOL    H4   28     0.073450      1.00800 ; qtot -0.718
    29   hc     1   MOL    H5   29     0.073450      1.00800 ; qtot -0.644
    30   hc     1   MOL    H6   30     0.073450      1.00800 ; qtot -0.571
    31   hc     1   MOL    H7   31     0.103700      1.00800 ; qtot -0.467
    32   hc     1   MOL    H8   32     0.041367      1.00800 ; qtot -0.426
    33   hc     1   MOL    H9   33     0.041367      1.00800 ; qtot -0.385
    34   hc     1   MOL   H10   34     0.041367      1.00800 ; qtot -0.343
    35   h1     1   MOL   H11   35     0.062700      1.00800 ; qtot -0.281
    36   h1     1   MOL   H12   36     0.062700      1.00800 ; qtot -0.218
    37   hc     1   MOL   H13   37     0.047700      1.00800 ; qtot -0.170
    38   hc     1   MOL   H14   38     0.047700      1.00800 ; qtot -0.122
    39   h1     1   MOL   H15   39     0.061200      1.00800 ; qtot -0.061
    40   h1     1   MOL   H16   40     0.061200      1.00800 ; qtot -0.000

[ bonds ]
;   ai     aj funct   r             k
     1      3   1    1.3986e-01    2.9644e+05 ;     C1 - C3    
     1      4   1    1.3986e-01    2.9644e+05 ;     C1 - C4    
     1     25   1    1.0860e-01    3.0183e+05 ;     C1 - H1    
     2      3   1    1.3986e-01    2.9644e+05 ;     C2 - C3    
     2      5   1    1.3986e-01    2.9644e+05 ;     C2 - C5    
     2     26   1    1.0860e-01    3.0183e+05 ;     C2 - H2    
     3     14   1    1.5147e-01    2.0410e+05 ;     C3 - C14   
     4      6   1    1.3986e-01    2.9644e+05 ;     C4 - C6    
     4     16   1    1.4696e-01    2.0937e+05 ;     C4 - N2    
     5      6   1    1.3986e-01    2.9644e+05 ;     C5 - C6    
     5     17   1    1.4696e-01    2.0937e+05 ;     C5 - N3    
     6     15   1    1.4030e-01    2.6011e+05 ;     C6 - N1    
     7      8   1    1.5082e-01    2.0825e+05 ;     C7 - C8    
     7      9   1    1.5082e-01    2.0825e+05 ;     C7 - C9    
     7     27   1    1.0865e-01    3.0117e+05 ;     C7 - H3    
     7     28   1    1.0865e-01    3.0117e+05 ;     C7 - H4    
     8      9   1    1.5082e-01    2.0825e+05 ;     C8 - C9    
     8     29   1    1.0865e-01    3.0117e+05 ;     C8 - H5    
     8     30   1    1.0865e-01    3.0117e+05 ;     C8 - H6    
     9     11   1    1.5174e-01    2.0241e+05 ;     C9 - C11   
     9     31   1    1.0865e-01    3.0117e+05 ;     C9 - H7    
    10     12   1    1.5354e-01    1.9154e+05 ;    C10 - C12   
    10     32   1    1.0962e-01    2.8891e+05 ;    C10 - H8    
    10     33   1    1.0962e-01    2.8891e+05 ;    C10 - H9    
    10     34   1    1.0962e-01    2.8891e+05 ;    C10 - H10   
    11     15   1    1.4613e-01    2.1499e+05 ;    C11 - N1    
    11     35   1    1.0969e-01    2.8804e+05 ;    C11 - H11   
    11     36   1    1.0969e-01    2.8804e+05 ;    C11 - H12   
    12     13   1    1.5354e-01    1.9154e+05 ;    C12 - C13   
    12     37   1    1.0962e-01    2.8891e+05 ;    C12 - H13   
    12     38   1    1.0962e-01    2.8891e+05 ;    C12 - H14   
    13     15   1    1.4613e-01    2.1499e+05 ;    C13 - N1    
    13     39   1    1.0969e-01    2.8804e+05 ;    C13 - H15   
    13     40   1    1.0969e-01    2.8804e+05 ;    C13 - H16   
    14     22   1    1.3512e-01    2.7973e+05 ;    C14 - F1    
    14     23   1    1.3512e-01    2.7973e+05 ;    C14 - F2    
    14     24   1    1.3512e-01    2.7973e+05 ;    C14 - F3    
    16     18   1    1.2311e-01    3.0270e+05 ;     N2 - O1    
    16     19   1    1.2311e-01    3.0270e+05 ;     N2 - O2    
    17     20   1    1.2311e-01    3.0270e+05 ;     N3 - O3    
    17     21   1    1.2311e-01    3.0270e+05 ;     N3 - O4    

[ pairs ]
;   ai     aj    funct
     1      5      1 ;     C1 - C5    
     1     15      1 ;     C1 - N1    
     1     18      1 ;     C1 - O1    
     1     19      1 ;     C1 - O2    
     1     22      1 ;     C1 - F1    
     1     23      1 ;     C1 - F2    
     1     24      1 ;     C1 - F3    
     1     26      1 ;     C1 - H2    
     2     15      1 ;     C2 - N1    
     2     20      1 ;     C2 - O3    
     2     21      1 ;     C2 - O4    
     2     22      1 ;     C2 - F1    
     2     23      1 ;     C2 - F2    
     2     24      1 ;     C2 - F3    
     3      6      1 ;     C3 - C6    
     3     16      1 ;     C3 - N2    
     3     17      1 ;     C3 - N3    
     4      2      1 ;     C4 - C2    
     4     11      1 ;     C4 - C11   
     4     13      1 ;     C4 - C13   
     4     14      1 ;     C4 - C14   
     4     17      1 ;     C4 - N3    
     5     11      1 ;     C5 - C11   
     5     13      1 ;     C5 - C13   
     5     14      1 ;     C5 - C14   
     5     16      1 ;     C5 - N2    
     6      9      1 ;     C6 - C9    
     6     12      1 ;     C6 - C12   
     6     18      1 ;     C6 - O1    
     6     19      1 ;     C6 - O2    
     6     20      1 ;     C6 - O3    
     6     21      1 ;     C6 - O4    
     6     26      1 ;     C6 - H2    
     6     35      1 ;     C6 - H11   
     6     36      1 ;     C6 - H12   
     6     39      1 ;     C6 - H15   
     6     40      1 ;     C6 - H16   
     7     15      1 ;     C7 - N1    
     7     35      1 ;     C7 - H11   
     7     36      1 ;     C7 - H12   
     8     15      1 ;     C8 - N1    
     8     35      1 ;     C8 - H11   
     8     36      1 ;     C8 - H12   
     9     13      1 ;     C9 - C13   
    10     15      1 ;    C10 - N1    
    10     39      1 ;    C10 - H15   
    10     40      1 ;    C10 - H16   
    11     12      1 ;    C11 - C12   
    11     27      1 ;    C11 - H3    
    11     28      1 ;    C11 - H4    
    11     29      1 ;    C11 - H5    
    11     30      1 ;    C11 - H6    
    11     39      1 ;    C11 - H15   
    11     40      1 ;    C11 - H16   
    13     32      1 ;    C13 - H8    
    13     33      1 ;    C13 - H9    
    13     34      1 ;    C13 - H10   
    13     35      1 ;    C13 - H11   
    13     36      1 ;    C13 - H12   
    14     26      1 ;    C14 - H2    
    15     16      1 ;     N1 - N2    
    15     17      1 ;     N1 - N3    
    15     31      1 ;     N1 - H7    
    15     37      1 ;     N1 - H13   
    15     38      1 ;     N1 - H14   
    17     26      1 ;     N3 - H2    
    25      2      1 ;     H1 - C2    
    25      6      1 ;     H1 - C6    
    25     14      1 ;     H1 - C14   
    25     16      1 ;     H1 - N2    
    27     29      1 ;     H3 - H5    
    27     30      1 ;     H3 - H6    
    27     31      1 ;     H3 - H7    
    28     29      1 ;     H4 - H5    
    28     30      1 ;     H4 - H6    
    28     31      1 ;     H4 - H7    
    29     31      1 ;     H5 - H7    
    30     31      1 ;     H6 - H7    
    31     35      1 ;     H7 - H11   
    31     36      1 ;     H7 - H12   
    32     37      1 ;     H8 - H13   
    32     38      1 ;     H8 - H14   
    33     37      1 ;     H9 - H13   
    33     38      1 ;     H9 - H14   
    34     37      1 ;    H10 - H13   
    34     38      1 ;    H10 - H14   
    37     39      1 ;    H13 - H15   
    37     40      1 ;    H13 - H16   
    38     39      1 ;    H14 - H15   
    38     40      1 ;    H14 - H16   

[ angles ]
;   ai     aj     ak    funct   theta         cth
     1      3      2      1    1.2002e+02    5.3279e+02 ;     C1 - C3     - C2    
     1      3     14      1    1.2083e+02    5.0827e+02 ;     C1 - C3     - C14   
     1      4      6      1    1.2002e+02    5.3279e+02 ;     C1 - C4     - C6    
     1      4     16      1    1.1900e+02    5.5329e+02 ;     C1 - C4     - N2    
     2      3     14      1    1.2083e+02    5.0827e+02 ;     C2 - C3     - C14   
     2      5      6      1    1.2002e+02    5.3279e+02 ;     C2 - C5     - C6    
     2      5     17      1    1.1900e+02    5.5329e+02 ;     C2 - C5     - N3    
     3      1      4      1    1.2002e+02    5.3279e+02 ;     C3 - C1     - C4    
     3      1     25      1    1.1988e+02    3.7572e+02 ;     C3 - C1     - H1    
     3      2      5      1    1.2002e+02    5.3279e+02 ;     C3 - C2     - C5    
     3      2     26      1    1.1988e+02    3.7572e+02 ;     C3 - C2     - H2    
     3     14     22      1    1.1178e+02    6.6308e+02 ;     C3 - C14    - F1    
     3     14     23      1    1.1178e+02    6.6308e+02 ;     C3 - C14    - F2    
     3     14     24      1    1.1178e+02    6.6308e+02 ;     C3 - C14    - F3    
     4      1     25      1    1.1988e+02    3.7572e+02 ;     C4 - C1     - H1    
     4      6      5      1    1.2002e+02    5.3279e+02 ;     C4 - C6     - C5    
     4      6     15      1    1.2113e+02    5.6216e+02 ;     C4 - C6     - N1    
     4     16     18      1    1.1776e+02    8.2910e+02 ;     C4 - N2     - O1    
     4     16     19      1    1.1776e+02    8.2910e+02 ;     C4 - N2     - O2    
     5      2     26      1    1.1988e+02    3.7572e+02 ;     C5 - C2     - H2    
     5      6     15      1    1.2113e+02    5.6216e+02 ;     C5 - C6     - N1    
     5     17     20      1    1.1776e+02    8.2910e+02 ;     C5 - N3     - O3    
     5     17     21      1    1.1776e+02    8.2910e+02 ;     C5 - N3     - O4    
     6      4     16      1    1.1900e+02    5.5329e+02 ;     C6 - C4     - N2    
     6      5     17      1    1.1900e+02    5.5329e+02 ;     C6 - C5     - N3    
     6     15     11      1    1.1953e+02    6.4383e+02 ;     C6 - N1     - C11   
     6     15     13      1    1.1953e+02    6.4383e+02 ;     C6 - N1     - C13   
     7      8      9      1    6.0000e+01    6.9881e+02 ;     C7 - C8     - C9    
     7      8     29      1    1.1769e+02    3.5556e+02 ;     C7 - C8     - H5    
     7      8     30      1    1.1769e+02    3.5556e+02 ;     C7 - C8     - H6    
     7      9      8      1    6.0000e+01    6.9881e+02 ;     C7 - C9     - C8    
     7      9     11      1    1.2076e+02    4.9112e+02 ;     C7 - C9     - C11   
     7      9     31      1    1.1769e+02    3.5556e+02 ;     C7 - C9     - H7    
     8      7      9      1    6.0000e+01    6.9881e+02 ;     C8 - C7     - C9    
     8      7     27      1    1.1769e+02    3.5556e+02 ;     C8 - C7     - H3    
     8      7     28      1    1.1769e+02    3.5556e+02 ;     C8 - C7     - H4    
     8      9     11      1    1.2076e+02    4.9112e+02 ;     C8 - C9     - C11   
     8      9     31      1    1.1769e+02    3.5556e+02 ;     C8 - C9     - H7    
     9      7     27      1    1.1769e+02    3.5556e+02 ;     C9 - C7     - H3    
     9      7     28      1    1.1769e+02    3.5556e+02 ;     C9 - C7     - H4    
     9      8     29      1    1.1769e+02    3.5556e+02 ;     C9 - C8     - H5    
     9      8     30      1    1.1769e+02    3.5556e+02 ;     C9 - C8     - H6    
     9     11     15      1    1.1368e+02    5.4534e+02 ;     C9 - C11    - N1    
     9     11     35      1    1.0962e+02    3.6602e+02 ;     C9 - C11    - H11   
     9     11     36      1    1.0962e+02    3.6602e+02 ;     C9 - C11    - H12   
    10     12     13      1    1.1263e+02    5.0099e+02 ;    C10 - C12    - C13   
    10     12     37      1    1.0968e+02    3.6208e+02 ;    C10 - C12    - H13   
    10     12     38      1    1.0968e+02    3.6208e+02 ;    C10 - C12    - H14   
    11      9     31      1    1.1372e+02    3.5974e+02 ;    C11 - C9     - H7    
    11     15     13      1    1.1656e+02    6.3957e+02 ;    C11 - N1     - C13   
    12     10     32      1    1.0968e+02    3.6208e+02 ;    C12 - C10    - H8    
    12     10     33      1    1.0968e+02    3.6208e+02 ;    C12 - C10    - H9    
    12     10     34      1    1.0968e+02    3.6208e+02 ;    C12 - C10    - H10   
    12     13     15      1    1.1348e+02    5.4233e+02 ;    C12 - C13    - N1    
    12     13     39      1    1.0959e+02    3.6217e+02 ;    C12 - C13    - H15   
    12     13     40      1    1.0959e+02    3.6217e+02 ;    C12 - C13    - H16   
    13     12     37      1    1.0968e+02    3.6208e+02 ;    C13 - C12    - H13   
    13     12     38      1    1.0968e+02    3.6208e+02 ;    C13 - C12    - H14   
    15     11     35      1    1.0968e+02    4.0141e+02 ;     N1 - C11    - H11   
    15     11     36      1    1.0968e+02    4.0141e+02 ;     N1 - C11    - H12   
    15     13     39      1    1.0968e+02    4.0141e+02 ;     N1 - C13    - H15   
    15     13     40      1    1.0968e+02    4.0141e+02 ;     N1 - C13    - H16   
    18     16     19      1    1.2505e+02    1.0964e+03 ;     O1 - N2     - O2    
    20     17     21      1    1.2505e+02    1.0964e+03 ;     O3 - N3     - O4    
    22     14     23      1    1.0737e+02    8.9437e+02 ;     F1 - C14    - F2    
    22     14     24      1    1.0737e+02    8.9437e+02 ;     F1 - C14    - F3    
    23     14     24      1    1.0737e+02    8.9437e+02 ;     F2 - C14    - F3    
    27      7     28      1    1.1443e+02    2.9330e+02 ;     H3 - C7     - H4    
    29      8     30      1    1.1443e+02    2.9330e+02 ;     H5 - C8     - H6    
    32     10     33      1    1.0773e+02    2.9957e+02 ;     H8 - C10    - H9    
    32     10     34      1    1.0773e+02    2.9957e+02 ;     H8 - C10    - H10   
    33     10     34      1    1.0773e+02    2.9957e+02 ;     H9 - C10    - H10   
    35     11     36      1    1.0855e+02    2.9824e+02 ;    H11 - C11    - H12   
    37     12     38      1    1.0773e+02    2.9957e+02 ;    H13 - C12    - H14   
    39     13     40      1    1.0855e+02    2.9824e+02 ;    H15 - C13    - H16   

[ dihedrals ] ; propers
; for gromacs 4.5 or higher, using funct 9
;    i      j      k      l   func   phase     kd      pn
     1      3      2      5      9   180.00  15.16700   2 ;     C1-    C3-    C2-    C5
     1      3      2     26      9   180.00  15.16700   2 ;     C1-    C3-    C2-    H2
     1      3     14     22      9     0.00   0.00000   0 ;     C1-    C3-   C14-    F1
     1      3     14     23      9     0.00   0.00000   0 ;     C1-    C3-   C14-    F2
     1      3     14     24      9     0.00   0.00000   0 ;     C1-    C3-   C14-    F3
     1      4      6      5      9   180.00  15.16700   2 ;     C1-    C4-    C6-    C5
     1      4      6     15      9   180.00  15.16700   2 ;     C1-    C4-    C6-    N1
     1      4     16     18      9   180.00   3.01248   2 ;     C1-    C4-    N2-    O1
     1      4     16     19      9   180.00   3.01248   2 ;     C1-    C4-    N2-    O2
     2      3     14     22      9     0.00   0.00000   0 ;     C2-    C3-   C14-    F1
     2      3     14     23      9     0.00   0.00000   0 ;     C2-    C3-   C14-    F2
     2      3     14     24      9     0.00   0.00000   0 ;     C2-    C3-   C14-    F3
     2      5      6      4      9   180.00  15.16700   2 ;     C2-    C5-    C6-    C4
     2      5      6     15      9   180.00  15.16700   2 ;     C2-    C5-    C6-    N1
     2      5     17     20      9   180.00   3.01248   2 ;     C2-    C5-    N3-    O3
     2      5     17     21      9   180.00   3.01248   2 ;     C2-    C5-    N3-    O4
     3      1      4      6      9   180.00  15.16700   2 ;     C3-    C1-    C4-    C6
     3      1      4     16      9   180.00  15.16700   2 ;     C3-    C1-    C4-    N2
     3      2      5      6      9   180.00  15.16700   2 ;     C3-    C2-    C5-    C6
     3      2      5     17      9   180.00  15.16700   2 ;     C3-    C2-    C5-    N3
     4      1      3      2      9   180.00  15.16700   2 ;     C4-    C1-    C3-    C2
     4      1      3     14      9   180.00  15.16700   2 ;     C4-    C1-    C3-   C14
     4      6      5     17      9   180.00  15.16700   2 ;     C4-    C6-    C5-    N3
     4      6     15     11      9   180.00   3.15055   2 ;     C4-    C6-    N1-   C11
     4      6     15     13      9   180.00   3.15055   2 ;     C4-    C6-    N1-   C13
     5      2      3     14      9   180.00  15.16700   2 ;     C5-    C2-    C3-   C14
     5      6      4     16      9   180.00  15.16700   2 ;     C5-    C6-    C4-    N2
     5      6     15     11      9   180.00   3.15055   2 ;     C5-    C6-    N1-   C11
     5      6     15     13      9   180.00   3.15055   2 ;     C5-    C6-    N1-   C13
     6      4     16     18      9   180.00   3.01248   2 ;     C6-    C4-    N2-    O1
     6      4     16     19      9   180.00   3.01248   2 ;     C6-    C4-    N2-    O2
     6      5      2     26      9   180.00  15.16700   2 ;     C6-    C5-    C2-    H2
     6      5     17     20      9   180.00   3.01248   2 ;     C6-    C5-    N3-    O3
     6      5     17     21      9   180.00   3.01248   2 ;     C6-    C5-    N3-    O4
     6     15     11      9      9     0.00   0.00000   0 ;     C6-    N1-   C11-    C9
     6     15     11     35      9     0.00   1.38909   2 ;     C6-    N1-   C11-   H11
     6     15     11     36      9     0.00   1.38909   2 ;     C6-    N1-   C11-   H12
     6     15     13     12      9     0.00   0.00000   0 ;     C6-    N1-   C13-   C12
     6     15     13     39      9     0.00   1.38909   2 ;     C6-    N1-   C13-   H15
     6     15     13     40      9     0.00   1.38909   2 ;     C6-    N1-   C13-   H16
     7      8      9     11      9     0.00   0.65084   3 ;     C7-    C8-    C9-   C11
     7      8      9     31      9     0.00   0.65084   3 ;     C7-    C8-    C9-    H7
     7      9      8     29      9     0.00   0.65084   3 ;     C7-    C9-    C8-    H5
     7      9      8     30      9     0.00   0.65084   3 ;     C7-    C9-    C8-    H6
     7      9     11     15      9     0.00   0.87864   3 ;     C7-    C9-   C11-    N1
     7      9     11     35      9     0.00   0.54392   3 ;     C7-    C9-   C11-   H11
     7      9     11     36      9     0.00   0.54392   3 ;     C7-    C9-   C11-   H12
     8      7      9     11      9     0.00   0.65084   3 ;     C8-    C7-    C9-   C11
     8      7      9     31      9     0.00   0.65084   3 ;     C8-    C7-    C9-    H7
     8      9      7     27      9     0.00   0.65084   3 ;     C8-    C9-    C7-    H3
     8      9      7     28      9     0.00   0.65084   3 ;     C8-    C9-    C7-    H4
     8      9     11     15      9     0.00   0.87864   3 ;     C8-    C9-   C11-    N1
     8      9     11     35      9     0.00   0.54392   3 ;     C8-    C9-   C11-   H11
     8      9     11     36      9     0.00   0.54392   3 ;     C8-    C9-   C11-   H12
     9      7      8     29      9     0.00   0.65084   3 ;     C9-    C7-    C8-    H5
     9      7      8     30      9     0.00   0.65084   3 ;     C9-    C7-    C8-    H6
     9      8      7     27      9     0.00   0.65084   3 ;     C9-    C8-    C7-    H3
     9      8      7     28      9     0.00   0.65084   3 ;     C9-    C8-    C7-    H4
     9     11     15     13      9     0.00   0.00000   0 ;     C9-   C11-    N1-   C13
    10     12     13     15      9     0.00   0.87864   3 ;    C10-   C12-   C13-    N1
    10     12     13     39      9     0.00   0.65084   3 ;    C10-   C12-   C13-   H15
    10     12     13     40      9     0.00   0.65084   3 ;    C10-   C12-   C13-   H16
    11      9      7     27      9     0.00   0.65084   3 ;    C11-    C9-    C7-    H3
    11      9      7     28      9     0.00   0.65084   3 ;    C11-    C9-    C7-    H4
    11      9      8     29      9     0.00   0.65084   3 ;    C11-    C9-    C8-    H5
    11      9      8     30      9     0.00   0.65084   3 ;    C11-    C9-    C8-    H6
    11     15     13     12      9     0.00   0.00000   0 ;    C11-    N1-   C13-   C12
    11     15     13     39      9     0.00   0.00000   0 ;    C11-    N1-   C13-   H15
    11     15     13     40      9     0.00   0.00000   0 ;    C11-    N1-   C13-   H16
    13     12     10     32      9     0.00   0.54392   3 ;    C13-   C12-   C10-    H8
    13     12     10     33      9     0.00   0.54392   3 ;    C13-   C12-   C10-    H9
    13     12     10     34      9     0.00   0.54392   3 ;    C13-   C12-   C10-   H10
    13     15     11     35      9     0.00   0.00000   0 ;    C13-    N1-   C11-   H11
    13     15     11     36      9     0.00   0.00000   0 ;    C13-    N1-   C11-   H12
    14      3      2     26      9   180.00  15.16700   2 ;    C14-    C3-    C2-    H2
    15      6      4     16      9   180.00  15.16700   2 ;     N1-    C6-    C4-    N2
    15      6      5     17      9   180.00  15.16700   2 ;     N1-    C6-    C5-    N3
    15     11      9     31      9     0.00   0.41840   3 ;     N1-   C11-    C9-    H7
    15     13     12     37      9     0.00   0.65084   3 ;     N1-   C13-   C12-   H13
    15     13     12     38      9     0.00   0.65084   3 ;     N1-   C13-   C12-   H14
    17      5      2     26      9   180.00  15.16700   2 ;     N3-    C5-    C2-    H2
    25      1      3      2      9   180.00  15.16700   2 ;     H1-    C1-    C3-    C2
    25      1      3     14      9   180.00  15.16700   2 ;     H1-    C1-    C3-   C14
    25      1      4      6      9   180.00  15.16700   2 ;     H1-    C1-    C4-    C6
    25      1      4     16      9   180.00  15.16700   2 ;     H1-    C1-    C4-    N2
    27      7      8     29      9     0.00   0.65084   3 ;     H3-    C7-    C8-    H5
    27      7      8     30      9     0.00   0.65084   3 ;     H3-    C7-    C8-    H6
    27      7      9     31      9     0.00   0.65084   3 ;     H3-    C7-    C9-    H7
    28      7      8     29      9     0.00   0.65084   3 ;     H4-    C7-    C8-    H5
    28      7      8     30      9     0.00   0.65084   3 ;     H4-    C7-    C8-    H6
    28      7      9     31      9     0.00   0.65084   3 ;     H4-    C7-    C9-    H7
    29      8      9     31      9     0.00   0.65084   3 ;     H5-    C8-    C9-    H7
    30      8      9     31      9     0.00   0.65084   3 ;     H6-    C8-    C9-    H7
    31      9     11     35      9     0.00   0.50208   3 ;     H7-    C9-   C11-   H11
    31      9     11     36      9     0.00   0.50208   3 ;     H7-    C9-   C11-   H12
    32     10     12     37      9     0.00   0.50208   3 ;     H8-   C10-   C12-   H13
    32     10     12     38      9     0.00   0.50208   3 ;     H8-   C10-   C12-   H14
    33     10     12     37      9     0.00   0.50208   3 ;     H9-   C10-   C12-   H13
    33     10     12     38      9     0.00   0.50208   3 ;     H9-   C10-   C12-   H14
    34     10     12     37      9     0.00   0.50208   3 ;    H10-   C10-   C12-   H13
    34     10     12     38      9     0.00   0.50208   3 ;    H10-   C10-   C12-   H14
    37     12     13     39      9     0.00   0.65084   3 ;    H13-   C12-   C13-   H15
    37     12     13     40      9     0.00   0.65084   3 ;    H13-   C12-   C13-   H16
    38     12     13     39      9     0.00   0.65084   3 ;    H14-   C12-   C13-   H15
    38     12     13     40      9     0.00   0.65084   3 ;    H14-   C12-   C13-   H16

[ dihedrals ] ; impropers
; treated as propers in GROMACS to use correct AMBER analytical function
;    i      j      k      l   func   phase     kd      pn
     1      2      3     14      4   180.00   4.60240   2 ;     C1-    C2-    C3-   C14
     1      6      4     16      4   180.00   4.60240   2 ;     C1-    C6-    C4-    N2
     2      6      5     17      4   180.00   4.60240   2 ;     C2-    C6-    C5-    N3
     3      5      2     26      4   180.00   4.60240   2 ;     C3-    C5-    C2-    H2
     4      5      6     15      4   180.00   4.60240   2 ;     C4-    C5-    C6-    N1
     4     18     16     19      4   180.00   4.60240   2 ;     C4-    O1-    N2-    O2
     5     20     17     21      4   180.00   4.60240   2 ;     C5-    O3-    N3-    O4
    11     13     15      6      4   180.00   4.60240   2 ;    C11-   C13-    N1-    C6
    25      1      4      3      4   180.00   4.60240   2 ;     H1-    C1-    C4-    C3
