; mobley_3777264_GMX.itp created by acpype (v: 2023.10.27) on Thu May 21 00:07:46 2026

[ atomtypes ]
;name   bond_type     mass     charge   ptype   sigma         epsilon       Amb
 ca       ca          0.00000  0.00000   A     3.31521e-01   4.13379e-01 ; 1.86  0.0988
 nv       nv          0.00000  0.00000   A     3.36813e-01   4.68608e-01 ; 1.89  0.1120
 no       no          0.00000  0.00000   A     3.36510e-01   3.58987e-01 ; 1.89  0.0858
 o        o           0.00000  0.00000   A     3.04812e-01   6.12119e-01 ; 1.71  0.1463
 ha       ha          0.00000  0.00000   A     2.62548e-01   6.73624e-02 ; 1.47  0.0161
 hn       hn          0.00000  0.00000   A     1.10650e-01   4.18400e-02 ; 0.62  0.0100

[ moleculetype ]
;name            nrexcl
 mobley_3777264   3

[ atoms ]
;   nr  type  resi  res  atom  cgnr     charge      mass       ; qtot   bond_type
     1   ca     1   MOL    C1    1    -0.100000     12.01000 ; qtot -0.100
     2   ca     1   MOL    C2    2    -0.158000     12.01000 ; qtot -0.258
     3   ca     1   MOL    C3    3    -0.116000     12.01000 ; qtot -0.374
     4   ca     1   MOL    C4    4    -0.145000     12.01000 ; qtot -0.519
     5   ca     1   MOL    C5    5     0.145600     12.01000 ; qtot -0.373
     6   ca     1   MOL    C6    6    -0.131200     12.01000 ; qtot -0.505
     7   nv     1   MOL    N1    7    -0.823200     14.01000 ; qtot -1.328
     8   no     1   MOL    N2    8     0.309200     14.01000 ; qtot -1.019
     9    o     1   MOL    O1    9    -0.208000     16.00000 ; qtot -1.227
    10    o     1   MOL    O2   10    -0.208000     16.00000 ; qtot -1.435
    11   ha     1   MOL    H1   11     0.146000      1.00800 ; qtot -1.289
    12   ha     1   MOL    H2   12     0.143000      1.00800 ; qtot -1.146
    13   ha     1   MOL    H3   13     0.171000      1.00800 ; qtot -0.975
    14   ha     1   MOL    H4   14     0.170000      1.00800 ; qtot -0.805
    15   hn     1   MOL    H5   15     0.402300      1.00800 ; qtot -0.402
    16   hn     1   MOL    H6   16     0.402300      1.00800 ; qtot 0.000

[ bonds ]
;   ai     aj funct   r             k
     1      2   1    1.3986e-01    2.9644e+05 ;     C1 - C2    
     1      3   1    1.3986e-01    2.9644e+05 ;     C1 - C3    
     1     11   1    1.0860e-01    3.0183e+05 ;     C1 - H1    
     2      5   1    1.3986e-01    2.9644e+05 ;     C2 - C5    
     2     12   1    1.0860e-01    3.0183e+05 ;     C2 - H2    
     3      6   1    1.3986e-01    2.9644e+05 ;     C3 - C6    
     3     13   1    1.0860e-01    3.0183e+05 ;     C3 - H3    
     4      5   1    1.3986e-01    2.9644e+05 ;     C4 - C5    
     4      6   1    1.3986e-01    2.9644e+05 ;     C4 - C6    
     4     14   1    1.0860e-01    3.0183e+05 ;     C4 - H4    
     5      7   1    1.3744e-01    2.8644e+05 ;     C5 - N1    
     6      8   1    1.4696e-01    2.0937e+05 ;     C6 - N2    
     7     15   1    1.0114e-01    3.9961e+05 ;     N1 - H5    
     7     16   1    1.0114e-01    3.9961e+05 ;     N1 - H6    
     8      9   1    1.2311e-01    3.0270e+05 ;     N2 - O1    
     8     10   1    1.2311e-01    3.0270e+05 ;     N2 - O2    

[ pairs ]
;   ai     aj    funct
     1      4      1 ;     C1 - C4    
     1      7      1 ;     C1 - N1    
     1      8      1 ;     C1 - N2    
     2      6      1 ;     C2 - C6    
     2     13      1 ;     C2 - H3    
     2     14      1 ;     C2 - H4    
     2     15      1 ;     C2 - H5    
     2     16      1 ;     C2 - H6    
     3      5      1 ;     C3 - C5    
     3      9      1 ;     C3 - O1    
     3     10      1 ;     C3 - O2    
     3     12      1 ;     C3 - H2    
     3     14      1 ;     C3 - H4    
     4      9      1 ;     C4 - O1    
     4     10      1 ;     C4 - O2    
     4     12      1 ;     C4 - H2    
     4     13      1 ;     C4 - H3    
     4     15      1 ;     C4 - H5    
     4     16      1 ;     C4 - H6    
     5      8      1 ;     C5 - N2    
     6      7      1 ;     C6 - N1    
     7     12      1 ;     N1 - H2    
     7     14      1 ;     N1 - H4    
     8     13      1 ;     N2 - H3    
     8     14      1 ;     N2 - H4    
    11      5      1 ;     H1 - C5    
    11      6      1 ;     H1 - C6    
    11     12      1 ;     H1 - H2    
    11     13      1 ;     H1 - H3    

[ angles ]
;   ai     aj     ak    funct   theta         cth
     1      2      5      1    1.2002e+02    5.3279e+02 ;     C1 - C2     - C5    
     1      2     12      1    1.1988e+02    3.7572e+02 ;     C1 - C2     - H2    
     1      3      6      1    1.2002e+02    5.3279e+02 ;     C1 - C3     - C6    
     1      3     13      1    1.1988e+02    3.7572e+02 ;     C1 - C3     - H3    
     2      1      3      1    1.2002e+02    5.3279e+02 ;     C2 - C1     - C3    
     2      1     11      1    1.1988e+02    3.7572e+02 ;     C2 - C1     - H1    
     2      5      4      1    1.2002e+02    5.3279e+02 ;     C2 - C5     - C4    
     2      5      7      1    1.2094e+02    5.6827e+02 ;     C2 - C5     - N1    
     3      1     11      1    1.1988e+02    3.7572e+02 ;     C3 - C1     - H1    
     3      6      4      1    1.2002e+02    5.3279e+02 ;     C3 - C6     - C4    
     3      6      8      1    1.1900e+02    5.5329e+02 ;     C3 - C6     - N2    
     4      5      7      1    1.2094e+02    5.6827e+02 ;     C4 - C5     - N1    
     4      6      8      1    1.1900e+02    5.5329e+02 ;     C4 - C6     - N2    
     5      2     12      1    1.1988e+02    3.7572e+02 ;     C5 - C2     - H2    
     5      4      6      1    1.2002e+02    5.3279e+02 ;     C5 - C4     - C6    
     5      4     14      1    1.1988e+02    3.7572e+02 ;     C5 - C4     - H4    
     5      7     15      1    1.1673e+02    4.8292e+02 ;     C5 - N1     - H5    
     5      7     16      1    1.1673e+02    4.8292e+02 ;     C5 - N1     - H6    
     6      3     13      1    1.1988e+02    3.7572e+02 ;     C6 - C3     - H3    
     6      4     14      1    1.1988e+02    3.7572e+02 ;     C6 - C4     - H4    
     6      8      9      1    1.1776e+02    8.2910e+02 ;     C6 - N2     - O1    
     6      8     10      1    1.1776e+02    8.2910e+02 ;     C6 - N2     - O2    
     9      8     10      1    1.2505e+02    1.0964e+03 ;     O1 - N2     - O2    
    15      7     16      1    1.1528e+02    3.8794e+02 ;     H5 - N1     - H6    

[ dihedrals ] ; propers
; for gromacs 4.5 or higher, using funct 9
;    i      j      k      l   func   phase     kd      pn
     1      2      5      4      9   180.00  15.16700   2 ;     C1-    C2-    C5-    C4
     1      2      5      7      9   180.00  15.16700   2 ;     C1-    C2-    C5-    N1
     1      3      6      4      9   180.00  15.16700   2 ;     C1-    C3-    C6-    C4
     1      3      6      8      9   180.00  15.16700   2 ;     C1-    C3-    C6-    N2
     2      1      3      6      9   180.00  15.16700   2 ;     C2-    C1-    C3-    C6
     2      1      3     13      9   180.00  15.16700   2 ;     C2-    C1-    C3-    H3
     2      5      4      6      9   180.00  15.16700   2 ;     C2-    C5-    C4-    C6
     2      5      4     14      9   180.00  15.16700   2 ;     C2-    C5-    C4-    H4
     2      5      7     15      9   180.00   4.39320   2 ;     C2-    C5-    N1-    H5
     2      5      7     16      9   180.00   4.39320   2 ;     C2-    C5-    N1-    H6
     3      1      2      5      9   180.00  15.16700   2 ;     C3-    C1-    C2-    C5
     3      1      2     12      9   180.00  15.16700   2 ;     C3-    C1-    C2-    H2
     3      6      4      5      9   180.00  15.16700   2 ;     C3-    C6-    C4-    C5
     3      6      4     14      9   180.00  15.16700   2 ;     C3-    C6-    C4-    H4
     3      6      8      9      9   180.00   3.01248   2 ;     C3-    C6-    N2-    O1
     3      6      8     10      9   180.00   3.01248   2 ;     C3-    C6-    N2-    O2
     4      5      2     12      9   180.00  15.16700   2 ;     C4-    C5-    C2-    H2
     4      5      7     15      9   180.00   4.39320   2 ;     C4-    C5-    N1-    H5
     4      5      7     16      9   180.00   4.39320   2 ;     C4-    C5-    N1-    H6
     4      6      3     13      9   180.00  15.16700   2 ;     C4-    C6-    C3-    H3
     4      6      8      9      9   180.00   3.01248   2 ;     C4-    C6-    N2-    O1
     4      6      8     10      9   180.00   3.01248   2 ;     C4-    C6-    N2-    O2
     5      4      6      8      9   180.00  15.16700   2 ;     C5-    C4-    C6-    N2
     6      4      5      7      9   180.00  15.16700   2 ;     C6-    C4-    C5-    N1
     7      5      2     12      9   180.00  15.16700   2 ;     N1-    C5-    C2-    H2
     7      5      4     14      9   180.00  15.16700   2 ;     N1-    C5-    C4-    H4
     8      6      3     13      9   180.00  15.16700   2 ;     N2-    C6-    C3-    H3
     8      6      4     14      9   180.00  15.16700   2 ;     N2-    C6-    C4-    H4
    11      1      2      5      9   180.00  15.16700   2 ;     H1-    C1-    C2-    C5
    11      1      2     12      9   180.00  15.16700   2 ;     H1-    C1-    C2-    H2
    11      1      3      6      9   180.00  15.16700   2 ;     H1-    C1-    C3-    C6
    11      1      3     13      9   180.00  15.16700   2 ;     H1-    C1-    C3-    H3

[ dihedrals ] ; impropers
; treated as propers in GROMACS to use correct AMBER analytical function
;    i      j      k      l   func   phase     kd      pn
     1      5      2     12      4   180.00   4.60240   2 ;     C1-    C5-    C2-    H2
     1      6      3     13      4   180.00   4.60240   2 ;     C1-    C6-    C3-    H3
     2      4      5      7      4   180.00   4.60240   2 ;     C2-    C4-    C5-    N1
     3      4      6      8      4   180.00   4.60240   2 ;     C3-    C4-    C6-    N2
     5      6      4     14      4   180.00   4.60240   2 ;     C5-    C6-    C4-    H4
     5     15      7     16      4   180.00   4.60240   2 ;     C5-    H5-    N1-    H6
     6      9      8     10      4   180.00   4.60240   2 ;     C6-    O1-    N2-    O2
    11      1      3      2      4   180.00   4.60240   2 ;     H1-    C1-    C3-    C2
