mobley_511661_GMX.gro created by acpype (v: 2023.10.27) on Tue May 19 12:49:18 2026
 2419
    1MOL     H1    1   2.222   2.443   2.120
    1MOL     C2    2   2.176   2.350   2.141
    1MOL     H2    3   2.084   2.328   2.083
    1MOL     C1    4   2.217   2.266   2.238
    1MOL     H3    5   2.164   2.173   2.252
    1MOL     C4    6   2.334   2.288   2.314
    1MOL     H4    7   2.389   2.380   2.302
    1MOL     C3    8   2.381   2.203   2.411
    1MOL     H5    9   2.467   2.225   2.467
    1MOL     H6   10   2.327   2.107   2.429
   14SOL     OW   11   1.460   1.505   1.339
   14SOL    HW1   12   1.484   1.599   1.365
   14SOL    HW2   13   1.444   1.451   1.421
   18SOL     OW   14   1.127   1.341   1.690
   18SOL    HW1   15   1.174   1.341   1.778
   18SOL    HW2   16   1.079   1.254   1.679
   31SOL     OW   17   1.293   1.228   1.423
   31SOL    HW1   18   1.330   1.155   1.365
   31SOL    HW2   19   1.345   1.233   1.508
   35SOL     OW   20   1.187   1.792   1.616
   35SOL    HW1   21   1.211   1.852   1.540
   35SOL    HW2   22   1.194   1.697   1.586
   37SOL     OW   23   1.466   1.417   0.953
   37SOL    HW1   24   1.407   1.423   1.033
   37SOL    HW2   25   1.451   1.329   0.907
   56SOL     OW   26   1.227   1.550   1.506
   56SOL    HW1   27   1.233   1.473   1.570
   56SOL    HW2   28   1.175   1.524   1.426
   95SOL     OW   29   1.754   1.223   1.588
   95SOL    HW1   30   1.845   1.184   1.575
   95SOL    HW2   31   1.762   1.319   1.612
   96SOL     OW   32   1.064   1.347   1.340
   96SOL    HW1   33   0.984   1.324   1.395
   96SOL    HW2   34   1.147   1.321   1.389
   97SOL     OW   35   1.592   1.629   1.625
   97SOL    HW1   36   1.619   1.663   1.535
   97SOL    HW2   37   1.671   1.591   1.671
   99SOL     OW   38   1.638   1.099   1.079
   99SOL    HW1   39   1.643   1.180   1.138
   99SOL    HW2   40   1.552   1.101   1.028
  109SOL     OW   41   1.272   1.445   1.142
  109SOL    HW1   42   1.319   1.458   1.229
  109SOL    HW2   43   1.206   1.371   1.151
  113SOL     OW   44   1.587   0.779   1.670
  113SOL    HW1   45   1.495   0.817   1.665
  113SOL    HW2   46   1.647   0.826   1.605
  122SOL     OW   47   1.728   0.935   1.854
  122SOL    HW1   48   1.682   0.928   1.765
  122SOL    HW2   49   1.666   0.979   1.920
  126SOL     OW   50   0.980   1.573   1.700
  126SOL    HW1   51   0.960   1.617   1.612
  126SOL    HW2   52   1.019   1.482   1.684
  127SOL     OW   53   1.859   1.518   1.605
  127SOL    HW1   54   1.873   1.545   1.510
  127SOL    HW2   55   1.942   1.540   1.658
  142SOL     OW   56   1.369   0.950   1.660
  142SOL    HW1   57   1.408   1.039   1.680
  142SOL    HW2   58   1.379   0.930   1.563
  147SOL     OW   59   0.930   1.678   1.465
  147SOL    HW1   60   0.906   1.660   1.370
  147SOL    HW2   61   0.960   1.772   1.475
  152SOL     OW   62   1.759   1.747   1.154
  152SOL    HW1   63   1.820   1.777   1.081
  152SOL    HW2   64   1.721   1.658   1.132
  153SOL     OW   65   1.252   1.731   1.128
  153SOL    HW1   66   1.336   1.736   1.074
  153SOL    HW2   67   1.229   1.635   1.146
  155SOL     OW   68   0.688   1.662   1.716
  155SOL    HW1   69   0.632   1.743   1.725
  155SOL    HW2   70   0.740   1.666   1.630
  163SOL     OW   71   1.650   1.720   1.394
  163SOL    HW1   72   1.703   1.730   1.310
  163SOL    HW2   73   1.623   1.810   1.428
  171SOL     OW   74   1.614   1.292   1.289
  171SOL    HW1   75   1.674   1.295   1.369
  171SOL    HW2   76   1.539   1.356   1.302
  184SOL     OW   77   1.493   1.767   0.959
  184SOL    HW1   78   1.526   1.831   0.890
  184SOL    HW2   79   1.559   1.761   1.034
  186SOL     OW   80   1.450   1.220   1.633
  186SOL    HW1   81   1.441   1.210   1.732
  186SOL    HW2   82   1.546   1.213   1.607
  192SOL     OW   83   1.730   0.934   1.517
  192SOL    HW1   84   1.768   1.025   1.532
  192SOL    HW2   85   1.722   0.917   1.418
  197SOL     OW   86   1.861   1.569   0.851
  197SOL    HW1   87   1.790   1.557   0.781
  197SOL    HW2   88   1.862   1.490   0.911
  203SOL     OW   89   1.705   1.487   1.104
  203SOL    HW1   90   1.612   1.462   1.077
  203SOL    HW2   91   1.731   1.437   1.186
  219SOL     OW   92   1.555   1.511   2.565
  219SOL    HW1   93   1.498   1.495   2.646
  219SOL    HW2   94   1.496   1.521   2.485
  221SOL     OW   95   1.755   0.607   2.093
  221SOL    HW1   96   1.743   0.594   1.994
  221SOL    HW2   97   1.725   0.526   2.142
  227SOL     OW   98   1.460   1.505   3.201
  227SOL    HW1   99   1.484   1.599   3.227
  227SOL    HW2  100   1.444   1.451   3.283
  238SOL     OW  101   1.842   1.767   2.221
  238SOL    HW1  102   1.896   1.738   2.301
  238SOL    HW2  103   1.872   1.857   2.192
  240SOL     OW  104   1.689   0.922   2.474
  240SOL    HW1  105   1.784   0.893   2.482
  240SOL    HW2  106   1.681   0.987   2.399
  241SOL     OW  107   1.641   1.108   2.294
  241SOL    HW1  108   1.727   1.110   2.242
  241SOL    HW2  109   1.655   1.155   2.382
  244SOL     OW  110   1.293   1.228   3.285
  244SOL    HW1  111   1.330   1.155   3.227
  244SOL    HW2  112   1.345   1.233   3.370
  247SOL     OW  113   1.525   0.999   2.052
  247SOL    HW1  114   1.462   0.923   2.065
  247SOL    HW2  115   1.573   1.017   2.138
  248SOL     OW  116   1.187   1.792   3.478
  248SOL    HW1  117   1.211   1.852   3.402
  248SOL    HW2  118   1.194   1.697   3.448
  250SOL     OW  119   1.466   1.417   2.815
  250SOL    HW1  120   1.407   1.423   2.895
  250SOL    HW2  121   1.451   1.329   2.769
  251SOL     OW  122   1.667   1.714   2.434
  251SOL    HW1  123   1.626   1.691   2.346
  251SOL    HW2  124   1.649   1.640   2.499
  254SOL     OW  125   1.576   1.662   2.169
  254SOL    HW1  126   1.665   1.708   2.172
  254SOL    HW2  127   1.555   1.638   2.074
  264SOL     OW  128   1.362   1.144   2.407
  264SOL    HW1  129   1.445   1.115   2.359
  264SOL    HW2  130   1.313   1.211   2.351
  266SOL     OW  131   1.008   1.456   2.339
  266SOL    HW1  132   0.962   1.528   2.287
  266SOL    HW2  133   1.004   1.476   2.437
  268SOL     OW  134   1.795   1.066   2.735
  268SOL    HW1  135   1.733   1.051   2.659
  268SOL    HW2  136   1.743   1.077   2.820
  269SOL     OW  137   1.227   1.550   3.368
  269SOL    HW1  138   1.233   1.473   3.432
  269SOL    HW2  139   1.175   1.524   3.288
  271SOL     OW  140   1.458   0.735   2.590
  271SOL    HW1  141   1.453   0.670   2.665
  271SOL    HW2  142   1.538   0.794   2.603
  273SOL     OW  143   1.111   1.776   2.099
  273SOL    HW1  144   1.051   1.714   2.149
  273SOL    HW2  145   1.142   1.732   2.014
  275SOL     OW  146   1.632   1.377   1.943
  275SOL    HW1  147   1.600   1.471   1.933
  275SOL    HW2  148   1.556   1.314   1.931
  279SOL     OW  149   0.940   1.698   2.766
  279SOL    HW1  150   1.020   1.641   2.787
  279SOL    HW2  151   0.891   1.658   2.689
  284SOL     OW  152   0.888   1.514   3.057
  284SOL    HW1  153   0.865   1.489   2.963
  284SOL    HW2  154   0.949   1.445   3.096
  286SOL     OW  155   0.803   1.402   2.786
  286SOL    HW1  156   0.893   1.416   2.744
  286SOL    HW2  157   0.732   1.404   2.715
  289SOL     OW  158   1.434   1.188   1.903
  289SOL    HW1  159   1.466   1.112   1.960
  289SOL    HW2  160   1.342   1.215   1.933
  293SOL     OW  161   1.227   1.570   2.655
  293SOL    HW1  162   1.248   1.644   2.590
  293SOL    HW2  163   1.295   1.570   2.728
  295SOL     OW  164   1.271   1.797   2.453
  295SOL    HW1  165   1.315   1.861   2.389
  295SOL    HW2  166   1.221   1.849   2.523
  301SOL     OW  167   1.429   1.173   2.729
  301SOL    HW1  168   1.374   1.089   2.722
  301SOL    HW2  169   1.455   1.202   2.637
  303SOL     OW  170   1.857   0.833   2.239
  303SOL    HW1  171   1.899   0.769   2.303
  303SOL    HW2  172   1.819   0.782   2.161
  305SOL     OW  173   1.664   1.280   2.519
  305SOL    HW1  174   1.763   1.288   2.533
  305SOL    HW2  175   1.619   1.364   2.550
  308SOL     OW  176   1.754   1.223   3.450
  308SOL    HW1  177   1.845   1.184   3.437
  308SOL    HW2  178   1.762   1.319   3.474
  309SOL     OW  179   1.064   1.347   3.202
  309SOL    HW1  180   0.984   1.324   3.257
  309SOL    HW2  181   1.147   1.321   3.251
  310SOL     OW  182   1.592   1.629   3.487
  310SOL    HW1  183   1.619   1.663   3.397
  310SOL    HW2  184   1.671   1.591   3.533
  311SOL     OW  185   1.111   1.195   2.962
  311SOL    HW1  186   1.071   1.239   3.043
  311SOL    HW2  187   1.070   1.232   2.879
  312SOL     OW  188   1.638   1.099   2.941
  312SOL    HW1  189   1.643   1.180   3.000
  312SOL    HW2  190   1.552   1.101   2.890
  321SOL     OW  191   1.252   1.348   2.250
  321SOL    HW1  192   1.302   1.425   2.290
  321SOL    HW2  193   1.157   1.350   2.282
  322SOL     OW  194   1.272   1.445   3.004
  322SOL    HW1  195   1.319   1.458   3.091
  322SOL    HW2  196   1.206   1.371   3.013
  323SOL     OW  197   1.582   0.639   2.334
  323SOL    HW1  198   1.551   0.700   2.407
  323SOL    HW2  199   1.632   0.691   2.265
  330SOL     OW  200   1.360   0.862   2.907
  330SOL    HW1  201   1.285   0.862   2.841
  330SOL    HW2  202   1.397   0.770   2.916
  340SOL     OW  203   1.859   1.518   3.467
  340SOL    HW1  204   1.873   1.545   3.372
  340SOL    HW2  205   1.942   1.540   3.520
  343SOL     OW  206   1.303   0.838   1.904
  343SOL    HW1  207   1.337   0.745   1.919
  343SOL    HW2  208   1.321   0.865   1.809
  344SOL     OW  209   1.068   1.333   2.711
  344SOL    HW1  210   1.075   1.249   2.656
  344SOL    HW2  211   1.130   1.402   2.675
  363SOL     OW  212   1.347   1.059   3.096
  363SOL    HW1  213   1.371   0.996   3.022
  363SOL    HW2  214   1.257   1.099   3.078
  364SOL     OW  215   1.302   0.855   2.171
  364SOL    HW1  216   1.216   0.824   2.213
  364SOL    HW2  217   1.298   0.841   2.072
  365SOL     OW  218   1.759   1.747   3.016
  365SOL    HW1  219   1.820   1.777   2.943
  365SOL    HW2  220   1.721   1.658   2.994
  366SOL     OW  221   1.252   1.731   2.990
  366SOL    HW1  222   1.336   1.736   2.936
  366SOL    HW2  223   1.229   1.635   3.008
  370SOL     OW  224   1.388   1.573   2.339
  370SOL    HW1  225   1.455   1.585   2.265
  370SOL    HW2  226   1.348   1.662   2.362
  372SOL     OW  227   1.280   0.927   2.534
  372SOL    HW1  228   1.340   0.846   2.536
  372SOL    HW2  229   1.320   0.996   2.474
  374SOL     OW  230   0.672   1.616   2.016
  374SOL    HW1  231   0.681   1.626   1.917
  374SOL    HW2  232   0.632   1.527   2.037
  375SOL     OW  233   1.650   1.720   3.256
  375SOL    HW1  234   1.703   1.730   3.172
  375SOL    HW2  235   1.623   1.810   3.290
  378SOL     OW  236   1.194   1.612   1.893
  378SOL    HW1  237   1.200   1.519   1.930
  378SOL    HW2  238   1.135   1.612   1.813
  381SOL     OW  239   1.504   1.607   1.906
  381SOL    HW1  240   1.412   1.644   1.913
  381SOL    HW2  241   1.542   1.627   1.816
  383SOL     OW  242   1.614   1.292   3.151
  383SOL    HW1  243   1.674   1.295   3.231
  383SOL    HW2  244   1.539   1.356   3.164
  384SOL     OW  245   1.039   1.098   2.558
  384SOL    HW1  246   0.969   1.051   2.612
  384SOL    HW2  247   1.098   1.030   2.515
  394SOL     OW  248   1.183   1.335   1.981
  394SOL    HW1  249   1.084   1.324   1.983
  394SOL    HW2  250   1.217   1.350   2.074
  396SOL     OW  251   1.493   1.767   2.821
  396SOL    HW1  252   1.526   1.831   2.752
  396SOL    HW2  253   1.559   1.761   2.896
  400SOL     OW  254   1.674   0.883   3.116
  400SOL    HW1  255   1.647   0.794   3.079
  400SOL    HW2  256   1.675   0.951   3.043
  405SOL     OW  257   0.859   1.374   1.878
  405SOL    HW1  258   0.813   1.389   1.966
  405SOL    HW2  259   0.903   1.459   1.848
  406SOL     OW  260   0.661   1.790   2.815
  406SOL    HW1  261   0.615   1.878   2.802
  406SOL    HW2  262   0.760   1.802   2.808
  408SOL     OW  263   1.083   0.984   1.949
  408SOL    HW1  264   1.060   1.037   1.867
  408SOL    HW2  265   1.164   0.928   1.930
  409SOL     OW  266   1.861   1.569   2.713
  409SOL    HW1  267   1.790   1.557   2.643
  409SOL    HW2  268   1.862   1.490   2.773
  415SOL     OW  269   1.705   1.487   2.966
  415SOL    HW1  270   1.612   1.462   2.939
  415SOL    HW2  271   1.731   1.437   3.048
  417SOL     OW  272   0.812   1.586   2.549
  417SOL    HW1  273   0.844   1.596   2.455
  417SOL    HW2  274   0.733   1.524   2.551
  420SOL     OW  275   0.770   1.330   2.163
  420SOL    HW1  276   0.724   1.243   2.180
  420SOL    HW2  277   0.861   1.327   2.204
  426SOL     OW  278   0.875   1.646   2.199
  426SOL    HW1  279   0.798   1.611   2.145
  426SOL    HW2  280   0.843   1.717   2.261
  527SOL     OW  281   0.850   2.660   1.823
  527SOL    HW1  282   0.846   2.736   1.888
  527SOL    HW2  283   0.872   2.696   1.732
  531SOL     OW  284   1.460   3.367   1.339
  531SOL    HW1  285   1.484   3.461   1.365
  531SOL    HW2  286   1.444   3.313   1.421
  533SOL     OW  287   1.603   2.309   0.737
  533SOL    HW1  288   1.529   2.355   0.687
  533SOL    HW2  289   1.654   2.377   0.790
  535SOL     OW  290   1.127   3.203   1.690
  535SOL    HW1  291   1.174   3.203   1.778
  535SOL    HW2  292   1.079   3.116   1.679
  540SOL     OW  293   1.594   1.976   1.480
  540SOL    HW1  294   1.576   2.043   1.408
  540SOL    HW2  295   1.591   2.022   1.569
  548SOL     OW  296   1.293   3.090   1.423
  548SOL    HW1  297   1.330   3.017   1.365
  548SOL    HW2  298   1.345   3.095   1.508
  557SOL     OW  299   1.281   2.207   0.944
  557SOL    HW1  300   1.195   2.157   0.931
  557SOL    HW2  301   1.343   2.153   1.000
  559SOL     OW  302   0.807   2.467   1.465
  559SOL    HW1  303   0.760   2.464   1.554
  559SOL    HW2  304   0.756   2.412   1.399
  560SOL     OW  305   1.394   2.331   1.674
  560SOL    HW1  306   1.374   2.374   1.762
  560SOL    HW2  307   1.472   2.269   1.683
  561SOL     OW  308   0.973   2.752   1.572
  561SOL    HW1  309   1.019   2.668   1.543
  561SOL    HW2  310   0.917   2.786   1.497
  562SOL     OW  311   0.991   2.272   1.242
  562SOL    HW1  312   0.914   2.306   1.296
  562SOL    HW2  313   0.957   2.221   1.163
  567SOL     OW  314   1.719   2.447   1.831
  567SOL    HW1  315   1.693   2.536   1.795
  567SOL    HW2  316   1.717   2.379   1.758
  572SOL     OW  317   1.795   2.928   0.873
  572SOL    HW1  318   1.733   2.913   0.797
  572SOL    HW2  319   1.743   2.939   0.958
  573SOL     OW  320   1.227   3.412   1.506
  573SOL    HW1  321   1.233   3.335   1.570
  573SOL    HW2  322   1.175   3.386   1.426
  575SOL     OW  323   1.458   2.597   0.728
  575SOL    HW1  324   1.453   2.532   0.803
  575SOL    HW2  325   1.538   2.656   0.741
  585SOL     OW  326   1.547   2.084   1.729
  585SOL    HW1  327   1.542   2.121   1.821
  585SOL    HW2  328   1.475   2.015   1.717
  586SOL     OW  329   0.781   2.126   1.749
  586SOL    HW1  330   0.848   2.065   1.792
  586SOL    HW2  331   0.708   2.145   1.814
  588SOL     OW  332   1.351   2.452   1.433
  588SOL    HW1  333   1.379   2.409   1.518
  588SOL    HW2  334   1.376   2.548   1.434
  595SOL     OW  335   1.076   2.545   1.464
  595SOL    HW1  336   0.996   2.484   1.467
  595SOL    HW2  337   1.157   2.492   1.440
  605SOL     OW  338   1.466   2.452   0.992
  605SOL    HW1  339   1.436   2.357   0.999
  605SOL    HW2  340   1.539   2.468   1.058
  611SOL     OW  341   1.754   3.085   1.588
  611SOL    HW1  342   1.845   3.046   1.575
  611SOL    HW2  343   1.762   3.181   1.612
  612SOL     OW  344   1.064   3.209   1.340
  612SOL    HW1  345   0.984   3.186   1.395
  612SOL    HW2  346   1.147   3.183   1.389
  613SOL     OW  347   1.592   3.491   1.625
  613SOL    HW1  348   1.619   3.525   1.535
  613SOL    HW2  349   1.671   3.453   1.671
  615SOL     OW  350   1.638   2.961   1.079
  615SOL    HW1  351   1.643   3.042   1.138
  615SOL    HW2  352   1.552   2.963   1.028
  616SOL     OW  353   0.915   1.951   1.402
  616SOL    HW1  354   0.940   1.931   1.307
  616SOL    HW2  355   0.987   2.007   1.444
  617SOL     OW  356   0.980   2.978   1.719
  617SOL    HW1  357   0.881   2.984   1.729
  617SOL    HW2  358   1.003   2.898   1.663
  620SOL     OW  359   1.274   2.248   1.262
  620SOL    HW1  360   1.295   2.322   1.326
  620SOL    HW2  361   1.185   2.265   1.219
  629SOL     OW  362   1.587   2.641   1.670
  629SOL    HW1  363   1.495   2.679   1.665
  629SOL    HW2  364   1.647   2.688   1.605
  630SOL     OW  365   1.013   1.967   1.770
  630SOL    HW1  366   1.019   2.052   1.718
  630SOL    HW2  367   1.045   1.891   1.713
  633SOL     OW  368   1.360   2.724   1.045
  633SOL    HW1  369   1.285   2.724   0.979
  633SOL    HW2  370   1.397   2.632   1.054
  638SOL     OW  371   1.728   2.797   1.854
  638SOL    HW1  372   1.682   2.790   1.765
  638SOL    HW2  373   1.666   2.841   1.920
  643SOL     OW  374   1.859   3.380   1.605
  643SOL    HW1  375   1.873   3.407   1.510
  643SOL    HW2  376   1.942   3.402   1.658
  650SOL     OW  377   1.138   2.242   1.678
  650SOL    HW1  378   1.093   2.305   1.742
  650SOL    HW2  379   1.231   2.273   1.661
  651SOL     OW  380   1.160   2.069   1.477
  651SOL    HW1  381   1.160   2.133   1.554
  651SOL    HW2  382   1.188   2.117   1.394
  655SOL     OW  383   1.002   2.658   1.238
  655SOL    HW1  384   1.043   2.626   1.324
  655SOL    HW2  385   0.906   2.631   1.235
  658SOL     OW  386   1.369   2.812   1.660
  658SOL    HW1  387   1.408   2.901   1.680
  658SOL    HW2  388   1.379   2.792   1.563
  660SOL     OW  389   1.657   2.466   1.206
  660SOL    HW1  390   1.619   2.397   1.268
  660SOL    HW2  391   1.739   2.430   1.162
  666SOL     OW  392   1.347   2.921   1.234
  666SOL    HW1  393   1.371   2.858   1.160
  666SOL    HW2  394   1.257   2.961   1.216
  679SOL     OW  395   1.650   3.582   1.394
  679SOL    HW1  396   1.703   3.592   1.310
  679SOL    HW2  397   1.623   3.672   1.428
  680SOL     OW  398   1.841   2.037   0.963
  680SOL    HW1  399   1.880   1.952   0.927
  680SOL    HW2  400   1.743   2.039   0.944
  687SOL     OW  401   1.614   3.154   1.289
  687SOL    HW1  402   1.674   3.157   1.369
  687SOL    HW2  403   1.539   3.218   1.302
  691SOL     OW  404   1.709   2.247   1.381
  691SOL    HW1  405   1.782   2.316   1.385
  691SOL    HW2  406   1.737   2.172   1.322
  694SOL     OW  407   0.672   2.065   1.489
  694SOL    HW1  408   0.762   2.049   1.449
  694SOL    HW2  409   0.680   2.070   1.588
  696SOL     OW  410   1.440   2.718   1.398
  696SOL    HW1  411   1.383   2.770   1.335
  696SOL    HW2  412   1.536   2.730   1.374
  701SOL     OW  413   0.716   2.427   1.708
  701SOL    HW1  414   0.735   2.492   1.782
  701SOL    HW2  415   0.776   2.347   1.717
  702SOL     OW  416   1.450   3.082   1.633
  702SOL    HW1  417   1.441   3.072   1.732
  702SOL    HW2  418   1.546   3.075   1.607
  704SOL     OW  419   1.674   2.745   1.254
  704SOL    HW1  420   1.647   2.656   1.217
  704SOL    HW2  421   1.675   2.813   1.181
  707SOL     OW  422   1.777   2.204   1.642
  707SOL    HW1  423   1.760   2.235   1.548
  707SOL    HW2  424   1.693   2.167   1.680
  708SOL     OW  425   1.730   2.796   1.517
  708SOL    HW1  426   1.768   2.887   1.532
  708SOL    HW2  427   1.722   2.779   1.418
  717SOL     OW  428   1.824   2.054   1.227
  717SOL    HW1  429   1.820   1.964   1.271
  717SOL    HW2  430   1.827   2.043   1.128
  719SOL     OW  431   1.705   3.349   1.104
  719SOL    HW1  432   1.612   3.324   1.077
  719SOL    HW2  433   1.731   3.299   1.186
  722SOL     OW  434   1.424   2.076   1.112
  722SOL    HW1  435   1.476   2.011   1.167
  722SOL    HW2  436   1.375   2.139   1.173
  723SOL     OW  437   1.001   1.896   1.154
  723SOL    HW1  438   0.938   1.824   1.123
  723SOL    HW2  439   1.094   1.860   1.154
  728SOL     OW  440   1.593   2.083   0.882
  728SOL    HW1  441   1.509   2.082   0.936
  728SOL    HW2  442   1.595   2.166   0.826
  735SOL     OW  443   1.555   3.373   2.565
  735SOL    HW1  444   1.498   3.357   2.646
  735SOL    HW2  445   1.496   3.383   2.485
  736SOL     OW  446   1.135   2.565   2.579
  736SOL    HW1  447   1.192   2.643   2.554
  736SOL    HW2  448   1.075   2.591   2.655
  737SOL     OW  449   1.755   2.469   2.093
  737SOL    HW1  450   1.743   2.456   1.994
  737SOL    HW2  451   1.725   2.388   2.142
  738SOL     OW  452   0.768   3.006   2.885
  738SOL    HW1  453   0.690   3.023   2.945
  738SOL    HW2  454   0.802   3.093   2.849
  740SOL     OW  455   0.685   2.874   2.527
  740SOL    HW1  456   0.754   2.858   2.597
  740SOL    HW2  457   0.612   2.931   2.565
  743SOL     OW  458   1.460   3.367   3.201
  743SOL    HW1  459   1.484   3.461   3.227
  743SOL    HW2  460   1.444   3.313   3.283
  745SOL     OW  461   1.603   2.309   2.599
  745SOL    HW1  462   1.529   2.355   2.549
  745SOL    HW2  463   1.654   2.377   2.652
  751SOL     OW  464   0.606   2.826   1.985
  751SOL    HW1  465   0.613   2.910   1.931
  751SOL    HW2  466   0.652   2.839   2.073
  752SOL     OW  467   1.594   1.976   3.342
  752SOL    HW1  468   1.576   2.043   3.270
  752SOL    HW2  469   1.591   2.022   3.431
  754SOL     OW  470   1.842   3.629   2.221
  754SOL    HW1  471   1.896   3.600   2.301
  754SOL    HW2  472   1.872   3.719   2.192
  756SOL     OW  473   1.689   2.784   2.474
  756SOL    HW1  474   1.784   2.755   2.482
  756SOL    HW2  475   1.681   2.849   2.399
  757SOL     OW  476   1.641   2.970   2.294
  757SOL    HW1  477   1.727   2.972   2.242
  757SOL    HW2  478   1.655   3.017   2.382
  760SOL     OW  479   1.293   3.090   3.285
  760SOL    HW1  480   1.330   3.017   3.227
  760SOL    HW2  481   1.345   3.095   3.370
  761SOL     OW  482   0.809   1.866   2.364
  761SOL    HW1  483   0.849   1.957   2.355
  761SOL    HW2  484   0.709   1.874   2.370
  763SOL     OW  485   1.525   2.861   2.052
  763SOL    HW1  486   1.462   2.785   2.065
  763SOL    HW2  487   1.573   2.879   2.138
  766SOL     OW  488   1.466   3.279   2.815
  766SOL    HW1  489   1.407   3.285   2.895
  766SOL    HW2  490   1.451   3.191   2.769
  767SOL     OW  491   1.667   3.576   2.434
  767SOL    HW1  492   1.626   3.553   2.346
  767SOL    HW2  493   1.649   3.502   2.499
  768SOL     OW  494   0.598   2.591   2.132
  768SOL    HW1  495   0.622   2.660   2.064
  768SOL    HW2  496   0.520   2.624   2.186
  769SOL     OW  497   1.281   2.207   2.806
  769SOL    HW1  498   1.195   2.157   2.793
  769SOL    HW2  499   1.343   2.153   2.862
  770SOL     OW  500   1.576   3.524   2.169
  770SOL    HW1  501   1.665   3.570   2.172
  770SOL    HW2  502   1.555   3.500   2.074
  772SOL     OW  503   1.394   2.331   3.536
  772SOL    HW1  504   1.374   2.374   3.624
  772SOL    HW2  505   1.472   2.269   3.545
  774SOL     OW  506   0.991   2.272   3.104
  774SOL    HW1  507   0.914   2.306   3.158
  774SOL    HW2  508   0.957   2.221   3.025
  775SOL     OW  509   1.041   2.563   2.291
  775SOL    HW1  510   1.067   2.559   2.387
  775SOL    HW2  511   0.956   2.512   2.277
  778SOL     OW  512   0.865   2.210   2.057
  778SOL    HW1  513   0.924   2.273   2.008
  778SOL    HW2  514   0.884   2.116   2.028
  779SOL     OW  515   1.719   2.447   3.693
  779SOL    HW1  516   1.693   2.536   3.657
  779SOL    HW2  517   1.717   2.379   3.620
  780SOL     OW  518   1.362   3.006   2.407
  780SOL    HW1  519   1.445   2.977   2.359
  780SOL    HW2  520   1.313   3.073   2.351
  782SOL     OW  521   1.008   3.318   2.339
  782SOL    HW1  522   0.962   3.390   2.287
  782SOL    HW2  523   1.004   3.338   2.437
  784SOL     OW  524   1.795   2.928   2.735
  784SOL    HW1  525   1.733   2.913   2.659
  784SOL    HW2  526   1.743   2.939   2.820
  787SOL     OW  527   1.458   2.597   2.590
  787SOL    HW1  528   1.453   2.532   2.665
  787SOL    HW2  529   1.538   2.656   2.603
  791SOL     OW  530   1.632   3.239   1.943
  791SOL    HW1  531   1.600   3.333   1.933
  791SOL    HW2  532   1.556   3.176   1.931
  793SOL     OW  533   1.400   1.969   2.288
  793SOL    HW1  534   1.376   1.932   2.198
  793SOL    HW2  535   1.499   1.985   2.292
  797SOL     OW  536   1.547   2.084   3.591
  797SOL    HW1  537   1.542   2.121   3.683
  797SOL    HW2  538   1.475   2.015   3.579
  798SOL     OW  539   0.614   1.984   1.979
  798SOL    HW1  540   0.712   1.962   1.986
  798SOL    HW2  541   0.583   1.967   1.886
  801SOL     OW  542   1.351   2.452   3.295
  801SOL    HW1  543   1.379   2.409   3.380
  801SOL    HW2  544   1.376   2.548   3.296
  803SOL     OW  545   0.922   2.365   2.761
  803SOL    HW1  546   0.897   2.356   2.665
  803SOL    HW2  547   0.970   2.283   2.792
  804SOL     OW  548   0.539   1.926   2.374
  804SOL    HW1  549   0.458   1.927   2.432
  804SOL    HW2  550   0.542   2.009   2.319
  805SOL     OW  551   1.434   3.050   1.903
  805SOL    HW1  552   1.466   2.974   1.960
  805SOL    HW2  553   1.342   3.077   1.933
  807SOL     OW  554   0.935   2.098   2.342
  807SOL    HW1  555   0.887   2.139   2.264
  807SOL    HW2  556   1.034   2.096   2.323
  808SOL     OW  557   1.076   2.545   3.326
  808SOL    HW1  558   0.996   2.484   3.329
  808SOL    HW2  559   1.157   2.492   3.302
  809SOL     OW  560   1.227   3.432   2.655
  809SOL    HW1  561   1.248   3.506   2.590
  809SOL    HW2  562   1.295   3.432   2.728
  811SOL     OW  563   1.271   3.659   2.453
  811SOL    HW1  564   1.315   3.723   2.389
  811SOL    HW2  565   1.221   3.711   2.523
  812SOL     OW  566   1.032   2.411   1.878
  812SOL    HW1  567   0.991   2.493   1.839
  812SOL    HW2  568   1.096   2.437   1.951
  815SOL     OW  569   0.866   2.316   2.504
  815SOL    HW1  570   0.834   2.388   2.442
  815SOL    HW2  571   0.890   2.235   2.451
  816SOL     OW  572   1.017   1.901   2.615
  816SOL    HW1  573   0.945   1.906   2.546
  816SOL    HW2  574   0.993   1.832   2.684
  817SOL     OW  575   1.429   3.035   2.729
  817SOL    HW1  576   1.374   2.951   2.722
  817SOL    HW2  577   1.455   3.064   2.637
  818SOL     OW  578   1.466   2.452   2.854
  818SOL    HW1  579   1.436   2.357   2.861
  818SOL    HW2  580   1.539   2.468   2.920
  819SOL     OW  581   1.857   2.695   2.239
  819SOL    HW1  582   1.899   2.631   2.303
  819SOL    HW2  583   1.819   2.644   2.161
  821SOL     OW  584   1.664   3.142   2.519
  821SOL    HW1  585   1.763   3.150   2.533
  821SOL    HW2  586   1.619   3.226   2.550
  822SOL     OW  587   1.390   2.437   1.940
  822SOL    HW1  588   1.336   2.416   2.021
  822SOL    HW2  589   1.481   2.396   1.949
  823SOL     OW  590   0.527   2.118   2.190
  823SOL    HW1  591   0.554   2.059   2.115
  823SOL    HW2  592   0.527   2.213   2.159
  824SOL     OW  593   1.754   3.085   3.450
  824SOL    HW1  594   1.845   3.046   3.437
  824SOL    HW2  595   1.762   3.181   3.474
  825SOL     OW  596   1.064   3.209   3.202
  825SOL    HW1  597   0.984   3.186   3.257
  825SOL    HW2  598   1.147   3.183   3.251
  827SOL     OW  599   1.111   3.057   2.962
  827SOL    HW1  600   1.071   3.101   3.043
  827SOL    HW2  601   1.070   3.094   2.879
  828SOL     OW  602   1.638   2.961   2.941
  828SOL    HW1  603   1.643   3.042   3.000
  828SOL    HW2  604   1.552   2.963   2.890
  829SOL     OW  605   0.915   1.951   3.264
  829SOL    HW1  606   0.940   1.931   3.169
  829SOL    HW2  607   0.987   2.007   3.306
  831SOL     OW  608   0.705   2.912   2.230
  831SOL    HW1  609   0.691   2.919   2.329
  831SOL    HW2  610   0.789   2.861   2.212
  833SOL     OW  611   1.274   2.248   3.124
  833SOL    HW1  612   1.295   2.322   3.188
  833SOL    HW2  613   1.185   2.265   3.081
  836SOL     OW  614   0.566   2.399   2.727
  836SOL    HW1  615   0.578   2.465   2.653
  836SOL    HW2  616   0.612   2.433   2.810
  837SOL     OW  617   1.252   3.210   2.250
  837SOL    HW1  618   1.302   3.287   2.290
  837SOL    HW2  619   1.157   3.212   2.282
  838SOL     OW  620   1.272   3.307   3.004
  838SOL    HW1  621   1.319   3.320   3.091
  838SOL    HW2  622   1.206   3.233   3.013
  839SOL     OW  623   1.582   2.501   2.334
  839SOL    HW1  624   1.551   2.562   2.407
  839SOL    HW2  625   1.632   2.553   2.265
  842SOL     OW  626   1.587   2.641   3.532
  842SOL    HW1  627   1.495   2.679   3.527
  842SOL    HW2  628   1.647   2.688   3.467
  846SOL     OW  629   1.360   2.724   2.907
  846SOL    HW1  630   1.285   2.724   2.841
  846SOL    HW2  631   1.397   2.632   2.916
  847SOL     OW  632   1.209   2.387   2.137
  847SOL    HW1  633   1.222   2.303   2.191
  847SOL    HW2  634   1.180   2.461   2.197
  850SOL     OW  635   0.732   2.496   2.926
  850SOL    HW1  636   0.791   2.470   2.850
  850SOL    HW2  637   0.704   2.592   2.915
  851SOL     OW  638   1.728   2.797   3.716
  851SOL    HW1  639   1.682   2.790   3.627
  851SOL    HW2  640   1.666   2.841   3.782
  853SOL     OW  641   1.622   2.229   2.236
  853SOL    HW1  642   1.624   2.153   2.300
  853SOL    HW2  643   1.574   2.306   2.276
  854SOL     OW  644   1.023   2.628   2.828
  854SOL    HW1  645   1.038   2.649   2.924
  854SOL    HW2  646   0.993   2.533   2.819
  856SOL     OW  647   1.859   3.380   3.467
  856SOL    HW1  648   1.873   3.407   3.372
  856SOL    HW2  649   1.942   3.402   3.520
  858SOL     OW  650   1.540   2.136   1.987
  858SOL    HW1  651   1.479   2.061   2.010
  858SOL    HW2  652   1.562   2.188   2.070
  859SOL     OW  653   1.303   2.700   1.904
  859SOL    HW1  654   1.337   2.607   1.919
  859SOL    HW2  655   1.321   2.727   1.809
  860SOL     OW  656   1.068   3.195   2.711
  860SOL    HW1  657   1.075   3.111   2.656
  860SOL    HW2  658   1.130   3.264   2.675
  863SOL     OW  659   1.138   2.242   3.540
  863SOL    HW1  660   1.093   2.305   3.604
  863SOL    HW2  661   1.231   2.273   3.523
  864SOL     OW  662   1.160   2.069   3.339
  864SOL    HW1  663   1.160   2.133   3.416
  864SOL    HW2  664   1.188   2.117   3.256
  868SOL     OW  665   1.002   2.658   3.100
  868SOL    HW1  666   1.043   2.626   3.186
  868SOL    HW2  667   0.906   2.631   3.097
  871SOL     OW  668   1.369   2.812   3.522
  871SOL    HW1  669   1.408   2.901   3.542
  871SOL    HW2  670   1.379   2.792   3.425
  872SOL     OW  671   0.815   2.434   2.187
  872SOL    HW1  672   0.822   2.345   2.141
  872SOL    HW2  673   0.721   2.468   2.179
  873SOL     OW  674   1.657   2.466   3.068
  873SOL    HW1  675   1.619   2.397   3.130
  873SOL    HW2  676   1.739   2.430   3.024
  879SOL     OW  677   1.347   2.921   3.096
  879SOL    HW1  678   1.371   2.858   3.022
  879SOL    HW2  679   1.257   2.961   3.078
  880SOL     OW  680   1.302   2.717   2.171
  880SOL    HW1  681   1.216   2.686   2.213
  880SOL    HW2  682   1.298   2.703   2.072
  881SOL     OW  683   1.759   3.609   3.016
  881SOL    HW1  684   1.820   3.639   2.943
  881SOL    HW2  685   1.721   3.520   2.994
  885SOL     OW  686   1.726   1.997   2.385
  885SOL    HW1  687   1.799   1.980   2.318
  885SOL    HW2  688   1.695   1.910   2.423
  886SOL     OW  689   1.388   3.435   2.339
  886SOL    HW1  690   1.455   3.447   2.265
  886SOL    HW2  691   1.348   3.524   2.362
  888SOL     OW  692   1.280   2.789   2.534
  888SOL    HW1  693   1.340   2.708   2.536
  888SOL    HW2  694   1.320   2.858   2.474
  891SOL     OW  695   1.650   3.582   3.256
  891SOL    HW1  696   1.703   3.592   3.172
  891SOL    HW2  697   1.623   3.672   3.290
  892SOL     OW  698   1.841   2.037   2.825
  892SOL    HW1  699   1.880   1.952   2.789
  892SOL    HW2  700   1.743   2.039   2.806
  894SOL     OW  701   1.194   3.474   1.893
  894SOL    HW1  702   1.200   3.381   1.930
  894SOL    HW2  703   1.135   3.474   1.813
  896SOL     OW  704   0.916   2.772   2.153
  896SOL    HW1  705   0.979   2.810   2.085
  896SOL    HW2  706   0.956   2.689   2.192
  897SOL     OW  707   1.504   3.469   1.906
  897SOL    HW1  708   1.412   3.506   1.913
  897SOL    HW2  709   1.542   3.489   1.816
  899SOL     OW  710   1.614   3.154   3.151
  899SOL    HW1  711   1.674   3.157   3.231
  899SOL    HW2  712   1.539   3.218   3.164
  900SOL     OW  713   1.039   2.960   2.558
  900SOL    HW1  714   0.969   2.913   2.612
  900SOL    HW2  715   1.098   2.892   2.515
  901SOL     OW  716   1.014   2.098   2.833
  901SOL    HW1  717   1.006   2.062   2.740
  901SOL    HW2  718   1.012   2.022   2.898
  903SOL     OW  719   1.709   2.247   3.243
  903SOL    HW1  720   1.782   2.316   3.247
  903SOL    HW2  721   1.737   2.172   3.184
  908SOL     OW  722   1.440   2.718   3.260
  908SOL    HW1  723   1.383   2.770   3.197
  908SOL    HW2  724   1.536   2.730   3.236
  910SOL     OW  725   1.183   3.197   1.981
  910SOL    HW1  726   1.084   3.186   1.983
  910SOL    HW2  727   1.217   3.212   2.074
  912SOL     OW  728   1.493   3.629   2.821
  912SOL    HW1  729   1.526   3.693   2.752
  912SOL    HW2  730   1.559   3.623   2.896
  914SOL     OW  731   1.450   3.082   3.495
  914SOL    HW1  732   1.441   3.072   3.594
  914SOL    HW2  733   1.546   3.075   3.469
  916SOL     OW  734   1.674   2.745   3.116
  916SOL    HW1  735   1.647   2.656   3.079
  916SOL    HW2  736   1.675   2.813   3.043
  917SOL     OW  737   1.225   2.187   2.311
  917SOL    HW1  738   1.290   2.113   2.300
  917SOL    HW2  739   1.245   2.237   2.395
  918SOL     OW  740   0.594   2.607   2.514
  918SOL    HW1  741   0.644   2.692   2.495
  918SOL    HW2  742   0.506   2.609   2.466
  919SOL     OW  743   1.777   2.204   3.504
  919SOL    HW1  744   1.760   2.235   3.410
  919SOL    HW2  745   1.693   2.167   3.542
  920SOL     OW  746   1.730   2.796   3.379
  920SOL    HW1  747   1.768   2.887   3.394
  920SOL    HW2  748   1.722   2.779   3.280
  921SOL     OW  749   0.859   3.236   1.878
  921SOL    HW1  750   0.813   3.251   1.966
  921SOL    HW2  751   0.903   3.321   1.848
  923SOL     OW  752   0.859   2.818   2.723
  923SOL    HW1  753   0.913   2.749   2.771
  923SOL    HW2  754   0.827   2.887   2.789
  924SOL     OW  755   1.083   2.846   1.949
  924SOL    HW1  756   1.060   2.899   1.867
  924SOL    HW2  757   1.164   2.790   1.930
  925SOL     OW  758   1.861   3.431   2.713
  925SOL    HW1  759   1.790   3.419   2.643
  925SOL    HW2  760   1.862   3.352   2.773
  929SOL     OW  761   1.824   2.054   3.089
  929SOL    HW1  762   1.820   1.964   3.133
  929SOL    HW2  763   1.827   2.043   2.990
  931SOL     OW  764   1.705   3.349   2.966
  931SOL    HW1  765   1.612   3.324   2.939
  931SOL    HW2  766   1.731   3.299   3.048
  934SOL     OW  767   1.424   2.076   2.974
  934SOL    HW1  768   1.476   2.011   3.029
  934SOL    HW2  769   1.375   2.139   3.035
  935SOL     OW  770   1.001   1.896   3.016
  935SOL    HW1  771   0.938   1.824   2.985
  935SOL    HW2  772   1.094   1.860   3.016
  936SOL     OW  773   0.770   3.192   2.163
  936SOL    HW1  774   0.724   3.105   2.180
  936SOL    HW2  775   0.861   3.189   2.204
  938SOL     OW  776   1.352   1.914   2.030
  938SOL    HW1  777   1.387   1.873   1.946
  938SOL    HW2  778   1.262   1.876   2.050
  939SOL     OW  779   1.300   2.315   2.553
  939SOL    HW1  780   1.241   2.395   2.557
  939SOL    HW2  781   1.315   2.280   2.646
  940SOL     OW  782   1.593   2.083   2.744
  940SOL    HW1  783   1.509   2.082   2.798
  940SOL    HW2  784   1.595   2.166   2.688
  946SOL     OW  785   1.755   2.469   3.955
  946SOL    HW1  786   1.743   2.456   3.856
  946SOL    HW2  787   1.725   2.388   4.004
  991SOL     OW  788   1.390   2.437   3.802
  991SOL    HW1  789   1.336   2.416   3.883
  991SOL    HW2  790   1.481   2.396   3.811
 1000SOL     OW  791   1.540   2.136   3.849
 1000SOL    HW1  792   1.479   2.061   3.872
 1000SOL    HW2  793   1.562   2.188   3.932
 1154SOL     OW  794   1.400   3.831   2.288
 1154SOL    HW1  795   1.376   3.794   2.198
 1154SOL    HW2  796   1.499   3.847   2.292
 1200SOL     OW  797   1.726   3.859   2.385
 1200SOL    HW1  798   1.799   3.842   2.318
 1200SOL    HW2  799   1.695   3.772   2.423
 1202SOL     OW  800   1.841   3.899   2.825
 1202SOL    HW1  801   1.880   3.814   2.789
 1202SOL    HW2  802   1.743   3.901   2.806
 1221SOL     OW  803   1.352   3.776   2.030
 1221SOL    HW1  804   1.387   3.735   1.946
 1221SOL    HW2  805   1.262   3.738   2.050
 1272SOL     OW  806   2.431   1.275   1.165
 1272SOL    HW1  807   2.338   1.268   1.128
 1272SOL    HW2  808   2.442   1.364   1.209
 1276SOL     OW  809   2.630   1.144   1.023
 1276SOL    HW1  810   2.552   1.161   1.083
 1276SOL    HW2  811   2.664   1.231   0.987
 1277SOL     OW  812   2.712   0.798   1.823
 1277SOL    HW1  813   2.708   0.874   1.888
 1277SOL    HW2  814   2.734   0.834   1.732
 1279SOL     OW  815   2.548   1.161   1.803
 1279SOL    HW1  816   2.608   1.240   1.817
 1279SOL    HW2  817   2.462   1.192   1.762
 1280SOL     OW  818   2.197   1.435   1.061
 1280SOL    HW1  819   2.119   1.404   1.008
 1280SOL    HW2  820   2.255   1.493   1.004
 1281SOL     OW  821   3.322   1.505   1.339
 1281SOL    HW1  822   3.346   1.599   1.365
 1281SOL    HW2  823   3.306   1.451   1.421
 1285SOL     OW  824   2.989   1.341   1.690
 1285SOL    HW1  825   3.036   1.341   1.778
 1285SOL    HW2  826   2.941   1.254   1.679
 1288SOL     OW  827   2.482   1.786   1.439
 1288SOL    HW1  828   2.390   1.769   1.474
 1288SOL    HW2  829   2.510   1.878   1.465
 1296SOL     OW  830   1.975   0.737   1.597
 1296SOL    HW1  831   2.063   0.724   1.642
 1296SOL    HW2  832   1.962   0.834   1.575
 1298SOL     OW  833   3.155   1.228   1.423
 1298SOL    HW1  834   3.192   1.155   1.365
 1298SOL    HW2  835   3.207   1.233   1.508
 1300SOL     OW  836   2.059   0.976   1.264
 1300SOL    HW1  837   2.148   0.931   1.250
 1300SOL    HW2  838   1.986   0.911   1.245
 1302SOL     OW  839   3.049   1.792   1.616
 1302SOL    HW1  840   3.073   1.852   1.540
 1302SOL    HW2  841   3.056   1.697   1.586
 1311SOL     OW  842   2.835   0.890   1.572
 1311SOL    HW1  843   2.881   0.806   1.543
 1311SOL    HW2  844   2.779   0.924   1.497
 1315SOL     OW  845   1.992   1.821   1.571
 1315SOL    HW1  846   1.982   1.806   1.670
 1315SOL    HW2  847   1.906   1.857   1.535
 1321SOL     OW  848   2.213   1.801   0.853
 1321SOL    HW1  849   2.263   1.715   0.859
 1321SOL    HW2  850   2.278   1.878   0.850
 1323SOL     OW  851   3.089   1.550   1.506
 1323SOL    HW1  852   3.095   1.473   1.570
 1323SOL    HW2  853   3.037   1.524   1.426
 1326SOL     OW  854   2.323   1.266   1.727
 1326SOL    HW1  855   2.273   1.267   1.641
 1326SOL    HW2  856   2.260   1.248   1.803
 1332SOL     OW  857   2.111   1.785   1.241
 1332SOL    HW1  858   2.168   1.720   1.291
 1332SOL    HW2  859   2.095   1.752   1.148
 1333SOL     OW  860   2.802   1.698   0.904
 1333SOL    HW1  861   2.882   1.641   0.925
 1333SOL    HW2  862   2.753   1.658   0.827
 1338SOL     OW  863   2.750   1.514   1.195
 1338SOL    HW1  864   2.727   1.489   1.101
 1338SOL    HW2  865   2.811   1.445   1.234
 1340SOL     OW  866   2.665   1.402   0.924
 1340SOL    HW1  867   2.755   1.416   0.882
 1340SOL    HW2  868   2.594   1.404   0.853
 1363SOL     OW  869   2.926   1.347   1.340
 1363SOL    HW1  870   2.846   1.324   1.395
 1363SOL    HW2  871   3.009   1.321   1.389
 1364SOL     OW  872   3.454   1.629   1.625
 1364SOL    HW1  873   3.481   1.663   1.535
 1364SOL    HW2  874   3.533   1.591   1.671
 1365SOL     OW  875   2.973   1.195   1.100
 1365SOL    HW1  876   2.933   1.239   1.181
 1365SOL    HW2  877   2.932   1.232   1.017
 1368SOL     OW  878   2.842   1.116   1.719
 1368SOL    HW1  879   2.743   1.122   1.729
 1368SOL    HW2  880   2.865   1.036   1.663
 1370SOL     OW  881   2.272   0.813   1.251
 1370SOL    HW1  882   2.358   0.825   1.301
 1370SOL    HW2  883   2.230   0.726   1.278
 1372SOL     OW  884   1.926   1.564   1.331
 1372SOL    HW1  885   1.880   1.646   1.297
 1372SOL    HW2  886   2.024   1.583   1.340
 1376SOL     OW  887   3.134   1.445   1.142
 1376SOL    HW1  888   3.181   1.458   1.229
 1376SOL    HW2  889   3.068   1.371   1.151
 1378SOL     OW  890   2.216   1.510   1.329
 1378SOL    HW1  891   2.195   1.466   1.242
 1378SOL    HW2  892   2.313   1.536   1.332
 1379SOL     OW  893   2.264   0.751   1.598
 1379SOL    HW1  894   2.332   0.806   1.551
 1379SOL    HW2  895   2.304   0.663   1.625
 1387SOL     OW  896   1.899   1.310   1.282
 1387SOL    HW1  897   1.952   1.261   1.350
 1387SOL    HW2  898   1.921   1.408   1.287
 1393SOL     OW  899   2.842   1.573   1.700
 1393SOL    HW1  900   2.822   1.617   1.612
 1393SOL    HW2  901   2.881   1.482   1.684
 1394SOL     OW  902   3.721   1.518   1.605
 1394SOL    HW1  903   3.735   1.545   1.510
 1394SOL    HW2  904   3.804   1.540   1.658
 1395SOL     OW  905   2.212   0.898   1.804
 1395SOL    HW1  906   2.288   0.942   1.852
 1395SOL    HW2  907   2.247   0.851   1.722
 1404SOL     OW  908   1.950   1.801   0.927
 1404SOL    HW1  909   1.908   1.715   0.900
 1404SOL    HW2  910   2.044   1.804   0.893
 1405SOL     OW  911   2.366   1.568   0.910
 1405SOL    HW1  912   2.432   1.642   0.919
 1405SOL    HW2  913   2.410   1.489   0.868
 1409SOL     OW  914   3.231   0.950   1.660
 1409SOL    HW1  915   3.270   1.039   1.680
 1409SOL    HW2  916   3.241   0.930   1.563
 1412SOL     OW  917   2.114   1.564   1.744
 1412SOL    HW1  918   2.084   1.621   1.820
 1412SOL    HW2  919   2.107   1.467   1.770
 1414SOL     OW  920   2.792   1.678   1.465
 1414SOL    HW1  921   2.768   1.660   1.370
 1414SOL    HW2  922   2.822   1.772   1.475
 1416SOL     OW  923   2.021   1.137   1.466
 1416SOL    HW1  924   2.043   1.076   1.542
 1416SOL    HW2  925   2.031   1.088   1.380
 1420SOL     OW  926   3.114   1.731   1.128
 1420SOL    HW1  927   3.198   1.736   1.074
 1420SOL    HW2  928   3.091   1.635   1.146
 1421SOL     OW  929   1.945   1.258   1.022
 1421SOL    HW1  930   1.940   1.257   1.122
 1421SOL    HW2  931   1.862   1.217   0.984
 1422SOL     OW  932   2.550   1.662   1.716
 1422SOL    HW1  933   2.494   1.743   1.725
 1422SOL    HW2  934   2.602   1.666   1.630
 1426SOL     OW  935   1.992   1.794   1.851
 1426SOL    HW1  936   1.951   1.720   1.904
 1426SOL    HW2  937   2.056   1.845   1.909
 1428SOL     OW  938   2.692   1.273   1.422
 1428SOL    HW1  939   2.687   1.306   1.517
 1428SOL    HW2  940   2.606   1.292   1.376
 1430SOL     OW  941   3.512   1.720   1.394
 1430SOL    HW1  942   3.565   1.730   1.310
 1430SOL    HW2  943   3.485   1.810   1.428
 1434SOL     OW  944   2.684   1.002   1.372
 1434SOL    HW1  945   2.724   1.001   1.280
 1434SOL    HW2  946   2.694   1.094   1.412
 1437SOL     OW  947   2.234   1.288   1.490
 1437SOL    HW1  948   2.221   1.381   1.456
 1437SOL    HW2  949   2.150   1.236   1.477
 1444SOL     OW  950   1.967   1.013   1.726
 1444SOL    HW1  951   1.890   0.980   1.780
 1444SOL    HW2  952   2.052   0.983   1.768
 1450SOL     OW  953   2.475   0.842   1.431
 1450SOL    HW1  954   2.531   0.923   1.414
 1450SOL    HW2  955   2.534   0.762   1.434
 1451SOL     OW  956   3.355   1.767   0.959
 1451SOL    HW1  957   3.388   1.831   0.890
 1451SOL    HW2  958   3.421   1.761   1.034
 1453SOL     OW  959   3.312   1.220   1.633
 1453SOL    HW1  960   3.303   1.210   1.732
 1453SOL    HW2  961   3.408   1.213   1.607
 1454SOL     OW  962   2.252   1.741   1.560
 1454SOL    HW1  963   2.161   1.782   1.558
 1454SOL    HW2  964   2.245   1.647   1.592
 1461SOL     OW  965   2.523   1.790   0.953
 1461SOL    HW1  966   2.477   1.878   0.940
 1461SOL    HW2  967   2.622   1.802   0.946
 1465SOL     OW  968   2.083   1.314   1.844
 1465SOL    HW1  969   2.018   1.241   1.823
 1465SOL    HW2  970   2.087   1.328   1.942
 1467SOL     OW  971   2.534   1.391   1.624
 1467SOL    HW1  972   2.456   1.341   1.662
 1467SOL    HW2  973   2.531   1.486   1.655
 1472SOL     OW  974   2.674   1.586   0.687
 1472SOL    HW1  975   2.706   1.596   0.593
 1472SOL    HW2  976   2.595   1.524   0.689
 1476SOL     OW  977   2.480   1.567   1.284
 1476SOL    HW1  978   2.475   1.649   1.341
 1476SOL    HW2  979   2.569   1.564   1.239
 1482SOL     OW  980   2.092   0.628   1.975
 1482SOL    HW1  981   1.999   0.626   2.012
 1482SOL    HW2  982   2.093   0.589   1.883
 1485SOL     OW  983   2.431   1.275   3.027
 1485SOL    HW1  984   2.338   1.268   2.990
 1485SOL    HW2  985   2.442   1.364   3.071
 1486SOL     OW  986   3.417   1.511   2.565
 1486SOL    HW1  987   3.360   1.495   2.646
 1486SOL    HW2  988   3.358   1.521   2.485
 1487SOL     OW  989   2.997   0.703   2.579
 1487SOL    HW1  990   3.054   0.781   2.554
 1487SOL    HW2  991   2.937   0.729   2.655
 1489SOL     OW  992   2.630   1.144   2.885
 1489SOL    HW1  993   2.552   1.161   2.945
 1489SOL    HW2  994   2.664   1.231   2.849
 1491SOL     OW  995   2.547   1.012   2.527
 1491SOL    HW1  996   2.616   0.996   2.597
 1491SOL    HW2  997   2.474   1.069   2.565
 1493SOL     OW  998   2.197   1.435   2.923
 1493SOL    HW1  999   2.119   1.404   2.870
 1493SOL    HW2 1000   2.255   1.493   2.866
 1494SOL     OW 1001   3.322   1.505   3.201
 1494SOL    HW1 1002   3.346   1.599   3.227
 1494SOL    HW2 1003   3.306   1.451   3.283
 1497SOL     OW 1004   2.093   1.713   2.345
 1497SOL    HW1 1005   2.127   1.790   2.399
 1497SOL    HW2 1006   2.137   1.713   2.255
 1498SOL     OW 1007   2.989   1.341   3.552
 1498SOL    HW1 1008   3.036   1.341   3.640
 1498SOL    HW2 1009   2.941   1.254   3.541
 1499SOL     OW 1010   2.092   1.434   2.400
 1499SOL    HW1 1011   2.066   1.530   2.400
 1499SOL    HW2 1012   2.021   1.380   2.445
 1500SOL     OW 1013   2.102   1.091   2.748
 1500SOL    HW1 1014   2.116   1.007   2.800
 1500SOL    HW2 1015   2.047   1.155   2.803
 1501SOL     OW 1016   2.482   1.786   3.301
 1501SOL    HW1 1017   2.390   1.769   3.336
 1501SOL    HW2 1018   2.510   1.878   3.327
 1502SOL     OW 1019   2.468   0.964   1.985
 1502SOL    HW1 1020   2.475   1.048   1.931
 1502SOL    HW2 1021   2.514   0.977   2.073
 1504SOL     OW 1022   1.984   0.643   2.425
 1504SOL    HW1 1023   1.939   0.555   2.442
 1504SOL    HW2 1024   1.983   0.697   2.509
 1505SOL     OW 1025   3.704   1.767   2.221
 1505SOL    HW1 1026   3.758   1.738   2.301
 1505SOL    HW2 1027   3.734   1.857   2.192
 1506SOL     OW 1028   1.889   1.596   1.979
 1506SOL    HW1 1029   1.870   1.500   2.000
 1506SOL    HW2 1030   1.856   1.654   2.054
 1508SOL     OW 1031   3.503   1.108   2.294
 1508SOL    HW1 1032   3.589   1.110   2.242
 1508SOL    HW2 1033   3.517   1.155   2.382
 1510SOL     OW 1034   2.475   1.365   2.588
 1510SOL    HW1 1035   2.426   1.278   2.597
 1510SOL    HW2 1036   2.452   1.408   2.501
 1511SOL     OW 1037   3.155   1.228   3.285
 1511SOL    HW1 1038   3.192   1.155   3.227
 1511SOL    HW2 1039   3.207   1.233   3.370
 1513SOL     OW 1040   2.059   0.976   3.126
 1513SOL    HW1 1041   2.148   0.931   3.112
 1513SOL    HW2 1042   1.986   0.911   3.107
 1514SOL     OW 1043   3.387   0.999   2.052
 1514SOL    HW1 1044   3.324   0.923   2.065
 1514SOL    HW2 1045   3.435   1.017   2.138
 1515SOL     OW 1046   3.049   1.792   3.478
 1515SOL    HW1 1047   3.073   1.852   3.402
 1515SOL    HW2 1048   3.056   1.697   3.448
 1517SOL     OW 1049   3.328   1.417   2.815
 1517SOL    HW1 1050   3.269   1.423   2.895
 1517SOL    HW2 1051   3.313   1.329   2.769
 1518SOL     OW 1052   3.529   1.714   2.434
 1518SOL    HW1 1053   3.488   1.691   2.346
 1518SOL    HW2 1054   3.511   1.640   2.499
 1519SOL     OW 1055   2.460   0.729   2.132
 1519SOL    HW1 1056   2.484   0.798   2.064
 1519SOL    HW2 1057   2.382   0.762   2.186
 1521SOL     OW 1058   3.438   1.662   2.169
 1521SOL    HW1 1059   3.527   1.708   2.172
 1521SOL    HW2 1060   3.417   1.638   2.074
 1526SOL     OW 1061   2.903   0.701   2.291
 1526SOL    HW1 1062   2.929   0.697   2.387
 1526SOL    HW2 1063   2.818   0.650   2.277
 1527SOL     OW 1064   1.938   0.811   2.651
 1527SOL    HW1 1065   2.037   0.799   2.660
 1527SOL    HW2 1066   1.914   0.906   2.672
 1528SOL     OW 1067   1.992   1.821   3.433
 1528SOL    HW1 1068   1.982   1.806   3.532
 1528SOL    HW2 1069   1.906   1.857   3.397
 1531SOL     OW 1070   3.224   1.144   2.407
 1531SOL    HW1 1071   3.307   1.115   2.359
 1531SOL    HW2 1072   3.175   1.211   2.351
 1533SOL     OW 1073   2.870   1.456   2.339
 1533SOL    HW1 1074   2.824   1.528   2.287
 1533SOL    HW2 1075   2.866   1.476   2.437
 1534SOL     OW 1076   2.213   1.801   2.715
 1534SOL    HW1 1077   2.263   1.715   2.721
 1534SOL    HW2 1078   2.278   1.878   2.712
 1536SOL     OW 1079   3.089   1.550   3.368
 1536SOL    HW1 1080   3.095   1.473   3.432
 1536SOL    HW2 1081   3.037   1.524   3.288
 1537SOL     OW 1082   2.183   0.943   2.104
 1537SOL    HW1 1083   2.265   0.982   2.062
 1537SOL    HW2 1084   2.156   0.861   2.055
 1539SOL     OW 1085   2.323   1.266   3.589
 1539SOL    HW1 1086   2.273   1.267   3.503
 1539SOL    HW2 1087   2.260   1.248   3.665
 1540SOL     OW 1088   2.973   1.776   2.099
 1540SOL    HW1 1089   2.913   1.714   2.149
 1540SOL    HW2 1090   3.004   1.732   2.014
 1542SOL     OW 1091   3.494   1.377   1.943
 1542SOL    HW1 1092   3.462   1.471   1.933
 1542SOL    HW2 1093   3.418   1.314   1.931
 1543SOL     OW 1094   2.326   1.743   2.185
 1543SOL    HW1 1095   2.359   1.782   2.271
 1543SOL    HW2 1096   2.402   1.736   2.120
 1545SOL     OW 1097   2.111   1.785   3.103
 1545SOL    HW1 1098   2.168   1.720   3.153
 1545SOL    HW2 1099   2.095   1.752   3.010
 1546SOL     OW 1100   2.802   1.698   2.766
 1546SOL    HW1 1101   2.882   1.641   2.787
 1546SOL    HW2 1102   2.753   1.658   2.689
 1547SOL     OW 1103   2.244   0.700   2.342
 1547SOL    HW1 1104   2.289   0.610   2.339
 1547SOL    HW2 1105   2.150   0.689   2.375
 1551SOL     OW 1106   2.750   1.514   3.057
 1551SOL    HW1 1107   2.727   1.489   2.963
 1551SOL    HW2 1108   2.811   1.445   3.096
 1553SOL     OW 1109   2.665   1.402   2.786
 1553SOL    HW1 1110   2.755   1.416   2.744
 1553SOL    HW2 1111   2.594   1.404   2.715
 1556SOL     OW 1112   3.296   1.188   1.903
 1556SOL    HW1 1113   3.328   1.112   1.960
 1556SOL    HW2 1114   3.204   1.215   1.933
 1560SOL     OW 1115   3.089   1.570   2.655
 1560SOL    HW1 1116   3.110   1.644   2.590
 1560SOL    HW2 1117   3.157   1.570   2.728
 1561SOL     OW 1118   2.321   1.152   2.603
 1561SOL    HW1 1119   2.250   1.125   2.668
 1561SOL    HW2 1120   2.295   1.124   2.510
 1562SOL     OW 1121   3.133   1.797   2.453
 1562SOL    HW1 1122   3.177   1.861   2.389
 1562SOL    HW2 1123   3.083   1.849   2.523
 1568SOL     OW 1124   3.291   1.173   2.729
 1568SOL    HW1 1125   3.236   1.089   2.722
 1568SOL    HW2 1126   3.317   1.202   2.637
 1571SOL     OW 1127   2.350   1.385   2.036
 1571SOL    HW1 1128   2.263   1.370   2.083
 1571SOL    HW2 1129   2.333   1.411   1.941
 1572SOL     OW 1130   3.526   1.280   2.519
 1572SOL    HW1 1131   3.625   1.288   2.533
 1572SOL    HW2 1132   3.481   1.364   2.550
 1576SOL     OW 1133   2.926   1.347   3.202
 1576SOL    HW1 1134   2.846   1.324   3.257
 1576SOL    HW2 1135   3.009   1.321   3.251
 1578SOL     OW 1136   2.973   1.195   2.962
 1578SOL    HW1 1137   2.933   1.239   3.043
 1578SOL    HW2 1138   2.932   1.232   2.879
 1582SOL     OW 1139   2.567   1.050   2.230
 1582SOL    HW1 1140   2.553   1.057   2.329
 1582SOL    HW2 1141   2.651   0.999   2.212
 1583SOL     OW 1142   2.272   0.813   3.113
 1583SOL    HW1 1143   2.358   0.825   3.163
 1583SOL    HW2 1144   2.230   0.726   3.140
 1585SOL     OW 1145   1.926   1.564   3.193
 1585SOL    HW1 1146   1.880   1.646   3.159
 1585SOL    HW2 1147   2.024   1.583   3.202
 1586SOL     OW 1148   2.229   1.100   2.363
 1586SOL    HW1 1149   2.222   1.183   2.307
 1586SOL    HW2 1150   2.233   1.020   2.303
 1588SOL     OW 1151   3.114   1.348   2.250
 1588SOL    HW1 1152   3.164   1.425   2.290
 1588SOL    HW2 1153   3.019   1.350   2.282
 1589SOL     OW 1154   3.134   1.445   3.004
 1589SOL    HW1 1155   3.181   1.458   3.091
 1589SOL    HW2 1156   3.068   1.371   3.013
 1591SOL     OW 1157   2.216   1.510   3.191
 1591SOL    HW1 1158   2.195   1.466   3.104
 1591SOL    HW2 1159   2.313   1.536   3.194
 1596SOL     OW 1160   2.435   0.870   2.891
 1596SOL    HW1 1161   2.479   0.959   2.882
 1596SOL    HW2 1162   2.372   0.870   2.968
 1600SOL     OW 1163   1.899   1.310   3.144
 1600SOL    HW1 1164   1.952   1.261   3.212
 1600SOL    HW2 1165   1.921   1.408   3.149
 1601SOL     OW 1166   2.594   0.634   2.926
 1601SOL    HW1 1167   2.653   0.608   2.850
 1601SOL    HW2 1168   2.566   0.730   2.915
 1605SOL     OW 1169   2.885   0.766   2.828
 1605SOL    HW1 1170   2.900   0.787   2.924
 1605SOL    HW2 1171   2.855   0.671   2.819
 1606SOL     OW 1172   2.842   1.573   3.562
 1606SOL    HW1 1173   2.822   1.617   3.474
 1606SOL    HW2 1174   2.881   1.482   3.546
 1610SOL     OW 1175   3.165   0.838   1.904
 1610SOL    HW1 1176   3.199   0.745   1.919
 1610SOL    HW2 1177   3.183   0.865   1.809
 1611SOL     OW 1178   2.930   1.333   2.711
 1611SOL    HW1 1179   2.937   1.249   2.656
 1611SOL    HW2 1180   2.992   1.402   2.675
 1612SOL     OW 1181   2.181   0.810   2.811
 1612SOL    HW1 1182   2.274   0.846   2.816
 1612SOL    HW2 1183   2.175   0.725   2.863
 1616SOL     OW 1184   1.870   1.326   2.062
 1616SOL    HW1 1185   1.777   1.347   2.031
 1616SOL    HW2 1186   1.880   1.227   2.075
 1617SOL     OW 1187   1.950   1.801   2.789
 1617SOL    HW1 1188   1.908   1.715   2.762
 1617SOL    HW2 1189   2.044   1.804   2.755
 1618SOL     OW 1190   2.366   1.568   2.772
 1618SOL    HW1 1191   2.432   1.642   2.781
 1618SOL    HW2 1192   2.410   1.489   2.730
 1619SOL     OW 1193   2.864   0.796   3.100
 1619SOL    HW1 1194   2.905   0.764   3.186
 1619SOL    HW2 1195   2.768   0.769   3.097
 1623SOL     OW 1196   2.677   0.572   2.187
 1623SOL    HW1 1197   2.684   0.483   2.141
 1623SOL    HW2 1198   2.583   0.606   2.179
 1625SOL     OW 1199   2.114   1.564   3.606
 1625SOL    HW1 1200   2.084   1.621   3.682
 1625SOL    HW2 1201   2.107   1.467   3.632
 1627SOL     OW 1202   2.792   1.678   3.327
 1627SOL    HW1 1203   2.768   1.660   3.232
 1627SOL    HW2 1204   2.822   1.772   3.337
 1628SOL     OW 1205   2.335   0.500   2.053
 1628SOL    HW1 1206   2.396   0.580   2.057
 1628SOL    HW2 1207   2.240   0.531   2.060
 1629SOL     OW 1208   2.021   1.137   3.328
 1629SOL    HW1 1209   2.043   1.076   3.404
 1629SOL    HW2 1210   2.031   1.088   3.242
 1630SOL     OW 1211   3.209   1.059   3.096
 1630SOL    HW1 1212   3.233   0.996   3.022
 1630SOL    HW2 1213   3.119   1.099   3.078
 1631SOL     OW 1214   3.164   0.855   2.171
 1631SOL    HW1 1215   3.078   0.824   2.213
 1631SOL    HW2 1216   3.160   0.841   2.072
 1632SOL     OW 1217   3.621   1.747   3.016
 1632SOL    HW1 1218   3.682   1.777   2.943
 1632SOL    HW2 1219   3.583   1.658   2.994
 1633SOL     OW 1220   3.114   1.731   2.990
 1633SOL    HW1 1221   3.198   1.736   2.936
 1633SOL    HW2 1222   3.091   1.635   3.008
 1634SOL     OW 1223   1.945   1.258   2.884
 1634SOL    HW1 1224   1.940   1.257   2.984
 1634SOL    HW2 1225   1.862   1.217   2.846
 1635SOL     OW 1226   2.550   1.662   3.578
 1635SOL    HW1 1227   2.494   1.743   3.587
 1635SOL    HW2 1228   2.602   1.666   3.492
 1637SOL     OW 1229   3.250   1.573   2.339
 1637SOL    HW1 1230   3.317   1.585   2.265
 1637SOL    HW2 1231   3.210   1.662   2.362
 1638SOL     OW 1232   1.992   1.794   3.713
 1638SOL    HW1 1233   1.951   1.720   3.766
 1638SOL    HW2 1234   2.056   1.845   3.771
 1639SOL     OW 1235   3.142   0.927   2.534
 1639SOL    HW1 1236   3.202   0.846   2.536
 1639SOL    HW2 1237   3.182   0.996   2.474
 1640SOL     OW 1238   2.692   1.273   3.284
 1640SOL    HW1 1239   2.687   1.306   3.379
 1640SOL    HW2 1240   2.606   1.292   3.238
 1641SOL     OW 1241   2.534   1.616   2.016
 1641SOL    HW1 1242   2.543   1.626   1.917
 1641SOL    HW2 1243   2.494   1.527   2.037
 1642SOL     OW 1244   3.512   1.720   3.256
 1642SOL    HW1 1245   3.565   1.730   3.172
 1642SOL    HW2 1246   3.485   1.810   3.290
 1645SOL     OW 1247   3.056   1.612   1.893
 1645SOL    HW1 1248   3.062   1.519   1.930
 1645SOL    HW2 1249   2.997   1.612   1.813
 1646SOL     OW 1250   2.684   1.002   3.234
 1646SOL    HW1 1251   2.724   1.001   3.142
 1646SOL    HW2 1252   2.694   1.094   3.274
 1647SOL     OW 1253   2.778   0.910   2.153
 1647SOL    HW1 1254   2.841   0.948   2.085
 1647SOL    HW2 1255   2.818   0.827   2.192
 1648SOL     OW 1256   3.366   1.607   1.906
 1648SOL    HW1 1257   3.274   1.644   1.913
 1648SOL    HW2 1258   3.404   1.627   1.816
 1649SOL     OW 1259   2.234   1.288   3.352
 1649SOL    HW1 1260   2.221   1.381   3.318
 1649SOL    HW2 1261   2.150   1.236   3.339
 1650SOL     OW 1262   3.476   1.292   3.151
 1650SOL    HW1 1263   3.536   1.295   3.231
 1650SOL    HW2 1264   3.401   1.356   3.164
 1651SOL     OW 1265   2.901   1.098   2.558
 1651SOL    HW1 1266   2.831   1.051   2.612
 1651SOL    HW2 1267   2.960   1.030   2.515
 1653SOL     OW 1268   2.452   1.487   2.353
 1653SOL    HW1 1269   2.494   1.429   2.283
 1653SOL    HW2 1270   2.408   1.566   2.309
 1655SOL     OW 1271   2.117   1.348   2.152
 1655SOL    HW1 1272   2.021   1.349   2.125
 1655SOL    HW2 1273   2.129   1.401   2.236
 1661SOL     OW 1274   3.045   1.335   1.981
 1661SOL    HW1 1275   2.946   1.324   1.983
 1661SOL    HW2 1276   3.079   1.350   2.074
 1662SOL     OW 1277   2.475   0.842   3.293
 1662SOL    HW1 1278   2.531   0.923   3.276
 1662SOL    HW2 1279   2.534   0.762   3.296
 1663SOL     OW 1280   3.355   1.767   2.821
 1663SOL    HW1 1281   3.388   1.831   2.752
 1663SOL    HW2 1282   3.421   1.761   2.896
 1666SOL     OW 1283   2.252   1.741   3.422
 1666SOL    HW1 1284   2.161   1.782   3.420
 1666SOL    HW2 1285   2.245   1.647   3.454
 1669SOL     OW 1286   2.456   0.745   2.514
 1669SOL    HW1 1287   2.506   0.830   2.495
 1669SOL    HW2 1288   2.368   0.747   2.466
 1672SOL     OW 1289   2.721   1.374   1.878
 1672SOL    HW1 1290   2.675   1.389   1.966
 1672SOL    HW2 1291   2.765   1.459   1.848
 1673SOL     OW 1292   2.523   1.790   2.815
 1673SOL    HW1 1293   2.477   1.878   2.802
 1673SOL    HW2 1294   2.622   1.802   2.808
 1674SOL     OW 1295   2.721   0.956   2.723
 1674SOL    HW1 1296   2.775   0.887   2.771
 1674SOL    HW2 1297   2.689   1.025   2.789
 1675SOL     OW 1298   2.945   0.984   1.949
 1675SOL    HW1 1299   2.922   1.037   1.867
 1675SOL    HW2 1300   3.026   0.928   1.930
 1676SOL     OW 1301   3.723   1.569   2.713
 1676SOL    HW1 1302   3.652   1.557   2.643
 1676SOL    HW2 1303   3.724   1.490   2.773
 1677SOL     OW 1304   2.083   1.314   3.706
 1677SOL    HW1 1305   2.018   1.241   3.685
 1677SOL    HW2 1306   2.087   1.328   3.804
 1678SOL     OW 1307   1.941   1.240   2.515
 1678SOL    HW1 1308   1.940   1.193   2.603
 1678SOL    HW2 1309   2.023   1.212   2.464
 1679SOL     OW 1310   2.534   1.391   3.486
 1679SOL    HW1 1311   2.456   1.341   3.524
 1679SOL    HW2 1312   2.531   1.486   3.517
 1682SOL     OW 1313   3.567   1.487   2.966
 1682SOL    HW1 1314   3.474   1.462   2.939
 1682SOL    HW2 1315   3.593   1.437   3.048
 1684SOL     OW 1316   2.674   1.586   2.549
 1684SOL    HW1 1317   2.706   1.596   2.455
 1684SOL    HW2 1318   2.595   1.524   2.551
 1687SOL     OW 1319   2.632   1.330   2.163
 1687SOL    HW1 1320   2.586   1.243   2.180
 1687SOL    HW2 1321   2.723   1.327   2.204
 1688SOL     OW 1322   2.480   1.567   3.146
 1688SOL    HW1 1323   2.475   1.649   3.203
 1688SOL    HW2 1324   2.569   1.564   3.101
 1692SOL     OW 1325   1.901   1.077   2.162
 1692SOL    HW1 1326   2.000   1.066   2.153
 1692SOL    HW2 1327   1.861   0.991   2.194
 1693SOL     OW 1328   2.737   1.646   2.199
 1693SOL    HW1 1329   2.660   1.611   2.145
 1693SOL    HW2 1330   2.705   1.717   2.261
 1706SOL     OW 1331   1.889   1.596   3.841
 1706SOL    HW1 1332   1.870   1.500   3.862
 1706SOL    HW2 1333   1.856   1.654   3.916
 1759SOL     OW 1334   2.534   1.616   3.878
 1759SOL    HW1 1335   2.543   1.626   3.779
 1759SOL    HW2 1336   2.494   1.527   3.899
 1762SOL     OW 1337   3.056   1.612   3.755
 1762SOL    HW1 1338   3.062   1.519   3.792
 1762SOL    HW2 1339   2.997   1.612   3.675
 1772SOL     OW 1340   2.721   1.374   3.740
 1772SOL    HW1 1341   2.675   1.389   3.828
 1772SOL    HW2 1342   2.765   1.459   3.710
 1786SOL     OW 1343   2.087   2.137   0.996
 1786SOL    HW1 1344   2.122   2.120   1.088
 1786SOL    HW2 1345   1.999   2.092   0.984
 1787SOL     OW 1346   1.881   2.230   0.647
 1787SOL    HW1 1347   1.799   2.273   0.686
 1787SOL    HW2 1348   1.853   2.157   0.584
 1788SOL     OW 1349   2.431   3.137   1.165
 1788SOL    HW1 1350   2.338   3.130   1.128
 1788SOL    HW2 1351   2.442   3.226   1.209
 1790SOL     OW 1352   2.997   2.565   0.717
 1790SOL    HW1 1353   3.054   2.643   0.692
 1790SOL    HW2 1354   2.937   2.591   0.793
 1792SOL     OW 1355   2.630   3.006   1.023
 1792SOL    HW1 1356   2.552   3.023   1.083
 1792SOL    HW2 1357   2.664   3.093   0.987
 1793SOL     OW 1358   2.712   2.660   1.823
 1793SOL    HW1 1359   2.708   2.736   1.888
 1793SOL    HW2 1360   2.734   2.696   1.732
 1794SOL     OW 1361   2.547   2.874   0.665
 1794SOL    HW1 1362   2.616   2.858   0.735
 1794SOL    HW2 1363   2.474   2.931   0.703
 1795SOL     OW 1364   2.548   3.023   1.803
 1795SOL    HW1 1365   2.608   3.102   1.817
 1795SOL    HW2 1366   2.462   3.054   1.762
 1796SOL     OW 1367   2.197   3.297   1.061
 1796SOL    HW1 1368   2.119   3.266   1.008
 1796SOL    HW2 1369   2.255   3.355   1.004
 1797SOL     OW 1370   3.322   3.367   1.339
 1797SOL    HW1 1371   3.346   3.461   1.365
 1797SOL    HW2 1372   3.306   3.313   1.421
 1798SOL     OW 1373   2.300   2.254   1.499
 1798SOL    HW1 1374   2.382   2.198   1.508
 1798SOL    HW2 1375   2.219   2.196   1.503
 1801SOL     OW 1376   2.989   3.203   1.690
 1801SOL    HW1 1377   3.036   3.203   1.778
 1801SOL    HW2 1378   2.941   3.116   1.679
 1803SOL     OW 1379   2.102   2.953   0.886
 1803SOL    HW1 1380   2.116   2.869   0.938
 1803SOL    HW2 1381   2.047   3.017   0.941
 1804SOL     OW 1382   2.482   3.648   1.439
 1804SOL    HW1 1383   2.390   3.631   1.474
 1804SOL    HW2 1384   2.510   3.740   1.465
 1806SOL     OW 1385   3.456   1.976   1.480
 1806SOL    HW1 1386   3.438   2.043   1.408
 1806SOL    HW2 1387   3.453   2.022   1.569
 1807SOL     OW 1388   1.984   2.505   0.563
 1807SOL    HW1 1389   1.939   2.417   0.580
 1807SOL    HW2 1390   1.983   2.559   0.647
 1812SOL     OW 1391   1.975   2.599   1.597
 1812SOL    HW1 1392   2.063   2.586   1.642
 1812SOL    HW2 1393   1.962   2.696   1.575
 1814SOL     OW 1394   3.155   3.090   1.423
 1814SOL    HW1 1395   3.192   3.017   1.365
 1814SOL    HW2 1396   3.207   3.095   1.508
 1816SOL     OW 1397   2.059   2.838   1.264
 1816SOL    HW1 1398   2.148   2.793   1.250
 1816SOL    HW2 1399   1.986   2.773   1.245
 1818SOL     OW 1400   3.049   3.654   1.616
 1818SOL    HW1 1401   3.073   3.714   1.540
 1818SOL    HW2 1402   3.056   3.559   1.586
 1819SOL     OW 1403   2.179   2.113   1.801
 1819SOL    HW1 1404   2.250   2.184   1.807
 1819SOL    HW2 1405   2.091   2.152   1.829
 1823SOL     OW 1406   3.143   2.207   0.944
 1823SOL    HW1 1407   3.057   2.157   0.931
 1823SOL    HW2 1408   3.205   2.153   1.000
 1825SOL     OW 1409   2.669   2.467   1.465
 1825SOL    HW1 1410   2.622   2.464   1.554
 1825SOL    HW2 1411   2.618   2.412   1.399
 1826SOL     OW 1412   3.256   2.331   1.674
 1826SOL    HW1 1413   3.236   2.374   1.762
 1826SOL    HW2 1414   3.334   2.269   1.683
 1827SOL     OW 1415   2.835   2.752   1.572
 1827SOL    HW1 1416   2.881   2.668   1.543
 1827SOL    HW2 1417   2.779   2.786   1.497
 1828SOL     OW 1418   2.853   2.272   1.242
 1828SOL    HW1 1419   2.776   2.306   1.296
 1828SOL    HW2 1420   2.819   2.221   1.163
 1830SOL     OW 1421   1.938   2.673   0.789
 1830SOL    HW1 1422   2.037   2.661   0.798
 1830SOL    HW2 1423   1.914   2.768   0.810
 1831SOL     OW 1424   1.992   3.683   1.571
 1831SOL    HW1 1425   1.982   3.668   1.670
 1831SOL    HW2 1426   1.906   3.719   1.535
 1833SOL     OW 1427   3.581   2.447   1.831
 1833SOL    HW1 1428   3.555   2.536   1.795
 1833SOL    HW2 1429   3.579   2.379   1.758
 1835SOL     OW 1430   2.412   2.058   0.885
 1835SOL    HW1 1431   2.407   2.053   0.985
 1835SOL    HW2 1432   2.414   2.154   0.856
 1839SOL     OW 1433   3.089   3.412   1.506
 1839SOL    HW1 1434   3.095   3.335   1.570
 1839SOL    HW2 1435   3.037   3.386   1.426
 1842SOL     OW 1436   2.323   3.128   1.727
 1842SOL    HW1 1437   2.273   3.129   1.641
 1842SOL    HW2 1438   2.260   3.110   1.803
 1844SOL     OW 1439   2.064   2.147   1.498
 1844SOL    HW1 1440   1.984   2.207   1.485
 1844SOL    HW2 1441   2.054   2.098   1.584
 1848SOL     OW 1442   2.111   3.647   1.241
 1848SOL    HW1 1443   2.168   3.582   1.291
 1848SOL    HW2 1444   2.095   3.614   1.148
 1851SOL     OW 1445   3.409   2.084   1.729
 1851SOL    HW1 1446   3.404   2.121   1.821
 1851SOL    HW2 1447   3.337   2.015   1.717
 1852SOL     OW 1448   2.643   2.126   1.749
 1852SOL    HW1 1449   2.710   2.065   1.792
 1852SOL    HW2 1450   2.570   2.145   1.814
 1853SOL     OW 1451   2.750   3.376   1.195
 1853SOL    HW1 1452   2.727   3.351   1.101
 1853SOL    HW2 1453   2.811   3.307   1.234
 1854SOL     OW 1454   3.213   2.452   1.433
 1854SOL    HW1 1455   3.241   2.409   1.518
 1854SOL    HW2 1456   3.238   2.548   1.434
 1855SOL     OW 1457   2.665   3.264   0.924
 1855SOL    HW1 1458   2.755   3.278   0.882
 1855SOL    HW2 1459   2.594   3.266   0.853
 1856SOL     OW 1460   2.784   2.365   0.899
 1856SOL    HW1 1461   2.759   2.356   0.803
 1856SOL    HW2 1462   2.832   2.283   0.930
 1861SOL     OW 1463   2.938   2.545   1.464
 1861SOL    HW1 1464   2.858   2.484   1.467
 1861SOL    HW2 1465   3.019   2.492   1.440
 1863SOL     OW 1466   2.321   3.014   0.741
 1863SOL    HW1 1467   2.250   2.987   0.806
 1863SOL    HW2 1468   2.295   2.986   0.648
 1866SOL     OW 1469   1.940   2.418   1.386
 1866SOL    HW1 1470   2.032   2.417   1.345
 1866SOL    HW2 1471   1.934   2.492   1.453
 1867SOL     OW 1472   2.423   2.084   1.147
 1867SOL    HW1 1473   2.461   2.000   1.184
 1867SOL    HW2 1474   2.335   2.103   1.191
 1868SOL     OW 1475   2.728   2.316   0.642
 1868SOL    HW1 1476   2.696   2.388   0.580
 1868SOL    HW2 1477   2.752   2.235   0.589
 1869SOL     OW 1478   2.879   1.901   0.753
 1869SOL    HW1 1479   2.807   1.906   0.684
 1869SOL    HW2 1480   2.855   1.832   0.822
 1871SOL     OW 1481   3.328   2.452   0.992
 1871SOL    HW1 1482   3.298   2.357   0.999
 1871SOL    HW2 1483   3.401   2.468   1.058
 1877SOL     OW 1484   3.616   3.085   1.588
 1877SOL    HW1 1485   3.707   3.046   1.575
 1877SOL    HW2 1486   3.624   3.181   1.612
 1878SOL     OW 1487   2.926   3.209   1.340
 1878SOL    HW1 1488   2.846   3.186   1.395
 1878SOL    HW2 1489   3.009   3.183   1.389
 1880SOL     OW 1490   2.973   3.057   1.100
 1880SOL    HW1 1491   2.933   3.101   1.181
 1880SOL    HW2 1492   2.932   3.094   1.017
 1882SOL     OW 1493   2.777   1.951   1.402
 1882SOL    HW1 1494   2.802   1.931   1.307
 1882SOL    HW2 1495   2.849   2.007   1.444
 1883SOL     OW 1496   2.842   2.978   1.719
 1883SOL    HW1 1497   2.743   2.984   1.729
 1883SOL    HW2 1498   2.865   2.898   1.663
 1885SOL     OW 1499   2.272   2.675   1.251
 1885SOL    HW1 1500   2.358   2.687   1.301
 1885SOL    HW2 1501   2.230   2.588   1.278
 1886SOL     OW 1502   3.136   2.248   1.262
 1886SOL    HW1 1503   3.157   2.322   1.326
 1886SOL    HW2 1504   3.047   2.265   1.219
 1887SOL     OW 1505   1.926   3.426   1.331
 1887SOL    HW1 1506   1.880   3.508   1.297
 1887SOL    HW2 1507   2.024   3.445   1.340
 1889SOL     OW 1508   2.428   2.399   0.865
 1889SOL    HW1 1509   2.440   2.465   0.791
 1889SOL    HW2 1510   2.474   2.433   0.948
 1891SOL     OW 1511   3.134   3.307   1.142
 1891SOL    HW1 1512   3.181   3.320   1.229
 1891SOL    HW2 1513   3.068   3.233   1.151
 1893SOL     OW 1514   2.216   3.372   1.329
 1893SOL    HW1 1515   2.195   3.328   1.242
 1893SOL    HW2 1516   2.313   3.398   1.332
 1894SOL     OW 1517   2.264   2.613   1.598
 1894SOL    HW1 1518   2.332   2.668   1.551
 1894SOL    HW2 1519   2.304   2.525   1.625
 1895SOL     OW 1520   3.449   2.641   1.670
 1895SOL    HW1 1521   3.357   2.679   1.665
 1895SOL    HW2 1522   3.509   2.688   1.605
 1896SOL     OW 1523   2.875   1.967   1.770
 1896SOL    HW1 1524   2.881   2.052   1.718
 1896SOL    HW2 1525   2.907   1.891   1.713
 1897SOL     OW 1526   2.366   1.912   1.740
 1897SOL    HW1 1527   2.324   1.855   1.670
 1897SOL    HW2 1528   2.300   1.981   1.772
 1898SOL     OW 1529   2.435   2.732   1.029
 1898SOL    HW1 1530   2.479   2.821   1.020
 1898SOL    HW2 1531   2.372   2.732   1.106
 1899SOL     OW 1532   3.222   2.724   1.045
 1899SOL    HW1 1533   3.147   2.724   0.979
 1899SOL    HW2 1534   3.259   2.632   1.054
 1901SOL     OW 1535   2.169   2.075   1.231
 1901SOL    HW1 1536   2.146   2.112   1.321
 1901SOL    HW2 1537   2.139   1.980   1.225
 1902SOL     OW 1538   1.899   3.172   1.282
 1902SOL    HW1 1539   1.952   3.123   1.350
 1902SOL    HW2 1540   1.921   3.270   1.287
 1903SOL     OW 1541   2.594   2.496   1.064
 1903SOL    HW1 1542   2.653   2.470   0.988
 1903SOL    HW2 1543   2.566   2.592   1.053
 1904SOL     OW 1544   3.590   2.797   1.854
 1904SOL    HW1 1545   3.544   2.790   1.765
 1904SOL    HW2 1546   3.528   2.841   1.920
 1905SOL     OW 1547   2.169   1.925   0.618
 1905SOL    HW1 1548   2.158   2.019   0.651
 1905SOL    HW2 1549   2.164   1.862   0.695
 1907SOL     OW 1550   2.885   2.628   0.966
 1907SOL    HW1 1551   2.900   2.649   1.062
 1907SOL    HW2 1552   2.855   2.533   0.957
 1908SOL     OW 1553   2.842   3.435   1.700
 1908SOL    HW1 1554   2.822   3.479   1.612
 1908SOL    HW2 1555   2.881   3.344   1.684
 1910SOL     OW 1556   2.212   2.760   1.804
 1910SOL    HW1 1557   2.288   2.804   1.852
 1910SOL    HW2 1558   2.247   2.713   1.722
 1914SOL     OW 1559   2.181   2.672   0.949
 1914SOL    HW1 1560   2.274   2.708   0.954
 1914SOL    HW2 1561   2.175   2.587   1.001
 1915SOL     OW 1562   2.201   2.371   1.006
 1915SOL    HW1 1563   2.149   2.288   0.989
 1915SOL    HW2 1564   2.278   2.376   0.942
 1916SOL     OW 1565   3.000   2.242   1.678
 1916SOL    HW1 1566   2.955   2.305   1.742
 1916SOL    HW2 1567   3.093   2.273   1.661
 1917SOL     OW 1568   3.022   2.069   1.477
 1917SOL    HW1 1569   3.022   2.133   1.554
 1917SOL    HW2 1570   3.050   2.117   1.394
 1920SOL     OW 1571   2.366   3.430   0.910
 1920SOL    HW1 1572   2.432   3.504   0.919
 1920SOL    HW2 1573   2.410   3.351   0.868
 1921SOL     OW 1574   2.864   2.658   1.238
 1921SOL    HW1 1575   2.905   2.626   1.324
 1921SOL    HW2 1576   2.768   2.631   1.235
 1922SOL     OW 1577   1.902   2.406   1.114
 1922SOL    HW1 1578   1.987   2.373   1.073
 1922SOL    HW2 1579   1.915   2.421   1.212
 1923SOL     OW 1580   2.051   2.382   1.722
 1923SOL    HW1 1581   2.110   2.342   1.652
 1923SOL    HW2 1582   1.993   2.453   1.681
 1924SOL     OW 1583   3.231   2.812   1.660
 1924SOL    HW1 1584   3.270   2.901   1.680
 1924SOL    HW2 1585   3.241   2.792   1.563
 1926SOL     OW 1586   3.519   2.466   1.206
 1926SOL    HW1 1587   3.481   2.397   1.268
 1926SOL    HW2 1588   3.601   2.430   1.162
 1927SOL     OW 1589   2.114   3.426   1.744
 1927SOL    HW1 1590   2.084   3.483   1.820
 1927SOL    HW2 1591   2.107   3.329   1.770
 1928SOL     OW 1592   2.533   2.326   1.269
 1928SOL    HW1 1593   2.499   2.237   1.239
 1928SOL    HW2 1594   2.559   2.380   1.189
 1929SOL     OW 1595   2.792   3.540   1.465
 1929SOL    HW1 1596   2.768   3.522   1.370
 1929SOL    HW2 1597   2.822   3.634   1.475
 1931SOL     OW 1598   2.021   2.999   1.466
 1931SOL    HW1 1599   2.043   2.938   1.542
 1931SOL    HW2 1600   2.031   2.950   1.380
 1932SOL     OW 1601   3.209   2.921   1.234
 1932SOL    HW1 1602   3.233   2.858   1.160
 1932SOL    HW2 1603   3.119   2.961   1.216
 1936SOL     OW 1604   1.945   3.120   1.022
 1936SOL    HW1 1605   1.940   3.119   1.122
 1936SOL    HW2 1606   1.862   3.079   0.984
 1937SOL     OW 1607   2.550   3.524   1.716
 1937SOL    HW1 1608   2.494   3.605   1.725
 1937SOL    HW2 1609   2.602   3.528   1.630
 1941SOL     OW 1610   1.992   3.656   1.851
 1941SOL    HW1 1611   1.951   3.582   1.904
 1941SOL    HW2 1612   2.056   3.707   1.909
 1943SOL     OW 1613   2.692   3.135   1.422
 1943SOL    HW1 1614   2.687   3.168   1.517
 1943SOL    HW2 1615   2.606   3.154   1.376
 1947SOL     OW 1616   2.125   2.188   0.720
 1947SOL    HW1 1617   2.046   2.239   0.686
 1947SOL    HW2 1618   2.116   2.173   0.818
 1949SOL     OW 1619   2.684   2.864   1.372
 1949SOL    HW1 1620   2.724   2.863   1.280
 1949SOL    HW2 1621   2.694   2.956   1.412
 1952SOL     OW 1622   2.234   3.150   1.490
 1952SOL    HW1 1623   2.221   3.243   1.456
 1952SOL    HW2 1624   2.150   3.098   1.477
 1953SOL     OW 1625   3.476   3.154   1.289
 1953SOL    HW1 1626   3.536   3.157   1.369
 1953SOL    HW2 1627   3.401   3.218   1.302
 1955SOL     OW 1628   2.876   2.098   0.971
 1955SOL    HW1 1629   2.868   2.062   0.878
 1955SOL    HW2 1630   2.874   2.022   1.036
 1957SOL     OW 1631   3.571   2.247   1.381
 1957SOL    HW1 1632   3.644   2.316   1.385
 1957SOL    HW2 1633   3.599   2.172   1.322
 1959SOL     OW 1634   1.967   2.875   1.726
 1959SOL    HW1 1635   1.890   2.842   1.780
 1959SOL    HW2 1636   2.052   2.845   1.768
 1960SOL     OW 1637   2.534   2.065   1.489
 1960SOL    HW1 1638   2.624   2.049   1.449
 1960SOL    HW2 1639   2.542   2.070   1.588
 1962SOL     OW 1640   3.302   2.718   1.398
 1962SOL    HW1 1641   3.245   2.770   1.335
 1962SOL    HW2 1642   3.398   2.730   1.374
 1965SOL     OW 1643   2.475   2.704   1.431
 1965SOL    HW1 1644   2.531   2.785   1.414
 1965SOL    HW2 1645   2.534   2.624   1.434
 1967SOL     OW 1646   2.578   2.427   1.708
 1967SOL    HW1 1647   2.597   2.492   1.782
 1967SOL    HW2 1648   2.638   2.347   1.717
 1968SOL     OW 1649   3.312   3.082   1.633
 1968SOL    HW1 1650   3.303   3.072   1.732
 1968SOL    HW2 1651   3.408   3.075   1.607
 1969SOL     OW 1652   2.252   3.603   1.560
 1969SOL    HW1 1653   2.161   3.644   1.558
 1969SOL    HW2 1654   2.245   3.509   1.592
 1970SOL     OW 1655   3.536   2.745   1.254
 1970SOL    HW1 1656   3.509   2.656   1.217
 1970SOL    HW2 1657   3.537   2.813   1.181
 1972SOL     OW 1658   2.456   2.607   0.652
 1972SOL    HW1 1659   2.506   2.692   0.633
 1972SOL    HW2 1660   2.368   2.609   0.604
 1973SOL     OW 1661   3.639   2.204   1.642
 1973SOL    HW1 1662   3.622   2.235   1.548
 1973SOL    HW2 1663   3.555   2.167   1.680
 1974SOL     OW 1664   3.592   2.796   1.517
 1974SOL    HW1 1665   3.630   2.887   1.532
 1974SOL    HW2 1666   3.584   2.779   1.418
 1977SOL     OW 1667   2.721   2.818   0.861
 1977SOL    HW1 1668   2.775   2.749   0.909
 1977SOL    HW2 1669   2.689   2.887   0.927
 1980SOL     OW 1670   2.083   3.176   1.844
 1980SOL    HW1 1671   2.018   3.103   1.823
 1980SOL    HW2 1672   2.087   3.190   1.942
 1982SOL     OW 1673   2.534   3.253   1.624
 1982SOL    HW1 1674   2.456   3.203   1.662
 1982SOL    HW2 1675   2.531   3.348   1.655
 1983SOL     OW 1676   3.686   2.054   1.227
 1983SOL    HW1 1677   3.682   1.964   1.271
 1983SOL    HW2 1678   3.689   2.043   1.128
 1984SOL     OW 1679   2.290   2.286   0.520
 1984SOL    HW1 1680   2.320   2.214   0.458
 1984SOL    HW2 1681   2.251   2.246   0.603
 1986SOL     OW 1682   2.179   2.409   1.280
 1986SOL    HW1 1683   2.217   2.350   1.352
 1986SOL    HW2 1684   2.219   2.383   1.192
 1988SOL     OW 1685   3.286   2.076   1.112
 1988SOL    HW1 1686   3.338   2.011   1.167
 1988SOL    HW2 1687   3.237   2.139   1.173
 1989SOL     OW 1688   2.863   1.896   1.154
 1989SOL    HW1 1689   2.800   1.824   1.123
 1989SOL    HW2 1690   2.956   1.860   1.154
 1991SOL     OW 1691   2.480   3.429   1.284
 1991SOL    HW1 1692   2.475   3.511   1.341
 1991SOL    HW2 1693   2.569   3.426   1.239
 1997SOL     OW 1694   2.092   2.490   1.975
 1997SOL    HW1 1695   1.999   2.488   2.012
 1997SOL    HW2 1696   2.093   2.451   1.883
 1998SOL     OW 1697   2.087   2.137   2.858
 1998SOL    HW1 1698   2.122   2.120   2.950
 1998SOL    HW2 1699   1.999   2.092   2.846
 1999SOL     OW 1700   1.881   2.230   2.509
 1999SOL    HW1 1701   1.799   2.273   2.548
 1999SOL    HW2 1702   1.853   2.157   2.446
 2000SOL     OW 1703   2.431   3.137   3.027
 2000SOL    HW1 1704   2.338   3.130   2.990
 2000SOL    HW2 1705   2.442   3.226   3.071
 2001SOL     OW 1706   3.417   3.373   2.565
 2001SOL    HW1 1707   3.360   3.357   2.646
 2001SOL    HW2 1708   3.358   3.383   2.485
 2002SOL     OW 1709   2.997   2.565   2.579
 2002SOL    HW1 1710   3.054   2.643   2.554
 2002SOL    HW2 1711   2.937   2.591   2.655
 2003SOL     OW 1712   3.617   2.469   2.093
 2003SOL    HW1 1713   3.605   2.456   1.994
 2003SOL    HW2 1714   3.587   2.388   2.142
 2004SOL     OW 1715   2.630   3.006   2.885
 2004SOL    HW1 1716   2.552   3.023   2.945
 2004SOL    HW2 1717   2.664   3.093   2.849
 2005SOL     OW 1718   2.712   2.660   3.685
 2005SOL    HW1 1719   2.708   2.736   3.750
 2005SOL    HW2 1720   2.734   2.696   3.594
 2006SOL     OW 1721   2.547   2.874   2.527
 2006SOL    HW1 1722   2.616   2.858   2.597
 2006SOL    HW2 1723   2.474   2.931   2.565
 2007SOL     OW 1724   2.548   3.023   3.665
 2007SOL    HW1 1725   2.608   3.102   3.679
 2007SOL    HW2 1726   2.462   3.054   3.624
 2008SOL     OW 1727   2.197   3.297   2.923
 2008SOL    HW1 1728   2.119   3.266   2.870
 2008SOL    HW2 1729   2.255   3.355   2.866
 2009SOL     OW 1730   3.322   3.367   3.201
 2009SOL    HW1 1731   3.346   3.461   3.227
 2009SOL    HW2 1732   3.306   3.313   3.283
 2010SOL     OW 1733   2.300   2.254   3.361
 2010SOL    HW1 1734   2.382   2.198   3.370
 2010SOL    HW2 1735   2.219   2.196   3.365
 2011SOL     OW 1736   3.465   2.309   2.599
 2011SOL    HW1 1737   3.391   2.355   2.549
 2011SOL    HW2 1738   3.516   2.377   2.652
 2012SOL     OW 1739   2.093   3.575   2.345
 2012SOL    HW1 1740   2.127   3.652   2.399
 2012SOL    HW2 1741   2.137   3.575   2.255
 2013SOL     OW 1742   2.989   3.203   3.552
 2013SOL    HW1 1743   3.036   3.203   3.640
 2013SOL    HW2 1744   2.941   3.116   3.541
 2014SOL     OW 1745   2.092   3.296   2.400
 2014SOL    HW1 1746   2.066   3.392   2.400
 2014SOL    HW2 1747   2.021   3.242   2.445
 2015SOL     OW 1748   2.102   2.953   2.748
 2015SOL    HW1 1749   2.116   2.869   2.800
 2015SOL    HW2 1750   2.047   3.017   2.803
 2016SOL     OW 1751   2.482   3.648   3.301
 2016SOL    HW1 1752   2.390   3.631   3.336
 2016SOL    HW2 1753   2.510   3.740   3.327
 2017SOL     OW 1754   2.468   2.826   1.985
 2017SOL    HW1 1755   2.475   2.910   1.931
 2017SOL    HW2 1756   2.514   2.839   2.073
 2018SOL     OW 1757   3.456   1.976   3.342
 2018SOL    HW1 1758   3.438   2.043   3.270
 2018SOL    HW2 1759   3.453   2.022   3.431
 2019SOL     OW 1760   1.984   2.505   2.425
 2019SOL    HW1 1761   1.939   2.417   2.442
 2019SOL    HW2 1762   1.983   2.559   2.509
 2021SOL     OW 1763   1.889   3.458   1.979
 2021SOL    HW1 1764   1.870   3.362   2.000
 2021SOL    HW2 1765   1.856   3.516   2.054
 2022SOL     OW 1766   3.551   2.784   2.474
 2022SOL    HW1 1767   3.646   2.755   2.482
 2022SOL    HW2 1768   3.543   2.849   2.399
 2023SOL     OW 1769   3.503   2.970   2.294
 2023SOL    HW1 1770   3.589   2.972   2.242
 2023SOL    HW2 1771   3.517   3.017   2.382
 2024SOL     OW 1772   1.975   2.599   3.459
 2024SOL    HW1 1773   2.063   2.586   3.504
 2024SOL    HW2 1774   1.962   2.696   3.437
 2025SOL     OW 1775   2.475   3.227   2.588
 2025SOL    HW1 1776   2.426   3.140   2.597
 2025SOL    HW2 1777   2.452   3.270   2.501
 2026SOL     OW 1778   3.155   3.090   3.285
 2026SOL    HW1 1779   3.192   3.017   3.227
 2026SOL    HW2 1780   3.207   3.095   3.370
 2027SOL     OW 1781   2.671   1.866   2.364
 2027SOL    HW1 1782   2.711   1.957   2.355
 2027SOL    HW2 1783   2.571   1.874   2.370
 2028SOL     OW 1784   2.059   2.838   3.126
 2028SOL    HW1 1785   2.148   2.793   3.112
 2028SOL    HW2 1786   1.986   2.773   3.107
 2029SOL     OW 1787   3.387   2.861   2.052
 2029SOL    HW1 1788   3.324   2.785   2.065
 2029SOL    HW2 1789   3.435   2.879   2.138
 2031SOL     OW 1790   2.179   2.113   3.663
 2031SOL    HW1 1791   2.250   2.184   3.669
 2031SOL    HW2 1792   2.091   2.152   3.691
 2032SOL     OW 1793   3.328   3.279   2.815
 2032SOL    HW1 1794   3.269   3.285   2.895
 2032SOL    HW2 1795   3.313   3.191   2.769
 2034SOL     OW 1796   2.460   2.591   2.132
 2034SOL    HW1 1797   2.484   2.660   2.064
 2034SOL    HW2 1798   2.382   2.624   2.186
 2035SOL     OW 1799   3.143   2.207   2.806
 2035SOL    HW1 1800   3.057   2.157   2.793
 2035SOL    HW2 1801   3.205   2.153   2.862
 2036SOL     OW 1802   3.438   3.524   2.169
 2036SOL    HW1 1803   3.527   3.570   2.172
 2036SOL    HW2 1804   3.417   3.500   2.074
 2037SOL     OW 1805   2.669   2.467   3.327
 2037SOL    HW1 1806   2.622   2.464   3.416
 2037SOL    HW2 1807   2.618   2.412   3.261
 2038SOL     OW 1808   3.256   2.331   3.536
 2038SOL    HW1 1809   3.236   2.374   3.624
 2038SOL    HW2 1810   3.334   2.269   3.545
 2039SOL     OW 1811   2.835   2.752   3.434
 2039SOL    HW1 1812   2.881   2.668   3.405
 2039SOL    HW2 1813   2.779   2.786   3.359
 2040SOL     OW 1814   2.853   2.272   3.104
 2040SOL    HW1 1815   2.776   2.306   3.158
 2040SOL    HW2 1816   2.819   2.221   3.025
 2041SOL     OW 1817   2.903   2.563   2.291
 2041SOL    HW1 1818   2.929   2.559   2.387
 2041SOL    HW2 1819   2.818   2.512   2.277
 2042SOL     OW 1820   1.938   2.673   2.651
 2042SOL    HW1 1821   2.037   2.661   2.660
 2042SOL    HW2 1822   1.914   2.768   2.672
 2044SOL     OW 1823   2.727   2.210   2.057
 2044SOL    HW1 1824   2.786   2.273   2.008
 2044SOL    HW2 1825   2.746   2.116   2.028
 2046SOL     OW 1826   3.224   3.006   2.407
 2046SOL    HW1 1827   3.307   2.977   2.359
 2046SOL    HW2 1828   3.175   3.073   2.351
 2047SOL     OW 1829   2.412   2.058   2.747
 2047SOL    HW1 1830   2.407   2.053   2.847
 2047SOL    HW2 1831   2.414   2.154   2.718
 2048SOL     OW 1832   2.870   3.318   2.339
 2048SOL    HW1 1833   2.824   3.390   2.287
 2048SOL    HW2 1834   2.866   3.338   2.437
 2049SOL     OW 1835   2.213   3.663   2.715
 2049SOL    HW1 1836   2.263   3.577   2.721
 2049SOL    HW2 1837   2.278   3.740   2.712
 2050SOL     OW 1838   3.657   2.928   2.735
 2050SOL    HW1 1839   3.595   2.913   2.659
 2050SOL    HW2 1840   3.605   2.939   2.820
 2051SOL     OW 1841   3.089   3.412   3.368
 2051SOL    HW1 1842   3.095   3.335   3.432
 2051SOL    HW2 1843   3.037   3.386   3.288
 2052SOL     OW 1844   2.183   2.805   2.104
 2052SOL    HW1 1845   2.265   2.844   2.062
 2052SOL    HW2 1846   2.156   2.723   2.055
 2053SOL     OW 1847   3.320   2.597   2.590
 2053SOL    HW1 1848   3.315   2.532   2.665
 2053SOL    HW2 1849   3.400   2.656   2.603
 2054SOL     OW 1850   2.323   3.128   3.589
 2054SOL    HW1 1851   2.273   3.129   3.503
 2054SOL    HW2 1852   2.260   3.110   3.665
 2055SOL     OW 1853   2.973   3.638   2.099
 2055SOL    HW1 1854   2.913   3.576   2.149
 2055SOL    HW2 1855   3.004   3.594   2.014
 2056SOL     OW 1856   2.064   2.147   3.360
 2056SOL    HW1 1857   1.984   2.207   3.347
 2056SOL    HW2 1858   2.054   2.098   3.446
 2057SOL     OW 1859   3.494   3.239   1.943
 2057SOL    HW1 1860   3.462   3.333   1.933
 2057SOL    HW2 1861   3.418   3.176   1.931
 2058SOL     OW 1862   2.326   3.605   2.185
 2058SOL    HW1 1863   2.359   3.644   2.271
 2058SOL    HW2 1864   2.402   3.598   2.120
 2059SOL     OW 1865   3.262   1.969   2.288
 2059SOL    HW1 1866   3.238   1.932   2.198
 2059SOL    HW2 1867   3.361   1.985   2.292
 2060SOL     OW 1868   2.111   3.647   3.103
 2060SOL    HW1 1869   2.168   3.582   3.153
 2060SOL    HW2 1870   2.095   3.614   3.010
 2061SOL     OW 1871   2.802   3.560   2.766
 2061SOL    HW1 1872   2.882   3.503   2.787
 2061SOL    HW2 1873   2.753   3.520   2.689
 2062SOL     OW 1874   2.244   2.562   2.342
 2062SOL    HW1 1875   2.289   2.472   2.339
 2062SOL    HW2 1876   2.150   2.551   2.375
 2063SOL     OW 1877   3.409   2.084   3.591
 2063SOL    HW1 1878   3.404   2.121   3.683
 2063SOL    HW2 1879   3.337   2.015   3.579
 2064SOL     OW 1880   2.476   1.984   1.979
 2064SOL    HW1 1881   2.574   1.962   1.986
 2064SOL    HW2 1882   2.445   1.967   1.886
 2065SOL     OW 1883   2.643   2.126   3.611
 2065SOL    HW1 1884   2.710   2.065   3.654
 2065SOL    HW2 1885   2.570   2.145   3.676
 2066SOL     OW 1886   2.750   3.376   3.057
 2066SOL    HW1 1887   2.727   3.351   2.963
 2066SOL    HW2 1888   2.811   3.307   3.096
 2067SOL     OW 1889   3.213   2.452   3.295
 2067SOL    HW1 1890   3.241   2.409   3.380
 2067SOL    HW2 1891   3.238   2.548   3.296
 2068SOL     OW 1892   2.665   3.264   2.786
 2068SOL    HW1 1893   2.755   3.278   2.744
 2068SOL    HW2 1894   2.594   3.266   2.715
 2069SOL     OW 1895   2.784   2.365   2.761
 2069SOL    HW1 1896   2.759   2.356   2.665
 2069SOL    HW2 1897   2.832   2.283   2.792
 2070SOL     OW 1898   2.401   1.926   2.374
 2070SOL    HW1 1899   2.320   1.927   2.432
 2070SOL    HW2 1900   2.404   2.009   2.319
 2071SOL     OW 1901   3.296   3.050   1.903
 2071SOL    HW1 1902   3.328   2.974   1.960
 2071SOL    HW2 1903   3.204   3.077   1.933
 2072SOL     OW 1904   2.159   1.897   2.033
 2072SOL    HW1 1905   2.208   1.981   2.012
 2072SOL    HW2 1906   2.221   1.832   2.078
 2073SOL     OW 1907   2.797   2.098   2.342
 2073SOL    HW1 1908   2.749   2.139   2.264
 2073SOL    HW2 1909   2.896   2.096   2.323
 2074SOL     OW 1910   2.938   2.545   3.326
 2074SOL    HW1 1911   2.858   2.484   3.329
 2074SOL    HW2 1912   3.019   2.492   3.302
 2075SOL     OW 1913   3.089   3.432   2.655
 2075SOL    HW1 1914   3.110   3.506   2.590
 2075SOL    HW2 1915   3.157   3.432   2.728
 2076SOL     OW 1916   2.321   3.014   2.603
 2076SOL    HW1 1917   2.250   2.987   2.668
 2076SOL    HW2 1918   2.295   2.986   2.510
 2077SOL     OW 1919   3.133   3.659   2.453
 2077SOL    HW1 1920   3.177   3.723   2.389
 2077SOL    HW2 1921   3.083   3.711   2.523
 2078SOL     OW 1922   2.894   2.411   1.878
 2078SOL    HW1 1923   2.853   2.493   1.839
 2078SOL    HW2 1924   2.958   2.437   1.951
 2079SOL     OW 1925   1.940   2.418   3.248
 2079SOL    HW1 1926   2.032   2.417   3.207
 2079SOL    HW2 1927   1.934   2.492   3.315
 2080SOL     OW 1928   2.423   2.084   3.009
 2080SOL    HW1 1929   2.461   2.000   3.046
 2080SOL    HW2 1930   2.335   2.103   3.053
 2081SOL     OW 1931   2.728   2.316   2.504
 2081SOL    HW1 1932   2.696   2.388   2.442
 2081SOL    HW2 1933   2.752   2.235   2.451
 2082SOL     OW 1934   2.879   1.901   2.615
 2082SOL    HW1 1935   2.807   1.906   2.546
 2082SOL    HW2 1936   2.855   1.832   2.684
 2083SOL     OW 1937   3.291   3.035   2.729
 2083SOL    HW1 1938   3.236   2.951   2.722
 2083SOL    HW2 1939   3.317   3.064   2.637
 2084SOL     OW 1940   3.328   2.452   2.854
 2084SOL    HW1 1941   3.298   2.357   2.861
 2084SOL    HW2 1942   3.401   2.468   2.920
 2085SOL     OW 1943   3.719   2.695   2.239
 2085SOL    HW1 1944   3.761   2.631   2.303
 2085SOL    HW2 1945   3.681   2.644   2.161
 2086SOL     OW 1946   2.350   3.247   2.036
 2086SOL    HW1 1947   2.263   3.232   2.083
 2086SOL    HW2 1948   2.333   3.273   1.941
 2087SOL     OW 1949   3.526   3.142   2.519
 2087SOL    HW1 1950   3.625   3.150   2.533
 2087SOL    HW2 1951   3.481   3.226   2.550
 2088SOL     OW 1952   3.252   2.437   1.940
 2088SOL    HW1 1953   3.198   2.416   2.021
 2088SOL    HW2 1954   3.343   2.396   1.949
 2089SOL     OW 1955   2.389   2.118   2.190
 2089SOL    HW1 1956   2.416   2.059   2.115
 2089SOL    HW2 1957   2.389   2.213   2.159
 2091SOL     OW 1958   2.926   3.209   3.202
 2091SOL    HW1 1959   2.846   3.186   3.257
 2091SOL    HW2 1960   3.009   3.183   3.251
 2093SOL     OW 1961   2.973   3.057   2.962
 2093SOL    HW1 1962   2.933   3.101   3.043
 2093SOL    HW2 1963   2.932   3.094   2.879
 2094SOL     OW 1964   3.500   2.961   2.941
 2094SOL    HW1 1965   3.505   3.042   3.000
 2094SOL    HW2 1966   3.414   2.963   2.890
 2095SOL     OW 1967   2.777   1.951   3.264
 2095SOL    HW1 1968   2.802   1.931   3.169
 2095SOL    HW2 1969   2.849   2.007   3.306
 2096SOL     OW 1970   2.842   2.978   3.581
 2096SOL    HW1 1971   2.743   2.984   3.591
 2096SOL    HW2 1972   2.865   2.898   3.525
 2097SOL     OW 1973   2.567   2.912   2.230
 2097SOL    HW1 1974   2.553   2.919   2.329
 2097SOL    HW2 1975   2.651   2.861   2.212
 2098SOL     OW 1976   2.272   2.675   3.113
 2098SOL    HW1 1977   2.358   2.687   3.163
 2098SOL    HW2 1978   2.230   2.588   3.140
 2099SOL     OW 1979   3.136   2.248   3.124
 2099SOL    HW1 1980   3.157   2.322   3.188
 2099SOL    HW2 1981   3.047   2.265   3.081
 2100SOL     OW 1982   1.926   3.426   3.193
 2100SOL    HW1 1983   1.880   3.508   3.159
 2100SOL    HW2 1984   2.024   3.445   3.202
 2101SOL     OW 1985   2.229   2.962   2.363
 2101SOL    HW1 1986   2.222   3.045   2.307
 2101SOL    HW2 1987   2.233   2.882   2.303
 2102SOL     OW 1988   2.428   2.399   2.727
 2102SOL    HW1 1989   2.440   2.465   2.653
 2102SOL    HW2 1990   2.474   2.433   2.810
 2103SOL     OW 1991   3.114   3.210   2.250
 2103SOL    HW1 1992   3.164   3.287   2.290
 2103SOL    HW2 1993   3.019   3.212   2.282
 2104SOL     OW 1994   3.134   3.307   3.004
 2104SOL    HW1 1995   3.181   3.320   3.091
 2104SOL    HW2 1996   3.068   3.233   3.013
 2105SOL     OW 1997   3.444   2.501   2.334
 2105SOL    HW1 1998   3.413   2.562   2.407
 2105SOL    HW2 1999   3.494   2.553   2.265
 2106SOL     OW 2000   2.216   3.372   3.191
 2106SOL    HW1 2001   2.195   3.328   3.104
 2106SOL    HW2 2002   2.313   3.398   3.194
 2107SOL     OW 2003   2.264   2.613   3.460
 2107SOL    HW1 2004   2.332   2.668   3.413
 2107SOL    HW2 2005   2.304   2.525   3.487
 2108SOL     OW 2006   3.449   2.641   3.532
 2108SOL    HW1 2007   3.357   2.679   3.527
 2108SOL    HW2 2008   3.509   2.688   3.467
 2109SOL     OW 2009   2.875   1.967   3.632
 2109SOL    HW1 2010   2.881   2.052   3.580
 2109SOL    HW2 2011   2.907   1.891   3.575
 2110SOL     OW 2012   2.366   1.912   3.602
 2110SOL    HW1 2013   2.324   1.855   3.532
 2110SOL    HW2 2014   2.300   1.981   3.634
 2111SOL     OW 2015   2.435   2.732   2.891
 2111SOL    HW1 2016   2.479   2.821   2.882
 2111SOL    HW2 2017   2.372   2.732   2.968
 2112SOL     OW 2018   3.222   2.724   2.907
 2112SOL    HW1 2019   3.147   2.724   2.841
 2112SOL    HW2 2020   3.259   2.632   2.916
 2113SOL     OW 2021   3.071   2.387   2.137
 2113SOL    HW1 2022   3.084   2.303   2.191
 2113SOL    HW2 2023   3.042   2.461   2.197
 2114SOL     OW 2024   2.169   2.075   3.093
 2114SOL    HW1 2025   2.146   2.112   3.183
 2114SOL    HW2 2026   2.139   1.980   3.087
 2115SOL     OW 2027   1.899   3.172   3.144
 2115SOL    HW1 2028   1.952   3.123   3.212
 2115SOL    HW2 2029   1.921   3.270   3.149
 2116SOL     OW 2030   2.594   2.496   2.926
 2116SOL    HW1 2031   2.653   2.470   2.850
 2116SOL    HW2 2032   2.566   2.592   2.915
 2118SOL     OW 2033   2.169   1.925   2.480
 2118SOL    HW1 2034   2.158   2.019   2.513
 2118SOL    HW2 2035   2.164   1.862   2.557
 2119SOL     OW 2036   3.484   2.229   2.236
 2119SOL    HW1 2037   3.486   2.153   2.300
 2119SOL    HW2 2038   3.436   2.306   2.276
 2120SOL     OW 2039   2.885   2.628   2.828
 2120SOL    HW1 2040   2.900   2.649   2.924
 2120SOL    HW2 2041   2.855   2.533   2.819
 2123SOL     OW 2042   2.212   2.760   3.666
 2123SOL    HW1 2043   2.288   2.804   3.714
 2123SOL    HW2 2044   2.247   2.713   3.584
 2124SOL     OW 2045   3.402   2.136   1.987
 2124SOL    HW1 2046   3.341   2.061   2.010
 2124SOL    HW2 2047   3.424   2.188   2.070
 2125SOL     OW 2048   3.165   2.700   1.904
 2125SOL    HW1 2049   3.199   2.607   1.919
 2125SOL    HW2 2050   3.183   2.727   1.809
 2126SOL     OW 2051   2.930   3.195   2.711
 2126SOL    HW1 2052   2.937   3.111   2.656
 2126SOL    HW2 2053   2.992   3.264   2.675
 2127SOL     OW 2054   2.181   2.672   2.811
 2127SOL    HW1 2055   2.274   2.708   2.816
 2127SOL    HW2 2056   2.175   2.587   2.863
 2128SOL     OW 2057   2.201   2.371   2.868
 2128SOL    HW1 2058   2.149   2.288   2.851
 2128SOL    HW2 2059   2.278   2.376   2.804
 2129SOL     OW 2060   3.000   2.242   3.540
 2129SOL    HW1 2061   2.955   2.305   3.604
 2129SOL    HW2 2062   3.093   2.273   3.523
 2130SOL     OW 2063   3.022   2.069   3.339
 2130SOL    HW1 2064   3.022   2.133   3.416
 2130SOL    HW2 2065   3.050   2.117   3.256
 2131SOL     OW 2066   1.870   3.188   2.062
 2131SOL    HW1 2067   1.777   3.209   2.031
 2131SOL    HW2 2068   1.880   3.089   2.075
 2132SOL     OW 2069   1.950   3.663   2.789
 2132SOL    HW1 2070   1.908   3.577   2.762
 2132SOL    HW2 2071   2.044   3.666   2.755
 2133SOL     OW 2072   2.366   3.430   2.772
 2133SOL    HW1 2073   2.432   3.504   2.781
 2133SOL    HW2 2074   2.410   3.351   2.730
 2134SOL     OW 2075   2.864   2.658   3.100
 2134SOL    HW1 2076   2.905   2.626   3.186
 2134SOL    HW2 2077   2.768   2.631   3.097
 2135SOL     OW 2078   1.902   2.406   2.976
 2135SOL    HW1 2079   1.987   2.373   2.935
 2135SOL    HW2 2080   1.915   2.421   3.074
 2136SOL     OW 2081   2.051   2.382   3.584
 2136SOL    HW1 2082   2.110   2.342   3.514
 2136SOL    HW2 2083   1.993   2.453   3.543
 2137SOL     OW 2084   3.231   2.812   3.522
 2137SOL    HW1 2085   3.270   2.901   3.542
 2137SOL    HW2 2086   3.241   2.792   3.425
 2138SOL     OW 2087   2.677   2.434   2.187
 2138SOL    HW1 2088   2.684   2.345   2.141
 2138SOL    HW2 2089   2.583   2.468   2.179
 2139SOL     OW 2090   3.519   2.466   3.068
 2139SOL    HW1 2091   3.481   2.397   3.130
 2139SOL    HW2 2092   3.601   2.430   3.024
 2140SOL     OW 2093   2.114   3.426   3.606
 2140SOL    HW1 2094   2.084   3.483   3.682
 2140SOL    HW2 2095   2.107   3.329   3.632
 2141SOL     OW 2096   2.533   2.326   3.131
 2141SOL    HW1 2097   2.499   2.237   3.101
 2141SOL    HW2 2098   2.559   2.380   3.051
 2142SOL     OW 2099   2.792   3.540   3.327
 2142SOL    HW1 2100   2.768   3.522   3.232
 2142SOL    HW2 2101   2.822   3.634   3.337
 2143SOL     OW 2102   2.021   2.999   3.328
 2143SOL    HW1 2103   2.043   2.938   3.404
 2143SOL    HW2 2104   2.031   2.950   3.242
 2144SOL     OW 2105   3.209   2.921   3.096
 2144SOL    HW1 2106   3.233   2.858   3.022
 2144SOL    HW2 2107   3.119   2.961   3.078
 2145SOL     OW 2108   3.164   2.717   2.171
 2145SOL    HW1 2109   3.078   2.686   2.213
 2145SOL    HW2 2110   3.160   2.703   2.072
 2147SOL     OW 2111   3.114   3.593   2.990
 2147SOL    HW1 2112   3.198   3.598   2.936
 2147SOL    HW2 2113   3.091   3.497   3.008
 2148SOL     OW 2114   1.945   3.120   2.884
 2148SOL    HW1 2115   1.940   3.119   2.984
 2148SOL    HW2 2116   1.862   3.079   2.846
 2150SOL     OW 2117   3.588   1.997   2.385
 2150SOL    HW1 2118   3.661   1.980   2.318
 2150SOL    HW2 2119   3.557   1.910   2.423
 2151SOL     OW 2120   3.250   3.435   2.339
 2151SOL    HW1 2121   3.317   3.447   2.265
 2151SOL    HW2 2122   3.210   3.524   2.362
 2153SOL     OW 2123   3.142   2.789   2.534
 2153SOL    HW1 2124   3.202   2.708   2.536
 2153SOL    HW2 2125   3.182   2.858   2.474
 2154SOL     OW 2126   2.692   3.135   3.284
 2154SOL    HW1 2127   2.687   3.168   3.379
 2154SOL    HW2 2128   2.606   3.154   3.238
 2155SOL     OW 2129   2.534   3.478   2.016
 2155SOL    HW1 2130   2.543   3.488   1.917
 2155SOL    HW2 2131   2.494   3.389   2.037
 2157SOL     OW 2132   3.703   2.037   2.825
 2157SOL    HW1 2133   3.742   1.952   2.789
 2157SOL    HW2 2134   3.605   2.039   2.806
 2158SOL     OW 2135   2.125   2.188   2.582
 2158SOL    HW1 2136   2.046   2.239   2.548
 2158SOL    HW2 2137   2.116   2.173   2.680
 2159SOL     OW 2138   3.056   3.474   1.893
 2159SOL    HW1 2139   3.062   3.381   1.930
 2159SOL    HW2 2140   2.997   3.474   1.813
 2160SOL     OW 2141   2.684   2.864   3.234
 2160SOL    HW1 2142   2.724   2.863   3.142
 2160SOL    HW2 2143   2.694   2.956   3.274
 2161SOL     OW 2144   2.778   2.772   2.153
 2161SOL    HW1 2145   2.841   2.810   2.085
 2161SOL    HW2 2146   2.818   2.689   2.192
 2162SOL     OW 2147   3.366   3.469   1.906
 2162SOL    HW1 2148   3.274   3.506   1.913
 2162SOL    HW2 2149   3.404   3.489   1.816
 2163SOL     OW 2150   2.234   3.150   3.352
 2163SOL    HW1 2151   2.221   3.243   3.318
 2163SOL    HW2 2152   2.150   3.098   3.339
 2164SOL     OW 2153   3.476   3.154   3.151
 2164SOL    HW1 2154   3.536   3.157   3.231
 2164SOL    HW2 2155   3.401   3.218   3.164
 2165SOL     OW 2156   2.901   2.960   2.558
 2165SOL    HW1 2157   2.831   2.913   2.612
 2165SOL    HW2 2158   2.960   2.892   2.515
 2166SOL     OW 2159   2.876   2.098   2.833
 2166SOL    HW1 2160   2.868   2.062   2.740
 2166SOL    HW2 2161   2.874   2.022   2.898
 2167SOL     OW 2162   2.452   3.349   2.353
 2167SOL    HW1 2163   2.494   3.291   2.283
 2167SOL    HW2 2164   2.408   3.428   2.309
 2168SOL     OW 2165   3.571   2.247   3.243
 2168SOL    HW1 2166   3.644   2.316   3.247
 2168SOL    HW2 2167   3.599   2.172   3.184
 2169SOL     OW 2168   2.117   3.210   2.152
 2169SOL    HW1 2169   2.021   3.211   2.125
 2169SOL    HW2 2170   2.129   3.263   2.236
 2170SOL     OW 2171   1.967   2.875   3.588
 2170SOL    HW1 2172   1.890   2.842   3.642
 2170SOL    HW2 2173   2.052   2.845   3.630
 2171SOL     OW 2174   2.534   2.065   3.351
 2171SOL    HW1 2175   2.624   2.049   3.311
 2171SOL    HW2 2176   2.542   2.070   3.450
 2172SOL     OW 2177   1.937   2.207   1.895
 2172SOL    HW1 2178   1.845   2.179   1.866
 2172SOL    HW2 2179   1.968   2.284   1.839
 2173SOL     OW 2180   3.302   2.718   3.260
 2173SOL    HW1 2181   3.245   2.770   3.197
 2173SOL    HW2 2182   3.398   2.730   3.236
 2174SOL     OW 2183   1.934   2.028   2.180
 2174SOL    HW1 2184   1.917   2.111   2.126
 2174SOL    HW2 2185   2.024   1.991   2.158
 2175SOL     OW 2186   3.045   3.197   1.981
 2175SOL    HW1 2187   2.946   3.186   1.983
 2175SOL    HW2 2188   3.079   3.212   2.074
 2176SOL     OW 2189   2.475   2.704   3.293
 2176SOL    HW1 2190   2.531   2.785   3.276
 2176SOL    HW2 2191   2.534   2.624   3.296
 2178SOL     OW 2192   2.578   2.427   3.570
 2178SOL    HW1 2193   2.597   2.492   3.644
 2178SOL    HW2 2194   2.638   2.347   3.579
 2179SOL     OW 2195   3.312   3.082   3.495
 2179SOL    HW1 2196   3.303   3.072   3.594
 2179SOL    HW2 2197   3.408   3.075   3.469
 2180SOL     OW 2198   2.252   3.603   3.422
 2180SOL    HW1 2199   2.161   3.644   3.420
 2180SOL    HW2 2200   2.245   3.509   3.454
 2181SOL     OW 2201   3.536   2.745   3.116
 2181SOL    HW1 2202   3.509   2.656   3.079
 2181SOL    HW2 2203   3.537   2.813   3.043
 2182SOL     OW 2204   3.087   2.187   2.311
 2182SOL    HW1 2205   3.152   2.113   2.300
 2182SOL    HW2 2206   3.107   2.237   2.395
 2183SOL     OW 2207   2.456   2.607   2.514
 2183SOL    HW1 2208   2.506   2.692   2.495
 2183SOL    HW2 2209   2.368   2.609   2.466
 2185SOL     OW 2210   3.592   2.796   3.379
 2185SOL    HW1 2211   3.630   2.887   3.394
 2185SOL    HW2 2212   3.584   2.779   3.280
 2186SOL     OW 2213   2.721   3.236   1.878
 2186SOL    HW1 2214   2.675   3.251   1.966
 2186SOL    HW2 2215   2.765   3.321   1.848
 2187SOL     OW 2216   2.523   3.652   2.815
 2187SOL    HW1 2217   2.477   3.740   2.802
 2187SOL    HW2 2218   2.622   3.664   2.808
 2188SOL     OW 2219   2.721   2.818   2.723
 2188SOL    HW1 2220   2.775   2.749   2.771
 2188SOL    HW2 2221   2.689   2.887   2.789
 2189SOL     OW 2222   2.945   2.846   1.949
 2189SOL    HW1 2223   2.922   2.899   1.867
 2189SOL    HW2 2224   3.026   2.790   1.930
 2191SOL     OW 2225   2.083   3.176   3.706
 2191SOL    HW1 2226   2.018   3.103   3.685
 2191SOL    HW2 2227   2.087   3.190   3.804
 2192SOL     OW 2228   1.941   3.102   2.515
 2192SOL    HW1 2229   1.940   3.055   2.603
 2192SOL    HW2 2230   2.023   3.074   2.464
 2193SOL     OW 2231   2.534   3.253   3.486
 2193SOL    HW1 2232   2.456   3.203   3.524
 2193SOL    HW2 2233   2.531   3.348   3.517
 2194SOL     OW 2234   3.686   2.054   3.089
 2194SOL    HW1 2235   3.682   1.964   3.133
 2194SOL    HW2 2236   3.689   2.043   2.990
 2196SOL     OW 2237   2.179   2.409   3.142
 2196SOL    HW1 2238   2.217   2.350   3.214
 2196SOL    HW2 2239   2.219   2.383   3.054
 2197SOL     OW 2240   2.674   3.448   2.549
 2197SOL    HW1 2241   2.706   3.458   2.455
 2197SOL    HW2 2242   2.595   3.386   2.551
 2198SOL     OW 2243   3.286   2.076   2.974
 2198SOL    HW1 2244   3.338   2.011   3.029
 2198SOL    HW2 2245   3.237   2.139   3.035
 2199SOL     OW 2246   2.863   1.896   3.016
 2199SOL    HW1 2247   2.800   1.824   2.985
 2199SOL    HW2 2248   2.956   1.860   3.016
 2200SOL     OW 2249   2.632   3.192   2.163
 2200SOL    HW1 2250   2.586   3.105   2.180
 2200SOL    HW2 2251   2.723   3.189   2.204
 2201SOL     OW 2252   2.480   3.429   3.146
 2201SOL    HW1 2253   2.475   3.511   3.203
 2201SOL    HW2 2254   2.569   3.426   3.101
 2202SOL     OW 2255   3.214   1.914   2.030
 2202SOL    HW1 2256   3.249   1.873   1.946
 2202SOL    HW2 2257   3.124   1.876   2.050
 2203SOL     OW 2258   3.162   2.315   2.553
 2203SOL    HW1 2259   3.103   2.395   2.557
 2203SOL    HW2 2260   3.177   2.280   2.646
 2204SOL     OW 2261   3.455   2.083   2.744
 2204SOL    HW1 2262   3.371   2.082   2.798
 2204SOL    HW2 2263   3.457   2.166   2.688
 2205SOL     OW 2264   1.901   2.939   2.162
 2205SOL    HW1 2265   2.000   2.928   2.153
 2205SOL    HW2 2266   1.861   2.853   2.194
 2206SOL     OW 2267   2.737   3.508   2.199
 2206SOL    HW1 2268   2.660   3.473   2.145
 2206SOL    HW2 2269   2.705   3.579   2.261
 2207SOL     OW 2270   2.092   2.490   3.837
 2207SOL    HW1 2271   1.999   2.488   3.874
 2207SOL    HW2 2272   2.093   2.451   3.745
 2216SOL     OW 2273   2.468   2.826   3.847
 2216SOL    HW1 2274   2.475   2.910   3.793
 2216SOL    HW2 2275   2.514   2.839   3.935
 2226SOL     OW 2276   2.460   2.591   3.994
 2226SOL    HW1 2277   2.484   2.660   3.926
 2226SOL    HW2 2278   2.382   2.624   4.048
 2231SOL     OW 2279   2.727   2.210   3.919
 2231SOL    HW1 2280   2.786   2.273   3.870
 2231SOL    HW2 2281   2.746   2.116   3.890
 2236SOL     OW 2282   2.183   2.805   3.966
 2236SOL    HW1 2283   2.265   2.844   3.924
 2236SOL    HW2 2284   2.156   2.723   3.917
 2243SOL     OW 2285   2.476   1.984   3.841
 2243SOL    HW1 2286   2.574   1.962   3.848
 2243SOL    HW2 2287   2.445   1.967   3.748
 2246SOL     OW 2288   2.159   1.897   3.895
 2246SOL    HW1 2289   2.208   1.981   3.874
 2246SOL    HW2 2290   2.221   1.832   3.940
 2250SOL     OW 2291   2.894   2.411   3.740
 2250SOL    HW1 2292   2.853   2.493   3.701
 2250SOL    HW2 2293   2.958   2.437   3.813
 2256SOL     OW 2294   2.389   2.118   4.052
 2256SOL    HW1 2295   2.416   2.059   3.977
 2256SOL    HW2 2296   2.389   2.213   4.021
 2265SOL     OW 2297   3.165   2.700   3.766
 2265SOL    HW1 2298   3.199   2.607   3.781
 2265SOL    HW2 2299   3.183   2.727   3.671
 2268SOL     OW 2300   2.335   2.362   3.915
 2268SOL    HW1 2301   2.396   2.442   3.919
 2268SOL    HW2 2302   2.240   2.393   3.922
 2280SOL     OW 2303   1.937   2.207   3.757
 2280SOL    HW1 2304   1.845   2.179   3.728
 2280SOL    HW2 2305   1.968   2.284   3.701
 2288SOL     OW 2306   2.945   2.846   3.811
 2288SOL    HW1 2307   2.922   2.899   3.729
 2288SOL    HW2 2308   3.026   2.790   3.792
 2310SOL     OW 2309   2.179   3.975   1.801
 2310SOL    HW1 2310   2.250   4.046   1.807
 2310SOL    HW2 2311   2.091   4.014   1.829
 2347SOL     OW 2312   2.875   3.829   1.770
 2347SOL    HW1 2313   2.881   3.914   1.718
 2347SOL    HW2 2314   2.907   3.753   1.713
 2348SOL     OW 2315   2.366   3.774   1.740
 2348SOL    HW1 2316   2.324   3.717   1.670
 2348SOL    HW2 2317   2.300   3.843   1.772
 2402SOL     OW 2318   2.671   3.728   2.364
 2402SOL    HW1 2319   2.711   3.819   2.355
 2402SOL    HW2 2320   2.571   3.736   2.370
 2412SOL     OW 2321   2.412   3.920   2.747
 2412SOL    HW1 2322   2.407   3.915   2.847
 2412SOL    HW2 2323   2.414   4.016   2.718
 2418SOL     OW 2324   2.476   3.846   1.979
 2418SOL    HW1 2325   2.574   3.824   1.986
 2418SOL    HW2 2326   2.445   3.829   1.886
 2422SOL     OW 2327   2.401   3.788   2.374
 2422SOL    HW1 2328   2.320   3.789   2.432
 2422SOL    HW2 2329   2.404   3.871   2.319
 2423SOL     OW 2330   2.159   3.759   2.033
 2423SOL    HW1 2331   2.208   3.843   2.012
 2423SOL    HW2 2332   2.221   3.694   2.078
 2424SOL     OW 2333   2.797   3.960   2.342
 2424SOL    HW1 2334   2.749   4.001   2.264
 2424SOL    HW2 2335   2.896   3.958   2.323
 2430SOL     OW 2336   2.879   3.763   2.615
 2430SOL    HW1 2337   2.807   3.768   2.546
 2430SOL    HW2 2338   2.855   3.694   2.684
 2433SOL     OW 2339   2.389   3.980   2.190
 2433SOL    HW1 2340   2.416   3.921   2.115
 2433SOL    HW2 2341   2.389   4.075   2.159
 2448SOL     OW 2342   2.169   3.787   2.480
 2448SOL    HW1 2343   2.158   3.881   2.513
 2448SOL    HW2 2344   2.164   3.724   2.557
 2471SOL     OW 2345   1.934   3.890   2.180
 2471SOL    HW1 2346   1.917   3.973   2.126
 2471SOL    HW2 2347   2.024   3.853   2.158
 2481SOL     OW 2348   2.863   3.758   3.016
 2481SOL    HW1 2349   2.800   3.686   2.985
 2481SOL    HW2 2350   2.956   3.722   3.016
 2482SOL     OW 2351   3.214   3.776   2.030
 2482SOL    HW1 2352   3.249   3.735   1.946
 2482SOL    HW2 2353   3.124   3.738   2.050
 2551SOL     OW 2354   3.854   1.821   1.571
 2551SOL    HW1 2355   3.844   1.806   1.670
 2551SOL    HW2 2356   3.768   1.857   1.535
 2597SOL     OW 2357   3.854   1.794   1.851
 2597SOL    HW1 2358   3.813   1.720   1.904
 2597SOL    HW2 2359   3.918   1.845   1.909
 2630SOL     OW 2360   3.955   1.713   2.345
 2630SOL    HW1 2361   3.989   1.790   2.399
 2630SOL    HW2 2362   3.999   1.713   2.255
 2636SOL     OW 2363   3.751   1.596   1.979
 2636SOL    HW1 2364   3.732   1.500   2.000
 2636SOL    HW2 2365   3.718   1.654   2.054
 2679SOL     OW 2366   3.732   1.326   2.062
 2679SOL    HW1 2367   3.639   1.347   2.031
 2679SOL    HW2 2368   3.742   1.227   2.075
 2680SOL     OW 2369   3.812   1.801   2.789
 2680SOL    HW1 2370   3.770   1.715   2.762
 2680SOL    HW2 2371   3.906   1.804   2.755
 2774SOL     OW 2372   3.837   2.599   1.597
 2774SOL    HW1 2373   3.925   2.586   1.642
 2774SOL    HW2 2374   3.824   2.696   1.575
 2795SOL     OW 2375   3.802   2.418   1.386
 2795SOL    HW1 2376   3.894   2.417   1.345
 2795SOL    HW2 2377   3.796   2.492   1.453
 2819SOL     OW 2378   3.913   2.382   1.722
 2819SOL    HW1 2379   3.972   2.342   1.652
 2819SOL    HW2 2380   3.855   2.453   1.681
 2833SOL     OW 2381   3.829   2.875   1.726
 2833SOL    HW1 2382   3.752   2.842   1.780
 2833SOL    HW2 2383   3.914   2.845   1.768
 2850SOL     OW 2384   3.954   2.490   1.975
 2850SOL    HW1 2385   3.861   2.488   2.012
 2850SOL    HW2 2386   3.955   2.451   1.883
 2851SOL     OW 2387   3.949   2.137   2.858
 2851SOL    HW1 2388   3.984   2.120   2.950
 2851SOL    HW2 2389   3.861   2.092   2.846
 2852SOL     OW 2390   3.743   2.230   2.509
 2852SOL    HW1 2391   3.661   2.273   2.548
 2852SOL    HW2 2392   3.715   2.157   2.446
 2864SOL     OW 2393   3.846   2.505   2.425
 2864SOL    HW1 2394   3.801   2.417   2.442
 2864SOL    HW2 2395   3.845   2.559   2.509
 2872SOL     OW 2396   3.800   2.673   2.651
 2872SOL    HW1 2397   3.899   2.661   2.660
 2872SOL    HW2 2398   3.776   2.768   2.672
 2908SOL     OW 2399   3.732   3.188   2.062
 2908SOL    HW1 2400   3.639   3.209   2.031
 2908SOL    HW2 2401   3.742   3.089   2.075
 2911SOL     OW 2402   3.764   2.406   2.976
 2911SOL    HW1 2403   3.849   2.373   2.935
 2911SOL    HW2 2404   3.777   2.421   3.074
 2922SOL     OW 2405   3.987   2.188   2.582
 2922SOL    HW1 2406   3.908   2.239   2.548
 2922SOL    HW2 2407   3.978   2.173   2.680
 2929SOL     OW 2408   3.799   2.207   1.895
 2929SOL    HW1 2409   3.707   2.179   1.866
 2929SOL    HW2 2410   3.830   2.284   1.839
 2930SOL     OW 2411   3.796   2.028   2.180
 2930SOL    HW1 2412   3.779   2.111   2.126
 2930SOL    HW2 2413   3.886   1.991   2.158
 2937SOL     OW 2414   3.803   3.102   2.515
 2937SOL    HW1 2415   3.802   3.055   2.603
 2937SOL    HW2 2416   3.885   3.074   2.464
 2943SOL     OW 2417   3.763   2.939   2.162
 2943SOL    HW1 2418   3.862   2.928   2.153
 2943SOL    HW2 2419   3.723   2.853   2.194
   4.55205   4.55205   4.55205
