mobley_1278715_GMX.gro created by acpype (v: 2023.10.27) on Tue May 19 12:30:18 2026
 2384
    1MOL     C1    1   2.201   2.258   2.287
    1MOL     C2    2   2.242   2.185   2.156
    1MOL    CL1    3   2.105   2.150   2.396
    1MOL    CL2    4   2.345   2.313   2.381
    1MOL    CL3    5   2.100   2.404   2.254
    1MOL    CL4    6   2.098   2.130   2.062
    1MOL    CL5    7   2.343   2.039   2.189
    1MOL    CL6    8   2.338   2.292   2.047
   14SOL     OW    9   1.460   1.505   1.339
   14SOL    HW1   10   1.484   1.599   1.365
   14SOL    HW2   11   1.444   1.451   1.421
   18SOL     OW   12   1.127   1.341   1.690
   18SOL    HW1   13   1.174   1.341   1.778
   18SOL    HW2   14   1.079   1.254   1.679
   31SOL     OW   15   1.293   1.228   1.423
   31SOL    HW1   16   1.330   1.155   1.365
   31SOL    HW2   17   1.345   1.233   1.508
   35SOL     OW   18   1.187   1.792   1.616
   35SOL    HW1   19   1.211   1.852   1.540
   35SOL    HW2   20   1.194   1.697   1.586
   37SOL     OW   21   1.466   1.417   0.953
   37SOL    HW1   22   1.407   1.423   1.033
   37SOL    HW2   23   1.451   1.329   0.907
   50SOL     OW   24   1.719   0.585   1.831
   50SOL    HW1   25   1.693   0.674   1.795
   50SOL    HW2   26   1.717   0.517   1.758
   56SOL     OW   27   1.227   1.550   1.506
   56SOL    HW1   28   1.233   1.473   1.570
   56SOL    HW2   29   1.175   1.524   1.426
   95SOL     OW   30   1.754   1.223   1.588
   95SOL    HW1   31   1.845   1.184   1.575
   95SOL    HW2   32   1.762   1.319   1.612
   96SOL     OW   33   1.064   1.347   1.340
   96SOL    HW1   34   0.984   1.324   1.395
   96SOL    HW2   35   1.147   1.321   1.389
   97SOL     OW   36   1.592   1.629   1.625
   97SOL    HW1   37   1.619   1.663   1.535
   97SOL    HW2   38   1.671   1.591   1.671
   99SOL     OW   39   1.638   1.099   1.079
   99SOL    HW1   40   1.643   1.180   1.138
   99SOL    HW2   41   1.552   1.101   1.028
  101SOL     OW   42   0.980   1.116   1.719
  101SOL    HW1   43   0.881   1.122   1.729
  101SOL    HW2   44   1.003   1.036   1.663
  109SOL     OW   45   1.272   1.445   1.142
  109SOL    HW1   46   1.319   1.458   1.229
  109SOL    HW2   47   1.206   1.371   1.151
  113SOL     OW   48   1.587   0.779   1.670
  113SOL    HW1   49   1.495   0.817   1.665
  113SOL    HW2   50   1.647   0.826   1.605
  122SOL     OW   51   1.728   0.935   1.854
  122SOL    HW1   52   1.682   0.928   1.765
  122SOL    HW2   53   1.666   0.979   1.920
  126SOL     OW   54   0.980   1.573   1.700
  126SOL    HW1   55   0.960   1.617   1.612
  126SOL    HW2   56   1.019   1.482   1.684
  127SOL     OW   57   1.859   1.518   1.605
  127SOL    HW1   58   1.873   1.545   1.510
  127SOL    HW2   59   1.942   1.540   1.658
  142SOL     OW   60   1.369   0.950   1.660
  142SOL    HW1   61   1.408   1.039   1.680
  142SOL    HW2   62   1.379   0.930   1.563
  147SOL     OW   63   0.930   1.678   1.465
  147SOL    HW1   64   0.906   1.660   1.370
  147SOL    HW2   65   0.960   1.772   1.475
  150SOL     OW   66   1.347   1.059   1.234
  150SOL    HW1   67   1.371   0.996   1.160
  150SOL    HW2   68   1.257   1.099   1.216
  152SOL     OW   69   1.759   1.747   1.154
  152SOL    HW1   70   1.820   1.777   1.081
  152SOL    HW2   71   1.721   1.658   1.132
  153SOL     OW   72   1.252   1.731   1.128
  153SOL    HW1   73   1.336   1.736   1.074
  153SOL    HW2   74   1.229   1.635   1.146
  155SOL     OW   75   0.688   1.662   1.716
  155SOL    HW1   76   0.632   1.743   1.725
  155SOL    HW2   77   0.740   1.666   1.630
  163SOL     OW   78   1.650   1.720   1.394
  163SOL    HW1   79   1.703   1.730   1.310
  163SOL    HW2   80   1.623   1.810   1.428
  171SOL     OW   81   1.614   1.292   1.289
  171SOL    HW1   82   1.674   1.295   1.369
  171SOL    HW2   83   1.539   1.356   1.302
  180SOL     OW   84   1.440   0.856   1.398
  180SOL    HW1   85   1.383   0.908   1.335
  180SOL    HW2   86   1.536   0.868   1.374
  184SOL     OW   87   1.493   1.767   0.959
  184SOL    HW1   88   1.526   1.831   0.890
  184SOL    HW2   89   1.559   1.761   1.034
  186SOL     OW   90   1.450   1.220   1.633
  186SOL    HW1   91   1.441   1.210   1.732
  186SOL    HW2   92   1.546   1.213   1.607
  188SOL     OW   93   1.674   0.883   1.254
  188SOL    HW1   94   1.647   0.794   1.217
  188SOL    HW2   95   1.675   0.951   1.181
  192SOL     OW   96   1.730   0.934   1.517
  192SOL    HW1   97   1.768   1.025   1.532
  192SOL    HW2   98   1.722   0.917   1.418
  197SOL     OW   99   1.861   1.569   0.851
  197SOL    HW1  100   1.790   1.557   0.781
  197SOL    HW2  101   1.862   1.490   0.911
  203SOL     OW  102   1.705   1.487   1.104
  203SOL    HW1  103   1.612   1.462   1.077
  203SOL    HW2  104   1.731   1.437   1.186
  219SOL     OW  105   1.555   1.511   2.565
  219SOL    HW1  106   1.498   1.495   2.646
  219SOL    HW2  107   1.496   1.521   2.485
  221SOL     OW  108   1.755   0.607   2.093
  221SOL    HW1  109   1.743   0.594   1.994
  221SOL    HW2  110   1.725   0.526   2.142
  227SOL     OW  111   1.460   1.505   3.201
  227SOL    HW1  112   1.484   1.599   3.227
  227SOL    HW2  113   1.444   1.451   3.283
  238SOL     OW  114   1.842   1.767   2.221
  238SOL    HW1  115   1.896   1.738   2.301
  238SOL    HW2  116   1.872   1.857   2.192
  240SOL     OW  117   1.689   0.922   2.474
  240SOL    HW1  118   1.784   0.893   2.482
  240SOL    HW2  119   1.681   0.987   2.399
  241SOL     OW  120   1.641   1.108   2.294
  241SOL    HW1  121   1.727   1.110   2.242
  241SOL    HW2  122   1.655   1.155   2.382
  244SOL     OW  123   1.293   1.228   3.285
  244SOL    HW1  124   1.330   1.155   3.227
  244SOL    HW2  125   1.345   1.233   3.370
  247SOL     OW  126   1.525   0.999   2.052
  247SOL    HW1  127   1.462   0.923   2.065
  247SOL    HW2  128   1.573   1.017   2.138
  248SOL     OW  129   1.187   1.792   3.478
  248SOL    HW1  130   1.211   1.852   3.402
  248SOL    HW2  131   1.194   1.697   3.448
  250SOL     OW  132   1.466   1.417   2.815
  250SOL    HW1  133   1.407   1.423   2.895
  250SOL    HW2  134   1.451   1.329   2.769
  251SOL     OW  135   1.667   1.714   2.434
  251SOL    HW1  136   1.626   1.691   2.346
  251SOL    HW2  137   1.649   1.640   2.499
  254SOL     OW  138   1.576   1.662   2.169
  254SOL    HW1  139   1.665   1.708   2.172
  254SOL    HW2  140   1.555   1.638   2.074
  264SOL     OW  141   1.362   1.144   2.407
  264SOL    HW1  142   1.445   1.115   2.359
  264SOL    HW2  143   1.313   1.211   2.351
  266SOL     OW  144   1.008   1.456   2.339
  266SOL    HW1  145   0.962   1.528   2.287
  266SOL    HW2  146   1.004   1.476   2.437
  268SOL     OW  147   1.795   1.066   2.735
  268SOL    HW1  148   1.733   1.051   2.659
  268SOL    HW2  149   1.743   1.077   2.820
  269SOL     OW  150   1.227   1.550   3.368
  269SOL    HW1  151   1.233   1.473   3.432
  269SOL    HW2  152   1.175   1.524   3.288
  271SOL     OW  153   1.458   0.735   2.590
  271SOL    HW1  154   1.453   0.670   2.665
  271SOL    HW2  155   1.538   0.794   2.603
  273SOL     OW  156   1.111   1.776   2.099
  273SOL    HW1  157   1.051   1.714   2.149
  273SOL    HW2  158   1.142   1.732   2.014
  275SOL     OW  159   1.632   1.377   1.943
  275SOL    HW1  160   1.600   1.471   1.933
  275SOL    HW2  161   1.556   1.314   1.931
  279SOL     OW  162   0.940   1.698   2.766
  279SOL    HW1  163   1.020   1.641   2.787
  279SOL    HW2  164   0.891   1.658   2.689
  284SOL     OW  165   0.888   1.514   3.057
  284SOL    HW1  166   0.865   1.489   2.963
  284SOL    HW2  167   0.949   1.445   3.096
  286SOL     OW  168   0.803   1.402   2.786
  286SOL    HW1  169   0.893   1.416   2.744
  286SOL    HW2  170   0.732   1.404   2.715
  289SOL     OW  171   1.434   1.188   1.903
  289SOL    HW1  172   1.466   1.112   1.960
  289SOL    HW2  173   1.342   1.215   1.933
  293SOL     OW  174   1.227   1.570   2.655
  293SOL    HW1  175   1.248   1.644   2.590
  293SOL    HW2  176   1.295   1.570   2.728
  295SOL     OW  177   1.271   1.797   2.453
  295SOL    HW1  178   1.315   1.861   2.389
  295SOL    HW2  179   1.221   1.849   2.523
  301SOL     OW  180   1.429   1.173   2.729
  301SOL    HW1  181   1.374   1.089   2.722
  301SOL    HW2  182   1.455   1.202   2.637
  303SOL     OW  183   1.857   0.833   2.239
  303SOL    HW1  184   1.899   0.769   2.303
  303SOL    HW2  185   1.819   0.782   2.161
  305SOL     OW  186   1.664   1.280   2.519
  305SOL    HW1  187   1.763   1.288   2.533
  305SOL    HW2  188   1.619   1.364   2.550
  308SOL     OW  189   1.754   1.223   3.450
  308SOL    HW1  190   1.845   1.184   3.437
  308SOL    HW2  191   1.762   1.319   3.474
  309SOL     OW  192   1.064   1.347   3.202
  309SOL    HW1  193   0.984   1.324   3.257
  309SOL    HW2  194   1.147   1.321   3.251
  310SOL     OW  195   1.592   1.629   3.487
  310SOL    HW1  196   1.619   1.663   3.397
  310SOL    HW2  197   1.671   1.591   3.533
  311SOL     OW  198   1.111   1.195   2.962
  311SOL    HW1  199   1.071   1.239   3.043
  311SOL    HW2  200   1.070   1.232   2.879
  312SOL     OW  201   1.638   1.099   2.941
  312SOL    HW1  202   1.643   1.180   3.000
  312SOL    HW2  203   1.552   1.101   2.890
  321SOL     OW  204   1.252   1.348   2.250
  321SOL    HW1  205   1.302   1.425   2.290
  321SOL    HW2  206   1.157   1.350   2.282
  322SOL     OW  207   1.272   1.445   3.004
  322SOL    HW1  208   1.319   1.458   3.091
  322SOL    HW2  209   1.206   1.371   3.013
  323SOL     OW  210   1.582   0.639   2.334
  323SOL    HW1  211   1.551   0.700   2.407
  323SOL    HW2  212   1.632   0.691   2.265
  330SOL     OW  213   1.360   0.862   2.907
  330SOL    HW1  214   1.285   0.862   2.841
  330SOL    HW2  215   1.397   0.770   2.916
  340SOL     OW  216   1.859   1.518   3.467
  340SOL    HW1  217   1.873   1.545   3.372
  340SOL    HW2  218   1.942   1.540   3.520
  343SOL     OW  219   1.303   0.838   1.904
  343SOL    HW1  220   1.337   0.745   1.919
  343SOL    HW2  221   1.321   0.865   1.809
  344SOL     OW  222   1.068   1.333   2.711
  344SOL    HW1  223   1.075   1.249   2.656
  344SOL    HW2  224   1.130   1.402   2.675
  360SOL     OW  225   0.930   1.678   3.327
  360SOL    HW1  226   0.906   1.660   3.232
  360SOL    HW2  227   0.960   1.772   3.337
  363SOL     OW  228   1.347   1.059   3.096
  363SOL    HW1  229   1.371   0.996   3.022
  363SOL    HW2  230   1.257   1.099   3.078
  364SOL     OW  231   1.302   0.855   2.171
  364SOL    HW1  232   1.216   0.824   2.213
  364SOL    HW2  233   1.298   0.841   2.072
  365SOL     OW  234   1.759   1.747   3.016
  365SOL    HW1  235   1.820   1.777   2.943
  365SOL    HW2  236   1.721   1.658   2.994
  366SOL     OW  237   1.252   1.731   2.990
  366SOL    HW1  238   1.336   1.736   2.936
  366SOL    HW2  239   1.229   1.635   3.008
  370SOL     OW  240   1.388   1.573   2.339
  370SOL    HW1  241   1.455   1.585   2.265
  370SOL    HW2  242   1.348   1.662   2.362
  372SOL     OW  243   1.280   0.927   2.534
  372SOL    HW1  244   1.340   0.846   2.536
  372SOL    HW2  245   1.320   0.996   2.474
  374SOL     OW  246   0.672   1.616   2.016
  374SOL    HW1  247   0.681   1.626   1.917
  374SOL    HW2  248   0.632   1.527   2.037
  375SOL     OW  249   1.650   1.720   3.256
  375SOL    HW1  250   1.703   1.730   3.172
  375SOL    HW2  251   1.623   1.810   3.290
  378SOL     OW  252   1.194   1.612   1.893
  378SOL    HW1  253   1.200   1.519   1.930
  378SOL    HW2  254   1.135   1.612   1.813
  381SOL     OW  255   1.504   1.607   1.906
  381SOL    HW1  256   1.412   1.644   1.913
  381SOL    HW2  257   1.542   1.627   1.816
  383SOL     OW  258   1.614   1.292   3.151
  383SOL    HW1  259   1.674   1.295   3.231
  383SOL    HW2  260   1.539   1.356   3.164
  384SOL     OW  261   1.039   1.098   2.558
  384SOL    HW1  262   0.969   1.051   2.612
  384SOL    HW2  263   1.098   1.030   2.515
  386SOL     OW  264   0.590   1.487   2.353
  386SOL    HW1  265   0.632   1.429   2.283
  386SOL    HW2  266   0.546   1.566   2.309
  394SOL     OW  267   1.183   1.335   1.981
  394SOL    HW1  268   1.084   1.324   1.983
  394SOL    HW2  269   1.217   1.350   2.074
  396SOL     OW  270   1.493   1.767   2.821
  396SOL    HW1  271   1.526   1.831   2.752
  396SOL    HW2  272   1.559   1.761   2.896
  398SOL     OW  273   1.450   1.220   3.495
  398SOL    HW1  274   1.441   1.210   3.594
  398SOL    HW2  275   1.546   1.213   3.469
  400SOL     OW  276   1.674   0.883   3.116
  400SOL    HW1  277   1.647   0.794   3.079
  400SOL    HW2  278   1.675   0.951   3.043
  404SOL     OW  279   1.730   0.934   3.379
  404SOL    HW1  280   1.768   1.025   3.394
  404SOL    HW2  281   1.722   0.917   3.280
  405SOL     OW  282   0.859   1.374   1.878
  405SOL    HW1  283   0.813   1.389   1.966
  405SOL    HW2  284   0.903   1.459   1.848
  406SOL     OW  285   0.661   1.790   2.815
  406SOL    HW1  286   0.615   1.878   2.802
  406SOL    HW2  287   0.760   1.802   2.808
  408SOL     OW  288   1.083   0.984   1.949
  408SOL    HW1  289   1.060   1.037   1.867
  408SOL    HW2  290   1.164   0.928   1.930
  409SOL     OW  291   1.861   1.569   2.713
  409SOL    HW1  292   1.790   1.557   2.643
  409SOL    HW2  293   1.862   1.490   2.773
  415SOL     OW  294   1.705   1.487   2.966
  415SOL    HW1  295   1.612   1.462   2.939
  415SOL    HW2  296   1.731   1.437   3.048
  417SOL     OW  297   0.812   1.586   2.549
  417SOL    HW1  298   0.844   1.596   2.455
  417SOL    HW2  299   0.733   1.524   2.551
  420SOL     OW  300   0.770   1.330   2.163
  420SOL    HW1  301   0.724   1.243   2.180
  420SOL    HW2  302   0.861   1.327   2.204
  426SOL     OW  303   0.875   1.646   2.199
  426SOL    HW1  304   0.798   1.611   2.145
  426SOL    HW2  305   0.843   1.717   2.261
  514SOL     OW  306   0.850   2.660   1.823
  514SOL    HW1  307   0.846   2.736   1.888
  514SOL    HW2  308   0.872   2.696   1.732
  516SOL     OW  309   0.686   3.023   1.803
  516SOL    HW1  310   0.746   3.102   1.817
  516SOL    HW2  311   0.600   3.054   1.762
  518SOL     OW  312   1.460   3.367   1.339
  518SOL    HW1  313   1.484   3.461   1.365
  518SOL    HW2  314   1.444   3.313   1.421
  520SOL     OW  315   1.603   2.309   0.737
  520SOL    HW1  316   1.529   2.355   0.687
  520SOL    HW2  317   1.654   2.377   0.790
  522SOL     OW  318   1.127   3.203   1.690
  522SOL    HW1  319   1.174   3.203   1.778
  522SOL    HW2  320   1.079   3.116   1.679
  527SOL     OW  321   1.594   1.976   1.480
  527SOL    HW1  322   1.576   2.043   1.408
  527SOL    HW2  323   1.591   2.022   1.569
  531SOL     OW  324   1.689   2.784   0.612
  531SOL    HW1  325   1.784   2.755   0.620
  531SOL    HW2  326   1.681   2.849   0.537
  535SOL     OW  327   1.293   3.090   1.423
  535SOL    HW1  328   1.330   3.017   1.365
  535SOL    HW2  329   1.345   3.095   1.508
  544SOL     OW  330   1.281   2.207   0.944
  544SOL    HW1  331   1.195   2.157   0.931
  544SOL    HW2  332   1.343   2.153   1.000
  546SOL     OW  333   0.807   2.467   1.465
  546SOL    HW1  334   0.760   2.464   1.554
  546SOL    HW2  335   0.756   2.412   1.399
  547SOL     OW  336   1.394   2.331   1.674
  547SOL    HW1  337   1.374   2.374   1.762
  547SOL    HW2  338   1.472   2.269   1.683
  548SOL     OW  339   0.973   2.752   1.572
  548SOL    HW1  340   1.019   2.668   1.543
  548SOL    HW2  341   0.917   2.786   1.497
  549SOL     OW  342   0.991   2.272   1.242
  549SOL    HW1  343   0.914   2.306   1.296
  549SOL    HW2  344   0.957   2.221   1.163
  554SOL     OW  345   1.719   2.447   1.831
  554SOL    HW1  346   1.693   2.536   1.795
  554SOL    HW2  347   1.717   2.379   1.758
  559SOL     OW  348   1.795   2.928   0.873
  559SOL    HW1  349   1.733   2.913   0.797
  559SOL    HW2  350   1.743   2.939   0.958
  560SOL     OW  351   1.227   3.412   1.506
  560SOL    HW1  352   1.233   3.335   1.570
  560SOL    HW2  353   1.175   3.386   1.426
  562SOL     OW  354   1.458   2.597   0.728
  562SOL    HW1  355   1.453   2.532   0.803
  562SOL    HW2  356   1.538   2.656   0.741
  572SOL     OW  357   1.547   2.084   1.729
  572SOL    HW1  358   1.542   2.121   1.821
  572SOL    HW2  359   1.475   2.015   1.717
  574SOL     OW  360   0.781   2.126   1.749
  574SOL    HW1  361   0.848   2.065   1.792
  574SOL    HW2  362   0.708   2.145   1.814
  576SOL     OW  363   1.351   2.452   1.433
  576SOL    HW1  364   1.379   2.409   1.518
  576SOL    HW2  365   1.376   2.548   1.434
  582SOL     OW  366   1.076   2.545   1.464
  582SOL    HW1  367   0.996   2.484   1.467
  582SOL    HW2  368   1.157   2.492   1.440
  591SOL     OW  369   1.429   3.035   0.867
  591SOL    HW1  370   1.374   2.951   0.860
  591SOL    HW2  371   1.455   3.064   0.775
  592SOL     OW  372   1.466   2.452   0.992
  592SOL    HW1  373   1.436   2.357   0.999
  592SOL    HW2  374   1.539   2.468   1.058
  598SOL     OW  375   1.754   3.085   1.588
  598SOL    HW1  376   1.845   3.046   1.575
  598SOL    HW2  377   1.762   3.181   1.612
  599SOL     OW  378   1.064   3.209   1.340
  599SOL    HW1  379   0.984   3.186   1.395
  599SOL    HW2  380   1.147   3.183   1.389
  600SOL     OW  381   1.592   3.491   1.625
  600SOL    HW1  382   1.619   3.525   1.535
  600SOL    HW2  383   1.671   3.453   1.671
  601SOL     OW  384   1.111   3.057   1.100
  601SOL    HW1  385   1.071   3.101   1.181
  601SOL    HW2  386   1.070   3.094   1.017
  602SOL     OW  387   1.638   2.961   1.079
  602SOL    HW1  388   1.643   3.042   1.138
  602SOL    HW2  389   1.552   2.963   1.028
  603SOL     OW  390   0.915   1.951   1.402
  603SOL    HW1  391   0.940   1.931   1.307
  603SOL    HW2  392   0.987   2.007   1.444
  604SOL     OW  393   0.980   2.978   1.719
  604SOL    HW1  394   0.881   2.984   1.729
  604SOL    HW2  395   1.003   2.898   1.663
  607SOL     OW  396   1.274   2.248   1.262
  607SOL    HW1  397   1.295   2.322   1.326
  607SOL    HW2  398   1.185   2.265   1.219
  616SOL     OW  399   1.587   2.641   1.670
  616SOL    HW1  400   1.495   2.679   1.665
  616SOL    HW2  401   1.647   2.688   1.605
  617SOL     OW  402   1.013   1.967   1.770
  617SOL    HW1  403   1.019   2.052   1.718
  617SOL    HW2  404   1.045   1.891   1.713
  620SOL     OW  405   1.360   2.724   1.045
  620SOL    HW1  406   1.285   2.724   0.979
  620SOL    HW2  407   1.397   2.632   1.054
  625SOL     OW  408   1.728   2.797   1.854
  625SOL    HW1  409   1.682   2.790   1.765
  625SOL    HW2  410   1.666   2.841   1.920
  628SOL     OW  411   1.023   2.628   0.966
  628SOL    HW1  412   1.038   2.649   1.062
  628SOL    HW2  413   0.993   2.533   0.957
  630SOL     OW  414   1.859   3.380   1.605
  630SOL    HW1  415   1.873   3.407   1.510
  630SOL    HW2  416   1.942   3.402   1.658
  637SOL     OW  417   1.138   2.242   1.678
  637SOL    HW1  418   1.093   2.305   1.742
  637SOL    HW2  419   1.231   2.273   1.661
  638SOL     OW  420   1.160   2.069   1.477
  638SOL    HW1  421   1.160   2.133   1.554
  638SOL    HW2  422   1.188   2.117   1.394
  642SOL     OW  423   1.002   2.658   1.238
  642SOL    HW1  424   1.043   2.626   1.324
  642SOL    HW2  425   0.906   2.631   1.235
  645SOL     OW  426   1.369   2.812   1.660
  645SOL    HW1  427   1.408   2.901   1.680
  645SOL    HW2  428   1.379   2.792   1.563
  647SOL     OW  429   1.657   2.466   1.206
  647SOL    HW1  430   1.619   2.397   1.268
  647SOL    HW2  431   1.739   2.430   1.162
  653SOL     OW  432   1.347   2.921   1.234
  653SOL    HW1  433   1.371   2.858   1.160
  653SOL    HW2  434   1.257   2.961   1.216
  660SOL     OW  435   1.726   1.997   0.523
  660SOL    HW1  436   1.799   1.980   0.456
  660SOL    HW2  437   1.695   1.910   0.561
  666SOL     OW  438   1.650   3.582   1.394
  666SOL    HW1  439   1.703   3.592   1.310
  666SOL    HW2  440   1.623   3.672   1.428
  667SOL     OW  441   1.841   2.037   0.963
  667SOL    HW1  442   1.880   1.952   0.927
  667SOL    HW2  443   1.743   2.039   0.944
  670SOL     OW  444   0.822   2.864   1.372
  670SOL    HW1  445   0.862   2.863   1.280
  670SOL    HW2  446   0.832   2.956   1.412
  674SOL     OW  447   1.614   3.154   1.289
  674SOL    HW1  448   1.674   3.157   1.369
  674SOL    HW2  449   1.539   3.218   1.302
  676SOL     OW  450   1.014   2.098   0.971
  676SOL    HW1  451   1.006   2.062   0.878
  676SOL    HW2  452   1.012   2.022   1.036
  678SOL     OW  453   1.709   2.247   1.381
  678SOL    HW1  454   1.782   2.316   1.385
  678SOL    HW2  455   1.737   2.172   1.322
  681SOL     OW  456   0.672   2.065   1.489
  681SOL    HW1  457   0.762   2.049   1.449
  681SOL    HW2  458   0.680   2.070   1.588
  683SOL     OW  459   1.440   2.718   1.398
  683SOL    HW1  460   1.383   2.770   1.335
  683SOL    HW2  461   1.536   2.730   1.374
  688SOL     OW  462   0.716   2.427   1.708
  688SOL    HW1  463   0.735   2.492   1.782
  688SOL    HW2  464   0.776   2.347   1.717
  689SOL     OW  465   1.450   3.082   1.633
  689SOL    HW1  466   1.441   3.072   1.732
  689SOL    HW2  467   1.546   3.075   1.607
  691SOL     OW  468   1.674   2.745   1.254
  691SOL    HW1  469   1.647   2.656   1.217
  691SOL    HW2  470   1.675   2.813   1.181
  694SOL     OW  471   1.777   2.204   1.642
  694SOL    HW1  472   1.760   2.235   1.548
  694SOL    HW2  473   1.693   2.167   1.680
  695SOL     OW  474   1.730   2.796   1.517
  695SOL    HW1  475   1.768   2.887   1.532
  695SOL    HW2  476   1.722   2.779   1.418
  704SOL     OW  477   1.824   2.054   1.227
  704SOL    HW1  478   1.820   1.964   1.271
  704SOL    HW2  479   1.827   2.043   1.128
  706SOL     OW  480   1.705   3.349   1.104
  706SOL    HW1  481   1.612   3.324   1.077
  706SOL    HW2  482   1.731   3.299   1.186
  709SOL     OW  483   1.424   2.076   1.112
  709SOL    HW1  484   1.476   2.011   1.167
  709SOL    HW2  485   1.375   2.139   1.173
  710SOL     OW  486   1.001   1.896   1.154
  710SOL    HW1  487   0.938   1.824   1.123
  710SOL    HW2  488   1.094   1.860   1.154
  714SOL     OW  489   1.300   2.315   0.691
  714SOL    HW1  490   1.241   2.395   0.695
  714SOL    HW2  491   1.315   2.280   0.784
  715SOL     OW  492   1.593   2.083   0.882
  715SOL    HW1  493   1.509   2.082   0.936
  715SOL    HW2  494   1.595   2.166   0.826
  722SOL     OW  495   1.555   3.373   2.565
  722SOL    HW1  496   1.498   3.357   2.646
  722SOL    HW2  497   1.496   3.383   2.485
  723SOL     OW  498   1.135   2.565   2.579
  723SOL    HW1  499   1.192   2.643   2.554
  723SOL    HW2  500   1.075   2.591   2.655
  724SOL     OW  501   1.755   2.469   2.093
  724SOL    HW1  502   1.743   2.456   1.994
  724SOL    HW2  503   1.725   2.388   2.142
  725SOL     OW  504   0.768   3.006   2.885
  725SOL    HW1  505   0.690   3.023   2.945
  725SOL    HW2  506   0.802   3.093   2.849
  727SOL     OW  507   0.685   2.874   2.527
  727SOL    HW1  508   0.754   2.858   2.597
  727SOL    HW2  509   0.612   2.931   2.565
  730SOL     OW  510   1.460   3.367   3.201
  730SOL    HW1  511   1.484   3.461   3.227
  730SOL    HW2  512   1.444   3.313   3.283
  732SOL     OW  513   1.603   2.309   2.599
  732SOL    HW1  514   1.529   2.355   2.549
  732SOL    HW2  515   1.654   2.377   2.652
  738SOL     OW  516   0.606   2.826   1.985
  738SOL    HW1  517   0.613   2.910   1.931
  738SOL    HW2  518   0.652   2.839   2.073
  739SOL     OW  519   1.594   1.976   3.342
  739SOL    HW1  520   1.576   2.043   3.270
  739SOL    HW2  521   1.591   2.022   3.431
  741SOL     OW  522   1.842   3.629   2.221
  741SOL    HW1  523   1.896   3.600   2.301
  741SOL    HW2  524   1.872   3.719   2.192
  743SOL     OW  525   1.689   2.784   2.474
  743SOL    HW1  526   1.784   2.755   2.482
  743SOL    HW2  527   1.681   2.849   2.399
  744SOL     OW  528   1.641   2.970   2.294
  744SOL    HW1  529   1.727   2.972   2.242
  744SOL    HW2  530   1.655   3.017   2.382
  747SOL     OW  531   1.293   3.090   3.285
  747SOL    HW1  532   1.330   3.017   3.227
  747SOL    HW2  533   1.345   3.095   3.370
  748SOL     OW  534   0.809   1.866   2.364
  748SOL    HW1  535   0.849   1.957   2.355
  748SOL    HW2  536   0.709   1.874   2.370
  750SOL     OW  537   1.525   2.861   2.052
  750SOL    HW1  538   1.462   2.785   2.065
  750SOL    HW2  539   1.573   2.879   2.138
  753SOL     OW  540   1.466   3.279   2.815
  753SOL    HW1  541   1.407   3.285   2.895
  753SOL    HW2  542   1.451   3.191   2.769
  754SOL     OW  543   1.667   3.576   2.434
  754SOL    HW1  544   1.626   3.553   2.346
  754SOL    HW2  545   1.649   3.502   2.499
  755SOL     OW  546   0.598   2.591   2.132
  755SOL    HW1  547   0.622   2.660   2.064
  755SOL    HW2  548   0.520   2.624   2.186
  756SOL     OW  549   1.281   2.207   2.806
  756SOL    HW1  550   1.195   2.157   2.793
  756SOL    HW2  551   1.343   2.153   2.862
  757SOL     OW  552   1.576   3.524   2.169
  757SOL    HW1  553   1.665   3.570   2.172
  757SOL    HW2  554   1.555   3.500   2.074
  759SOL     OW  555   1.394   2.331   3.536
  759SOL    HW1  556   1.374   2.374   3.624
  759SOL    HW2  557   1.472   2.269   3.545
  761SOL     OW  558   0.991   2.272   3.104
  761SOL    HW1  559   0.914   2.306   3.158
  761SOL    HW2  560   0.957   2.221   3.025
  762SOL     OW  561   1.041   2.563   2.291
  762SOL    HW1  562   1.067   2.559   2.387
  762SOL    HW2  563   0.956   2.512   2.277
  765SOL     OW  564   0.865   2.210   2.057
  765SOL    HW1  565   0.924   2.273   2.008
  765SOL    HW2  566   0.884   2.116   2.028
  766SOL     OW  567   1.719   2.447   3.693
  766SOL    HW1  568   1.693   2.536   3.657
  766SOL    HW2  569   1.717   2.379   3.620
  767SOL     OW  570   1.362   3.006   2.407
  767SOL    HW1  571   1.445   2.977   2.359
  767SOL    HW2  572   1.313   3.073   2.351
  768SOL     OW  573   0.550   2.058   2.747
  768SOL    HW1  574   0.545   2.053   2.847
  768SOL    HW2  575   0.552   2.154   2.718
  769SOL     OW  576   1.008   3.318   2.339
  769SOL    HW1  577   0.962   3.390   2.287
  769SOL    HW2  578   1.004   3.338   2.437
  771SOL     OW  579   1.795   2.928   2.735
  771SOL    HW1  580   1.733   2.913   2.659
  771SOL    HW2  581   1.743   2.939   2.820
  774SOL     OW  582   1.458   2.597   2.590
  774SOL    HW1  583   1.453   2.532   2.665
  774SOL    HW2  584   1.538   2.656   2.603
  778SOL     OW  585   1.632   3.239   1.943
  778SOL    HW1  586   1.600   3.333   1.933
  778SOL    HW2  587   1.556   3.176   1.931
  780SOL     OW  588   1.400   1.969   2.288
  780SOL    HW1  589   1.376   1.932   2.198
  780SOL    HW2  590   1.499   1.985   2.292
  784SOL     OW  591   1.547   2.084   3.591
  784SOL    HW1  592   1.542   2.121   3.683
  784SOL    HW2  593   1.475   2.015   3.579
  785SOL     OW  594   0.614   1.984   1.979
  785SOL    HW1  595   0.712   1.962   1.986
  785SOL    HW2  596   0.583   1.967   1.886
  788SOL     OW  597   1.351   2.452   3.295
  788SOL    HW1  598   1.379   2.409   3.380
  788SOL    HW2  599   1.376   2.548   3.296
  790SOL     OW  600   0.922   2.365   2.761
  790SOL    HW1  601   0.897   2.356   2.665
  790SOL    HW2  602   0.970   2.283   2.792
  791SOL     OW  603   0.539   1.926   2.374
  791SOL    HW1  604   0.458   1.927   2.432
  791SOL    HW2  605   0.542   2.009   2.319
  792SOL     OW  606   1.434   3.050   1.903
  792SOL    HW1  607   1.466   2.974   1.960
  792SOL    HW2  608   1.342   3.077   1.933
  794SOL     OW  609   0.935   2.098   2.342
  794SOL    HW1  610   0.887   2.139   2.264
  794SOL    HW2  611   1.034   2.096   2.323
  795SOL     OW  612   1.076   2.545   3.326
  795SOL    HW1  613   0.996   2.484   3.329
  795SOL    HW2  614   1.157   2.492   3.302
  796SOL     OW  615   1.227   3.432   2.655
  796SOL    HW1  616   1.248   3.506   2.590
  796SOL    HW2  617   1.295   3.432   2.728
  798SOL     OW  618   1.271   3.659   2.453
  798SOL    HW1  619   1.315   3.723   2.389
  798SOL    HW2  620   1.221   3.711   2.523
  799SOL     OW  621   1.032   2.411   1.878
  799SOL    HW1  622   0.991   2.493   1.839
  799SOL    HW2  623   1.096   2.437   1.951
  802SOL     OW  624   0.866   2.316   2.504
  802SOL    HW1  625   0.834   2.388   2.442
  802SOL    HW2  626   0.890   2.235   2.451
  803SOL     OW  627   1.017   1.901   2.615
  803SOL    HW1  628   0.945   1.906   2.546
  803SOL    HW2  629   0.993   1.832   2.684
  804SOL     OW  630   1.429   3.035   2.729
  804SOL    HW1  631   1.374   2.951   2.722
  804SOL    HW2  632   1.455   3.064   2.637
  805SOL     OW  633   1.466   2.452   2.854
  805SOL    HW1  634   1.436   2.357   2.861
  805SOL    HW2  635   1.539   2.468   2.920
  806SOL     OW  636   1.857   2.695   2.239
  806SOL    HW1  637   1.899   2.631   2.303
  806SOL    HW2  638   1.819   2.644   2.161
  808SOL     OW  639   1.664   3.142   2.519
  808SOL    HW1  640   1.763   3.150   2.533
  808SOL    HW2  641   1.619   3.226   2.550
  809SOL     OW  642   1.390   2.437   1.940
  809SOL    HW1  643   1.336   2.416   2.021
  809SOL    HW2  644   1.481   2.396   1.949
  810SOL     OW  645   0.527   2.118   2.190
  810SOL    HW1  646   0.554   2.059   2.115
  810SOL    HW2  647   0.527   2.213   2.159
  811SOL     OW  648   1.754   3.085   3.450
  811SOL    HW1  649   1.845   3.046   3.437
  811SOL    HW2  650   1.762   3.181   3.474
  814SOL     OW  651   1.111   3.057   2.962
  814SOL    HW1  652   1.071   3.101   3.043
  814SOL    HW2  653   1.070   3.094   2.879
  815SOL     OW  654   1.638   2.961   2.941
  815SOL    HW1  655   1.643   3.042   3.000
  815SOL    HW2  656   1.552   2.963   2.890
  816SOL     OW  657   0.915   1.951   3.264
  816SOL    HW1  658   0.940   1.931   3.169
  816SOL    HW2  659   0.987   2.007   3.306
  818SOL     OW  660   0.705   2.912   2.230
  818SOL    HW1  661   0.691   2.919   2.329
  818SOL    HW2  662   0.789   2.861   2.212
  820SOL     OW  663   1.274   2.248   3.124
  820SOL    HW1  664   1.295   2.322   3.188
  820SOL    HW2  665   1.185   2.265   3.081
  823SOL     OW  666   0.566   2.399   2.727
  823SOL    HW1  667   0.578   2.465   2.653
  823SOL    HW2  668   0.612   2.433   2.810
  824SOL     OW  669   1.252   3.210   2.250
  824SOL    HW1  670   1.302   3.287   2.290
  824SOL    HW2  671   1.157   3.212   2.282
  825SOL     OW  672   1.272   3.307   3.004
  825SOL    HW1  673   1.319   3.320   3.091
  825SOL    HW2  674   1.206   3.233   3.013
  826SOL     OW  675   1.582   2.501   2.334
  826SOL    HW1  676   1.551   2.562   2.407
  826SOL    HW2  677   1.632   2.553   2.265
  829SOL     OW  678   1.587   2.641   3.532
  829SOL    HW1  679   1.495   2.679   3.527
  829SOL    HW2  680   1.647   2.688   3.467
  833SOL     OW  681   1.360   2.724   2.907
  833SOL    HW1  682   1.285   2.724   2.841
  833SOL    HW2  683   1.397   2.632   2.916
  834SOL     OW  684   1.209   2.387   2.137
  834SOL    HW1  685   1.222   2.303   2.191
  834SOL    HW2  686   1.180   2.461   2.197
  837SOL     OW  687   0.732   2.496   2.926
  837SOL    HW1  688   0.791   2.470   2.850
  837SOL    HW2  689   0.704   2.592   2.915
  838SOL     OW  690   1.728   2.797   3.716
  838SOL    HW1  691   1.682   2.790   3.627
  838SOL    HW2  692   1.666   2.841   3.782
  840SOL     OW  693   1.622   2.229   2.236
  840SOL    HW1  694   1.624   2.153   2.300
  840SOL    HW2  695   1.574   2.306   2.276
  841SOL     OW  696   1.023   2.628   2.828
  841SOL    HW1  697   1.038   2.649   2.924
  841SOL    HW2  698   0.993   2.533   2.819
  843SOL     OW  699   1.859   3.380   3.467
  843SOL    HW1  700   1.873   3.407   3.372
  843SOL    HW2  701   1.942   3.402   3.520
  845SOL     OW  702   1.540   2.136   1.987
  845SOL    HW1  703   1.479   2.061   2.010
  845SOL    HW2  704   1.562   2.188   2.070
  846SOL     OW  705   1.303   2.700   1.904
  846SOL    HW1  706   1.337   2.607   1.919
  846SOL    HW2  707   1.321   2.727   1.809
  847SOL     OW  708   1.068   3.195   2.711
  847SOL    HW1  709   1.075   3.111   2.656
  847SOL    HW2  710   1.130   3.264   2.675
  850SOL     OW  711   1.138   2.242   3.540
  850SOL    HW1  712   1.093   2.305   3.604
  850SOL    HW2  713   1.231   2.273   3.523
  851SOL     OW  714   1.160   2.069   3.339
  851SOL    HW1  715   1.160   2.133   3.416
  851SOL    HW2  716   1.188   2.117   3.256
  855SOL     OW  717   1.002   2.658   3.100
  855SOL    HW1  718   1.043   2.626   3.186
  855SOL    HW2  719   0.906   2.631   3.097
  858SOL     OW  720   1.369   2.812   3.522
  858SOL    HW1  721   1.408   2.901   3.542
  858SOL    HW2  722   1.379   2.792   3.425
  859SOL     OW  723   0.815   2.434   2.187
  859SOL    HW1  724   0.822   2.345   2.141
  859SOL    HW2  725   0.721   2.468   2.179
  860SOL     OW  726   1.657   2.466   3.068
  860SOL    HW1  727   1.619   2.397   3.130
  860SOL    HW2  728   1.739   2.430   3.024
  864SOL     OW  729   0.473   2.362   2.053
  864SOL    HW1  730   0.534   2.442   2.057
  864SOL    HW2  731   0.378   2.393   2.060
  866SOL     OW  732   1.347   2.921   3.096
  866SOL    HW1  733   1.371   2.858   3.022
  866SOL    HW2  734   1.257   2.961   3.078
  867SOL     OW  735   1.302   2.717   2.171
  867SOL    HW1  736   1.216   2.686   2.213
  867SOL    HW2  737   1.298   2.703   2.072
  868SOL     OW  738   1.759   3.609   3.016
  868SOL    HW1  739   1.820   3.639   2.943
  868SOL    HW2  740   1.721   3.520   2.994
  872SOL     OW  741   1.726   1.997   2.385
  872SOL    HW1  742   1.799   1.980   2.318
  872SOL    HW2  743   1.695   1.910   2.423
  873SOL     OW  744   1.388   3.435   2.339
  873SOL    HW1  745   1.455   3.447   2.265
  873SOL    HW2  746   1.348   3.524   2.362
  875SOL     OW  747   1.280   2.789   2.534
  875SOL    HW1  748   1.340   2.708   2.536
  875SOL    HW2  749   1.320   2.858   2.474
  879SOL     OW  750   1.841   2.037   2.825
  879SOL    HW1  751   1.880   1.952   2.789
  879SOL    HW2  752   1.743   2.039   2.806
  881SOL     OW  753   1.194   3.474   1.893
  881SOL    HW1  754   1.200   3.381   1.930
  881SOL    HW2  755   1.135   3.474   1.813
  883SOL     OW  756   0.916   2.772   2.153
  883SOL    HW1  757   0.979   2.810   2.085
  883SOL    HW2  758   0.956   2.689   2.192
  884SOL     OW  759   1.504   3.469   1.906
  884SOL    HW1  760   1.412   3.506   1.913
  884SOL    HW2  761   1.542   3.489   1.816
  886SOL     OW  762   1.614   3.154   3.151
  886SOL    HW1  763   1.674   3.157   3.231
  886SOL    HW2  764   1.539   3.218   3.164
  887SOL     OW  765   1.039   2.960   2.558
  887SOL    HW1  766   0.969   2.913   2.612
  887SOL    HW2  767   1.098   2.892   2.515
  888SOL     OW  768   1.014   2.098   2.833
  888SOL    HW1  769   1.006   2.062   2.740
  888SOL    HW2  770   1.012   2.022   2.898
  890SOL     OW  771   1.709   2.247   3.243
  890SOL    HW1  772   1.782   2.316   3.247
  890SOL    HW2  773   1.737   2.172   3.184
  895SOL     OW  774   1.440   2.718   3.260
  895SOL    HW1  775   1.383   2.770   3.197
  895SOL    HW2  776   1.536   2.730   3.236
  897SOL     OW  777   1.183   3.197   1.981
  897SOL    HW1  778   1.084   3.186   1.983
  897SOL    HW2  779   1.217   3.212   2.074
  899SOL     OW  780   1.493   3.629   2.821
  899SOL    HW1  781   1.526   3.693   2.752
  899SOL    HW2  782   1.559   3.623   2.896
  901SOL     OW  783   1.450   3.082   3.495
  901SOL    HW1  784   1.441   3.072   3.594
  901SOL    HW2  785   1.546   3.075   3.469
  903SOL     OW  786   1.674   2.745   3.116
  903SOL    HW1  787   1.647   2.656   3.079
  903SOL    HW2  788   1.675   2.813   3.043
  904SOL     OW  789   1.225   2.187   2.311
  904SOL    HW1  790   1.290   2.113   2.300
  904SOL    HW2  791   1.245   2.237   2.395
  905SOL     OW  792   0.594   2.607   2.514
  905SOL    HW1  793   0.644   2.692   2.495
  905SOL    HW2  794   0.506   2.609   2.466
  906SOL     OW  795   1.777   2.204   3.504
  906SOL    HW1  796   1.760   2.235   3.410
  906SOL    HW2  797   1.693   2.167   3.542
  907SOL     OW  798   1.730   2.796   3.379
  907SOL    HW1  799   1.768   2.887   3.394
  907SOL    HW2  800   1.722   2.779   3.280
  908SOL     OW  801   0.859   3.236   1.878
  908SOL    HW1  802   0.813   3.251   1.966
  908SOL    HW2  803   0.903   3.321   1.848
  910SOL     OW  804   0.859   2.818   2.723
  910SOL    HW1  805   0.913   2.749   2.771
  910SOL    HW2  806   0.827   2.887   2.789
  911SOL     OW  807   1.083   2.846   1.949
  911SOL    HW1  808   1.060   2.899   1.867
  911SOL    HW2  809   1.164   2.790   1.930
  912SOL     OW  810   1.861   3.431   2.713
  912SOL    HW1  811   1.790   3.419   2.643
  912SOL    HW2  812   1.862   3.352   2.773
  916SOL     OW  813   1.824   2.054   3.089
  916SOL    HW1  814   1.820   1.964   3.133
  916SOL    HW2  815   1.827   2.043   2.990
  918SOL     OW  816   1.705   3.349   2.966
  918SOL    HW1  817   1.612   3.324   2.939
  918SOL    HW2  818   1.731   3.299   3.048
  921SOL     OW  819   1.424   2.076   2.974
  921SOL    HW1  820   1.476   2.011   3.029
  921SOL    HW2  821   1.375   2.139   3.035
  922SOL     OW  822   1.001   1.896   3.016
  922SOL    HW1  823   0.938   1.824   2.985
  922SOL    HW2  824   1.094   1.860   3.016
  923SOL     OW  825   0.770   3.192   2.163
  923SOL    HW1  826   0.724   3.105   2.180
  923SOL    HW2  827   0.861   3.189   2.204
  925SOL     OW  828   1.352   1.914   2.030
  925SOL    HW1  829   1.387   1.873   1.946
  925SOL    HW2  830   1.262   1.876   2.050
  926SOL     OW  831   1.300   2.315   2.553
  926SOL    HW1  832   1.241   2.395   2.557
  926SOL    HW2  833   1.315   2.280   2.646
  927SOL     OW  834   1.593   2.083   2.744
  927SOL    HW1  835   1.509   2.082   2.798
  927SOL    HW2  836   1.595   2.166   2.688
  970SOL     OW  837   1.390   2.437   3.802
  970SOL    HW1  838   1.336   2.416   3.883
  970SOL    HW2  839   1.481   2.396   3.811
  979SOL     OW  840   1.540   2.136   3.849
  979SOL    HW1  841   1.479   2.061   3.872
  979SOL    HW2  842   1.562   2.188   3.932
 1152SOL     OW  843   1.726   3.859   2.385
 1152SOL    HW1  844   1.799   3.842   2.318
 1152SOL    HW2  845   1.695   3.772   2.423
 1170SOL     OW  846   1.352   3.776   2.030
 1170SOL    HW1  847   1.387   3.735   1.946
 1170SOL    HW2  848   1.262   3.738   2.050
 1209SOL     OW  849   2.431   1.275   1.165
 1209SOL    HW1  850   2.338   1.268   1.128
 1209SOL    HW2  851   2.442   1.364   1.209
 1213SOL     OW  852   2.630   1.144   1.023
 1213SOL    HW1  853   2.552   1.161   1.083
 1213SOL    HW2  854   2.664   1.231   0.987
 1214SOL     OW  855   2.712   0.798   1.823
 1214SOL    HW1  856   2.708   0.874   1.888
 1214SOL    HW2  857   2.734   0.834   1.732
 1216SOL     OW  858   2.548   1.161   1.803
 1216SOL    HW1  859   2.608   1.240   1.817
 1216SOL    HW2  860   2.462   1.192   1.762
 1217SOL     OW  861   2.197   1.435   1.061
 1217SOL    HW1  862   2.119   1.404   1.008
 1217SOL    HW2  863   2.255   1.493   1.004
 1218SOL     OW  864   3.322   1.505   1.339
 1218SOL    HW1  865   3.346   1.599   1.365
 1218SOL    HW2  866   3.306   1.451   1.421
 1222SOL     OW  867   2.989   1.341   1.690
 1222SOL    HW1  868   3.036   1.341   1.778
 1222SOL    HW2  869   2.941   1.254   1.679
 1224SOL     OW  870   2.102   1.091   0.886
 1224SOL    HW1  871   2.116   1.007   0.938
 1224SOL    HW2  872   2.047   1.155   0.941
 1225SOL     OW  873   2.482   1.786   1.439
 1225SOL    HW1  874   2.390   1.769   1.474
 1225SOL    HW2  875   2.510   1.878   1.465
 1233SOL     OW  876   1.975   0.737   1.597
 1233SOL    HW1  877   2.063   0.724   1.642
 1233SOL    HW2  878   1.962   0.834   1.575
 1234SOL     OW  879   2.475   1.365   0.726
 1234SOL    HW1  880   2.426   1.278   0.735
 1234SOL    HW2  881   2.452   1.408   0.639
 1235SOL     OW  882   3.155   1.228   1.423
 1235SOL    HW1  883   3.192   1.155   1.365
 1235SOL    HW2  884   3.207   1.233   1.508
 1237SOL     OW  885   2.059   0.976   1.264
 1237SOL    HW1  886   2.148   0.931   1.250
 1237SOL    HW2  887   1.986   0.911   1.245
 1239SOL     OW  888   3.049   1.792   1.616
 1239SOL    HW1  889   3.073   1.852   1.540
 1239SOL    HW2  890   3.056   1.697   1.586
 1248SOL     OW  891   2.835   0.890   1.572
 1248SOL    HW1  892   2.881   0.806   1.543
 1248SOL    HW2  893   2.779   0.924   1.497
 1252SOL     OW  894   1.992   1.821   1.571
 1252SOL    HW1  895   1.982   1.806   1.670
 1252SOL    HW2  896   1.906   1.857   1.535
 1258SOL     OW  897   2.213   1.801   0.853
 1258SOL    HW1  898   2.263   1.715   0.859
 1258SOL    HW2  899   2.278   1.878   0.850
 1260SOL     OW  900   3.089   1.550   1.506
 1260SOL    HW1  901   3.095   1.473   1.570
 1260SOL    HW2  902   3.037   1.524   1.426
 1263SOL     OW  903   2.323   1.266   1.727
 1263SOL    HW1  904   2.273   1.267   1.641
 1263SOL    HW2  905   2.260   1.248   1.803
 1269SOL     OW  906   2.111   1.785   1.241
 1269SOL    HW1  907   2.168   1.720   1.291
 1269SOL    HW2  908   2.095   1.752   1.148
 1270SOL     OW  909   2.802   1.698   0.904
 1270SOL    HW1  910   2.882   1.641   0.925
 1270SOL    HW2  911   2.753   1.658   0.827
 1275SOL     OW  912   2.750   1.514   1.195
 1275SOL    HW1  913   2.727   1.489   1.101
 1275SOL    HW2  914   2.811   1.445   1.234
 1277SOL     OW  915   2.665   1.402   0.924
 1277SOL    HW1  916   2.755   1.416   0.882
 1277SOL    HW2  917   2.594   1.404   0.853
 1284SOL     OW  918   3.089   1.570   0.793
 1284SOL    HW1  919   3.110   1.644   0.728
 1284SOL    HW2  920   3.157   1.570   0.866
 1300SOL     OW  921   2.926   1.347   1.340
 1300SOL    HW1  922   2.846   1.324   1.395
 1300SOL    HW2  923   3.009   1.321   1.389
 1301SOL     OW  924   3.454   1.629   1.625
 1301SOL    HW1  925   3.481   1.663   1.535
 1301SOL    HW2  926   3.533   1.591   1.671
 1302SOL     OW  927   2.973   1.195   1.100
 1302SOL    HW1  928   2.933   1.239   1.181
 1302SOL    HW2  929   2.932   1.232   1.017
 1305SOL     OW  930   2.842   1.116   1.719
 1305SOL    HW1  931   2.743   1.122   1.729
 1305SOL    HW2  932   2.865   1.036   1.663
 1307SOL     OW  933   2.272   0.813   1.251
 1307SOL    HW1  934   2.358   0.825   1.301
 1307SOL    HW2  935   2.230   0.726   1.278
 1309SOL     OW  936   1.926   1.564   1.331
 1309SOL    HW1  937   1.880   1.646   1.297
 1309SOL    HW2  938   2.024   1.583   1.340
 1313SOL     OW  939   3.134   1.445   1.142
 1313SOL    HW1  940   3.181   1.458   1.229
 1313SOL    HW2  941   3.068   1.371   1.151
 1315SOL     OW  942   2.216   1.510   1.329
 1315SOL    HW1  943   2.195   1.466   1.242
 1315SOL    HW2  944   2.313   1.536   1.332
 1316SOL     OW  945   2.264   0.751   1.598
 1316SOL    HW1  946   2.332   0.806   1.551
 1316SOL    HW2  947   2.304   0.663   1.625
 1324SOL     OW  948   1.899   1.310   1.282
 1324SOL    HW1  949   1.952   1.261   1.350
 1324SOL    HW2  950   1.921   1.408   1.287
 1330SOL     OW  951   2.842   1.573   1.700
 1330SOL    HW1  952   2.822   1.617   1.612
 1330SOL    HW2  953   2.881   1.482   1.684
 1331SOL     OW  954   3.721   1.518   1.605
 1331SOL    HW1  955   3.735   1.545   1.510
 1331SOL    HW2  956   3.804   1.540   1.658
 1332SOL     OW  957   2.212   0.898   1.804
 1332SOL    HW1  958   2.288   0.942   1.852
 1332SOL    HW2  959   2.247   0.851   1.722
 1335SOL     OW  960   2.930   1.333   0.849
 1335SOL    HW1  961   2.937   1.249   0.794
 1335SOL    HW2  962   2.992   1.402   0.813
 1341SOL     OW  963   1.950   1.801   0.927
 1341SOL    HW1  964   1.908   1.715   0.900
 1341SOL    HW2  965   2.044   1.804   0.893
 1342SOL     OW  966   2.366   1.568   0.910
 1342SOL    HW1  967   2.432   1.642   0.919
 1342SOL    HW2  968   2.410   1.489   0.868
 1345SOL     OW  969   2.051   0.520   1.722
 1345SOL    HW1  970   2.110   0.480   1.652
 1345SOL    HW2  971   1.993   0.591   1.681
 1346SOL     OW  972   3.231   0.950   1.660
 1346SOL    HW1  973   3.270   1.039   1.680
 1346SOL    HW2  974   3.241   0.930   1.563
 1349SOL     OW  975   2.114   1.564   1.744
 1349SOL    HW1  976   2.084   1.621   1.820
 1349SOL    HW2  977   2.107   1.467   1.770
 1351SOL     OW  978   2.792   1.678   1.465
 1351SOL    HW1  979   2.768   1.660   1.370
 1351SOL    HW2  980   2.822   1.772   1.475
 1353SOL     OW  981   2.021   1.137   1.466
 1353SOL    HW1  982   2.043   1.076   1.542
 1353SOL    HW2  983   2.031   1.088   1.380
 1357SOL     OW  984   3.114   1.731   1.128
 1357SOL    HW1  985   3.198   1.736   1.074
 1357SOL    HW2  986   3.091   1.635   1.146
 1358SOL     OW  987   1.945   1.258   1.022
 1358SOL    HW1  988   1.940   1.257   1.122
 1358SOL    HW2  989   1.862   1.217   0.984
 1359SOL     OW  990   2.550   1.662   1.716
 1359SOL    HW1  991   2.494   1.743   1.725
 1359SOL    HW2  992   2.602   1.666   1.630
 1363SOL     OW  993   1.992   1.794   1.851
 1363SOL    HW1  994   1.951   1.720   1.904
 1363SOL    HW2  995   2.056   1.845   1.909
 1365SOL     OW  996   2.692   1.273   1.422
 1365SOL    HW1  997   2.687   1.306   1.517
 1365SOL    HW2  998   2.606   1.292   1.376
 1367SOL     OW  999   3.512   1.720   1.394
 1367SOL    HW1 1000   3.565   1.730   1.310
 1367SOL    HW2 1001   3.485   1.810   1.428
 1371SOL     OW 1002   2.684   1.002   1.372
 1371SOL    HW1 1003   2.724   1.001   1.280
 1371SOL    HW2 1004   2.694   1.094   1.412
 1374SOL     OW 1005   2.234   1.288   1.490
 1374SOL    HW1 1006   2.221   1.381   1.456
 1374SOL    HW2 1007   2.150   1.236   1.477
 1381SOL     OW 1008   1.967   1.013   1.726
 1381SOL    HW1 1009   1.890   0.980   1.780
 1381SOL    HW2 1010   2.052   0.983   1.768
 1386SOL     OW 1011   2.475   0.842   1.431
 1386SOL    HW1 1012   2.531   0.923   1.414
 1386SOL    HW2 1013   2.534   0.762   1.434
 1387SOL     OW 1014   3.355   1.767   0.959
 1387SOL    HW1 1015   3.388   1.831   0.890
 1387SOL    HW2 1016   3.421   1.761   1.034
 1388SOL     OW 1017   2.578   0.565   1.708
 1388SOL    HW1 1018   2.597   0.630   1.782
 1388SOL    HW2 1019   2.638   0.485   1.717
 1389SOL     OW 1020   3.312   1.220   1.633
 1389SOL    HW1 1021   3.303   1.210   1.732
 1389SOL    HW2 1022   3.408   1.213   1.607
 1390SOL     OW 1023   2.252   1.741   1.560
 1390SOL    HW1 1024   2.161   1.782   1.558
 1390SOL    HW2 1025   2.245   1.647   1.592
 1397SOL     OW 1026   2.523   1.790   0.953
 1397SOL    HW1 1027   2.477   1.878   0.940
 1397SOL    HW2 1028   2.622   1.802   0.946
 1401SOL     OW 1029   2.083   1.314   1.844
 1401SOL    HW1 1030   2.018   1.241   1.823
 1401SOL    HW2 1031   2.087   1.328   1.942
 1403SOL     OW 1032   2.534   1.391   1.624
 1403SOL    HW1 1033   2.456   1.341   1.662
 1403SOL    HW2 1034   2.531   1.486   1.655
 1408SOL     OW 1035   2.674   1.586   0.687
 1408SOL    HW1 1036   2.706   1.596   0.593
 1408SOL    HW2 1037   2.595   1.524   0.689
 1412SOL     OW 1038   2.480   1.567   1.284
 1412SOL    HW1 1039   2.475   1.649   1.341
 1412SOL    HW2 1040   2.569   1.564   1.239
 1418SOL     OW 1041   2.092   0.628   1.975
 1418SOL    HW1 1042   1.999   0.626   2.012
 1418SOL    HW2 1043   2.093   0.589   1.883
 1421SOL     OW 1044   2.431   1.275   3.027
 1421SOL    HW1 1045   2.338   1.268   2.990
 1421SOL    HW2 1046   2.442   1.364   3.071
 1422SOL     OW 1047   3.417   1.511   2.565
 1422SOL    HW1 1048   3.360   1.495   2.646
 1422SOL    HW2 1049   3.358   1.521   2.485
 1423SOL     OW 1050   2.997   0.703   2.579
 1423SOL    HW1 1051   3.054   0.781   2.554
 1423SOL    HW2 1052   2.937   0.729   2.655
 1425SOL     OW 1053   2.630   1.144   2.885
 1425SOL    HW1 1054   2.552   1.161   2.945
 1425SOL    HW2 1055   2.664   1.231   2.849
 1427SOL     OW 1056   2.547   1.012   2.527
 1427SOL    HW1 1057   2.616   0.996   2.597
 1427SOL    HW2 1058   2.474   1.069   2.565
 1429SOL     OW 1059   2.197   1.435   2.923
 1429SOL    HW1 1060   2.119   1.404   2.870
 1429SOL    HW2 1061   2.255   1.493   2.866
 1430SOL     OW 1062   3.322   1.505   3.201
 1430SOL    HW1 1063   3.346   1.599   3.227
 1430SOL    HW2 1064   3.306   1.451   3.283
 1433SOL     OW 1065   2.093   1.713   2.345
 1433SOL    HW1 1066   2.127   1.790   2.399
 1433SOL    HW2 1067   2.137   1.713   2.255
 1434SOL     OW 1068   2.989   1.341   3.552
 1434SOL    HW1 1069   3.036   1.341   3.640
 1434SOL    HW2 1070   2.941   1.254   3.541
 1435SOL     OW 1071   2.092   1.434   2.400
 1435SOL    HW1 1072   2.066   1.530   2.400
 1435SOL    HW2 1073   2.021   1.380   2.445
 1436SOL     OW 1074   2.102   1.091   2.748
 1436SOL    HW1 1075   2.116   1.007   2.800
 1436SOL    HW2 1076   2.047   1.155   2.803
 1437SOL     OW 1077   2.482   1.786   3.301
 1437SOL    HW1 1078   2.390   1.769   3.336
 1437SOL    HW2 1079   2.510   1.878   3.327
 1438SOL     OW 1080   2.468   0.964   1.985
 1438SOL    HW1 1081   2.475   1.048   1.931
 1438SOL    HW2 1082   2.514   0.977   2.073
 1440SOL     OW 1083   1.984   0.643   2.425
 1440SOL    HW1 1084   1.939   0.555   2.442
 1440SOL    HW2 1085   1.983   0.697   2.509
 1441SOL     OW 1086   3.704   1.767   2.221
 1441SOL    HW1 1087   3.758   1.738   2.301
 1441SOL    HW2 1088   3.734   1.857   2.192
 1442SOL     OW 1089   1.889   1.596   1.979
 1442SOL    HW1 1090   1.870   1.500   2.000
 1442SOL    HW2 1091   1.856   1.654   2.054
 1444SOL     OW 1092   3.503   1.108   2.294
 1444SOL    HW1 1093   3.589   1.110   2.242
 1444SOL    HW2 1094   3.517   1.155   2.382
 1446SOL     OW 1095   2.475   1.365   2.588
 1446SOL    HW1 1096   2.426   1.278   2.597
 1446SOL    HW2 1097   2.452   1.408   2.501
 1447SOL     OW 1098   3.155   1.228   3.285
 1447SOL    HW1 1099   3.192   1.155   3.227
 1447SOL    HW2 1100   3.207   1.233   3.370
 1449SOL     OW 1101   2.059   0.976   3.126
 1449SOL    HW1 1102   2.148   0.931   3.112
 1449SOL    HW2 1103   1.986   0.911   3.107
 1450SOL     OW 1104   3.387   0.999   2.052
 1450SOL    HW1 1105   3.324   0.923   2.065
 1450SOL    HW2 1106   3.435   1.017   2.138
 1451SOL     OW 1107   3.049   1.792   3.478
 1451SOL    HW1 1108   3.073   1.852   3.402
 1451SOL    HW2 1109   3.056   1.697   3.448
 1453SOL     OW 1110   3.328   1.417   2.815
 1453SOL    HW1 1111   3.269   1.423   2.895
 1453SOL    HW2 1112   3.313   1.329   2.769
 1454SOL     OW 1113   3.529   1.714   2.434
 1454SOL    HW1 1114   3.488   1.691   2.346
 1454SOL    HW2 1115   3.511   1.640   2.499
 1455SOL     OW 1116   2.460   0.729   2.132
 1455SOL    HW1 1117   2.484   0.798   2.064
 1455SOL    HW2 1118   2.382   0.762   2.186
 1457SOL     OW 1119   3.438   1.662   2.169
 1457SOL    HW1 1120   3.527   1.708   2.172
 1457SOL    HW2 1121   3.417   1.638   2.074
 1462SOL     OW 1122   2.903   0.701   2.291
 1462SOL    HW1 1123   2.929   0.697   2.387
 1462SOL    HW2 1124   2.818   0.650   2.277
 1463SOL     OW 1125   1.938   0.811   2.651
 1463SOL    HW1 1126   2.037   0.799   2.660
 1463SOL    HW2 1127   1.914   0.906   2.672
 1464SOL     OW 1128   1.992   1.821   3.433
 1464SOL    HW1 1129   1.982   1.806   3.532
 1464SOL    HW2 1130   1.906   1.857   3.397
 1467SOL     OW 1131   3.224   1.144   2.407
 1467SOL    HW1 1132   3.307   1.115   2.359
 1467SOL    HW2 1133   3.175   1.211   2.351
 1469SOL     OW 1134   2.870   1.456   2.339
 1469SOL    HW1 1135   2.824   1.528   2.287
 1469SOL    HW2 1136   2.866   1.476   2.437
 1470SOL     OW 1137   2.213   1.801   2.715
 1470SOL    HW1 1138   2.263   1.715   2.721
 1470SOL    HW2 1139   2.278   1.878   2.712
 1472SOL     OW 1140   3.089   1.550   3.368
 1472SOL    HW1 1141   3.095   1.473   3.432
 1472SOL    HW2 1142   3.037   1.524   3.288
 1473SOL     OW 1143   2.183   0.943   2.104
 1473SOL    HW1 1144   2.265   0.982   2.062
 1473SOL    HW2 1145   2.156   0.861   2.055
 1475SOL     OW 1146   2.323   1.266   3.589
 1475SOL    HW1 1147   2.273   1.267   3.503
 1475SOL    HW2 1148   2.260   1.248   3.665
 1476SOL     OW 1149   2.973   1.776   2.099
 1476SOL    HW1 1150   2.913   1.714   2.149
 1476SOL    HW2 1151   3.004   1.732   2.014
 1478SOL     OW 1152   3.494   1.377   1.943
 1478SOL    HW1 1153   3.462   1.471   1.933
 1478SOL    HW2 1154   3.418   1.314   1.931
 1479SOL     OW 1155   2.326   1.743   2.185
 1479SOL    HW1 1156   2.359   1.782   2.271
 1479SOL    HW2 1157   2.402   1.736   2.120
 1481SOL     OW 1158   2.111   1.785   3.103
 1481SOL    HW1 1159   2.168   1.720   3.153
 1481SOL    HW2 1160   2.095   1.752   3.010
 1482SOL     OW 1161   2.802   1.698   2.766
 1482SOL    HW1 1162   2.882   1.641   2.787
 1482SOL    HW2 1163   2.753   1.658   2.689
 1483SOL     OW 1164   2.244   0.700   2.342
 1483SOL    HW1 1165   2.289   0.610   2.339
 1483SOL    HW2 1166   2.150   0.689   2.375
 1487SOL     OW 1167   2.750   1.514   3.057
 1487SOL    HW1 1168   2.727   1.489   2.963
 1487SOL    HW2 1169   2.811   1.445   3.096
 1489SOL     OW 1170   2.665   1.402   2.786
 1489SOL    HW1 1171   2.755   1.416   2.744
 1489SOL    HW2 1172   2.594   1.404   2.715
 1492SOL     OW 1173   3.296   1.188   1.903
 1492SOL    HW1 1174   3.328   1.112   1.960
 1492SOL    HW2 1175   3.204   1.215   1.933
 1496SOL     OW 1176   3.089   1.570   2.655
 1496SOL    HW1 1177   3.110   1.644   2.590
 1496SOL    HW2 1178   3.157   1.570   2.728
 1497SOL     OW 1179   2.321   1.152   2.603
 1497SOL    HW1 1180   2.250   1.125   2.668
 1497SOL    HW2 1181   2.295   1.124   2.510
 1498SOL     OW 1182   3.133   1.797   2.453
 1498SOL    HW1 1183   3.177   1.861   2.389
 1498SOL    HW2 1184   3.083   1.849   2.523
 1504SOL     OW 1185   3.291   1.173   2.729
 1504SOL    HW1 1186   3.236   1.089   2.722
 1504SOL    HW2 1187   3.317   1.202   2.637
 1507SOL     OW 1188   2.350   1.385   2.036
 1507SOL    HW1 1189   2.263   1.370   2.083
 1507SOL    HW2 1190   2.333   1.411   1.941
 1508SOL     OW 1191   3.526   1.280   2.519
 1508SOL    HW1 1192   3.625   1.288   2.533
 1508SOL    HW2 1193   3.481   1.364   2.550
 1512SOL     OW 1194   2.926   1.347   3.202
 1512SOL    HW1 1195   2.846   1.324   3.257
 1512SOL    HW2 1196   3.009   1.321   3.251
 1514SOL     OW 1197   2.973   1.195   2.962
 1514SOL    HW1 1198   2.933   1.239   3.043
 1514SOL    HW2 1199   2.932   1.232   2.879
 1518SOL     OW 1200   2.567   1.050   2.230
 1518SOL    HW1 1201   2.553   1.057   2.329
 1518SOL    HW2 1202   2.651   0.999   2.212
 1519SOL     OW 1203   2.272   0.813   3.113
 1519SOL    HW1 1204   2.358   0.825   3.163
 1519SOL    HW2 1205   2.230   0.726   3.140
 1521SOL     OW 1206   1.926   1.564   3.193
 1521SOL    HW1 1207   1.880   1.646   3.159
 1521SOL    HW2 1208   2.024   1.583   3.202
 1522SOL     OW 1209   2.229   1.100   2.363
 1522SOL    HW1 1210   2.222   1.183   2.307
 1522SOL    HW2 1211   2.233   1.020   2.303
 1523SOL     OW 1212   2.428   0.537   2.727
 1523SOL    HW1 1213   2.440   0.603   2.653
 1523SOL    HW2 1214   2.474   0.571   2.810
 1524SOL     OW 1215   3.114   1.348   2.250
 1524SOL    HW1 1216   3.164   1.425   2.290
 1524SOL    HW2 1217   3.019   1.350   2.282
 1525SOL     OW 1218   3.134   1.445   3.004
 1525SOL    HW1 1219   3.181   1.458   3.091
 1525SOL    HW2 1220   3.068   1.371   3.013
 1527SOL     OW 1221   2.216   1.510   3.191
 1527SOL    HW1 1222   2.195   1.466   3.104
 1527SOL    HW2 1223   2.313   1.536   3.194
 1532SOL     OW 1224   2.435   0.870   2.891
 1532SOL    HW1 1225   2.479   0.959   2.882
 1532SOL    HW2 1226   2.372   0.870   2.968
 1536SOL     OW 1227   1.899   1.310   3.144
 1536SOL    HW1 1228   1.952   1.261   3.212
 1536SOL    HW2 1229   1.921   1.408   3.149
 1537SOL     OW 1230   2.594   0.634   2.926
 1537SOL    HW1 1231   2.653   0.608   2.850
 1537SOL    HW2 1232   2.566   0.730   2.915
 1541SOL     OW 1233   2.885   0.766   2.828
 1541SOL    HW1 1234   2.900   0.787   2.924
 1541SOL    HW2 1235   2.855   0.671   2.819
 1542SOL     OW 1236   2.842   1.573   3.562
 1542SOL    HW1 1237   2.822   1.617   3.474
 1542SOL    HW2 1238   2.881   1.482   3.546
 1546SOL     OW 1239   3.165   0.838   1.904
 1546SOL    HW1 1240   3.199   0.745   1.919
 1546SOL    HW2 1241   3.183   0.865   1.809
 1547SOL     OW 1242   2.930   1.333   2.711
 1547SOL    HW1 1243   2.937   1.249   2.656
 1547SOL    HW2 1244   2.992   1.402   2.675
 1548SOL     OW 1245   2.181   0.810   2.811
 1548SOL    HW1 1246   2.274   0.846   2.816
 1548SOL    HW2 1247   2.175   0.725   2.863
 1552SOL     OW 1248   1.870   1.326   2.062
 1552SOL    HW1 1249   1.777   1.347   2.031
 1552SOL    HW2 1250   1.880   1.227   2.075
 1553SOL     OW 1251   1.950   1.801   2.789
 1553SOL    HW1 1252   1.908   1.715   2.762
 1553SOL    HW2 1253   2.044   1.804   2.755
 1554SOL     OW 1254   2.366   1.568   2.772
 1554SOL    HW1 1255   2.432   1.642   2.781
 1554SOL    HW2 1256   2.410   1.489   2.730
 1555SOL     OW 1257   2.864   0.796   3.100
 1555SOL    HW1 1258   2.905   0.764   3.186
 1555SOL    HW2 1259   2.768   0.769   3.097
 1559SOL     OW 1260   2.677   0.572   2.187
 1559SOL    HW1 1261   2.684   0.483   2.141
 1559SOL    HW2 1262   2.583   0.606   2.179
 1561SOL     OW 1263   2.114   1.564   3.606
 1561SOL    HW1 1264   2.084   1.621   3.682
 1561SOL    HW2 1265   2.107   1.467   3.632
 1563SOL     OW 1266   2.792   1.678   3.327
 1563SOL    HW1 1267   2.768   1.660   3.232
 1563SOL    HW2 1268   2.822   1.772   3.337
 1564SOL     OW 1269   2.335   0.500   2.053
 1564SOL    HW1 1270   2.396   0.580   2.057
 1564SOL    HW2 1271   2.240   0.531   2.060
 1565SOL     OW 1272   2.021   1.137   3.328
 1565SOL    HW1 1273   2.043   1.076   3.404
 1565SOL    HW2 1274   2.031   1.088   3.242
 1566SOL     OW 1275   3.209   1.059   3.096
 1566SOL    HW1 1276   3.233   0.996   3.022
 1566SOL    HW2 1277   3.119   1.099   3.078
 1567SOL     OW 1278   3.164   0.855   2.171
 1567SOL    HW1 1279   3.078   0.824   2.213
 1567SOL    HW2 1280   3.160   0.841   2.072
 1568SOL     OW 1281   3.621   1.747   3.016
 1568SOL    HW1 1282   3.682   1.777   2.943
 1568SOL    HW2 1283   3.583   1.658   2.994
 1569SOL     OW 1284   3.114   1.731   2.990
 1569SOL    HW1 1285   3.198   1.736   2.936
 1569SOL    HW2 1286   3.091   1.635   3.008
 1570SOL     OW 1287   1.945   1.258   2.884
 1570SOL    HW1 1288   1.940   1.257   2.984
 1570SOL    HW2 1289   1.862   1.217   2.846
 1571SOL     OW 1290   2.550   1.662   3.578
 1571SOL    HW1 1291   2.494   1.743   3.587
 1571SOL    HW2 1292   2.602   1.666   3.492
 1573SOL     OW 1293   3.250   1.573   2.339
 1573SOL    HW1 1294   3.317   1.585   2.265
 1573SOL    HW2 1295   3.210   1.662   2.362
 1574SOL     OW 1296   1.992   1.794   3.713
 1574SOL    HW1 1297   1.951   1.720   3.766
 1574SOL    HW2 1298   2.056   1.845   3.771
 1575SOL     OW 1299   3.142   0.927   2.534
 1575SOL    HW1 1300   3.202   0.846   2.536
 1575SOL    HW2 1301   3.182   0.996   2.474
 1576SOL     OW 1302   2.692   1.273   3.284
 1576SOL    HW1 1303   2.687   1.306   3.379
 1576SOL    HW2 1304   2.606   1.292   3.238
 1577SOL     OW 1305   2.534   1.616   2.016
 1577SOL    HW1 1306   2.543   1.626   1.917
 1577SOL    HW2 1307   2.494   1.527   2.037
 1578SOL     OW 1308   3.512   1.720   3.256
 1578SOL    HW1 1309   3.565   1.730   3.172
 1578SOL    HW2 1310   3.485   1.810   3.290
 1581SOL     OW 1311   3.056   1.612   1.893
 1581SOL    HW1 1312   3.062   1.519   1.930
 1581SOL    HW2 1313   2.997   1.612   1.813
 1582SOL     OW 1314   2.684   1.002   3.234
 1582SOL    HW1 1315   2.724   1.001   3.142
 1582SOL    HW2 1316   2.694   1.094   3.274
 1583SOL     OW 1317   2.778   0.910   2.153
 1583SOL    HW1 1318   2.841   0.948   2.085
 1583SOL    HW2 1319   2.818   0.827   2.192
 1584SOL     OW 1320   3.366   1.607   1.906
 1584SOL    HW1 1321   3.274   1.644   1.913
 1584SOL    HW2 1322   3.404   1.627   1.816
 1585SOL     OW 1323   2.234   1.288   3.352
 1585SOL    HW1 1324   2.221   1.381   3.318
 1585SOL    HW2 1325   2.150   1.236   3.339
 1587SOL     OW 1326   2.901   1.098   2.558
 1587SOL    HW1 1327   2.831   1.051   2.612
 1587SOL    HW2 1328   2.960   1.030   2.515
 1589SOL     OW 1329   2.452   1.487   2.353
 1589SOL    HW1 1330   2.494   1.429   2.283
 1589SOL    HW2 1331   2.408   1.566   2.309
 1591SOL     OW 1332   2.117   1.348   2.152
 1591SOL    HW1 1333   2.021   1.349   2.125
 1591SOL    HW2 1334   2.129   1.401   2.236
 1597SOL     OW 1335   3.045   1.335   1.981
 1597SOL    HW1 1336   2.946   1.324   1.983
 1597SOL    HW2 1337   3.079   1.350   2.074
 1598SOL     OW 1338   2.475   0.842   3.293
 1598SOL    HW1 1339   2.531   0.923   3.276
 1598SOL    HW2 1340   2.534   0.762   3.296
 1599SOL     OW 1341   3.355   1.767   2.821
 1599SOL    HW1 1342   3.388   1.831   2.752
 1599SOL    HW2 1343   3.421   1.761   2.896
 1602SOL     OW 1344   2.252   1.741   3.422
 1602SOL    HW1 1345   2.161   1.782   3.420
 1602SOL    HW2 1346   2.245   1.647   3.454
 1605SOL     OW 1347   2.456   0.745   2.514
 1605SOL    HW1 1348   2.506   0.830   2.495
 1605SOL    HW2 1349   2.368   0.747   2.466
 1608SOL     OW 1350   2.721   1.374   1.878
 1608SOL    HW1 1351   2.675   1.389   1.966
 1608SOL    HW2 1352   2.765   1.459   1.848
 1609SOL     OW 1353   2.523   1.790   2.815
 1609SOL    HW1 1354   2.477   1.878   2.802
 1609SOL    HW2 1355   2.622   1.802   2.808
 1610SOL     OW 1356   2.721   0.956   2.723
 1610SOL    HW1 1357   2.775   0.887   2.771
 1610SOL    HW2 1358   2.689   1.025   2.789
 1611SOL     OW 1359   2.945   0.984   1.949
 1611SOL    HW1 1360   2.922   1.037   1.867
 1611SOL    HW2 1361   3.026   0.928   1.930
 1612SOL     OW 1362   3.723   1.569   2.713
 1612SOL    HW1 1363   3.652   1.557   2.643
 1612SOL    HW2 1364   3.724   1.490   2.773
 1613SOL     OW 1365   2.083   1.314   3.706
 1613SOL    HW1 1366   2.018   1.241   3.685
 1613SOL    HW2 1367   2.087   1.328   3.804
 1614SOL     OW 1368   1.941   1.240   2.515
 1614SOL    HW1 1369   1.940   1.193   2.603
 1614SOL    HW2 1370   2.023   1.212   2.464
 1615SOL     OW 1371   2.534   1.391   3.486
 1615SOL    HW1 1372   2.456   1.341   3.524
 1615SOL    HW2 1373   2.531   1.486   3.517
 1618SOL     OW 1374   3.567   1.487   2.966
 1618SOL    HW1 1375   3.474   1.462   2.939
 1618SOL    HW2 1376   3.593   1.437   3.048
 1620SOL     OW 1377   2.674   1.586   2.549
 1620SOL    HW1 1378   2.706   1.596   2.455
 1620SOL    HW2 1379   2.595   1.524   2.551
 1623SOL     OW 1380   2.632   1.330   2.163
 1623SOL    HW1 1381   2.586   1.243   2.180
 1623SOL    HW2 1382   2.723   1.327   2.204
 1624SOL     OW 1383   2.480   1.567   3.146
 1624SOL    HW1 1384   2.475   1.649   3.203
 1624SOL    HW2 1385   2.569   1.564   3.101
 1628SOL     OW 1386   1.901   1.077   2.162
 1628SOL    HW1 1387   2.000   1.066   2.153
 1628SOL    HW2 1388   1.861   0.991   2.194
 1629SOL     OW 1389   2.737   1.646   2.199
 1629SOL    HW1 1390   2.660   1.611   2.145
 1629SOL    HW2 1391   2.705   1.717   2.261
 1637SOL     OW 1392   1.889   1.596   3.841
 1637SOL    HW1 1393   1.870   1.500   3.862
 1637SOL    HW2 1394   1.856   1.654   3.916
 1687SOL     OW 1395   2.534   1.616   3.878
 1687SOL    HW1 1396   2.543   1.626   3.779
 1687SOL    HW2 1397   2.494   1.527   3.899
 1710SOL     OW 1398   2.087   2.137   0.996
 1710SOL    HW1 1399   2.122   2.120   1.088
 1710SOL    HW2 1400   1.999   2.092   0.984
 1711SOL     OW 1401   1.881   2.230   0.647
 1711SOL    HW1 1402   1.799   2.273   0.686
 1711SOL    HW2 1403   1.853   2.157   0.584
 1712SOL     OW 1404   2.431   3.137   1.165
 1712SOL    HW1 1405   2.338   3.130   1.128
 1712SOL    HW2 1406   2.442   3.226   1.209
 1714SOL     OW 1407   2.997   2.565   0.717
 1714SOL    HW1 1408   3.054   2.643   0.692
 1714SOL    HW2 1409   2.937   2.591   0.793
 1716SOL     OW 1410   2.630   3.006   1.023
 1716SOL    HW1 1411   2.552   3.023   1.083
 1716SOL    HW2 1412   2.664   3.093   0.987
 1717SOL     OW 1413   2.712   2.660   1.823
 1717SOL    HW1 1414   2.708   2.736   1.888
 1717SOL    HW2 1415   2.734   2.696   1.732
 1718SOL     OW 1416   2.547   2.874   0.665
 1718SOL    HW1 1417   2.616   2.858   0.735
 1718SOL    HW2 1418   2.474   2.931   0.703
 1719SOL     OW 1419   2.548   3.023   1.803
 1719SOL    HW1 1420   2.608   3.102   1.817
 1719SOL    HW2 1421   2.462   3.054   1.762
 1720SOL     OW 1422   2.197   3.297   1.061
 1720SOL    HW1 1423   2.119   3.266   1.008
 1720SOL    HW2 1424   2.255   3.355   1.004
 1722SOL     OW 1425   2.300   2.254   1.499
 1722SOL    HW1 1426   2.382   2.198   1.508
 1722SOL    HW2 1427   2.219   2.196   1.503
 1725SOL     OW 1428   2.989   3.203   1.690
 1725SOL    HW1 1429   3.036   3.203   1.778
 1725SOL    HW2 1430   2.941   3.116   1.679
 1727SOL     OW 1431   2.102   2.953   0.886
 1727SOL    HW1 1432   2.116   2.869   0.938
 1727SOL    HW2 1433   2.047   3.017   0.941
 1728SOL     OW 1434   2.482   3.648   1.439
 1728SOL    HW1 1435   2.390   3.631   1.474
 1728SOL    HW2 1436   2.510   3.740   1.465
 1730SOL     OW 1437   3.456   1.976   1.480
 1730SOL    HW1 1438   3.438   2.043   1.408
 1730SOL    HW2 1439   3.453   2.022   1.569
 1731SOL     OW 1440   1.984   2.505   0.563
 1731SOL    HW1 1441   1.939   2.417   0.580
 1731SOL    HW2 1442   1.983   2.559   0.647
 1736SOL     OW 1443   1.975   2.599   1.597
 1736SOL    HW1 1444   2.063   2.586   1.642
 1736SOL    HW2 1445   1.962   2.696   1.575
 1738SOL     OW 1446   3.155   3.090   1.423
 1738SOL    HW1 1447   3.192   3.017   1.365
 1738SOL    HW2 1448   3.207   3.095   1.508
 1740SOL     OW 1449   2.059   2.838   1.264
 1740SOL    HW1 1450   2.148   2.793   1.250
 1740SOL    HW2 1451   1.986   2.773   1.245
 1742SOL     OW 1452   3.049   3.654   1.616
 1742SOL    HW1 1453   3.073   3.714   1.540
 1742SOL    HW2 1454   3.056   3.559   1.586
 1743SOL     OW 1455   2.179   2.113   1.801
 1743SOL    HW1 1456   2.250   2.184   1.807
 1743SOL    HW2 1457   2.091   2.152   1.829
 1747SOL     OW 1458   3.143   2.207   0.944
 1747SOL    HW1 1459   3.057   2.157   0.931
 1747SOL    HW2 1460   3.205   2.153   1.000
 1749SOL     OW 1461   2.669   2.467   1.465
 1749SOL    HW1 1462   2.622   2.464   1.554
 1749SOL    HW2 1463   2.618   2.412   1.399
 1750SOL     OW 1464   3.256   2.331   1.674
 1750SOL    HW1 1465   3.236   2.374   1.762
 1750SOL    HW2 1466   3.334   2.269   1.683
 1751SOL     OW 1467   2.835   2.752   1.572
 1751SOL    HW1 1468   2.881   2.668   1.543
 1751SOL    HW2 1469   2.779   2.786   1.497
 1752SOL     OW 1470   2.853   2.272   1.242
 1752SOL    HW1 1471   2.776   2.306   1.296
 1752SOL    HW2 1472   2.819   2.221   1.163
 1754SOL     OW 1473   1.938   2.673   0.789
 1754SOL    HW1 1474   2.037   2.661   0.798
 1754SOL    HW2 1475   1.914   2.768   0.810
 1755SOL     OW 1476   1.992   3.683   1.571
 1755SOL    HW1 1477   1.982   3.668   1.670
 1755SOL    HW2 1478   1.906   3.719   1.535
 1757SOL     OW 1479   3.581   2.447   1.831
 1757SOL    HW1 1480   3.555   2.536   1.795
 1757SOL    HW2 1481   3.579   2.379   1.758
 1759SOL     OW 1482   2.412   2.058   0.885
 1759SOL    HW1 1483   2.407   2.053   0.985
 1759SOL    HW2 1484   2.414   2.154   0.856
 1763SOL     OW 1485   3.089   3.412   1.506
 1763SOL    HW1 1486   3.095   3.335   1.570
 1763SOL    HW2 1487   3.037   3.386   1.426
 1766SOL     OW 1488   2.323   3.128   1.727
 1766SOL    HW1 1489   2.273   3.129   1.641
 1766SOL    HW2 1490   2.260   3.110   1.803
 1768SOL     OW 1491   2.064   2.147   1.498
 1768SOL    HW1 1492   1.984   2.207   1.485
 1768SOL    HW2 1493   2.054   2.098   1.584
 1772SOL     OW 1494   2.111   3.647   1.241
 1772SOL    HW1 1495   2.168   3.582   1.291
 1772SOL    HW2 1496   2.095   3.614   1.148
 1774SOL     OW 1497   2.244   2.562   0.480
 1774SOL    HW1 1498   2.289   2.472   0.477
 1774SOL    HW2 1499   2.150   2.551   0.513
 1775SOL     OW 1500   3.409   2.084   1.729
 1775SOL    HW1 1501   3.404   2.121   1.821
 1775SOL    HW2 1502   3.337   2.015   1.717
 1777SOL     OW 1503   2.643   2.126   1.749
 1777SOL    HW1 1504   2.710   2.065   1.792
 1777SOL    HW2 1505   2.570   2.145   1.814
 1778SOL     OW 1506   2.750   3.376   1.195
 1778SOL    HW1 1507   2.727   3.351   1.101
 1778SOL    HW2 1508   2.811   3.307   1.234
 1779SOL     OW 1509   3.213   2.452   1.433
 1779SOL    HW1 1510   3.241   2.409   1.518
 1779SOL    HW2 1511   3.238   2.548   1.434
 1780SOL     OW 1512   2.665   3.264   0.924
 1780SOL    HW1 1513   2.755   3.278   0.882
 1780SOL    HW2 1514   2.594   3.266   0.853
 1781SOL     OW 1515   2.784   2.365   0.899
 1781SOL    HW1 1516   2.759   2.356   0.803
 1781SOL    HW2 1517   2.832   2.283   0.930
 1782SOL     OW 1518   2.401   1.926   0.512
 1782SOL    HW1 1519   2.320   1.927   0.570
 1782SOL    HW2 1520   2.404   2.009   0.457
 1785SOL     OW 1521   2.938   2.545   1.464
 1785SOL    HW1 1522   2.858   2.484   1.467
 1785SOL    HW2 1523   3.019   2.492   1.440
 1787SOL     OW 1524   2.321   3.014   0.741
 1787SOL    HW1 1525   2.250   2.987   0.806
 1787SOL    HW2 1526   2.295   2.986   0.648
 1790SOL     OW 1527   1.940   2.418   1.386
 1790SOL    HW1 1528   2.032   2.417   1.345
 1790SOL    HW2 1529   1.934   2.492   1.453
 1791SOL     OW 1530   2.423   2.084   1.147
 1791SOL    HW1 1531   2.461   2.000   1.184
 1791SOL    HW2 1532   2.335   2.103   1.191
 1792SOL     OW 1533   2.728   2.316   0.642
 1792SOL    HW1 1534   2.696   2.388   0.580
 1792SOL    HW2 1535   2.752   2.235   0.589
 1793SOL     OW 1536   2.879   1.901   0.753
 1793SOL    HW1 1537   2.807   1.906   0.684
 1793SOL    HW2 1538   2.855   1.832   0.822
 1795SOL     OW 1539   3.328   2.452   0.992
 1795SOL    HW1 1540   3.298   2.357   0.999
 1795SOL    HW2 1541   3.401   2.468   1.058
 1801SOL     OW 1542   3.616   3.085   1.588
 1801SOL    HW1 1543   3.707   3.046   1.575
 1801SOL    HW2 1544   3.624   3.181   1.612
 1802SOL     OW 1545   2.926   3.209   1.340
 1802SOL    HW1 1546   2.846   3.186   1.395
 1802SOL    HW2 1547   3.009   3.183   1.389
 1804SOL     OW 1548   2.973   3.057   1.100
 1804SOL    HW1 1549   2.933   3.101   1.181
 1804SOL    HW2 1550   2.932   3.094   1.017
 1806SOL     OW 1551   2.777   1.951   1.402
 1806SOL    HW1 1552   2.802   1.931   1.307
 1806SOL    HW2 1553   2.849   2.007   1.444
 1807SOL     OW 1554   2.842   2.978   1.719
 1807SOL    HW1 1555   2.743   2.984   1.729
 1807SOL    HW2 1556   2.865   2.898   1.663
 1809SOL     OW 1557   2.272   2.675   1.251
 1809SOL    HW1 1558   2.358   2.687   1.301
 1809SOL    HW2 1559   2.230   2.588   1.278
 1810SOL     OW 1560   3.136   2.248   1.262
 1810SOL    HW1 1561   3.157   2.322   1.326
 1810SOL    HW2 1562   3.047   2.265   1.219
 1811SOL     OW 1563   1.926   3.426   1.331
 1811SOL    HW1 1564   1.880   3.508   1.297
 1811SOL    HW2 1565   2.024   3.445   1.340
 1813SOL     OW 1566   2.428   2.399   0.865
 1813SOL    HW1 1567   2.440   2.465   0.791
 1813SOL    HW2 1568   2.474   2.433   0.948
 1815SOL     OW 1569   3.134   3.307   1.142
 1815SOL    HW1 1570   3.181   3.320   1.229
 1815SOL    HW2 1571   3.068   3.233   1.151
 1817SOL     OW 1572   2.216   3.372   1.329
 1817SOL    HW1 1573   2.195   3.328   1.242
 1817SOL    HW2 1574   2.313   3.398   1.332
 1818SOL     OW 1575   2.264   2.613   1.598
 1818SOL    HW1 1576   2.332   2.668   1.551
 1818SOL    HW2 1577   2.304   2.525   1.625
 1819SOL     OW 1578   3.449   2.641   1.670
 1819SOL    HW1 1579   3.357   2.679   1.665
 1819SOL    HW2 1580   3.509   2.688   1.605
 1820SOL     OW 1581   2.875   1.967   1.770
 1820SOL    HW1 1582   2.881   2.052   1.718
 1820SOL    HW2 1583   2.907   1.891   1.713
 1821SOL     OW 1584   2.366   1.912   1.740
 1821SOL    HW1 1585   2.324   1.855   1.670
 1821SOL    HW2 1586   2.300   1.981   1.772
 1822SOL     OW 1587   2.435   2.732   1.029
 1822SOL    HW1 1588   2.479   2.821   1.020
 1822SOL    HW2 1589   2.372   2.732   1.106
 1823SOL     OW 1590   3.222   2.724   1.045
 1823SOL    HW1 1591   3.147   2.724   0.979
 1823SOL    HW2 1592   3.259   2.632   1.054
 1825SOL     OW 1593   2.169   2.075   1.231
 1825SOL    HW1 1594   2.146   2.112   1.321
 1825SOL    HW2 1595   2.139   1.980   1.225
 1826SOL     OW 1596   1.899   3.172   1.282
 1826SOL    HW1 1597   1.952   3.123   1.350
 1826SOL    HW2 1598   1.921   3.270   1.287
 1827SOL     OW 1599   2.594   2.496   1.064
 1827SOL    HW1 1600   2.653   2.470   0.988
 1827SOL    HW2 1601   2.566   2.592   1.053
 1828SOL     OW 1602   3.590   2.797   1.854
 1828SOL    HW1 1603   3.544   2.790   1.765
 1828SOL    HW2 1604   3.528   2.841   1.920
 1829SOL     OW 1605   2.169   1.925   0.618
 1829SOL    HW1 1606   2.158   2.019   0.651
 1829SOL    HW2 1607   2.164   1.862   0.695
 1831SOL     OW 1608   2.885   2.628   0.966
 1831SOL    HW1 1609   2.900   2.649   1.062
 1831SOL    HW2 1610   2.855   2.533   0.957
 1832SOL     OW 1611   2.842   3.435   1.700
 1832SOL    HW1 1612   2.822   3.479   1.612
 1832SOL    HW2 1613   2.881   3.344   1.684
 1834SOL     OW 1614   2.212   2.760   1.804
 1834SOL    HW1 1615   2.288   2.804   1.852
 1834SOL    HW2 1616   2.247   2.713   1.722
 1838SOL     OW 1617   2.181   2.672   0.949
 1838SOL    HW1 1618   2.274   2.708   0.954
 1838SOL    HW2 1619   2.175   2.587   1.001
 1839SOL     OW 1620   2.201   2.371   1.006
 1839SOL    HW1 1621   2.149   2.288   0.989
 1839SOL    HW2 1622   2.278   2.376   0.942
 1840SOL     OW 1623   3.000   2.242   1.678
 1840SOL    HW1 1624   2.955   2.305   1.742
 1840SOL    HW2 1625   3.093   2.273   1.661
 1841SOL     OW 1626   3.022   2.069   1.477
 1841SOL    HW1 1627   3.022   2.133   1.554
 1841SOL    HW2 1628   3.050   2.117   1.394
 1844SOL     OW 1629   2.366   3.430   0.910
 1844SOL    HW1 1630   2.432   3.504   0.919
 1844SOL    HW2 1631   2.410   3.351   0.868
 1845SOL     OW 1632   2.864   2.658   1.238
 1845SOL    HW1 1633   2.905   2.626   1.324
 1845SOL    HW2 1634   2.768   2.631   1.235
 1846SOL     OW 1635   1.902   2.406   1.114
 1846SOL    HW1 1636   1.987   2.373   1.073
 1846SOL    HW2 1637   1.915   2.421   1.212
 1847SOL     OW 1638   2.051   2.382   1.722
 1847SOL    HW1 1639   2.110   2.342   1.652
 1847SOL    HW2 1640   1.993   2.453   1.681
 1848SOL     OW 1641   3.231   2.812   1.660
 1848SOL    HW1 1642   3.270   2.901   1.680
 1848SOL    HW2 1643   3.241   2.792   1.563
 1850SOL     OW 1644   3.519   2.466   1.206
 1850SOL    HW1 1645   3.481   2.397   1.268
 1850SOL    HW2 1646   3.601   2.430   1.162
 1851SOL     OW 1647   2.114   3.426   1.744
 1851SOL    HW1 1648   2.084   3.483   1.820
 1851SOL    HW2 1649   2.107   3.329   1.770
 1852SOL     OW 1650   2.533   2.326   1.269
 1852SOL    HW1 1651   2.499   2.237   1.239
 1852SOL    HW2 1652   2.559   2.380   1.189
 1853SOL     OW 1653   2.792   3.540   1.465
 1853SOL    HW1 1654   2.768   3.522   1.370
 1853SOL    HW2 1655   2.822   3.634   1.475
 1855SOL     OW 1656   2.021   2.999   1.466
 1855SOL    HW1 1657   2.043   2.938   1.542
 1855SOL    HW2 1658   2.031   2.950   1.380
 1856SOL     OW 1659   3.209   2.921   1.234
 1856SOL    HW1 1660   3.233   2.858   1.160
 1856SOL    HW2 1661   3.119   2.961   1.216
 1860SOL     OW 1662   1.945   3.120   1.022
 1860SOL    HW1 1663   1.940   3.119   1.122
 1860SOL    HW2 1664   1.862   3.079   0.984
 1861SOL     OW 1665   2.550   3.524   1.716
 1861SOL    HW1 1666   2.494   3.605   1.725
 1861SOL    HW2 1667   2.602   3.528   1.630
 1865SOL     OW 1668   1.992   3.656   1.851
 1865SOL    HW1 1669   1.951   3.582   1.904
 1865SOL    HW2 1670   2.056   3.707   1.909
 1867SOL     OW 1671   2.692   3.135   1.422
 1867SOL    HW1 1672   2.687   3.168   1.517
 1867SOL    HW2 1673   2.606   3.154   1.376
 1871SOL     OW 1674   2.125   2.188   0.720
 1871SOL    HW1 1675   2.046   2.239   0.686
 1871SOL    HW2 1676   2.116   2.173   0.818
 1873SOL     OW 1677   2.684   2.864   1.372
 1873SOL    HW1 1678   2.724   2.863   1.280
 1873SOL    HW2 1679   2.694   2.956   1.412
 1876SOL     OW 1680   2.234   3.150   1.490
 1876SOL    HW1 1681   2.221   3.243   1.456
 1876SOL    HW2 1682   2.150   3.098   1.477
 1879SOL     OW 1683   2.876   2.098   0.971
 1879SOL    HW1 1684   2.868   2.062   0.878
 1879SOL    HW2 1685   2.874   2.022   1.036
 1881SOL     OW 1686   3.571   2.247   1.381
 1881SOL    HW1 1687   3.644   2.316   1.385
 1881SOL    HW2 1688   3.599   2.172   1.322
 1883SOL     OW 1689   1.967   2.875   1.726
 1883SOL    HW1 1690   1.890   2.842   1.780
 1883SOL    HW2 1691   2.052   2.845   1.768
 1884SOL     OW 1692   2.534   2.065   1.489
 1884SOL    HW1 1693   2.624   2.049   1.449
 1884SOL    HW2 1694   2.542   2.070   1.588
 1886SOL     OW 1695   3.302   2.718   1.398
 1886SOL    HW1 1696   3.245   2.770   1.335
 1886SOL    HW2 1697   3.398   2.730   1.374
 1888SOL     OW 1698   2.475   2.704   1.431
 1888SOL    HW1 1699   2.531   2.785   1.414
 1888SOL    HW2 1700   2.534   2.624   1.434
 1890SOL     OW 1701   2.578   2.427   1.708
 1890SOL    HW1 1702   2.597   2.492   1.782
 1890SOL    HW2 1703   2.638   2.347   1.717
 1891SOL     OW 1704   3.312   3.082   1.633
 1891SOL    HW1 1705   3.303   3.072   1.732
 1891SOL    HW2 1706   3.408   3.075   1.607
 1892SOL     OW 1707   2.252   3.603   1.560
 1892SOL    HW1 1708   2.161   3.644   1.558
 1892SOL    HW2 1709   2.245   3.509   1.592
 1893SOL     OW 1710   3.536   2.745   1.254
 1893SOL    HW1 1711   3.509   2.656   1.217
 1893SOL    HW2 1712   3.537   2.813   1.181
 1895SOL     OW 1713   2.456   2.607   0.652
 1895SOL    HW1 1714   2.506   2.692   0.633
 1895SOL    HW2 1715   2.368   2.609   0.604
 1896SOL     OW 1716   3.639   2.204   1.642
 1896SOL    HW1 1717   3.622   2.235   1.548
 1896SOL    HW2 1718   3.555   2.167   1.680
 1897SOL     OW 1719   3.592   2.796   1.517
 1897SOL    HW1 1720   3.630   2.887   1.532
 1897SOL    HW2 1721   3.584   2.779   1.418
 1900SOL     OW 1722   2.721   2.818   0.861
 1900SOL    HW1 1723   2.775   2.749   0.909
 1900SOL    HW2 1724   2.689   2.887   0.927
 1903SOL     OW 1725   2.083   3.176   1.844
 1903SOL    HW1 1726   2.018   3.103   1.823
 1903SOL    HW2 1727   2.087   3.190   1.942
 1905SOL     OW 1728   2.534   3.253   1.624
 1905SOL    HW1 1729   2.456   3.203   1.662
 1905SOL    HW2 1730   2.531   3.348   1.655
 1906SOL     OW 1731   3.686   2.054   1.227
 1906SOL    HW1 1732   3.682   1.964   1.271
 1906SOL    HW2 1733   3.689   2.043   1.128
 1907SOL     OW 1734   2.290   2.286   0.520
 1907SOL    HW1 1735   2.320   2.214   0.458
 1907SOL    HW2 1736   2.251   2.246   0.603
 1909SOL     OW 1737   2.179   2.409   1.280
 1909SOL    HW1 1738   2.217   2.350   1.352
 1909SOL    HW2 1739   2.219   2.383   1.192
 1911SOL     OW 1740   3.286   2.076   1.112
 1911SOL    HW1 1741   3.338   2.011   1.167
 1911SOL    HW2 1742   3.237   2.139   1.173
 1912SOL     OW 1743   2.863   1.896   1.154
 1912SOL    HW1 1744   2.800   1.824   1.123
 1912SOL    HW2 1745   2.956   1.860   1.154
 1914SOL     OW 1746   2.480   3.429   1.284
 1914SOL    HW1 1747   2.475   3.511   1.341
 1914SOL    HW2 1748   2.569   3.426   1.239
 1916SOL     OW 1749   3.162   2.315   0.691
 1916SOL    HW1 1750   3.103   2.395   0.695
 1916SOL    HW2 1751   3.177   2.280   0.784
 1920SOL     OW 1752   2.092   2.490   1.975
 1920SOL    HW1 1753   1.999   2.488   2.012
 1920SOL    HW2 1754   2.093   2.451   1.883
 1921SOL     OW 1755   2.087   2.137   2.858
 1921SOL    HW1 1756   2.122   2.120   2.950
 1921SOL    HW2 1757   1.999   2.092   2.846
 1922SOL     OW 1758   1.881   2.230   2.509
 1922SOL    HW1 1759   1.799   2.273   2.548
 1922SOL    HW2 1760   1.853   2.157   2.446
 1923SOL     OW 1761   2.431   3.137   3.027
 1923SOL    HW1 1762   2.338   3.130   2.990
 1923SOL    HW2 1763   2.442   3.226   3.071
 1924SOL     OW 1764   3.417   3.373   2.565
 1924SOL    HW1 1765   3.360   3.357   2.646
 1924SOL    HW2 1766   3.358   3.383   2.485
 1925SOL     OW 1767   2.997   2.565   2.579
 1925SOL    HW1 1768   3.054   2.643   2.554
 1925SOL    HW2 1769   2.937   2.591   2.655
 1926SOL     OW 1770   3.617   2.469   2.093
 1926SOL    HW1 1771   3.605   2.456   1.994
 1926SOL    HW2 1772   3.587   2.388   2.142
 1927SOL     OW 1773   2.630   3.006   2.885
 1927SOL    HW1 1774   2.552   3.023   2.945
 1927SOL    HW2 1775   2.664   3.093   2.849
 1928SOL     OW 1776   2.712   2.660   3.685
 1928SOL    HW1 1777   2.708   2.736   3.750
 1928SOL    HW2 1778   2.734   2.696   3.594
 1929SOL     OW 1779   2.547   2.874   2.527
 1929SOL    HW1 1780   2.616   2.858   2.597
 1929SOL    HW2 1781   2.474   2.931   2.565
 1930SOL     OW 1782   2.548   3.023   3.665
 1930SOL    HW1 1783   2.608   3.102   3.679
 1930SOL    HW2 1784   2.462   3.054   3.624
 1931SOL     OW 1785   2.197   3.297   2.923
 1931SOL    HW1 1786   2.119   3.266   2.870
 1931SOL    HW2 1787   2.255   3.355   2.866
 1933SOL     OW 1788   2.300   2.254   3.361
 1933SOL    HW1 1789   2.382   2.198   3.370
 1933SOL    HW2 1790   2.219   2.196   3.365
 1934SOL     OW 1791   3.465   2.309   2.599
 1934SOL    HW1 1792   3.391   2.355   2.549
 1934SOL    HW2 1793   3.516   2.377   2.652
 1935SOL     OW 1794   2.093   3.575   2.345
 1935SOL    HW1 1795   2.127   3.652   2.399
 1935SOL    HW2 1796   2.137   3.575   2.255
 1937SOL     OW 1797   2.092   3.296   2.400
 1937SOL    HW1 1798   2.066   3.392   2.400
 1937SOL    HW2 1799   2.021   3.242   2.445
 1938SOL     OW 1800   2.102   2.953   2.748
 1938SOL    HW1 1801   2.116   2.869   2.800
 1938SOL    HW2 1802   2.047   3.017   2.803
 1940SOL     OW 1803   2.468   2.826   1.985
 1940SOL    HW1 1804   2.475   2.910   1.931
 1940SOL    HW2 1805   2.514   2.839   2.073
 1941SOL     OW 1806   3.456   1.976   3.342
 1941SOL    HW1 1807   3.438   2.043   3.270
 1941SOL    HW2 1808   3.453   2.022   3.431
 1942SOL     OW 1809   1.984   2.505   2.425
 1942SOL    HW1 1810   1.939   2.417   2.442
 1942SOL    HW2 1811   1.983   2.559   2.509
 1944SOL     OW 1812   1.889   3.458   1.979
 1944SOL    HW1 1813   1.870   3.362   2.000
 1944SOL    HW2 1814   1.856   3.516   2.054
 1945SOL     OW 1815   3.551   2.784   2.474
 1945SOL    HW1 1816   3.646   2.755   2.482
 1945SOL    HW2 1817   3.543   2.849   2.399
 1946SOL     OW 1818   3.503   2.970   2.294
 1946SOL    HW1 1819   3.589   2.972   2.242
 1946SOL    HW2 1820   3.517   3.017   2.382
 1947SOL     OW 1821   1.975   2.599   3.459
 1947SOL    HW1 1822   2.063   2.586   3.504
 1947SOL    HW2 1823   1.962   2.696   3.437
 1948SOL     OW 1824   2.475   3.227   2.588
 1948SOL    HW1 1825   2.426   3.140   2.597
 1948SOL    HW2 1826   2.452   3.270   2.501
 1949SOL     OW 1827   3.155   3.090   3.285
 1949SOL    HW1 1828   3.192   3.017   3.227
 1949SOL    HW2 1829   3.207   3.095   3.370
 1950SOL     OW 1830   2.671   1.866   2.364
 1950SOL    HW1 1831   2.711   1.957   2.355
 1950SOL    HW2 1832   2.571   1.874   2.370
 1951SOL     OW 1833   2.059   2.838   3.126
 1951SOL    HW1 1834   2.148   2.793   3.112
 1951SOL    HW2 1835   1.986   2.773   3.107
 1952SOL     OW 1836   3.387   2.861   2.052
 1952SOL    HW1 1837   3.324   2.785   2.065
 1952SOL    HW2 1838   3.435   2.879   2.138
 1954SOL     OW 1839   2.179   2.113   3.663
 1954SOL    HW1 1840   2.250   2.184   3.669
 1954SOL    HW2 1841   2.091   2.152   3.691
 1955SOL     OW 1842   3.328   3.279   2.815
 1955SOL    HW1 1843   3.269   3.285   2.895
 1955SOL    HW2 1844   3.313   3.191   2.769
 1957SOL     OW 1845   2.460   2.591   2.132
 1957SOL    HW1 1846   2.484   2.660   2.064
 1957SOL    HW2 1847   2.382   2.624   2.186
 1958SOL     OW 1848   3.143   2.207   2.806
 1958SOL    HW1 1849   3.057   2.157   2.793
 1958SOL    HW2 1850   3.205   2.153   2.862
 1959SOL     OW 1851   3.438   3.524   2.169
 1959SOL    HW1 1852   3.527   3.570   2.172
 1959SOL    HW2 1853   3.417   3.500   2.074
 1960SOL     OW 1854   2.669   2.467   3.327
 1960SOL    HW1 1855   2.622   2.464   3.416
 1960SOL    HW2 1856   2.618   2.412   3.261
 1961SOL     OW 1857   3.256   2.331   3.536
 1961SOL    HW1 1858   3.236   2.374   3.624
 1961SOL    HW2 1859   3.334   2.269   3.545
 1962SOL     OW 1860   2.835   2.752   3.434
 1962SOL    HW1 1861   2.881   2.668   3.405
 1962SOL    HW2 1862   2.779   2.786   3.359
 1963SOL     OW 1863   2.853   2.272   3.104
 1963SOL    HW1 1864   2.776   2.306   3.158
 1963SOL    HW2 1865   2.819   2.221   3.025
 1964SOL     OW 1866   2.903   2.563   2.291
 1964SOL    HW1 1867   2.929   2.559   2.387
 1964SOL    HW2 1868   2.818   2.512   2.277
 1965SOL     OW 1869   1.938   2.673   2.651
 1965SOL    HW1 1870   2.037   2.661   2.660
 1965SOL    HW2 1871   1.914   2.768   2.672
 1967SOL     OW 1872   2.727   2.210   2.057
 1967SOL    HW1 1873   2.786   2.273   2.008
 1967SOL    HW2 1874   2.746   2.116   2.028
 1969SOL     OW 1875   3.224   3.006   2.407
 1969SOL    HW1 1876   3.307   2.977   2.359
 1969SOL    HW2 1877   3.175   3.073   2.351
 1970SOL     OW 1878   2.412   2.058   2.747
 1970SOL    HW1 1879   2.407   2.053   2.847
 1970SOL    HW2 1880   2.414   2.154   2.718
 1971SOL     OW 1881   2.870   3.318   2.339
 1971SOL    HW1 1882   2.824   3.390   2.287
 1971SOL    HW2 1883   2.866   3.338   2.437
 1972SOL     OW 1884   2.213   3.663   2.715
 1972SOL    HW1 1885   2.263   3.577   2.721
 1972SOL    HW2 1886   2.278   3.740   2.712
 1973SOL     OW 1887   3.657   2.928   2.735
 1973SOL    HW1 1888   3.595   2.913   2.659
 1973SOL    HW2 1889   3.605   2.939   2.820
 1975SOL     OW 1890   2.183   2.805   2.104
 1975SOL    HW1 1891   2.265   2.844   2.062
 1975SOL    HW2 1892   2.156   2.723   2.055
 1976SOL     OW 1893   3.320   2.597   2.590
 1976SOL    HW1 1894   3.315   2.532   2.665
 1976SOL    HW2 1895   3.400   2.656   2.603
 1977SOL     OW 1896   2.323   3.128   3.589
 1977SOL    HW1 1897   2.273   3.129   3.503
 1977SOL    HW2 1898   2.260   3.110   3.665
 1978SOL     OW 1899   2.973   3.638   2.099
 1978SOL    HW1 1900   2.913   3.576   2.149
 1978SOL    HW2 1901   3.004   3.594   2.014
 1979SOL     OW 1902   2.064   2.147   3.360
 1979SOL    HW1 1903   1.984   2.207   3.347
 1979SOL    HW2 1904   2.054   2.098   3.446
 1980SOL     OW 1905   3.494   3.239   1.943
 1980SOL    HW1 1906   3.462   3.333   1.933
 1980SOL    HW2 1907   3.418   3.176   1.931
 1981SOL     OW 1908   2.326   3.605   2.185
 1981SOL    HW1 1909   2.359   3.644   2.271
 1981SOL    HW2 1910   2.402   3.598   2.120
 1982SOL     OW 1911   3.262   1.969   2.288
 1982SOL    HW1 1912   3.238   1.932   2.198
 1982SOL    HW2 1913   3.361   1.985   2.292
 1983SOL     OW 1914   2.111   3.647   3.103
 1983SOL    HW1 1915   2.168   3.582   3.153
 1983SOL    HW2 1916   2.095   3.614   3.010
 1984SOL     OW 1917   2.802   3.560   2.766
 1984SOL    HW1 1918   2.882   3.503   2.787
 1984SOL    HW2 1919   2.753   3.520   2.689
 1985SOL     OW 1920   2.244   2.562   2.342
 1985SOL    HW1 1921   2.289   2.472   2.339
 1985SOL    HW2 1922   2.150   2.551   2.375
 1987SOL     OW 1923   2.476   1.984   1.979
 1987SOL    HW1 1924   2.574   1.962   1.986
 1987SOL    HW2 1925   2.445   1.967   1.886
 1988SOL     OW 1926   2.643   2.126   3.611
 1988SOL    HW1 1927   2.710   2.065   3.654
 1988SOL    HW2 1928   2.570   2.145   3.676
 1989SOL     OW 1929   2.750   3.376   3.057
 1989SOL    HW1 1930   2.727   3.351   2.963
 1989SOL    HW2 1931   2.811   3.307   3.096
 1990SOL     OW 1932   3.213   2.452   3.295
 1990SOL    HW1 1933   3.241   2.409   3.380
 1990SOL    HW2 1934   3.238   2.548   3.296
 1991SOL     OW 1935   2.665   3.264   2.786
 1991SOL    HW1 1936   2.755   3.278   2.744
 1991SOL    HW2 1937   2.594   3.266   2.715
 1992SOL     OW 1938   2.784   2.365   2.761
 1992SOL    HW1 1939   2.759   2.356   2.665
 1992SOL    HW2 1940   2.832   2.283   2.792
 1993SOL     OW 1941   3.296   3.050   1.903
 1993SOL    HW1 1942   3.328   2.974   1.960
 1993SOL    HW2 1943   3.204   3.077   1.933
 1994SOL     OW 1944   2.159   1.897   2.033
 1994SOL    HW1 1945   2.208   1.981   2.012
 1994SOL    HW2 1946   2.221   1.832   2.078
 1995SOL     OW 1947   2.797   2.098   2.342
 1995SOL    HW1 1948   2.749   2.139   2.264
 1995SOL    HW2 1949   2.896   2.096   2.323
 1996SOL     OW 1950   2.938   2.545   3.326
 1996SOL    HW1 1951   2.858   2.484   3.329
 1996SOL    HW2 1952   3.019   2.492   3.302
 1997SOL     OW 1953   3.089   3.432   2.655
 1997SOL    HW1 1954   3.110   3.506   2.590
 1997SOL    HW2 1955   3.157   3.432   2.728
 1998SOL     OW 1956   2.321   3.014   2.603
 1998SOL    HW1 1957   2.250   2.987   2.668
 1998SOL    HW2 1958   2.295   2.986   2.510
 1999SOL     OW 1959   3.133   3.659   2.453
 1999SOL    HW1 1960   3.177   3.723   2.389
 1999SOL    HW2 1961   3.083   3.711   2.523
 2000SOL     OW 1962   2.894   2.411   1.878
 2000SOL    HW1 1963   2.853   2.493   1.839
 2000SOL    HW2 1964   2.958   2.437   1.951
 2001SOL     OW 1965   1.940   2.418   3.248
 2001SOL    HW1 1966   2.032   2.417   3.207
 2001SOL    HW2 1967   1.934   2.492   3.315
 2002SOL     OW 1968   2.423   2.084   3.009
 2002SOL    HW1 1969   2.461   2.000   3.046
 2002SOL    HW2 1970   2.335   2.103   3.053
 2003SOL     OW 1971   2.728   2.316   2.504
 2003SOL    HW1 1972   2.696   2.388   2.442
 2003SOL    HW2 1973   2.752   2.235   2.451
 2004SOL     OW 1974   2.879   1.901   2.615
 2004SOL    HW1 1975   2.807   1.906   2.546
 2004SOL    HW2 1976   2.855   1.832   2.684
 2005SOL     OW 1977   3.291   3.035   2.729
 2005SOL    HW1 1978   3.236   2.951   2.722
 2005SOL    HW2 1979   3.317   3.064   2.637
 2006SOL     OW 1980   3.328   2.452   2.854
 2006SOL    HW1 1981   3.298   2.357   2.861
 2006SOL    HW2 1982   3.401   2.468   2.920
 2007SOL     OW 1983   3.719   2.695   2.239
 2007SOL    HW1 1984   3.761   2.631   2.303
 2007SOL    HW2 1985   3.681   2.644   2.161
 2008SOL     OW 1986   2.350   3.247   2.036
 2008SOL    HW1 1987   2.263   3.232   2.083
 2008SOL    HW2 1988   2.333   3.273   1.941
 2009SOL     OW 1989   3.526   3.142   2.519
 2009SOL    HW1 1990   3.625   3.150   2.533
 2009SOL    HW2 1991   3.481   3.226   2.550
 2010SOL     OW 1992   3.252   2.437   1.940
 2010SOL    HW1 1993   3.198   2.416   2.021
 2010SOL    HW2 1994   3.343   2.396   1.949
 2012SOL     OW 1995   2.926   3.209   3.202
 2012SOL    HW1 1996   2.846   3.186   3.257
 2012SOL    HW2 1997   3.009   3.183   3.251
 2014SOL     OW 1998   2.973   3.057   2.962
 2014SOL    HW1 1999   2.933   3.101   3.043
 2014SOL    HW2 2000   2.932   3.094   2.879
 2015SOL     OW 2001   3.500   2.961   2.941
 2015SOL    HW1 2002   3.505   3.042   3.000
 2015SOL    HW2 2003   3.414   2.963   2.890
 2016SOL     OW 2004   2.777   1.951   3.264
 2016SOL    HW1 2005   2.802   1.931   3.169
 2016SOL    HW2 2006   2.849   2.007   3.306
 2017SOL     OW 2007   2.842   2.978   3.581
 2017SOL    HW1 2008   2.743   2.984   3.591
 2017SOL    HW2 2009   2.865   2.898   3.525
 2018SOL     OW 2010   2.567   2.912   2.230
 2018SOL    HW1 2011   2.553   2.919   2.329
 2018SOL    HW2 2012   2.651   2.861   2.212
 2019SOL     OW 2013   2.272   2.675   3.113
 2019SOL    HW1 2014   2.358   2.687   3.163
 2019SOL    HW2 2015   2.230   2.588   3.140
 2020SOL     OW 2016   3.136   2.248   3.124
 2020SOL    HW1 2017   3.157   2.322   3.188
 2020SOL    HW2 2018   3.047   2.265   3.081
 2021SOL     OW 2019   1.926   3.426   3.193
 2021SOL    HW1 2020   1.880   3.508   3.159
 2021SOL    HW2 2021   2.024   3.445   3.202
 2022SOL     OW 2022   2.229   2.962   2.363
 2022SOL    HW1 2023   2.222   3.045   2.307
 2022SOL    HW2 2024   2.233   2.882   2.303
 2023SOL     OW 2025   2.428   2.399   2.727
 2023SOL    HW1 2026   2.440   2.465   2.653
 2023SOL    HW2 2027   2.474   2.433   2.810
 2024SOL     OW 2028   3.114   3.210   2.250
 2024SOL    HW1 2029   3.164   3.287   2.290
 2024SOL    HW2 2030   3.019   3.212   2.282
 2025SOL     OW 2031   3.134   3.307   3.004
 2025SOL    HW1 2032   3.181   3.320   3.091
 2025SOL    HW2 2033   3.068   3.233   3.013
 2026SOL     OW 2034   3.444   2.501   2.334
 2026SOL    HW1 2035   3.413   2.562   2.407
 2026SOL    HW2 2036   3.494   2.553   2.265
 2027SOL     OW 2037   2.216   3.372   3.191
 2027SOL    HW1 2038   2.195   3.328   3.104
 2027SOL    HW2 2039   2.313   3.398   3.194
 2028SOL     OW 2040   2.264   2.613   3.460
 2028SOL    HW1 2041   2.332   2.668   3.413
 2028SOL    HW2 2042   2.304   2.525   3.487
 2030SOL     OW 2043   2.875   1.967   3.632
 2030SOL    HW1 2044   2.881   2.052   3.580
 2030SOL    HW2 2045   2.907   1.891   3.575
 2031SOL     OW 2046   2.366   1.912   3.602
 2031SOL    HW1 2047   2.324   1.855   3.532
 2031SOL    HW2 2048   2.300   1.981   3.634
 2032SOL     OW 2049   2.435   2.732   2.891
 2032SOL    HW1 2050   2.479   2.821   2.882
 2032SOL    HW2 2051   2.372   2.732   2.968
 2033SOL     OW 2052   3.222   2.724   2.907
 2033SOL    HW1 2053   3.147   2.724   2.841
 2033SOL    HW2 2054   3.259   2.632   2.916
 2034SOL     OW 2055   3.071   2.387   2.137
 2034SOL    HW1 2056   3.084   2.303   2.191
 2034SOL    HW2 2057   3.042   2.461   2.197
 2035SOL     OW 2058   2.169   2.075   3.093
 2035SOL    HW1 2059   2.146   2.112   3.183
 2035SOL    HW2 2060   2.139   1.980   3.087
 2036SOL     OW 2061   1.899   3.172   3.144
 2036SOL    HW1 2062   1.952   3.123   3.212
 2036SOL    HW2 2063   1.921   3.270   3.149
 2037SOL     OW 2064   2.594   2.496   2.926
 2037SOL    HW1 2065   2.653   2.470   2.850
 2037SOL    HW2 2066   2.566   2.592   2.915
 2039SOL     OW 2067   2.169   1.925   2.480
 2039SOL    HW1 2068   2.158   2.019   2.513
 2039SOL    HW2 2069   2.164   1.862   2.557
 2040SOL     OW 2070   3.484   2.229   2.236
 2040SOL    HW1 2071   3.486   2.153   2.300
 2040SOL    HW2 2072   3.436   2.306   2.276
 2041SOL     OW 2073   2.885   2.628   2.828
 2041SOL    HW1 2074   2.900   2.649   2.924
 2041SOL    HW2 2075   2.855   2.533   2.819
 2044SOL     OW 2076   2.212   2.760   3.666
 2044SOL    HW1 2077   2.288   2.804   3.714
 2044SOL    HW2 2078   2.247   2.713   3.584
 2045SOL     OW 2079   3.402   2.136   1.987
 2045SOL    HW1 2080   3.341   2.061   2.010
 2045SOL    HW2 2081   3.424   2.188   2.070
 2046SOL     OW 2082   3.165   2.700   1.904
 2046SOL    HW1 2083   3.199   2.607   1.919
 2046SOL    HW2 2084   3.183   2.727   1.809
 2047SOL     OW 2085   2.930   3.195   2.711
 2047SOL    HW1 2086   2.937   3.111   2.656
 2047SOL    HW2 2087   2.992   3.264   2.675
 2048SOL     OW 2088   2.181   2.672   2.811
 2048SOL    HW1 2089   2.274   2.708   2.816
 2048SOL    HW2 2090   2.175   2.587   2.863
 2049SOL     OW 2091   2.201   2.371   2.868
 2049SOL    HW1 2092   2.149   2.288   2.851
 2049SOL    HW2 2093   2.278   2.376   2.804
 2050SOL     OW 2094   3.000   2.242   3.540
 2050SOL    HW1 2095   2.955   2.305   3.604
 2050SOL    HW2 2096   3.093   2.273   3.523
 2051SOL     OW 2097   3.022   2.069   3.339
 2051SOL    HW1 2098   3.022   2.133   3.416
 2051SOL    HW2 2099   3.050   2.117   3.256
 2052SOL     OW 2100   1.870   3.188   2.062
 2052SOL    HW1 2101   1.777   3.209   2.031
 2052SOL    HW2 2102   1.880   3.089   2.075
 2053SOL     OW 2103   1.950   3.663   2.789
 2053SOL    HW1 2104   1.908   3.577   2.762
 2053SOL    HW2 2105   2.044   3.666   2.755
 2054SOL     OW 2106   2.366   3.430   2.772
 2054SOL    HW1 2107   2.432   3.504   2.781
 2054SOL    HW2 2108   2.410   3.351   2.730
 2055SOL     OW 2109   2.864   2.658   3.100
 2055SOL    HW1 2110   2.905   2.626   3.186
 2055SOL    HW2 2111   2.768   2.631   3.097
 2056SOL     OW 2112   1.902   2.406   2.976
 2056SOL    HW1 2113   1.987   2.373   2.935
 2056SOL    HW2 2114   1.915   2.421   3.074
 2057SOL     OW 2115   2.051   2.382   3.584
 2057SOL    HW1 2116   2.110   2.342   3.514
 2057SOL    HW2 2117   1.993   2.453   3.543
 2058SOL     OW 2118   3.231   2.812   3.522
 2058SOL    HW1 2119   3.270   2.901   3.542
 2058SOL    HW2 2120   3.241   2.792   3.425
 2059SOL     OW 2121   2.677   2.434   2.187
 2059SOL    HW1 2122   2.684   2.345   2.141
 2059SOL    HW2 2123   2.583   2.468   2.179
 2060SOL     OW 2124   3.519   2.466   3.068
 2060SOL    HW1 2125   3.481   2.397   3.130
 2060SOL    HW2 2126   3.601   2.430   3.024
 2062SOL     OW 2127   2.533   2.326   3.131
 2062SOL    HW1 2128   2.499   2.237   3.101
 2062SOL    HW2 2129   2.559   2.380   3.051
 2064SOL     OW 2130   2.021   2.999   3.328
 2064SOL    HW1 2131   2.043   2.938   3.404
 2064SOL    HW2 2132   2.031   2.950   3.242
 2065SOL     OW 2133   3.209   2.921   3.096
 2065SOL    HW1 2134   3.233   2.858   3.022
 2065SOL    HW2 2135   3.119   2.961   3.078
 2066SOL     OW 2136   3.164   2.717   2.171
 2066SOL    HW1 2137   3.078   2.686   2.213
 2066SOL    HW2 2138   3.160   2.703   2.072
 2069SOL     OW 2139   1.945   3.120   2.884
 2069SOL    HW1 2140   1.940   3.119   2.984
 2069SOL    HW2 2141   1.862   3.079   2.846
 2071SOL     OW 2142   3.588   1.997   2.385
 2071SOL    HW1 2143   3.661   1.980   2.318
 2071SOL    HW2 2144   3.557   1.910   2.423
 2072SOL     OW 2145   3.250   3.435   2.339
 2072SOL    HW1 2146   3.317   3.447   2.265
 2072SOL    HW2 2147   3.210   3.524   2.362
 2074SOL     OW 2148   3.142   2.789   2.534
 2074SOL    HW1 2149   3.202   2.708   2.536
 2074SOL    HW2 2150   3.182   2.858   2.474
 2075SOL     OW 2151   2.692   3.135   3.284
 2075SOL    HW1 2152   2.687   3.168   3.379
 2075SOL    HW2 2153   2.606   3.154   3.238
 2076SOL     OW 2154   2.534   3.478   2.016
 2076SOL    HW1 2155   2.543   3.488   1.917
 2076SOL    HW2 2156   2.494   3.389   2.037
 2078SOL     OW 2157   3.703   2.037   2.825
 2078SOL    HW1 2158   3.742   1.952   2.789
 2078SOL    HW2 2159   3.605   2.039   2.806
 2079SOL     OW 2160   2.125   2.188   2.582
 2079SOL    HW1 2161   2.046   2.239   2.548
 2079SOL    HW2 2162   2.116   2.173   2.680
 2080SOL     OW 2163   3.056   3.474   1.893
 2080SOL    HW1 2164   3.062   3.381   1.930
 2080SOL    HW2 2165   2.997   3.474   1.813
 2081SOL     OW 2166   2.684   2.864   3.234
 2081SOL    HW1 2167   2.724   2.863   3.142
 2081SOL    HW2 2168   2.694   2.956   3.274
 2082SOL     OW 2169   2.778   2.772   2.153
 2082SOL    HW1 2170   2.841   2.810   2.085
 2082SOL    HW2 2171   2.818   2.689   2.192
 2083SOL     OW 2172   3.366   3.469   1.906
 2083SOL    HW1 2173   3.274   3.506   1.913
 2083SOL    HW2 2174   3.404   3.489   1.816
 2084SOL     OW 2175   2.234   3.150   3.352
 2084SOL    HW1 2176   2.221   3.243   3.318
 2084SOL    HW2 2177   2.150   3.098   3.339
 2086SOL     OW 2178   2.901   2.960   2.558
 2086SOL    HW1 2179   2.831   2.913   2.612
 2086SOL    HW2 2180   2.960   2.892   2.515
 2087SOL     OW 2181   2.876   2.098   2.833
 2087SOL    HW1 2182   2.868   2.062   2.740
 2087SOL    HW2 2183   2.874   2.022   2.898
 2088SOL     OW 2184   2.452   3.349   2.353
 2088SOL    HW1 2185   2.494   3.291   2.283
 2088SOL    HW2 2186   2.408   3.428   2.309
 2089SOL     OW 2187   3.571   2.247   3.243
 2089SOL    HW1 2188   3.644   2.316   3.247
 2089SOL    HW2 2189   3.599   2.172   3.184
 2090SOL     OW 2190   2.117   3.210   2.152
 2090SOL    HW1 2191   2.021   3.211   2.125
 2090SOL    HW2 2192   2.129   3.263   2.236
 2091SOL     OW 2193   1.967   2.875   3.588
 2091SOL    HW1 2194   1.890   2.842   3.642
 2091SOL    HW2 2195   2.052   2.845   3.630
 2092SOL     OW 2196   2.534   2.065   3.351
 2092SOL    HW1 2197   2.624   2.049   3.311
 2092SOL    HW2 2198   2.542   2.070   3.450
 2093SOL     OW 2199   1.937   2.207   1.895
 2093SOL    HW1 2200   1.845   2.179   1.866
 2093SOL    HW2 2201   1.968   2.284   1.839
 2094SOL     OW 2202   3.302   2.718   3.260
 2094SOL    HW1 2203   3.245   2.770   3.197
 2094SOL    HW2 2204   3.398   2.730   3.236
 2095SOL     OW 2205   1.934   2.028   2.180
 2095SOL    HW1 2206   1.917   2.111   2.126
 2095SOL    HW2 2207   2.024   1.991   2.158
 2096SOL     OW 2208   3.045   3.197   1.981
 2096SOL    HW1 2209   2.946   3.186   1.983
 2096SOL    HW2 2210   3.079   3.212   2.074
 2097SOL     OW 2211   2.475   2.704   3.293
 2097SOL    HW1 2212   2.531   2.785   3.276
 2097SOL    HW2 2213   2.534   2.624   3.296
 2099SOL     OW 2214   2.578   2.427   3.570
 2099SOL    HW1 2215   2.597   2.492   3.644
 2099SOL    HW2 2216   2.638   2.347   3.579
 2102SOL     OW 2217   3.536   2.745   3.116
 2102SOL    HW1 2218   3.509   2.656   3.079
 2102SOL    HW2 2219   3.537   2.813   3.043
 2103SOL     OW 2220   3.087   2.187   2.311
 2103SOL    HW1 2221   3.152   2.113   2.300
 2103SOL    HW2 2222   3.107   2.237   2.395
 2104SOL     OW 2223   2.456   2.607   2.514
 2104SOL    HW1 2224   2.506   2.692   2.495
 2104SOL    HW2 2225   2.368   2.609   2.466
 2107SOL     OW 2226   2.721   3.236   1.878
 2107SOL    HW1 2227   2.675   3.251   1.966
 2107SOL    HW2 2228   2.765   3.321   1.848
 2108SOL     OW 2229   2.523   3.652   2.815
 2108SOL    HW1 2230   2.477   3.740   2.802
 2108SOL    HW2 2231   2.622   3.664   2.808
 2109SOL     OW 2232   2.721   2.818   2.723
 2109SOL    HW1 2233   2.775   2.749   2.771
 2109SOL    HW2 2234   2.689   2.887   2.789
 2110SOL     OW 2235   2.945   2.846   1.949
 2110SOL    HW1 2236   2.922   2.899   1.867
 2110SOL    HW2 2237   3.026   2.790   1.930
 2112SOL     OW 2238   2.083   3.176   3.706
 2112SOL    HW1 2239   2.018   3.103   3.685
 2112SOL    HW2 2240   2.087   3.190   3.804
 2113SOL     OW 2241   1.941   3.102   2.515
 2113SOL    HW1 2242   1.940   3.055   2.603
 2113SOL    HW2 2243   2.023   3.074   2.464
 2114SOL     OW 2244   2.534   3.253   3.486
 2114SOL    HW1 2245   2.456   3.203   3.524
 2114SOL    HW2 2246   2.531   3.348   3.517
 2115SOL     OW 2247   3.686   2.054   3.089
 2115SOL    HW1 2248   3.682   1.964   3.133
 2115SOL    HW2 2249   3.689   2.043   2.990
 2117SOL     OW 2250   2.179   2.409   3.142
 2117SOL    HW1 2251   2.217   2.350   3.214
 2117SOL    HW2 2252   2.219   2.383   3.054
 2118SOL     OW 2253   2.674   3.448   2.549
 2118SOL    HW1 2254   2.706   3.458   2.455
 2118SOL    HW2 2255   2.595   3.386   2.551
 2119SOL     OW 2256   3.286   2.076   2.974
 2119SOL    HW1 2257   3.338   2.011   3.029
 2119SOL    HW2 2258   3.237   2.139   3.035
 2120SOL     OW 2259   2.863   1.896   3.016
 2120SOL    HW1 2260   2.800   1.824   2.985
 2120SOL    HW2 2261   2.956   1.860   3.016
 2121SOL     OW 2262   2.632   3.192   2.163
 2121SOL    HW1 2263   2.586   3.105   2.180
 2121SOL    HW2 2264   2.723   3.189   2.204
 2122SOL     OW 2265   2.480   3.429   3.146
 2122SOL    HW1 2266   2.475   3.511   3.203
 2122SOL    HW2 2267   2.569   3.426   3.101
 2123SOL     OW 2268   3.214   1.914   2.030
 2123SOL    HW1 2269   3.249   1.873   1.946
 2123SOL    HW2 2270   3.124   1.876   2.050
 2124SOL     OW 2271   3.162   2.315   2.553
 2124SOL    HW1 2272   3.103   2.395   2.557
 2124SOL    HW2 2273   3.177   2.280   2.646
 2125SOL     OW 2274   3.455   2.083   2.744
 2125SOL    HW1 2275   3.371   2.082   2.798
 2125SOL    HW2 2276   3.457   2.166   2.688
 2126SOL     OW 2277   1.901   2.939   2.162
 2126SOL    HW1 2278   2.000   2.928   2.153
 2126SOL    HW2 2279   1.861   2.853   2.194
 2127SOL     OW 2280   2.737   3.508   2.199
 2127SOL    HW1 2281   2.660   3.473   2.145
 2127SOL    HW2 2282   2.705   3.579   2.261
 2128SOL     OW 2283   2.092   2.490   3.837
 2128SOL    HW1 2284   1.999   2.488   3.874
 2128SOL    HW2 2285   2.093   2.451   3.745
 2132SOL     OW 2286   2.468   2.826   3.847
 2132SOL    HW1 2287   2.475   2.910   3.793
 2132SOL    HW2 2288   2.514   2.839   3.935
 2146SOL     OW 2289   2.727   2.210   3.919
 2146SOL    HW1 2290   2.786   2.273   3.870
 2146SOL    HW2 2291   2.746   2.116   3.890
 2157SOL     OW 2292   2.476   1.984   3.841
 2157SOL    HW1 2293   2.574   1.962   3.848
 2157SOL    HW2 2294   2.445   1.967   3.748
 2160SOL     OW 2295   2.159   1.897   3.895
 2160SOL    HW1 2296   2.208   1.981   3.874
 2160SOL    HW2 2297   2.221   1.832   3.940
 2164SOL     OW 2298   2.894   2.411   3.740
 2164SOL    HW1 2299   2.853   2.493   3.701
 2164SOL    HW2 2300   2.958   2.437   3.813
 2181SOL     OW 2301   2.335   2.362   3.915
 2181SOL    HW1 2302   2.396   2.442   3.919
 2181SOL    HW2 2303   2.240   2.393   3.922
 2192SOL     OW 2304   1.937   2.207   3.757
 2192SOL    HW1 2305   1.845   2.179   3.728
 2192SOL    HW2 2306   1.968   2.284   3.701
 2248SOL     OW 2307   2.875   3.829   1.770
 2248SOL    HW1 2308   2.881   3.914   1.718
 2248SOL    HW2 2309   2.907   3.753   1.713
 2249SOL     OW 2310   2.366   3.774   1.740
 2249SOL    HW1 2311   2.324   3.717   1.670
 2249SOL    HW2 2312   2.300   3.843   1.772
 2295SOL     OW 2313   2.671   3.728   2.364
 2295SOL    HW1 2314   2.711   3.819   2.355
 2295SOL    HW2 2315   2.571   3.736   2.370
 2304SOL     OW 2316   2.412   3.920   2.747
 2304SOL    HW1 2317   2.407   3.915   2.847
 2304SOL    HW2 2318   2.414   4.016   2.718
 2309SOL     OW 2319   2.476   3.846   1.979
 2309SOL    HW1 2320   2.574   3.824   1.986
 2309SOL    HW2 2321   2.445   3.829   1.886
 2313SOL     OW 2322   2.401   3.788   2.374
 2313SOL    HW1 2323   2.320   3.789   2.432
 2313SOL    HW2 2324   2.404   3.871   2.319
 2314SOL     OW 2325   2.159   3.759   2.033
 2314SOL    HW1 2326   2.208   3.843   2.012
 2314SOL    HW2 2327   2.221   3.694   2.078
 2321SOL     OW 2328   2.879   3.763   2.615
 2321SOL    HW1 2329   2.807   3.768   2.546
 2321SOL    HW2 2330   2.855   3.694   2.684
 2324SOL     OW 2331   2.389   3.980   2.190
 2324SOL    HW1 2332   2.416   3.921   2.115
 2324SOL    HW2 2333   2.389   4.075   2.159
 2334SOL     OW 2334   2.169   3.787   2.480
 2334SOL    HW1 2335   2.158   3.881   2.513
 2334SOL    HW2 2336   2.164   3.724   2.557
 2355SOL     OW 2337   1.934   3.890   2.180
 2355SOL    HW1 2338   1.917   3.973   2.126
 2355SOL    HW2 2339   2.024   3.853   2.158
 2461SOL     OW 2340   3.854   1.794   1.851
 2461SOL    HW1 2341   3.813   1.720   1.904
 2461SOL    HW2 2342   3.918   1.845   1.909
 2490SOL     OW 2343   3.751   1.596   1.979
 2490SOL    HW1 2344   3.732   1.500   2.000
 2490SOL    HW2 2345   3.718   1.654   2.054
 2529SOL     OW 2346   3.732   1.326   2.062
 2529SOL    HW1 2347   3.639   1.347   2.031
 2529SOL    HW2 2348   3.742   1.227   2.075
 2530SOL     OW 2349   3.812   1.801   2.789
 2530SOL    HW1 2350   3.770   1.715   2.762
 2530SOL    HW2 2351   3.906   1.804   2.755
 2604SOL     OW 2352   3.837   2.599   1.597
 2604SOL    HW1 2353   3.925   2.586   1.642
 2604SOL    HW2 2354   3.824   2.696   1.575
 2625SOL     OW 2355   3.802   2.418   1.386
 2625SOL    HW1 2356   3.894   2.417   1.345
 2625SOL    HW2 2357   3.796   2.492   1.453
 2646SOL     OW 2358   3.913   2.382   1.722
 2646SOL    HW1 2359   3.972   2.342   1.652
 2646SOL    HW2 2360   3.855   2.453   1.681
 2670SOL     OW 2361   3.954   2.490   1.975
 2670SOL    HW1 2362   3.861   2.488   2.012
 2670SOL    HW2 2363   3.955   2.451   1.883
 2672SOL     OW 2364   3.743   2.230   2.509
 2672SOL    HW1 2365   3.661   2.273   2.548
 2672SOL    HW2 2366   3.715   2.157   2.446
 2681SOL     OW 2367   3.846   2.505   2.425
 2681SOL    HW1 2368   3.801   2.417   2.442
 2681SOL    HW2 2369   3.845   2.559   2.509
 2689SOL     OW 2370   3.800   2.673   2.651
 2689SOL    HW1 2371   3.899   2.661   2.660
 2689SOL    HW2 2372   3.776   2.768   2.672
 2725SOL     OW 2373   3.764   2.406   2.976
 2725SOL    HW1 2374   3.849   2.373   2.935
 2725SOL    HW2 2375   3.777   2.421   3.074
 2740SOL     OW 2376   3.799   2.207   1.895
 2740SOL    HW1 2377   3.707   2.179   1.866
 2740SOL    HW2 2378   3.830   2.284   1.839
 2741SOL     OW 2379   3.796   2.028   2.180
 2741SOL    HW1 2380   3.779   2.111   2.126
 2741SOL    HW2 2381   3.886   1.991   2.158
 2750SOL     OW 2382   3.763   2.939   2.162
 2750SOL    HW1 2383   3.862   2.928   2.153
 2750SOL    HW2 2384   3.723   2.853   2.194
   4.44328   4.44328   4.44328
