; mobley_5494918_GMX.itp created by acpype (v: 2023.10.27) on Wed May 20 23:55:03 2026

[ atomtypes ]
;name   bond_type     mass     charge   ptype   sigma         epsilon       Amb
 c2       c2          0.00000  0.00000   A     3.31521e-01   4.13379e-01 ; 1.86  0.0988
 c3       c3          0.00000  0.00000   A     3.39771e-01   4.51035e-01 ; 1.91  0.1078
 f        f           0.00000  0.00000   A     3.03422e-01   3.48109e-01 ; 1.70  0.0832

[ moleculetype ]
;name            nrexcl
 mobley_5494918   3

[ atoms ]
;   nr  type  resi  res  atom  cgnr     charge      mass       ; qtot   bond_type
     1   c2     1   MOL    C1    1    -0.055700     12.01000 ; qtot -0.056
     2   c2     1   MOL    C2    2     0.378000     12.01000 ; qtot 0.322
     3   c3     1   MOL    C3    3     0.695101     12.01000 ; qtot 1.017
     4    f     1   MOL    F1    4    -0.111500     19.00000 ; qtot 0.906
     5    f     1   MOL    F2    5    -0.129000     19.00000 ; qtot 0.777
     6    f     1   MOL    F3    6    -0.129000     19.00000 ; qtot 0.648
     7    f     1   MOL    F4    7    -0.215967     19.00000 ; qtot 0.432
     8    f     1   MOL    F5    8    -0.215967     19.00000 ; qtot 0.216
     9    f     1   MOL    F6    9    -0.215967     19.00000 ; qtot -0.000

[ bonds ]
;   ai     aj funct   r             k
     1      2   1    1.3379e-01    3.6484e+05 ;     C1 - C2    
     1      3   1    1.5088e-01    2.0786e+05 ;     C1 - C3    
     1      4   1    1.3375e-01    2.9339e+05 ;     C1 - F1    
     2      5   1    1.3375e-01    2.9339e+05 ;     C2 - F2    
     2      6   1    1.3375e-01    2.9339e+05 ;     C2 - F3    
     3      7   1    1.3512e-01    2.7973e+05 ;     C3 - F4    
     3      8   1    1.3512e-01    2.7973e+05 ;     C3 - F5    
     3      9   1    1.3512e-01    2.7973e+05 ;     C3 - F6    

[ pairs ]
;   ai     aj    funct
     2      7      1 ;     C2 - F4    
     2      8      1 ;     C2 - F5    
     2      9      1 ;     C2 - F6    
     3      5      1 ;     C3 - F2    
     3      6      1 ;     C3 - F3    
     4      5      1 ;     F1 - F2    
     4      6      1 ;     F1 - F3    
     4      7      1 ;     F1 - F4    
     4      8      1 ;     F1 - F5    
     4      9      1 ;     F1 - F6    

[ angles ]
;   ai     aj     ak    funct   theta         cth
     1      2      5      1    1.2284e+02    6.8199e+02 ;     C1 - C2     - F2    
     1      2      6      1    1.2284e+02    6.8199e+02 ;     C1 - C2     - F3    
     1      3      7      1    1.1111e+02    6.6668e+02 ;     C1 - C3     - F4    
     1      3      8      1    1.1111e+02    6.6668e+02 ;     C1 - C3     - F5    
     1      3      9      1    1.1111e+02    6.6668e+02 ;     C1 - C3     - F6    
     2      1      3      1    1.2495e+02    5.0944e+02 ;     C2 - C1     - C3    
     2      1      4      1    1.2284e+02    6.8199e+02 ;     C2 - C1     - F1    
     3      1      4      1    1.1403e+02    6.6049e+02 ;     C3 - C1     - F1    
     5      2      6      1    1.1204e+02    8.8450e+02 ;     F2 - C2     - F3    
     7      3      8      1    1.0737e+02    8.9437e+02 ;     F4 - C3     - F5    
     7      3      9      1    1.0737e+02    8.9437e+02 ;     F4 - C3     - F6    
     8      3      9      1    1.0737e+02    8.9437e+02 ;     F5 - C3     - F6    

[ dihedrals ] ; propers
; for gromacs 4.5 or higher, using funct 9
;    i      j      k      l   func   phase     kd      pn
     2      1      3      7      9     0.00   0.00000   0 ;     C2-    C1-    C3-    F4
     2      1      3      8      9     0.00   0.00000   0 ;     C2-    C1-    C3-    F5
     2      1      3      9      9     0.00   0.00000   0 ;     C2-    C1-    C3-    F6
     3      1      2      5      9   180.00  27.82360   2 ;     C3-    C1-    C2-    F2
     3      1      2      6      9   180.00  27.82360   2 ;     C3-    C1-    C2-    F3
     4      1      2      5      9   180.00  27.82360   2 ;     F1-    C1-    C2-    F2
     4      1      2      6      9   180.00  27.82360   2 ;     F1-    C1-    C2-    F3
     4      1      3      7      9     0.00   0.00000   0 ;     F1-    C1-    C3-    F4
     4      1      3      8      9     0.00   0.00000   0 ;     F1-    C1-    C3-    F5
     4      1      3      9      9     0.00   0.00000   0 ;     F1-    C1-    C3-    F6

[ dihedrals ] ; impropers
; treated as propers in GROMACS to use correct AMBER analytical function
;    i      j      k      l   func   phase     kd      pn
     1      5      2      6      4   180.00   4.60240   2 ;     C1-    F2-    C2-    F3
     4      1      3      2      4   180.00   4.60240   2 ;     F1-    C1-    C3-    C2
