; mobley_7913234_GMX.itp created by acpype (v: 2023.10.27) on Wed May 20 23:46:05 2026

[ atomtypes ]
;name   bond_type     mass     charge   ptype   sigma         epsilon       Amb
 c3       c3          0.00000  0.00000   A     3.39771e-01   4.51035e-01 ; 1.91  0.1078
 oh       oh          0.00000  0.00000   A     3.24287e-01   3.89112e-01 ; 1.82  0.0930
 os       os          0.00000  0.00000   A     3.15610e-01   3.03758e-01 ; 1.77  0.0726
 hc       hc          0.00000  0.00000   A     2.60018e-01   8.70272e-02 ; 1.46  0.0208
 h1       h1          0.00000  0.00000   A     2.42200e-01   8.70272e-02 ; 1.36  0.0208
 ho       ho          0.00000  0.00000   A     5.37925e-02   1.96648e-02 ; 0.30  0.0047

[ moleculetype ]
;name            nrexcl
 mobley_7913234   3

[ atoms ]
;   nr  type  resi  res  atom  cgnr     charge      mass       ; qtot   bond_type
     1   c3     1   MOL    C1    1    -0.092100     12.01000 ; qtot -0.092
     2   c3     1   MOL    C2    2    -0.130100     12.01000 ; qtot -0.222
     3   c3     1   MOL    C3    3    -0.079400     12.01000 ; qtot -0.302
     4   c3     1   MOL    C4    4    -0.084400     12.01000 ; qtot -0.386
     5   c3     1   MOL    C5    5     0.133400     12.01000 ; qtot -0.253
     6   c3     1   MOL    C6    6     0.130400     12.01000 ; qtot -0.122
     7   c3     1   MOL    C7    7     0.137100     12.01000 ; qtot 0.015
     8   oh     1   MOL    O1    8    -0.603800     16.00000 ; qtot -0.589
     9   os     1   MOL    O2    9    -0.429600     16.00000 ; qtot -1.018
    10   hc     1   MOL    H1   10     0.034367      1.00800 ; qtot -0.984
    11   hc     1   MOL    H2   11     0.034367      1.00800 ; qtot -0.950
    12   hc     1   MOL    H3   12     0.034367      1.00800 ; qtot -0.915
    13   hc     1   MOL    H4   13     0.046033      1.00800 ; qtot -0.869
    14   hc     1   MOL    H5   14     0.046033      1.00800 ; qtot -0.823
    15   hc     1   MOL    H6   15     0.046033      1.00800 ; qtot -0.777
    16   hc     1   MOL    H7   16     0.039200      1.00800 ; qtot -0.738
    17   hc     1   MOL    H8   17     0.039200      1.00800 ; qtot -0.699
    18   hc     1   MOL    H9   18     0.054200      1.00800 ; qtot -0.645
    19   hc     1   MOL   H10   19     0.054200      1.00800 ; qtot -0.590
    20   h1     1   MOL   H11   20     0.026700      1.00800 ; qtot -0.564
    21   h1     1   MOL   H12   21     0.026700      1.00800 ; qtot -0.537
    22   h1     1   MOL   H13   22     0.041200      1.00800 ; qtot -0.496
    23   h1     1   MOL   H14   23     0.041200      1.00800 ; qtot -0.455
    24   h1     1   MOL   H15   24     0.051700      1.00800 ; qtot -0.403
    25   ho     1   MOL   H16   25     0.403000      1.00800 ; qtot 0.000

[ bonds ]
;   ai     aj funct   r             k
     1      3   1    1.5354e-01    1.9154e+05 ;     C1 - C3    
     1     10   1    1.0962e-01    2.8891e+05 ;     C1 - H1    
     1     11   1    1.0962e-01    2.8891e+05 ;     C1 - H2    
     1     12   1    1.0962e-01    2.8891e+05 ;     C1 - H3    
     2      7   1    1.5354e-01    1.9154e+05 ;     C2 - C7    
     2     13   1    1.0962e-01    2.8891e+05 ;     C2 - H4    
     2     14   1    1.0962e-01    2.8891e+05 ;     C2 - H5    
     2     15   1    1.0962e-01    2.8891e+05 ;     C2 - H6    
     3      4   1    1.5354e-01    1.9154e+05 ;     C3 - C4    
     3     16   1    1.0962e-01    2.8891e+05 ;     C3 - H7    
     3     17   1    1.0962e-01    2.8891e+05 ;     C3 - H8    
     4      5   1    1.5354e-01    1.9154e+05 ;     C4 - C5    
     4     18   1    1.0962e-01    2.8891e+05 ;     C4 - H9    
     4     19   1    1.0962e-01    2.8891e+05 ;     C4 - H10   
     5      9   1    1.4273e-01    2.3620e+05 ;     C5 - O2    
     5     20   1    1.0969e-01    2.8804e+05 ;     C5 - H11   
     5     21   1    1.0969e-01    2.8804e+05 ;     C5 - H12   
     6      7   1    1.5354e-01    1.9154e+05 ;     C6 - C7    
     6      9   1    1.4273e-01    2.3620e+05 ;     C6 - O2    
     6     22   1    1.0969e-01    2.8804e+05 ;     C6 - H13   
     6     23   1    1.0969e-01    2.8804e+05 ;     C6 - H14   
     7      8   1    1.4242e-01    2.3861e+05 ;     C7 - O1    
     7     24   1    1.0969e-01    2.8804e+05 ;     C7 - H15   
     8     25   1    9.7250e-02    4.4811e+05 ;     O1 - H16   

[ pairs ]
;   ai     aj    funct
     1      5      1 ;     C1 - C5    
     1     18      1 ;     C1 - H9    
     1     19      1 ;     C1 - H10   
     2      9      1 ;     C2 - O2    
     2     22      1 ;     C2 - H13   
     2     23      1 ;     C2 - H14   
     2     25      1 ;     C2 - H16   
     3      9      1 ;     C3 - O2    
     3     20      1 ;     C3 - H11   
     3     21      1 ;     C3 - H12   
     4      6      1 ;     C4 - C6    
     5      7      1 ;     C5 - C7    
     5     16      1 ;     C5 - H7    
     5     17      1 ;     C5 - H8    
     5     22      1 ;     C5 - H13   
     5     23      1 ;     C5 - H14   
     6     13      1 ;     C6 - H4    
     6     14      1 ;     C6 - H5    
     6     15      1 ;     C6 - H6    
     6     20      1 ;     C6 - H11   
     6     21      1 ;     C6 - H12   
     6     25      1 ;     C6 - H16   
     8      9      1 ;     O1 - O2    
     8     13      1 ;     O1 - H4    
     8     14      1 ;     O1 - H5    
     8     15      1 ;     O1 - H6    
     8     22      1 ;     O1 - H13   
     8     23      1 ;     O1 - H14   
     9     18      1 ;     O2 - H9    
     9     19      1 ;     O2 - H10   
     9     24      1 ;     O2 - H15   
    10      4      1 ;     H1 - C4    
    10     16      1 ;     H1 - H7    
    10     17      1 ;     H1 - H8    
    11      4      1 ;     H2 - C4    
    11     16      1 ;     H2 - H7    
    11     17      1 ;     H2 - H8    
    12      4      1 ;     H3 - C4    
    12     16      1 ;     H3 - H7    
    12     17      1 ;     H3 - H8    
    13     24      1 ;     H4 - H15   
    14     24      1 ;     H5 - H15   
    15     24      1 ;     H6 - H15   
    16     18      1 ;     H7 - H9    
    16     19      1 ;     H7 - H10   
    17     18      1 ;     H8 - H9    
    17     19      1 ;     H8 - H10   
    18     20      1 ;     H9 - H11   
    18     21      1 ;     H9 - H12   
    19     20      1 ;    H10 - H11   
    19     21      1 ;    H10 - H12   
    22     24      1 ;    H13 - H15   
    23     24      1 ;    H14 - H15   
    24     25      1 ;    H15 - H16   

[ angles ]
;   ai     aj     ak    funct   theta         cth
     1      3      4      1    1.1263e+02    5.0099e+02 ;     C1 - C3     - C4    
     1      3     16      1    1.0968e+02    3.6208e+02 ;     C1 - C3     - H7    
     1      3     17      1    1.0968e+02    3.6208e+02 ;     C1 - C3     - H8    
     2      7      6      1    1.1263e+02    5.0099e+02 ;     C2 - C7     - C6    
     2      7      8      1    1.0966e+02    6.4258e+02 ;     C2 - C7     - O1    
     2      7     24      1    1.0959e+02    3.6217e+02 ;     C2 - C7     - H15   
     3      1     10      1    1.0968e+02    3.6208e+02 ;     C3 - C1     - H1    
     3      1     11      1    1.0968e+02    3.6208e+02 ;     C3 - C1     - H2    
     3      1     12      1    1.0968e+02    3.6208e+02 ;     C3 - C1     - H3    
     3      4      5      1    1.1263e+02    5.0099e+02 ;     C3 - C4     - C5    
     3      4     18      1    1.0968e+02    3.6208e+02 ;     C3 - C4     - H9    
     3      4     19      1    1.0968e+02    3.6208e+02 ;     C3 - C4     - H10   
     4      3     16      1    1.0968e+02    3.6208e+02 ;     C4 - C3     - H7    
     4      3     17      1    1.0968e+02    3.6208e+02 ;     C4 - C3     - H8    
     4      5      9      1    1.0762e+02    6.4802e+02 ;     C4 - C5     - O2    
     4      5     20      1    1.0959e+02    3.6217e+02 ;     C4 - C5     - H11   
     4      5     21      1    1.0959e+02    3.6217e+02 ;     C4 - C5     - H12   
     5      4     18      1    1.0968e+02    3.6208e+02 ;     C5 - C4     - H9    
     5      4     19      1    1.0968e+02    3.6208e+02 ;     C5 - C4     - H10   
     5      9      6      1    1.1360e+02    7.3915e+02 ;     C5 - O2     - C6    
     6      7      8      1    1.0966e+02    6.4258e+02 ;     C6 - C7     - O1    
     6      7     24      1    1.0959e+02    3.6217e+02 ;     C6 - C7     - H15   
     7      2     13      1    1.0968e+02    3.6208e+02 ;     C7 - C2     - H4    
     7      2     14      1    1.0968e+02    3.6208e+02 ;     C7 - C2     - H5    
     7      2     15      1    1.0968e+02    3.6208e+02 ;     C7 - C2     - H6    
     7      6      9      1    1.0762e+02    6.4802e+02 ;     C7 - C6     - O2    
     7      6     22      1    1.0959e+02    3.6217e+02 ;     C7 - C6     - H13   
     7      6     23      1    1.0959e+02    3.6217e+02 ;     C7 - C6     - H14   
     7      8     25      1    1.0739e+02    5.4501e+02 ;     C7 - O1     - H16   
     8      7     24      1    1.1038e+02    4.7103e+02 ;     O1 - C7     - H15   
     9      5     20      1    1.1034e+02    4.7028e+02 ;     O2 - C5     - H11   
     9      5     21      1    1.1034e+02    4.7028e+02 ;     O2 - C5     - H12   
     9      6     22      1    1.1034e+02    4.7028e+02 ;     O2 - C6     - H13   
     9      6     23      1    1.1034e+02    4.7028e+02 ;     O2 - C6     - H14   
    10      1     11      1    1.0773e+02    2.9957e+02 ;     H1 - C1     - H2    
    10      1     12      1    1.0773e+02    2.9957e+02 ;     H1 - C1     - H3    
    11      1     12      1    1.0773e+02    2.9957e+02 ;     H2 - C1     - H3    
    13      2     14      1    1.0773e+02    2.9957e+02 ;     H4 - C2     - H5    
    13      2     15      1    1.0773e+02    2.9957e+02 ;     H4 - C2     - H6    
    14      2     15      1    1.0773e+02    2.9957e+02 ;     H5 - C2     - H6    
    16      3     17      1    1.0773e+02    2.9957e+02 ;     H7 - C3     - H8    
    18      4     19      1    1.0773e+02    2.9957e+02 ;     H9 - C4     - H10   
    20      5     21      1    1.0855e+02    2.9824e+02 ;    H11 - C5     - H12   
    22      6     23      1    1.0855e+02    2.9824e+02 ;    H13 - C6     - H14   

[ dihedrals ] ; propers
; for gromacs 4.5 or higher, using funct 9
;    i      j      k      l   func   phase     kd      pn
     1      3      4      5      9     0.00   2.17568   3 ;     C1-    C3-    C4-    C5
     1      3      4     18      9     0.00   0.54392   3 ;     C1-    C3-    C4-    H9
     1      3      4     19      9     0.00   0.54392   3 ;     C1-    C3-    C4-   H10
     2      7      6      9      9     0.00   0.65084   3 ;     C2-    C7-    C6-    O2
     2      7      6     22      9     0.00   0.65084   3 ;     C2-    C7-    C6-   H13
     2      7      6     23      9     0.00   0.65084   3 ;     C2-    C7-    C6-   H14
     2      7      8     25      9     0.00   0.25104   3 ;     C2-    C7-    O1-   H16
     3      4      5      9      9     0.00   0.65084   3 ;     C3-    C4-    C5-    O2
     3      4      5     20      9     0.00   0.65084   3 ;     C3-    C4-    C5-   H11
     3      4      5     21      9     0.00   0.65084   3 ;     C3-    C4-    C5-   H12
     4      5      9      6      9     0.00   0.33472   2 ;     C4-    C5-    O2-    C6
     4      5      9      6      9     0.00   3.13800   3 ;     C4-    C5-    O2-    C6
     4      5      9      6      9   180.00   3.68192   1 ;     C4-    C5-    O2-    C6
     5      4      3     16      9     0.00   0.54392   3 ;     C5-    C4-    C3-    H7
     5      4      3     17      9     0.00   0.54392   3 ;     C5-    C4-    C3-    H8
     5      9      6      7      9     0.00   0.33472   2 ;     C5-    O2-    C6-    C7
     5      9      6      7      9     0.00   3.13800   3 ;     C5-    O2-    C6-    C7
     5      9      6      7      9   180.00   3.68192   1 ;     C5-    O2-    C6-    C7
     5      9      6     22      9     0.00   1.41001   3 ;     C5-    O2-    C6-   H13
     5      9      6     23      9     0.00   1.41001   3 ;     C5-    O2-    C6-   H14
     6      7      2     13      9     0.00   0.54392   3 ;     C6-    C7-    C2-    H4
     6      7      2     14      9     0.00   0.54392   3 ;     C6-    C7-    C2-    H5
     6      7      2     15      9     0.00   0.54392   3 ;     C6-    C7-    C2-    H6
     6      7      8     25      9     0.00   0.25104   3 ;     C6-    C7-    O1-   H16
     6      9      5     20      9     0.00   1.41001   3 ;     C6-    O2-    C5-   H11
     6      9      5     21      9     0.00   1.41001   3 ;     C6-    O2-    C5-   H12
     8      7      2     13      9     0.00   0.37656   3 ;     O1-    C7-    C2-    H4
     8      7      2     14      9     0.00   0.37656   3 ;     O1-    C7-    C2-    H5
     8      7      2     15      9     0.00   0.37656   3 ;     O1-    C7-    C2-    H6
     8      7      6      9      9     0.00   0.65084   3 ;     O1-    C7-    C6-    O2
     8      7      6     22      9     0.00   0.00000   0 ;     O1-    C7-    C6-   H13
     8      7      6     22      9     0.00   1.04600   1 ;     O1-    C7-    C6-   H13
     8      7      6     23      9     0.00   0.00000   0 ;     O1-    C7-    C6-   H14
     8      7      6     23      9     0.00   1.04600   1 ;     O1-    C7-    C6-   H14
     9      5      4     18      9     0.00   0.00000   0 ;     O2-    C5-    C4-    H9
     9      5      4     18      9     0.00   1.04600   1 ;     O2-    C5-    C4-    H9
     9      5      4     19      9     0.00   0.00000   0 ;     O2-    C5-    C4-   H10
     9      5      4     19      9     0.00   1.04600   1 ;     O2-    C5-    C4-   H10
     9      6      7     24      9     0.00   0.00000   0 ;     O2-    C6-    C7-   H15
     9      6      7     24      9     0.00   1.04600   1 ;     O2-    C6-    C7-   H15
    10      1      3      4      9     0.00   0.54392   3 ;     H1-    C1-    C3-    C4
    10      1      3     16      9     0.00   0.50208   3 ;     H1-    C1-    C3-    H7
    10      1      3     17      9     0.00   0.50208   3 ;     H1-    C1-    C3-    H8
    11      1      3      4      9     0.00   0.54392   3 ;     H2-    C1-    C3-    C4
    11      1      3     16      9     0.00   0.50208   3 ;     H2-    C1-    C3-    H7
    11      1      3     17      9     0.00   0.50208   3 ;     H2-    C1-    C3-    H8
    12      1      3      4      9     0.00   0.54392   3 ;     H3-    C1-    C3-    C4
    12      1      3     16      9     0.00   0.50208   3 ;     H3-    C1-    C3-    H7
    12      1      3     17      9     0.00   0.50208   3 ;     H3-    C1-    C3-    H8
    13      2      7     24      9     0.00   0.65084   3 ;     H4-    C2-    C7-   H15
    14      2      7     24      9     0.00   0.65084   3 ;     H5-    C2-    C7-   H15
    15      2      7     24      9     0.00   0.65084   3 ;     H6-    C2-    C7-   H15
    16      3      4     18      9     0.00   0.50208   3 ;     H7-    C3-    C4-    H9
    16      3      4     19      9     0.00   0.50208   3 ;     H7-    C3-    C4-   H10
    17      3      4     18      9     0.00   0.50208   3 ;     H8-    C3-    C4-    H9
    17      3      4     19      9     0.00   0.50208   3 ;     H8-    C3-    C4-   H10
    18      4      5     20      9     0.00   0.65084   3 ;     H9-    C4-    C5-   H11
    18      4      5     21      9     0.00   0.65084   3 ;     H9-    C4-    C5-   H12
    19      4      5     20      9     0.00   0.65084   3 ;    H10-    C4-    C5-   H11
    19      4      5     21      9     0.00   0.65084   3 ;    H10-    C4-    C5-   H12
    22      6      7     24      9     0.00   0.65084   3 ;    H13-    C6-    C7-   H15
    23      6      7     24      9     0.00   0.65084   3 ;    H14-    C6-    C7-   H15
    24      7      8     25      9     0.00   0.51463   3 ;    H15-    C7-    O1-   H16
