mobley_1792062_GMX.gro created by acpype (v: 2023.10.27) on Tue May 19 12:32:40 2026
 2393
    1MOL     C1    1   2.207   2.286   2.277
    1MOL     C2    2   2.256   2.176   2.186
    1MOL    BR1    3   2.095   2.209   2.416
    1MOL    BR2    4   2.364   2.254   2.043
    1MOL     H1    5   2.289   2.338   2.327
    1MOL     H2    6   2.145   2.359   2.224
    1MOL     H3    7   2.175   2.122   2.138
    1MOL     H4    8   2.321   2.105   2.238
   14SOL     OW    9   1.460   1.505   1.339
   14SOL    HW1   10   1.484   1.599   1.365
   14SOL    HW2   11   1.444   1.451   1.421
   18SOL     OW   12   1.127   1.341   1.690
   18SOL    HW1   13   1.174   1.341   1.778
   18SOL    HW2   14   1.079   1.254   1.679
   31SOL     OW   15   1.293   1.228   1.423
   31SOL    HW1   16   1.330   1.155   1.365
   31SOL    HW2   17   1.345   1.233   1.508
   35SOL     OW   18   1.187   1.792   1.616
   35SOL    HW1   19   1.211   1.852   1.540
   35SOL    HW2   20   1.194   1.697   1.586
   37SOL     OW   21   1.466   1.417   0.953
   37SOL    HW1   22   1.407   1.423   1.033
   37SOL    HW2   23   1.451   1.329   0.907
   50SOL     OW   24   1.719   0.585   1.831
   50SOL    HW1   25   1.693   0.674   1.795
   50SOL    HW2   26   1.717   0.517   1.758
   56SOL     OW   27   1.227   1.550   1.506
   56SOL    HW1   28   1.233   1.473   1.570
   56SOL    HW2   29   1.175   1.524   1.426
   95SOL     OW   30   1.754   1.223   1.588
   95SOL    HW1   31   1.845   1.184   1.575
   95SOL    HW2   32   1.762   1.319   1.612
   96SOL     OW   33   1.064   1.347   1.340
   96SOL    HW1   34   0.984   1.324   1.395
   96SOL    HW2   35   1.147   1.321   1.389
   97SOL     OW   36   1.592   1.629   1.625
   97SOL    HW1   37   1.619   1.663   1.535
   97SOL    HW2   38   1.671   1.591   1.671
   99SOL     OW   39   1.638   1.099   1.079
   99SOL    HW1   40   1.643   1.180   1.138
   99SOL    HW2   41   1.552   1.101   1.028
  101SOL     OW   42   0.980   1.116   1.719
  101SOL    HW1   43   0.881   1.122   1.729
  101SOL    HW2   44   1.003   1.036   1.663
  109SOL     OW   45   1.272   1.445   1.142
  109SOL    HW1   46   1.319   1.458   1.229
  109SOL    HW2   47   1.206   1.371   1.151
  113SOL     OW   48   1.587   0.779   1.670
  113SOL    HW1   49   1.495   0.817   1.665
  113SOL    HW2   50   1.647   0.826   1.605
  122SOL     OW   51   1.728   0.935   1.854
  122SOL    HW1   52   1.682   0.928   1.765
  122SOL    HW2   53   1.666   0.979   1.920
  126SOL     OW   54   0.980   1.573   1.700
  126SOL    HW1   55   0.960   1.617   1.612
  126SOL    HW2   56   1.019   1.482   1.684
  127SOL     OW   57   1.859   1.518   1.605
  127SOL    HW1   58   1.873   1.545   1.510
  127SOL    HW2   59   1.942   1.540   1.658
  142SOL     OW   60   1.369   0.950   1.660
  142SOL    HW1   61   1.408   1.039   1.680
  142SOL    HW2   62   1.379   0.930   1.563
  147SOL     OW   63   0.930   1.678   1.465
  147SOL    HW1   64   0.906   1.660   1.370
  147SOL    HW2   65   0.960   1.772   1.475
  150SOL     OW   66   1.347   1.059   1.234
  150SOL    HW1   67   1.371   0.996   1.160
  150SOL    HW2   68   1.257   1.099   1.216
  152SOL     OW   69   1.759   1.747   1.154
  152SOL    HW1   70   1.820   1.777   1.081
  152SOL    HW2   71   1.721   1.658   1.132
  153SOL     OW   72   1.252   1.731   1.128
  153SOL    HW1   73   1.336   1.736   1.074
  153SOL    HW2   74   1.229   1.635   1.146
  155SOL     OW   75   0.688   1.662   1.716
  155SOL    HW1   76   0.632   1.743   1.725
  155SOL    HW2   77   0.740   1.666   1.630
  163SOL     OW   78   1.650   1.720   1.394
  163SOL    HW1   79   1.703   1.730   1.310
  163SOL    HW2   80   1.623   1.810   1.428
  171SOL     OW   81   1.614   1.292   1.289
  171SOL    HW1   82   1.674   1.295   1.369
  171SOL    HW2   83   1.539   1.356   1.302
  180SOL     OW   84   1.440   0.856   1.398
  180SOL    HW1   85   1.383   0.908   1.335
  180SOL    HW2   86   1.536   0.868   1.374
  184SOL     OW   87   1.493   1.767   0.959
  184SOL    HW1   88   1.526   1.831   0.890
  184SOL    HW2   89   1.559   1.761   1.034
  186SOL     OW   90   1.450   1.220   1.633
  186SOL    HW1   91   1.441   1.210   1.732
  186SOL    HW2   92   1.546   1.213   1.607
  188SOL     OW   93   1.674   0.883   1.254
  188SOL    HW1   94   1.647   0.794   1.217
  188SOL    HW2   95   1.675   0.951   1.181
  192SOL     OW   96   1.730   0.934   1.517
  192SOL    HW1   97   1.768   1.025   1.532
  192SOL    HW2   98   1.722   0.917   1.418
  197SOL     OW   99   1.861   1.569   0.851
  197SOL    HW1  100   1.790   1.557   0.781
  197SOL    HW2  101   1.862   1.490   0.911
  203SOL     OW  102   1.705   1.487   1.104
  203SOL    HW1  103   1.612   1.462   1.077
  203SOL    HW2  104   1.731   1.437   1.186
  219SOL     OW  105   1.555   1.511   2.565
  219SOL    HW1  106   1.498   1.495   2.646
  219SOL    HW2  107   1.496   1.521   2.485
  221SOL     OW  108   1.755   0.607   2.093
  221SOL    HW1  109   1.743   0.594   1.994
  221SOL    HW2  110   1.725   0.526   2.142
  227SOL     OW  111   1.460   1.505   3.201
  227SOL    HW1  112   1.484   1.599   3.227
  227SOL    HW2  113   1.444   1.451   3.283
  238SOL     OW  114   1.842   1.767   2.221
  238SOL    HW1  115   1.896   1.738   2.301
  238SOL    HW2  116   1.872   1.857   2.192
  240SOL     OW  117   1.689   0.922   2.474
  240SOL    HW1  118   1.784   0.893   2.482
  240SOL    HW2  119   1.681   0.987   2.399
  241SOL     OW  120   1.641   1.108   2.294
  241SOL    HW1  121   1.727   1.110   2.242
  241SOL    HW2  122   1.655   1.155   2.382
  244SOL     OW  123   1.293   1.228   3.285
  244SOL    HW1  124   1.330   1.155   3.227
  244SOL    HW2  125   1.345   1.233   3.370
  247SOL     OW  126   1.525   0.999   2.052
  247SOL    HW1  127   1.462   0.923   2.065
  247SOL    HW2  128   1.573   1.017   2.138
  248SOL     OW  129   1.187   1.792   3.478
  248SOL    HW1  130   1.211   1.852   3.402
  248SOL    HW2  131   1.194   1.697   3.448
  250SOL     OW  132   1.466   1.417   2.815
  250SOL    HW1  133   1.407   1.423   2.895
  250SOL    HW2  134   1.451   1.329   2.769
  251SOL     OW  135   1.667   1.714   2.434
  251SOL    HW1  136   1.626   1.691   2.346
  251SOL    HW2  137   1.649   1.640   2.499
  254SOL     OW  138   1.576   1.662   2.169
  254SOL    HW1  139   1.665   1.708   2.172
  254SOL    HW2  140   1.555   1.638   2.074
  264SOL     OW  141   1.362   1.144   2.407
  264SOL    HW1  142   1.445   1.115   2.359
  264SOL    HW2  143   1.313   1.211   2.351
  266SOL     OW  144   1.008   1.456   2.339
  266SOL    HW1  145   0.962   1.528   2.287
  266SOL    HW2  146   1.004   1.476   2.437
  268SOL     OW  147   1.795   1.066   2.735
  268SOL    HW1  148   1.733   1.051   2.659
  268SOL    HW2  149   1.743   1.077   2.820
  269SOL     OW  150   1.227   1.550   3.368
  269SOL    HW1  151   1.233   1.473   3.432
  269SOL    HW2  152   1.175   1.524   3.288
  271SOL     OW  153   1.458   0.735   2.590
  271SOL    HW1  154   1.453   0.670   2.665
  271SOL    HW2  155   1.538   0.794   2.603
  273SOL     OW  156   1.111   1.776   2.099
  273SOL    HW1  157   1.051   1.714   2.149
  273SOL    HW2  158   1.142   1.732   2.014
  275SOL     OW  159   1.632   1.377   1.943
  275SOL    HW1  160   1.600   1.471   1.933
  275SOL    HW2  161   1.556   1.314   1.931
  279SOL     OW  162   0.940   1.698   2.766
  279SOL    HW1  163   1.020   1.641   2.787
  279SOL    HW2  164   0.891   1.658   2.689
  284SOL     OW  165   0.888   1.514   3.057
  284SOL    HW1  166   0.865   1.489   2.963
  284SOL    HW2  167   0.949   1.445   3.096
  286SOL     OW  168   0.803   1.402   2.786
  286SOL    HW1  169   0.893   1.416   2.744
  286SOL    HW2  170   0.732   1.404   2.715
  289SOL     OW  171   1.434   1.188   1.903
  289SOL    HW1  172   1.466   1.112   1.960
  289SOL    HW2  173   1.342   1.215   1.933
  293SOL     OW  174   1.227   1.570   2.655
  293SOL    HW1  175   1.248   1.644   2.590
  293SOL    HW2  176   1.295   1.570   2.728
  295SOL     OW  177   1.271   1.797   2.453
  295SOL    HW1  178   1.315   1.861   2.389
  295SOL    HW2  179   1.221   1.849   2.523
  301SOL     OW  180   1.429   1.173   2.729
  301SOL    HW1  181   1.374   1.089   2.722
  301SOL    HW2  182   1.455   1.202   2.637
  303SOL     OW  183   1.857   0.833   2.239
  303SOL    HW1  184   1.899   0.769   2.303
  303SOL    HW2  185   1.819   0.782   2.161
  305SOL     OW  186   1.664   1.280   2.519
  305SOL    HW1  187   1.763   1.288   2.533
  305SOL    HW2  188   1.619   1.364   2.550
  308SOL     OW  189   1.754   1.223   3.450
  308SOL    HW1  190   1.845   1.184   3.437
  308SOL    HW2  191   1.762   1.319   3.474
  309SOL     OW  192   1.064   1.347   3.202
  309SOL    HW1  193   0.984   1.324   3.257
  309SOL    HW2  194   1.147   1.321   3.251
  310SOL     OW  195   1.592   1.629   3.487
  310SOL    HW1  196   1.619   1.663   3.397
  310SOL    HW2  197   1.671   1.591   3.533
  311SOL     OW  198   1.111   1.195   2.962
  311SOL    HW1  199   1.071   1.239   3.043
  311SOL    HW2  200   1.070   1.232   2.879
  312SOL     OW  201   1.638   1.099   2.941
  312SOL    HW1  202   1.643   1.180   3.000
  312SOL    HW2  203   1.552   1.101   2.890
  321SOL     OW  204   1.252   1.348   2.250
  321SOL    HW1  205   1.302   1.425   2.290
  321SOL    HW2  206   1.157   1.350   2.282
  322SOL     OW  207   1.272   1.445   3.004
  322SOL    HW1  208   1.319   1.458   3.091
  322SOL    HW2  209   1.206   1.371   3.013
  323SOL     OW  210   1.582   0.639   2.334
  323SOL    HW1  211   1.551   0.700   2.407
  323SOL    HW2  212   1.632   0.691   2.265
  330SOL     OW  213   1.360   0.862   2.907
  330SOL    HW1  214   1.285   0.862   2.841
  330SOL    HW2  215   1.397   0.770   2.916
  340SOL     OW  216   1.859   1.518   3.467
  340SOL    HW1  217   1.873   1.545   3.372
  340SOL    HW2  218   1.942   1.540   3.520
  343SOL     OW  219   1.303   0.838   1.904
  343SOL    HW1  220   1.337   0.745   1.919
  343SOL    HW2  221   1.321   0.865   1.809
  344SOL     OW  222   1.068   1.333   2.711
  344SOL    HW1  223   1.075   1.249   2.656
  344SOL    HW2  224   1.130   1.402   2.675
  360SOL     OW  225   0.930   1.678   3.327
  360SOL    HW1  226   0.906   1.660   3.232
  360SOL    HW2  227   0.960   1.772   3.337
  363SOL     OW  228   1.347   1.059   3.096
  363SOL    HW1  229   1.371   0.996   3.022
  363SOL    HW2  230   1.257   1.099   3.078
  364SOL     OW  231   1.302   0.855   2.171
  364SOL    HW1  232   1.216   0.824   2.213
  364SOL    HW2  233   1.298   0.841   2.072
  365SOL     OW  234   1.759   1.747   3.016
  365SOL    HW1  235   1.820   1.777   2.943
  365SOL    HW2  236   1.721   1.658   2.994
  366SOL     OW  237   1.252   1.731   2.990
  366SOL    HW1  238   1.336   1.736   2.936
  366SOL    HW2  239   1.229   1.635   3.008
  370SOL     OW  240   1.388   1.573   2.339
  370SOL    HW1  241   1.455   1.585   2.265
  370SOL    HW2  242   1.348   1.662   2.362
  372SOL     OW  243   1.280   0.927   2.534
  372SOL    HW1  244   1.340   0.846   2.536
  372SOL    HW2  245   1.320   0.996   2.474
  374SOL     OW  246   0.672   1.616   2.016
  374SOL    HW1  247   0.681   1.626   1.917
  374SOL    HW2  248   0.632   1.527   2.037
  375SOL     OW  249   1.650   1.720   3.256
  375SOL    HW1  250   1.703   1.730   3.172
  375SOL    HW2  251   1.623   1.810   3.290
  378SOL     OW  252   1.194   1.612   1.893
  378SOL    HW1  253   1.200   1.519   1.930
  378SOL    HW2  254   1.135   1.612   1.813
  381SOL     OW  255   1.504   1.607   1.906
  381SOL    HW1  256   1.412   1.644   1.913
  381SOL    HW2  257   1.542   1.627   1.816
  383SOL     OW  258   1.614   1.292   3.151
  383SOL    HW1  259   1.674   1.295   3.231
  383SOL    HW2  260   1.539   1.356   3.164
  384SOL     OW  261   1.039   1.098   2.558
  384SOL    HW1  262   0.969   1.051   2.612
  384SOL    HW2  263   1.098   1.030   2.515
  394SOL     OW  264   1.183   1.335   1.981
  394SOL    HW1  265   1.084   1.324   1.983
  394SOL    HW2  266   1.217   1.350   2.074
  396SOL     OW  267   1.493   1.767   2.821
  396SOL    HW1  268   1.526   1.831   2.752
  396SOL    HW2  269   1.559   1.761   2.896
  398SOL     OW  270   1.450   1.220   3.495
  398SOL    HW1  271   1.441   1.210   3.594
  398SOL    HW2  272   1.546   1.213   3.469
  400SOL     OW  273   1.674   0.883   3.116
  400SOL    HW1  274   1.647   0.794   3.079
  400SOL    HW2  275   1.675   0.951   3.043
  405SOL     OW  276   0.859   1.374   1.878
  405SOL    HW1  277   0.813   1.389   1.966
  405SOL    HW2  278   0.903   1.459   1.848
  406SOL     OW  279   0.661   1.790   2.815
  406SOL    HW1  280   0.615   1.878   2.802
  406SOL    HW2  281   0.760   1.802   2.808
  408SOL     OW  282   1.083   0.984   1.949
  408SOL    HW1  283   1.060   1.037   1.867
  408SOL    HW2  284   1.164   0.928   1.930
  409SOL     OW  285   1.861   1.569   2.713
  409SOL    HW1  286   1.790   1.557   2.643
  409SOL    HW2  287   1.862   1.490   2.773
  415SOL     OW  288   1.705   1.487   2.966
  415SOL    HW1  289   1.612   1.462   2.939
  415SOL    HW2  290   1.731   1.437   3.048
  417SOL     OW  291   0.812   1.586   2.549
  417SOL    HW1  292   0.844   1.596   2.455
  417SOL    HW2  293   0.733   1.524   2.551
  420SOL     OW  294   0.770   1.330   2.163
  420SOL    HW1  295   0.724   1.243   2.180
  420SOL    HW2  296   0.861   1.327   2.204
  426SOL     OW  297   0.875   1.646   2.199
  426SOL    HW1  298   0.798   1.611   2.145
  426SOL    HW2  299   0.843   1.717   2.261
  517SOL     OW  300   0.850   2.660   1.823
  517SOL    HW1  301   0.846   2.736   1.888
  517SOL    HW2  302   0.872   2.696   1.732
  519SOL     OW  303   0.686   3.023   1.803
  519SOL    HW1  304   0.746   3.102   1.817
  519SOL    HW2  305   0.600   3.054   1.762
  521SOL     OW  306   1.460   3.367   1.339
  521SOL    HW1  307   1.484   3.461   1.365
  521SOL    HW2  308   1.444   3.313   1.421
  523SOL     OW  309   1.603   2.309   0.737
  523SOL    HW1  310   1.529   2.355   0.687
  523SOL    HW2  311   1.654   2.377   0.790
  525SOL     OW  312   1.127   3.203   1.690
  525SOL    HW1  313   1.174   3.203   1.778
  525SOL    HW2  314   1.079   3.116   1.679
  530SOL     OW  315   1.594   1.976   1.480
  530SOL    HW1  316   1.576   2.043   1.408
  530SOL    HW2  317   1.591   2.022   1.569
  534SOL     OW  318   1.689   2.784   0.612
  534SOL    HW1  319   1.784   2.755   0.620
  534SOL    HW2  320   1.681   2.849   0.537
  538SOL     OW  321   1.293   3.090   1.423
  538SOL    HW1  322   1.330   3.017   1.365
  538SOL    HW2  323   1.345   3.095   1.508
  547SOL     OW  324   1.281   2.207   0.944
  547SOL    HW1  325   1.195   2.157   0.931
  547SOL    HW2  326   1.343   2.153   1.000
  549SOL     OW  327   0.807   2.467   1.465
  549SOL    HW1  328   0.760   2.464   1.554
  549SOL    HW2  329   0.756   2.412   1.399
  550SOL     OW  330   1.394   2.331   1.674
  550SOL    HW1  331   1.374   2.374   1.762
  550SOL    HW2  332   1.472   2.269   1.683
  551SOL     OW  333   0.973   2.752   1.572
  551SOL    HW1  334   1.019   2.668   1.543
  551SOL    HW2  335   0.917   2.786   1.497
  552SOL     OW  336   0.991   2.272   1.242
  552SOL    HW1  337   0.914   2.306   1.296
  552SOL    HW2  338   0.957   2.221   1.163
  557SOL     OW  339   1.719   2.447   1.831
  557SOL    HW1  340   1.693   2.536   1.795
  557SOL    HW2  341   1.717   2.379   1.758
  562SOL     OW  342   1.795   2.928   0.873
  562SOL    HW1  343   1.733   2.913   0.797
  562SOL    HW2  344   1.743   2.939   0.958
  563SOL     OW  345   1.227   3.412   1.506
  563SOL    HW1  346   1.233   3.335   1.570
  563SOL    HW2  347   1.175   3.386   1.426
  565SOL     OW  348   1.458   2.597   0.728
  565SOL    HW1  349   1.453   2.532   0.803
  565SOL    HW2  350   1.538   2.656   0.741
  575SOL     OW  351   1.547   2.084   1.729
  575SOL    HW1  352   1.542   2.121   1.821
  575SOL    HW2  353   1.475   2.015   1.717
  577SOL     OW  354   0.781   2.126   1.749
  577SOL    HW1  355   0.848   2.065   1.792
  577SOL    HW2  356   0.708   2.145   1.814
  579SOL     OW  357   1.351   2.452   1.433
  579SOL    HW1  358   1.379   2.409   1.518
  579SOL    HW2  359   1.376   2.548   1.434
  585SOL     OW  360   1.076   2.545   1.464
  585SOL    HW1  361   0.996   2.484   1.467
  585SOL    HW2  362   1.157   2.492   1.440
  594SOL     OW  363   1.429   3.035   0.867
  594SOL    HW1  364   1.374   2.951   0.860
  594SOL    HW2  365   1.455   3.064   0.775
  595SOL     OW  366   1.466   2.452   0.992
  595SOL    HW1  367   1.436   2.357   0.999
  595SOL    HW2  368   1.539   2.468   1.058
  601SOL     OW  369   1.754   3.085   1.588
  601SOL    HW1  370   1.845   3.046   1.575
  601SOL    HW2  371   1.762   3.181   1.612
  602SOL     OW  372   1.064   3.209   1.340
  602SOL    HW1  373   0.984   3.186   1.395
  602SOL    HW2  374   1.147   3.183   1.389
  603SOL     OW  375   1.592   3.491   1.625
  603SOL    HW1  376   1.619   3.525   1.535
  603SOL    HW2  377   1.671   3.453   1.671
  604SOL     OW  378   1.111   3.057   1.100
  604SOL    HW1  379   1.071   3.101   1.181
  604SOL    HW2  380   1.070   3.094   1.017
  605SOL     OW  381   1.638   2.961   1.079
  605SOL    HW1  382   1.643   3.042   1.138
  605SOL    HW2  383   1.552   2.963   1.028
  606SOL     OW  384   0.915   1.951   1.402
  606SOL    HW1  385   0.940   1.931   1.307
  606SOL    HW2  386   0.987   2.007   1.444
  607SOL     OW  387   0.980   2.978   1.719
  607SOL    HW1  388   0.881   2.984   1.729
  607SOL    HW2  389   1.003   2.898   1.663
  610SOL     OW  390   1.274   2.248   1.262
  610SOL    HW1  391   1.295   2.322   1.326
  610SOL    HW2  392   1.185   2.265   1.219
  619SOL     OW  393   1.587   2.641   1.670
  619SOL    HW1  394   1.495   2.679   1.665
  619SOL    HW2  395   1.647   2.688   1.605
  620SOL     OW  396   1.013   1.967   1.770
  620SOL    HW1  397   1.019   2.052   1.718
  620SOL    HW2  398   1.045   1.891   1.713
  623SOL     OW  399   1.360   2.724   1.045
  623SOL    HW1  400   1.285   2.724   0.979
  623SOL    HW2  401   1.397   2.632   1.054
  628SOL     OW  402   1.728   2.797   1.854
  628SOL    HW1  403   1.682   2.790   1.765
  628SOL    HW2  404   1.666   2.841   1.920
  631SOL     OW  405   1.023   2.628   0.966
  631SOL    HW1  406   1.038   2.649   1.062
  631SOL    HW2  407   0.993   2.533   0.957
  633SOL     OW  408   1.859   3.380   1.605
  633SOL    HW1  409   1.873   3.407   1.510
  633SOL    HW2  410   1.942   3.402   1.658
  640SOL     OW  411   1.138   2.242   1.678
  640SOL    HW1  412   1.093   2.305   1.742
  640SOL    HW2  413   1.231   2.273   1.661
  641SOL     OW  414   1.160   2.069   1.477
  641SOL    HW1  415   1.160   2.133   1.554
  641SOL    HW2  416   1.188   2.117   1.394
  645SOL     OW  417   1.002   2.658   1.238
  645SOL    HW1  418   1.043   2.626   1.324
  645SOL    HW2  419   0.906   2.631   1.235
  648SOL     OW  420   1.369   2.812   1.660
  648SOL    HW1  421   1.408   2.901   1.680
  648SOL    HW2  422   1.379   2.792   1.563
  650SOL     OW  423   1.657   2.466   1.206
  650SOL    HW1  424   1.619   2.397   1.268
  650SOL    HW2  425   1.739   2.430   1.162
  656SOL     OW  426   1.347   2.921   1.234
  656SOL    HW1  427   1.371   2.858   1.160
  656SOL    HW2  428   1.257   2.961   1.216
  663SOL     OW  429   1.726   1.997   0.523
  663SOL    HW1  430   1.799   1.980   0.456
  663SOL    HW2  431   1.695   1.910   0.561
  669SOL     OW  432   1.650   3.582   1.394
  669SOL    HW1  433   1.703   3.592   1.310
  669SOL    HW2  434   1.623   3.672   1.428
  670SOL     OW  435   1.841   2.037   0.963
  670SOL    HW1  436   1.880   1.952   0.927
  670SOL    HW2  437   1.743   2.039   0.944
  673SOL     OW  438   0.822   2.864   1.372
  673SOL    HW1  439   0.862   2.863   1.280
  673SOL    HW2  440   0.832   2.956   1.412
  677SOL     OW  441   1.614   3.154   1.289
  677SOL    HW1  442   1.674   3.157   1.369
  677SOL    HW2  443   1.539   3.218   1.302
  679SOL     OW  444   1.014   2.098   0.971
  679SOL    HW1  445   1.006   2.062   0.878
  679SOL    HW2  446   1.012   2.022   1.036
  681SOL     OW  447   1.709   2.247   1.381
  681SOL    HW1  448   1.782   2.316   1.385
  681SOL    HW2  449   1.737   2.172   1.322
  684SOL     OW  450   0.672   2.065   1.489
  684SOL    HW1  451   0.762   2.049   1.449
  684SOL    HW2  452   0.680   2.070   1.588
  686SOL     OW  453   1.440   2.718   1.398
  686SOL    HW1  454   1.383   2.770   1.335
  686SOL    HW2  455   1.536   2.730   1.374
  691SOL     OW  456   0.716   2.427   1.708
  691SOL    HW1  457   0.735   2.492   1.782
  691SOL    HW2  458   0.776   2.347   1.717
  692SOL     OW  459   1.450   3.082   1.633
  692SOL    HW1  460   1.441   3.072   1.732
  692SOL    HW2  461   1.546   3.075   1.607
  694SOL     OW  462   1.674   2.745   1.254
  694SOL    HW1  463   1.647   2.656   1.217
  694SOL    HW2  464   1.675   2.813   1.181
  697SOL     OW  465   1.777   2.204   1.642
  697SOL    HW1  466   1.760   2.235   1.548
  697SOL    HW2  467   1.693   2.167   1.680
  698SOL     OW  468   1.730   2.796   1.517
  698SOL    HW1  469   1.768   2.887   1.532
  698SOL    HW2  470   1.722   2.779   1.418
  707SOL     OW  471   1.824   2.054   1.227
  707SOL    HW1  472   1.820   1.964   1.271
  707SOL    HW2  473   1.827   2.043   1.128
  709SOL     OW  474   1.705   3.349   1.104
  709SOL    HW1  475   1.612   3.324   1.077
  709SOL    HW2  476   1.731   3.299   1.186
  712SOL     OW  477   1.424   2.076   1.112
  712SOL    HW1  478   1.476   2.011   1.167
  712SOL    HW2  479   1.375   2.139   1.173
  713SOL     OW  480   1.001   1.896   1.154
  713SOL    HW1  481   0.938   1.824   1.123
  713SOL    HW2  482   1.094   1.860   1.154
  718SOL     OW  483   1.593   2.083   0.882
  718SOL    HW1  484   1.509   2.082   0.936
  718SOL    HW2  485   1.595   2.166   0.826
  725SOL     OW  486   1.555   3.373   2.565
  725SOL    HW1  487   1.498   3.357   2.646
  725SOL    HW2  488   1.496   3.383   2.485
  726SOL     OW  489   1.135   2.565   2.579
  726SOL    HW1  490   1.192   2.643   2.554
  726SOL    HW2  491   1.075   2.591   2.655
  727SOL     OW  492   1.755   2.469   2.093
  727SOL    HW1  493   1.743   2.456   1.994
  727SOL    HW2  494   1.725   2.388   2.142
  728SOL     OW  495   0.768   3.006   2.885
  728SOL    HW1  496   0.690   3.023   2.945
  728SOL    HW2  497   0.802   3.093   2.849
  730SOL     OW  498   0.685   2.874   2.527
  730SOL    HW1  499   0.754   2.858   2.597
  730SOL    HW2  500   0.612   2.931   2.565
  733SOL     OW  501   1.460   3.367   3.201
  733SOL    HW1  502   1.484   3.461   3.227
  733SOL    HW2  503   1.444   3.313   3.283
  735SOL     OW  504   1.603   2.309   2.599
  735SOL    HW1  505   1.529   2.355   2.549
  735SOL    HW2  506   1.654   2.377   2.652
  741SOL     OW  507   0.606   2.826   1.985
  741SOL    HW1  508   0.613   2.910   1.931
  741SOL    HW2  509   0.652   2.839   2.073
  742SOL     OW  510   1.594   1.976   3.342
  742SOL    HW1  511   1.576   2.043   3.270
  742SOL    HW2  512   1.591   2.022   3.431
  744SOL     OW  513   1.842   3.629   2.221
  744SOL    HW1  514   1.896   3.600   2.301
  744SOL    HW2  515   1.872   3.719   2.192
  746SOL     OW  516   1.689   2.784   2.474
  746SOL    HW1  517   1.784   2.755   2.482
  746SOL    HW2  518   1.681   2.849   2.399
  747SOL     OW  519   1.641   2.970   2.294
  747SOL    HW1  520   1.727   2.972   2.242
  747SOL    HW2  521   1.655   3.017   2.382
  750SOL     OW  522   1.293   3.090   3.285
  750SOL    HW1  523   1.330   3.017   3.227
  750SOL    HW2  524   1.345   3.095   3.370
  751SOL     OW  525   0.809   1.866   2.364
  751SOL    HW1  526   0.849   1.957   2.355
  751SOL    HW2  527   0.709   1.874   2.370
  753SOL     OW  528   1.525   2.861   2.052
  753SOL    HW1  529   1.462   2.785   2.065
  753SOL    HW2  530   1.573   2.879   2.138
  756SOL     OW  531   1.466   3.279   2.815
  756SOL    HW1  532   1.407   3.285   2.895
  756SOL    HW2  533   1.451   3.191   2.769
  757SOL     OW  534   1.667   3.576   2.434
  757SOL    HW1  535   1.626   3.553   2.346
  757SOL    HW2  536   1.649   3.502   2.499
  758SOL     OW  537   0.598   2.591   2.132
  758SOL    HW1  538   0.622   2.660   2.064
  758SOL    HW2  539   0.520   2.624   2.186
  759SOL     OW  540   1.281   2.207   2.806
  759SOL    HW1  541   1.195   2.157   2.793
  759SOL    HW2  542   1.343   2.153   2.862
  760SOL     OW  543   1.576   3.524   2.169
  760SOL    HW1  544   1.665   3.570   2.172
  760SOL    HW2  545   1.555   3.500   2.074
  762SOL     OW  546   1.394   2.331   3.536
  762SOL    HW1  547   1.374   2.374   3.624
  762SOL    HW2  548   1.472   2.269   3.545
  764SOL     OW  549   0.991   2.272   3.104
  764SOL    HW1  550   0.914   2.306   3.158
  764SOL    HW2  551   0.957   2.221   3.025
  765SOL     OW  552   1.041   2.563   2.291
  765SOL    HW1  553   1.067   2.559   2.387
  765SOL    HW2  554   0.956   2.512   2.277
  768SOL     OW  555   0.865   2.210   2.057
  768SOL    HW1  556   0.924   2.273   2.008
  768SOL    HW2  557   0.884   2.116   2.028
  769SOL     OW  558   1.719   2.447   3.693
  769SOL    HW1  559   1.693   2.536   3.657
  769SOL    HW2  560   1.717   2.379   3.620
  770SOL     OW  561   1.362   3.006   2.407
  770SOL    HW1  562   1.445   2.977   2.359
  770SOL    HW2  563   1.313   3.073   2.351
  771SOL     OW  564   0.550   2.058   2.747
  771SOL    HW1  565   0.545   2.053   2.847
  771SOL    HW2  566   0.552   2.154   2.718
  772SOL     OW  567   1.008   3.318   2.339
  772SOL    HW1  568   0.962   3.390   2.287
  772SOL    HW2  569   1.004   3.338   2.437
  774SOL     OW  570   1.795   2.928   2.735
  774SOL    HW1  571   1.733   2.913   2.659
  774SOL    HW2  572   1.743   2.939   2.820
  777SOL     OW  573   1.458   2.597   2.590
  777SOL    HW1  574   1.453   2.532   2.665
  777SOL    HW2  575   1.538   2.656   2.603
  781SOL     OW  576   1.632   3.239   1.943
  781SOL    HW1  577   1.600   3.333   1.933
  781SOL    HW2  578   1.556   3.176   1.931
  783SOL     OW  579   1.400   1.969   2.288
  783SOL    HW1  580   1.376   1.932   2.198
  783SOL    HW2  581   1.499   1.985   2.292
  787SOL     OW  582   1.547   2.084   3.591
  787SOL    HW1  583   1.542   2.121   3.683
  787SOL    HW2  584   1.475   2.015   3.579
  788SOL     OW  585   0.614   1.984   1.979
  788SOL    HW1  586   0.712   1.962   1.986
  788SOL    HW2  587   0.583   1.967   1.886
  791SOL     OW  588   1.351   2.452   3.295
  791SOL    HW1  589   1.379   2.409   3.380
  791SOL    HW2  590   1.376   2.548   3.296
  793SOL     OW  591   0.922   2.365   2.761
  793SOL    HW1  592   0.897   2.356   2.665
  793SOL    HW2  593   0.970   2.283   2.792
  794SOL     OW  594   0.539   1.926   2.374
  794SOL    HW1  595   0.458   1.927   2.432
  794SOL    HW2  596   0.542   2.009   2.319
  795SOL     OW  597   1.434   3.050   1.903
  795SOL    HW1  598   1.466   2.974   1.960
  795SOL    HW2  599   1.342   3.077   1.933
  797SOL     OW  600   0.935   2.098   2.342
  797SOL    HW1  601   0.887   2.139   2.264
  797SOL    HW2  602   1.034   2.096   2.323
  798SOL     OW  603   1.076   2.545   3.326
  798SOL    HW1  604   0.996   2.484   3.329
  798SOL    HW2  605   1.157   2.492   3.302
  799SOL     OW  606   1.227   3.432   2.655
  799SOL    HW1  607   1.248   3.506   2.590
  799SOL    HW2  608   1.295   3.432   2.728
  801SOL     OW  609   1.271   3.659   2.453
  801SOL    HW1  610   1.315   3.723   2.389
  801SOL    HW2  611   1.221   3.711   2.523
  802SOL     OW  612   1.032   2.411   1.878
  802SOL    HW1  613   0.991   2.493   1.839
  802SOL    HW2  614   1.096   2.437   1.951
  805SOL     OW  615   0.866   2.316   2.504
  805SOL    HW1  616   0.834   2.388   2.442
  805SOL    HW2  617   0.890   2.235   2.451
  806SOL     OW  618   1.017   1.901   2.615
  806SOL    HW1  619   0.945   1.906   2.546
  806SOL    HW2  620   0.993   1.832   2.684
  807SOL     OW  621   1.429   3.035   2.729
  807SOL    HW1  622   1.374   2.951   2.722
  807SOL    HW2  623   1.455   3.064   2.637
  808SOL     OW  624   1.466   2.452   2.854
  808SOL    HW1  625   1.436   2.357   2.861
  808SOL    HW2  626   1.539   2.468   2.920
  809SOL     OW  627   1.857   2.695   2.239
  809SOL    HW1  628   1.899   2.631   2.303
  809SOL    HW2  629   1.819   2.644   2.161
  811SOL     OW  630   1.664   3.142   2.519
  811SOL    HW1  631   1.763   3.150   2.533
  811SOL    HW2  632   1.619   3.226   2.550
  812SOL     OW  633   1.390   2.437   1.940
  812SOL    HW1  634   1.336   2.416   2.021
  812SOL    HW2  635   1.481   2.396   1.949
  813SOL     OW  636   0.527   2.118   2.190
  813SOL    HW1  637   0.554   2.059   2.115
  813SOL    HW2  638   0.527   2.213   2.159
  814SOL     OW  639   1.754   3.085   3.450
  814SOL    HW1  640   1.845   3.046   3.437
  814SOL    HW2  641   1.762   3.181   3.474
  817SOL     OW  642   1.111   3.057   2.962
  817SOL    HW1  643   1.071   3.101   3.043
  817SOL    HW2  644   1.070   3.094   2.879
  818SOL     OW  645   1.638   2.961   2.941
  818SOL    HW1  646   1.643   3.042   3.000
  818SOL    HW2  647   1.552   2.963   2.890
  819SOL     OW  648   0.915   1.951   3.264
  819SOL    HW1  649   0.940   1.931   3.169
  819SOL    HW2  650   0.987   2.007   3.306
  821SOL     OW  651   0.705   2.912   2.230
  821SOL    HW1  652   0.691   2.919   2.329
  821SOL    HW2  653   0.789   2.861   2.212
  823SOL     OW  654   1.274   2.248   3.124
  823SOL    HW1  655   1.295   2.322   3.188
  823SOL    HW2  656   1.185   2.265   3.081
  826SOL     OW  657   0.566   2.399   2.727
  826SOL    HW1  658   0.578   2.465   2.653
  826SOL    HW2  659   0.612   2.433   2.810
  827SOL     OW  660   1.252   3.210   2.250
  827SOL    HW1  661   1.302   3.287   2.290
  827SOL    HW2  662   1.157   3.212   2.282
  828SOL     OW  663   1.272   3.307   3.004
  828SOL    HW1  664   1.319   3.320   3.091
  828SOL    HW2  665   1.206   3.233   3.013
  829SOL     OW  666   1.582   2.501   2.334
  829SOL    HW1  667   1.551   2.562   2.407
  829SOL    HW2  668   1.632   2.553   2.265
  832SOL     OW  669   1.587   2.641   3.532
  832SOL    HW1  670   1.495   2.679   3.527
  832SOL    HW2  671   1.647   2.688   3.467
  836SOL     OW  672   1.360   2.724   2.907
  836SOL    HW1  673   1.285   2.724   2.841
  836SOL    HW2  674   1.397   2.632   2.916
  837SOL     OW  675   1.209   2.387   2.137
  837SOL    HW1  676   1.222   2.303   2.191
  837SOL    HW2  677   1.180   2.461   2.197
  840SOL     OW  678   0.732   2.496   2.926
  840SOL    HW1  679   0.791   2.470   2.850
  840SOL    HW2  680   0.704   2.592   2.915
  841SOL     OW  681   1.728   2.797   3.716
  841SOL    HW1  682   1.682   2.790   3.627
  841SOL    HW2  683   1.666   2.841   3.782
  843SOL     OW  684   1.622   2.229   2.236
  843SOL    HW1  685   1.624   2.153   2.300
  843SOL    HW2  686   1.574   2.306   2.276
  844SOL     OW  687   1.023   2.628   2.828
  844SOL    HW1  688   1.038   2.649   2.924
  844SOL    HW2  689   0.993   2.533   2.819
  846SOL     OW  690   1.859   3.380   3.467
  846SOL    HW1  691   1.873   3.407   3.372
  846SOL    HW2  692   1.942   3.402   3.520
  848SOL     OW  693   1.540   2.136   1.987
  848SOL    HW1  694   1.479   2.061   2.010
  848SOL    HW2  695   1.562   2.188   2.070
  849SOL     OW  696   1.303   2.700   1.904
  849SOL    HW1  697   1.337   2.607   1.919
  849SOL    HW2  698   1.321   2.727   1.809
  850SOL     OW  699   1.068   3.195   2.711
  850SOL    HW1  700   1.075   3.111   2.656
  850SOL    HW2  701   1.130   3.264   2.675
  853SOL     OW  702   1.138   2.242   3.540
  853SOL    HW1  703   1.093   2.305   3.604
  853SOL    HW2  704   1.231   2.273   3.523
  854SOL     OW  705   1.160   2.069   3.339
  854SOL    HW1  706   1.160   2.133   3.416
  854SOL    HW2  707   1.188   2.117   3.256
  858SOL     OW  708   1.002   2.658   3.100
  858SOL    HW1  709   1.043   2.626   3.186
  858SOL    HW2  710   0.906   2.631   3.097
  861SOL     OW  711   1.369   2.812   3.522
  861SOL    HW1  712   1.408   2.901   3.542
  861SOL    HW2  713   1.379   2.792   3.425
  862SOL     OW  714   0.815   2.434   2.187
  862SOL    HW1  715   0.822   2.345   2.141
  862SOL    HW2  716   0.721   2.468   2.179
  863SOL     OW  717   1.657   2.466   3.068
  863SOL    HW1  718   1.619   2.397   3.130
  863SOL    HW2  719   1.739   2.430   3.024
  867SOL     OW  720   0.473   2.362   2.053
  867SOL    HW1  721   0.534   2.442   2.057
  867SOL    HW2  722   0.378   2.393   2.060
  869SOL     OW  723   1.347   2.921   3.096
  869SOL    HW1  724   1.371   2.858   3.022
  869SOL    HW2  725   1.257   2.961   3.078
  870SOL     OW  726   1.302   2.717   2.171
  870SOL    HW1  727   1.216   2.686   2.213
  870SOL    HW2  728   1.298   2.703   2.072
  871SOL     OW  729   1.759   3.609   3.016
  871SOL    HW1  730   1.820   3.639   2.943
  871SOL    HW2  731   1.721   3.520   2.994
  875SOL     OW  732   1.726   1.997   2.385
  875SOL    HW1  733   1.799   1.980   2.318
  875SOL    HW2  734   1.695   1.910   2.423
  876SOL     OW  735   1.388   3.435   2.339
  876SOL    HW1  736   1.455   3.447   2.265
  876SOL    HW2  737   1.348   3.524   2.362
  878SOL     OW  738   1.280   2.789   2.534
  878SOL    HW1  739   1.340   2.708   2.536
  878SOL    HW2  740   1.320   2.858   2.474
  881SOL     OW  741   1.650   3.582   3.256
  881SOL    HW1  742   1.703   3.592   3.172
  881SOL    HW2  743   1.623   3.672   3.290
  882SOL     OW  744   1.841   2.037   2.825
  882SOL    HW1  745   1.880   1.952   2.789
  882SOL    HW2  746   1.743   2.039   2.806
  884SOL     OW  747   1.194   3.474   1.893
  884SOL    HW1  748   1.200   3.381   1.930
  884SOL    HW2  749   1.135   3.474   1.813
  886SOL     OW  750   0.916   2.772   2.153
  886SOL    HW1  751   0.979   2.810   2.085
  886SOL    HW2  752   0.956   2.689   2.192
  887SOL     OW  753   1.504   3.469   1.906
  887SOL    HW1  754   1.412   3.506   1.913
  887SOL    HW2  755   1.542   3.489   1.816
  889SOL     OW  756   1.614   3.154   3.151
  889SOL    HW1  757   1.674   3.157   3.231
  889SOL    HW2  758   1.539   3.218   3.164
  890SOL     OW  759   1.039   2.960   2.558
  890SOL    HW1  760   0.969   2.913   2.612
  890SOL    HW2  761   1.098   2.892   2.515
  891SOL     OW  762   1.014   2.098   2.833
  891SOL    HW1  763   1.006   2.062   2.740
  891SOL    HW2  764   1.012   2.022   2.898
  893SOL     OW  765   1.709   2.247   3.243
  893SOL    HW1  766   1.782   2.316   3.247
  893SOL    HW2  767   1.737   2.172   3.184
  898SOL     OW  768   1.440   2.718   3.260
  898SOL    HW1  769   1.383   2.770   3.197
  898SOL    HW2  770   1.536   2.730   3.236
  900SOL     OW  771   1.183   3.197   1.981
  900SOL    HW1  772   1.084   3.186   1.983
  900SOL    HW2  773   1.217   3.212   2.074
  902SOL     OW  774   1.493   3.629   2.821
  902SOL    HW1  775   1.526   3.693   2.752
  902SOL    HW2  776   1.559   3.623   2.896
  904SOL     OW  777   1.450   3.082   3.495
  904SOL    HW1  778   1.441   3.072   3.594
  904SOL    HW2  779   1.546   3.075   3.469
  906SOL     OW  780   1.674   2.745   3.116
  906SOL    HW1  781   1.647   2.656   3.079
  906SOL    HW2  782   1.675   2.813   3.043
  907SOL     OW  783   1.225   2.187   2.311
  907SOL    HW1  784   1.290   2.113   2.300
  907SOL    HW2  785   1.245   2.237   2.395
  908SOL     OW  786   0.594   2.607   2.514
  908SOL    HW1  787   0.644   2.692   2.495
  908SOL    HW2  788   0.506   2.609   2.466
  909SOL     OW  789   1.777   2.204   3.504
  909SOL    HW1  790   1.760   2.235   3.410
  909SOL    HW2  791   1.693   2.167   3.542
  910SOL     OW  792   1.730   2.796   3.379
  910SOL    HW1  793   1.768   2.887   3.394
  910SOL    HW2  794   1.722   2.779   3.280
  911SOL     OW  795   0.859   3.236   1.878
  911SOL    HW1  796   0.813   3.251   1.966
  911SOL    HW2  797   0.903   3.321   1.848
  913SOL     OW  798   0.859   2.818   2.723
  913SOL    HW1  799   0.913   2.749   2.771
  913SOL    HW2  800   0.827   2.887   2.789
  914SOL     OW  801   1.083   2.846   1.949
  914SOL    HW1  802   1.060   2.899   1.867
  914SOL    HW2  803   1.164   2.790   1.930
  915SOL     OW  804   1.861   3.431   2.713
  915SOL    HW1  805   1.790   3.419   2.643
  915SOL    HW2  806   1.862   3.352   2.773
  919SOL     OW  807   1.824   2.054   3.089
  919SOL    HW1  808   1.820   1.964   3.133
  919SOL    HW2  809   1.827   2.043   2.990
  921SOL     OW  810   1.705   3.349   2.966
  921SOL    HW1  811   1.612   3.324   2.939
  921SOL    HW2  812   1.731   3.299   3.048
  924SOL     OW  813   1.424   2.076   2.974
  924SOL    HW1  814   1.476   2.011   3.029
  924SOL    HW2  815   1.375   2.139   3.035
  925SOL     OW  816   1.001   1.896   3.016
  925SOL    HW1  817   0.938   1.824   2.985
  925SOL    HW2  818   1.094   1.860   3.016
  926SOL     OW  819   0.770   3.192   2.163
  926SOL    HW1  820   0.724   3.105   2.180
  926SOL    HW2  821   0.861   3.189   2.204
  928SOL     OW  822   1.352   1.914   2.030
  928SOL    HW1  823   1.387   1.873   1.946
  928SOL    HW2  824   1.262   1.876   2.050
  929SOL     OW  825   1.300   2.315   2.553
  929SOL    HW1  826   1.241   2.395   2.557
  929SOL    HW2  827   1.315   2.280   2.646
  930SOL     OW  828   1.593   2.083   2.744
  930SOL    HW1  829   1.509   2.082   2.798
  930SOL    HW2  830   1.595   2.166   2.688
  976SOL     OW  831   1.390   2.437   3.802
  976SOL    HW1  832   1.336   2.416   3.883
  976SOL    HW2  833   1.481   2.396   3.811
  985SOL     OW  834   1.540   2.136   3.849
  985SOL    HW1  835   1.479   2.061   3.872
  985SOL    HW2  836   1.562   2.188   3.932
 1160SOL     OW  837   1.726   3.859   2.385
 1160SOL    HW1  838   1.799   3.842   2.318
 1160SOL    HW2  839   1.695   3.772   2.423
 1178SOL     OW  840   1.352   3.776   2.030
 1178SOL    HW1  841   1.387   3.735   1.946
 1178SOL    HW2  842   1.262   3.738   2.050
 1221SOL     OW  843   2.431   1.275   1.165
 1221SOL    HW1  844   2.338   1.268   1.128
 1221SOL    HW2  845   2.442   1.364   1.209
 1225SOL     OW  846   2.630   1.144   1.023
 1225SOL    HW1  847   2.552   1.161   1.083
 1225SOL    HW2  848   2.664   1.231   0.987
 1226SOL     OW  849   2.712   0.798   1.823
 1226SOL    HW1  850   2.708   0.874   1.888
 1226SOL    HW2  851   2.734   0.834   1.732
 1228SOL     OW  852   2.548   1.161   1.803
 1228SOL    HW1  853   2.608   1.240   1.817
 1228SOL    HW2  854   2.462   1.192   1.762
 1229SOL     OW  855   2.197   1.435   1.061
 1229SOL    HW1  856   2.119   1.404   1.008
 1229SOL    HW2  857   2.255   1.493   1.004
 1230SOL     OW  858   3.322   1.505   1.339
 1230SOL    HW1  859   3.346   1.599   1.365
 1230SOL    HW2  860   3.306   1.451   1.421
 1234SOL     OW  861   2.989   1.341   1.690
 1234SOL    HW1  862   3.036   1.341   1.778
 1234SOL    HW2  863   2.941   1.254   1.679
 1236SOL     OW  864   2.102   1.091   0.886
 1236SOL    HW1  865   2.116   1.007   0.938
 1236SOL    HW2  866   2.047   1.155   0.941
 1237SOL     OW  867   2.482   1.786   1.439
 1237SOL    HW1  868   2.390   1.769   1.474
 1237SOL    HW2  869   2.510   1.878   1.465
 1245SOL     OW  870   1.975   0.737   1.597
 1245SOL    HW1  871   2.063   0.724   1.642
 1245SOL    HW2  872   1.962   0.834   1.575
 1246SOL     OW  873   2.475   1.365   0.726
 1246SOL    HW1  874   2.426   1.278   0.735
 1246SOL    HW2  875   2.452   1.408   0.639
 1247SOL     OW  876   3.155   1.228   1.423
 1247SOL    HW1  877   3.192   1.155   1.365
 1247SOL    HW2  878   3.207   1.233   1.508
 1249SOL     OW  879   2.059   0.976   1.264
 1249SOL    HW1  880   2.148   0.931   1.250
 1249SOL    HW2  881   1.986   0.911   1.245
 1251SOL     OW  882   3.049   1.792   1.616
 1251SOL    HW1  883   3.073   1.852   1.540
 1251SOL    HW2  884   3.056   1.697   1.586
 1260SOL     OW  885   2.835   0.890   1.572
 1260SOL    HW1  886   2.881   0.806   1.543
 1260SOL    HW2  887   2.779   0.924   1.497
 1264SOL     OW  888   1.992   1.821   1.571
 1264SOL    HW1  889   1.982   1.806   1.670
 1264SOL    HW2  890   1.906   1.857   1.535
 1270SOL     OW  891   2.213   1.801   0.853
 1270SOL    HW1  892   2.263   1.715   0.859
 1270SOL    HW2  893   2.278   1.878   0.850
 1272SOL     OW  894   3.089   1.550   1.506
 1272SOL    HW1  895   3.095   1.473   1.570
 1272SOL    HW2  896   3.037   1.524   1.426
 1275SOL     OW  897   2.323   1.266   1.727
 1275SOL    HW1  898   2.273   1.267   1.641
 1275SOL    HW2  899   2.260   1.248   1.803
 1281SOL     OW  900   2.111   1.785   1.241
 1281SOL    HW1  901   2.168   1.720   1.291
 1281SOL    HW2  902   2.095   1.752   1.148
 1282SOL     OW  903   2.802   1.698   0.904
 1282SOL    HW1  904   2.882   1.641   0.925
 1282SOL    HW2  905   2.753   1.658   0.827
 1287SOL     OW  906   2.750   1.514   1.195
 1287SOL    HW1  907   2.727   1.489   1.101
 1287SOL    HW2  908   2.811   1.445   1.234
 1289SOL     OW  909   2.665   1.402   0.924
 1289SOL    HW1  910   2.755   1.416   0.882
 1289SOL    HW2  911   2.594   1.404   0.853
 1312SOL     OW  912   2.926   1.347   1.340
 1312SOL    HW1  913   2.846   1.324   1.395
 1312SOL    HW2  914   3.009   1.321   1.389
 1313SOL     OW  915   3.454   1.629   1.625
 1313SOL    HW1  916   3.481   1.663   1.535
 1313SOL    HW2  917   3.533   1.591   1.671
 1314SOL     OW  918   2.973   1.195   1.100
 1314SOL    HW1  919   2.933   1.239   1.181
 1314SOL    HW2  920   2.932   1.232   1.017
 1317SOL     OW  921   2.842   1.116   1.719
 1317SOL    HW1  922   2.743   1.122   1.729
 1317SOL    HW2  923   2.865   1.036   1.663
 1319SOL     OW  924   2.272   0.813   1.251
 1319SOL    HW1  925   2.358   0.825   1.301
 1319SOL    HW2  926   2.230   0.726   1.278
 1321SOL     OW  927   1.926   1.564   1.331
 1321SOL    HW1  928   1.880   1.646   1.297
 1321SOL    HW2  929   2.024   1.583   1.340
 1325SOL     OW  930   3.134   1.445   1.142
 1325SOL    HW1  931   3.181   1.458   1.229
 1325SOL    HW2  932   3.068   1.371   1.151
 1327SOL     OW  933   2.216   1.510   1.329
 1327SOL    HW1  934   2.195   1.466   1.242
 1327SOL    HW2  935   2.313   1.536   1.332
 1328SOL     OW  936   2.264   0.751   1.598
 1328SOL    HW1  937   2.332   0.806   1.551
 1328SOL    HW2  938   2.304   0.663   1.625
 1336SOL     OW  939   1.899   1.310   1.282
 1336SOL    HW1  940   1.952   1.261   1.350
 1336SOL    HW2  941   1.921   1.408   1.287
 1342SOL     OW  942   2.842   1.573   1.700
 1342SOL    HW1  943   2.822   1.617   1.612
 1342SOL    HW2  944   2.881   1.482   1.684
 1343SOL     OW  945   3.721   1.518   1.605
 1343SOL    HW1  946   3.735   1.545   1.510
 1343SOL    HW2  947   3.804   1.540   1.658
 1344SOL     OW  948   2.212   0.898   1.804
 1344SOL    HW1  949   2.288   0.942   1.852
 1344SOL    HW2  950   2.247   0.851   1.722
 1347SOL     OW  951   2.930   1.333   0.849
 1347SOL    HW1  952   2.937   1.249   0.794
 1347SOL    HW2  953   2.992   1.402   0.813
 1353SOL     OW  954   1.950   1.801   0.927
 1353SOL    HW1  955   1.908   1.715   0.900
 1353SOL    HW2  956   2.044   1.804   0.893
 1354SOL     OW  957   2.366   1.568   0.910
 1354SOL    HW1  958   2.432   1.642   0.919
 1354SOL    HW2  959   2.410   1.489   0.868
 1357SOL     OW  960   2.051   0.520   1.722
 1357SOL    HW1  961   2.110   0.480   1.652
 1357SOL    HW2  962   1.993   0.591   1.681
 1358SOL     OW  963   3.231   0.950   1.660
 1358SOL    HW1  964   3.270   1.039   1.680
 1358SOL    HW2  965   3.241   0.930   1.563
 1361SOL     OW  966   2.114   1.564   1.744
 1361SOL    HW1  967   2.084   1.621   1.820
 1361SOL    HW2  968   2.107   1.467   1.770
 1363SOL     OW  969   2.792   1.678   1.465
 1363SOL    HW1  970   2.768   1.660   1.370
 1363SOL    HW2  971   2.822   1.772   1.475
 1365SOL     OW  972   2.021   1.137   1.466
 1365SOL    HW1  973   2.043   1.076   1.542
 1365SOL    HW2  974   2.031   1.088   1.380
 1369SOL     OW  975   3.114   1.731   1.128
 1369SOL    HW1  976   3.198   1.736   1.074
 1369SOL    HW2  977   3.091   1.635   1.146
 1370SOL     OW  978   1.945   1.258   1.022
 1370SOL    HW1  979   1.940   1.257   1.122
 1370SOL    HW2  980   1.862   1.217   0.984
 1371SOL     OW  981   2.550   1.662   1.716
 1371SOL    HW1  982   2.494   1.743   1.725
 1371SOL    HW2  983   2.602   1.666   1.630
 1375SOL     OW  984   1.992   1.794   1.851
 1375SOL    HW1  985   1.951   1.720   1.904
 1375SOL    HW2  986   2.056   1.845   1.909
 1377SOL     OW  987   2.692   1.273   1.422
 1377SOL    HW1  988   2.687   1.306   1.517
 1377SOL    HW2  989   2.606   1.292   1.376
 1379SOL     OW  990   3.512   1.720   1.394
 1379SOL    HW1  991   3.565   1.730   1.310
 1379SOL    HW2  992   3.485   1.810   1.428
 1383SOL     OW  993   2.684   1.002   1.372
 1383SOL    HW1  994   2.724   1.001   1.280
 1383SOL    HW2  995   2.694   1.094   1.412
 1386SOL     OW  996   2.234   1.288   1.490
 1386SOL    HW1  997   2.221   1.381   1.456
 1386SOL    HW2  998   2.150   1.236   1.477
 1393SOL     OW  999   1.967   1.013   1.726
 1393SOL    HW1 1000   1.890   0.980   1.780
 1393SOL    HW2 1001   2.052   0.983   1.768
 1398SOL     OW 1002   2.475   0.842   1.431
 1398SOL    HW1 1003   2.531   0.923   1.414
 1398SOL    HW2 1004   2.534   0.762   1.434
 1399SOL     OW 1005   3.355   1.767   0.959
 1399SOL    HW1 1006   3.388   1.831   0.890
 1399SOL    HW2 1007   3.421   1.761   1.034
 1400SOL     OW 1008   2.578   0.565   1.708
 1400SOL    HW1 1009   2.597   0.630   1.782
 1400SOL    HW2 1010   2.638   0.485   1.717
 1401SOL     OW 1011   3.312   1.220   1.633
 1401SOL    HW1 1012   3.303   1.210   1.732
 1401SOL    HW2 1013   3.408   1.213   1.607
 1402SOL     OW 1014   2.252   1.741   1.560
 1402SOL    HW1 1015   2.161   1.782   1.558
 1402SOL    HW2 1016   2.245   1.647   1.592
 1409SOL     OW 1017   2.523   1.790   0.953
 1409SOL    HW1 1018   2.477   1.878   0.940
 1409SOL    HW2 1019   2.622   1.802   0.946
 1413SOL     OW 1020   2.083   1.314   1.844
 1413SOL    HW1 1021   2.018   1.241   1.823
 1413SOL    HW2 1022   2.087   1.328   1.942
 1415SOL     OW 1023   2.534   1.391   1.624
 1415SOL    HW1 1024   2.456   1.341   1.662
 1415SOL    HW2 1025   2.531   1.486   1.655
 1420SOL     OW 1026   2.674   1.586   0.687
 1420SOL    HW1 1027   2.706   1.596   0.593
 1420SOL    HW2 1028   2.595   1.524   0.689
 1424SOL     OW 1029   2.480   1.567   1.284
 1424SOL    HW1 1030   2.475   1.649   1.341
 1424SOL    HW2 1031   2.569   1.564   1.239
 1430SOL     OW 1032   2.092   0.628   1.975
 1430SOL    HW1 1033   1.999   0.626   2.012
 1430SOL    HW2 1034   2.093   0.589   1.883
 1433SOL     OW 1035   2.431   1.275   3.027
 1433SOL    HW1 1036   2.338   1.268   2.990
 1433SOL    HW2 1037   2.442   1.364   3.071
 1434SOL     OW 1038   3.417   1.511   2.565
 1434SOL    HW1 1039   3.360   1.495   2.646
 1434SOL    HW2 1040   3.358   1.521   2.485
 1435SOL     OW 1041   2.997   0.703   2.579
 1435SOL    HW1 1042   3.054   0.781   2.554
 1435SOL    HW2 1043   2.937   0.729   2.655
 1437SOL     OW 1044   2.630   1.144   2.885
 1437SOL    HW1 1045   2.552   1.161   2.945
 1437SOL    HW2 1046   2.664   1.231   2.849
 1439SOL     OW 1047   2.547   1.012   2.527
 1439SOL    HW1 1048   2.616   0.996   2.597
 1439SOL    HW2 1049   2.474   1.069   2.565
 1441SOL     OW 1050   2.197   1.435   2.923
 1441SOL    HW1 1051   2.119   1.404   2.870
 1441SOL    HW2 1052   2.255   1.493   2.866
 1442SOL     OW 1053   3.322   1.505   3.201
 1442SOL    HW1 1054   3.346   1.599   3.227
 1442SOL    HW2 1055   3.306   1.451   3.283
 1445SOL     OW 1056   2.093   1.713   2.345
 1445SOL    HW1 1057   2.127   1.790   2.399
 1445SOL    HW2 1058   2.137   1.713   2.255
 1446SOL     OW 1059   2.989   1.341   3.552
 1446SOL    HW1 1060   3.036   1.341   3.640
 1446SOL    HW2 1061   2.941   1.254   3.541
 1447SOL     OW 1062   2.092   1.434   2.400
 1447SOL    HW1 1063   2.066   1.530   2.400
 1447SOL    HW2 1064   2.021   1.380   2.445
 1448SOL     OW 1065   2.102   1.091   2.748
 1448SOL    HW1 1066   2.116   1.007   2.800
 1448SOL    HW2 1067   2.047   1.155   2.803
 1449SOL     OW 1068   2.482   1.786   3.301
 1449SOL    HW1 1069   2.390   1.769   3.336
 1449SOL    HW2 1070   2.510   1.878   3.327
 1450SOL     OW 1071   2.468   0.964   1.985
 1450SOL    HW1 1072   2.475   1.048   1.931
 1450SOL    HW2 1073   2.514   0.977   2.073
 1452SOL     OW 1074   1.984   0.643   2.425
 1452SOL    HW1 1075   1.939   0.555   2.442
 1452SOL    HW2 1076   1.983   0.697   2.509
 1453SOL     OW 1077   3.704   1.767   2.221
 1453SOL    HW1 1078   3.758   1.738   2.301
 1453SOL    HW2 1079   3.734   1.857   2.192
 1454SOL     OW 1080   1.889   1.596   1.979
 1454SOL    HW1 1081   1.870   1.500   2.000
 1454SOL    HW2 1082   1.856   1.654   2.054
 1456SOL     OW 1083   3.503   1.108   2.294
 1456SOL    HW1 1084   3.589   1.110   2.242
 1456SOL    HW2 1085   3.517   1.155   2.382
 1458SOL     OW 1086   2.475   1.365   2.588
 1458SOL    HW1 1087   2.426   1.278   2.597
 1458SOL    HW2 1088   2.452   1.408   2.501
 1459SOL     OW 1089   3.155   1.228   3.285
 1459SOL    HW1 1090   3.192   1.155   3.227
 1459SOL    HW2 1091   3.207   1.233   3.370
 1461SOL     OW 1092   2.059   0.976   3.126
 1461SOL    HW1 1093   2.148   0.931   3.112
 1461SOL    HW2 1094   1.986   0.911   3.107
 1462SOL     OW 1095   3.387   0.999   2.052
 1462SOL    HW1 1096   3.324   0.923   2.065
 1462SOL    HW2 1097   3.435   1.017   2.138
 1463SOL     OW 1098   3.049   1.792   3.478
 1463SOL    HW1 1099   3.073   1.852   3.402
 1463SOL    HW2 1100   3.056   1.697   3.448
 1465SOL     OW 1101   3.328   1.417   2.815
 1465SOL    HW1 1102   3.269   1.423   2.895
 1465SOL    HW2 1103   3.313   1.329   2.769
 1466SOL     OW 1104   3.529   1.714   2.434
 1466SOL    HW1 1105   3.488   1.691   2.346
 1466SOL    HW2 1106   3.511   1.640   2.499
 1467SOL     OW 1107   2.460   0.729   2.132
 1467SOL    HW1 1108   2.484   0.798   2.064
 1467SOL    HW2 1109   2.382   0.762   2.186
 1469SOL     OW 1110   3.438   1.662   2.169
 1469SOL    HW1 1111   3.527   1.708   2.172
 1469SOL    HW2 1112   3.417   1.638   2.074
 1474SOL     OW 1113   2.903   0.701   2.291
 1474SOL    HW1 1114   2.929   0.697   2.387
 1474SOL    HW2 1115   2.818   0.650   2.277
 1475SOL     OW 1116   1.938   0.811   2.651
 1475SOL    HW1 1117   2.037   0.799   2.660
 1475SOL    HW2 1118   1.914   0.906   2.672
 1476SOL     OW 1119   1.992   1.821   3.433
 1476SOL    HW1 1120   1.982   1.806   3.532
 1476SOL    HW2 1121   1.906   1.857   3.397
 1479SOL     OW 1122   3.224   1.144   2.407
 1479SOL    HW1 1123   3.307   1.115   2.359
 1479SOL    HW2 1124   3.175   1.211   2.351
 1481SOL     OW 1125   2.870   1.456   2.339
 1481SOL    HW1 1126   2.824   1.528   2.287
 1481SOL    HW2 1127   2.866   1.476   2.437
 1482SOL     OW 1128   2.213   1.801   2.715
 1482SOL    HW1 1129   2.263   1.715   2.721
 1482SOL    HW2 1130   2.278   1.878   2.712
 1484SOL     OW 1131   3.089   1.550   3.368
 1484SOL    HW1 1132   3.095   1.473   3.432
 1484SOL    HW2 1133   3.037   1.524   3.288
 1485SOL     OW 1134   2.183   0.943   2.104
 1485SOL    HW1 1135   2.265   0.982   2.062
 1485SOL    HW2 1136   2.156   0.861   2.055
 1487SOL     OW 1137   2.323   1.266   3.589
 1487SOL    HW1 1138   2.273   1.267   3.503
 1487SOL    HW2 1139   2.260   1.248   3.665
 1488SOL     OW 1140   2.973   1.776   2.099
 1488SOL    HW1 1141   2.913   1.714   2.149
 1488SOL    HW2 1142   3.004   1.732   2.014
 1490SOL     OW 1143   3.494   1.377   1.943
 1490SOL    HW1 1144   3.462   1.471   1.933
 1490SOL    HW2 1145   3.418   1.314   1.931
 1491SOL     OW 1146   2.326   1.743   2.185
 1491SOL    HW1 1147   2.359   1.782   2.271
 1491SOL    HW2 1148   2.402   1.736   2.120
 1493SOL     OW 1149   2.111   1.785   3.103
 1493SOL    HW1 1150   2.168   1.720   3.153
 1493SOL    HW2 1151   2.095   1.752   3.010
 1494SOL     OW 1152   2.802   1.698   2.766
 1494SOL    HW1 1153   2.882   1.641   2.787
 1494SOL    HW2 1154   2.753   1.658   2.689
 1495SOL     OW 1155   2.244   0.700   2.342
 1495SOL    HW1 1156   2.289   0.610   2.339
 1495SOL    HW2 1157   2.150   0.689   2.375
 1499SOL     OW 1158   2.750   1.514   3.057
 1499SOL    HW1 1159   2.727   1.489   2.963
 1499SOL    HW2 1160   2.811   1.445   3.096
 1501SOL     OW 1161   2.665   1.402   2.786
 1501SOL    HW1 1162   2.755   1.416   2.744
 1501SOL    HW2 1163   2.594   1.404   2.715
 1504SOL     OW 1164   3.296   1.188   1.903
 1504SOL    HW1 1165   3.328   1.112   1.960
 1504SOL    HW2 1166   3.204   1.215   1.933
 1508SOL     OW 1167   3.089   1.570   2.655
 1508SOL    HW1 1168   3.110   1.644   2.590
 1508SOL    HW2 1169   3.157   1.570   2.728
 1509SOL     OW 1170   2.321   1.152   2.603
 1509SOL    HW1 1171   2.250   1.125   2.668
 1509SOL    HW2 1172   2.295   1.124   2.510
 1510SOL     OW 1173   3.133   1.797   2.453
 1510SOL    HW1 1174   3.177   1.861   2.389
 1510SOL    HW2 1175   3.083   1.849   2.523
 1516SOL     OW 1176   3.291   1.173   2.729
 1516SOL    HW1 1177   3.236   1.089   2.722
 1516SOL    HW2 1178   3.317   1.202   2.637
 1519SOL     OW 1179   2.350   1.385   2.036
 1519SOL    HW1 1180   2.263   1.370   2.083
 1519SOL    HW2 1181   2.333   1.411   1.941
 1520SOL     OW 1182   3.526   1.280   2.519
 1520SOL    HW1 1183   3.625   1.288   2.533
 1520SOL    HW2 1184   3.481   1.364   2.550
 1524SOL     OW 1185   2.926   1.347   3.202
 1524SOL    HW1 1186   2.846   1.324   3.257
 1524SOL    HW2 1187   3.009   1.321   3.251
 1526SOL     OW 1188   2.973   1.195   2.962
 1526SOL    HW1 1189   2.933   1.239   3.043
 1526SOL    HW2 1190   2.932   1.232   2.879
 1530SOL     OW 1191   2.567   1.050   2.230
 1530SOL    HW1 1192   2.553   1.057   2.329
 1530SOL    HW2 1193   2.651   0.999   2.212
 1531SOL     OW 1194   2.272   0.813   3.113
 1531SOL    HW1 1195   2.358   0.825   3.163
 1531SOL    HW2 1196   2.230   0.726   3.140
 1533SOL     OW 1197   1.926   1.564   3.193
 1533SOL    HW1 1198   1.880   1.646   3.159
 1533SOL    HW2 1199   2.024   1.583   3.202
 1534SOL     OW 1200   2.229   1.100   2.363
 1534SOL    HW1 1201   2.222   1.183   2.307
 1534SOL    HW2 1202   2.233   1.020   2.303
 1535SOL     OW 1203   2.428   0.537   2.727
 1535SOL    HW1 1204   2.440   0.603   2.653
 1535SOL    HW2 1205   2.474   0.571   2.810
 1536SOL     OW 1206   3.114   1.348   2.250
 1536SOL    HW1 1207   3.164   1.425   2.290
 1536SOL    HW2 1208   3.019   1.350   2.282
 1537SOL     OW 1209   3.134   1.445   3.004
 1537SOL    HW1 1210   3.181   1.458   3.091
 1537SOL    HW2 1211   3.068   1.371   3.013
 1539SOL     OW 1212   2.216   1.510   3.191
 1539SOL    HW1 1213   2.195   1.466   3.104
 1539SOL    HW2 1214   2.313   1.536   3.194
 1544SOL     OW 1215   2.435   0.870   2.891
 1544SOL    HW1 1216   2.479   0.959   2.882
 1544SOL    HW2 1217   2.372   0.870   2.968
 1548SOL     OW 1218   1.899   1.310   3.144
 1548SOL    HW1 1219   1.952   1.261   3.212
 1548SOL    HW2 1220   1.921   1.408   3.149
 1549SOL     OW 1221   2.594   0.634   2.926
 1549SOL    HW1 1222   2.653   0.608   2.850
 1549SOL    HW2 1223   2.566   0.730   2.915
 1553SOL     OW 1224   2.885   0.766   2.828
 1553SOL    HW1 1225   2.900   0.787   2.924
 1553SOL    HW2 1226   2.855   0.671   2.819
 1554SOL     OW 1227   2.842   1.573   3.562
 1554SOL    HW1 1228   2.822   1.617   3.474
 1554SOL    HW2 1229   2.881   1.482   3.546
 1558SOL     OW 1230   3.165   0.838   1.904
 1558SOL    HW1 1231   3.199   0.745   1.919
 1558SOL    HW2 1232   3.183   0.865   1.809
 1559SOL     OW 1233   2.930   1.333   2.711
 1559SOL    HW1 1234   2.937   1.249   2.656
 1559SOL    HW2 1235   2.992   1.402   2.675
 1560SOL     OW 1236   2.181   0.810   2.811
 1560SOL    HW1 1237   2.274   0.846   2.816
 1560SOL    HW2 1238   2.175   0.725   2.863
 1564SOL     OW 1239   1.870   1.326   2.062
 1564SOL    HW1 1240   1.777   1.347   2.031
 1564SOL    HW2 1241   1.880   1.227   2.075
 1565SOL     OW 1242   1.950   1.801   2.789
 1565SOL    HW1 1243   1.908   1.715   2.762
 1565SOL    HW2 1244   2.044   1.804   2.755
 1566SOL     OW 1245   2.366   1.568   2.772
 1566SOL    HW1 1246   2.432   1.642   2.781
 1566SOL    HW2 1247   2.410   1.489   2.730
 1567SOL     OW 1248   2.864   0.796   3.100
 1567SOL    HW1 1249   2.905   0.764   3.186
 1567SOL    HW2 1250   2.768   0.769   3.097
 1571SOL     OW 1251   2.677   0.572   2.187
 1571SOL    HW1 1252   2.684   0.483   2.141
 1571SOL    HW2 1253   2.583   0.606   2.179
 1573SOL     OW 1254   2.114   1.564   3.606
 1573SOL    HW1 1255   2.084   1.621   3.682
 1573SOL    HW2 1256   2.107   1.467   3.632
 1575SOL     OW 1257   2.792   1.678   3.327
 1575SOL    HW1 1258   2.768   1.660   3.232
 1575SOL    HW2 1259   2.822   1.772   3.337
 1576SOL     OW 1260   2.335   0.500   2.053
 1576SOL    HW1 1261   2.396   0.580   2.057
 1576SOL    HW2 1262   2.240   0.531   2.060
 1577SOL     OW 1263   2.021   1.137   3.328
 1577SOL    HW1 1264   2.043   1.076   3.404
 1577SOL    HW2 1265   2.031   1.088   3.242
 1578SOL     OW 1266   3.209   1.059   3.096
 1578SOL    HW1 1267   3.233   0.996   3.022
 1578SOL    HW2 1268   3.119   1.099   3.078
 1579SOL     OW 1269   3.164   0.855   2.171
 1579SOL    HW1 1270   3.078   0.824   2.213
 1579SOL    HW2 1271   3.160   0.841   2.072
 1580SOL     OW 1272   3.621   1.747   3.016
 1580SOL    HW1 1273   3.682   1.777   2.943
 1580SOL    HW2 1274   3.583   1.658   2.994
 1581SOL     OW 1275   3.114   1.731   2.990
 1581SOL    HW1 1276   3.198   1.736   2.936
 1581SOL    HW2 1277   3.091   1.635   3.008
 1582SOL     OW 1278   1.945   1.258   2.884
 1582SOL    HW1 1279   1.940   1.257   2.984
 1582SOL    HW2 1280   1.862   1.217   2.846
 1583SOL     OW 1281   2.550   1.662   3.578
 1583SOL    HW1 1282   2.494   1.743   3.587
 1583SOL    HW2 1283   2.602   1.666   3.492
 1585SOL     OW 1284   3.250   1.573   2.339
 1585SOL    HW1 1285   3.317   1.585   2.265
 1585SOL    HW2 1286   3.210   1.662   2.362
 1586SOL     OW 1287   1.992   1.794   3.713
 1586SOL    HW1 1288   1.951   1.720   3.766
 1586SOL    HW2 1289   2.056   1.845   3.771
 1587SOL     OW 1290   3.142   0.927   2.534
 1587SOL    HW1 1291   3.202   0.846   2.536
 1587SOL    HW2 1292   3.182   0.996   2.474
 1588SOL     OW 1293   2.692   1.273   3.284
 1588SOL    HW1 1294   2.687   1.306   3.379
 1588SOL    HW2 1295   2.606   1.292   3.238
 1589SOL     OW 1296   2.534   1.616   2.016
 1589SOL    HW1 1297   2.543   1.626   1.917
 1589SOL    HW2 1298   2.494   1.527   2.037
 1590SOL     OW 1299   3.512   1.720   3.256
 1590SOL    HW1 1300   3.565   1.730   3.172
 1590SOL    HW2 1301   3.485   1.810   3.290
 1593SOL     OW 1302   3.056   1.612   1.893
 1593SOL    HW1 1303   3.062   1.519   1.930
 1593SOL    HW2 1304   2.997   1.612   1.813
 1594SOL     OW 1305   2.684   1.002   3.234
 1594SOL    HW1 1306   2.724   1.001   3.142
 1594SOL    HW2 1307   2.694   1.094   3.274
 1595SOL     OW 1308   2.778   0.910   2.153
 1595SOL    HW1 1309   2.841   0.948   2.085
 1595SOL    HW2 1310   2.818   0.827   2.192
 1596SOL     OW 1311   3.366   1.607   1.906
 1596SOL    HW1 1312   3.274   1.644   1.913
 1596SOL    HW2 1313   3.404   1.627   1.816
 1597SOL     OW 1314   2.234   1.288   3.352
 1597SOL    HW1 1315   2.221   1.381   3.318
 1597SOL    HW2 1316   2.150   1.236   3.339
 1599SOL     OW 1317   2.901   1.098   2.558
 1599SOL    HW1 1318   2.831   1.051   2.612
 1599SOL    HW2 1319   2.960   1.030   2.515
 1601SOL     OW 1320   2.452   1.487   2.353
 1601SOL    HW1 1321   2.494   1.429   2.283
 1601SOL    HW2 1322   2.408   1.566   2.309
 1603SOL     OW 1323   2.117   1.348   2.152
 1603SOL    HW1 1324   2.021   1.349   2.125
 1603SOL    HW2 1325   2.129   1.401   2.236
 1609SOL     OW 1326   3.045   1.335   1.981
 1609SOL    HW1 1327   2.946   1.324   1.983
 1609SOL    HW2 1328   3.079   1.350   2.074
 1610SOL     OW 1329   2.475   0.842   3.293
 1610SOL    HW1 1330   2.531   0.923   3.276
 1610SOL    HW2 1331   2.534   0.762   3.296
 1611SOL     OW 1332   3.355   1.767   2.821
 1611SOL    HW1 1333   3.388   1.831   2.752
 1611SOL    HW2 1334   3.421   1.761   2.896
 1614SOL     OW 1335   2.252   1.741   3.422
 1614SOL    HW1 1336   2.161   1.782   3.420
 1614SOL    HW2 1337   2.245   1.647   3.454
 1617SOL     OW 1338   2.456   0.745   2.514
 1617SOL    HW1 1339   2.506   0.830   2.495
 1617SOL    HW2 1340   2.368   0.747   2.466
 1620SOL     OW 1341   2.721   1.374   1.878
 1620SOL    HW1 1342   2.675   1.389   1.966
 1620SOL    HW2 1343   2.765   1.459   1.848
 1621SOL     OW 1344   2.523   1.790   2.815
 1621SOL    HW1 1345   2.477   1.878   2.802
 1621SOL    HW2 1346   2.622   1.802   2.808
 1622SOL     OW 1347   2.721   0.956   2.723
 1622SOL    HW1 1348   2.775   0.887   2.771
 1622SOL    HW2 1349   2.689   1.025   2.789
 1623SOL     OW 1350   2.945   0.984   1.949
 1623SOL    HW1 1351   2.922   1.037   1.867
 1623SOL    HW2 1352   3.026   0.928   1.930
 1624SOL     OW 1353   3.723   1.569   2.713
 1624SOL    HW1 1354   3.652   1.557   2.643
 1624SOL    HW2 1355   3.724   1.490   2.773
 1625SOL     OW 1356   2.083   1.314   3.706
 1625SOL    HW1 1357   2.018   1.241   3.685
 1625SOL    HW2 1358   2.087   1.328   3.804
 1626SOL     OW 1359   1.941   1.240   2.515
 1626SOL    HW1 1360   1.940   1.193   2.603
 1626SOL    HW2 1361   2.023   1.212   2.464
 1627SOL     OW 1362   2.534   1.391   3.486
 1627SOL    HW1 1363   2.456   1.341   3.524
 1627SOL    HW2 1364   2.531   1.486   3.517
 1630SOL     OW 1365   3.567   1.487   2.966
 1630SOL    HW1 1366   3.474   1.462   2.939
 1630SOL    HW2 1367   3.593   1.437   3.048
 1632SOL     OW 1368   2.674   1.586   2.549
 1632SOL    HW1 1369   2.706   1.596   2.455
 1632SOL    HW2 1370   2.595   1.524   2.551
 1635SOL     OW 1371   2.632   1.330   2.163
 1635SOL    HW1 1372   2.586   1.243   2.180
 1635SOL    HW2 1373   2.723   1.327   2.204
 1636SOL     OW 1374   2.480   1.567   3.146
 1636SOL    HW1 1375   2.475   1.649   3.203
 1636SOL    HW2 1376   2.569   1.564   3.101
 1640SOL     OW 1377   1.901   1.077   2.162
 1640SOL    HW1 1378   2.000   1.066   2.153
 1640SOL    HW2 1379   1.861   0.991   2.194
 1641SOL     OW 1380   2.737   1.646   2.199
 1641SOL    HW1 1381   2.660   1.611   2.145
 1641SOL    HW2 1382   2.705   1.717   2.261
 1651SOL     OW 1383   1.889   1.596   3.841
 1651SOL    HW1 1384   1.870   1.500   3.862
 1651SOL    HW2 1385   1.856   1.654   3.916
 1703SOL     OW 1386   2.534   1.616   3.878
 1703SOL    HW1 1387   2.543   1.626   3.779
 1703SOL    HW2 1388   2.494   1.527   3.899
 1726SOL     OW 1389   2.087   2.137   0.996
 1726SOL    HW1 1390   2.122   2.120   1.088
 1726SOL    HW2 1391   1.999   2.092   0.984
 1727SOL     OW 1392   1.881   2.230   0.647
 1727SOL    HW1 1393   1.799   2.273   0.686
 1727SOL    HW2 1394   1.853   2.157   0.584
 1728SOL     OW 1395   2.431   3.137   1.165
 1728SOL    HW1 1396   2.338   3.130   1.128
 1728SOL    HW2 1397   2.442   3.226   1.209
 1730SOL     OW 1398   2.997   2.565   0.717
 1730SOL    HW1 1399   3.054   2.643   0.692
 1730SOL    HW2 1400   2.937   2.591   0.793
 1732SOL     OW 1401   2.630   3.006   1.023
 1732SOL    HW1 1402   2.552   3.023   1.083
 1732SOL    HW2 1403   2.664   3.093   0.987
 1733SOL     OW 1404   2.712   2.660   1.823
 1733SOL    HW1 1405   2.708   2.736   1.888
 1733SOL    HW2 1406   2.734   2.696   1.732
 1734SOL     OW 1407   2.547   2.874   0.665
 1734SOL    HW1 1408   2.616   2.858   0.735
 1734SOL    HW2 1409   2.474   2.931   0.703
 1735SOL     OW 1410   2.548   3.023   1.803
 1735SOL    HW1 1411   2.608   3.102   1.817
 1735SOL    HW2 1412   2.462   3.054   1.762
 1736SOL     OW 1413   2.197   3.297   1.061
 1736SOL    HW1 1414   2.119   3.266   1.008
 1736SOL    HW2 1415   2.255   3.355   1.004
 1738SOL     OW 1416   2.300   2.254   1.499
 1738SOL    HW1 1417   2.382   2.198   1.508
 1738SOL    HW2 1418   2.219   2.196   1.503
 1741SOL     OW 1419   2.989   3.203   1.690
 1741SOL    HW1 1420   3.036   3.203   1.778
 1741SOL    HW2 1421   2.941   3.116   1.679
 1743SOL     OW 1422   2.102   2.953   0.886
 1743SOL    HW1 1423   2.116   2.869   0.938
 1743SOL    HW2 1424   2.047   3.017   0.941
 1744SOL     OW 1425   2.482   3.648   1.439
 1744SOL    HW1 1426   2.390   3.631   1.474
 1744SOL    HW2 1427   2.510   3.740   1.465
 1746SOL     OW 1428   3.456   1.976   1.480
 1746SOL    HW1 1429   3.438   2.043   1.408
 1746SOL    HW2 1430   3.453   2.022   1.569
 1747SOL     OW 1431   1.984   2.505   0.563
 1747SOL    HW1 1432   1.939   2.417   0.580
 1747SOL    HW2 1433   1.983   2.559   0.647
 1752SOL     OW 1434   1.975   2.599   1.597
 1752SOL    HW1 1435   2.063   2.586   1.642
 1752SOL    HW2 1436   1.962   2.696   1.575
 1754SOL     OW 1437   3.155   3.090   1.423
 1754SOL    HW1 1438   3.192   3.017   1.365
 1754SOL    HW2 1439   3.207   3.095   1.508
 1756SOL     OW 1440   2.059   2.838   1.264
 1756SOL    HW1 1441   2.148   2.793   1.250
 1756SOL    HW2 1442   1.986   2.773   1.245
 1758SOL     OW 1443   3.049   3.654   1.616
 1758SOL    HW1 1444   3.073   3.714   1.540
 1758SOL    HW2 1445   3.056   3.559   1.586
 1759SOL     OW 1446   2.179   2.113   1.801
 1759SOL    HW1 1447   2.250   2.184   1.807
 1759SOL    HW2 1448   2.091   2.152   1.829
 1763SOL     OW 1449   3.143   2.207   0.944
 1763SOL    HW1 1450   3.057   2.157   0.931
 1763SOL    HW2 1451   3.205   2.153   1.000
 1765SOL     OW 1452   2.669   2.467   1.465
 1765SOL    HW1 1453   2.622   2.464   1.554
 1765SOL    HW2 1454   2.618   2.412   1.399
 1766SOL     OW 1455   3.256   2.331   1.674
 1766SOL    HW1 1456   3.236   2.374   1.762
 1766SOL    HW2 1457   3.334   2.269   1.683
 1767SOL     OW 1458   2.835   2.752   1.572
 1767SOL    HW1 1459   2.881   2.668   1.543
 1767SOL    HW2 1460   2.779   2.786   1.497
 1768SOL     OW 1461   2.853   2.272   1.242
 1768SOL    HW1 1462   2.776   2.306   1.296
 1768SOL    HW2 1463   2.819   2.221   1.163
 1770SOL     OW 1464   1.938   2.673   0.789
 1770SOL    HW1 1465   2.037   2.661   0.798
 1770SOL    HW2 1466   1.914   2.768   0.810
 1771SOL     OW 1467   1.992   3.683   1.571
 1771SOL    HW1 1468   1.982   3.668   1.670
 1771SOL    HW2 1469   1.906   3.719   1.535
 1773SOL     OW 1470   3.581   2.447   1.831
 1773SOL    HW1 1471   3.555   2.536   1.795
 1773SOL    HW2 1472   3.579   2.379   1.758
 1775SOL     OW 1473   2.412   2.058   0.885
 1775SOL    HW1 1474   2.407   2.053   0.985
 1775SOL    HW2 1475   2.414   2.154   0.856
 1779SOL     OW 1476   3.089   3.412   1.506
 1779SOL    HW1 1477   3.095   3.335   1.570
 1779SOL    HW2 1478   3.037   3.386   1.426
 1782SOL     OW 1479   2.323   3.128   1.727
 1782SOL    HW1 1480   2.273   3.129   1.641
 1782SOL    HW2 1481   2.260   3.110   1.803
 1784SOL     OW 1482   2.064   2.147   1.498
 1784SOL    HW1 1483   1.984   2.207   1.485
 1784SOL    HW2 1484   2.054   2.098   1.584
 1788SOL     OW 1485   2.111   3.647   1.241
 1788SOL    HW1 1486   2.168   3.582   1.291
 1788SOL    HW2 1487   2.095   3.614   1.148
 1790SOL     OW 1488   2.244   2.562   0.480
 1790SOL    HW1 1489   2.289   2.472   0.477
 1790SOL    HW2 1490   2.150   2.551   0.513
 1791SOL     OW 1491   3.409   2.084   1.729
 1791SOL    HW1 1492   3.404   2.121   1.821
 1791SOL    HW2 1493   3.337   2.015   1.717
 1793SOL     OW 1494   2.643   2.126   1.749
 1793SOL    HW1 1495   2.710   2.065   1.792
 1793SOL    HW2 1496   2.570   2.145   1.814
 1794SOL     OW 1497   2.750   3.376   1.195
 1794SOL    HW1 1498   2.727   3.351   1.101
 1794SOL    HW2 1499   2.811   3.307   1.234
 1795SOL     OW 1500   3.213   2.452   1.433
 1795SOL    HW1 1501   3.241   2.409   1.518
 1795SOL    HW2 1502   3.238   2.548   1.434
 1796SOL     OW 1503   2.665   3.264   0.924
 1796SOL    HW1 1504   2.755   3.278   0.882
 1796SOL    HW2 1505   2.594   3.266   0.853
 1797SOL     OW 1506   2.784   2.365   0.899
 1797SOL    HW1 1507   2.759   2.356   0.803
 1797SOL    HW2 1508   2.832   2.283   0.930
 1798SOL     OW 1509   2.401   1.926   0.512
 1798SOL    HW1 1510   2.320   1.927   0.570
 1798SOL    HW2 1511   2.404   2.009   0.457
 1801SOL     OW 1512   2.938   2.545   1.464
 1801SOL    HW1 1513   2.858   2.484   1.467
 1801SOL    HW2 1514   3.019   2.492   1.440
 1803SOL     OW 1515   2.321   3.014   0.741
 1803SOL    HW1 1516   2.250   2.987   0.806
 1803SOL    HW2 1517   2.295   2.986   0.648
 1806SOL     OW 1518   1.940   2.418   1.386
 1806SOL    HW1 1519   2.032   2.417   1.345
 1806SOL    HW2 1520   1.934   2.492   1.453
 1807SOL     OW 1521   2.423   2.084   1.147
 1807SOL    HW1 1522   2.461   2.000   1.184
 1807SOL    HW2 1523   2.335   2.103   1.191
 1808SOL     OW 1524   2.728   2.316   0.642
 1808SOL    HW1 1525   2.696   2.388   0.580
 1808SOL    HW2 1526   2.752   2.235   0.589
 1809SOL     OW 1527   2.879   1.901   0.753
 1809SOL    HW1 1528   2.807   1.906   0.684
 1809SOL    HW2 1529   2.855   1.832   0.822
 1811SOL     OW 1530   3.328   2.452   0.992
 1811SOL    HW1 1531   3.298   2.357   0.999
 1811SOL    HW2 1532   3.401   2.468   1.058
 1817SOL     OW 1533   3.616   3.085   1.588
 1817SOL    HW1 1534   3.707   3.046   1.575
 1817SOL    HW2 1535   3.624   3.181   1.612
 1818SOL     OW 1536   2.926   3.209   1.340
 1818SOL    HW1 1537   2.846   3.186   1.395
 1818SOL    HW2 1538   3.009   3.183   1.389
 1820SOL     OW 1539   2.973   3.057   1.100
 1820SOL    HW1 1540   2.933   3.101   1.181
 1820SOL    HW2 1541   2.932   3.094   1.017
 1822SOL     OW 1542   2.777   1.951   1.402
 1822SOL    HW1 1543   2.802   1.931   1.307
 1822SOL    HW2 1544   2.849   2.007   1.444
 1823SOL     OW 1545   2.842   2.978   1.719
 1823SOL    HW1 1546   2.743   2.984   1.729
 1823SOL    HW2 1547   2.865   2.898   1.663
 1825SOL     OW 1548   2.272   2.675   1.251
 1825SOL    HW1 1549   2.358   2.687   1.301
 1825SOL    HW2 1550   2.230   2.588   1.278
 1826SOL     OW 1551   3.136   2.248   1.262
 1826SOL    HW1 1552   3.157   2.322   1.326
 1826SOL    HW2 1553   3.047   2.265   1.219
 1827SOL     OW 1554   1.926   3.426   1.331
 1827SOL    HW1 1555   1.880   3.508   1.297
 1827SOL    HW2 1556   2.024   3.445   1.340
 1829SOL     OW 1557   2.428   2.399   0.865
 1829SOL    HW1 1558   2.440   2.465   0.791
 1829SOL    HW2 1559   2.474   2.433   0.948
 1831SOL     OW 1560   3.134   3.307   1.142
 1831SOL    HW1 1561   3.181   3.320   1.229
 1831SOL    HW2 1562   3.068   3.233   1.151
 1833SOL     OW 1563   2.216   3.372   1.329
 1833SOL    HW1 1564   2.195   3.328   1.242
 1833SOL    HW2 1565   2.313   3.398   1.332
 1834SOL     OW 1566   2.264   2.613   1.598
 1834SOL    HW1 1567   2.332   2.668   1.551
 1834SOL    HW2 1568   2.304   2.525   1.625
 1835SOL     OW 1569   3.449   2.641   1.670
 1835SOL    HW1 1570   3.357   2.679   1.665
 1835SOL    HW2 1571   3.509   2.688   1.605
 1836SOL     OW 1572   2.875   1.967   1.770
 1836SOL    HW1 1573   2.881   2.052   1.718
 1836SOL    HW2 1574   2.907   1.891   1.713
 1837SOL     OW 1575   2.366   1.912   1.740
 1837SOL    HW1 1576   2.324   1.855   1.670
 1837SOL    HW2 1577   2.300   1.981   1.772
 1838SOL     OW 1578   2.435   2.732   1.029
 1838SOL    HW1 1579   2.479   2.821   1.020
 1838SOL    HW2 1580   2.372   2.732   1.106
 1839SOL     OW 1581   3.222   2.724   1.045
 1839SOL    HW1 1582   3.147   2.724   0.979
 1839SOL    HW2 1583   3.259   2.632   1.054
 1841SOL     OW 1584   2.169   2.075   1.231
 1841SOL    HW1 1585   2.146   2.112   1.321
 1841SOL    HW2 1586   2.139   1.980   1.225
 1842SOL     OW 1587   1.899   3.172   1.282
 1842SOL    HW1 1588   1.952   3.123   1.350
 1842SOL    HW2 1589   1.921   3.270   1.287
 1843SOL     OW 1590   2.594   2.496   1.064
 1843SOL    HW1 1591   2.653   2.470   0.988
 1843SOL    HW2 1592   2.566   2.592   1.053
 1844SOL     OW 1593   3.590   2.797   1.854
 1844SOL    HW1 1594   3.544   2.790   1.765
 1844SOL    HW2 1595   3.528   2.841   1.920
 1845SOL     OW 1596   2.169   1.925   0.618
 1845SOL    HW1 1597   2.158   2.019   0.651
 1845SOL    HW2 1598   2.164   1.862   0.695
 1847SOL     OW 1599   2.885   2.628   0.966
 1847SOL    HW1 1600   2.900   2.649   1.062
 1847SOL    HW2 1601   2.855   2.533   0.957
 1848SOL     OW 1602   2.842   3.435   1.700
 1848SOL    HW1 1603   2.822   3.479   1.612
 1848SOL    HW2 1604   2.881   3.344   1.684
 1850SOL     OW 1605   2.212   2.760   1.804
 1850SOL    HW1 1606   2.288   2.804   1.852
 1850SOL    HW2 1607   2.247   2.713   1.722
 1854SOL     OW 1608   2.181   2.672   0.949
 1854SOL    HW1 1609   2.274   2.708   0.954
 1854SOL    HW2 1610   2.175   2.587   1.001
 1855SOL     OW 1611   2.201   2.371   1.006
 1855SOL    HW1 1612   2.149   2.288   0.989
 1855SOL    HW2 1613   2.278   2.376   0.942
 1856SOL     OW 1614   3.000   2.242   1.678
 1856SOL    HW1 1615   2.955   2.305   1.742
 1856SOL    HW2 1616   3.093   2.273   1.661
 1857SOL     OW 1617   3.022   2.069   1.477
 1857SOL    HW1 1618   3.022   2.133   1.554
 1857SOL    HW2 1619   3.050   2.117   1.394
 1860SOL     OW 1620   2.366   3.430   0.910
 1860SOL    HW1 1621   2.432   3.504   0.919
 1860SOL    HW2 1622   2.410   3.351   0.868
 1861SOL     OW 1623   2.864   2.658   1.238
 1861SOL    HW1 1624   2.905   2.626   1.324
 1861SOL    HW2 1625   2.768   2.631   1.235
 1862SOL     OW 1626   1.902   2.406   1.114
 1862SOL    HW1 1627   1.987   2.373   1.073
 1862SOL    HW2 1628   1.915   2.421   1.212
 1863SOL     OW 1629   2.051   2.382   1.722
 1863SOL    HW1 1630   2.110   2.342   1.652
 1863SOL    HW2 1631   1.993   2.453   1.681
 1864SOL     OW 1632   3.231   2.812   1.660
 1864SOL    HW1 1633   3.270   2.901   1.680
 1864SOL    HW2 1634   3.241   2.792   1.563
 1866SOL     OW 1635   3.519   2.466   1.206
 1866SOL    HW1 1636   3.481   2.397   1.268
 1866SOL    HW2 1637   3.601   2.430   1.162
 1867SOL     OW 1638   2.114   3.426   1.744
 1867SOL    HW1 1639   2.084   3.483   1.820
 1867SOL    HW2 1640   2.107   3.329   1.770
 1868SOL     OW 1641   2.533   2.326   1.269
 1868SOL    HW1 1642   2.499   2.237   1.239
 1868SOL    HW2 1643   2.559   2.380   1.189
 1869SOL     OW 1644   2.792   3.540   1.465
 1869SOL    HW1 1645   2.768   3.522   1.370
 1869SOL    HW2 1646   2.822   3.634   1.475
 1871SOL     OW 1647   2.021   2.999   1.466
 1871SOL    HW1 1648   2.043   2.938   1.542
 1871SOL    HW2 1649   2.031   2.950   1.380
 1872SOL     OW 1650   3.209   2.921   1.234
 1872SOL    HW1 1651   3.233   2.858   1.160
 1872SOL    HW2 1652   3.119   2.961   1.216
 1876SOL     OW 1653   1.945   3.120   1.022
 1876SOL    HW1 1654   1.940   3.119   1.122
 1876SOL    HW2 1655   1.862   3.079   0.984
 1877SOL     OW 1656   2.550   3.524   1.716
 1877SOL    HW1 1657   2.494   3.605   1.725
 1877SOL    HW2 1658   2.602   3.528   1.630
 1881SOL     OW 1659   1.992   3.656   1.851
 1881SOL    HW1 1660   1.951   3.582   1.904
 1881SOL    HW2 1661   2.056   3.707   1.909
 1883SOL     OW 1662   2.692   3.135   1.422
 1883SOL    HW1 1663   2.687   3.168   1.517
 1883SOL    HW2 1664   2.606   3.154   1.376
 1887SOL     OW 1665   2.125   2.188   0.720
 1887SOL    HW1 1666   2.046   2.239   0.686
 1887SOL    HW2 1667   2.116   2.173   0.818
 1889SOL     OW 1668   2.684   2.864   1.372
 1889SOL    HW1 1669   2.724   2.863   1.280
 1889SOL    HW2 1670   2.694   2.956   1.412
 1892SOL     OW 1671   2.234   3.150   1.490
 1892SOL    HW1 1672   2.221   3.243   1.456
 1892SOL    HW2 1673   2.150   3.098   1.477
 1895SOL     OW 1674   2.876   2.098   0.971
 1895SOL    HW1 1675   2.868   2.062   0.878
 1895SOL    HW2 1676   2.874   2.022   1.036
 1897SOL     OW 1677   3.571   2.247   1.381
 1897SOL    HW1 1678   3.644   2.316   1.385
 1897SOL    HW2 1679   3.599   2.172   1.322
 1899SOL     OW 1680   1.967   2.875   1.726
 1899SOL    HW1 1681   1.890   2.842   1.780
 1899SOL    HW2 1682   2.052   2.845   1.768
 1900SOL     OW 1683   2.534   2.065   1.489
 1900SOL    HW1 1684   2.624   2.049   1.449
 1900SOL    HW2 1685   2.542   2.070   1.588
 1902SOL     OW 1686   3.302   2.718   1.398
 1902SOL    HW1 1687   3.245   2.770   1.335
 1902SOL    HW2 1688   3.398   2.730   1.374
 1904SOL     OW 1689   2.475   2.704   1.431
 1904SOL    HW1 1690   2.531   2.785   1.414
 1904SOL    HW2 1691   2.534   2.624   1.434
 1906SOL     OW 1692   2.578   2.427   1.708
 1906SOL    HW1 1693   2.597   2.492   1.782
 1906SOL    HW2 1694   2.638   2.347   1.717
 1907SOL     OW 1695   3.312   3.082   1.633
 1907SOL    HW1 1696   3.303   3.072   1.732
 1907SOL    HW2 1697   3.408   3.075   1.607
 1908SOL     OW 1698   2.252   3.603   1.560
 1908SOL    HW1 1699   2.161   3.644   1.558
 1908SOL    HW2 1700   2.245   3.509   1.592
 1909SOL     OW 1701   3.536   2.745   1.254
 1909SOL    HW1 1702   3.509   2.656   1.217
 1909SOL    HW2 1703   3.537   2.813   1.181
 1911SOL     OW 1704   2.456   2.607   0.652
 1911SOL    HW1 1705   2.506   2.692   0.633
 1911SOL    HW2 1706   2.368   2.609   0.604
 1912SOL     OW 1707   3.639   2.204   1.642
 1912SOL    HW1 1708   3.622   2.235   1.548
 1912SOL    HW2 1709   3.555   2.167   1.680
 1913SOL     OW 1710   3.592   2.796   1.517
 1913SOL    HW1 1711   3.630   2.887   1.532
 1913SOL    HW2 1712   3.584   2.779   1.418
 1916SOL     OW 1713   2.721   2.818   0.861
 1916SOL    HW1 1714   2.775   2.749   0.909
 1916SOL    HW2 1715   2.689   2.887   0.927
 1919SOL     OW 1716   2.083   3.176   1.844
 1919SOL    HW1 1717   2.018   3.103   1.823
 1919SOL    HW2 1718   2.087   3.190   1.942
 1921SOL     OW 1719   2.534   3.253   1.624
 1921SOL    HW1 1720   2.456   3.203   1.662
 1921SOL    HW2 1721   2.531   3.348   1.655
 1922SOL     OW 1722   3.686   2.054   1.227
 1922SOL    HW1 1723   3.682   1.964   1.271
 1922SOL    HW2 1724   3.689   2.043   1.128
 1923SOL     OW 1725   2.290   2.286   0.520
 1923SOL    HW1 1726   2.320   2.214   0.458
 1923SOL    HW2 1727   2.251   2.246   0.603
 1925SOL     OW 1728   2.179   2.409   1.280
 1925SOL    HW1 1729   2.217   2.350   1.352
 1925SOL    HW2 1730   2.219   2.383   1.192
 1927SOL     OW 1731   3.286   2.076   1.112
 1927SOL    HW1 1732   3.338   2.011   1.167
 1927SOL    HW2 1733   3.237   2.139   1.173
 1928SOL     OW 1734   2.863   1.896   1.154
 1928SOL    HW1 1735   2.800   1.824   1.123
 1928SOL    HW2 1736   2.956   1.860   1.154
 1930SOL     OW 1737   2.480   3.429   1.284
 1930SOL    HW1 1738   2.475   3.511   1.341
 1930SOL    HW2 1739   2.569   3.426   1.239
 1936SOL     OW 1740   2.092   2.490   1.975
 1936SOL    HW1 1741   1.999   2.488   2.012
 1936SOL    HW2 1742   2.093   2.451   1.883
 1937SOL     OW 1743   2.087   2.137   2.858
 1937SOL    HW1 1744   2.122   2.120   2.950
 1937SOL    HW2 1745   1.999   2.092   2.846
 1938SOL     OW 1746   1.881   2.230   2.509
 1938SOL    HW1 1747   1.799   2.273   2.548
 1938SOL    HW2 1748   1.853   2.157   2.446
 1939SOL     OW 1749   2.431   3.137   3.027
 1939SOL    HW1 1750   2.338   3.130   2.990
 1939SOL    HW2 1751   2.442   3.226   3.071
 1940SOL     OW 1752   3.417   3.373   2.565
 1940SOL    HW1 1753   3.360   3.357   2.646
 1940SOL    HW2 1754   3.358   3.383   2.485
 1941SOL     OW 1755   2.997   2.565   2.579
 1941SOL    HW1 1756   3.054   2.643   2.554
 1941SOL    HW2 1757   2.937   2.591   2.655
 1942SOL     OW 1758   3.617   2.469   2.093
 1942SOL    HW1 1759   3.605   2.456   1.994
 1942SOL    HW2 1760   3.587   2.388   2.142
 1943SOL     OW 1761   2.630   3.006   2.885
 1943SOL    HW1 1762   2.552   3.023   2.945
 1943SOL    HW2 1763   2.664   3.093   2.849
 1944SOL     OW 1764   2.712   2.660   3.685
 1944SOL    HW1 1765   2.708   2.736   3.750
 1944SOL    HW2 1766   2.734   2.696   3.594
 1945SOL     OW 1767   2.547   2.874   2.527
 1945SOL    HW1 1768   2.616   2.858   2.597
 1945SOL    HW2 1769   2.474   2.931   2.565
 1946SOL     OW 1770   2.548   3.023   3.665
 1946SOL    HW1 1771   2.608   3.102   3.679
 1946SOL    HW2 1772   2.462   3.054   3.624
 1947SOL     OW 1773   2.197   3.297   2.923
 1947SOL    HW1 1774   2.119   3.266   2.870
 1947SOL    HW2 1775   2.255   3.355   2.866
 1949SOL     OW 1776   2.300   2.254   3.361
 1949SOL    HW1 1777   2.382   2.198   3.370
 1949SOL    HW2 1778   2.219   2.196   3.365
 1950SOL     OW 1779   3.465   2.309   2.599
 1950SOL    HW1 1780   3.391   2.355   2.549
 1950SOL    HW2 1781   3.516   2.377   2.652
 1951SOL     OW 1782   2.093   3.575   2.345
 1951SOL    HW1 1783   2.127   3.652   2.399
 1951SOL    HW2 1784   2.137   3.575   2.255
 1953SOL     OW 1785   2.092   3.296   2.400
 1953SOL    HW1 1786   2.066   3.392   2.400
 1953SOL    HW2 1787   2.021   3.242   2.445
 1954SOL     OW 1788   2.102   2.953   2.748
 1954SOL    HW1 1789   2.116   2.869   2.800
 1954SOL    HW2 1790   2.047   3.017   2.803
 1955SOL     OW 1791   2.482   3.648   3.301
 1955SOL    HW1 1792   2.390   3.631   3.336
 1955SOL    HW2 1793   2.510   3.740   3.327
 1956SOL     OW 1794   2.468   2.826   1.985
 1956SOL    HW1 1795   2.475   2.910   1.931
 1956SOL    HW2 1796   2.514   2.839   2.073
 1957SOL     OW 1797   3.456   1.976   3.342
 1957SOL    HW1 1798   3.438   2.043   3.270
 1957SOL    HW2 1799   3.453   2.022   3.431
 1958SOL     OW 1800   1.984   2.505   2.425
 1958SOL    HW1 1801   1.939   2.417   2.442
 1958SOL    HW2 1802   1.983   2.559   2.509
 1960SOL     OW 1803   1.889   3.458   1.979
 1960SOL    HW1 1804   1.870   3.362   2.000
 1960SOL    HW2 1805   1.856   3.516   2.054
 1961SOL     OW 1806   3.551   2.784   2.474
 1961SOL    HW1 1807   3.646   2.755   2.482
 1961SOL    HW2 1808   3.543   2.849   2.399
 1962SOL     OW 1809   3.503   2.970   2.294
 1962SOL    HW1 1810   3.589   2.972   2.242
 1962SOL    HW2 1811   3.517   3.017   2.382
 1963SOL     OW 1812   1.975   2.599   3.459
 1963SOL    HW1 1813   2.063   2.586   3.504
 1963SOL    HW2 1814   1.962   2.696   3.437
 1964SOL     OW 1815   2.475   3.227   2.588
 1964SOL    HW1 1816   2.426   3.140   2.597
 1964SOL    HW2 1817   2.452   3.270   2.501
 1965SOL     OW 1818   3.155   3.090   3.285
 1965SOL    HW1 1819   3.192   3.017   3.227
 1965SOL    HW2 1820   3.207   3.095   3.370
 1966SOL     OW 1821   2.671   1.866   2.364
 1966SOL    HW1 1822   2.711   1.957   2.355
 1966SOL    HW2 1823   2.571   1.874   2.370
 1967SOL     OW 1824   2.059   2.838   3.126
 1967SOL    HW1 1825   2.148   2.793   3.112
 1967SOL    HW2 1826   1.986   2.773   3.107
 1968SOL     OW 1827   3.387   2.861   2.052
 1968SOL    HW1 1828   3.324   2.785   2.065
 1968SOL    HW2 1829   3.435   2.879   2.138
 1970SOL     OW 1830   2.179   2.113   3.663
 1970SOL    HW1 1831   2.250   2.184   3.669
 1970SOL    HW2 1832   2.091   2.152   3.691
 1971SOL     OW 1833   3.328   3.279   2.815
 1971SOL    HW1 1834   3.269   3.285   2.895
 1971SOL    HW2 1835   3.313   3.191   2.769
 1973SOL     OW 1836   2.460   2.591   2.132
 1973SOL    HW1 1837   2.484   2.660   2.064
 1973SOL    HW2 1838   2.382   2.624   2.186
 1974SOL     OW 1839   3.143   2.207   2.806
 1974SOL    HW1 1840   3.057   2.157   2.793
 1974SOL    HW2 1841   3.205   2.153   2.862
 1975SOL     OW 1842   3.438   3.524   2.169
 1975SOL    HW1 1843   3.527   3.570   2.172
 1975SOL    HW2 1844   3.417   3.500   2.074
 1976SOL     OW 1845   2.669   2.467   3.327
 1976SOL    HW1 1846   2.622   2.464   3.416
 1976SOL    HW2 1847   2.618   2.412   3.261
 1977SOL     OW 1848   3.256   2.331   3.536
 1977SOL    HW1 1849   3.236   2.374   3.624
 1977SOL    HW2 1850   3.334   2.269   3.545
 1978SOL     OW 1851   2.835   2.752   3.434
 1978SOL    HW1 1852   2.881   2.668   3.405
 1978SOL    HW2 1853   2.779   2.786   3.359
 1979SOL     OW 1854   2.853   2.272   3.104
 1979SOL    HW1 1855   2.776   2.306   3.158
 1979SOL    HW2 1856   2.819   2.221   3.025
 1980SOL     OW 1857   2.903   2.563   2.291
 1980SOL    HW1 1858   2.929   2.559   2.387
 1980SOL    HW2 1859   2.818   2.512   2.277
 1981SOL     OW 1860   1.938   2.673   2.651
 1981SOL    HW1 1861   2.037   2.661   2.660
 1981SOL    HW2 1862   1.914   2.768   2.672
 1983SOL     OW 1863   2.727   2.210   2.057
 1983SOL    HW1 1864   2.786   2.273   2.008
 1983SOL    HW2 1865   2.746   2.116   2.028
 1985SOL     OW 1866   3.224   3.006   2.407
 1985SOL    HW1 1867   3.307   2.977   2.359
 1985SOL    HW2 1868   3.175   3.073   2.351
 1986SOL     OW 1869   2.412   2.058   2.747
 1986SOL    HW1 1870   2.407   2.053   2.847
 1986SOL    HW2 1871   2.414   2.154   2.718
 1987SOL     OW 1872   2.870   3.318   2.339
 1987SOL    HW1 1873   2.824   3.390   2.287
 1987SOL    HW2 1874   2.866   3.338   2.437
 1988SOL     OW 1875   2.213   3.663   2.715
 1988SOL    HW1 1876   2.263   3.577   2.721
 1988SOL    HW2 1877   2.278   3.740   2.712
 1989SOL     OW 1878   3.657   2.928   2.735
 1989SOL    HW1 1879   3.595   2.913   2.659
 1989SOL    HW2 1880   3.605   2.939   2.820
 1991SOL     OW 1881   2.183   2.805   2.104
 1991SOL    HW1 1882   2.265   2.844   2.062
 1991SOL    HW2 1883   2.156   2.723   2.055
 1992SOL     OW 1884   3.320   2.597   2.590
 1992SOL    HW1 1885   3.315   2.532   2.665
 1992SOL    HW2 1886   3.400   2.656   2.603
 1993SOL     OW 1887   2.323   3.128   3.589
 1993SOL    HW1 1888   2.273   3.129   3.503
 1993SOL    HW2 1889   2.260   3.110   3.665
 1994SOL     OW 1890   2.973   3.638   2.099
 1994SOL    HW1 1891   2.913   3.576   2.149
 1994SOL    HW2 1892   3.004   3.594   2.014
 1995SOL     OW 1893   2.064   2.147   3.360
 1995SOL    HW1 1894   1.984   2.207   3.347
 1995SOL    HW2 1895   2.054   2.098   3.446
 1996SOL     OW 1896   3.494   3.239   1.943
 1996SOL    HW1 1897   3.462   3.333   1.933
 1996SOL    HW2 1898   3.418   3.176   1.931
 1997SOL     OW 1899   2.326   3.605   2.185
 1997SOL    HW1 1900   2.359   3.644   2.271
 1997SOL    HW2 1901   2.402   3.598   2.120
 1998SOL     OW 1902   3.262   1.969   2.288
 1998SOL    HW1 1903   3.238   1.932   2.198
 1998SOL    HW2 1904   3.361   1.985   2.292
 1999SOL     OW 1905   2.111   3.647   3.103
 1999SOL    HW1 1906   2.168   3.582   3.153
 1999SOL    HW2 1907   2.095   3.614   3.010
 2000SOL     OW 1908   2.802   3.560   2.766
 2000SOL    HW1 1909   2.882   3.503   2.787
 2000SOL    HW2 1910   2.753   3.520   2.689
 2002SOL     OW 1911   2.476   1.984   1.979
 2002SOL    HW1 1912   2.574   1.962   1.986
 2002SOL    HW2 1913   2.445   1.967   1.886
 2003SOL     OW 1914   2.643   2.126   3.611
 2003SOL    HW1 1915   2.710   2.065   3.654
 2003SOL    HW2 1916   2.570   2.145   3.676
 2004SOL     OW 1917   2.750   3.376   3.057
 2004SOL    HW1 1918   2.727   3.351   2.963
 2004SOL    HW2 1919   2.811   3.307   3.096
 2005SOL     OW 1920   3.213   2.452   3.295
 2005SOL    HW1 1921   3.241   2.409   3.380
 2005SOL    HW2 1922   3.238   2.548   3.296
 2006SOL     OW 1923   2.665   3.264   2.786
 2006SOL    HW1 1924   2.755   3.278   2.744
 2006SOL    HW2 1925   2.594   3.266   2.715
 2007SOL     OW 1926   2.784   2.365   2.761
 2007SOL    HW1 1927   2.759   2.356   2.665
 2007SOL    HW2 1928   2.832   2.283   2.792
 2008SOL     OW 1929   2.401   1.926   2.374
 2008SOL    HW1 1930   2.320   1.927   2.432
 2008SOL    HW2 1931   2.404   2.009   2.319
 2009SOL     OW 1932   3.296   3.050   1.903
 2009SOL    HW1 1933   3.328   2.974   1.960
 2009SOL    HW2 1934   3.204   3.077   1.933
 2010SOL     OW 1935   2.159   1.897   2.033
 2010SOL    HW1 1936   2.208   1.981   2.012
 2010SOL    HW2 1937   2.221   1.832   2.078
 2011SOL     OW 1938   2.797   2.098   2.342
 2011SOL    HW1 1939   2.749   2.139   2.264
 2011SOL    HW2 1940   2.896   2.096   2.323
 2012SOL     OW 1941   2.938   2.545   3.326
 2012SOL    HW1 1942   2.858   2.484   3.329
 2012SOL    HW2 1943   3.019   2.492   3.302
 2013SOL     OW 1944   3.089   3.432   2.655
 2013SOL    HW1 1945   3.110   3.506   2.590
 2013SOL    HW2 1946   3.157   3.432   2.728
 2014SOL     OW 1947   2.321   3.014   2.603
 2014SOL    HW1 1948   2.250   2.987   2.668
 2014SOL    HW2 1949   2.295   2.986   2.510
 2015SOL     OW 1950   3.133   3.659   2.453
 2015SOL    HW1 1951   3.177   3.723   2.389
 2015SOL    HW2 1952   3.083   3.711   2.523
 2016SOL     OW 1953   2.894   2.411   1.878
 2016SOL    HW1 1954   2.853   2.493   1.839
 2016SOL    HW2 1955   2.958   2.437   1.951
 2017SOL     OW 1956   1.940   2.418   3.248
 2017SOL    HW1 1957   2.032   2.417   3.207
 2017SOL    HW2 1958   1.934   2.492   3.315
 2018SOL     OW 1959   2.423   2.084   3.009
 2018SOL    HW1 1960   2.461   2.000   3.046
 2018SOL    HW2 1961   2.335   2.103   3.053
 2019SOL     OW 1962   2.728   2.316   2.504
 2019SOL    HW1 1963   2.696   2.388   2.442
 2019SOL    HW2 1964   2.752   2.235   2.451
 2020SOL     OW 1965   2.879   1.901   2.615
 2020SOL    HW1 1966   2.807   1.906   2.546
 2020SOL    HW2 1967   2.855   1.832   2.684
 2021SOL     OW 1968   3.291   3.035   2.729
 2021SOL    HW1 1969   3.236   2.951   2.722
 2021SOL    HW2 1970   3.317   3.064   2.637
 2022SOL     OW 1971   3.328   2.452   2.854
 2022SOL    HW1 1972   3.298   2.357   2.861
 2022SOL    HW2 1973   3.401   2.468   2.920
 2023SOL     OW 1974   3.719   2.695   2.239
 2023SOL    HW1 1975   3.761   2.631   2.303
 2023SOL    HW2 1976   3.681   2.644   2.161
 2024SOL     OW 1977   2.350   3.247   2.036
 2024SOL    HW1 1978   2.263   3.232   2.083
 2024SOL    HW2 1979   2.333   3.273   1.941
 2025SOL     OW 1980   3.526   3.142   2.519
 2025SOL    HW1 1981   3.625   3.150   2.533
 2025SOL    HW2 1982   3.481   3.226   2.550
 2026SOL     OW 1983   3.252   2.437   1.940
 2026SOL    HW1 1984   3.198   2.416   2.021
 2026SOL    HW2 1985   3.343   2.396   1.949
 2028SOL     OW 1986   2.926   3.209   3.202
 2028SOL    HW1 1987   2.846   3.186   3.257
 2028SOL    HW2 1988   3.009   3.183   3.251
 2030SOL     OW 1989   2.973   3.057   2.962
 2030SOL    HW1 1990   2.933   3.101   3.043
 2030SOL    HW2 1991   2.932   3.094   2.879
 2031SOL     OW 1992   3.500   2.961   2.941
 2031SOL    HW1 1993   3.505   3.042   3.000
 2031SOL    HW2 1994   3.414   2.963   2.890
 2032SOL     OW 1995   2.777   1.951   3.264
 2032SOL    HW1 1996   2.802   1.931   3.169
 2032SOL    HW2 1997   2.849   2.007   3.306
 2033SOL     OW 1998   2.842   2.978   3.581
 2033SOL    HW1 1999   2.743   2.984   3.591
 2033SOL    HW2 2000   2.865   2.898   3.525
 2034SOL     OW 2001   2.567   2.912   2.230
 2034SOL    HW1 2002   2.553   2.919   2.329
 2034SOL    HW2 2003   2.651   2.861   2.212
 2035SOL     OW 2004   2.272   2.675   3.113
 2035SOL    HW1 2005   2.358   2.687   3.163
 2035SOL    HW2 2006   2.230   2.588   3.140
 2036SOL     OW 2007   3.136   2.248   3.124
 2036SOL    HW1 2008   3.157   2.322   3.188
 2036SOL    HW2 2009   3.047   2.265   3.081
 2037SOL     OW 2010   1.926   3.426   3.193
 2037SOL    HW1 2011   1.880   3.508   3.159
 2037SOL    HW2 2012   2.024   3.445   3.202
 2038SOL     OW 2013   2.229   2.962   2.363
 2038SOL    HW1 2014   2.222   3.045   2.307
 2038SOL    HW2 2015   2.233   2.882   2.303
 2039SOL     OW 2016   2.428   2.399   2.727
 2039SOL    HW1 2017   2.440   2.465   2.653
 2039SOL    HW2 2018   2.474   2.433   2.810
 2040SOL     OW 2019   3.114   3.210   2.250
 2040SOL    HW1 2020   3.164   3.287   2.290
 2040SOL    HW2 2021   3.019   3.212   2.282
 2041SOL     OW 2022   3.134   3.307   3.004
 2041SOL    HW1 2023   3.181   3.320   3.091
 2041SOL    HW2 2024   3.068   3.233   3.013
 2042SOL     OW 2025   3.444   2.501   2.334
 2042SOL    HW1 2026   3.413   2.562   2.407
 2042SOL    HW2 2027   3.494   2.553   2.265
 2043SOL     OW 2028   2.216   3.372   3.191
 2043SOL    HW1 2029   2.195   3.328   3.104
 2043SOL    HW2 2030   2.313   3.398   3.194
 2044SOL     OW 2031   2.264   2.613   3.460
 2044SOL    HW1 2032   2.332   2.668   3.413
 2044SOL    HW2 2033   2.304   2.525   3.487
 2046SOL     OW 2034   2.875   1.967   3.632
 2046SOL    HW1 2035   2.881   2.052   3.580
 2046SOL    HW2 2036   2.907   1.891   3.575
 2047SOL     OW 2037   2.366   1.912   3.602
 2047SOL    HW1 2038   2.324   1.855   3.532
 2047SOL    HW2 2039   2.300   1.981   3.634
 2048SOL     OW 2040   2.435   2.732   2.891
 2048SOL    HW1 2041   2.479   2.821   2.882
 2048SOL    HW2 2042   2.372   2.732   2.968
 2049SOL     OW 2043   3.222   2.724   2.907
 2049SOL    HW1 2044   3.147   2.724   2.841
 2049SOL    HW2 2045   3.259   2.632   2.916
 2050SOL     OW 2046   3.071   2.387   2.137
 2050SOL    HW1 2047   3.084   2.303   2.191
 2050SOL    HW2 2048   3.042   2.461   2.197
 2051SOL     OW 2049   2.169   2.075   3.093
 2051SOL    HW1 2050   2.146   2.112   3.183
 2051SOL    HW2 2051   2.139   1.980   3.087
 2052SOL     OW 2052   1.899   3.172   3.144
 2052SOL    HW1 2053   1.952   3.123   3.212
 2052SOL    HW2 2054   1.921   3.270   3.149
 2053SOL     OW 2055   2.594   2.496   2.926
 2053SOL    HW1 2056   2.653   2.470   2.850
 2053SOL    HW2 2057   2.566   2.592   2.915
 2055SOL     OW 2058   2.169   1.925   2.480
 2055SOL    HW1 2059   2.158   2.019   2.513
 2055SOL    HW2 2060   2.164   1.862   2.557
 2056SOL     OW 2061   3.484   2.229   2.236
 2056SOL    HW1 2062   3.486   2.153   2.300
 2056SOL    HW2 2063   3.436   2.306   2.276
 2057SOL     OW 2064   2.885   2.628   2.828
 2057SOL    HW1 2065   2.900   2.649   2.924
 2057SOL    HW2 2066   2.855   2.533   2.819
 2060SOL     OW 2067   2.212   2.760   3.666
 2060SOL    HW1 2068   2.288   2.804   3.714
 2060SOL    HW2 2069   2.247   2.713   3.584
 2061SOL     OW 2070   3.402   2.136   1.987
 2061SOL    HW1 2071   3.341   2.061   2.010
 2061SOL    HW2 2072   3.424   2.188   2.070
 2062SOL     OW 2073   3.165   2.700   1.904
 2062SOL    HW1 2074   3.199   2.607   1.919
 2062SOL    HW2 2075   3.183   2.727   1.809
 2063SOL     OW 2076   2.930   3.195   2.711
 2063SOL    HW1 2077   2.937   3.111   2.656
 2063SOL    HW2 2078   2.992   3.264   2.675
 2064SOL     OW 2079   2.181   2.672   2.811
 2064SOL    HW1 2080   2.274   2.708   2.816
 2064SOL    HW2 2081   2.175   2.587   2.863
 2065SOL     OW 2082   2.201   2.371   2.868
 2065SOL    HW1 2083   2.149   2.288   2.851
 2065SOL    HW2 2084   2.278   2.376   2.804
 2066SOL     OW 2085   3.000   2.242   3.540
 2066SOL    HW1 2086   2.955   2.305   3.604
 2066SOL    HW2 2087   3.093   2.273   3.523
 2067SOL     OW 2088   3.022   2.069   3.339
 2067SOL    HW1 2089   3.022   2.133   3.416
 2067SOL    HW2 2090   3.050   2.117   3.256
 2068SOL     OW 2091   1.870   3.188   2.062
 2068SOL    HW1 2092   1.777   3.209   2.031
 2068SOL    HW2 2093   1.880   3.089   2.075
 2069SOL     OW 2094   1.950   3.663   2.789
 2069SOL    HW1 2095   1.908   3.577   2.762
 2069SOL    HW2 2096   2.044   3.666   2.755
 2070SOL     OW 2097   2.366   3.430   2.772
 2070SOL    HW1 2098   2.432   3.504   2.781
 2070SOL    HW2 2099   2.410   3.351   2.730
 2071SOL     OW 2100   2.864   2.658   3.100
 2071SOL    HW1 2101   2.905   2.626   3.186
 2071SOL    HW2 2102   2.768   2.631   3.097
 2072SOL     OW 2103   1.902   2.406   2.976
 2072SOL    HW1 2104   1.987   2.373   2.935
 2072SOL    HW2 2105   1.915   2.421   3.074
 2073SOL     OW 2106   2.051   2.382   3.584
 2073SOL    HW1 2107   2.110   2.342   3.514
 2073SOL    HW2 2108   1.993   2.453   3.543
 2074SOL     OW 2109   3.231   2.812   3.522
 2074SOL    HW1 2110   3.270   2.901   3.542
 2074SOL    HW2 2111   3.241   2.792   3.425
 2075SOL     OW 2112   2.677   2.434   2.187
 2075SOL    HW1 2113   2.684   2.345   2.141
 2075SOL    HW2 2114   2.583   2.468   2.179
 2076SOL     OW 2115   3.519   2.466   3.068
 2076SOL    HW1 2116   3.481   2.397   3.130
 2076SOL    HW2 2117   3.601   2.430   3.024
 2078SOL     OW 2118   2.533   2.326   3.131
 2078SOL    HW1 2119   2.499   2.237   3.101
 2078SOL    HW2 2120   2.559   2.380   3.051
 2079SOL     OW 2121   2.792   3.540   3.327
 2079SOL    HW1 2122   2.768   3.522   3.232
 2079SOL    HW2 2123   2.822   3.634   3.337
 2080SOL     OW 2124   2.021   2.999   3.328
 2080SOL    HW1 2125   2.043   2.938   3.404
 2080SOL    HW2 2126   2.031   2.950   3.242
 2081SOL     OW 2127   3.209   2.921   3.096
 2081SOL    HW1 2128   3.233   2.858   3.022
 2081SOL    HW2 2129   3.119   2.961   3.078
 2082SOL     OW 2130   3.164   2.717   2.171
 2082SOL    HW1 2131   3.078   2.686   2.213
 2082SOL    HW2 2132   3.160   2.703   2.072
 2084SOL     OW 2133   3.114   3.593   2.990
 2084SOL    HW1 2134   3.198   3.598   2.936
 2084SOL    HW2 2135   3.091   3.497   3.008
 2085SOL     OW 2136   1.945   3.120   2.884
 2085SOL    HW1 2137   1.940   3.119   2.984
 2085SOL    HW2 2138   1.862   3.079   2.846
 2087SOL     OW 2139   3.588   1.997   2.385
 2087SOL    HW1 2140   3.661   1.980   2.318
 2087SOL    HW2 2141   3.557   1.910   2.423
 2088SOL     OW 2142   3.250   3.435   2.339
 2088SOL    HW1 2143   3.317   3.447   2.265
 2088SOL    HW2 2144   3.210   3.524   2.362
 2090SOL     OW 2145   3.142   2.789   2.534
 2090SOL    HW1 2146   3.202   2.708   2.536
 2090SOL    HW2 2147   3.182   2.858   2.474
 2091SOL     OW 2148   2.692   3.135   3.284
 2091SOL    HW1 2149   2.687   3.168   3.379
 2091SOL    HW2 2150   2.606   3.154   3.238
 2092SOL     OW 2151   2.534   3.478   2.016
 2092SOL    HW1 2152   2.543   3.488   1.917
 2092SOL    HW2 2153   2.494   3.389   2.037
 2094SOL     OW 2154   3.703   2.037   2.825
 2094SOL    HW1 2155   3.742   1.952   2.789
 2094SOL    HW2 2156   3.605   2.039   2.806
 2095SOL     OW 2157   3.056   3.474   1.893
 2095SOL    HW1 2158   3.062   3.381   1.930
 2095SOL    HW2 2159   2.997   3.474   1.813
 2096SOL     OW 2160   2.684   2.864   3.234
 2096SOL    HW1 2161   2.724   2.863   3.142
 2096SOL    HW2 2162   2.694   2.956   3.274
 2097SOL     OW 2163   2.778   2.772   2.153
 2097SOL    HW1 2164   2.841   2.810   2.085
 2097SOL    HW2 2165   2.818   2.689   2.192
 2098SOL     OW 2166   3.366   3.469   1.906
 2098SOL    HW1 2167   3.274   3.506   1.913
 2098SOL    HW2 2168   3.404   3.489   1.816
 2099SOL     OW 2169   2.234   3.150   3.352
 2099SOL    HW1 2170   2.221   3.243   3.318
 2099SOL    HW2 2171   2.150   3.098   3.339
 2101SOL     OW 2172   2.901   2.960   2.558
 2101SOL    HW1 2173   2.831   2.913   2.612
 2101SOL    HW2 2174   2.960   2.892   2.515
 2102SOL     OW 2175   2.876   2.098   2.833
 2102SOL    HW1 2176   2.868   2.062   2.740
 2102SOL    HW2 2177   2.874   2.022   2.898
 2103SOL     OW 2178   2.452   3.349   2.353
 2103SOL    HW1 2179   2.494   3.291   2.283
 2103SOL    HW2 2180   2.408   3.428   2.309
 2104SOL     OW 2181   3.571   2.247   3.243
 2104SOL    HW1 2182   3.644   2.316   3.247
 2104SOL    HW2 2183   3.599   2.172   3.184
 2105SOL     OW 2184   2.117   3.210   2.152
 2105SOL    HW1 2185   2.021   3.211   2.125
 2105SOL    HW2 2186   2.129   3.263   2.236
 2106SOL     OW 2187   1.967   2.875   3.588
 2106SOL    HW1 2188   1.890   2.842   3.642
 2106SOL    HW2 2189   2.052   2.845   3.630
 2107SOL     OW 2190   2.534   2.065   3.351
 2107SOL    HW1 2191   2.624   2.049   3.311
 2107SOL    HW2 2192   2.542   2.070   3.450
 2108SOL     OW 2193   1.937   2.207   1.895
 2108SOL    HW1 2194   1.845   2.179   1.866
 2108SOL    HW2 2195   1.968   2.284   1.839
 2109SOL     OW 2196   3.302   2.718   3.260
 2109SOL    HW1 2197   3.245   2.770   3.197
 2109SOL    HW2 2198   3.398   2.730   3.236
 2110SOL     OW 2199   1.934   2.028   2.180
 2110SOL    HW1 2200   1.917   2.111   2.126
 2110SOL    HW2 2201   2.024   1.991   2.158
 2111SOL     OW 2202   3.045   3.197   1.981
 2111SOL    HW1 2203   2.946   3.186   1.983
 2111SOL    HW2 2204   3.079   3.212   2.074
 2112SOL     OW 2205   2.475   2.704   3.293
 2112SOL    HW1 2206   2.531   2.785   3.276
 2112SOL    HW2 2207   2.534   2.624   3.296
 2114SOL     OW 2208   2.578   2.427   3.570
 2114SOL    HW1 2209   2.597   2.492   3.644
 2114SOL    HW2 2210   2.638   2.347   3.579
 2117SOL     OW 2211   3.536   2.745   3.116
 2117SOL    HW1 2212   3.509   2.656   3.079
 2117SOL    HW2 2213   3.537   2.813   3.043
 2118SOL     OW 2214   3.087   2.187   2.311
 2118SOL    HW1 2215   3.152   2.113   2.300
 2118SOL    HW2 2216   3.107   2.237   2.395
 2119SOL     OW 2217   2.456   2.607   2.514
 2119SOL    HW1 2218   2.506   2.692   2.495
 2119SOL    HW2 2219   2.368   2.609   2.466
 2122SOL     OW 2220   2.721   3.236   1.878
 2122SOL    HW1 2221   2.675   3.251   1.966
 2122SOL    HW2 2222   2.765   3.321   1.848
 2123SOL     OW 2223   2.523   3.652   2.815
 2123SOL    HW1 2224   2.477   3.740   2.802
 2123SOL    HW2 2225   2.622   3.664   2.808
 2124SOL     OW 2226   2.721   2.818   2.723
 2124SOL    HW1 2227   2.775   2.749   2.771
 2124SOL    HW2 2228   2.689   2.887   2.789
 2125SOL     OW 2229   2.945   2.846   1.949
 2125SOL    HW1 2230   2.922   2.899   1.867
 2125SOL    HW2 2231   3.026   2.790   1.930
 2127SOL     OW 2232   2.083   3.176   3.706
 2127SOL    HW1 2233   2.018   3.103   3.685
 2127SOL    HW2 2234   2.087   3.190   3.804
 2128SOL     OW 2235   1.941   3.102   2.515
 2128SOL    HW1 2236   1.940   3.055   2.603
 2128SOL    HW2 2237   2.023   3.074   2.464
 2129SOL     OW 2238   2.534   3.253   3.486
 2129SOL    HW1 2239   2.456   3.203   3.524
 2129SOL    HW2 2240   2.531   3.348   3.517
 2130SOL     OW 2241   3.686   2.054   3.089
 2130SOL    HW1 2242   3.682   1.964   3.133
 2130SOL    HW2 2243   3.689   2.043   2.990
 2132SOL     OW 2244   2.179   2.409   3.142
 2132SOL    HW1 2245   2.217   2.350   3.214
 2132SOL    HW2 2246   2.219   2.383   3.054
 2133SOL     OW 2247   2.674   3.448   2.549
 2133SOL    HW1 2248   2.706   3.458   2.455
 2133SOL    HW2 2249   2.595   3.386   2.551
 2134SOL     OW 2250   3.286   2.076   2.974
 2134SOL    HW1 2251   3.338   2.011   3.029
 2134SOL    HW2 2252   3.237   2.139   3.035
 2135SOL     OW 2253   2.863   1.896   3.016
 2135SOL    HW1 2254   2.800   1.824   2.985
 2135SOL    HW2 2255   2.956   1.860   3.016
 2136SOL     OW 2256   2.632   3.192   2.163
 2136SOL    HW1 2257   2.586   3.105   2.180
 2136SOL    HW2 2258   2.723   3.189   2.204
 2137SOL     OW 2259   2.480   3.429   3.146
 2137SOL    HW1 2260   2.475   3.511   3.203
 2137SOL    HW2 2261   2.569   3.426   3.101
 2138SOL     OW 2262   3.214   1.914   2.030
 2138SOL    HW1 2263   3.249   1.873   1.946
 2138SOL    HW2 2264   3.124   1.876   2.050
 2139SOL     OW 2265   3.162   2.315   2.553
 2139SOL    HW1 2266   3.103   2.395   2.557
 2139SOL    HW2 2267   3.177   2.280   2.646
 2140SOL     OW 2268   3.455   2.083   2.744
 2140SOL    HW1 2269   3.371   2.082   2.798
 2140SOL    HW2 2270   3.457   2.166   2.688
 2141SOL     OW 2271   1.901   2.939   2.162
 2141SOL    HW1 2272   2.000   2.928   2.153
 2141SOL    HW2 2273   1.861   2.853   2.194
 2142SOL     OW 2274   2.737   3.508   2.199
 2142SOL    HW1 2275   2.660   3.473   2.145
 2142SOL    HW2 2276   2.705   3.579   2.261
 2143SOL     OW 2277   2.092   2.490   3.837
 2143SOL    HW1 2278   1.999   2.488   3.874
 2143SOL    HW2 2279   2.093   2.451   3.745
 2149SOL     OW 2280   2.468   2.826   3.847
 2149SOL    HW1 2281   2.475   2.910   3.793
 2149SOL    HW2 2282   2.514   2.839   3.935
 2164SOL     OW 2283   2.727   2.210   3.919
 2164SOL    HW1 2284   2.786   2.273   3.870
 2164SOL    HW2 2285   2.746   2.116   3.890
 2175SOL     OW 2286   2.476   1.984   3.841
 2175SOL    HW1 2287   2.574   1.962   3.848
 2175SOL    HW2 2288   2.445   1.967   3.748
 2178SOL     OW 2289   2.159   1.897   3.895
 2178SOL    HW1 2290   2.208   1.981   3.874
 2178SOL    HW2 2291   2.221   1.832   3.940
 2182SOL     OW 2292   2.894   2.411   3.740
 2182SOL    HW1 2293   2.853   2.493   3.701
 2182SOL    HW2 2294   2.958   2.437   3.813
 2200SOL     OW 2295   2.335   2.362   3.915
 2200SOL    HW1 2296   2.396   2.442   3.919
 2200SOL    HW2 2297   2.240   2.393   3.922
 2211SOL     OW 2298   1.937   2.207   3.757
 2211SOL    HW1 2299   1.845   2.179   3.728
 2211SOL    HW2 2300   1.968   2.284   3.701
 2236SOL     OW 2301   2.179   3.975   1.801
 2236SOL    HW1 2302   2.250   4.046   1.807
 2236SOL    HW2 2303   2.091   4.014   1.829
 2268SOL     OW 2304   2.875   3.829   1.770
 2268SOL    HW1 2305   2.881   3.914   1.718
 2268SOL    HW2 2306   2.907   3.753   1.713
 2269SOL     OW 2307   2.366   3.774   1.740
 2269SOL    HW1 2308   2.324   3.717   1.670
 2269SOL    HW2 2309   2.300   3.843   1.772
 2316SOL     OW 2310   2.671   3.728   2.364
 2316SOL    HW1 2311   2.711   3.819   2.355
 2316SOL    HW2 2312   2.571   3.736   2.370
 2325SOL     OW 2313   2.412   3.920   2.747
 2325SOL    HW1 2314   2.407   3.915   2.847
 2325SOL    HW2 2315   2.414   4.016   2.718
 2330SOL     OW 2316   2.476   3.846   1.979
 2330SOL    HW1 2317   2.574   3.824   1.986
 2330SOL    HW2 2318   2.445   3.829   1.886
 2334SOL     OW 2319   2.401   3.788   2.374
 2334SOL    HW1 2320   2.320   3.789   2.432
 2334SOL    HW2 2321   2.404   3.871   2.319
 2335SOL     OW 2322   2.159   3.759   2.033
 2335SOL    HW1 2323   2.208   3.843   2.012
 2335SOL    HW2 2324   2.221   3.694   2.078
 2342SOL     OW 2325   2.879   3.763   2.615
 2342SOL    HW1 2326   2.807   3.768   2.546
 2342SOL    HW2 2327   2.855   3.694   2.684
 2345SOL     OW 2328   2.389   3.980   2.190
 2345SOL    HW1 2329   2.416   3.921   2.115
 2345SOL    HW2 2330   2.389   4.075   2.159
 2355SOL     OW 2331   2.169   3.787   2.480
 2355SOL    HW1 2332   2.158   3.881   2.513
 2355SOL    HW2 2333   2.164   3.724   2.557
 2376SOL     OW 2334   1.934   3.890   2.180
 2376SOL    HW1 2335   1.917   3.973   2.126
 2376SOL    HW2 2336   2.024   3.853   2.158
 2447SOL     OW 2337   3.854   1.821   1.571
 2447SOL    HW1 2338   3.844   1.806   1.670
 2447SOL    HW2 2339   3.768   1.857   1.535
 2490SOL     OW 2340   3.854   1.794   1.851
 2490SOL    HW1 2341   3.813   1.720   1.904
 2490SOL    HW2 2342   3.918   1.845   1.909
 2522SOL     OW 2343   3.751   1.596   1.979
 2522SOL    HW1 2344   3.732   1.500   2.000
 2522SOL    HW2 2345   3.718   1.654   2.054
 2562SOL     OW 2346   3.732   1.326   2.062
 2562SOL    HW1 2347   3.639   1.347   2.031
 2562SOL    HW2 2348   3.742   1.227   2.075
 2563SOL     OW 2349   3.812   1.801   2.789
 2563SOL    HW1 2350   3.770   1.715   2.762
 2563SOL    HW2 2351   3.906   1.804   2.755
 2641SOL     OW 2352   3.837   2.599   1.597
 2641SOL    HW1 2353   3.925   2.586   1.642
 2641SOL    HW2 2354   3.824   2.696   1.575
 2662SOL     OW 2355   3.802   2.418   1.386
 2662SOL    HW1 2356   3.894   2.417   1.345
 2662SOL    HW2 2357   3.796   2.492   1.453
 2684SOL     OW 2358   3.913   2.382   1.722
 2684SOL    HW1 2359   3.972   2.342   1.652
 2684SOL    HW2 2360   3.855   2.453   1.681
 2697SOL     OW 2361   3.829   2.875   1.726
 2697SOL    HW1 2362   3.752   2.842   1.780
 2697SOL    HW2 2363   3.914   2.845   1.768
 2710SOL     OW 2364   3.954   2.490   1.975
 2710SOL    HW1 2365   3.861   2.488   2.012
 2710SOL    HW2 2366   3.955   2.451   1.883
 2712SOL     OW 2367   3.743   2.230   2.509
 2712SOL    HW1 2368   3.661   2.273   2.548
 2712SOL    HW2 2369   3.715   2.157   2.446
 2723SOL     OW 2370   3.846   2.505   2.425
 2723SOL    HW1 2371   3.801   2.417   2.442
 2723SOL    HW2 2372   3.845   2.559   2.509
 2731SOL     OW 2373   3.800   2.673   2.651
 2731SOL    HW1 2374   3.899   2.661   2.660
 2731SOL    HW2 2375   3.776   2.768   2.672
 2765SOL     OW 2376   3.732   3.188   2.062
 2765SOL    HW1 2377   3.639   3.209   2.031
 2765SOL    HW2 2378   3.742   3.089   2.075
 2768SOL     OW 2379   3.764   2.406   2.976
 2768SOL    HW1 2380   3.849   2.373   2.935
 2768SOL    HW2 2381   3.777   2.421   3.074
 2777SOL     OW 2382   3.987   2.188   2.582
 2777SOL    HW1 2383   3.908   2.239   2.548
 2777SOL    HW2 2384   3.978   2.173   2.680
 2783SOL     OW 2385   3.799   2.207   1.895
 2783SOL    HW1 2386   3.707   2.179   1.866
 2783SOL    HW2 2387   3.830   2.284   1.839
 2784SOL     OW 2388   3.796   2.028   2.180
 2784SOL    HW1 2389   3.779   2.111   2.126
 2784SOL    HW2 2390   3.886   1.991   2.158
 2794SOL     OW 2391   3.763   2.939   2.162
 2794SOL    HW1 2392   3.862   2.928   2.153
 2794SOL    HW2 2393   3.723   2.853   2.194
   4.46208   4.46208   4.46208
