; mobley_1967551_GMX.itp created by acpype (v: 2023.10.27) on Wed May 20 23:50:19 2026

[ atomtypes ]
;name   bond_type     mass     charge   ptype   sigma         epsilon       Amb
 c        c           0.00000  0.00000   A     3.31521e-01   4.13379e-01 ; 1.86  0.0988
 c3       c3          0.00000  0.00000   A     3.39771e-01   4.51035e-01 ; 1.91  0.1078
 o        o           0.00000  0.00000   A     3.04812e-01   6.12119e-01 ; 1.71  0.1463
 h4       h4          0.00000  0.00000   A     2.53639e-01   6.73624e-02 ; 1.42  0.0161
 hc       hc          0.00000  0.00000   A     2.60018e-01   8.70272e-02 ; 1.46  0.0208

[ moleculetype ]
;name            nrexcl
 mobley_1967551   3

[ atoms ]
;   nr  type  resi  res  atom  cgnr     charge      mass       ; qtot   bond_type
     1    c     1   MOL    C1    1     0.561901     12.01000 ; qtot 0.562
     2   c3     1   MOL    C2    2    -0.221100     12.01000 ; qtot 0.341
     3    o     1   MOL    O1    3    -0.526100     16.00000 ; qtot -0.185
     4   h4     1   MOL    H1    4    -0.009800      1.00800 ; qtot -0.195
     5   hc     1   MOL    H2    5     0.065033      1.00800 ; qtot -0.130
     6   hc     1   MOL    H3    6     0.065033      1.00800 ; qtot -0.065
     7   hc     1   MOL    H4    7     0.065033      1.00800 ; qtot 0.000

[ bonds ]
;   ai     aj funct   r             k
     1      2   1    1.5270e-01    1.9652e+05 ;     C1 - C2    
     1      3   1    1.2190e-01    4.9421e+05 ;     C1 - O1    
     1      4   1    1.1123e-01    2.6984e+05 ;     C1 - H1    
     2      5   1    1.0962e-01    2.8891e+05 ;     C2 - H2    
     2      6   1    1.0962e-01    2.8891e+05 ;     C2 - H3    
     2      7   1    1.0962e-01    2.8891e+05 ;     C2 - H4    

[ pairs ]
;   ai     aj    funct
     3      5      1 ;     O1 - H2    
     3      6      1 ;     O1 - H3    
     3      7      1 ;     O1 - H4    
     4      5      1 ;     H1 - H2    
     4      6      1 ;     H1 - H3    
     4      7      1 ;     H1 - H4    

[ angles ]
;   ai     aj     ak    funct   theta         cth
     1      2      5      1    1.0895e+02    3.6510e+02 ;     C1 - C2     - H2    
     1      2      6      1    1.0895e+02    3.6510e+02 ;     C1 - C2     - H3    
     1      2      7      1    1.0895e+02    3.6510e+02 ;     C1 - C2     - H4    
     2      1      3      1    1.2290e+02    6.3973e+02 ;     C2 - C1     - O1    
     2      1      4      1    1.1471e+02    3.5522e+02 ;     C2 - C1     - H1    
     3      1      4      1    1.2062e+02    5.0191e+02 ;     O1 - C1     - H1    
     5      2      6      1    1.0773e+02    2.9957e+02 ;     H2 - C2     - H3    
     5      2      7      1    1.0773e+02    2.9957e+02 ;     H2 - C2     - H4    
     6      2      7      1    1.0773e+02    2.9957e+02 ;     H3 - C2     - H4    

[ dihedrals ] ; propers
; for gromacs 4.5 or higher, using funct 9
;    i      j      k      l   func   phase     kd      pn
     3      1      2      5      9     0.00  16.86152   1 ;     O1-    C1-    C2-    H2
     3      1      2      5      9   180.00  15.31344   2 ;     O1-    C1-    C2-    H2
     3      1      2      6      9     0.00  16.86152   1 ;     O1-    C1-    C2-    H3
     3      1      2      6      9   180.00  15.31344   2 ;     O1-    C1-    C2-    H3
     3      1      2      7      9     0.00  16.86152   1 ;     O1-    C1-    C2-    H4
     3      1      2      7      9   180.00  15.31344   2 ;     O1-    C1-    C2-    H4
     4      1      2      5      9   180.00   0.00000   2 ;     H1-    C1-    C2-    H2
     4      1      2      6      9   180.00   0.00000   2 ;     H1-    C1-    C2-    H3
     4      1      2      7      9   180.00   0.00000   2 ;     H1-    C1-    C2-    H4

[ dihedrals ] ; impropers
; treated as propers in GROMACS to use correct AMBER analytical function
;    i      j      k      l   func   phase     kd      pn
     3      1      4      2      4   180.00   4.60240   2 ;     O1-    C1-    H1-    C2
