; mobley_8668219_GMX.itp created by acpype (v: 2023.10.27) on Thu May 21 00:26:43 2026

[ atomtypes ]
;name   bond_type     mass     charge   ptype   sigma         epsilon       Amb
 c3       c3          0.00000  0.00000   A     3.39771e-01   4.51035e-01 ; 1.91  0.1078
 hc       hc          0.00000  0.00000   A     2.60018e-01   8.70272e-02 ; 1.46  0.0208

[ moleculetype ]
;name            nrexcl
 mobley_8668219   3

[ atoms ]
;   nr  type  resi  res  atom  cgnr     charge      mass       ; qtot   bond_type
     1   c3     1   MOL    C1    1    -0.093098     12.01000 ; qtot -0.093
     2   c3     1   MOL    C2    2    -0.089100     12.01000 ; qtot -0.182
     3   c3     1   MOL    C3    3    -0.089100     12.01000 ; qtot -0.271
     4   c3     1   MOL    C4    4    -0.090100     12.01000 ; qtot -0.361
     5   c3     1   MOL    C5    5    -0.076400     12.01000 ; qtot -0.438
     6   c3     1   MOL    C6    6    -0.064700     12.01000 ; qtot -0.502
     7   c3     1   MOL    C7    7    -0.061700     12.01000 ; qtot -0.564
     8   hc     1   MOL    H1    8     0.032033      1.00800 ; qtot -0.532
     9   hc     1   MOL    H2    9     0.032033      1.00800 ; qtot -0.500
    10   hc     1   MOL    H3   10     0.032033      1.00800 ; qtot -0.468
    11   hc     1   MOL    H4   11     0.033200      1.00800 ; qtot -0.435
    12   hc     1   MOL    H5   12     0.033200      1.00800 ; qtot -0.402
    13   hc     1   MOL    H6   13     0.033200      1.00800 ; qtot -0.368
    14   hc     1   MOL    H7   14     0.033200      1.00800 ; qtot -0.335
    15   hc     1   MOL    H8   15     0.033200      1.00800 ; qtot -0.302
    16   hc     1   MOL    H9   16     0.033200      1.00800 ; qtot -0.269
    17   hc     1   MOL   H10   17     0.033033      1.00800 ; qtot -0.236
    18   hc     1   MOL   H11   18     0.033033      1.00800 ; qtot -0.203
    19   hc     1   MOL   H12   19     0.033033      1.00800 ; qtot -0.170
    20   hc     1   MOL   H13   20     0.040200      1.00800 ; qtot -0.130
    21   hc     1   MOL   H14   21     0.040200      1.00800 ; qtot -0.089
    22   hc     1   MOL   H15   22     0.043700      1.00800 ; qtot -0.046
    23   hc     1   MOL   H16   23     0.045700      1.00800 ; qtot 0.000

[ bonds ]
;   ai     aj funct   r             k
     1      5   1    1.5354e-01    1.9154e+05 ;     C1 - C5    
     1      8   1    1.0962e-01    2.8891e+05 ;     C1 - H1    
     1      9   1    1.0962e-01    2.8891e+05 ;     C1 - H2    
     1     10   1    1.0962e-01    2.8891e+05 ;     C1 - H3    
     2      6   1    1.5354e-01    1.9154e+05 ;     C2 - C6    
     2     11   1    1.0962e-01    2.8891e+05 ;     C2 - H4    
     2     12   1    1.0962e-01    2.8891e+05 ;     C2 - H5    
     2     13   1    1.0962e-01    2.8891e+05 ;     C2 - H6    
     3      6   1    1.5354e-01    1.9154e+05 ;     C3 - C6    
     3     14   1    1.0962e-01    2.8891e+05 ;     C3 - H7    
     3     15   1    1.0962e-01    2.8891e+05 ;     C3 - H8    
     3     16   1    1.0962e-01    2.8891e+05 ;     C3 - H9    
     4      7   1    1.5354e-01    1.9154e+05 ;     C4 - C7    
     4     17   1    1.0962e-01    2.8891e+05 ;     C4 - H10   
     4     18   1    1.0962e-01    2.8891e+05 ;     C4 - H11   
     4     19   1    1.0962e-01    2.8891e+05 ;     C4 - H12   
     5      7   1    1.5354e-01    1.9154e+05 ;     C5 - C7    
     5     20   1    1.0962e-01    2.8891e+05 ;     C5 - H13   
     5     21   1    1.0962e-01    2.8891e+05 ;     C5 - H14   
     6      7   1    1.5354e-01    1.9154e+05 ;     C6 - C7    
     6     22   1    1.0962e-01    2.8891e+05 ;     C6 - H15   
     7     23   1    1.0962e-01    2.8891e+05 ;     C7 - H16   

[ pairs ]
;   ai     aj    funct
     1      4      1 ;     C1 - C4    
     1      6      1 ;     C1 - C6    
     1     23      1 ;     C1 - H16   
     2      4      1 ;     C2 - C4    
     2      5      1 ;     C2 - C5    
     2     14      1 ;     C2 - H7    
     2     15      1 ;     C2 - H8    
     2     16      1 ;     C2 - H9    
     2     23      1 ;     C2 - H16   
     3      4      1 ;     C3 - C4    
     3      5      1 ;     C3 - C5    
     3     11      1 ;     C3 - H4    
     3     12      1 ;     C3 - H5    
     3     13      1 ;     C3 - H6    
     3     23      1 ;     C3 - H16   
     4     20      1 ;     C4 - H13   
     4     21      1 ;     C4 - H14   
     4     22      1 ;     C4 - H15   
     5     17      1 ;     C5 - H10   
     5     18      1 ;     C5 - H11   
     5     19      1 ;     C5 - H12   
     5     22      1 ;     C5 - H15   
     6     17      1 ;     C6 - H10   
     6     18      1 ;     C6 - H11   
     6     19      1 ;     C6 - H12   
     6     20      1 ;     C6 - H13   
     6     21      1 ;     C6 - H14   
     7     11      1 ;     C7 - H4    
     7     12      1 ;     C7 - H5    
     7     13      1 ;     C7 - H6    
     7     14      1 ;     C7 - H7    
     7     15      1 ;     C7 - H8    
     7     16      1 ;     C7 - H9    
     8      7      1 ;     H1 - C7    
     8     20      1 ;     H1 - H13   
     8     21      1 ;     H1 - H14   
     9      7      1 ;     H2 - C7    
     9     20      1 ;     H2 - H13   
     9     21      1 ;     H2 - H14   
    10      7      1 ;     H3 - C7    
    10     20      1 ;     H3 - H13   
    10     21      1 ;     H3 - H14   
    11     22      1 ;     H4 - H15   
    12     22      1 ;     H5 - H15   
    13     22      1 ;     H6 - H15   
    14     22      1 ;     H7 - H15   
    15     22      1 ;     H8 - H15   
    16     22      1 ;     H9 - H15   
    17     23      1 ;    H10 - H16   
    18     23      1 ;    H11 - H16   
    19     23      1 ;    H12 - H16   
    20     23      1 ;    H13 - H16   
    21     23      1 ;    H14 - H16   
    22     23      1 ;    H15 - H16   

[ angles ]
;   ai     aj     ak    funct   theta         cth
     1      5      7      1    1.1263e+02    5.0099e+02 ;     C1 - C5     - C7    
     1      5     20      1    1.0968e+02    3.6208e+02 ;     C1 - C5     - H13   
     1      5     21      1    1.0968e+02    3.6208e+02 ;     C1 - C5     - H14   
     2      6      3      1    1.1263e+02    5.0099e+02 ;     C2 - C6     - C3    
     2      6      7      1    1.1263e+02    5.0099e+02 ;     C2 - C6     - C7    
     2      6     22      1    1.0968e+02    3.6208e+02 ;     C2 - C6     - H15   
     3      6      7      1    1.1263e+02    5.0099e+02 ;     C3 - C6     - C7    
     3      6     22      1    1.0968e+02    3.6208e+02 ;     C3 - C6     - H15   
     4      7      5      1    1.1263e+02    5.0099e+02 ;     C4 - C7     - C5    
     4      7      6      1    1.1263e+02    5.0099e+02 ;     C4 - C7     - C6    
     4      7     23      1    1.0968e+02    3.6208e+02 ;     C4 - C7     - H16   
     5      1      8      1    1.0968e+02    3.6208e+02 ;     C5 - C1     - H1    
     5      1      9      1    1.0968e+02    3.6208e+02 ;     C5 - C1     - H2    
     5      1     10      1    1.0968e+02    3.6208e+02 ;     C5 - C1     - H3    
     5      7      6      1    1.1263e+02    5.0099e+02 ;     C5 - C7     - C6    
     5      7     23      1    1.0968e+02    3.6208e+02 ;     C5 - C7     - H16   
     6      2     11      1    1.0968e+02    3.6208e+02 ;     C6 - C2     - H4    
     6      2     12      1    1.0968e+02    3.6208e+02 ;     C6 - C2     - H5    
     6      2     13      1    1.0968e+02    3.6208e+02 ;     C6 - C2     - H6    
     6      3     14      1    1.0968e+02    3.6208e+02 ;     C6 - C3     - H7    
     6      3     15      1    1.0968e+02    3.6208e+02 ;     C6 - C3     - H8    
     6      3     16      1    1.0968e+02    3.6208e+02 ;     C6 - C3     - H9    
     6      7     23      1    1.0968e+02    3.6208e+02 ;     C6 - C7     - H16   
     7      4     17      1    1.0968e+02    3.6208e+02 ;     C7 - C4     - H10   
     7      4     18      1    1.0968e+02    3.6208e+02 ;     C7 - C4     - H11   
     7      4     19      1    1.0968e+02    3.6208e+02 ;     C7 - C4     - H12   
     7      5     20      1    1.0968e+02    3.6208e+02 ;     C7 - C5     - H13   
     7      5     21      1    1.0968e+02    3.6208e+02 ;     C7 - C5     - H14   
     7      6     22      1    1.0968e+02    3.6208e+02 ;     C7 - C6     - H15   
     8      1      9      1    1.0773e+02    2.9957e+02 ;     H1 - C1     - H2    
     8      1     10      1    1.0773e+02    2.9957e+02 ;     H1 - C1     - H3    
     9      1     10      1    1.0773e+02    2.9957e+02 ;     H2 - C1     - H3    
    11      2     12      1    1.0773e+02    2.9957e+02 ;     H4 - C2     - H5    
    11      2     13      1    1.0773e+02    2.9957e+02 ;     H4 - C2     - H6    
    12      2     13      1    1.0773e+02    2.9957e+02 ;     H5 - C2     - H6    
    14      3     15      1    1.0773e+02    2.9957e+02 ;     H7 - C3     - H8    
    14      3     16      1    1.0773e+02    2.9957e+02 ;     H7 - C3     - H9    
    15      3     16      1    1.0773e+02    2.9957e+02 ;     H8 - C3     - H9    
    17      4     18      1    1.0773e+02    2.9957e+02 ;    H10 - C4     - H11   
    17      4     19      1    1.0773e+02    2.9957e+02 ;    H10 - C4     - H12   
    18      4     19      1    1.0773e+02    2.9957e+02 ;    H11 - C4     - H12   
    20      5     21      1    1.0773e+02    2.9957e+02 ;    H13 - C5     - H14   

[ dihedrals ] ; propers
; for gromacs 4.5 or higher, using funct 9
;    i      j      k      l   func   phase     kd      pn
     1      5      7      4      9     0.00   2.17568   3 ;     C1-    C5-    C7-    C4
     1      5      7      6      9     0.00   2.17568   3 ;     C1-    C5-    C7-    C6
     1      5      7     23      9     0.00   0.54392   3 ;     C1-    C5-    C7-   H16
     2      6      3     14      9     0.00   0.54392   3 ;     C2-    C6-    C3-    H7
     2      6      3     15      9     0.00   0.54392   3 ;     C2-    C6-    C3-    H8
     2      6      3     16      9     0.00   0.54392   3 ;     C2-    C6-    C3-    H9
     2      6      7      4      9     0.00   2.17568   3 ;     C2-    C6-    C7-    C4
     2      6      7      5      9     0.00   2.17568   3 ;     C2-    C6-    C7-    C5
     2      6      7     23      9     0.00   0.54392   3 ;     C2-    C6-    C7-   H16
     3      6      2     11      9     0.00   0.54392   3 ;     C3-    C6-    C2-    H4
     3      6      2     12      9     0.00   0.54392   3 ;     C3-    C6-    C2-    H5
     3      6      2     13      9     0.00   0.54392   3 ;     C3-    C6-    C2-    H6
     3      6      7      4      9     0.00   2.17568   3 ;     C3-    C6-    C7-    C4
     3      6      7      5      9     0.00   2.17568   3 ;     C3-    C6-    C7-    C5
     3      6      7     23      9     0.00   0.54392   3 ;     C3-    C6-    C7-   H16
     4      7      5     20      9     0.00   0.54392   3 ;     C4-    C7-    C5-   H13
     4      7      5     21      9     0.00   0.54392   3 ;     C4-    C7-    C5-   H14
     4      7      6     22      9     0.00   0.54392   3 ;     C4-    C7-    C6-   H15
     5      7      4     17      9     0.00   0.54392   3 ;     C5-    C7-    C4-   H10
     5      7      4     18      9     0.00   0.54392   3 ;     C5-    C7-    C4-   H11
     5      7      4     19      9     0.00   0.54392   3 ;     C5-    C7-    C4-   H12
     5      7      6     22      9     0.00   0.54392   3 ;     C5-    C7-    C6-   H15
     6      7      4     17      9     0.00   0.54392   3 ;     C6-    C7-    C4-   H10
     6      7      4     18      9     0.00   0.54392   3 ;     C6-    C7-    C4-   H11
     6      7      4     19      9     0.00   0.54392   3 ;     C6-    C7-    C4-   H12
     6      7      5     20      9     0.00   0.54392   3 ;     C6-    C7-    C5-   H13
     6      7      5     21      9     0.00   0.54392   3 ;     C6-    C7-    C5-   H14
     7      6      2     11      9     0.00   0.54392   3 ;     C7-    C6-    C2-    H4
     7      6      2     12      9     0.00   0.54392   3 ;     C7-    C6-    C2-    H5
     7      6      2     13      9     0.00   0.54392   3 ;     C7-    C6-    C2-    H6
     7      6      3     14      9     0.00   0.54392   3 ;     C7-    C6-    C3-    H7
     7      6      3     15      9     0.00   0.54392   3 ;     C7-    C6-    C3-    H8
     7      6      3     16      9     0.00   0.54392   3 ;     C7-    C6-    C3-    H9
     8      1      5      7      9     0.00   0.54392   3 ;     H1-    C1-    C5-    C7
     8      1      5     20      9     0.00   0.50208   3 ;     H1-    C1-    C5-   H13
     8      1      5     21      9     0.00   0.50208   3 ;     H1-    C1-    C5-   H14
     9      1      5      7      9     0.00   0.54392   3 ;     H2-    C1-    C5-    C7
     9      1      5     20      9     0.00   0.50208   3 ;     H2-    C1-    C5-   H13
     9      1      5     21      9     0.00   0.50208   3 ;     H2-    C1-    C5-   H14
    10      1      5      7      9     0.00   0.54392   3 ;     H3-    C1-    C5-    C7
    10      1      5     20      9     0.00   0.50208   3 ;     H3-    C1-    C5-   H13
    10      1      5     21      9     0.00   0.50208   3 ;     H3-    C1-    C5-   H14
    11      2      6     22      9     0.00   0.50208   3 ;     H4-    C2-    C6-   H15
    12      2      6     22      9     0.00   0.50208   3 ;     H5-    C2-    C6-   H15
    13      2      6     22      9     0.00   0.50208   3 ;     H6-    C2-    C6-   H15
    14      3      6     22      9     0.00   0.50208   3 ;     H7-    C3-    C6-   H15
    15      3      6     22      9     0.00   0.50208   3 ;     H8-    C3-    C6-   H15
    16      3      6     22      9     0.00   0.50208   3 ;     H9-    C3-    C6-   H15
    17      4      7     23      9     0.00   0.50208   3 ;    H10-    C4-    C7-   H16
    18      4      7     23      9     0.00   0.50208   3 ;    H11-    C4-    C7-   H16
    19      4      7     23      9     0.00   0.50208   3 ;    H12-    C4-    C7-   H16
    20      5      7     23      9     0.00   0.50208   3 ;    H13-    C5-    C7-   H16
    21      5      7     23      9     0.00   0.50208   3 ;    H14-    C5-    C7-   H16
    22      6      7     23      9     0.00   0.50208   3 ;    H15-    C6-    C7-   H16
