mobley_4305650_GMX.gro created by acpype (v: 2023.10.27) on Thu May 21 00:24:04 2026
 2394
    1MOL     C1    1   2.309   2.166   2.337
    1MOL     C2    2   2.176   2.220   2.137
    1MOL     C3    3   2.234   2.271   2.267
    1MOL     N1    4   2.368   2.084   2.393
    1MOL     H1    5   2.107   2.136   2.155
    1MOL     H2    6   2.120   2.299   2.086
    1MOL     H3    7   2.255   2.185   2.069
    1MOL     H4    8   2.153   2.308   2.332
    1MOL     H5    9   2.299   2.356   2.247
   14SOL     OW   10   1.460   1.505   1.339
   14SOL    HW1   11   1.484   1.599   1.365
   14SOL    HW2   12   1.444   1.451   1.421
   18SOL     OW   13   1.127   1.341   1.690
   18SOL    HW1   14   1.174   1.341   1.778
   18SOL    HW2   15   1.079   1.254   1.679
   31SOL     OW   16   1.293   1.228   1.423
   31SOL    HW1   17   1.330   1.155   1.365
   31SOL    HW2   18   1.345   1.233   1.508
   35SOL     OW   19   1.187   1.792   1.616
   35SOL    HW1   20   1.211   1.852   1.540
   35SOL    HW2   21   1.194   1.697   1.586
   37SOL     OW   22   1.466   1.417   0.953
   37SOL    HW1   23   1.407   1.423   1.033
   37SOL    HW2   24   1.451   1.329   0.907
   50SOL     OW   25   1.719   0.585   1.831
   50SOL    HW1   26   1.693   0.674   1.795
   50SOL    HW2   27   1.717   0.517   1.758
   56SOL     OW   28   1.227   1.550   1.506
   56SOL    HW1   29   1.233   1.473   1.570
   56SOL    HW2   30   1.175   1.524   1.426
   95SOL     OW   31   1.754   1.223   1.588
   95SOL    HW1   32   1.845   1.184   1.575
   95SOL    HW2   33   1.762   1.319   1.612
   96SOL     OW   34   1.064   1.347   1.340
   96SOL    HW1   35   0.984   1.324   1.395
   96SOL    HW2   36   1.147   1.321   1.389
   97SOL     OW   37   1.592   1.629   1.625
   97SOL    HW1   38   1.619   1.663   1.535
   97SOL    HW2   39   1.671   1.591   1.671
   99SOL     OW   40   1.638   1.099   1.079
   99SOL    HW1   41   1.643   1.180   1.138
   99SOL    HW2   42   1.552   1.101   1.028
  101SOL     OW   43   0.980   1.116   1.719
  101SOL    HW1   44   0.881   1.122   1.729
  101SOL    HW2   45   1.003   1.036   1.663
  109SOL     OW   46   1.272   1.445   1.142
  109SOL    HW1   47   1.319   1.458   1.229
  109SOL    HW2   48   1.206   1.371   1.151
  113SOL     OW   49   1.587   0.779   1.670
  113SOL    HW1   50   1.495   0.817   1.665
  113SOL    HW2   51   1.647   0.826   1.605
  122SOL     OW   52   1.728   0.935   1.854
  122SOL    HW1   53   1.682   0.928   1.765
  122SOL    HW2   54   1.666   0.979   1.920
  126SOL     OW   55   0.980   1.573   1.700
  126SOL    HW1   56   0.960   1.617   1.612
  126SOL    HW2   57   1.019   1.482   1.684
  127SOL     OW   58   1.859   1.518   1.605
  127SOL    HW1   59   1.873   1.545   1.510
  127SOL    HW2   60   1.942   1.540   1.658
  142SOL     OW   61   1.369   0.950   1.660
  142SOL    HW1   62   1.408   1.039   1.680
  142SOL    HW2   63   1.379   0.930   1.563
  147SOL     OW   64   0.930   1.678   1.465
  147SOL    HW1   65   0.906   1.660   1.370
  147SOL    HW2   66   0.960   1.772   1.475
  150SOL     OW   67   1.347   1.059   1.234
  150SOL    HW1   68   1.371   0.996   1.160
  150SOL    HW2   69   1.257   1.099   1.216
  152SOL     OW   70   1.759   1.747   1.154
  152SOL    HW1   71   1.820   1.777   1.081
  152SOL    HW2   72   1.721   1.658   1.132
  153SOL     OW   73   1.252   1.731   1.128
  153SOL    HW1   74   1.336   1.736   1.074
  153SOL    HW2   75   1.229   1.635   1.146
  155SOL     OW   76   0.688   1.662   1.716
  155SOL    HW1   77   0.632   1.743   1.725
  155SOL    HW2   78   0.740   1.666   1.630
  163SOL     OW   79   1.650   1.720   1.394
  163SOL    HW1   80   1.703   1.730   1.310
  163SOL    HW2   81   1.623   1.810   1.428
  171SOL     OW   82   1.614   1.292   1.289
  171SOL    HW1   83   1.674   1.295   1.369
  171SOL    HW2   84   1.539   1.356   1.302
  180SOL     OW   85   1.440   0.856   1.398
  180SOL    HW1   86   1.383   0.908   1.335
  180SOL    HW2   87   1.536   0.868   1.374
  184SOL     OW   88   1.493   1.767   0.959
  184SOL    HW1   89   1.526   1.831   0.890
  184SOL    HW2   90   1.559   1.761   1.034
  186SOL     OW   91   1.450   1.220   1.633
  186SOL    HW1   92   1.441   1.210   1.732
  186SOL    HW2   93   1.546   1.213   1.607
  188SOL     OW   94   1.674   0.883   1.254
  188SOL    HW1   95   1.647   0.794   1.217
  188SOL    HW2   96   1.675   0.951   1.181
  192SOL     OW   97   1.730   0.934   1.517
  192SOL    HW1   98   1.768   1.025   1.532
  192SOL    HW2   99   1.722   0.917   1.418
  197SOL     OW  100   1.861   1.569   0.851
  197SOL    HW1  101   1.790   1.557   0.781
  197SOL    HW2  102   1.862   1.490   0.911
  203SOL     OW  103   1.705   1.487   1.104
  203SOL    HW1  104   1.612   1.462   1.077
  203SOL    HW2  105   1.731   1.437   1.186
  219SOL     OW  106   1.555   1.511   2.565
  219SOL    HW1  107   1.498   1.495   2.646
  219SOL    HW2  108   1.496   1.521   2.485
  221SOL     OW  109   1.755   0.607   2.093
  221SOL    HW1  110   1.743   0.594   1.994
  221SOL    HW2  111   1.725   0.526   2.142
  227SOL     OW  112   1.460   1.505   3.201
  227SOL    HW1  113   1.484   1.599   3.227
  227SOL    HW2  114   1.444   1.451   3.283
  238SOL     OW  115   1.842   1.767   2.221
  238SOL    HW1  116   1.896   1.738   2.301
  238SOL    HW2  117   1.872   1.857   2.192
  240SOL     OW  118   1.689   0.922   2.474
  240SOL    HW1  119   1.784   0.893   2.482
  240SOL    HW2  120   1.681   0.987   2.399
  241SOL     OW  121   1.641   1.108   2.294
  241SOL    HW1  122   1.727   1.110   2.242
  241SOL    HW2  123   1.655   1.155   2.382
  244SOL     OW  124   1.293   1.228   3.285
  244SOL    HW1  125   1.330   1.155   3.227
  244SOL    HW2  126   1.345   1.233   3.370
  247SOL     OW  127   1.525   0.999   2.052
  247SOL    HW1  128   1.462   0.923   2.065
  247SOL    HW2  129   1.573   1.017   2.138
  248SOL     OW  130   1.187   1.792   3.478
  248SOL    HW1  131   1.211   1.852   3.402
  248SOL    HW2  132   1.194   1.697   3.448
  250SOL     OW  133   1.466   1.417   2.815
  250SOL    HW1  134   1.407   1.423   2.895
  250SOL    HW2  135   1.451   1.329   2.769
  251SOL     OW  136   1.667   1.714   2.434
  251SOL    HW1  137   1.626   1.691   2.346
  251SOL    HW2  138   1.649   1.640   2.499
  254SOL     OW  139   1.576   1.662   2.169
  254SOL    HW1  140   1.665   1.708   2.172
  254SOL    HW2  141   1.555   1.638   2.074
  264SOL     OW  142   1.362   1.144   2.407
  264SOL    HW1  143   1.445   1.115   2.359
  264SOL    HW2  144   1.313   1.211   2.351
  266SOL     OW  145   1.008   1.456   2.339
  266SOL    HW1  146   0.962   1.528   2.287
  266SOL    HW2  147   1.004   1.476   2.437
  268SOL     OW  148   1.795   1.066   2.735
  268SOL    HW1  149   1.733   1.051   2.659
  268SOL    HW2  150   1.743   1.077   2.820
  269SOL     OW  151   1.227   1.550   3.368
  269SOL    HW1  152   1.233   1.473   3.432
  269SOL    HW2  153   1.175   1.524   3.288
  271SOL     OW  154   1.458   0.735   2.590
  271SOL    HW1  155   1.453   0.670   2.665
  271SOL    HW2  156   1.538   0.794   2.603
  273SOL     OW  157   1.111   1.776   2.099
  273SOL    HW1  158   1.051   1.714   2.149
  273SOL    HW2  159   1.142   1.732   2.014
  275SOL     OW  160   1.632   1.377   1.943
  275SOL    HW1  161   1.600   1.471   1.933
  275SOL    HW2  162   1.556   1.314   1.931
  279SOL     OW  163   0.940   1.698   2.766
  279SOL    HW1  164   1.020   1.641   2.787
  279SOL    HW2  165   0.891   1.658   2.689
  284SOL     OW  166   0.888   1.514   3.057
  284SOL    HW1  167   0.865   1.489   2.963
  284SOL    HW2  168   0.949   1.445   3.096
  286SOL     OW  169   0.803   1.402   2.786
  286SOL    HW1  170   0.893   1.416   2.744
  286SOL    HW2  171   0.732   1.404   2.715
  289SOL     OW  172   1.434   1.188   1.903
  289SOL    HW1  173   1.466   1.112   1.960
  289SOL    HW2  174   1.342   1.215   1.933
  293SOL     OW  175   1.227   1.570   2.655
  293SOL    HW1  176   1.248   1.644   2.590
  293SOL    HW2  177   1.295   1.570   2.728
  295SOL     OW  178   1.271   1.797   2.453
  295SOL    HW1  179   1.315   1.861   2.389
  295SOL    HW2  180   1.221   1.849   2.523
  301SOL     OW  181   1.429   1.173   2.729
  301SOL    HW1  182   1.374   1.089   2.722
  301SOL    HW2  183   1.455   1.202   2.637
  303SOL     OW  184   1.857   0.833   2.239
  303SOL    HW1  185   1.899   0.769   2.303
  303SOL    HW2  186   1.819   0.782   2.161
  305SOL     OW  187   1.664   1.280   2.519
  305SOL    HW1  188   1.763   1.288   2.533
  305SOL    HW2  189   1.619   1.364   2.550
  308SOL     OW  190   1.754   1.223   3.450
  308SOL    HW1  191   1.845   1.184   3.437
  308SOL    HW2  192   1.762   1.319   3.474
  309SOL     OW  193   1.064   1.347   3.202
  309SOL    HW1  194   0.984   1.324   3.257
  309SOL    HW2  195   1.147   1.321   3.251
  310SOL     OW  196   1.592   1.629   3.487
  310SOL    HW1  197   1.619   1.663   3.397
  310SOL    HW2  198   1.671   1.591   3.533
  311SOL     OW  199   1.111   1.195   2.962
  311SOL    HW1  200   1.071   1.239   3.043
  311SOL    HW2  201   1.070   1.232   2.879
  312SOL     OW  202   1.638   1.099   2.941
  312SOL    HW1  203   1.643   1.180   3.000
  312SOL    HW2  204   1.552   1.101   2.890
  321SOL     OW  205   1.252   1.348   2.250
  321SOL    HW1  206   1.302   1.425   2.290
  321SOL    HW2  207   1.157   1.350   2.282
  322SOL     OW  208   1.272   1.445   3.004
  322SOL    HW1  209   1.319   1.458   3.091
  322SOL    HW2  210   1.206   1.371   3.013
  323SOL     OW  211   1.582   0.639   2.334
  323SOL    HW1  212   1.551   0.700   2.407
  323SOL    HW2  213   1.632   0.691   2.265
  330SOL     OW  214   1.360   0.862   2.907
  330SOL    HW1  215   1.285   0.862   2.841
  330SOL    HW2  216   1.397   0.770   2.916
  340SOL     OW  217   1.859   1.518   3.467
  340SOL    HW1  218   1.873   1.545   3.372
  340SOL    HW2  219   1.942   1.540   3.520
  343SOL     OW  220   1.303   0.838   1.904
  343SOL    HW1  221   1.337   0.745   1.919
  343SOL    HW2  222   1.321   0.865   1.809
  344SOL     OW  223   1.068   1.333   2.711
  344SOL    HW1  224   1.075   1.249   2.656
  344SOL    HW2  225   1.130   1.402   2.675
  360SOL     OW  226   0.930   1.678   3.327
  360SOL    HW1  227   0.906   1.660   3.232
  360SOL    HW2  228   0.960   1.772   3.337
  363SOL     OW  229   1.347   1.059   3.096
  363SOL    HW1  230   1.371   0.996   3.022
  363SOL    HW2  231   1.257   1.099   3.078
  364SOL     OW  232   1.302   0.855   2.171
  364SOL    HW1  233   1.216   0.824   2.213
  364SOL    HW2  234   1.298   0.841   2.072
  365SOL     OW  235   1.759   1.747   3.016
  365SOL    HW1  236   1.820   1.777   2.943
  365SOL    HW2  237   1.721   1.658   2.994
  366SOL     OW  238   1.252   1.731   2.990
  366SOL    HW1  239   1.336   1.736   2.936
  366SOL    HW2  240   1.229   1.635   3.008
  370SOL     OW  241   1.388   1.573   2.339
  370SOL    HW1  242   1.455   1.585   2.265
  370SOL    HW2  243   1.348   1.662   2.362
  372SOL     OW  244   1.280   0.927   2.534
  372SOL    HW1  245   1.340   0.846   2.536
  372SOL    HW2  246   1.320   0.996   2.474
  374SOL     OW  247   0.672   1.616   2.016
  374SOL    HW1  248   0.681   1.626   1.917
  374SOL    HW2  249   0.632   1.527   2.037
  375SOL     OW  250   1.650   1.720   3.256
  375SOL    HW1  251   1.703   1.730   3.172
  375SOL    HW2  252   1.623   1.810   3.290
  378SOL     OW  253   1.194   1.612   1.893
  378SOL    HW1  254   1.200   1.519   1.930
  378SOL    HW2  255   1.135   1.612   1.813
  381SOL     OW  256   1.504   1.607   1.906
  381SOL    HW1  257   1.412   1.644   1.913
  381SOL    HW2  258   1.542   1.627   1.816
  383SOL     OW  259   1.614   1.292   3.151
  383SOL    HW1  260   1.674   1.295   3.231
  383SOL    HW2  261   1.539   1.356   3.164
  384SOL     OW  262   1.039   1.098   2.558
  384SOL    HW1  263   0.969   1.051   2.612
  384SOL    HW2  264   1.098   1.030   2.515
  386SOL     OW  265   0.590   1.487   2.353
  386SOL    HW1  266   0.632   1.429   2.283
  386SOL    HW2  267   0.546   1.566   2.309
  394SOL     OW  268   1.183   1.335   1.981
  394SOL    HW1  269   1.084   1.324   1.983
  394SOL    HW2  270   1.217   1.350   2.074
  396SOL     OW  271   1.493   1.767   2.821
  396SOL    HW1  272   1.526   1.831   2.752
  396SOL    HW2  273   1.559   1.761   2.896
  398SOL     OW  274   1.450   1.220   3.495
  398SOL    HW1  275   1.441   1.210   3.594
  398SOL    HW2  276   1.546   1.213   3.469
  400SOL     OW  277   1.674   0.883   3.116
  400SOL    HW1  278   1.647   0.794   3.079
  400SOL    HW2  279   1.675   0.951   3.043
  405SOL     OW  280   0.859   1.374   1.878
  405SOL    HW1  281   0.813   1.389   1.966
  405SOL    HW2  282   0.903   1.459   1.848
  406SOL     OW  283   0.661   1.790   2.815
  406SOL    HW1  284   0.615   1.878   2.802
  406SOL    HW2  285   0.760   1.802   2.808
  408SOL     OW  286   1.083   0.984   1.949
  408SOL    HW1  287   1.060   1.037   1.867
  408SOL    HW2  288   1.164   0.928   1.930
  409SOL     OW  289   1.861   1.569   2.713
  409SOL    HW1  290   1.790   1.557   2.643
  409SOL    HW2  291   1.862   1.490   2.773
  415SOL     OW  292   1.705   1.487   2.966
  415SOL    HW1  293   1.612   1.462   2.939
  415SOL    HW2  294   1.731   1.437   3.048
  417SOL     OW  295   0.812   1.586   2.549
  417SOL    HW1  296   0.844   1.596   2.455
  417SOL    HW2  297   0.733   1.524   2.551
  420SOL     OW  298   0.770   1.330   2.163
  420SOL    HW1  299   0.724   1.243   2.180
  420SOL    HW2  300   0.861   1.327   2.204
  426SOL     OW  301   0.875   1.646   2.199
  426SOL    HW1  302   0.798   1.611   2.145
  426SOL    HW2  303   0.843   1.717   2.261
  515SOL     OW  304   0.850   2.660   1.823
  515SOL    HW1  305   0.846   2.736   1.888
  515SOL    HW2  306   0.872   2.696   1.732
  517SOL     OW  307   0.686   3.023   1.803
  517SOL    HW1  308   0.746   3.102   1.817
  517SOL    HW2  309   0.600   3.054   1.762
  519SOL     OW  310   1.460   3.367   1.339
  519SOL    HW1  311   1.484   3.461   1.365
  519SOL    HW2  312   1.444   3.313   1.421
  521SOL     OW  313   1.603   2.309   0.737
  521SOL    HW1  314   1.529   2.355   0.687
  521SOL    HW2  315   1.654   2.377   0.790
  523SOL     OW  316   1.127   3.203   1.690
  523SOL    HW1  317   1.174   3.203   1.778
  523SOL    HW2  318   1.079   3.116   1.679
  528SOL     OW  319   1.594   1.976   1.480
  528SOL    HW1  320   1.576   2.043   1.408
  528SOL    HW2  321   1.591   2.022   1.569
  532SOL     OW  322   1.689   2.784   0.612
  532SOL    HW1  323   1.784   2.755   0.620
  532SOL    HW2  324   1.681   2.849   0.537
  536SOL     OW  325   1.293   3.090   1.423
  536SOL    HW1  326   1.330   3.017   1.365
  536SOL    HW2  327   1.345   3.095   1.508
  545SOL     OW  328   1.281   2.207   0.944
  545SOL    HW1  329   1.195   2.157   0.931
  545SOL    HW2  330   1.343   2.153   1.000
  547SOL     OW  331   0.807   2.467   1.465
  547SOL    HW1  332   0.760   2.464   1.554
  547SOL    HW2  333   0.756   2.412   1.399
  548SOL     OW  334   1.394   2.331   1.674
  548SOL    HW1  335   1.374   2.374   1.762
  548SOL    HW2  336   1.472   2.269   1.683
  549SOL     OW  337   0.973   2.752   1.572
  549SOL    HW1  338   1.019   2.668   1.543
  549SOL    HW2  339   0.917   2.786   1.497
  550SOL     OW  340   0.991   2.272   1.242
  550SOL    HW1  341   0.914   2.306   1.296
  550SOL    HW2  342   0.957   2.221   1.163
  555SOL     OW  343   1.719   2.447   1.831
  555SOL    HW1  344   1.693   2.536   1.795
  555SOL    HW2  345   1.717   2.379   1.758
  560SOL     OW  346   1.795   2.928   0.873
  560SOL    HW1  347   1.733   2.913   0.797
  560SOL    HW2  348   1.743   2.939   0.958
  561SOL     OW  349   1.227   3.412   1.506
  561SOL    HW1  350   1.233   3.335   1.570
  561SOL    HW2  351   1.175   3.386   1.426
  563SOL     OW  352   1.458   2.597   0.728
  563SOL    HW1  353   1.453   2.532   0.803
  563SOL    HW2  354   1.538   2.656   0.741
  573SOL     OW  355   1.547   2.084   1.729
  573SOL    HW1  356   1.542   2.121   1.821
  573SOL    HW2  357   1.475   2.015   1.717
  575SOL     OW  358   0.781   2.126   1.749
  575SOL    HW1  359   0.848   2.065   1.792
  575SOL    HW2  360   0.708   2.145   1.814
  577SOL     OW  361   1.351   2.452   1.433
  577SOL    HW1  362   1.379   2.409   1.518
  577SOL    HW2  363   1.376   2.548   1.434
  583SOL     OW  364   1.076   2.545   1.464
  583SOL    HW1  365   0.996   2.484   1.467
  583SOL    HW2  366   1.157   2.492   1.440
  592SOL     OW  367   1.429   3.035   0.867
  592SOL    HW1  368   1.374   2.951   0.860
  592SOL    HW2  369   1.455   3.064   0.775
  593SOL     OW  370   1.466   2.452   0.992
  593SOL    HW1  371   1.436   2.357   0.999
  593SOL    HW2  372   1.539   2.468   1.058
  599SOL     OW  373   1.754   3.085   1.588
  599SOL    HW1  374   1.845   3.046   1.575
  599SOL    HW2  375   1.762   3.181   1.612
  600SOL     OW  376   1.064   3.209   1.340
  600SOL    HW1  377   0.984   3.186   1.395
  600SOL    HW2  378   1.147   3.183   1.389
  601SOL     OW  379   1.592   3.491   1.625
  601SOL    HW1  380   1.619   3.525   1.535
  601SOL    HW2  381   1.671   3.453   1.671
  602SOL     OW  382   1.111   3.057   1.100
  602SOL    HW1  383   1.071   3.101   1.181
  602SOL    HW2  384   1.070   3.094   1.017
  603SOL     OW  385   1.638   2.961   1.079
  603SOL    HW1  386   1.643   3.042   1.138
  603SOL    HW2  387   1.552   2.963   1.028
  604SOL     OW  388   0.915   1.951   1.402
  604SOL    HW1  389   0.940   1.931   1.307
  604SOL    HW2  390   0.987   2.007   1.444
  605SOL     OW  391   0.980   2.978   1.719
  605SOL    HW1  392   0.881   2.984   1.729
  605SOL    HW2  393   1.003   2.898   1.663
  608SOL     OW  394   1.274   2.248   1.262
  608SOL    HW1  395   1.295   2.322   1.326
  608SOL    HW2  396   1.185   2.265   1.219
  617SOL     OW  397   1.587   2.641   1.670
  617SOL    HW1  398   1.495   2.679   1.665
  617SOL    HW2  399   1.647   2.688   1.605
  618SOL     OW  400   1.013   1.967   1.770
  618SOL    HW1  401   1.019   2.052   1.718
  618SOL    HW2  402   1.045   1.891   1.713
  621SOL     OW  403   1.360   2.724   1.045
  621SOL    HW1  404   1.285   2.724   0.979
  621SOL    HW2  405   1.397   2.632   1.054
  626SOL     OW  406   1.728   2.797   1.854
  626SOL    HW1  407   1.682   2.790   1.765
  626SOL    HW2  408   1.666   2.841   1.920
  629SOL     OW  409   1.023   2.628   0.966
  629SOL    HW1  410   1.038   2.649   1.062
  629SOL    HW2  411   0.993   2.533   0.957
  631SOL     OW  412   1.859   3.380   1.605
  631SOL    HW1  413   1.873   3.407   1.510
  631SOL    HW2  414   1.942   3.402   1.658
  638SOL     OW  415   1.138   2.242   1.678
  638SOL    HW1  416   1.093   2.305   1.742
  638SOL    HW2  417   1.231   2.273   1.661
  639SOL     OW  418   1.160   2.069   1.477
  639SOL    HW1  419   1.160   2.133   1.554
  639SOL    HW2  420   1.188   2.117   1.394
  643SOL     OW  421   1.002   2.658   1.238
  643SOL    HW1  422   1.043   2.626   1.324
  643SOL    HW2  423   0.906   2.631   1.235
  646SOL     OW  424   1.369   2.812   1.660
  646SOL    HW1  425   1.408   2.901   1.680
  646SOL    HW2  426   1.379   2.792   1.563
  648SOL     OW  427   1.657   2.466   1.206
  648SOL    HW1  428   1.619   2.397   1.268
  648SOL    HW2  429   1.739   2.430   1.162
  654SOL     OW  430   1.347   2.921   1.234
  654SOL    HW1  431   1.371   2.858   1.160
  654SOL    HW2  432   1.257   2.961   1.216
  661SOL     OW  433   1.726   1.997   0.523
  661SOL    HW1  434   1.799   1.980   0.456
  661SOL    HW2  435   1.695   1.910   0.561
  667SOL     OW  436   1.650   3.582   1.394
  667SOL    HW1  437   1.703   3.592   1.310
  667SOL    HW2  438   1.623   3.672   1.428
  668SOL     OW  439   1.841   2.037   0.963
  668SOL    HW1  440   1.880   1.952   0.927
  668SOL    HW2  441   1.743   2.039   0.944
  671SOL     OW  442   0.822   2.864   1.372
  671SOL    HW1  443   0.862   2.863   1.280
  671SOL    HW2  444   0.832   2.956   1.412
  675SOL     OW  445   1.614   3.154   1.289
  675SOL    HW1  446   1.674   3.157   1.369
  675SOL    HW2  447   1.539   3.218   1.302
  677SOL     OW  448   1.014   2.098   0.971
  677SOL    HW1  449   1.006   2.062   0.878
  677SOL    HW2  450   1.012   2.022   1.036
  679SOL     OW  451   1.709   2.247   1.381
  679SOL    HW1  452   1.782   2.316   1.385
  679SOL    HW2  453   1.737   2.172   1.322
  682SOL     OW  454   0.672   2.065   1.489
  682SOL    HW1  455   0.762   2.049   1.449
  682SOL    HW2  456   0.680   2.070   1.588
  684SOL     OW  457   1.440   2.718   1.398
  684SOL    HW1  458   1.383   2.770   1.335
  684SOL    HW2  459   1.536   2.730   1.374
  689SOL     OW  460   0.716   2.427   1.708
  689SOL    HW1  461   0.735   2.492   1.782
  689SOL    HW2  462   0.776   2.347   1.717
  690SOL     OW  463   1.450   3.082   1.633
  690SOL    HW1  464   1.441   3.072   1.732
  690SOL    HW2  465   1.546   3.075   1.607
  692SOL     OW  466   1.674   2.745   1.254
  692SOL    HW1  467   1.647   2.656   1.217
  692SOL    HW2  468   1.675   2.813   1.181
  695SOL     OW  469   1.777   2.204   1.642
  695SOL    HW1  470   1.760   2.235   1.548
  695SOL    HW2  471   1.693   2.167   1.680
  696SOL     OW  472   1.730   2.796   1.517
  696SOL    HW1  473   1.768   2.887   1.532
  696SOL    HW2  474   1.722   2.779   1.418
  705SOL     OW  475   1.824   2.054   1.227
  705SOL    HW1  476   1.820   1.964   1.271
  705SOL    HW2  477   1.827   2.043   1.128
  707SOL     OW  478   1.705   3.349   1.104
  707SOL    HW1  479   1.612   3.324   1.077
  707SOL    HW2  480   1.731   3.299   1.186
  710SOL     OW  481   1.424   2.076   1.112
  710SOL    HW1  482   1.476   2.011   1.167
  710SOL    HW2  483   1.375   2.139   1.173
  711SOL     OW  484   1.001   1.896   1.154
  711SOL    HW1  485   0.938   1.824   1.123
  711SOL    HW2  486   1.094   1.860   1.154
  715SOL     OW  487   1.300   2.315   0.691
  715SOL    HW1  488   1.241   2.395   0.695
  715SOL    HW2  489   1.315   2.280   0.784
  716SOL     OW  490   1.593   2.083   0.882
  716SOL    HW1  491   1.509   2.082   0.936
  716SOL    HW2  492   1.595   2.166   0.826
  723SOL     OW  493   1.555   3.373   2.565
  723SOL    HW1  494   1.498   3.357   2.646
  723SOL    HW2  495   1.496   3.383   2.485
  724SOL     OW  496   1.135   2.565   2.579
  724SOL    HW1  497   1.192   2.643   2.554
  724SOL    HW2  498   1.075   2.591   2.655
  725SOL     OW  499   1.755   2.469   2.093
  725SOL    HW1  500   1.743   2.456   1.994
  725SOL    HW2  501   1.725   2.388   2.142
  726SOL     OW  502   0.768   3.006   2.885
  726SOL    HW1  503   0.690   3.023   2.945
  726SOL    HW2  504   0.802   3.093   2.849
  728SOL     OW  505   0.685   2.874   2.527
  728SOL    HW1  506   0.754   2.858   2.597
  728SOL    HW2  507   0.612   2.931   2.565
  731SOL     OW  508   1.460   3.367   3.201
  731SOL    HW1  509   1.484   3.461   3.227
  731SOL    HW2  510   1.444   3.313   3.283
  733SOL     OW  511   1.603   2.309   2.599
  733SOL    HW1  512   1.529   2.355   2.549
  733SOL    HW2  513   1.654   2.377   2.652
  739SOL     OW  514   0.606   2.826   1.985
  739SOL    HW1  515   0.613   2.910   1.931
  739SOL    HW2  516   0.652   2.839   2.073
  740SOL     OW  517   1.594   1.976   3.342
  740SOL    HW1  518   1.576   2.043   3.270
  740SOL    HW2  519   1.591   2.022   3.431
  742SOL     OW  520   1.842   3.629   2.221
  742SOL    HW1  521   1.896   3.600   2.301
  742SOL    HW2  522   1.872   3.719   2.192
  744SOL     OW  523   1.689   2.784   2.474
  744SOL    HW1  524   1.784   2.755   2.482
  744SOL    HW2  525   1.681   2.849   2.399
  745SOL     OW  526   1.641   2.970   2.294
  745SOL    HW1  527   1.727   2.972   2.242
  745SOL    HW2  528   1.655   3.017   2.382
  748SOL     OW  529   1.293   3.090   3.285
  748SOL    HW1  530   1.330   3.017   3.227
  748SOL    HW2  531   1.345   3.095   3.370
  749SOL     OW  532   0.809   1.866   2.364
  749SOL    HW1  533   0.849   1.957   2.355
  749SOL    HW2  534   0.709   1.874   2.370
  751SOL     OW  535   1.525   2.861   2.052
  751SOL    HW1  536   1.462   2.785   2.065
  751SOL    HW2  537   1.573   2.879   2.138
  754SOL     OW  538   1.466   3.279   2.815
  754SOL    HW1  539   1.407   3.285   2.895
  754SOL    HW2  540   1.451   3.191   2.769
  755SOL     OW  541   1.667   3.576   2.434
  755SOL    HW1  542   1.626   3.553   2.346
  755SOL    HW2  543   1.649   3.502   2.499
  756SOL     OW  544   0.598   2.591   2.132
  756SOL    HW1  545   0.622   2.660   2.064
  756SOL    HW2  546   0.520   2.624   2.186
  757SOL     OW  547   1.281   2.207   2.806
  757SOL    HW1  548   1.195   2.157   2.793
  757SOL    HW2  549   1.343   2.153   2.862
  758SOL     OW  550   1.576   3.524   2.169
  758SOL    HW1  551   1.665   3.570   2.172
  758SOL    HW2  552   1.555   3.500   2.074
  760SOL     OW  553   1.394   2.331   3.536
  760SOL    HW1  554   1.374   2.374   3.624
  760SOL    HW2  555   1.472   2.269   3.545
  762SOL     OW  556   0.991   2.272   3.104
  762SOL    HW1  557   0.914   2.306   3.158
  762SOL    HW2  558   0.957   2.221   3.025
  763SOL     OW  559   1.041   2.563   2.291
  763SOL    HW1  560   1.067   2.559   2.387
  763SOL    HW2  561   0.956   2.512   2.277
  766SOL     OW  562   0.865   2.210   2.057
  766SOL    HW1  563   0.924   2.273   2.008
  766SOL    HW2  564   0.884   2.116   2.028
  767SOL     OW  565   1.719   2.447   3.693
  767SOL    HW1  566   1.693   2.536   3.657
  767SOL    HW2  567   1.717   2.379   3.620
  768SOL     OW  568   1.362   3.006   2.407
  768SOL    HW1  569   1.445   2.977   2.359
  768SOL    HW2  570   1.313   3.073   2.351
  769SOL     OW  571   0.550   2.058   2.747
  769SOL    HW1  572   0.545   2.053   2.847
  769SOL    HW2  573   0.552   2.154   2.718
  770SOL     OW  574   1.008   3.318   2.339
  770SOL    HW1  575   0.962   3.390   2.287
  770SOL    HW2  576   1.004   3.338   2.437
  772SOL     OW  577   1.795   2.928   2.735
  772SOL    HW1  578   1.733   2.913   2.659
  772SOL    HW2  579   1.743   2.939   2.820
  775SOL     OW  580   1.458   2.597   2.590
  775SOL    HW1  581   1.453   2.532   2.665
  775SOL    HW2  582   1.538   2.656   2.603
  779SOL     OW  583   1.632   3.239   1.943
  779SOL    HW1  584   1.600   3.333   1.933
  779SOL    HW2  585   1.556   3.176   1.931
  781SOL     OW  586   1.400   1.969   2.288
  781SOL    HW1  587   1.376   1.932   2.198
  781SOL    HW2  588   1.499   1.985   2.292
  785SOL     OW  589   1.547   2.084   3.591
  785SOL    HW1  590   1.542   2.121   3.683
  785SOL    HW2  591   1.475   2.015   3.579
  786SOL     OW  592   0.614   1.984   1.979
  786SOL    HW1  593   0.712   1.962   1.986
  786SOL    HW2  594   0.583   1.967   1.886
  789SOL     OW  595   1.351   2.452   3.295
  789SOL    HW1  596   1.379   2.409   3.380
  789SOL    HW2  597   1.376   2.548   3.296
  791SOL     OW  598   0.922   2.365   2.761
  791SOL    HW1  599   0.897   2.356   2.665
  791SOL    HW2  600   0.970   2.283   2.792
  792SOL     OW  601   0.539   1.926   2.374
  792SOL    HW1  602   0.458   1.927   2.432
  792SOL    HW2  603   0.542   2.009   2.319
  793SOL     OW  604   1.434   3.050   1.903
  793SOL    HW1  605   1.466   2.974   1.960
  793SOL    HW2  606   1.342   3.077   1.933
  795SOL     OW  607   0.935   2.098   2.342
  795SOL    HW1  608   0.887   2.139   2.264
  795SOL    HW2  609   1.034   2.096   2.323
  796SOL     OW  610   1.076   2.545   3.326
  796SOL    HW1  611   0.996   2.484   3.329
  796SOL    HW2  612   1.157   2.492   3.302
  797SOL     OW  613   1.227   3.432   2.655
  797SOL    HW1  614   1.248   3.506   2.590
  797SOL    HW2  615   1.295   3.432   2.728
  799SOL     OW  616   1.271   3.659   2.453
  799SOL    HW1  617   1.315   3.723   2.389
  799SOL    HW2  618   1.221   3.711   2.523
  800SOL     OW  619   1.032   2.411   1.878
  800SOL    HW1  620   0.991   2.493   1.839
  800SOL    HW2  621   1.096   2.437   1.951
  803SOL     OW  622   0.866   2.316   2.504
  803SOL    HW1  623   0.834   2.388   2.442
  803SOL    HW2  624   0.890   2.235   2.451
  804SOL     OW  625   1.017   1.901   2.615
  804SOL    HW1  626   0.945   1.906   2.546
  804SOL    HW2  627   0.993   1.832   2.684
  805SOL     OW  628   1.429   3.035   2.729
  805SOL    HW1  629   1.374   2.951   2.722
  805SOL    HW2  630   1.455   3.064   2.637
  806SOL     OW  631   1.466   2.452   2.854
  806SOL    HW1  632   1.436   2.357   2.861
  806SOL    HW2  633   1.539   2.468   2.920
  807SOL     OW  634   1.857   2.695   2.239
  807SOL    HW1  635   1.899   2.631   2.303
  807SOL    HW2  636   1.819   2.644   2.161
  809SOL     OW  637   1.664   3.142   2.519
  809SOL    HW1  638   1.763   3.150   2.533
  809SOL    HW2  639   1.619   3.226   2.550
  810SOL     OW  640   1.390   2.437   1.940
  810SOL    HW1  641   1.336   2.416   2.021
  810SOL    HW2  642   1.481   2.396   1.949
  811SOL     OW  643   0.527   2.118   2.190
  811SOL    HW1  644   0.554   2.059   2.115
  811SOL    HW2  645   0.527   2.213   2.159
  812SOL     OW  646   1.754   3.085   3.450
  812SOL    HW1  647   1.845   3.046   3.437
  812SOL    HW2  648   1.762   3.181   3.474
  815SOL     OW  649   1.111   3.057   2.962
  815SOL    HW1  650   1.071   3.101   3.043
  815SOL    HW2  651   1.070   3.094   2.879
  816SOL     OW  652   1.638   2.961   2.941
  816SOL    HW1  653   1.643   3.042   3.000
  816SOL    HW2  654   1.552   2.963   2.890
  817SOL     OW  655   0.915   1.951   3.264
  817SOL    HW1  656   0.940   1.931   3.169
  817SOL    HW2  657   0.987   2.007   3.306
  819SOL     OW  658   0.705   2.912   2.230
  819SOL    HW1  659   0.691   2.919   2.329
  819SOL    HW2  660   0.789   2.861   2.212
  821SOL     OW  661   1.274   2.248   3.124
  821SOL    HW1  662   1.295   2.322   3.188
  821SOL    HW2  663   1.185   2.265   3.081
  824SOL     OW  664   0.566   2.399   2.727
  824SOL    HW1  665   0.578   2.465   2.653
  824SOL    HW2  666   0.612   2.433   2.810
  825SOL     OW  667   1.252   3.210   2.250
  825SOL    HW1  668   1.302   3.287   2.290
  825SOL    HW2  669   1.157   3.212   2.282
  826SOL     OW  670   1.272   3.307   3.004
  826SOL    HW1  671   1.319   3.320   3.091
  826SOL    HW2  672   1.206   3.233   3.013
  827SOL     OW  673   1.582   2.501   2.334
  827SOL    HW1  674   1.551   2.562   2.407
  827SOL    HW2  675   1.632   2.553   2.265
  830SOL     OW  676   1.587   2.641   3.532
  830SOL    HW1  677   1.495   2.679   3.527
  830SOL    HW2  678   1.647   2.688   3.467
  834SOL     OW  679   1.360   2.724   2.907
  834SOL    HW1  680   1.285   2.724   2.841
  834SOL    HW2  681   1.397   2.632   2.916
  835SOL     OW  682   1.209   2.387   2.137
  835SOL    HW1  683   1.222   2.303   2.191
  835SOL    HW2  684   1.180   2.461   2.197
  838SOL     OW  685   0.732   2.496   2.926
  838SOL    HW1  686   0.791   2.470   2.850
  838SOL    HW2  687   0.704   2.592   2.915
  839SOL     OW  688   1.728   2.797   3.716
  839SOL    HW1  689   1.682   2.790   3.627
  839SOL    HW2  690   1.666   2.841   3.782
  841SOL     OW  691   1.622   2.229   2.236
  841SOL    HW1  692   1.624   2.153   2.300
  841SOL    HW2  693   1.574   2.306   2.276
  842SOL     OW  694   1.023   2.628   2.828
  842SOL    HW1  695   1.038   2.649   2.924
  842SOL    HW2  696   0.993   2.533   2.819
  844SOL     OW  697   1.859   3.380   3.467
  844SOL    HW1  698   1.873   3.407   3.372
  844SOL    HW2  699   1.942   3.402   3.520
  846SOL     OW  700   1.540   2.136   1.987
  846SOL    HW1  701   1.479   2.061   2.010
  846SOL    HW2  702   1.562   2.188   2.070
  847SOL     OW  703   1.303   2.700   1.904
  847SOL    HW1  704   1.337   2.607   1.919
  847SOL    HW2  705   1.321   2.727   1.809
  848SOL     OW  706   1.068   3.195   2.711
  848SOL    HW1  707   1.075   3.111   2.656
  848SOL    HW2  708   1.130   3.264   2.675
  851SOL     OW  709   1.138   2.242   3.540
  851SOL    HW1  710   1.093   2.305   3.604
  851SOL    HW2  711   1.231   2.273   3.523
  852SOL     OW  712   1.160   2.069   3.339
  852SOL    HW1  713   1.160   2.133   3.416
  852SOL    HW2  714   1.188   2.117   3.256
  856SOL     OW  715   1.002   2.658   3.100
  856SOL    HW1  716   1.043   2.626   3.186
  856SOL    HW2  717   0.906   2.631   3.097
  859SOL     OW  718   1.369   2.812   3.522
  859SOL    HW1  719   1.408   2.901   3.542
  859SOL    HW2  720   1.379   2.792   3.425
  860SOL     OW  721   0.815   2.434   2.187
  860SOL    HW1  722   0.822   2.345   2.141
  860SOL    HW2  723   0.721   2.468   2.179
  861SOL     OW  724   1.657   2.466   3.068
  861SOL    HW1  725   1.619   2.397   3.130
  861SOL    HW2  726   1.739   2.430   3.024
  865SOL     OW  727   0.473   2.362   2.053
  865SOL    HW1  728   0.534   2.442   2.057
  865SOL    HW2  729   0.378   2.393   2.060
  867SOL     OW  730   1.347   2.921   3.096
  867SOL    HW1  731   1.371   2.858   3.022
  867SOL    HW2  732   1.257   2.961   3.078
  868SOL     OW  733   1.302   2.717   2.171
  868SOL    HW1  734   1.216   2.686   2.213
  868SOL    HW2  735   1.298   2.703   2.072
  869SOL     OW  736   1.759   3.609   3.016
  869SOL    HW1  737   1.820   3.639   2.943
  869SOL    HW2  738   1.721   3.520   2.994
  873SOL     OW  739   1.726   1.997   2.385
  873SOL    HW1  740   1.799   1.980   2.318
  873SOL    HW2  741   1.695   1.910   2.423
  874SOL     OW  742   1.388   3.435   2.339
  874SOL    HW1  743   1.455   3.447   2.265
  874SOL    HW2  744   1.348   3.524   2.362
  876SOL     OW  745   1.280   2.789   2.534
  876SOL    HW1  746   1.340   2.708   2.536
  876SOL    HW2  747   1.320   2.858   2.474
  879SOL     OW  748   1.650   3.582   3.256
  879SOL    HW1  749   1.703   3.592   3.172
  879SOL    HW2  750   1.623   3.672   3.290
  880SOL     OW  751   1.841   2.037   2.825
  880SOL    HW1  752   1.880   1.952   2.789
  880SOL    HW2  753   1.743   2.039   2.806
  882SOL     OW  754   1.194   3.474   1.893
  882SOL    HW1  755   1.200   3.381   1.930
  882SOL    HW2  756   1.135   3.474   1.813
  884SOL     OW  757   0.916   2.772   2.153
  884SOL    HW1  758   0.979   2.810   2.085
  884SOL    HW2  759   0.956   2.689   2.192
  885SOL     OW  760   1.504   3.469   1.906
  885SOL    HW1  761   1.412   3.506   1.913
  885SOL    HW2  762   1.542   3.489   1.816
  887SOL     OW  763   1.614   3.154   3.151
  887SOL    HW1  764   1.674   3.157   3.231
  887SOL    HW2  765   1.539   3.218   3.164
  888SOL     OW  766   1.039   2.960   2.558
  888SOL    HW1  767   0.969   2.913   2.612
  888SOL    HW2  768   1.098   2.892   2.515
  889SOL     OW  769   1.014   2.098   2.833
  889SOL    HW1  770   1.006   2.062   2.740
  889SOL    HW2  771   1.012   2.022   2.898
  891SOL     OW  772   1.709   2.247   3.243
  891SOL    HW1  773   1.782   2.316   3.247
  891SOL    HW2  774   1.737   2.172   3.184
  896SOL     OW  775   1.440   2.718   3.260
  896SOL    HW1  776   1.383   2.770   3.197
  896SOL    HW2  777   1.536   2.730   3.236
  898SOL     OW  778   1.183   3.197   1.981
  898SOL    HW1  779   1.084   3.186   1.983
  898SOL    HW2  780   1.217   3.212   2.074
  900SOL     OW  781   1.493   3.629   2.821
  900SOL    HW1  782   1.526   3.693   2.752
  900SOL    HW2  783   1.559   3.623   2.896
  902SOL     OW  784   1.450   3.082   3.495
  902SOL    HW1  785   1.441   3.072   3.594
  902SOL    HW2  786   1.546   3.075   3.469
  904SOL     OW  787   1.674   2.745   3.116
  904SOL    HW1  788   1.647   2.656   3.079
  904SOL    HW2  789   1.675   2.813   3.043
  905SOL     OW  790   1.225   2.187   2.311
  905SOL    HW1  791   1.290   2.113   2.300
  905SOL    HW2  792   1.245   2.237   2.395
  906SOL     OW  793   0.594   2.607   2.514
  906SOL    HW1  794   0.644   2.692   2.495
  906SOL    HW2  795   0.506   2.609   2.466
  907SOL     OW  796   1.777   2.204   3.504
  907SOL    HW1  797   1.760   2.235   3.410
  907SOL    HW2  798   1.693   2.167   3.542
  908SOL     OW  799   1.730   2.796   3.379
  908SOL    HW1  800   1.768   2.887   3.394
  908SOL    HW2  801   1.722   2.779   3.280
  909SOL     OW  802   0.859   3.236   1.878
  909SOL    HW1  803   0.813   3.251   1.966
  909SOL    HW2  804   0.903   3.321   1.848
  911SOL     OW  805   0.859   2.818   2.723
  911SOL    HW1  806   0.913   2.749   2.771
  911SOL    HW2  807   0.827   2.887   2.789
  912SOL     OW  808   1.083   2.846   1.949
  912SOL    HW1  809   1.060   2.899   1.867
  912SOL    HW2  810   1.164   2.790   1.930
  913SOL     OW  811   1.861   3.431   2.713
  913SOL    HW1  812   1.790   3.419   2.643
  913SOL    HW2  813   1.862   3.352   2.773
  917SOL     OW  814   1.824   2.054   3.089
  917SOL    HW1  815   1.820   1.964   3.133
  917SOL    HW2  816   1.827   2.043   2.990
  919SOL     OW  817   1.705   3.349   2.966
  919SOL    HW1  818   1.612   3.324   2.939
  919SOL    HW2  819   1.731   3.299   3.048
  922SOL     OW  820   1.424   2.076   2.974
  922SOL    HW1  821   1.476   2.011   3.029
  922SOL    HW2  822   1.375   2.139   3.035
  923SOL     OW  823   1.001   1.896   3.016
  923SOL    HW1  824   0.938   1.824   2.985
  923SOL    HW2  825   1.094   1.860   3.016
  924SOL     OW  826   0.770   3.192   2.163
  924SOL    HW1  827   0.724   3.105   2.180
  924SOL    HW2  828   0.861   3.189   2.204
  926SOL     OW  829   1.352   1.914   2.030
  926SOL    HW1  830   1.387   1.873   1.946
  926SOL    HW2  831   1.262   1.876   2.050
  927SOL     OW  832   1.300   2.315   2.553
  927SOL    HW1  833   1.241   2.395   2.557
  927SOL    HW2  834   1.315   2.280   2.646
  928SOL     OW  835   1.593   2.083   2.744
  928SOL    HW1  836   1.509   2.082   2.798
  928SOL    HW2  837   1.595   2.166   2.688
  972SOL     OW  838   1.390   2.437   3.802
  972SOL    HW1  839   1.336   2.416   3.883
  972SOL    HW2  840   1.481   2.396   3.811
  981SOL     OW  841   1.540   2.136   3.849
  981SOL    HW1  842   1.479   2.061   3.872
  981SOL    HW2  843   1.562   2.188   3.932
 1154SOL     OW  844   1.726   3.859   2.385
 1154SOL    HW1  845   1.799   3.842   2.318
 1154SOL    HW2  846   1.695   3.772   2.423
 1172SOL     OW  847   1.352   3.776   2.030
 1172SOL    HW1  848   1.387   3.735   1.946
 1172SOL    HW2  849   1.262   3.738   2.050
 1212SOL     OW  850   2.431   1.275   1.165
 1212SOL    HW1  851   2.338   1.268   1.128
 1212SOL    HW2  852   2.442   1.364   1.209
 1216SOL     OW  853   2.630   1.144   1.023
 1216SOL    HW1  854   2.552   1.161   1.083
 1216SOL    HW2  855   2.664   1.231   0.987
 1217SOL     OW  856   2.712   0.798   1.823
 1217SOL    HW1  857   2.708   0.874   1.888
 1217SOL    HW2  858   2.734   0.834   1.732
 1219SOL     OW  859   2.548   1.161   1.803
 1219SOL    HW1  860   2.608   1.240   1.817
 1219SOL    HW2  861   2.462   1.192   1.762
 1220SOL     OW  862   2.197   1.435   1.061
 1220SOL    HW1  863   2.119   1.404   1.008
 1220SOL    HW2  864   2.255   1.493   1.004
 1221SOL     OW  865   3.322   1.505   1.339
 1221SOL    HW1  866   3.346   1.599   1.365
 1221SOL    HW2  867   3.306   1.451   1.421
 1225SOL     OW  868   2.989   1.341   1.690
 1225SOL    HW1  869   3.036   1.341   1.778
 1225SOL    HW2  870   2.941   1.254   1.679
 1227SOL     OW  871   2.102   1.091   0.886
 1227SOL    HW1  872   2.116   1.007   0.938
 1227SOL    HW2  873   2.047   1.155   0.941
 1228SOL     OW  874   2.482   1.786   1.439
 1228SOL    HW1  875   2.390   1.769   1.474
 1228SOL    HW2  876   2.510   1.878   1.465
 1236SOL     OW  877   1.975   0.737   1.597
 1236SOL    HW1  878   2.063   0.724   1.642
 1236SOL    HW2  879   1.962   0.834   1.575
 1237SOL     OW  880   2.475   1.365   0.726
 1237SOL    HW1  881   2.426   1.278   0.735
 1237SOL    HW2  882   2.452   1.408   0.639
 1238SOL     OW  883   3.155   1.228   1.423
 1238SOL    HW1  884   3.192   1.155   1.365
 1238SOL    HW2  885   3.207   1.233   1.508
 1240SOL     OW  886   2.059   0.976   1.264
 1240SOL    HW1  887   2.148   0.931   1.250
 1240SOL    HW2  888   1.986   0.911   1.245
 1242SOL     OW  889   3.049   1.792   1.616
 1242SOL    HW1  890   3.073   1.852   1.540
 1242SOL    HW2  891   3.056   1.697   1.586
 1251SOL     OW  892   2.835   0.890   1.572
 1251SOL    HW1  893   2.881   0.806   1.543
 1251SOL    HW2  894   2.779   0.924   1.497
 1255SOL     OW  895   1.992   1.821   1.571
 1255SOL    HW1  896   1.982   1.806   1.670
 1255SOL    HW2  897   1.906   1.857   1.535
 1261SOL     OW  898   2.213   1.801   0.853
 1261SOL    HW1  899   2.263   1.715   0.859
 1261SOL    HW2  900   2.278   1.878   0.850
 1263SOL     OW  901   3.089   1.550   1.506
 1263SOL    HW1  902   3.095   1.473   1.570
 1263SOL    HW2  903   3.037   1.524   1.426
 1266SOL     OW  904   2.323   1.266   1.727
 1266SOL    HW1  905   2.273   1.267   1.641
 1266SOL    HW2  906   2.260   1.248   1.803
 1272SOL     OW  907   2.111   1.785   1.241
 1272SOL    HW1  908   2.168   1.720   1.291
 1272SOL    HW2  909   2.095   1.752   1.148
 1273SOL     OW  910   2.802   1.698   0.904
 1273SOL    HW1  911   2.882   1.641   0.925
 1273SOL    HW2  912   2.753   1.658   0.827
 1278SOL     OW  913   2.750   1.514   1.195
 1278SOL    HW1  914   2.727   1.489   1.101
 1278SOL    HW2  915   2.811   1.445   1.234
 1280SOL     OW  916   2.665   1.402   0.924
 1280SOL    HW1  917   2.755   1.416   0.882
 1280SOL    HW2  918   2.594   1.404   0.853
 1287SOL     OW  919   3.089   1.570   0.793
 1287SOL    HW1  920   3.110   1.644   0.728
 1287SOL    HW2  921   3.157   1.570   0.866
 1303SOL     OW  922   2.926   1.347   1.340
 1303SOL    HW1  923   2.846   1.324   1.395
 1303SOL    HW2  924   3.009   1.321   1.389
 1304SOL     OW  925   3.454   1.629   1.625
 1304SOL    HW1  926   3.481   1.663   1.535
 1304SOL    HW2  927   3.533   1.591   1.671
 1305SOL     OW  928   2.973   1.195   1.100
 1305SOL    HW1  929   2.933   1.239   1.181
 1305SOL    HW2  930   2.932   1.232   1.017
 1308SOL     OW  931   2.842   1.116   1.719
 1308SOL    HW1  932   2.743   1.122   1.729
 1308SOL    HW2  933   2.865   1.036   1.663
 1310SOL     OW  934   2.272   0.813   1.251
 1310SOL    HW1  935   2.358   0.825   1.301
 1310SOL    HW2  936   2.230   0.726   1.278
 1312SOL     OW  937   1.926   1.564   1.331
 1312SOL    HW1  938   1.880   1.646   1.297
 1312SOL    HW2  939   2.024   1.583   1.340
 1316SOL     OW  940   3.134   1.445   1.142
 1316SOL    HW1  941   3.181   1.458   1.229
 1316SOL    HW2  942   3.068   1.371   1.151
 1318SOL     OW  943   2.216   1.510   1.329
 1318SOL    HW1  944   2.195   1.466   1.242
 1318SOL    HW2  945   2.313   1.536   1.332
 1319SOL     OW  946   2.264   0.751   1.598
 1319SOL    HW1  947   2.332   0.806   1.551
 1319SOL    HW2  948   2.304   0.663   1.625
 1327SOL     OW  949   1.899   1.310   1.282
 1327SOL    HW1  950   1.952   1.261   1.350
 1327SOL    HW2  951   1.921   1.408   1.287
 1333SOL     OW  952   2.842   1.573   1.700
 1333SOL    HW1  953   2.822   1.617   1.612
 1333SOL    HW2  954   2.881   1.482   1.684
 1334SOL     OW  955   3.721   1.518   1.605
 1334SOL    HW1  956   3.735   1.545   1.510
 1334SOL    HW2  957   3.804   1.540   1.658
 1335SOL     OW  958   2.212   0.898   1.804
 1335SOL    HW1  959   2.288   0.942   1.852
 1335SOL    HW2  960   2.247   0.851   1.722
 1338SOL     OW  961   2.930   1.333   0.849
 1338SOL    HW1  962   2.937   1.249   0.794
 1338SOL    HW2  963   2.992   1.402   0.813
 1344SOL     OW  964   1.950   1.801   0.927
 1344SOL    HW1  965   1.908   1.715   0.900
 1344SOL    HW2  966   2.044   1.804   0.893
 1345SOL     OW  967   2.366   1.568   0.910
 1345SOL    HW1  968   2.432   1.642   0.919
 1345SOL    HW2  969   2.410   1.489   0.868
 1348SOL     OW  970   2.051   0.520   1.722
 1348SOL    HW1  971   2.110   0.480   1.652
 1348SOL    HW2  972   1.993   0.591   1.681
 1349SOL     OW  973   3.231   0.950   1.660
 1349SOL    HW1  974   3.270   1.039   1.680
 1349SOL    HW2  975   3.241   0.930   1.563
 1352SOL     OW  976   2.114   1.564   1.744
 1352SOL    HW1  977   2.084   1.621   1.820
 1352SOL    HW2  978   2.107   1.467   1.770
 1354SOL     OW  979   2.792   1.678   1.465
 1354SOL    HW1  980   2.768   1.660   1.370
 1354SOL    HW2  981   2.822   1.772   1.475
 1356SOL     OW  982   2.021   1.137   1.466
 1356SOL    HW1  983   2.043   1.076   1.542
 1356SOL    HW2  984   2.031   1.088   1.380
 1360SOL     OW  985   3.114   1.731   1.128
 1360SOL    HW1  986   3.198   1.736   1.074
 1360SOL    HW2  987   3.091   1.635   1.146
 1361SOL     OW  988   1.945   1.258   1.022
 1361SOL    HW1  989   1.940   1.257   1.122
 1361SOL    HW2  990   1.862   1.217   0.984
 1362SOL     OW  991   2.550   1.662   1.716
 1362SOL    HW1  992   2.494   1.743   1.725
 1362SOL    HW2  993   2.602   1.666   1.630
 1366SOL     OW  994   1.992   1.794   1.851
 1366SOL    HW1  995   1.951   1.720   1.904
 1366SOL    HW2  996   2.056   1.845   1.909
 1368SOL     OW  997   2.692   1.273   1.422
 1368SOL    HW1  998   2.687   1.306   1.517
 1368SOL    HW2  999   2.606   1.292   1.376
 1370SOL     OW 1000   3.512   1.720   1.394
 1370SOL    HW1 1001   3.565   1.730   1.310
 1370SOL    HW2 1002   3.485   1.810   1.428
 1374SOL     OW 1003   2.684   1.002   1.372
 1374SOL    HW1 1004   2.724   1.001   1.280
 1374SOL    HW2 1005   2.694   1.094   1.412
 1377SOL     OW 1006   2.234   1.288   1.490
 1377SOL    HW1 1007   2.221   1.381   1.456
 1377SOL    HW2 1008   2.150   1.236   1.477
 1384SOL     OW 1009   1.967   1.013   1.726
 1384SOL    HW1 1010   1.890   0.980   1.780
 1384SOL    HW2 1011   2.052   0.983   1.768
 1389SOL     OW 1012   2.475   0.842   1.431
 1389SOL    HW1 1013   2.531   0.923   1.414
 1389SOL    HW2 1014   2.534   0.762   1.434
 1390SOL     OW 1015   3.355   1.767   0.959
 1390SOL    HW1 1016   3.388   1.831   0.890
 1390SOL    HW2 1017   3.421   1.761   1.034
 1391SOL     OW 1018   2.578   0.565   1.708
 1391SOL    HW1 1019   2.597   0.630   1.782
 1391SOL    HW2 1020   2.638   0.485   1.717
 1392SOL     OW 1021   3.312   1.220   1.633
 1392SOL    HW1 1022   3.303   1.210   1.732
 1392SOL    HW2 1023   3.408   1.213   1.607
 1393SOL     OW 1024   2.252   1.741   1.560
 1393SOL    HW1 1025   2.161   1.782   1.558
 1393SOL    HW2 1026   2.245   1.647   1.592
 1400SOL     OW 1027   2.523   1.790   0.953
 1400SOL    HW1 1028   2.477   1.878   0.940
 1400SOL    HW2 1029   2.622   1.802   0.946
 1404SOL     OW 1030   2.083   1.314   1.844
 1404SOL    HW1 1031   2.018   1.241   1.823
 1404SOL    HW2 1032   2.087   1.328   1.942
 1406SOL     OW 1033   2.534   1.391   1.624
 1406SOL    HW1 1034   2.456   1.341   1.662
 1406SOL    HW2 1035   2.531   1.486   1.655
 1411SOL     OW 1036   2.674   1.586   0.687
 1411SOL    HW1 1037   2.706   1.596   0.593
 1411SOL    HW2 1038   2.595   1.524   0.689
 1415SOL     OW 1039   2.480   1.567   1.284
 1415SOL    HW1 1040   2.475   1.649   1.341
 1415SOL    HW2 1041   2.569   1.564   1.239
 1421SOL     OW 1042   2.092   0.628   1.975
 1421SOL    HW1 1043   1.999   0.626   2.012
 1421SOL    HW2 1044   2.093   0.589   1.883
 1424SOL     OW 1045   2.431   1.275   3.027
 1424SOL    HW1 1046   2.338   1.268   2.990
 1424SOL    HW2 1047   2.442   1.364   3.071
 1425SOL     OW 1048   3.417   1.511   2.565
 1425SOL    HW1 1049   3.360   1.495   2.646
 1425SOL    HW2 1050   3.358   1.521   2.485
 1426SOL     OW 1051   2.997   0.703   2.579
 1426SOL    HW1 1052   3.054   0.781   2.554
 1426SOL    HW2 1053   2.937   0.729   2.655
 1428SOL     OW 1054   2.630   1.144   2.885
 1428SOL    HW1 1055   2.552   1.161   2.945
 1428SOL    HW2 1056   2.664   1.231   2.849
 1430SOL     OW 1057   2.547   1.012   2.527
 1430SOL    HW1 1058   2.616   0.996   2.597
 1430SOL    HW2 1059   2.474   1.069   2.565
 1432SOL     OW 1060   2.197   1.435   2.923
 1432SOL    HW1 1061   2.119   1.404   2.870
 1432SOL    HW2 1062   2.255   1.493   2.866
 1433SOL     OW 1063   3.322   1.505   3.201
 1433SOL    HW1 1064   3.346   1.599   3.227
 1433SOL    HW2 1065   3.306   1.451   3.283
 1436SOL     OW 1066   2.093   1.713   2.345
 1436SOL    HW1 1067   2.127   1.790   2.399
 1436SOL    HW2 1068   2.137   1.713   2.255
 1437SOL     OW 1069   2.989   1.341   3.552
 1437SOL    HW1 1070   3.036   1.341   3.640
 1437SOL    HW2 1071   2.941   1.254   3.541
 1438SOL     OW 1072   2.092   1.434   2.400
 1438SOL    HW1 1073   2.066   1.530   2.400
 1438SOL    HW2 1074   2.021   1.380   2.445
 1439SOL     OW 1075   2.102   1.091   2.748
 1439SOL    HW1 1076   2.116   1.007   2.800
 1439SOL    HW2 1077   2.047   1.155   2.803
 1440SOL     OW 1078   2.482   1.786   3.301
 1440SOL    HW1 1079   2.390   1.769   3.336
 1440SOL    HW2 1080   2.510   1.878   3.327
 1441SOL     OW 1081   2.468   0.964   1.985
 1441SOL    HW1 1082   2.475   1.048   1.931
 1441SOL    HW2 1083   2.514   0.977   2.073
 1443SOL     OW 1084   1.984   0.643   2.425
 1443SOL    HW1 1085   1.939   0.555   2.442
 1443SOL    HW2 1086   1.983   0.697   2.509
 1444SOL     OW 1087   3.704   1.767   2.221
 1444SOL    HW1 1088   3.758   1.738   2.301
 1444SOL    HW2 1089   3.734   1.857   2.192
 1445SOL     OW 1090   1.889   1.596   1.979
 1445SOL    HW1 1091   1.870   1.500   2.000
 1445SOL    HW2 1092   1.856   1.654   2.054
 1447SOL     OW 1093   3.503   1.108   2.294
 1447SOL    HW1 1094   3.589   1.110   2.242
 1447SOL    HW2 1095   3.517   1.155   2.382
 1449SOL     OW 1096   2.475   1.365   2.588
 1449SOL    HW1 1097   2.426   1.278   2.597
 1449SOL    HW2 1098   2.452   1.408   2.501
 1450SOL     OW 1099   3.155   1.228   3.285
 1450SOL    HW1 1100   3.192   1.155   3.227
 1450SOL    HW2 1101   3.207   1.233   3.370
 1452SOL     OW 1102   2.059   0.976   3.126
 1452SOL    HW1 1103   2.148   0.931   3.112
 1452SOL    HW2 1104   1.986   0.911   3.107
 1453SOL     OW 1105   3.387   0.999   2.052
 1453SOL    HW1 1106   3.324   0.923   2.065
 1453SOL    HW2 1107   3.435   1.017   2.138
 1454SOL     OW 1108   3.049   1.792   3.478
 1454SOL    HW1 1109   3.073   1.852   3.402
 1454SOL    HW2 1110   3.056   1.697   3.448
 1456SOL     OW 1111   3.328   1.417   2.815
 1456SOL    HW1 1112   3.269   1.423   2.895
 1456SOL    HW2 1113   3.313   1.329   2.769
 1457SOL     OW 1114   3.529   1.714   2.434
 1457SOL    HW1 1115   3.488   1.691   2.346
 1457SOL    HW2 1116   3.511   1.640   2.499
 1458SOL     OW 1117   2.460   0.729   2.132
 1458SOL    HW1 1118   2.484   0.798   2.064
 1458SOL    HW2 1119   2.382   0.762   2.186
 1460SOL     OW 1120   3.438   1.662   2.169
 1460SOL    HW1 1121   3.527   1.708   2.172
 1460SOL    HW2 1122   3.417   1.638   2.074
 1465SOL     OW 1123   2.903   0.701   2.291
 1465SOL    HW1 1124   2.929   0.697   2.387
 1465SOL    HW2 1125   2.818   0.650   2.277
 1466SOL     OW 1126   1.938   0.811   2.651
 1466SOL    HW1 1127   2.037   0.799   2.660
 1466SOL    HW2 1128   1.914   0.906   2.672
 1467SOL     OW 1129   1.992   1.821   3.433
 1467SOL    HW1 1130   1.982   1.806   3.532
 1467SOL    HW2 1131   1.906   1.857   3.397
 1470SOL     OW 1132   3.224   1.144   2.407
 1470SOL    HW1 1133   3.307   1.115   2.359
 1470SOL    HW2 1134   3.175   1.211   2.351
 1472SOL     OW 1135   2.870   1.456   2.339
 1472SOL    HW1 1136   2.824   1.528   2.287
 1472SOL    HW2 1137   2.866   1.476   2.437
 1473SOL     OW 1138   2.213   1.801   2.715
 1473SOL    HW1 1139   2.263   1.715   2.721
 1473SOL    HW2 1140   2.278   1.878   2.712
 1475SOL     OW 1141   3.089   1.550   3.368
 1475SOL    HW1 1142   3.095   1.473   3.432
 1475SOL    HW2 1143   3.037   1.524   3.288
 1476SOL     OW 1144   2.183   0.943   2.104
 1476SOL    HW1 1145   2.265   0.982   2.062
 1476SOL    HW2 1146   2.156   0.861   2.055
 1478SOL     OW 1147   2.323   1.266   3.589
 1478SOL    HW1 1148   2.273   1.267   3.503
 1478SOL    HW2 1149   2.260   1.248   3.665
 1479SOL     OW 1150   2.973   1.776   2.099
 1479SOL    HW1 1151   2.913   1.714   2.149
 1479SOL    HW2 1152   3.004   1.732   2.014
 1481SOL     OW 1153   3.494   1.377   1.943
 1481SOL    HW1 1154   3.462   1.471   1.933
 1481SOL    HW2 1155   3.418   1.314   1.931
 1482SOL     OW 1156   2.326   1.743   2.185
 1482SOL    HW1 1157   2.359   1.782   2.271
 1482SOL    HW2 1158   2.402   1.736   2.120
 1484SOL     OW 1159   2.111   1.785   3.103
 1484SOL    HW1 1160   2.168   1.720   3.153
 1484SOL    HW2 1161   2.095   1.752   3.010
 1485SOL     OW 1162   2.802   1.698   2.766
 1485SOL    HW1 1163   2.882   1.641   2.787
 1485SOL    HW2 1164   2.753   1.658   2.689
 1486SOL     OW 1165   2.244   0.700   2.342
 1486SOL    HW1 1166   2.289   0.610   2.339
 1486SOL    HW2 1167   2.150   0.689   2.375
 1490SOL     OW 1168   2.750   1.514   3.057
 1490SOL    HW1 1169   2.727   1.489   2.963
 1490SOL    HW2 1170   2.811   1.445   3.096
 1492SOL     OW 1171   2.665   1.402   2.786
 1492SOL    HW1 1172   2.755   1.416   2.744
 1492SOL    HW2 1173   2.594   1.404   2.715
 1495SOL     OW 1174   3.296   1.188   1.903
 1495SOL    HW1 1175   3.328   1.112   1.960
 1495SOL    HW2 1176   3.204   1.215   1.933
 1499SOL     OW 1177   3.089   1.570   2.655
 1499SOL    HW1 1178   3.110   1.644   2.590
 1499SOL    HW2 1179   3.157   1.570   2.728
 1500SOL     OW 1180   2.321   1.152   2.603
 1500SOL    HW1 1181   2.250   1.125   2.668
 1500SOL    HW2 1182   2.295   1.124   2.510
 1501SOL     OW 1183   3.133   1.797   2.453
 1501SOL    HW1 1184   3.177   1.861   2.389
 1501SOL    HW2 1185   3.083   1.849   2.523
 1507SOL     OW 1186   3.291   1.173   2.729
 1507SOL    HW1 1187   3.236   1.089   2.722
 1507SOL    HW2 1188   3.317   1.202   2.637
 1510SOL     OW 1189   2.350   1.385   2.036
 1510SOL    HW1 1190   2.263   1.370   2.083
 1510SOL    HW2 1191   2.333   1.411   1.941
 1511SOL     OW 1192   3.526   1.280   2.519
 1511SOL    HW1 1193   3.625   1.288   2.533
 1511SOL    HW2 1194   3.481   1.364   2.550
 1515SOL     OW 1195   2.926   1.347   3.202
 1515SOL    HW1 1196   2.846   1.324   3.257
 1515SOL    HW2 1197   3.009   1.321   3.251
 1517SOL     OW 1198   2.973   1.195   2.962
 1517SOL    HW1 1199   2.933   1.239   3.043
 1517SOL    HW2 1200   2.932   1.232   2.879
 1521SOL     OW 1201   2.567   1.050   2.230
 1521SOL    HW1 1202   2.553   1.057   2.329
 1521SOL    HW2 1203   2.651   0.999   2.212
 1522SOL     OW 1204   2.272   0.813   3.113
 1522SOL    HW1 1205   2.358   0.825   3.163
 1522SOL    HW2 1206   2.230   0.726   3.140
 1524SOL     OW 1207   1.926   1.564   3.193
 1524SOL    HW1 1208   1.880   1.646   3.159
 1524SOL    HW2 1209   2.024   1.583   3.202
 1525SOL     OW 1210   2.229   1.100   2.363
 1525SOL    HW1 1211   2.222   1.183   2.307
 1525SOL    HW2 1212   2.233   1.020   2.303
 1526SOL     OW 1213   2.428   0.537   2.727
 1526SOL    HW1 1214   2.440   0.603   2.653
 1526SOL    HW2 1215   2.474   0.571   2.810
 1527SOL     OW 1216   3.114   1.348   2.250
 1527SOL    HW1 1217   3.164   1.425   2.290
 1527SOL    HW2 1218   3.019   1.350   2.282
 1528SOL     OW 1219   3.134   1.445   3.004
 1528SOL    HW1 1220   3.181   1.458   3.091
 1528SOL    HW2 1221   3.068   1.371   3.013
 1530SOL     OW 1222   2.216   1.510   3.191
 1530SOL    HW1 1223   2.195   1.466   3.104
 1530SOL    HW2 1224   2.313   1.536   3.194
 1535SOL     OW 1225   2.435   0.870   2.891
 1535SOL    HW1 1226   2.479   0.959   2.882
 1535SOL    HW2 1227   2.372   0.870   2.968
 1539SOL     OW 1228   1.899   1.310   3.144
 1539SOL    HW1 1229   1.952   1.261   3.212
 1539SOL    HW2 1230   1.921   1.408   3.149
 1540SOL     OW 1231   2.594   0.634   2.926
 1540SOL    HW1 1232   2.653   0.608   2.850
 1540SOL    HW2 1233   2.566   0.730   2.915
 1544SOL     OW 1234   2.885   0.766   2.828
 1544SOL    HW1 1235   2.900   0.787   2.924
 1544SOL    HW2 1236   2.855   0.671   2.819
 1545SOL     OW 1237   2.842   1.573   3.562
 1545SOL    HW1 1238   2.822   1.617   3.474
 1545SOL    HW2 1239   2.881   1.482   3.546
 1549SOL     OW 1240   3.165   0.838   1.904
 1549SOL    HW1 1241   3.199   0.745   1.919
 1549SOL    HW2 1242   3.183   0.865   1.809
 1550SOL     OW 1243   2.930   1.333   2.711
 1550SOL    HW1 1244   2.937   1.249   2.656
 1550SOL    HW2 1245   2.992   1.402   2.675
 1551SOL     OW 1246   2.181   0.810   2.811
 1551SOL    HW1 1247   2.274   0.846   2.816
 1551SOL    HW2 1248   2.175   0.725   2.863
 1555SOL     OW 1249   1.870   1.326   2.062
 1555SOL    HW1 1250   1.777   1.347   2.031
 1555SOL    HW2 1251   1.880   1.227   2.075
 1556SOL     OW 1252   1.950   1.801   2.789
 1556SOL    HW1 1253   1.908   1.715   2.762
 1556SOL    HW2 1254   2.044   1.804   2.755
 1557SOL     OW 1255   2.366   1.568   2.772
 1557SOL    HW1 1256   2.432   1.642   2.781
 1557SOL    HW2 1257   2.410   1.489   2.730
 1558SOL     OW 1258   2.864   0.796   3.100
 1558SOL    HW1 1259   2.905   0.764   3.186
 1558SOL    HW2 1260   2.768   0.769   3.097
 1562SOL     OW 1261   2.677   0.572   2.187
 1562SOL    HW1 1262   2.684   0.483   2.141
 1562SOL    HW2 1263   2.583   0.606   2.179
 1564SOL     OW 1264   2.114   1.564   3.606
 1564SOL    HW1 1265   2.084   1.621   3.682
 1564SOL    HW2 1266   2.107   1.467   3.632
 1566SOL     OW 1267   2.792   1.678   3.327
 1566SOL    HW1 1268   2.768   1.660   3.232
 1566SOL    HW2 1269   2.822   1.772   3.337
 1567SOL     OW 1270   2.335   0.500   2.053
 1567SOL    HW1 1271   2.396   0.580   2.057
 1567SOL    HW2 1272   2.240   0.531   2.060
 1568SOL     OW 1273   2.021   1.137   3.328
 1568SOL    HW1 1274   2.043   1.076   3.404
 1568SOL    HW2 1275   2.031   1.088   3.242
 1569SOL     OW 1276   3.209   1.059   3.096
 1569SOL    HW1 1277   3.233   0.996   3.022
 1569SOL    HW2 1278   3.119   1.099   3.078
 1570SOL     OW 1279   3.164   0.855   2.171
 1570SOL    HW1 1280   3.078   0.824   2.213
 1570SOL    HW2 1281   3.160   0.841   2.072
 1571SOL     OW 1282   3.621   1.747   3.016
 1571SOL    HW1 1283   3.682   1.777   2.943
 1571SOL    HW2 1284   3.583   1.658   2.994
 1572SOL     OW 1285   3.114   1.731   2.990
 1572SOL    HW1 1286   3.198   1.736   2.936
 1572SOL    HW2 1287   3.091   1.635   3.008
 1573SOL     OW 1288   1.945   1.258   2.884
 1573SOL    HW1 1289   1.940   1.257   2.984
 1573SOL    HW2 1290   1.862   1.217   2.846
 1574SOL     OW 1291   2.550   1.662   3.578
 1574SOL    HW1 1292   2.494   1.743   3.587
 1574SOL    HW2 1293   2.602   1.666   3.492
 1576SOL     OW 1294   3.250   1.573   2.339
 1576SOL    HW1 1295   3.317   1.585   2.265
 1576SOL    HW2 1296   3.210   1.662   2.362
 1577SOL     OW 1297   1.992   1.794   3.713
 1577SOL    HW1 1298   1.951   1.720   3.766
 1577SOL    HW2 1299   2.056   1.845   3.771
 1578SOL     OW 1300   3.142   0.927   2.534
 1578SOL    HW1 1301   3.202   0.846   2.536
 1578SOL    HW2 1302   3.182   0.996   2.474
 1579SOL     OW 1303   2.692   1.273   3.284
 1579SOL    HW1 1304   2.687   1.306   3.379
 1579SOL    HW2 1305   2.606   1.292   3.238
 1580SOL     OW 1306   2.534   1.616   2.016
 1580SOL    HW1 1307   2.543   1.626   1.917
 1580SOL    HW2 1308   2.494   1.527   2.037
 1581SOL     OW 1309   3.512   1.720   3.256
 1581SOL    HW1 1310   3.565   1.730   3.172
 1581SOL    HW2 1311   3.485   1.810   3.290
 1584SOL     OW 1312   3.056   1.612   1.893
 1584SOL    HW1 1313   3.062   1.519   1.930
 1584SOL    HW2 1314   2.997   1.612   1.813
 1585SOL     OW 1315   2.684   1.002   3.234
 1585SOL    HW1 1316   2.724   1.001   3.142
 1585SOL    HW2 1317   2.694   1.094   3.274
 1586SOL     OW 1318   2.778   0.910   2.153
 1586SOL    HW1 1319   2.841   0.948   2.085
 1586SOL    HW2 1320   2.818   0.827   2.192
 1587SOL     OW 1321   3.366   1.607   1.906
 1587SOL    HW1 1322   3.274   1.644   1.913
 1587SOL    HW2 1323   3.404   1.627   1.816
 1588SOL     OW 1324   2.234   1.288   3.352
 1588SOL    HW1 1325   2.221   1.381   3.318
 1588SOL    HW2 1326   2.150   1.236   3.339
 1590SOL     OW 1327   2.901   1.098   2.558
 1590SOL    HW1 1328   2.831   1.051   2.612
 1590SOL    HW2 1329   2.960   1.030   2.515
 1592SOL     OW 1330   2.452   1.487   2.353
 1592SOL    HW1 1331   2.494   1.429   2.283
 1592SOL    HW2 1332   2.408   1.566   2.309
 1594SOL     OW 1333   2.117   1.348   2.152
 1594SOL    HW1 1334   2.021   1.349   2.125
 1594SOL    HW2 1335   2.129   1.401   2.236
 1600SOL     OW 1336   3.045   1.335   1.981
 1600SOL    HW1 1337   2.946   1.324   1.983
 1600SOL    HW2 1338   3.079   1.350   2.074
 1601SOL     OW 1339   2.475   0.842   3.293
 1601SOL    HW1 1340   2.531   0.923   3.276
 1601SOL    HW2 1341   2.534   0.762   3.296
 1602SOL     OW 1342   3.355   1.767   2.821
 1602SOL    HW1 1343   3.388   1.831   2.752
 1602SOL    HW2 1344   3.421   1.761   2.896
 1605SOL     OW 1345   2.252   1.741   3.422
 1605SOL    HW1 1346   2.161   1.782   3.420
 1605SOL    HW2 1347   2.245   1.647   3.454
 1608SOL     OW 1348   2.456   0.745   2.514
 1608SOL    HW1 1349   2.506   0.830   2.495
 1608SOL    HW2 1350   2.368   0.747   2.466
 1611SOL     OW 1351   2.721   1.374   1.878
 1611SOL    HW1 1352   2.675   1.389   1.966
 1611SOL    HW2 1353   2.765   1.459   1.848
 1612SOL     OW 1354   2.523   1.790   2.815
 1612SOL    HW1 1355   2.477   1.878   2.802
 1612SOL    HW2 1356   2.622   1.802   2.808
 1613SOL     OW 1357   2.721   0.956   2.723
 1613SOL    HW1 1358   2.775   0.887   2.771
 1613SOL    HW2 1359   2.689   1.025   2.789
 1614SOL     OW 1360   2.945   0.984   1.949
 1614SOL    HW1 1361   2.922   1.037   1.867
 1614SOL    HW2 1362   3.026   0.928   1.930
 1615SOL     OW 1363   3.723   1.569   2.713
 1615SOL    HW1 1364   3.652   1.557   2.643
 1615SOL    HW2 1365   3.724   1.490   2.773
 1616SOL     OW 1366   2.083   1.314   3.706
 1616SOL    HW1 1367   2.018   1.241   3.685
 1616SOL    HW2 1368   2.087   1.328   3.804
 1617SOL     OW 1369   1.941   1.240   2.515
 1617SOL    HW1 1370   1.940   1.193   2.603
 1617SOL    HW2 1371   2.023   1.212   2.464
 1618SOL     OW 1372   2.534   1.391   3.486
 1618SOL    HW1 1373   2.456   1.341   3.524
 1618SOL    HW2 1374   2.531   1.486   3.517
 1621SOL     OW 1375   3.567   1.487   2.966
 1621SOL    HW1 1376   3.474   1.462   2.939
 1621SOL    HW2 1377   3.593   1.437   3.048
 1623SOL     OW 1378   2.674   1.586   2.549
 1623SOL    HW1 1379   2.706   1.596   2.455
 1623SOL    HW2 1380   2.595   1.524   2.551
 1626SOL     OW 1381   2.632   1.330   2.163
 1626SOL    HW1 1382   2.586   1.243   2.180
 1626SOL    HW2 1383   2.723   1.327   2.204
 1627SOL     OW 1384   2.480   1.567   3.146
 1627SOL    HW1 1385   2.475   1.649   3.203
 1627SOL    HW2 1386   2.569   1.564   3.101
 1631SOL     OW 1387   1.901   1.077   2.162
 1631SOL    HW1 1388   2.000   1.066   2.153
 1631SOL    HW2 1389   1.861   0.991   2.194
 1632SOL     OW 1390   2.737   1.646   2.199
 1632SOL    HW1 1391   2.660   1.611   2.145
 1632SOL    HW2 1392   2.705   1.717   2.261
 1641SOL     OW 1393   1.889   1.596   3.841
 1641SOL    HW1 1394   1.870   1.500   3.862
 1641SOL    HW2 1395   1.856   1.654   3.916
 1692SOL     OW 1396   2.534   1.616   3.878
 1692SOL    HW1 1397   2.543   1.626   3.779
 1692SOL    HW2 1398   2.494   1.527   3.899
 1715SOL     OW 1399   2.087   2.137   0.996
 1715SOL    HW1 1400   2.122   2.120   1.088
 1715SOL    HW2 1401   1.999   2.092   0.984
 1716SOL     OW 1402   1.881   2.230   0.647
 1716SOL    HW1 1403   1.799   2.273   0.686
 1716SOL    HW2 1404   1.853   2.157   0.584
 1717SOL     OW 1405   2.431   3.137   1.165
 1717SOL    HW1 1406   2.338   3.130   1.128
 1717SOL    HW2 1407   2.442   3.226   1.209
 1719SOL     OW 1408   2.997   2.565   0.717
 1719SOL    HW1 1409   3.054   2.643   0.692
 1719SOL    HW2 1410   2.937   2.591   0.793
 1721SOL     OW 1411   2.630   3.006   1.023
 1721SOL    HW1 1412   2.552   3.023   1.083
 1721SOL    HW2 1413   2.664   3.093   0.987
 1722SOL     OW 1414   2.712   2.660   1.823
 1722SOL    HW1 1415   2.708   2.736   1.888
 1722SOL    HW2 1416   2.734   2.696   1.732
 1723SOL     OW 1417   2.547   2.874   0.665
 1723SOL    HW1 1418   2.616   2.858   0.735
 1723SOL    HW2 1419   2.474   2.931   0.703
 1724SOL     OW 1420   2.548   3.023   1.803
 1724SOL    HW1 1421   2.608   3.102   1.817
 1724SOL    HW2 1422   2.462   3.054   1.762
 1725SOL     OW 1423   2.197   3.297   1.061
 1725SOL    HW1 1424   2.119   3.266   1.008
 1725SOL    HW2 1425   2.255   3.355   1.004
 1727SOL     OW 1426   2.300   2.254   1.499
 1727SOL    HW1 1427   2.382   2.198   1.508
 1727SOL    HW2 1428   2.219   2.196   1.503
 1730SOL     OW 1429   2.989   3.203   1.690
 1730SOL    HW1 1430   3.036   3.203   1.778
 1730SOL    HW2 1431   2.941   3.116   1.679
 1732SOL     OW 1432   2.102   2.953   0.886
 1732SOL    HW1 1433   2.116   2.869   0.938
 1732SOL    HW2 1434   2.047   3.017   0.941
 1733SOL     OW 1435   2.482   3.648   1.439
 1733SOL    HW1 1436   2.390   3.631   1.474
 1733SOL    HW2 1437   2.510   3.740   1.465
 1735SOL     OW 1438   3.456   1.976   1.480
 1735SOL    HW1 1439   3.438   2.043   1.408
 1735SOL    HW2 1440   3.453   2.022   1.569
 1736SOL     OW 1441   1.984   2.505   0.563
 1736SOL    HW1 1442   1.939   2.417   0.580
 1736SOL    HW2 1443   1.983   2.559   0.647
 1741SOL     OW 1444   1.975   2.599   1.597
 1741SOL    HW1 1445   2.063   2.586   1.642
 1741SOL    HW2 1446   1.962   2.696   1.575
 1743SOL     OW 1447   3.155   3.090   1.423
 1743SOL    HW1 1448   3.192   3.017   1.365
 1743SOL    HW2 1449   3.207   3.095   1.508
 1745SOL     OW 1450   2.059   2.838   1.264
 1745SOL    HW1 1451   2.148   2.793   1.250
 1745SOL    HW2 1452   1.986   2.773   1.245
 1747SOL     OW 1453   3.049   3.654   1.616
 1747SOL    HW1 1454   3.073   3.714   1.540
 1747SOL    HW2 1455   3.056   3.559   1.586
 1748SOL     OW 1456   2.179   2.113   1.801
 1748SOL    HW1 1457   2.250   2.184   1.807
 1748SOL    HW2 1458   2.091   2.152   1.829
 1752SOL     OW 1459   3.143   2.207   0.944
 1752SOL    HW1 1460   3.057   2.157   0.931
 1752SOL    HW2 1461   3.205   2.153   1.000
 1754SOL     OW 1462   2.669   2.467   1.465
 1754SOL    HW1 1463   2.622   2.464   1.554
 1754SOL    HW2 1464   2.618   2.412   1.399
 1755SOL     OW 1465   3.256   2.331   1.674
 1755SOL    HW1 1466   3.236   2.374   1.762
 1755SOL    HW2 1467   3.334   2.269   1.683
 1756SOL     OW 1468   2.835   2.752   1.572
 1756SOL    HW1 1469   2.881   2.668   1.543
 1756SOL    HW2 1470   2.779   2.786   1.497
 1757SOL     OW 1471   2.853   2.272   1.242
 1757SOL    HW1 1472   2.776   2.306   1.296
 1757SOL    HW2 1473   2.819   2.221   1.163
 1759SOL     OW 1474   1.938   2.673   0.789
 1759SOL    HW1 1475   2.037   2.661   0.798
 1759SOL    HW2 1476   1.914   2.768   0.810
 1760SOL     OW 1477   1.992   3.683   1.571
 1760SOL    HW1 1478   1.982   3.668   1.670
 1760SOL    HW2 1479   1.906   3.719   1.535
 1762SOL     OW 1480   3.581   2.447   1.831
 1762SOL    HW1 1481   3.555   2.536   1.795
 1762SOL    HW2 1482   3.579   2.379   1.758
 1764SOL     OW 1483   2.412   2.058   0.885
 1764SOL    HW1 1484   2.407   2.053   0.985
 1764SOL    HW2 1485   2.414   2.154   0.856
 1768SOL     OW 1486   3.089   3.412   1.506
 1768SOL    HW1 1487   3.095   3.335   1.570
 1768SOL    HW2 1488   3.037   3.386   1.426
 1771SOL     OW 1489   2.323   3.128   1.727
 1771SOL    HW1 1490   2.273   3.129   1.641
 1771SOL    HW2 1491   2.260   3.110   1.803
 1773SOL     OW 1492   2.064   2.147   1.498
 1773SOL    HW1 1493   1.984   2.207   1.485
 1773SOL    HW2 1494   2.054   2.098   1.584
 1777SOL     OW 1495   2.111   3.647   1.241
 1777SOL    HW1 1496   2.168   3.582   1.291
 1777SOL    HW2 1497   2.095   3.614   1.148
 1779SOL     OW 1498   2.244   2.562   0.480
 1779SOL    HW1 1499   2.289   2.472   0.477
 1779SOL    HW2 1500   2.150   2.551   0.513
 1780SOL     OW 1501   3.409   2.084   1.729
 1780SOL    HW1 1502   3.404   2.121   1.821
 1780SOL    HW2 1503   3.337   2.015   1.717
 1782SOL     OW 1504   2.643   2.126   1.749
 1782SOL    HW1 1505   2.710   2.065   1.792
 1782SOL    HW2 1506   2.570   2.145   1.814
 1783SOL     OW 1507   2.750   3.376   1.195
 1783SOL    HW1 1508   2.727   3.351   1.101
 1783SOL    HW2 1509   2.811   3.307   1.234
 1784SOL     OW 1510   3.213   2.452   1.433
 1784SOL    HW1 1511   3.241   2.409   1.518
 1784SOL    HW2 1512   3.238   2.548   1.434
 1785SOL     OW 1513   2.665   3.264   0.924
 1785SOL    HW1 1514   2.755   3.278   0.882
 1785SOL    HW2 1515   2.594   3.266   0.853
 1786SOL     OW 1516   2.784   2.365   0.899
 1786SOL    HW1 1517   2.759   2.356   0.803
 1786SOL    HW2 1518   2.832   2.283   0.930
 1787SOL     OW 1519   2.401   1.926   0.512
 1787SOL    HW1 1520   2.320   1.927   0.570
 1787SOL    HW2 1521   2.404   2.009   0.457
 1790SOL     OW 1522   2.938   2.545   1.464
 1790SOL    HW1 1523   2.858   2.484   1.467
 1790SOL    HW2 1524   3.019   2.492   1.440
 1792SOL     OW 1525   2.321   3.014   0.741
 1792SOL    HW1 1526   2.250   2.987   0.806
 1792SOL    HW2 1527   2.295   2.986   0.648
 1795SOL     OW 1528   1.940   2.418   1.386
 1795SOL    HW1 1529   2.032   2.417   1.345
 1795SOL    HW2 1530   1.934   2.492   1.453
 1796SOL     OW 1531   2.423   2.084   1.147
 1796SOL    HW1 1532   2.461   2.000   1.184
 1796SOL    HW2 1533   2.335   2.103   1.191
 1797SOL     OW 1534   2.728   2.316   0.642
 1797SOL    HW1 1535   2.696   2.388   0.580
 1797SOL    HW2 1536   2.752   2.235   0.589
 1798SOL     OW 1537   2.879   1.901   0.753
 1798SOL    HW1 1538   2.807   1.906   0.684
 1798SOL    HW2 1539   2.855   1.832   0.822
 1800SOL     OW 1540   3.328   2.452   0.992
 1800SOL    HW1 1541   3.298   2.357   0.999
 1800SOL    HW2 1542   3.401   2.468   1.058
 1806SOL     OW 1543   3.616   3.085   1.588
 1806SOL    HW1 1544   3.707   3.046   1.575
 1806SOL    HW2 1545   3.624   3.181   1.612
 1807SOL     OW 1546   2.926   3.209   1.340
 1807SOL    HW1 1547   2.846   3.186   1.395
 1807SOL    HW2 1548   3.009   3.183   1.389
 1809SOL     OW 1549   2.973   3.057   1.100
 1809SOL    HW1 1550   2.933   3.101   1.181
 1809SOL    HW2 1551   2.932   3.094   1.017
 1811SOL     OW 1552   2.777   1.951   1.402
 1811SOL    HW1 1553   2.802   1.931   1.307
 1811SOL    HW2 1554   2.849   2.007   1.444
 1812SOL     OW 1555   2.842   2.978   1.719
 1812SOL    HW1 1556   2.743   2.984   1.729
 1812SOL    HW2 1557   2.865   2.898   1.663
 1814SOL     OW 1558   2.272   2.675   1.251
 1814SOL    HW1 1559   2.358   2.687   1.301
 1814SOL    HW2 1560   2.230   2.588   1.278
 1815SOL     OW 1561   3.136   2.248   1.262
 1815SOL    HW1 1562   3.157   2.322   1.326
 1815SOL    HW2 1563   3.047   2.265   1.219
 1816SOL     OW 1564   1.926   3.426   1.331
 1816SOL    HW1 1565   1.880   3.508   1.297
 1816SOL    HW2 1566   2.024   3.445   1.340
 1818SOL     OW 1567   2.428   2.399   0.865
 1818SOL    HW1 1568   2.440   2.465   0.791
 1818SOL    HW2 1569   2.474   2.433   0.948
 1820SOL     OW 1570   3.134   3.307   1.142
 1820SOL    HW1 1571   3.181   3.320   1.229
 1820SOL    HW2 1572   3.068   3.233   1.151
 1822SOL     OW 1573   2.216   3.372   1.329
 1822SOL    HW1 1574   2.195   3.328   1.242
 1822SOL    HW2 1575   2.313   3.398   1.332
 1823SOL     OW 1576   2.264   2.613   1.598
 1823SOL    HW1 1577   2.332   2.668   1.551
 1823SOL    HW2 1578   2.304   2.525   1.625
 1824SOL     OW 1579   3.449   2.641   1.670
 1824SOL    HW1 1580   3.357   2.679   1.665
 1824SOL    HW2 1581   3.509   2.688   1.605
 1825SOL     OW 1582   2.875   1.967   1.770
 1825SOL    HW1 1583   2.881   2.052   1.718
 1825SOL    HW2 1584   2.907   1.891   1.713
 1826SOL     OW 1585   2.366   1.912   1.740
 1826SOL    HW1 1586   2.324   1.855   1.670
 1826SOL    HW2 1587   2.300   1.981   1.772
 1827SOL     OW 1588   2.435   2.732   1.029
 1827SOL    HW1 1589   2.479   2.821   1.020
 1827SOL    HW2 1590   2.372   2.732   1.106
 1828SOL     OW 1591   3.222   2.724   1.045
 1828SOL    HW1 1592   3.147   2.724   0.979
 1828SOL    HW2 1593   3.259   2.632   1.054
 1830SOL     OW 1594   2.169   2.075   1.231
 1830SOL    HW1 1595   2.146   2.112   1.321
 1830SOL    HW2 1596   2.139   1.980   1.225
 1831SOL     OW 1597   1.899   3.172   1.282
 1831SOL    HW1 1598   1.952   3.123   1.350
 1831SOL    HW2 1599   1.921   3.270   1.287
 1832SOL     OW 1600   2.594   2.496   1.064
 1832SOL    HW1 1601   2.653   2.470   0.988
 1832SOL    HW2 1602   2.566   2.592   1.053
 1833SOL     OW 1603   3.590   2.797   1.854
 1833SOL    HW1 1604   3.544   2.790   1.765
 1833SOL    HW2 1605   3.528   2.841   1.920
 1834SOL     OW 1606   2.169   1.925   0.618
 1834SOL    HW1 1607   2.158   2.019   0.651
 1834SOL    HW2 1608   2.164   1.862   0.695
 1836SOL     OW 1609   2.885   2.628   0.966
 1836SOL    HW1 1610   2.900   2.649   1.062
 1836SOL    HW2 1611   2.855   2.533   0.957
 1837SOL     OW 1612   2.842   3.435   1.700
 1837SOL    HW1 1613   2.822   3.479   1.612
 1837SOL    HW2 1614   2.881   3.344   1.684
 1839SOL     OW 1615   2.212   2.760   1.804
 1839SOL    HW1 1616   2.288   2.804   1.852
 1839SOL    HW2 1617   2.247   2.713   1.722
 1843SOL     OW 1618   2.181   2.672   0.949
 1843SOL    HW1 1619   2.274   2.708   0.954
 1843SOL    HW2 1620   2.175   2.587   1.001
 1844SOL     OW 1621   2.201   2.371   1.006
 1844SOL    HW1 1622   2.149   2.288   0.989
 1844SOL    HW2 1623   2.278   2.376   0.942
 1845SOL     OW 1624   3.000   2.242   1.678
 1845SOL    HW1 1625   2.955   2.305   1.742
 1845SOL    HW2 1626   3.093   2.273   1.661
 1846SOL     OW 1627   3.022   2.069   1.477
 1846SOL    HW1 1628   3.022   2.133   1.554
 1846SOL    HW2 1629   3.050   2.117   1.394
 1849SOL     OW 1630   2.366   3.430   0.910
 1849SOL    HW1 1631   2.432   3.504   0.919
 1849SOL    HW2 1632   2.410   3.351   0.868
 1850SOL     OW 1633   2.864   2.658   1.238
 1850SOL    HW1 1634   2.905   2.626   1.324
 1850SOL    HW2 1635   2.768   2.631   1.235
 1851SOL     OW 1636   1.902   2.406   1.114
 1851SOL    HW1 1637   1.987   2.373   1.073
 1851SOL    HW2 1638   1.915   2.421   1.212
 1852SOL     OW 1639   2.051   2.382   1.722
 1852SOL    HW1 1640   2.110   2.342   1.652
 1852SOL    HW2 1641   1.993   2.453   1.681
 1853SOL     OW 1642   3.231   2.812   1.660
 1853SOL    HW1 1643   3.270   2.901   1.680
 1853SOL    HW2 1644   3.241   2.792   1.563
 1855SOL     OW 1645   3.519   2.466   1.206
 1855SOL    HW1 1646   3.481   2.397   1.268
 1855SOL    HW2 1647   3.601   2.430   1.162
 1856SOL     OW 1648   2.114   3.426   1.744
 1856SOL    HW1 1649   2.084   3.483   1.820
 1856SOL    HW2 1650   2.107   3.329   1.770
 1857SOL     OW 1651   2.533   2.326   1.269
 1857SOL    HW1 1652   2.499   2.237   1.239
 1857SOL    HW2 1653   2.559   2.380   1.189
 1858SOL     OW 1654   2.792   3.540   1.465
 1858SOL    HW1 1655   2.768   3.522   1.370
 1858SOL    HW2 1656   2.822   3.634   1.475
 1860SOL     OW 1657   2.021   2.999   1.466
 1860SOL    HW1 1658   2.043   2.938   1.542
 1860SOL    HW2 1659   2.031   2.950   1.380
 1861SOL     OW 1660   3.209   2.921   1.234
 1861SOL    HW1 1661   3.233   2.858   1.160
 1861SOL    HW2 1662   3.119   2.961   1.216
 1865SOL     OW 1663   1.945   3.120   1.022
 1865SOL    HW1 1664   1.940   3.119   1.122
 1865SOL    HW2 1665   1.862   3.079   0.984
 1866SOL     OW 1666   2.550   3.524   1.716
 1866SOL    HW1 1667   2.494   3.605   1.725
 1866SOL    HW2 1668   2.602   3.528   1.630
 1870SOL     OW 1669   1.992   3.656   1.851
 1870SOL    HW1 1670   1.951   3.582   1.904
 1870SOL    HW2 1671   2.056   3.707   1.909
 1872SOL     OW 1672   2.692   3.135   1.422
 1872SOL    HW1 1673   2.687   3.168   1.517
 1872SOL    HW2 1674   2.606   3.154   1.376
 1876SOL     OW 1675   2.125   2.188   0.720
 1876SOL    HW1 1676   2.046   2.239   0.686
 1876SOL    HW2 1677   2.116   2.173   0.818
 1878SOL     OW 1678   2.684   2.864   1.372
 1878SOL    HW1 1679   2.724   2.863   1.280
 1878SOL    HW2 1680   2.694   2.956   1.412
 1881SOL     OW 1681   2.234   3.150   1.490
 1881SOL    HW1 1682   2.221   3.243   1.456
 1881SOL    HW2 1683   2.150   3.098   1.477
 1884SOL     OW 1684   2.876   2.098   0.971
 1884SOL    HW1 1685   2.868   2.062   0.878
 1884SOL    HW2 1686   2.874   2.022   1.036
 1886SOL     OW 1687   3.571   2.247   1.381
 1886SOL    HW1 1688   3.644   2.316   1.385
 1886SOL    HW2 1689   3.599   2.172   1.322
 1888SOL     OW 1690   1.967   2.875   1.726
 1888SOL    HW1 1691   1.890   2.842   1.780
 1888SOL    HW2 1692   2.052   2.845   1.768
 1889SOL     OW 1693   2.534   2.065   1.489
 1889SOL    HW1 1694   2.624   2.049   1.449
 1889SOL    HW2 1695   2.542   2.070   1.588
 1891SOL     OW 1696   3.302   2.718   1.398
 1891SOL    HW1 1697   3.245   2.770   1.335
 1891SOL    HW2 1698   3.398   2.730   1.374
 1893SOL     OW 1699   2.475   2.704   1.431
 1893SOL    HW1 1700   2.531   2.785   1.414
 1893SOL    HW2 1701   2.534   2.624   1.434
 1895SOL     OW 1702   2.578   2.427   1.708
 1895SOL    HW1 1703   2.597   2.492   1.782
 1895SOL    HW2 1704   2.638   2.347   1.717
 1896SOL     OW 1705   3.312   3.082   1.633
 1896SOL    HW1 1706   3.303   3.072   1.732
 1896SOL    HW2 1707   3.408   3.075   1.607
 1897SOL     OW 1708   2.252   3.603   1.560
 1897SOL    HW1 1709   2.161   3.644   1.558
 1897SOL    HW2 1710   2.245   3.509   1.592
 1898SOL     OW 1711   3.536   2.745   1.254
 1898SOL    HW1 1712   3.509   2.656   1.217
 1898SOL    HW2 1713   3.537   2.813   1.181
 1900SOL     OW 1714   2.456   2.607   0.652
 1900SOL    HW1 1715   2.506   2.692   0.633
 1900SOL    HW2 1716   2.368   2.609   0.604
 1901SOL     OW 1717   3.639   2.204   1.642
 1901SOL    HW1 1718   3.622   2.235   1.548
 1901SOL    HW2 1719   3.555   2.167   1.680
 1902SOL     OW 1720   3.592   2.796   1.517
 1902SOL    HW1 1721   3.630   2.887   1.532
 1902SOL    HW2 1722   3.584   2.779   1.418
 1905SOL     OW 1723   2.721   2.818   0.861
 1905SOL    HW1 1724   2.775   2.749   0.909
 1905SOL    HW2 1725   2.689   2.887   0.927
 1908SOL     OW 1726   2.083   3.176   1.844
 1908SOL    HW1 1727   2.018   3.103   1.823
 1908SOL    HW2 1728   2.087   3.190   1.942
 1910SOL     OW 1729   2.534   3.253   1.624
 1910SOL    HW1 1730   2.456   3.203   1.662
 1910SOL    HW2 1731   2.531   3.348   1.655
 1911SOL     OW 1732   3.686   2.054   1.227
 1911SOL    HW1 1733   3.682   1.964   1.271
 1911SOL    HW2 1734   3.689   2.043   1.128
 1912SOL     OW 1735   2.290   2.286   0.520
 1912SOL    HW1 1736   2.320   2.214   0.458
 1912SOL    HW2 1737   2.251   2.246   0.603
 1914SOL     OW 1738   2.179   2.409   1.280
 1914SOL    HW1 1739   2.217   2.350   1.352
 1914SOL    HW2 1740   2.219   2.383   1.192
 1916SOL     OW 1741   3.286   2.076   1.112
 1916SOL    HW1 1742   3.338   2.011   1.167
 1916SOL    HW2 1743   3.237   2.139   1.173
 1917SOL     OW 1744   2.863   1.896   1.154
 1917SOL    HW1 1745   2.800   1.824   1.123
 1917SOL    HW2 1746   2.956   1.860   1.154
 1919SOL     OW 1747   2.480   3.429   1.284
 1919SOL    HW1 1748   2.475   3.511   1.341
 1919SOL    HW2 1749   2.569   3.426   1.239
 1921SOL     OW 1750   3.162   2.315   0.691
 1921SOL    HW1 1751   3.103   2.395   0.695
 1921SOL    HW2 1752   3.177   2.280   0.784
 1925SOL     OW 1753   2.092   2.490   1.975
 1925SOL    HW1 1754   1.999   2.488   2.012
 1925SOL    HW2 1755   2.093   2.451   1.883
 1926SOL     OW 1756   2.087   2.137   2.858
 1926SOL    HW1 1757   2.122   2.120   2.950
 1926SOL    HW2 1758   1.999   2.092   2.846
 1927SOL     OW 1759   1.881   2.230   2.509
 1927SOL    HW1 1760   1.799   2.273   2.548
 1927SOL    HW2 1761   1.853   2.157   2.446
 1928SOL     OW 1762   2.431   3.137   3.027
 1928SOL    HW1 1763   2.338   3.130   2.990
 1928SOL    HW2 1764   2.442   3.226   3.071
 1929SOL     OW 1765   3.417   3.373   2.565
 1929SOL    HW1 1766   3.360   3.357   2.646
 1929SOL    HW2 1767   3.358   3.383   2.485
 1930SOL     OW 1768   2.997   2.565   2.579
 1930SOL    HW1 1769   3.054   2.643   2.554
 1930SOL    HW2 1770   2.937   2.591   2.655
 1931SOL     OW 1771   3.617   2.469   2.093
 1931SOL    HW1 1772   3.605   2.456   1.994
 1931SOL    HW2 1773   3.587   2.388   2.142
 1932SOL     OW 1774   2.630   3.006   2.885
 1932SOL    HW1 1775   2.552   3.023   2.945
 1932SOL    HW2 1776   2.664   3.093   2.849
 1933SOL     OW 1777   2.712   2.660   3.685
 1933SOL    HW1 1778   2.708   2.736   3.750
 1933SOL    HW2 1779   2.734   2.696   3.594
 1934SOL     OW 1780   2.547   2.874   2.527
 1934SOL    HW1 1781   2.616   2.858   2.597
 1934SOL    HW2 1782   2.474   2.931   2.565
 1935SOL     OW 1783   2.548   3.023   3.665
 1935SOL    HW1 1784   2.608   3.102   3.679
 1935SOL    HW2 1785   2.462   3.054   3.624
 1936SOL     OW 1786   2.197   3.297   2.923
 1936SOL    HW1 1787   2.119   3.266   2.870
 1936SOL    HW2 1788   2.255   3.355   2.866
 1938SOL     OW 1789   2.300   2.254   3.361
 1938SOL    HW1 1790   2.382   2.198   3.370
 1938SOL    HW2 1791   2.219   2.196   3.365
 1939SOL     OW 1792   3.465   2.309   2.599
 1939SOL    HW1 1793   3.391   2.355   2.549
 1939SOL    HW2 1794   3.516   2.377   2.652
 1940SOL     OW 1795   2.093   3.575   2.345
 1940SOL    HW1 1796   2.127   3.652   2.399
 1940SOL    HW2 1797   2.137   3.575   2.255
 1942SOL     OW 1798   2.092   3.296   2.400
 1942SOL    HW1 1799   2.066   3.392   2.400
 1942SOL    HW2 1800   2.021   3.242   2.445
 1943SOL     OW 1801   2.102   2.953   2.748
 1943SOL    HW1 1802   2.116   2.869   2.800
 1943SOL    HW2 1803   2.047   3.017   2.803
 1945SOL     OW 1804   2.468   2.826   1.985
 1945SOL    HW1 1805   2.475   2.910   1.931
 1945SOL    HW2 1806   2.514   2.839   2.073
 1946SOL     OW 1807   3.456   1.976   3.342
 1946SOL    HW1 1808   3.438   2.043   3.270
 1946SOL    HW2 1809   3.453   2.022   3.431
 1947SOL     OW 1810   1.984   2.505   2.425
 1947SOL    HW1 1811   1.939   2.417   2.442
 1947SOL    HW2 1812   1.983   2.559   2.509
 1949SOL     OW 1813   1.889   3.458   1.979
 1949SOL    HW1 1814   1.870   3.362   2.000
 1949SOL    HW2 1815   1.856   3.516   2.054
 1950SOL     OW 1816   3.551   2.784   2.474
 1950SOL    HW1 1817   3.646   2.755   2.482
 1950SOL    HW2 1818   3.543   2.849   2.399
 1951SOL     OW 1819   3.503   2.970   2.294
 1951SOL    HW1 1820   3.589   2.972   2.242
 1951SOL    HW2 1821   3.517   3.017   2.382
 1952SOL     OW 1822   1.975   2.599   3.459
 1952SOL    HW1 1823   2.063   2.586   3.504
 1952SOL    HW2 1824   1.962   2.696   3.437
 1953SOL     OW 1825   2.475   3.227   2.588
 1953SOL    HW1 1826   2.426   3.140   2.597
 1953SOL    HW2 1827   2.452   3.270   2.501
 1954SOL     OW 1828   3.155   3.090   3.285
 1954SOL    HW1 1829   3.192   3.017   3.227
 1954SOL    HW2 1830   3.207   3.095   3.370
 1955SOL     OW 1831   2.671   1.866   2.364
 1955SOL    HW1 1832   2.711   1.957   2.355
 1955SOL    HW2 1833   2.571   1.874   2.370
 1956SOL     OW 1834   2.059   2.838   3.126
 1956SOL    HW1 1835   2.148   2.793   3.112
 1956SOL    HW2 1836   1.986   2.773   3.107
 1957SOL     OW 1837   3.387   2.861   2.052
 1957SOL    HW1 1838   3.324   2.785   2.065
 1957SOL    HW2 1839   3.435   2.879   2.138
 1959SOL     OW 1840   2.179   2.113   3.663
 1959SOL    HW1 1841   2.250   2.184   3.669
 1959SOL    HW2 1842   2.091   2.152   3.691
 1960SOL     OW 1843   3.328   3.279   2.815
 1960SOL    HW1 1844   3.269   3.285   2.895
 1960SOL    HW2 1845   3.313   3.191   2.769
 1962SOL     OW 1846   2.460   2.591   2.132
 1962SOL    HW1 1847   2.484   2.660   2.064
 1962SOL    HW2 1848   2.382   2.624   2.186
 1963SOL     OW 1849   3.143   2.207   2.806
 1963SOL    HW1 1850   3.057   2.157   2.793
 1963SOL    HW2 1851   3.205   2.153   2.862
 1964SOL     OW 1852   3.438   3.524   2.169
 1964SOL    HW1 1853   3.527   3.570   2.172
 1964SOL    HW2 1854   3.417   3.500   2.074
 1965SOL     OW 1855   2.669   2.467   3.327
 1965SOL    HW1 1856   2.622   2.464   3.416
 1965SOL    HW2 1857   2.618   2.412   3.261
 1966SOL     OW 1858   3.256   2.331   3.536
 1966SOL    HW1 1859   3.236   2.374   3.624
 1966SOL    HW2 1860   3.334   2.269   3.545
 1967SOL     OW 1861   2.835   2.752   3.434
 1967SOL    HW1 1862   2.881   2.668   3.405
 1967SOL    HW2 1863   2.779   2.786   3.359
 1968SOL     OW 1864   2.853   2.272   3.104
 1968SOL    HW1 1865   2.776   2.306   3.158
 1968SOL    HW2 1866   2.819   2.221   3.025
 1969SOL     OW 1867   2.903   2.563   2.291
 1969SOL    HW1 1868   2.929   2.559   2.387
 1969SOL    HW2 1869   2.818   2.512   2.277
 1970SOL     OW 1870   1.938   2.673   2.651
 1970SOL    HW1 1871   2.037   2.661   2.660
 1970SOL    HW2 1872   1.914   2.768   2.672
 1972SOL     OW 1873   2.727   2.210   2.057
 1972SOL    HW1 1874   2.786   2.273   2.008
 1972SOL    HW2 1875   2.746   2.116   2.028
 1974SOL     OW 1876   3.224   3.006   2.407
 1974SOL    HW1 1877   3.307   2.977   2.359
 1974SOL    HW2 1878   3.175   3.073   2.351
 1975SOL     OW 1879   2.412   2.058   2.747
 1975SOL    HW1 1880   2.407   2.053   2.847
 1975SOL    HW2 1881   2.414   2.154   2.718
 1976SOL     OW 1882   2.870   3.318   2.339
 1976SOL    HW1 1883   2.824   3.390   2.287
 1976SOL    HW2 1884   2.866   3.338   2.437
 1977SOL     OW 1885   2.213   3.663   2.715
 1977SOL    HW1 1886   2.263   3.577   2.721
 1977SOL    HW2 1887   2.278   3.740   2.712
 1978SOL     OW 1888   3.657   2.928   2.735
 1978SOL    HW1 1889   3.595   2.913   2.659
 1978SOL    HW2 1890   3.605   2.939   2.820
 1980SOL     OW 1891   2.183   2.805   2.104
 1980SOL    HW1 1892   2.265   2.844   2.062
 1980SOL    HW2 1893   2.156   2.723   2.055
 1981SOL     OW 1894   3.320   2.597   2.590
 1981SOL    HW1 1895   3.315   2.532   2.665
 1981SOL    HW2 1896   3.400   2.656   2.603
 1982SOL     OW 1897   2.323   3.128   3.589
 1982SOL    HW1 1898   2.273   3.129   3.503
 1982SOL    HW2 1899   2.260   3.110   3.665
 1983SOL     OW 1900   2.973   3.638   2.099
 1983SOL    HW1 1901   2.913   3.576   2.149
 1983SOL    HW2 1902   3.004   3.594   2.014
 1984SOL     OW 1903   2.064   2.147   3.360
 1984SOL    HW1 1904   1.984   2.207   3.347
 1984SOL    HW2 1905   2.054   2.098   3.446
 1985SOL     OW 1906   3.494   3.239   1.943
 1985SOL    HW1 1907   3.462   3.333   1.933
 1985SOL    HW2 1908   3.418   3.176   1.931
 1986SOL     OW 1909   2.326   3.605   2.185
 1986SOL    HW1 1910   2.359   3.644   2.271
 1986SOL    HW2 1911   2.402   3.598   2.120
 1987SOL     OW 1912   3.262   1.969   2.288
 1987SOL    HW1 1913   3.238   1.932   2.198
 1987SOL    HW2 1914   3.361   1.985   2.292
 1988SOL     OW 1915   2.111   3.647   3.103
 1988SOL    HW1 1916   2.168   3.582   3.153
 1988SOL    HW2 1917   2.095   3.614   3.010
 1989SOL     OW 1918   2.802   3.560   2.766
 1989SOL    HW1 1919   2.882   3.503   2.787
 1989SOL    HW2 1920   2.753   3.520   2.689
 1990SOL     OW 1921   2.244   2.562   2.342
 1990SOL    HW1 1922   2.289   2.472   2.339
 1990SOL    HW2 1923   2.150   2.551   2.375
 1992SOL     OW 1924   2.476   1.984   1.979
 1992SOL    HW1 1925   2.574   1.962   1.986
 1992SOL    HW2 1926   2.445   1.967   1.886
 1993SOL     OW 1927   2.643   2.126   3.611
 1993SOL    HW1 1928   2.710   2.065   3.654
 1993SOL    HW2 1929   2.570   2.145   3.676
 1994SOL     OW 1930   2.750   3.376   3.057
 1994SOL    HW1 1931   2.727   3.351   2.963
 1994SOL    HW2 1932   2.811   3.307   3.096
 1995SOL     OW 1933   3.213   2.452   3.295
 1995SOL    HW1 1934   3.241   2.409   3.380
 1995SOL    HW2 1935   3.238   2.548   3.296
 1996SOL     OW 1936   2.665   3.264   2.786
 1996SOL    HW1 1937   2.755   3.278   2.744
 1996SOL    HW2 1938   2.594   3.266   2.715
 1997SOL     OW 1939   2.784   2.365   2.761
 1997SOL    HW1 1940   2.759   2.356   2.665
 1997SOL    HW2 1941   2.832   2.283   2.792
 1998SOL     OW 1942   3.296   3.050   1.903
 1998SOL    HW1 1943   3.328   2.974   1.960
 1998SOL    HW2 1944   3.204   3.077   1.933
 1999SOL     OW 1945   2.159   1.897   2.033
 1999SOL    HW1 1946   2.208   1.981   2.012
 1999SOL    HW2 1947   2.221   1.832   2.078
 2000SOL     OW 1948   2.797   2.098   2.342
 2000SOL    HW1 1949   2.749   2.139   2.264
 2000SOL    HW2 1950   2.896   2.096   2.323
 2001SOL     OW 1951   2.938   2.545   3.326
 2001SOL    HW1 1952   2.858   2.484   3.329
 2001SOL    HW2 1953   3.019   2.492   3.302
 2002SOL     OW 1954   3.089   3.432   2.655
 2002SOL    HW1 1955   3.110   3.506   2.590
 2002SOL    HW2 1956   3.157   3.432   2.728
 2003SOL     OW 1957   2.321   3.014   2.603
 2003SOL    HW1 1958   2.250   2.987   2.668
 2003SOL    HW2 1959   2.295   2.986   2.510
 2004SOL     OW 1960   3.133   3.659   2.453
 2004SOL    HW1 1961   3.177   3.723   2.389
 2004SOL    HW2 1962   3.083   3.711   2.523
 2005SOL     OW 1963   2.894   2.411   1.878
 2005SOL    HW1 1964   2.853   2.493   1.839
 2005SOL    HW2 1965   2.958   2.437   1.951
 2006SOL     OW 1966   1.940   2.418   3.248
 2006SOL    HW1 1967   2.032   2.417   3.207
 2006SOL    HW2 1968   1.934   2.492   3.315
 2007SOL     OW 1969   2.423   2.084   3.009
 2007SOL    HW1 1970   2.461   2.000   3.046
 2007SOL    HW2 1971   2.335   2.103   3.053
 2008SOL     OW 1972   2.728   2.316   2.504
 2008SOL    HW1 1973   2.696   2.388   2.442
 2008SOL    HW2 1974   2.752   2.235   2.451
 2009SOL     OW 1975   2.879   1.901   2.615
 2009SOL    HW1 1976   2.807   1.906   2.546
 2009SOL    HW2 1977   2.855   1.832   2.684
 2010SOL     OW 1978   3.291   3.035   2.729
 2010SOL    HW1 1979   3.236   2.951   2.722
 2010SOL    HW2 1980   3.317   3.064   2.637
 2011SOL     OW 1981   3.328   2.452   2.854
 2011SOL    HW1 1982   3.298   2.357   2.861
 2011SOL    HW2 1983   3.401   2.468   2.920
 2012SOL     OW 1984   3.719   2.695   2.239
 2012SOL    HW1 1985   3.761   2.631   2.303
 2012SOL    HW2 1986   3.681   2.644   2.161
 2013SOL     OW 1987   2.350   3.247   2.036
 2013SOL    HW1 1988   2.263   3.232   2.083
 2013SOL    HW2 1989   2.333   3.273   1.941
 2014SOL     OW 1990   3.526   3.142   2.519
 2014SOL    HW1 1991   3.625   3.150   2.533
 2014SOL    HW2 1992   3.481   3.226   2.550
 2015SOL     OW 1993   3.252   2.437   1.940
 2015SOL    HW1 1994   3.198   2.416   2.021
 2015SOL    HW2 1995   3.343   2.396   1.949
 2017SOL     OW 1996   2.926   3.209   3.202
 2017SOL    HW1 1997   2.846   3.186   3.257
 2017SOL    HW2 1998   3.009   3.183   3.251
 2019SOL     OW 1999   2.973   3.057   2.962
 2019SOL    HW1 2000   2.933   3.101   3.043
 2019SOL    HW2 2001   2.932   3.094   2.879
 2020SOL     OW 2002   3.500   2.961   2.941
 2020SOL    HW1 2003   3.505   3.042   3.000
 2020SOL    HW2 2004   3.414   2.963   2.890
 2021SOL     OW 2005   2.777   1.951   3.264
 2021SOL    HW1 2006   2.802   1.931   3.169
 2021SOL    HW2 2007   2.849   2.007   3.306
 2022SOL     OW 2008   2.842   2.978   3.581
 2022SOL    HW1 2009   2.743   2.984   3.591
 2022SOL    HW2 2010   2.865   2.898   3.525
 2023SOL     OW 2011   2.567   2.912   2.230
 2023SOL    HW1 2012   2.553   2.919   2.329
 2023SOL    HW2 2013   2.651   2.861   2.212
 2024SOL     OW 2014   2.272   2.675   3.113
 2024SOL    HW1 2015   2.358   2.687   3.163
 2024SOL    HW2 2016   2.230   2.588   3.140
 2025SOL     OW 2017   3.136   2.248   3.124
 2025SOL    HW1 2018   3.157   2.322   3.188
 2025SOL    HW2 2019   3.047   2.265   3.081
 2026SOL     OW 2020   1.926   3.426   3.193
 2026SOL    HW1 2021   1.880   3.508   3.159
 2026SOL    HW2 2022   2.024   3.445   3.202
 2027SOL     OW 2023   2.229   2.962   2.363
 2027SOL    HW1 2024   2.222   3.045   2.307
 2027SOL    HW2 2025   2.233   2.882   2.303
 2028SOL     OW 2026   2.428   2.399   2.727
 2028SOL    HW1 2027   2.440   2.465   2.653
 2028SOL    HW2 2028   2.474   2.433   2.810
 2029SOL     OW 2029   3.114   3.210   2.250
 2029SOL    HW1 2030   3.164   3.287   2.290
 2029SOL    HW2 2031   3.019   3.212   2.282
 2030SOL     OW 2032   3.134   3.307   3.004
 2030SOL    HW1 2033   3.181   3.320   3.091
 2030SOL    HW2 2034   3.068   3.233   3.013
 2031SOL     OW 2035   3.444   2.501   2.334
 2031SOL    HW1 2036   3.413   2.562   2.407
 2031SOL    HW2 2037   3.494   2.553   2.265
 2032SOL     OW 2038   2.216   3.372   3.191
 2032SOL    HW1 2039   2.195   3.328   3.104
 2032SOL    HW2 2040   2.313   3.398   3.194
 2033SOL     OW 2041   2.264   2.613   3.460
 2033SOL    HW1 2042   2.332   2.668   3.413
 2033SOL    HW2 2043   2.304   2.525   3.487
 2035SOL     OW 2044   2.875   1.967   3.632
 2035SOL    HW1 2045   2.881   2.052   3.580
 2035SOL    HW2 2046   2.907   1.891   3.575
 2036SOL     OW 2047   2.366   1.912   3.602
 2036SOL    HW1 2048   2.324   1.855   3.532
 2036SOL    HW2 2049   2.300   1.981   3.634
 2037SOL     OW 2050   2.435   2.732   2.891
 2037SOL    HW1 2051   2.479   2.821   2.882
 2037SOL    HW2 2052   2.372   2.732   2.968
 2038SOL     OW 2053   3.222   2.724   2.907
 2038SOL    HW1 2054   3.147   2.724   2.841
 2038SOL    HW2 2055   3.259   2.632   2.916
 2039SOL     OW 2056   3.071   2.387   2.137
 2039SOL    HW1 2057   3.084   2.303   2.191
 2039SOL    HW2 2058   3.042   2.461   2.197
 2040SOL     OW 2059   2.169   2.075   3.093
 2040SOL    HW1 2060   2.146   2.112   3.183
 2040SOL    HW2 2061   2.139   1.980   3.087
 2041SOL     OW 2062   1.899   3.172   3.144
 2041SOL    HW1 2063   1.952   3.123   3.212
 2041SOL    HW2 2064   1.921   3.270   3.149
 2042SOL     OW 2065   2.594   2.496   2.926
 2042SOL    HW1 2066   2.653   2.470   2.850
 2042SOL    HW2 2067   2.566   2.592   2.915
 2044SOL     OW 2068   2.169   1.925   2.480
 2044SOL    HW1 2069   2.158   2.019   2.513
 2044SOL    HW2 2070   2.164   1.862   2.557
 2045SOL     OW 2071   3.484   2.229   2.236
 2045SOL    HW1 2072   3.486   2.153   2.300
 2045SOL    HW2 2073   3.436   2.306   2.276
 2046SOL     OW 2074   2.885   2.628   2.828
 2046SOL    HW1 2075   2.900   2.649   2.924
 2046SOL    HW2 2076   2.855   2.533   2.819
 2049SOL     OW 2077   2.212   2.760   3.666
 2049SOL    HW1 2078   2.288   2.804   3.714
 2049SOL    HW2 2079   2.247   2.713   3.584
 2050SOL     OW 2080   3.402   2.136   1.987
 2050SOL    HW1 2081   3.341   2.061   2.010
 2050SOL    HW2 2082   3.424   2.188   2.070
 2051SOL     OW 2083   3.165   2.700   1.904
 2051SOL    HW1 2084   3.199   2.607   1.919
 2051SOL    HW2 2085   3.183   2.727   1.809
 2052SOL     OW 2086   2.930   3.195   2.711
 2052SOL    HW1 2087   2.937   3.111   2.656
 2052SOL    HW2 2088   2.992   3.264   2.675
 2053SOL     OW 2089   2.181   2.672   2.811
 2053SOL    HW1 2090   2.274   2.708   2.816
 2053SOL    HW2 2091   2.175   2.587   2.863
 2054SOL     OW 2092   2.201   2.371   2.868
 2054SOL    HW1 2093   2.149   2.288   2.851
 2054SOL    HW2 2094   2.278   2.376   2.804
 2055SOL     OW 2095   3.000   2.242   3.540
 2055SOL    HW1 2096   2.955   2.305   3.604
 2055SOL    HW2 2097   3.093   2.273   3.523
 2056SOL     OW 2098   3.022   2.069   3.339
 2056SOL    HW1 2099   3.022   2.133   3.416
 2056SOL    HW2 2100   3.050   2.117   3.256
 2057SOL     OW 2101   1.870   3.188   2.062
 2057SOL    HW1 2102   1.777   3.209   2.031
 2057SOL    HW2 2103   1.880   3.089   2.075
 2058SOL     OW 2104   1.950   3.663   2.789
 2058SOL    HW1 2105   1.908   3.577   2.762
 2058SOL    HW2 2106   2.044   3.666   2.755
 2059SOL     OW 2107   2.366   3.430   2.772
 2059SOL    HW1 2108   2.432   3.504   2.781
 2059SOL    HW2 2109   2.410   3.351   2.730
 2060SOL     OW 2110   2.864   2.658   3.100
 2060SOL    HW1 2111   2.905   2.626   3.186
 2060SOL    HW2 2112   2.768   2.631   3.097
 2061SOL     OW 2113   1.902   2.406   2.976
 2061SOL    HW1 2114   1.987   2.373   2.935
 2061SOL    HW2 2115   1.915   2.421   3.074
 2062SOL     OW 2116   2.051   2.382   3.584
 2062SOL    HW1 2117   2.110   2.342   3.514
 2062SOL    HW2 2118   1.993   2.453   3.543
 2063SOL     OW 2119   3.231   2.812   3.522
 2063SOL    HW1 2120   3.270   2.901   3.542
 2063SOL    HW2 2121   3.241   2.792   3.425
 2064SOL     OW 2122   2.677   2.434   2.187
 2064SOL    HW1 2123   2.684   2.345   2.141
 2064SOL    HW2 2124   2.583   2.468   2.179
 2065SOL     OW 2125   3.519   2.466   3.068
 2065SOL    HW1 2126   3.481   2.397   3.130
 2065SOL    HW2 2127   3.601   2.430   3.024
 2067SOL     OW 2128   2.533   2.326   3.131
 2067SOL    HW1 2129   2.499   2.237   3.101
 2067SOL    HW2 2130   2.559   2.380   3.051
 2069SOL     OW 2131   2.335   2.362   2.053
 2069SOL    HW1 2132   2.396   2.442   2.057
 2069SOL    HW2 2133   2.240   2.393   2.060
 2070SOL     OW 2134   2.021   2.999   3.328
 2070SOL    HW1 2135   2.043   2.938   3.404
 2070SOL    HW2 2136   2.031   2.950   3.242
 2071SOL     OW 2137   3.209   2.921   3.096
 2071SOL    HW1 2138   3.233   2.858   3.022
 2071SOL    HW2 2139   3.119   2.961   3.078
 2072SOL     OW 2140   3.164   2.717   2.171
 2072SOL    HW1 2141   3.078   2.686   2.213
 2072SOL    HW2 2142   3.160   2.703   2.072
 2075SOL     OW 2143   1.945   3.120   2.884
 2075SOL    HW1 2144   1.940   3.119   2.984
 2075SOL    HW2 2145   1.862   3.079   2.846
 2077SOL     OW 2146   3.588   1.997   2.385
 2077SOL    HW1 2147   3.661   1.980   2.318
 2077SOL    HW2 2148   3.557   1.910   2.423
 2078SOL     OW 2149   3.250   3.435   2.339
 2078SOL    HW1 2150   3.317   3.447   2.265
 2078SOL    HW2 2151   3.210   3.524   2.362
 2080SOL     OW 2152   3.142   2.789   2.534
 2080SOL    HW1 2153   3.202   2.708   2.536
 2080SOL    HW2 2154   3.182   2.858   2.474
 2081SOL     OW 2155   2.692   3.135   3.284
 2081SOL    HW1 2156   2.687   3.168   3.379
 2081SOL    HW2 2157   2.606   3.154   3.238
 2082SOL     OW 2158   2.534   3.478   2.016
 2082SOL    HW1 2159   2.543   3.488   1.917
 2082SOL    HW2 2160   2.494   3.389   2.037
 2084SOL     OW 2161   3.703   2.037   2.825
 2084SOL    HW1 2162   3.742   1.952   2.789
 2084SOL    HW2 2163   3.605   2.039   2.806
 2085SOL     OW 2164   2.125   2.188   2.582
 2085SOL    HW1 2165   2.046   2.239   2.548
 2085SOL    HW2 2166   2.116   2.173   2.680
 2086SOL     OW 2167   3.056   3.474   1.893
 2086SOL    HW1 2168   3.062   3.381   1.930
 2086SOL    HW2 2169   2.997   3.474   1.813
 2087SOL     OW 2170   2.684   2.864   3.234
 2087SOL    HW1 2171   2.724   2.863   3.142
 2087SOL    HW2 2172   2.694   2.956   3.274
 2088SOL     OW 2173   2.778   2.772   2.153
 2088SOL    HW1 2174   2.841   2.810   2.085
 2088SOL    HW2 2175   2.818   2.689   2.192
 2089SOL     OW 2176   3.366   3.469   1.906
 2089SOL    HW1 2177   3.274   3.506   1.913
 2089SOL    HW2 2178   3.404   3.489   1.816
 2090SOL     OW 2179   2.234   3.150   3.352
 2090SOL    HW1 2180   2.221   3.243   3.318
 2090SOL    HW2 2181   2.150   3.098   3.339
 2092SOL     OW 2182   2.901   2.960   2.558
 2092SOL    HW1 2183   2.831   2.913   2.612
 2092SOL    HW2 2184   2.960   2.892   2.515
 2093SOL     OW 2185   2.876   2.098   2.833
 2093SOL    HW1 2186   2.868   2.062   2.740
 2093SOL    HW2 2187   2.874   2.022   2.898
 2094SOL     OW 2188   2.452   3.349   2.353
 2094SOL    HW1 2189   2.494   3.291   2.283
 2094SOL    HW2 2190   2.408   3.428   2.309
 2095SOL     OW 2191   3.571   2.247   3.243
 2095SOL    HW1 2192   3.644   2.316   3.247
 2095SOL    HW2 2193   3.599   2.172   3.184
 2096SOL     OW 2194   2.117   3.210   2.152
 2096SOL    HW1 2195   2.021   3.211   2.125
 2096SOL    HW2 2196   2.129   3.263   2.236
 2097SOL     OW 2197   1.967   2.875   3.588
 2097SOL    HW1 2198   1.890   2.842   3.642
 2097SOL    HW2 2199   2.052   2.845   3.630
 2098SOL     OW 2200   2.534   2.065   3.351
 2098SOL    HW1 2201   2.624   2.049   3.311
 2098SOL    HW2 2202   2.542   2.070   3.450
 2099SOL     OW 2203   1.937   2.207   1.895
 2099SOL    HW1 2204   1.845   2.179   1.866
 2099SOL    HW2 2205   1.968   2.284   1.839
 2100SOL     OW 2206   3.302   2.718   3.260
 2100SOL    HW1 2207   3.245   2.770   3.197
 2100SOL    HW2 2208   3.398   2.730   3.236
 2101SOL     OW 2209   1.934   2.028   2.180
 2101SOL    HW1 2210   1.917   2.111   2.126
 2101SOL    HW2 2211   2.024   1.991   2.158
 2102SOL     OW 2212   3.045   3.197   1.981
 2102SOL    HW1 2213   2.946   3.186   1.983
 2102SOL    HW2 2214   3.079   3.212   2.074
 2103SOL     OW 2215   2.475   2.704   3.293
 2103SOL    HW1 2216   2.531   2.785   3.276
 2103SOL    HW2 2217   2.534   2.624   3.296
 2105SOL     OW 2218   2.578   2.427   3.570
 2105SOL    HW1 2219   2.597   2.492   3.644
 2105SOL    HW2 2220   2.638   2.347   3.579
 2108SOL     OW 2221   3.536   2.745   3.116
 2108SOL    HW1 2222   3.509   2.656   3.079
 2108SOL    HW2 2223   3.537   2.813   3.043
 2109SOL     OW 2224   3.087   2.187   2.311
 2109SOL    HW1 2225   3.152   2.113   2.300
 2109SOL    HW2 2226   3.107   2.237   2.395
 2110SOL     OW 2227   2.456   2.607   2.514
 2110SOL    HW1 2228   2.506   2.692   2.495
 2110SOL    HW2 2229   2.368   2.609   2.466
 2113SOL     OW 2230   2.721   3.236   1.878
 2113SOL    HW1 2231   2.675   3.251   1.966
 2113SOL    HW2 2232   2.765   3.321   1.848
 2114SOL     OW 2233   2.523   3.652   2.815
 2114SOL    HW1 2234   2.477   3.740   2.802
 2114SOL    HW2 2235   2.622   3.664   2.808
 2115SOL     OW 2236   2.721   2.818   2.723
 2115SOL    HW1 2237   2.775   2.749   2.771
 2115SOL    HW2 2238   2.689   2.887   2.789
 2116SOL     OW 2239   2.945   2.846   1.949
 2116SOL    HW1 2240   2.922   2.899   1.867
 2116SOL    HW2 2241   3.026   2.790   1.930
 2118SOL     OW 2242   2.083   3.176   3.706
 2118SOL    HW1 2243   2.018   3.103   3.685
 2118SOL    HW2 2244   2.087   3.190   3.804
 2119SOL     OW 2245   1.941   3.102   2.515
 2119SOL    HW1 2246   1.940   3.055   2.603
 2119SOL    HW2 2247   2.023   3.074   2.464
 2120SOL     OW 2248   2.534   3.253   3.486
 2120SOL    HW1 2249   2.456   3.203   3.524
 2120SOL    HW2 2250   2.531   3.348   3.517
 2121SOL     OW 2251   3.686   2.054   3.089
 2121SOL    HW1 2252   3.682   1.964   3.133
 2121SOL    HW2 2253   3.689   2.043   2.990
 2123SOL     OW 2254   2.179   2.409   3.142
 2123SOL    HW1 2255   2.217   2.350   3.214
 2123SOL    HW2 2256   2.219   2.383   3.054
 2124SOL     OW 2257   2.674   3.448   2.549
 2124SOL    HW1 2258   2.706   3.458   2.455
 2124SOL    HW2 2259   2.595   3.386   2.551
 2125SOL     OW 2260   3.286   2.076   2.974
 2125SOL    HW1 2261   3.338   2.011   3.029
 2125SOL    HW2 2262   3.237   2.139   3.035
 2126SOL     OW 2263   2.863   1.896   3.016
 2126SOL    HW1 2264   2.800   1.824   2.985
 2126SOL    HW2 2265   2.956   1.860   3.016
 2127SOL     OW 2266   2.632   3.192   2.163
 2127SOL    HW1 2267   2.586   3.105   2.180
 2127SOL    HW2 2268   2.723   3.189   2.204
 2128SOL     OW 2269   2.480   3.429   3.146
 2128SOL    HW1 2270   2.475   3.511   3.203
 2128SOL    HW2 2271   2.569   3.426   3.101
 2129SOL     OW 2272   3.214   1.914   2.030
 2129SOL    HW1 2273   3.249   1.873   1.946
 2129SOL    HW2 2274   3.124   1.876   2.050
 2130SOL     OW 2275   3.162   2.315   2.553
 2130SOL    HW1 2276   3.103   2.395   2.557
 2130SOL    HW2 2277   3.177   2.280   2.646
 2131SOL     OW 2278   3.455   2.083   2.744
 2131SOL    HW1 2279   3.371   2.082   2.798
 2131SOL    HW2 2280   3.457   2.166   2.688
 2132SOL     OW 2281   1.901   2.939   2.162
 2132SOL    HW1 2282   2.000   2.928   2.153
 2132SOL    HW2 2283   1.861   2.853   2.194
 2133SOL     OW 2284   2.737   3.508   2.199
 2133SOL    HW1 2285   2.660   3.473   2.145
 2133SOL    HW2 2286   2.705   3.579   2.261
 2134SOL     OW 2287   2.092   2.490   3.837
 2134SOL    HW1 2288   1.999   2.488   3.874
 2134SOL    HW2 2289   2.093   2.451   3.745
 2139SOL     OW 2290   2.468   2.826   3.847
 2139SOL    HW1 2291   2.475   2.910   3.793
 2139SOL    HW2 2292   2.514   2.839   3.935
 2154SOL     OW 2293   2.727   2.210   3.919
 2154SOL    HW1 2294   2.786   2.273   3.870
 2154SOL    HW2 2295   2.746   2.116   3.890
 2165SOL     OW 2296   2.476   1.984   3.841
 2165SOL    HW1 2297   2.574   1.962   3.848
 2165SOL    HW2 2298   2.445   1.967   3.748
 2168SOL     OW 2299   2.159   1.897   3.895
 2168SOL    HW1 2300   2.208   1.981   3.874
 2168SOL    HW2 2301   2.221   1.832   3.940
 2172SOL     OW 2302   2.894   2.411   3.740
 2172SOL    HW1 2303   2.853   2.493   3.701
 2172SOL    HW2 2304   2.958   2.437   3.813
 2189SOL     OW 2305   2.335   2.362   3.915
 2189SOL    HW1 2306   2.396   2.442   3.919
 2189SOL    HW2 2307   2.240   2.393   3.922
 2200SOL     OW 2308   1.937   2.207   3.757
 2200SOL    HW1 2309   1.845   2.179   3.728
 2200SOL    HW2 2310   1.968   2.284   3.701
 2256SOL     OW 2311   2.875   3.829   1.770
 2256SOL    HW1 2312   2.881   3.914   1.718
 2256SOL    HW2 2313   2.907   3.753   1.713
 2257SOL     OW 2314   2.366   3.774   1.740
 2257SOL    HW1 2315   2.324   3.717   1.670
 2257SOL    HW2 2316   2.300   3.843   1.772
 2303SOL     OW 2317   2.671   3.728   2.364
 2303SOL    HW1 2318   2.711   3.819   2.355
 2303SOL    HW2 2319   2.571   3.736   2.370
 2312SOL     OW 2320   2.412   3.920   2.747
 2312SOL    HW1 2321   2.407   3.915   2.847
 2312SOL    HW2 2322   2.414   4.016   2.718
 2317SOL     OW 2323   2.476   3.846   1.979
 2317SOL    HW1 2324   2.574   3.824   1.986
 2317SOL    HW2 2325   2.445   3.829   1.886
 2321SOL     OW 2326   2.401   3.788   2.374
 2321SOL    HW1 2327   2.320   3.789   2.432
 2321SOL    HW2 2328   2.404   3.871   2.319
 2322SOL     OW 2329   2.159   3.759   2.033
 2322SOL    HW1 2330   2.208   3.843   2.012
 2322SOL    HW2 2331   2.221   3.694   2.078
 2329SOL     OW 2332   2.879   3.763   2.615
 2329SOL    HW1 2333   2.807   3.768   2.546
 2329SOL    HW2 2334   2.855   3.694   2.684
 2332SOL     OW 2335   2.389   3.980   2.190
 2332SOL    HW1 2336   2.416   3.921   2.115
 2332SOL    HW2 2337   2.389   4.075   2.159
 2342SOL     OW 2338   2.169   3.787   2.480
 2342SOL    HW1 2339   2.158   3.881   2.513
 2342SOL    HW2 2340   2.164   3.724   2.557
 2363SOL     OW 2341   1.934   3.890   2.180
 2363SOL    HW1 2342   1.917   3.973   2.126
 2363SOL    HW2 2343   2.024   3.853   2.158
 2473SOL     OW 2344   3.854   1.794   1.851
 2473SOL    HW1 2345   3.813   1.720   1.904
 2473SOL    HW2 2346   3.918   1.845   1.909
 2503SOL     OW 2347   3.751   1.596   1.979
 2503SOL    HW1 2348   3.732   1.500   2.000
 2503SOL    HW2 2349   3.718   1.654   2.054
 2543SOL     OW 2350   3.732   1.326   2.062
 2543SOL    HW1 2351   3.639   1.347   2.031
 2543SOL    HW2 2352   3.742   1.227   2.075
 2544SOL     OW 2353   3.812   1.801   2.789
 2544SOL    HW1 2354   3.770   1.715   2.762
 2544SOL    HW2 2355   3.906   1.804   2.755
 2620SOL     OW 2356   3.837   2.599   1.597
 2620SOL    HW1 2357   3.925   2.586   1.642
 2620SOL    HW2 2358   3.824   2.696   1.575
 2641SOL     OW 2359   3.802   2.418   1.386
 2641SOL    HW1 2360   3.894   2.417   1.345
 2641SOL    HW2 2361   3.796   2.492   1.453
 2663SOL     OW 2362   3.913   2.382   1.722
 2663SOL    HW1 2363   3.972   2.342   1.652
 2663SOL    HW2 2364   3.855   2.453   1.681
 2688SOL     OW 2365   3.954   2.490   1.975
 2688SOL    HW1 2366   3.861   2.488   2.012
 2688SOL    HW2 2367   3.955   2.451   1.883
 2690SOL     OW 2368   3.743   2.230   2.509
 2690SOL    HW1 2369   3.661   2.273   2.548
 2690SOL    HW2 2370   3.715   2.157   2.446
 2700SOL     OW 2371   3.846   2.505   2.425
 2700SOL    HW1 2372   3.801   2.417   2.442
 2700SOL    HW2 2373   3.845   2.559   2.509
 2708SOL     OW 2374   3.800   2.673   2.651
 2708SOL    HW1 2375   3.899   2.661   2.660
 2708SOL    HW2 2376   3.776   2.768   2.672
 2742SOL     OW 2377   3.732   3.188   2.062
 2742SOL    HW1 2378   3.639   3.209   2.031
 2742SOL    HW2 2379   3.742   3.089   2.075
 2745SOL     OW 2380   3.764   2.406   2.976
 2745SOL    HW1 2381   3.849   2.373   2.935
 2745SOL    HW2 2382   3.777   2.421   3.074
 2754SOL     OW 2383   3.987   2.188   2.582
 2754SOL    HW1 2384   3.908   2.239   2.548
 2754SOL    HW2 2385   3.978   2.173   2.680
 2760SOL     OW 2386   3.799   2.207   1.895
 2760SOL    HW1 2387   3.707   2.179   1.866
 2760SOL    HW2 2388   3.830   2.284   1.839
 2761SOL     OW 2389   3.796   2.028   2.180
 2761SOL    HW1 2390   3.779   2.111   2.126
 2761SOL    HW2 2391   3.886   1.991   2.158
 2770SOL     OW 2392   3.763   2.939   2.162
 2770SOL    HW1 2393   3.862   2.928   2.153
 2770SOL    HW2 2394   3.723   2.853   2.194
   4.44942   4.44942   4.44942
