; mobley_9460824_GMX.itp created by acpype (v: 2023.10.27) on Thu May 21 00:18:00 2026

[ atomtypes ]
;name   bond_type     mass     charge   ptype   sigma         epsilon       Amb
 c3       c3          0.00000  0.00000   A     3.39771e-01   4.51035e-01 ; 1.91  0.1078
 os       os          0.00000  0.00000   A     3.15610e-01   3.03758e-01 ; 1.77  0.0726
 p5       p5          0.00000  0.00000   A     3.69402e-01   9.60228e-01 ; 2.07  0.2295
 s        s           0.00000  0.00000   A     3.53241e-01   1.18156e+00 ; 1.98  0.2824
 ss       ss          0.00000  0.00000   A     3.53241e-01   1.18156e+00 ; 1.98  0.2824
 hc       hc          0.00000  0.00000   A     2.60018e-01   8.70272e-02 ; 1.46  0.0208
 h1       h1          0.00000  0.00000   A     2.42200e-01   8.70272e-02 ; 1.36  0.0208
 h2       h2          0.00000  0.00000   A     2.24382e-01   8.70272e-02 ; 1.26  0.0208

[ moleculetype ]
;name            nrexcl
 mobley_9460824   3

[ atoms ]
;   nr  type  resi  res  atom  cgnr     charge      mass       ; qtot   bond_type
     1   c3     1   MOL    C1    1    -0.119100     12.01000 ; qtot -0.119
     2   c3     1   MOL    C2    2    -0.119100     12.01000 ; qtot -0.238
     3   c3     1   MOL    C3    3    -0.090100     12.01000 ; qtot -0.328
     4   c3     1   MOL    C4    4     0.132900     12.01000 ; qtot -0.195
     5   c3     1   MOL    C5    5     0.132900     12.01000 ; qtot -0.062
     6   c3     1   MOL    C6    6    -0.061300     12.01000 ; qtot -0.124
     7   c3     1   MOL    C7    7     0.145800     12.01000 ; qtot 0.022
     8   os     1   MOL    O1    8    -0.463700     16.00000 ; qtot -0.442
     9   os     1   MOL    O2    9    -0.463700     16.00000 ; qtot -0.905
    10   p5     1   MOL    P1   10     0.695201     30.97000 ; qtot -0.210
    11    s     1   MOL    S1   11    -0.558000     32.06000 ; qtot -0.768
    12   ss     1   MOL    S2   12    -0.004200     32.06000 ; qtot -0.772
    13   ss     1   MOL    S3   13    -0.390500     32.06000 ; qtot -1.163
    14   hc     1   MOL    H1   14     0.051700      1.00800 ; qtot -1.111
    15   hc     1   MOL    H2   15     0.051700      1.00800 ; qtot -1.059
    16   hc     1   MOL    H3   16     0.051700      1.00800 ; qtot -1.008
    17   hc     1   MOL    H4   17     0.051700      1.00800 ; qtot -0.956
    18   hc     1   MOL    H5   18     0.051700      1.00800 ; qtot -0.904
    19   hc     1   MOL    H6   19     0.051700      1.00800 ; qtot -0.853
    20   hc     1   MOL    H7   20     0.053033      1.00800 ; qtot -0.800
    21   hc     1   MOL    H8   21     0.053033      1.00800 ; qtot -0.747
    22   hc     1   MOL    H9   22     0.053033      1.00800 ; qtot -0.694
    23   h1     1   MOL   H10   23     0.074200      1.00800 ; qtot -0.619
    24   h1     1   MOL   H11   24     0.074200      1.00800 ; qtot -0.545
    25   h1     1   MOL   H12   25     0.074200      1.00800 ; qtot -0.471
    26   h1     1   MOL   H13   26     0.074200      1.00800 ; qtot -0.397
    27   h1     1   MOL   H14   27     0.079200      1.00800 ; qtot -0.318
    28   h1     1   MOL   H15   28     0.079200      1.00800 ; qtot -0.238
    29   h2     1   MOL   H16   29     0.119200      1.00800 ; qtot -0.119
    30   h2     1   MOL   H17   30     0.119200      1.00800 ; qtot 0.000

[ bonds ]
;   ai     aj funct   r             k
     1      4   1    1.5354e-01    1.9154e+05 ;     C1 - C4    
     1     14   1    1.0962e-01    2.8891e+05 ;     C1 - H1    
     1     15   1    1.0962e-01    2.8891e+05 ;     C1 - H2    
     1     16   1    1.0962e-01    2.8891e+05 ;     C1 - H3    
     2      5   1    1.5354e-01    1.9154e+05 ;     C2 - C5    
     2     17   1    1.0962e-01    2.8891e+05 ;     C2 - H4    
     2     18   1    1.0962e-01    2.8891e+05 ;     C2 - H5    
     2     19   1    1.0962e-01    2.8891e+05 ;     C2 - H6    
     3      6   1    1.5354e-01    1.9154e+05 ;     C3 - C6    
     3     20   1    1.0962e-01    2.8891e+05 ;     C3 - H7    
     3     21   1    1.0962e-01    2.8891e+05 ;     C3 - H8    
     3     22   1    1.0962e-01    2.8891e+05 ;     C3 - H9    
     4      8   1    1.4273e-01    2.3620e+05 ;     C4 - O1    
     4     23   1    1.0969e-01    2.8804e+05 ;     C4 - H10   
     4     24   1    1.0969e-01    2.8804e+05 ;     C4 - H11   
     5      9   1    1.4273e-01    2.3620e+05 ;     C5 - O2    
     5     25   1    1.0969e-01    2.8804e+05 ;     C5 - H12   
     5     26   1    1.0969e-01    2.8804e+05 ;     C5 - H13   
     6     12   1    1.8407e-01    1.5459e+05 ;     C6 - S2    
     6     27   1    1.0969e-01    2.8804e+05 ;     C6 - H14   
     6     28   1    1.0969e-01    2.8804e+05 ;     C6 - H15   
     7     12   1    1.8407e-01    1.5459e+05 ;     C7 - S2    
     7     13   1    1.8407e-01    1.5459e+05 ;     C7 - S3    
     7     29   1    1.0950e-01    2.9039e+05 ;     C7 - H16   
     7     30   1    1.0950e-01    2.9039e+05 ;     C7 - H17   
     8     10   1    1.6182e-01    3.2434e+05 ;     O1 - P1    
     9     10   1    1.6182e-01    3.2434e+05 ;     O2 - P1    
    10     11   1    1.9473e-01    2.2085e+05 ;     P1 - S1    
    10     13   1    2.1159e-01    1.4974e+05 ;     P1 - S3    

[ pairs ]
;   ai     aj    funct
     1     10      1 ;     C1 - P1    
     2     10      1 ;     C2 - P1    
     3      7      1 ;     C3 - C7    
     4      9      1 ;     C4 - O2    
     4     11      1 ;     C4 - S1    
     4     13      1 ;     C4 - S3    
     5      8      1 ;     C5 - O1    
     5     11      1 ;     C5 - S1    
     5     13      1 ;     C5 - S3    
     6     13      1 ;     C6 - S3    
     6     29      1 ;     C6 - H16   
     6     30      1 ;     C6 - H17   
     7      8      1 ;     C7 - O1    
     7      9      1 ;     C7 - O2    
     7     11      1 ;     C7 - S1    
     7     27      1 ;     C7 - H14   
     7     28      1 ;     C7 - H15   
     9     17      1 ;     O2 - H4    
     9     18      1 ;     O2 - H5    
     9     19      1 ;     O2 - H6    
    10     12      1 ;     P1 - S2    
    10     23      1 ;     P1 - H10   
    10     24      1 ;     P1 - H11   
    10     25      1 ;     P1 - H12   
    10     26      1 ;     P1 - H13   
    10     29      1 ;     P1 - H16   
    10     30      1 ;     P1 - H17   
    12     20      1 ;     S2 - H7    
    12     21      1 ;     S2 - H8    
    12     22      1 ;     S2 - H9    
    14      8      1 ;     H1 - O1    
    14     23      1 ;     H1 - H10   
    14     24      1 ;     H1 - H11   
    15      8      1 ;     H2 - O1    
    15     23      1 ;     H2 - H10   
    15     24      1 ;     H2 - H11   
    16      8      1 ;     H3 - O1    
    16     23      1 ;     H3 - H10   
    16     24      1 ;     H3 - H11   
    17     25      1 ;     H4 - H12   
    17     26      1 ;     H4 - H13   
    18     25      1 ;     H5 - H12   
    18     26      1 ;     H5 - H13   
    19     25      1 ;     H6 - H12   
    19     26      1 ;     H6 - H13   
    20     27      1 ;     H7 - H14   
    20     28      1 ;     H7 - H15   
    21     27      1 ;     H8 - H14   
    21     28      1 ;     H8 - H15   
    22     27      1 ;     H9 - H14   
    22     28      1 ;     H9 - H15   

[ angles ]
;   ai     aj     ak    funct   theta         cth
     1      4      8      1    1.0762e+02    6.4802e+02 ;     C1 - C4     - O1    
     1      4     23      1    1.0959e+02    3.6217e+02 ;     C1 - C4     - H10   
     1      4     24      1    1.0959e+02    3.6217e+02 ;     C1 - C4     - H11   
     2      5      9      1    1.0762e+02    6.4802e+02 ;     C2 - C5     - O2    
     2      5     25      1    1.0959e+02    3.6217e+02 ;     C2 - C5     - H12   
     2      5     26      1    1.0959e+02    3.6217e+02 ;     C2 - C5     - H13   
     3      6     12      1    1.1018e+02    5.2651e+02 ;     C3 - C6     - S2    
     3      6     27      1    1.0959e+02    3.6217e+02 ;     C3 - C6     - H14   
     3      6     28      1    1.0959e+02    3.6217e+02 ;     C3 - C6     - H15   
     4      1     14      1    1.0968e+02    3.6208e+02 ;     C4 - C1     - H1    
     4      1     15      1    1.0968e+02    3.6208e+02 ;     C4 - C1     - H2    
     4      1     16      1    1.0968e+02    3.6208e+02 ;     C4 - C1     - H3    
     4      8     10      1    1.1970e+02    4.7396e+02 ;     C4 - O1     - P1    
     5      2     17      1    1.0968e+02    3.6208e+02 ;     C5 - C2     - H4    
     5      2     18      1    1.0968e+02    3.6208e+02 ;     C5 - C2     - H5    
     5      2     19      1    1.0968e+02    3.6208e+02 ;     C5 - C2     - H6    
     5      9     10      1    1.1970e+02    4.7396e+02 ;     C5 - O2     - P1    
     6      3     20      1    1.0968e+02    3.6208e+02 ;     C6 - C3     - H7    
     6      3     21      1    1.0968e+02    3.6208e+02 ;     C6 - C3     - H8    
     6      3     22      1    1.0968e+02    3.6208e+02 ;     C6 - C3     - H9    
     6     12      7      1    9.9640e+01    7.7546e+02 ;     C6 - S2     - C7    
     7     13     10      1    9.9760e+01    5.0543e+02 ;     C7 - S3     - P1    
     8      4     23      1    1.1034e+02    4.7028e+02 ;     O1 - C4     - H10   
     8      4     24      1    1.1034e+02    4.7028e+02 ;     O1 - C4     - H11   
     8     10      9      1    1.0172e+02    8.6123e+02 ;     O1 - P1     - O2    
     8     10     11      1    1.1704e+02    6.8040e+02 ;     O1 - P1     - S1    
     8     10     13      1    1.0238e+02    6.8199e+02 ;     O1 - P1     - S3    
     9      5     25      1    1.1034e+02    4.7028e+02 ;     O2 - C5     - H12   
     9      5     26      1    1.1034e+02    4.7028e+02 ;     O2 - C5     - H13   
     9     10     11      1    1.1704e+02    6.8040e+02 ;     O2 - P1     - S1    
     9     10     13      1    1.0238e+02    6.8199e+02 ;     O2 - P1     - S3    
    11     10     13      1    1.1546e+02    5.7873e+02 ;     S1 - P1     - S3    
    12      6     27      1    1.0873e+02    3.5196e+02 ;     S2 - C6     - H14   
    12      6     28      1    1.0873e+02    3.5196e+02 ;     S2 - C6     - H15   
    12      7     13      1    1.1142e+02    5.6693e+02 ;     S2 - C7     - S3    
    12      7     29      1    1.0882e+02    3.5171e+02 ;     S2 - C7     - H16   
    12      7     30      1    1.0882e+02    3.5171e+02 ;     S2 - C7     - H17   
    13      7     29      1    1.0882e+02    3.5171e+02 ;     S3 - C7     - H16   
    13      7     30      1    1.0882e+02    3.5171e+02 ;     S3 - C7     - H17   
    14      1     15      1    1.0773e+02    2.9957e+02 ;     H1 - C1     - H2    
    14      1     16      1    1.0773e+02    2.9957e+02 ;     H1 - C1     - H3    
    15      1     16      1    1.0773e+02    2.9957e+02 ;     H2 - C1     - H3    
    17      2     18      1    1.0773e+02    2.9957e+02 ;     H4 - C2     - H5    
    17      2     19      1    1.0773e+02    2.9957e+02 ;     H4 - C2     - H6    
    18      2     19      1    1.0773e+02    2.9957e+02 ;     H5 - C2     - H6    
    20      3     21      1    1.0773e+02    2.9957e+02 ;     H7 - C3     - H8    
    20      3     22      1    1.0773e+02    2.9957e+02 ;     H7 - C3     - H9    
    21      3     22      1    1.0773e+02    2.9957e+02 ;     H8 - C3     - H9    
    23      4     24      1    1.0855e+02    2.9824e+02 ;    H10 - C4     - H11   
    25      5     26      1    1.0855e+02    2.9824e+02 ;    H12 - C5     - H13   
    27      6     28      1    1.0855e+02    2.9824e+02 ;    H14 - C6     - H15   
    29      7     30      1    1.0951e+02    2.9748e+02 ;    H16 - C7     - H17   

[ dihedrals ] ; propers
; for gromacs 4.5 or higher, using funct 9
;    i      j      k      l   func   phase     kd      pn
     1      4      8     10      9     0.00   1.60247   3 ;     C1-    C4-    O1-    P1
     1      4      8     10      9   180.00  16.52680   1 ;     C1-    C4-    O1-    P1
     2      5      9     10      9     0.00   1.60247   3 ;     C2-    C5-    O2-    P1
     2      5      9     10      9   180.00  16.52680   1 ;     C2-    C5-    O2-    P1
     3      6     12      7      9   180.00   0.83680   1 ;     C3-    C6-    S2-    C7
     4      8     10      9      9     0.00  14.72768   2 ;     C4-    O1-    P1-    O2
     4      8     10     11      9     0.00   3.34720   2 ;     C4-    O1-    P1-    S1
     4      8     10     13      9     0.00   3.34720   2 ;     C4-    O1-    P1-    S3
     5      9     10      8      9     0.00  14.72768   2 ;     C5-    O2-    P1-    O1
     5      9     10     11      9     0.00   3.34720   2 ;     C5-    O2-    P1-    S1
     5      9     10     13      9     0.00   3.34720   2 ;     C5-    O2-    P1-    S3
     6     12      7     13      9     0.00   3.01248   2 ;     C6-    S2-    C7-    S3
     6     12      7     29      9     0.00   1.39467   3 ;     C6-    S2-    C7-   H16
     6     12      7     30      9     0.00   1.39467   3 ;     C6-    S2-    C7-   H17
     7     12      6     27      9     0.00   0.92048   3 ;     C7-    S2-    C6-   H14
     7     12      6     28      9     0.00   0.92048   3 ;     C7-    S2-    C6-   H15
     7     13     10      8      9   180.00  16.43057   2 ;     C7-    S3-    P1-    O1
     7     13     10      9      9   180.00  16.43057   2 ;     C7-    S3-    P1-    O2
     7     13     10     11      9   180.00  15.89920   2 ;     C7-    S3-    P1-    S1
     9      5      2     17      9     0.00   0.00000   0 ;     O2-    C5-    C2-    H4
     9      5      2     17      9     0.00   1.04600   1 ;     O2-    C5-    C2-    H4
     9      5      2     18      9     0.00   0.00000   0 ;     O2-    C5-    C2-    H5
     9      5      2     18      9     0.00   1.04600   1 ;     O2-    C5-    C2-    H5
     9      5      2     19      9     0.00   0.00000   0 ;     O2-    C5-    C2-    H6
     9      5      2     19      9     0.00   1.04600   1 ;     O2-    C5-    C2-    H6
    10      8      4     23      9     0.00   0.00000   0 ;     P1-    O1-    C4-   H10
    10      8      4     24      9     0.00   0.00000   0 ;     P1-    O1-    C4-   H11
    10      9      5     25      9     0.00   0.00000   0 ;     P1-    O2-    C5-   H12
    10      9      5     26      9     0.00   0.00000   0 ;     P1-    O2-    C5-   H13
    10     13      7     12      9     0.00   1.39467   3 ;     P1-    S3-    C7-    S2
    10     13      7     29      9     0.00   1.39467   3 ;     P1-    S3-    C7-   H16
    10     13      7     30      9     0.00   1.39467   3 ;     P1-    S3-    C7-   H17
    12      6      3     20      9     0.00   0.65084   3 ;     S2-    C6-    C3-    H7
    12      6      3     21      9     0.00   0.65084   3 ;     S2-    C6-    C3-    H8
    12      6      3     22      9     0.00   0.65084   3 ;     S2-    C6-    C3-    H9
    14      1      4      8      9     0.00   0.00000   0 ;     H1-    C1-    C4-    O1
    14      1      4      8      9     0.00   1.04600   1 ;     H1-    C1-    C4-    O1
    14      1      4     23      9     0.00   0.65084   3 ;     H1-    C1-    C4-   H10
    14      1      4     24      9     0.00   0.65084   3 ;     H1-    C1-    C4-   H11
    15      1      4      8      9     0.00   0.00000   0 ;     H2-    C1-    C4-    O1
    15      1      4      8      9     0.00   1.04600   1 ;     H2-    C1-    C4-    O1
    15      1      4     23      9     0.00   0.65084   3 ;     H2-    C1-    C4-   H10
    15      1      4     24      9     0.00   0.65084   3 ;     H2-    C1-    C4-   H11
    16      1      4      8      9     0.00   0.00000   0 ;     H3-    C1-    C4-    O1
    16      1      4      8      9     0.00   1.04600   1 ;     H3-    C1-    C4-    O1
    16      1      4     23      9     0.00   0.65084   3 ;     H3-    C1-    C4-   H10
    16      1      4     24      9     0.00   0.65084   3 ;     H3-    C1-    C4-   H11
    17      2      5     25      9     0.00   0.65084   3 ;     H4-    C2-    C5-   H12
    17      2      5     26      9     0.00   0.65084   3 ;     H4-    C2-    C5-   H13
    18      2      5     25      9     0.00   0.65084   3 ;     H5-    C2-    C5-   H12
    18      2      5     26      9     0.00   0.65084   3 ;     H5-    C2-    C5-   H13
    19      2      5     25      9     0.00   0.65084   3 ;     H6-    C2-    C5-   H12
    19      2      5     26      9     0.00   0.65084   3 ;     H6-    C2-    C5-   H13
    20      3      6     27      9     0.00   0.65084   3 ;     H7-    C3-    C6-   H14
    20      3      6     28      9     0.00   0.65084   3 ;     H7-    C3-    C6-   H15
    21      3      6     27      9     0.00   0.65084   3 ;     H8-    C3-    C6-   H14
    21      3      6     28      9     0.00   0.65084   3 ;     H8-    C3-    C6-   H15
    22      3      6     27      9     0.00   0.65084   3 ;     H9-    C3-    C6-   H14
    22      3      6     28      9     0.00   0.65084   3 ;     H9-    C3-    C6-   H15
