mobley_4884177_GMX.gro created by acpype (v: 2023.10.27) on Tue May 19 12:47:42 2026
 2393
    1MOL     C1    1   2.205   2.398   2.185
    1MOL     C2    2   2.318   2.434   2.258
    1MOL     C3    3   2.119   2.303   2.240
    1MOL     C4    4   2.250   2.282   2.428
    1MOL     C5    5   2.341   2.376   2.381
    1MOL     C6    6   2.582   2.323   2.430
    1MOL     C7    7   2.461   2.412   2.462
    1MOL     N1    8   2.139   2.245   2.360
    1MOL     H1    9   2.184   2.442   2.088
    1MOL     H2   10   2.386   2.508   2.217
    1MOL     H3   11   2.030   2.272   2.187
    1MOL     H4   12   2.263   2.233   2.524
    1MOL     H5   13   2.559   2.218   2.451
    1MOL     H6   14   2.668   2.353   2.491
    1MOL     H7   15   2.610   2.331   2.325
    1MOL     H8   16   2.489   2.518   2.444
    1MOL     H9   17   2.439   2.406   2.570
   14SOL     OW   18   1.460   1.505   1.339
   14SOL    HW1   19   1.484   1.599   1.365
   14SOL    HW2   20   1.444   1.451   1.421
   18SOL     OW   21   1.127   1.341   1.690
   18SOL    HW1   22   1.174   1.341   1.778
   18SOL    HW2   23   1.079   1.254   1.679
   35SOL     OW   24   1.187   1.792   1.616
   35SOL    HW1   25   1.211   1.852   1.540
   35SOL    HW2   26   1.194   1.697   1.586
   56SOL     OW   27   1.227   1.550   1.506
   56SOL    HW1   28   1.233   1.473   1.570
   56SOL    HW2   29   1.175   1.524   1.426
   95SOL     OW   30   1.754   1.223   1.588
   95SOL    HW1   31   1.845   1.184   1.575
   95SOL    HW2   32   1.762   1.319   1.612
   97SOL     OW   33   1.592   1.629   1.625
   97SOL    HW1   34   1.619   1.663   1.535
   97SOL    HW2   35   1.671   1.591   1.671
  122SOL     OW   36   1.728   0.935   1.854
  122SOL    HW1   37   1.682   0.928   1.765
  122SOL    HW2   38   1.666   0.979   1.920
  126SOL     OW   39   0.980   1.573   1.700
  126SOL    HW1   40   0.960   1.617   1.612
  126SOL    HW2   41   1.019   1.482   1.684
  127SOL     OW   42   1.859   1.518   1.605
  127SOL    HW1   43   1.873   1.545   1.510
  127SOL    HW2   44   1.942   1.540   1.658
  152SOL     OW   45   1.759   1.747   1.154
  152SOL    HW1   46   1.820   1.777   1.081
  152SOL    HW2   47   1.721   1.658   1.132
  153SOL     OW   48   1.252   1.731   1.128
  153SOL    HW1   49   1.336   1.736   1.074
  153SOL    HW2   50   1.229   1.635   1.146
  163SOL     OW   51   1.650   1.720   1.394
  163SOL    HW1   52   1.703   1.730   1.310
  163SOL    HW2   53   1.623   1.810   1.428
  171SOL     OW   54   1.614   1.292   1.289
  171SOL    HW1   55   1.674   1.295   1.369
  171SOL    HW2   56   1.539   1.356   1.302
  184SOL     OW   57   1.493   1.767   0.959
  184SOL    HW1   58   1.526   1.831   0.890
  184SOL    HW2   59   1.559   1.761   1.034
  186SOL     OW   60   1.450   1.220   1.633
  186SOL    HW1   61   1.441   1.210   1.732
  186SOL    HW2   62   1.546   1.213   1.607
  192SOL     OW   63   1.730   0.934   1.517
  192SOL    HW1   64   1.768   1.025   1.532
  192SOL    HW2   65   1.722   0.917   1.418
  197SOL     OW   66   1.861   1.569   0.851
  197SOL    HW1   67   1.790   1.557   0.781
  197SOL    HW2   68   1.862   1.490   0.911
  203SOL     OW   69   1.705   1.487   1.104
  203SOL    HW1   70   1.612   1.462   1.077
  203SOL    HW2   71   1.731   1.437   1.186
  219SOL     OW   72   1.555   1.511   2.565
  219SOL    HW1   73   1.498   1.495   2.646
  219SOL    HW2   74   1.496   1.521   2.485
  227SOL     OW   75   1.460   1.505   3.201
  227SOL    HW1   76   1.484   1.599   3.227
  227SOL    HW2   77   1.444   1.451   3.283
  238SOL     OW   78   1.842   1.767   2.221
  238SOL    HW1   79   1.896   1.738   2.301
  238SOL    HW2   80   1.872   1.857   2.192
  240SOL     OW   81   1.689   0.922   2.474
  240SOL    HW1   82   1.784   0.893   2.482
  240SOL    HW2   83   1.681   0.987   2.399
  241SOL     OW   84   1.641   1.108   2.294
  241SOL    HW1   85   1.727   1.110   2.242
  241SOL    HW2   86   1.655   1.155   2.382
  247SOL     OW   87   1.525   0.999   2.052
  247SOL    HW1   88   1.462   0.923   2.065
  247SOL    HW2   89   1.573   1.017   2.138
  248SOL     OW   90   1.187   1.792   3.478
  248SOL    HW1   91   1.211   1.852   3.402
  248SOL    HW2   92   1.194   1.697   3.448
  250SOL     OW   93   1.466   1.417   2.815
  250SOL    HW1   94   1.407   1.423   2.895
  250SOL    HW2   95   1.451   1.329   2.769
  251SOL     OW   96   1.667   1.714   2.434
  251SOL    HW1   97   1.626   1.691   2.346
  251SOL    HW2   98   1.649   1.640   2.499
  254SOL     OW   99   1.576   1.662   2.169
  254SOL    HW1  100   1.665   1.708   2.172
  254SOL    HW2  101   1.555   1.638   2.074
  264SOL     OW  102   1.362   1.144   2.407
  264SOL    HW1  103   1.445   1.115   2.359
  264SOL    HW2  104   1.313   1.211   2.351
  266SOL     OW  105   1.008   1.456   2.339
  266SOL    HW1  106   0.962   1.528   2.287
  266SOL    HW2  107   1.004   1.476   2.437
  268SOL     OW  108   1.795   1.066   2.735
  268SOL    HW1  109   1.733   1.051   2.659
  268SOL    HW2  110   1.743   1.077   2.820
  269SOL     OW  111   1.227   1.550   3.368
  269SOL    HW1  112   1.233   1.473   3.432
  269SOL    HW2  113   1.175   1.524   3.288
  273SOL     OW  114   1.111   1.776   2.099
  273SOL    HW1  115   1.051   1.714   2.149
  273SOL    HW2  116   1.142   1.732   2.014
  275SOL     OW  117   1.632   1.377   1.943
  275SOL    HW1  118   1.600   1.471   1.933
  275SOL    HW2  119   1.556   1.314   1.931
  279SOL     OW  120   0.940   1.698   2.766
  279SOL    HW1  121   1.020   1.641   2.787
  279SOL    HW2  122   0.891   1.658   2.689
  289SOL     OW  123   1.434   1.188   1.903
  289SOL    HW1  124   1.466   1.112   1.960
  289SOL    HW2  125   1.342   1.215   1.933
  293SOL     OW  126   1.227   1.570   2.655
  293SOL    HW1  127   1.248   1.644   2.590
  293SOL    HW2  128   1.295   1.570   2.728
  295SOL     OW  129   1.271   1.797   2.453
  295SOL    HW1  130   1.315   1.861   2.389
  295SOL    HW2  131   1.221   1.849   2.523
  301SOL     OW  132   1.429   1.173   2.729
  301SOL    HW1  133   1.374   1.089   2.722
  301SOL    HW2  134   1.455   1.202   2.637
  303SOL     OW  135   1.857   0.833   2.239
  303SOL    HW1  136   1.899   0.769   2.303
  303SOL    HW2  137   1.819   0.782   2.161
  305SOL     OW  138   1.664   1.280   2.519
  305SOL    HW1  139   1.763   1.288   2.533
  305SOL    HW2  140   1.619   1.364   2.550
  308SOL     OW  141   1.754   1.223   3.450
  308SOL    HW1  142   1.845   1.184   3.437
  308SOL    HW2  143   1.762   1.319   3.474
  310SOL     OW  144   1.592   1.629   3.487
  310SOL    HW1  145   1.619   1.663   3.397
  310SOL    HW2  146   1.671   1.591   3.533
  312SOL     OW  147   1.638   1.099   2.941
  312SOL    HW1  148   1.643   1.180   3.000
  312SOL    HW2  149   1.552   1.101   2.890
  321SOL     OW  150   1.252   1.348   2.250
  321SOL    HW1  151   1.302   1.425   2.290
  321SOL    HW2  152   1.157   1.350   2.282
  322SOL     OW  153   1.272   1.445   3.004
  322SOL    HW1  154   1.319   1.458   3.091
  322SOL    HW2  155   1.206   1.371   3.013
  340SOL     OW  156   1.859   1.518   3.467
  340SOL    HW1  157   1.873   1.545   3.372
  340SOL    HW2  158   1.942   1.540   3.520
  344SOL     OW  159   1.068   1.333   2.711
  344SOL    HW1  160   1.075   1.249   2.656
  344SOL    HW2  161   1.130   1.402   2.675
  365SOL     OW  162   1.759   1.747   3.016
  365SOL    HW1  163   1.820   1.777   2.943
  365SOL    HW2  164   1.721   1.658   2.994
  366SOL     OW  165   1.252   1.731   2.990
  366SOL    HW1  166   1.336   1.736   2.936
  366SOL    HW2  167   1.229   1.635   3.008
  370SOL     OW  168   1.388   1.573   2.339
  370SOL    HW1  169   1.455   1.585   2.265
  370SOL    HW2  170   1.348   1.662   2.362
  372SOL     OW  171   1.280   0.927   2.534
  372SOL    HW1  172   1.340   0.846   2.536
  372SOL    HW2  173   1.320   0.996   2.474
  375SOL     OW  174   1.650   1.720   3.256
  375SOL    HW1  175   1.703   1.730   3.172
  375SOL    HW2  176   1.623   1.810   3.290
  378SOL     OW  177   1.194   1.612   1.893
  378SOL    HW1  178   1.200   1.519   1.930
  378SOL    HW2  179   1.135   1.612   1.813
  381SOL     OW  180   1.504   1.607   1.906
  381SOL    HW1  181   1.412   1.644   1.913
  381SOL    HW2  182   1.542   1.627   1.816
  383SOL     OW  183   1.614   1.292   3.151
  383SOL    HW1  184   1.674   1.295   3.231
  383SOL    HW2  185   1.539   1.356   3.164
  394SOL     OW  186   1.183   1.335   1.981
  394SOL    HW1  187   1.084   1.324   1.983
  394SOL    HW2  188   1.217   1.350   2.074
  396SOL     OW  189   1.493   1.767   2.821
  396SOL    HW1  190   1.526   1.831   2.752
  396SOL    HW2  191   1.559   1.761   2.896
  400SOL     OW  192   1.674   0.883   3.116
  400SOL    HW1  193   1.647   0.794   3.079
  400SOL    HW2  194   1.675   0.951   3.043
  409SOL     OW  195   1.861   1.569   2.713
  409SOL    HW1  196   1.790   1.557   2.643
  409SOL    HW2  197   1.862   1.490   2.773
  415SOL     OW  198   1.705   1.487   2.966
  415SOL    HW1  199   1.612   1.462   2.939
  415SOL    HW2  200   1.731   1.437   3.048
  417SOL     OW  201   0.812   1.586   2.549
  417SOL    HW1  202   0.844   1.596   2.455
  417SOL    HW2  203   0.733   1.524   2.551
  426SOL     OW  204   0.875   1.646   2.199
  426SOL    HW1  205   0.798   1.611   2.145
  426SOL    HW2  206   0.843   1.717   2.261
  542SOL     OW  207   0.850   2.660   1.823
  542SOL    HW1  208   0.846   2.736   1.888
  542SOL    HW2  209   0.872   2.696   1.732
  546SOL     OW  210   1.460   3.367   1.339
  546SOL    HW1  211   1.484   3.461   1.365
  546SOL    HW2  212   1.444   3.313   1.421
  548SOL     OW  213   1.603   2.309   0.737
  548SOL    HW1  214   1.529   2.355   0.687
  548SOL    HW2  215   1.654   2.377   0.790
  550SOL     OW  216   1.127   3.203   1.690
  550SOL    HW1  217   1.174   3.203   1.778
  550SOL    HW2  218   1.079   3.116   1.679
  555SOL     OW  219   1.594   1.976   1.480
  555SOL    HW1  220   1.576   2.043   1.408
  555SOL    HW2  221   1.591   2.022   1.569
  563SOL     OW  222   1.293   3.090   1.423
  563SOL    HW1  223   1.330   3.017   1.365
  563SOL    HW2  224   1.345   3.095   1.508
  572SOL     OW  225   1.281   2.207   0.944
  572SOL    HW1  226   1.195   2.157   0.931
  572SOL    HW2  227   1.343   2.153   1.000
  574SOL     OW  228   0.807   2.467   1.465
  574SOL    HW1  229   0.760   2.464   1.554
  574SOL    HW2  230   0.756   2.412   1.399
  575SOL     OW  231   1.394   2.331   1.674
  575SOL    HW1  232   1.374   2.374   1.762
  575SOL    HW2  233   1.472   2.269   1.683
  576SOL     OW  234   0.973   2.752   1.572
  576SOL    HW1  235   1.019   2.668   1.543
  576SOL    HW2  236   0.917   2.786   1.497
  577SOL     OW  237   0.991   2.272   1.242
  577SOL    HW1  238   0.914   2.306   1.296
  577SOL    HW2  239   0.957   2.221   1.163
  582SOL     OW  240   1.719   2.447   1.831
  582SOL    HW1  241   1.693   2.536   1.795
  582SOL    HW2  242   1.717   2.379   1.758
  587SOL     OW  243   1.795   2.928   0.873
  587SOL    HW1  244   1.733   2.913   0.797
  587SOL    HW2  245   1.743   2.939   0.958
  588SOL     OW  246   1.227   3.412   1.506
  588SOL    HW1  247   1.233   3.335   1.570
  588SOL    HW2  248   1.175   3.386   1.426
  600SOL     OW  249   1.547   2.084   1.729
  600SOL    HW1  250   1.542   2.121   1.821
  600SOL    HW2  251   1.475   2.015   1.717
  601SOL     OW  252   0.781   2.126   1.749
  601SOL    HW1  253   0.848   2.065   1.792
  601SOL    HW2  254   0.708   2.145   1.814
  603SOL     OW  255   1.351   2.452   1.433
  603SOL    HW1  256   1.379   2.409   1.518
  603SOL    HW2  257   1.376   2.548   1.434
  610SOL     OW  258   1.076   2.545   1.464
  610SOL    HW1  259   0.996   2.484   1.467
  610SOL    HW2  260   1.157   2.492   1.440
  620SOL     OW  261   1.466   2.452   0.992
  620SOL    HW1  262   1.436   2.357   0.999
  620SOL    HW2  263   1.539   2.468   1.058
  626SOL     OW  264   1.754   3.085   1.588
  626SOL    HW1  265   1.845   3.046   1.575
  626SOL    HW2  266   1.762   3.181   1.612
  628SOL     OW  267   1.592   3.491   1.625
  628SOL    HW1  268   1.619   3.525   1.535
  628SOL    HW2  269   1.671   3.453   1.671
  630SOL     OW  270   1.638   2.961   1.079
  630SOL    HW1  271   1.643   3.042   1.138
  630SOL    HW2  272   1.552   2.963   1.028
  631SOL     OW  273   0.915   1.951   1.402
  631SOL    HW1  274   0.940   1.931   1.307
  631SOL    HW2  275   0.987   2.007   1.444
  632SOL     OW  276   0.980   2.978   1.719
  632SOL    HW1  277   0.881   2.984   1.729
  632SOL    HW2  278   1.003   2.898   1.663
  635SOL     OW  279   1.274   2.248   1.262
  635SOL    HW1  280   1.295   2.322   1.326
  635SOL    HW2  281   1.185   2.265   1.219
  644SOL     OW  282   1.587   2.641   1.670
  644SOL    HW1  283   1.495   2.679   1.665
  644SOL    HW2  284   1.647   2.688   1.605
  645SOL     OW  285   1.013   1.967   1.770
  645SOL    HW1  286   1.019   2.052   1.718
  645SOL    HW2  287   1.045   1.891   1.713
  648SOL     OW  288   1.360   2.724   1.045
  648SOL    HW1  289   1.285   2.724   0.979
  648SOL    HW2  290   1.397   2.632   1.054
  653SOL     OW  291   1.728   2.797   1.854
  653SOL    HW1  292   1.682   2.790   1.765
  653SOL    HW2  293   1.666   2.841   1.920
  658SOL     OW  294   1.859   3.380   1.605
  658SOL    HW1  295   1.873   3.407   1.510
  658SOL    HW2  296   1.942   3.402   1.658
  665SOL     OW  297   1.138   2.242   1.678
  665SOL    HW1  298   1.093   2.305   1.742
  665SOL    HW2  299   1.231   2.273   1.661
  666SOL     OW  300   1.160   2.069   1.477
  666SOL    HW1  301   1.160   2.133   1.554
  666SOL    HW2  302   1.188   2.117   1.394
  670SOL     OW  303   1.002   2.658   1.238
  670SOL    HW1  304   1.043   2.626   1.324
  670SOL    HW2  305   0.906   2.631   1.235
  673SOL     OW  306   1.369   2.812   1.660
  673SOL    HW1  307   1.408   2.901   1.680
  673SOL    HW2  308   1.379   2.792   1.563
  675SOL     OW  309   1.657   2.466   1.206
  675SOL    HW1  310   1.619   2.397   1.268
  675SOL    HW2  311   1.739   2.430   1.162
  681SOL     OW  312   1.347   2.921   1.234
  681SOL    HW1  313   1.371   2.858   1.160
  681SOL    HW2  314   1.257   2.961   1.216
  694SOL     OW  315   1.650   3.582   1.394
  694SOL    HW1  316   1.703   3.592   1.310
  694SOL    HW2  317   1.623   3.672   1.428
  695SOL     OW  318   1.841   2.037   0.963
  695SOL    HW1  319   1.880   1.952   0.927
  695SOL    HW2  320   1.743   2.039   0.944
  702SOL     OW  321   1.614   3.154   1.289
  702SOL    HW1  322   1.674   3.157   1.369
  702SOL    HW2  323   1.539   3.218   1.302
  706SOL     OW  324   1.709   2.247   1.381
  706SOL    HW1  325   1.782   2.316   1.385
  706SOL    HW2  326   1.737   2.172   1.322
  711SOL     OW  327   1.440   2.718   1.398
  711SOL    HW1  328   1.383   2.770   1.335
  711SOL    HW2  329   1.536   2.730   1.374
  716SOL     OW  330   0.716   2.427   1.708
  716SOL    HW1  331   0.735   2.492   1.782
  716SOL    HW2  332   0.776   2.347   1.717
  717SOL     OW  333   1.450   3.082   1.633
  717SOL    HW1  334   1.441   3.072   1.732
  717SOL    HW2  335   1.546   3.075   1.607
  719SOL     OW  336   1.674   2.745   1.254
  719SOL    HW1  337   1.647   2.656   1.217
  719SOL    HW2  338   1.675   2.813   1.181
  722SOL     OW  339   1.777   2.204   1.642
  722SOL    HW1  340   1.760   2.235   1.548
  722SOL    HW2  341   1.693   2.167   1.680
  723SOL     OW  342   1.730   2.796   1.517
  723SOL    HW1  343   1.768   2.887   1.532
  723SOL    HW2  344   1.722   2.779   1.418
  732SOL     OW  345   1.824   2.054   1.227
  732SOL    HW1  346   1.820   1.964   1.271
  732SOL    HW2  347   1.827   2.043   1.128
  734SOL     OW  348   1.705   3.349   1.104
  734SOL    HW1  349   1.612   3.324   1.077
  734SOL    HW2  350   1.731   3.299   1.186
  737SOL     OW  351   1.424   2.076   1.112
  737SOL    HW1  352   1.476   2.011   1.167
  737SOL    HW2  353   1.375   2.139   1.173
  743SOL     OW  354   1.593   2.083   0.882
  743SOL    HW1  355   1.509   2.082   0.936
  743SOL    HW2  356   1.595   2.166   0.826
  750SOL     OW  357   1.555   3.373   2.565
  750SOL    HW1  358   1.498   3.357   2.646
  750SOL    HW2  359   1.496   3.383   2.485
  751SOL     OW  360   1.135   2.565   2.579
  751SOL    HW1  361   1.192   2.643   2.554
  751SOL    HW2  362   1.075   2.591   2.655
  752SOL     OW  363   1.755   2.469   2.093
  752SOL    HW1  364   1.743   2.456   1.994
  752SOL    HW2  365   1.725   2.388   2.142
  753SOL     OW  366   0.768   3.006   2.885
  753SOL    HW1  367   0.690   3.023   2.945
  753SOL    HW2  368   0.802   3.093   2.849
  755SOL     OW  369   0.685   2.874   2.527
  755SOL    HW1  370   0.754   2.858   2.597
  755SOL    HW2  371   0.612   2.931   2.565
  758SOL     OW  372   1.460   3.367   3.201
  758SOL    HW1  373   1.484   3.461   3.227
  758SOL    HW2  374   1.444   3.313   3.283
  760SOL     OW  375   1.603   2.309   2.599
  760SOL    HW1  376   1.529   2.355   2.549
  760SOL    HW2  377   1.654   2.377   2.652
  767SOL     OW  378   1.594   1.976   3.342
  767SOL    HW1  379   1.576   2.043   3.270
  767SOL    HW2  380   1.591   2.022   3.431
  769SOL     OW  381   1.842   3.629   2.221
  769SOL    HW1  382   1.896   3.600   2.301
  769SOL    HW2  383   1.872   3.719   2.192
  771SOL     OW  384   1.689   2.784   2.474
  771SOL    HW1  385   1.784   2.755   2.482
  771SOL    HW2  386   1.681   2.849   2.399
  772SOL     OW  387   1.641   2.970   2.294
  772SOL    HW1  388   1.727   2.972   2.242
  772SOL    HW2  389   1.655   3.017   2.382
  775SOL     OW  390   1.293   3.090   3.285
  775SOL    HW1  391   1.330   3.017   3.227
  775SOL    HW2  392   1.345   3.095   3.370
  776SOL     OW  393   0.809   1.866   2.364
  776SOL    HW1  394   0.849   1.957   2.355
  776SOL    HW2  395   0.709   1.874   2.370
  778SOL     OW  396   1.525   2.861   2.052
  778SOL    HW1  397   1.462   2.785   2.065
  778SOL    HW2  398   1.573   2.879   2.138
  781SOL     OW  399   1.466   3.279   2.815
  781SOL    HW1  400   1.407   3.285   2.895
  781SOL    HW2  401   1.451   3.191   2.769
  782SOL     OW  402   1.667   3.576   2.434
  782SOL    HW1  403   1.626   3.553   2.346
  782SOL    HW2  404   1.649   3.502   2.499
  783SOL     OW  405   0.598   2.591   2.132
  783SOL    HW1  406   0.622   2.660   2.064
  783SOL    HW2  407   0.520   2.624   2.186
  784SOL     OW  408   1.281   2.207   2.806
  784SOL    HW1  409   1.195   2.157   2.793
  784SOL    HW2  410   1.343   2.153   2.862
  785SOL     OW  411   1.576   3.524   2.169
  785SOL    HW1  412   1.665   3.570   2.172
  785SOL    HW2  413   1.555   3.500   2.074
  787SOL     OW  414   1.394   2.331   3.536
  787SOL    HW1  415   1.374   2.374   3.624
  787SOL    HW2  416   1.472   2.269   3.545
  788SOL     OW  417   0.973   2.752   3.434
  788SOL    HW1  418   1.019   2.668   3.405
  788SOL    HW2  419   0.917   2.786   3.359
  789SOL     OW  420   0.991   2.272   3.104
  789SOL    HW1  421   0.914   2.306   3.158
  789SOL    HW2  422   0.957   2.221   3.025
  790SOL     OW  423   1.041   2.563   2.291
  790SOL    HW1  424   1.067   2.559   2.387
  790SOL    HW2  425   0.956   2.512   2.277
  793SOL     OW  426   0.865   2.210   2.057
  793SOL    HW1  427   0.924   2.273   2.008
  793SOL    HW2  428   0.884   2.116   2.028
  794SOL     OW  429   1.719   2.447   3.693
  794SOL    HW1  430   1.693   2.536   3.657
  794SOL    HW2  431   1.717   2.379   3.620
  795SOL     OW  432   1.362   3.006   2.407
  795SOL    HW1  433   1.445   2.977   2.359
  795SOL    HW2  434   1.313   3.073   2.351
  797SOL     OW  435   1.008   3.318   2.339
  797SOL    HW1  436   0.962   3.390   2.287
  797SOL    HW2  437   1.004   3.338   2.437
  799SOL     OW  438   1.795   2.928   2.735
  799SOL    HW1  439   1.733   2.913   2.659
  799SOL    HW2  440   1.743   2.939   2.820
  802SOL     OW  441   1.458   2.597   2.590
  802SOL    HW1  442   1.453   2.532   2.665
  802SOL    HW2  443   1.538   2.656   2.603
  806SOL     OW  444   1.632   3.239   1.943
  806SOL    HW1  445   1.600   3.333   1.933
  806SOL    HW2  446   1.556   3.176   1.931
  808SOL     OW  447   1.400   1.969   2.288
  808SOL    HW1  448   1.376   1.932   2.198
  808SOL    HW2  449   1.499   1.985   2.292
  812SOL     OW  450   1.547   2.084   3.591
  812SOL    HW1  451   1.542   2.121   3.683
  812SOL    HW2  452   1.475   2.015   3.579
  816SOL     OW  453   1.351   2.452   3.295
  816SOL    HW1  454   1.379   2.409   3.380
  816SOL    HW2  455   1.376   2.548   3.296
  818SOL     OW  456   0.922   2.365   2.761
  818SOL    HW1  457   0.897   2.356   2.665
  818SOL    HW2  458   0.970   2.283   2.792
  820SOL     OW  459   1.434   3.050   1.903
  820SOL    HW1  460   1.466   2.974   1.960
  820SOL    HW2  461   1.342   3.077   1.933
  822SOL     OW  462   0.935   2.098   2.342
  822SOL    HW1  463   0.887   2.139   2.264
  822SOL    HW2  464   1.034   2.096   2.323
  823SOL     OW  465   1.076   2.545   3.326
  823SOL    HW1  466   0.996   2.484   3.329
  823SOL    HW2  467   1.157   2.492   3.302
  824SOL     OW  468   1.227   3.432   2.655
  824SOL    HW1  469   1.248   3.506   2.590
  824SOL    HW2  470   1.295   3.432   2.728
  826SOL     OW  471   1.271   3.659   2.453
  826SOL    HW1  472   1.315   3.723   2.389
  826SOL    HW2  473   1.221   3.711   2.523
  827SOL     OW  474   1.032   2.411   1.878
  827SOL    HW1  475   0.991   2.493   1.839
  827SOL    HW2  476   1.096   2.437   1.951
  830SOL     OW  477   0.866   2.316   2.504
  830SOL    HW1  478   0.834   2.388   2.442
  830SOL    HW2  479   0.890   2.235   2.451
  831SOL     OW  480   1.017   1.901   2.615
  831SOL    HW1  481   0.945   1.906   2.546
  831SOL    HW2  482   0.993   1.832   2.684
  832SOL     OW  483   1.429   3.035   2.729
  832SOL    HW1  484   1.374   2.951   2.722
  832SOL    HW2  485   1.455   3.064   2.637
  833SOL     OW  486   1.466   2.452   2.854
  833SOL    HW1  487   1.436   2.357   2.861
  833SOL    HW2  488   1.539   2.468   2.920
  834SOL     OW  489   1.857   2.695   2.239
  834SOL    HW1  490   1.899   2.631   2.303
  834SOL    HW2  491   1.819   2.644   2.161
  836SOL     OW  492   1.664   3.142   2.519
  836SOL    HW1  493   1.763   3.150   2.533
  836SOL    HW2  494   1.619   3.226   2.550
  837SOL     OW  495   1.390   2.437   1.940
  837SOL    HW1  496   1.336   2.416   2.021
  837SOL    HW2  497   1.481   2.396   1.949
  839SOL     OW  498   1.754   3.085   3.450
  839SOL    HW1  499   1.845   3.046   3.437
  839SOL    HW2  500   1.762   3.181   3.474
  840SOL     OW  501   1.064   3.209   3.202
  840SOL    HW1  502   0.984   3.186   3.257
  840SOL    HW2  503   1.147   3.183   3.251
  841SOL     OW  504   1.592   3.491   3.487
  841SOL    HW1  505   1.619   3.525   3.397
  841SOL    HW2  506   1.671   3.453   3.533
  842SOL     OW  507   1.111   3.057   2.962
  842SOL    HW1  508   1.071   3.101   3.043
  842SOL    HW2  509   1.070   3.094   2.879
  843SOL     OW  510   1.638   2.961   2.941
  843SOL    HW1  511   1.643   3.042   3.000
  843SOL    HW2  512   1.552   2.963   2.890
  844SOL     OW  513   0.915   1.951   3.264
  844SOL    HW1  514   0.940   1.931   3.169
  844SOL    HW2  515   0.987   2.007   3.306
  846SOL     OW  516   0.705   2.912   2.230
  846SOL    HW1  517   0.691   2.919   2.329
  846SOL    HW2  518   0.789   2.861   2.212
  848SOL     OW  519   1.274   2.248   3.124
  848SOL    HW1  520   1.295   2.322   3.188
  848SOL    HW2  521   1.185   2.265   3.081
  852SOL     OW  522   1.252   3.210   2.250
  852SOL    HW1  523   1.302   3.287   2.290
  852SOL    HW2  524   1.157   3.212   2.282
  853SOL     OW  525   1.272   3.307   3.004
  853SOL    HW1  526   1.319   3.320   3.091
  853SOL    HW2  527   1.206   3.233   3.013
  854SOL     OW  528   1.582   2.501   2.334
  854SOL    HW1  529   1.551   2.562   2.407
  854SOL    HW2  530   1.632   2.553   2.265
  857SOL     OW  531   1.587   2.641   3.532
  857SOL    HW1  532   1.495   2.679   3.527
  857SOL    HW2  533   1.647   2.688   3.467
  861SOL     OW  534   1.360   2.724   2.907
  861SOL    HW1  535   1.285   2.724   2.841
  861SOL    HW2  536   1.397   2.632   2.916
  862SOL     OW  537   1.209   2.387   2.137
  862SOL    HW1  538   1.222   2.303   2.191
  862SOL    HW2  539   1.180   2.461   2.197
  865SOL     OW  540   0.732   2.496   2.926
  865SOL    HW1  541   0.791   2.470   2.850
  865SOL    HW2  542   0.704   2.592   2.915
  866SOL     OW  543   1.728   2.797   3.716
  866SOL    HW1  544   1.682   2.790   3.627
  866SOL    HW2  545   1.666   2.841   3.782
  868SOL     OW  546   1.622   2.229   2.236
  868SOL    HW1  547   1.624   2.153   2.300
  868SOL    HW2  548   1.574   2.306   2.276
  869SOL     OW  549   1.023   2.628   2.828
  869SOL    HW1  550   1.038   2.649   2.924
  869SOL    HW2  551   0.993   2.533   2.819
  871SOL     OW  552   1.859   3.380   3.467
  871SOL    HW1  553   1.873   3.407   3.372
  871SOL    HW2  554   1.942   3.402   3.520
  873SOL     OW  555   1.540   2.136   1.987
  873SOL    HW1  556   1.479   2.061   2.010
  873SOL    HW2  557   1.562   2.188   2.070
  874SOL     OW  558   1.303   2.700   1.904
  874SOL    HW1  559   1.337   2.607   1.919
  874SOL    HW2  560   1.321   2.727   1.809
  875SOL     OW  561   1.068   3.195   2.711
  875SOL    HW1  562   1.075   3.111   2.656
  875SOL    HW2  563   1.130   3.264   2.675
  878SOL     OW  564   1.138   2.242   3.540
  878SOL    HW1  565   1.093   2.305   3.604
  878SOL    HW2  566   1.231   2.273   3.523
  879SOL     OW  567   1.160   2.069   3.339
  879SOL    HW1  568   1.160   2.133   3.416
  879SOL    HW2  569   1.188   2.117   3.256
  883SOL     OW  570   1.002   2.658   3.100
  883SOL    HW1  571   1.043   2.626   3.186
  883SOL    HW2  572   0.906   2.631   3.097
  886SOL     OW  573   1.369   2.812   3.522
  886SOL    HW1  574   1.408   2.901   3.542
  886SOL    HW2  575   1.379   2.792   3.425
  887SOL     OW  576   0.815   2.434   2.187
  887SOL    HW1  577   0.822   2.345   2.141
  887SOL    HW2  578   0.721   2.468   2.179
  888SOL     OW  579   1.657   2.466   3.068
  888SOL    HW1  580   1.619   2.397   3.130
  888SOL    HW2  581   1.739   2.430   3.024
  894SOL     OW  582   1.347   2.921   3.096
  894SOL    HW1  583   1.371   2.858   3.022
  894SOL    HW2  584   1.257   2.961   3.078
  895SOL     OW  585   1.302   2.717   2.171
  895SOL    HW1  586   1.216   2.686   2.213
  895SOL    HW2  587   1.298   2.703   2.072
  896SOL     OW  588   1.759   3.609   3.016
  896SOL    HW1  589   1.820   3.639   2.943
  896SOL    HW2  590   1.721   3.520   2.994
  897SOL     OW  591   1.252   3.593   2.990
  897SOL    HW1  592   1.336   3.598   2.936
  897SOL    HW2  593   1.229   3.497   3.008
  900SOL     OW  594   1.726   1.997   2.385
  900SOL    HW1  595   1.799   1.980   2.318
  900SOL    HW2  596   1.695   1.910   2.423
  901SOL     OW  597   1.388   3.435   2.339
  901SOL    HW1  598   1.455   3.447   2.265
  901SOL    HW2  599   1.348   3.524   2.362
  903SOL     OW  600   1.280   2.789   2.534
  903SOL    HW1  601   1.340   2.708   2.536
  903SOL    HW2  602   1.320   2.858   2.474
  906SOL     OW  603   1.650   3.582   3.256
  906SOL    HW1  604   1.703   3.592   3.172
  906SOL    HW2  605   1.623   3.672   3.290
  907SOL     OW  606   1.841   2.037   2.825
  907SOL    HW1  607   1.880   1.952   2.789
  907SOL    HW2  608   1.743   2.039   2.806
  909SOL     OW  609   1.194   3.474   1.893
  909SOL    HW1  610   1.200   3.381   1.930
  909SOL    HW2  611   1.135   3.474   1.813
  911SOL     OW  612   0.916   2.772   2.153
  911SOL    HW1  613   0.979   2.810   2.085
  911SOL    HW2  614   0.956   2.689   2.192
  912SOL     OW  615   1.504   3.469   1.906
  912SOL    HW1  616   1.412   3.506   1.913
  912SOL    HW2  617   1.542   3.489   1.816
  914SOL     OW  618   1.614   3.154   3.151
  914SOL    HW1  619   1.674   3.157   3.231
  914SOL    HW2  620   1.539   3.218   3.164
  915SOL     OW  621   1.039   2.960   2.558
  915SOL    HW1  622   0.969   2.913   2.612
  915SOL    HW2  623   1.098   2.892   2.515
  916SOL     OW  624   1.014   2.098   2.833
  916SOL    HW1  625   1.006   2.062   2.740
  916SOL    HW2  626   1.012   2.022   2.898
  918SOL     OW  627   1.709   2.247   3.243
  918SOL    HW1  628   1.782   2.316   3.247
  918SOL    HW2  629   1.737   2.172   3.184
  923SOL     OW  630   1.440   2.718   3.260
  923SOL    HW1  631   1.383   2.770   3.197
  923SOL    HW2  632   1.536   2.730   3.236
  925SOL     OW  633   1.183   3.197   1.981
  925SOL    HW1  634   1.084   3.186   1.983
  925SOL    HW2  635   1.217   3.212   2.074
  927SOL     OW  636   1.493   3.629   2.821
  927SOL    HW1  637   1.526   3.693   2.752
  927SOL    HW2  638   1.559   3.623   2.896
  929SOL     OW  639   1.450   3.082   3.495
  929SOL    HW1  640   1.441   3.072   3.594
  929SOL    HW2  641   1.546   3.075   3.469
  931SOL     OW  642   1.674   2.745   3.116
  931SOL    HW1  643   1.647   2.656   3.079
  931SOL    HW2  644   1.675   2.813   3.043
  932SOL     OW  645   1.225   2.187   2.311
  932SOL    HW1  646   1.290   2.113   2.300
  932SOL    HW2  647   1.245   2.237   2.395
  933SOL     OW  648   0.594   2.607   2.514
  933SOL    HW1  649   0.644   2.692   2.495
  933SOL    HW2  650   0.506   2.609   2.466
  934SOL     OW  651   1.777   2.204   3.504
  934SOL    HW1  652   1.760   2.235   3.410
  934SOL    HW2  653   1.693   2.167   3.542
  935SOL     OW  654   1.730   2.796   3.379
  935SOL    HW1  655   1.768   2.887   3.394
  935SOL    HW2  656   1.722   2.779   3.280
  938SOL     OW  657   0.859   2.818   2.723
  938SOL    HW1  658   0.913   2.749   2.771
  938SOL    HW2  659   0.827   2.887   2.789
  939SOL     OW  660   1.083   2.846   1.949
  939SOL    HW1  661   1.060   2.899   1.867
  939SOL    HW2  662   1.164   2.790   1.930
  940SOL     OW  663   1.861   3.431   2.713
  940SOL    HW1  664   1.790   3.419   2.643
  940SOL    HW2  665   1.862   3.352   2.773
  944SOL     OW  666   1.824   2.054   3.089
  944SOL    HW1  667   1.820   1.964   3.133
  944SOL    HW2  668   1.827   2.043   2.990
  946SOL     OW  669   1.705   3.349   2.966
  946SOL    HW1  670   1.612   3.324   2.939
  946SOL    HW2  671   1.731   3.299   3.048
  949SOL     OW  672   1.424   2.076   2.974
  949SOL    HW1  673   1.476   2.011   3.029
  949SOL    HW2  674   1.375   2.139   3.035
  950SOL     OW  675   1.001   1.896   3.016
  950SOL    HW1  676   0.938   1.824   2.985
  950SOL    HW2  677   1.094   1.860   3.016
  953SOL     OW  678   1.352   1.914   2.030
  953SOL    HW1  679   1.387   1.873   1.946
  953SOL    HW2  680   1.262   1.876   2.050
  954SOL     OW  681   1.300   2.315   2.553
  954SOL    HW1  682   1.241   2.395   2.557
  954SOL    HW2  683   1.315   2.280   2.646
  955SOL     OW  684   1.593   2.083   2.744
  955SOL    HW1  685   1.509   2.082   2.798
  955SOL    HW2  686   1.595   2.166   2.688
  962SOL     OW  687   1.755   2.469   3.955
  962SOL    HW1  688   1.743   2.456   3.856
  962SOL    HW2  689   1.725   2.388   4.004
 1011SOL     OW  690   1.390   2.437   3.802
 1011SOL    HW1  691   1.336   2.416   3.883
 1011SOL    HW2  692   1.481   2.396   3.811
 1022SOL     OW  693   1.540   2.136   3.849
 1022SOL    HW1  694   1.479   2.061   3.872
 1022SOL    HW2  695   1.562   2.188   3.932
 1023SOL     OW  696   1.303   2.700   3.766
 1023SOL    HW1  697   1.337   2.607   3.781
 1023SOL    HW2  698   1.321   2.727   3.671
 1204SOL     OW  699   1.400   3.831   2.288
 1204SOL    HW1  700   1.376   3.794   2.198
 1204SOL    HW2  701   1.499   3.847   2.292
 1259SOL     OW  702   1.726   3.859   2.385
 1259SOL    HW1  703   1.799   3.842   2.318
 1259SOL    HW2  704   1.695   3.772   2.423
 1261SOL     OW  705   1.841   3.899   2.825
 1261SOL    HW1  706   1.880   3.814   2.789
 1261SOL    HW2  707   1.743   3.901   2.806
 1283SOL     OW  708   1.352   3.776   2.030
 1283SOL    HW1  709   1.387   3.735   1.946
 1283SOL    HW2  710   1.262   3.738   2.050
 1346SOL     OW  711   2.431   1.275   1.165
 1346SOL    HW1  712   2.338   1.268   1.128
 1346SOL    HW2  713   2.442   1.364   1.209
 1351SOL     OW  714   2.712   0.798   1.823
 1351SOL    HW1  715   2.708   0.874   1.888
 1351SOL    HW2  716   2.734   0.834   1.732
 1353SOL     OW  717   2.548   1.161   1.803
 1353SOL    HW1  718   2.608   1.240   1.817
 1353SOL    HW2  719   2.462   1.192   1.762
 1354SOL     OW  720   2.197   1.435   1.061
 1354SOL    HW1  721   2.119   1.404   1.008
 1354SOL    HW2  722   2.255   1.493   1.004
 1355SOL     OW  723   3.322   1.505   1.339
 1355SOL    HW1  724   3.346   1.599   1.365
 1355SOL    HW2  725   3.306   1.451   1.421
 1359SOL     OW  726   2.989   1.341   1.690
 1359SOL    HW1  727   3.036   1.341   1.778
 1359SOL    HW2  728   2.941   1.254   1.679
 1362SOL     OW  729   2.482   1.786   1.439
 1362SOL    HW1  730   2.390   1.769   1.474
 1362SOL    HW2  731   2.510   1.878   1.465
 1371SOL     OW  732   3.155   1.228   1.423
 1371SOL    HW1  733   3.192   1.155   1.365
 1371SOL    HW2  734   3.207   1.233   1.508
 1373SOL     OW  735   2.059   0.976   1.264
 1373SOL    HW1  736   2.148   0.931   1.250
 1373SOL    HW2  737   1.986   0.911   1.245
 1375SOL     OW  738   3.049   1.792   1.616
 1375SOL    HW1  739   3.073   1.852   1.540
 1375SOL    HW2  740   3.056   1.697   1.586
 1384SOL     OW  741   2.835   0.890   1.572
 1384SOL    HW1  742   2.881   0.806   1.543
 1384SOL    HW2  743   2.779   0.924   1.497
 1388SOL     OW  744   1.992   1.821   1.571
 1388SOL    HW1  745   1.982   1.806   1.670
 1388SOL    HW2  746   1.906   1.857   1.535
 1394SOL     OW  747   2.213   1.801   0.853
 1394SOL    HW1  748   2.263   1.715   0.859
 1394SOL    HW2  749   2.278   1.878   0.850
 1396SOL     OW  750   3.089   1.550   1.506
 1396SOL    HW1  751   3.095   1.473   1.570
 1396SOL    HW2  752   3.037   1.524   1.426
 1399SOL     OW  753   2.323   1.266   1.727
 1399SOL    HW1  754   2.273   1.267   1.641
 1399SOL    HW2  755   2.260   1.248   1.803
 1405SOL     OW  756   2.111   1.785   1.241
 1405SOL    HW1  757   2.168   1.720   1.291
 1405SOL    HW2  758   2.095   1.752   1.148
 1406SOL     OW  759   2.802   1.698   0.904
 1406SOL    HW1  760   2.882   1.641   0.925
 1406SOL    HW2  761   2.753   1.658   0.827
 1411SOL     OW  762   2.750   1.514   1.195
 1411SOL    HW1  763   2.727   1.489   1.101
 1411SOL    HW2  764   2.811   1.445   1.234
 1413SOL     OW  765   2.665   1.402   0.924
 1413SOL    HW1  766   2.755   1.416   0.882
 1413SOL    HW2  767   2.594   1.404   0.853
 1436SOL     OW  768   2.926   1.347   1.340
 1436SOL    HW1  769   2.846   1.324   1.395
 1436SOL    HW2  770   3.009   1.321   1.389
 1437SOL     OW  771   3.454   1.629   1.625
 1437SOL    HW1  772   3.481   1.663   1.535
 1437SOL    HW2  773   3.533   1.591   1.671
 1441SOL     OW  774   2.842   1.116   1.719
 1441SOL    HW1  775   2.743   1.122   1.729
 1441SOL    HW2  776   2.865   1.036   1.663
 1445SOL     OW  777   1.926   1.564   1.331
 1445SOL    HW1  778   1.880   1.646   1.297
 1445SOL    HW2  779   2.024   1.583   1.340
 1449SOL     OW  780   3.134   1.445   1.142
 1449SOL    HW1  781   3.181   1.458   1.229
 1449SOL    HW2  782   3.068   1.371   1.151
 1451SOL     OW  783   2.216   1.510   1.329
 1451SOL    HW1  784   2.195   1.466   1.242
 1451SOL    HW2  785   2.313   1.536   1.332
 1452SOL     OW  786   2.264   0.751   1.598
 1452SOL    HW1  787   2.332   0.806   1.551
 1452SOL    HW2  788   2.304   0.663   1.625
 1460SOL     OW  789   1.899   1.310   1.282
 1460SOL    HW1  790   1.952   1.261   1.350
 1460SOL    HW2  791   1.921   1.408   1.287
 1466SOL     OW  792   2.842   1.573   1.700
 1466SOL    HW1  793   2.822   1.617   1.612
 1466SOL    HW2  794   2.881   1.482   1.684
 1467SOL     OW  795   3.721   1.518   1.605
 1467SOL    HW1  796   3.735   1.545   1.510
 1467SOL    HW2  797   3.804   1.540   1.658
 1468SOL     OW  798   2.212   0.898   1.804
 1468SOL    HW1  799   2.288   0.942   1.852
 1468SOL    HW2  800   2.247   0.851   1.722
 1477SOL     OW  801   1.950   1.801   0.927
 1477SOL    HW1  802   1.908   1.715   0.900
 1477SOL    HW2  803   2.044   1.804   0.893
 1478SOL     OW  804   2.366   1.568   0.910
 1478SOL    HW1  805   2.432   1.642   0.919
 1478SOL    HW2  806   2.410   1.489   0.868
 1482SOL     OW  807   3.231   0.950   1.660
 1482SOL    HW1  808   3.270   1.039   1.680
 1482SOL    HW2  809   3.241   0.930   1.563
 1485SOL     OW  810   2.114   1.564   1.744
 1485SOL    HW1  811   2.084   1.621   1.820
 1485SOL    HW2  812   2.107   1.467   1.770
 1487SOL     OW  813   2.792   1.678   1.465
 1487SOL    HW1  814   2.768   1.660   1.370
 1487SOL    HW2  815   2.822   1.772   1.475
 1489SOL     OW  816   2.021   1.137   1.466
 1489SOL    HW1  817   2.043   1.076   1.542
 1489SOL    HW2  818   2.031   1.088   1.380
 1493SOL     OW  819   3.114   1.731   1.128
 1493SOL    HW1  820   3.198   1.736   1.074
 1493SOL    HW2  821   3.091   1.635   1.146
 1494SOL     OW  822   1.945   1.258   1.022
 1494SOL    HW1  823   1.940   1.257   1.122
 1494SOL    HW2  824   1.862   1.217   0.984
 1495SOL     OW  825   2.550   1.662   1.716
 1495SOL    HW1  826   2.494   1.743   1.725
 1495SOL    HW2  827   2.602   1.666   1.630
 1499SOL     OW  828   1.992   1.794   1.851
 1499SOL    HW1  829   1.951   1.720   1.904
 1499SOL    HW2  830   2.056   1.845   1.909
 1501SOL     OW  831   2.692   1.273   1.422
 1501SOL    HW1  832   2.687   1.306   1.517
 1501SOL    HW2  833   2.606   1.292   1.376
 1503SOL     OW  834   3.512   1.720   1.394
 1503SOL    HW1  835   3.565   1.730   1.310
 1503SOL    HW2  836   3.485   1.810   1.428
 1507SOL     OW  837   2.684   1.002   1.372
 1507SOL    HW1  838   2.724   1.001   1.280
 1507SOL    HW2  839   2.694   1.094   1.412
 1510SOL     OW  840   2.234   1.288   1.490
 1510SOL    HW1  841   2.221   1.381   1.456
 1510SOL    HW2  842   2.150   1.236   1.477
 1517SOL     OW  843   1.967   1.013   1.726
 1517SOL    HW1  844   1.890   0.980   1.780
 1517SOL    HW2  845   2.052   0.983   1.768
 1521SOL     OW  846   2.475   0.842   1.431
 1521SOL    HW1  847   2.531   0.923   1.414
 1521SOL    HW2  848   2.534   0.762   1.434
 1524SOL     OW  849   3.312   1.220   1.633
 1524SOL    HW1  850   3.303   1.210   1.732
 1524SOL    HW2  851   3.408   1.213   1.607
 1525SOL     OW  852   2.252   1.741   1.560
 1525SOL    HW1  853   2.161   1.782   1.558
 1525SOL    HW2  854   2.245   1.647   1.592
 1532SOL     OW  855   2.523   1.790   0.953
 1532SOL    HW1  856   2.477   1.878   0.940
 1532SOL    HW2  857   2.622   1.802   0.946
 1536SOL     OW  858   2.083   1.314   1.844
 1536SOL    HW1  859   2.018   1.241   1.823
 1536SOL    HW2  860   2.087   1.328   1.942
 1538SOL     OW  861   2.534   1.391   1.624
 1538SOL    HW1  862   2.456   1.341   1.662
 1538SOL    HW2  863   2.531   1.486   1.655
 1547SOL     OW  864   2.480   1.567   1.284
 1547SOL    HW1  865   2.475   1.649   1.341
 1547SOL    HW2  866   2.569   1.564   1.239
 1553SOL     OW  867   2.092   0.628   1.975
 1553SOL    HW1  868   1.999   0.626   2.012
 1553SOL    HW2  869   2.093   0.589   1.883
 1556SOL     OW  870   2.431   1.275   3.027
 1556SOL    HW1  871   2.338   1.268   2.990
 1556SOL    HW2  872   2.442   1.364   3.071
 1557SOL     OW  873   3.417   1.511   2.565
 1557SOL    HW1  874   3.360   1.495   2.646
 1557SOL    HW2  875   3.358   1.521   2.485
 1558SOL     OW  876   2.997   0.703   2.579
 1558SOL    HW1  877   3.054   0.781   2.554
 1558SOL    HW2  878   2.937   0.729   2.655
 1560SOL     OW  879   2.630   1.144   2.885
 1560SOL    HW1  880   2.552   1.161   2.945
 1560SOL    HW2  881   2.664   1.231   2.849
 1562SOL     OW  882   2.547   1.012   2.527
 1562SOL    HW1  883   2.616   0.996   2.597
 1562SOL    HW2  884   2.474   1.069   2.565
 1563SOL     OW  885   2.548   1.161   3.665
 1563SOL    HW1  886   2.608   1.240   3.679
 1563SOL    HW2  887   2.462   1.192   3.624
 1564SOL     OW  888   2.197   1.435   2.923
 1564SOL    HW1  889   2.119   1.404   2.870
 1564SOL    HW2  890   2.255   1.493   2.866
 1565SOL     OW  891   3.322   1.505   3.201
 1565SOL    HW1  892   3.346   1.599   3.227
 1565SOL    HW2  893   3.306   1.451   3.283
 1568SOL     OW  894   2.093   1.713   2.345
 1568SOL    HW1  895   2.127   1.790   2.399
 1568SOL    HW2  896   2.137   1.713   2.255
 1569SOL     OW  897   2.989   1.341   3.552
 1569SOL    HW1  898   3.036   1.341   3.640
 1569SOL    HW2  899   2.941   1.254   3.541
 1570SOL     OW  900   2.092   1.434   2.400
 1570SOL    HW1  901   2.066   1.530   2.400
 1570SOL    HW2  902   2.021   1.380   2.445
 1571SOL     OW  903   2.102   1.091   2.748
 1571SOL    HW1  904   2.116   1.007   2.800
 1571SOL    HW2  905   2.047   1.155   2.803
 1572SOL     OW  906   2.482   1.786   3.301
 1572SOL    HW1  907   2.390   1.769   3.336
 1572SOL    HW2  908   2.510   1.878   3.327
 1573SOL     OW  909   2.468   0.964   1.985
 1573SOL    HW1  910   2.475   1.048   1.931
 1573SOL    HW2  911   2.514   0.977   2.073
 1575SOL     OW  912   1.984   0.643   2.425
 1575SOL    HW1  913   1.939   0.555   2.442
 1575SOL    HW2  914   1.983   0.697   2.509
 1576SOL     OW  915   3.704   1.767   2.221
 1576SOL    HW1  916   3.758   1.738   2.301
 1576SOL    HW2  917   3.734   1.857   2.192
 1577SOL     OW  918   1.889   1.596   1.979
 1577SOL    HW1  919   1.870   1.500   2.000
 1577SOL    HW2  920   1.856   1.654   2.054
 1579SOL     OW  921   3.503   1.108   2.294
 1579SOL    HW1  922   3.589   1.110   2.242
 1579SOL    HW2  923   3.517   1.155   2.382
 1581SOL     OW  924   2.475   1.365   2.588
 1581SOL    HW1  925   2.426   1.278   2.597
 1581SOL    HW2  926   2.452   1.408   2.501
 1582SOL     OW  927   3.155   1.228   3.285
 1582SOL    HW1  928   3.192   1.155   3.227
 1582SOL    HW2  929   3.207   1.233   3.370
 1584SOL     OW  930   2.059   0.976   3.126
 1584SOL    HW1  931   2.148   0.931   3.112
 1584SOL    HW2  932   1.986   0.911   3.107
 1585SOL     OW  933   3.387   0.999   2.052
 1585SOL    HW1  934   3.324   0.923   2.065
 1585SOL    HW2  935   3.435   1.017   2.138
 1586SOL     OW  936   3.049   1.792   3.478
 1586SOL    HW1  937   3.073   1.852   3.402
 1586SOL    HW2  938   3.056   1.697   3.448
 1588SOL     OW  939   3.328   1.417   2.815
 1588SOL    HW1  940   3.269   1.423   2.895
 1588SOL    HW2  941   3.313   1.329   2.769
 1589SOL     OW  942   3.529   1.714   2.434
 1589SOL    HW1  943   3.488   1.691   2.346
 1589SOL    HW2  944   3.511   1.640   2.499
 1590SOL     OW  945   2.460   0.729   2.132
 1590SOL    HW1  946   2.484   0.798   2.064
 1590SOL    HW2  947   2.382   0.762   2.186
 1592SOL     OW  948   3.438   1.662   2.169
 1592SOL    HW1  949   3.527   1.708   2.172
 1592SOL    HW2  950   3.417   1.638   2.074
 1597SOL     OW  951   2.903   0.701   2.291
 1597SOL    HW1  952   2.929   0.697   2.387
 1597SOL    HW2  953   2.818   0.650   2.277
 1598SOL     OW  954   1.938   0.811   2.651
 1598SOL    HW1  955   2.037   0.799   2.660
 1598SOL    HW2  956   1.914   0.906   2.672
 1599SOL     OW  957   1.992   1.821   3.433
 1599SOL    HW1  958   1.982   1.806   3.532
 1599SOL    HW2  959   1.906   1.857   3.397
 1602SOL     OW  960   3.224   1.144   2.407
 1602SOL    HW1  961   3.307   1.115   2.359
 1602SOL    HW2  962   3.175   1.211   2.351
 1604SOL     OW  963   2.870   1.456   2.339
 1604SOL    HW1  964   2.824   1.528   2.287
 1604SOL    HW2  965   2.866   1.476   2.437
 1605SOL     OW  966   2.213   1.801   2.715
 1605SOL    HW1  967   2.263   1.715   2.721
 1605SOL    HW2  968   2.278   1.878   2.712
 1607SOL     OW  969   3.089   1.550   3.368
 1607SOL    HW1  970   3.095   1.473   3.432
 1607SOL    HW2  971   3.037   1.524   3.288
 1608SOL     OW  972   2.183   0.943   2.104
 1608SOL    HW1  973   2.265   0.982   2.062
 1608SOL    HW2  974   2.156   0.861   2.055
 1610SOL     OW  975   2.323   1.266   3.589
 1610SOL    HW1  976   2.273   1.267   3.503
 1610SOL    HW2  977   2.260   1.248   3.665
 1611SOL     OW  978   2.973   1.776   2.099
 1611SOL    HW1  979   2.913   1.714   2.149
 1611SOL    HW2  980   3.004   1.732   2.014
 1613SOL     OW  981   3.494   1.377   1.943
 1613SOL    HW1  982   3.462   1.471   1.933
 1613SOL    HW2  983   3.418   1.314   1.931
 1614SOL     OW  984   2.326   1.743   2.185
 1614SOL    HW1  985   2.359   1.782   2.271
 1614SOL    HW2  986   2.402   1.736   2.120
 1616SOL     OW  987   2.111   1.785   3.103
 1616SOL    HW1  988   2.168   1.720   3.153
 1616SOL    HW2  989   2.095   1.752   3.010
 1617SOL     OW  990   2.802   1.698   2.766
 1617SOL    HW1  991   2.882   1.641   2.787
 1617SOL    HW2  992   2.753   1.658   2.689
 1618SOL     OW  993   2.244   0.700   2.342
 1618SOL    HW1  994   2.289   0.610   2.339
 1618SOL    HW2  995   2.150   0.689   2.375
 1622SOL     OW  996   2.750   1.514   3.057
 1622SOL    HW1  997   2.727   1.489   2.963
 1622SOL    HW2  998   2.811   1.445   3.096
 1624SOL     OW  999   2.665   1.402   2.786
 1624SOL    HW1 1000   2.755   1.416   2.744
 1624SOL    HW2 1001   2.594   1.404   2.715
 1627SOL     OW 1002   3.296   1.188   1.903
 1627SOL    HW1 1003   3.328   1.112   1.960
 1627SOL    HW2 1004   3.204   1.215   1.933
 1631SOL     OW 1005   3.089   1.570   2.655
 1631SOL    HW1 1006   3.110   1.644   2.590
 1631SOL    HW2 1007   3.157   1.570   2.728
 1632SOL     OW 1008   2.321   1.152   2.603
 1632SOL    HW1 1009   2.250   1.125   2.668
 1632SOL    HW2 1010   2.295   1.124   2.510
 1633SOL     OW 1011   3.133   1.797   2.453
 1633SOL    HW1 1012   3.177   1.861   2.389
 1633SOL    HW2 1013   3.083   1.849   2.523
 1639SOL     OW 1014   3.291   1.173   2.729
 1639SOL    HW1 1015   3.236   1.089   2.722
 1639SOL    HW2 1016   3.317   1.202   2.637
 1642SOL     OW 1017   2.350   1.385   2.036
 1642SOL    HW1 1018   2.263   1.370   2.083
 1642SOL    HW2 1019   2.333   1.411   1.941
 1643SOL     OW 1020   3.526   1.280   2.519
 1643SOL    HW1 1021   3.625   1.288   2.533
 1643SOL    HW2 1022   3.481   1.364   2.550
 1647SOL     OW 1023   2.926   1.347   3.202
 1647SOL    HW1 1024   2.846   1.324   3.257
 1647SOL    HW2 1025   3.009   1.321   3.251
 1648SOL     OW 1026   3.454   1.629   3.487
 1648SOL    HW1 1027   3.481   1.663   3.397
 1648SOL    HW2 1028   3.533   1.591   3.533
 1649SOL     OW 1029   2.973   1.195   2.962
 1649SOL    HW1 1030   2.933   1.239   3.043
 1649SOL    HW2 1031   2.932   1.232   2.879
 1650SOL     OW 1032   3.500   1.099   2.941
 1650SOL    HW1 1033   3.505   1.180   3.000
 1650SOL    HW2 1034   3.414   1.101   2.890
 1653SOL     OW 1035   2.567   1.050   2.230
 1653SOL    HW1 1036   2.553   1.057   2.329
 1653SOL    HW2 1037   2.651   0.999   2.212
 1654SOL     OW 1038   2.272   0.813   3.113
 1654SOL    HW1 1039   2.358   0.825   3.163
 1654SOL    HW2 1040   2.230   0.726   3.140
 1656SOL     OW 1041   1.926   1.564   3.193
 1656SOL    HW1 1042   1.880   1.646   3.159
 1656SOL    HW2 1043   2.024   1.583   3.202
 1657SOL     OW 1044   2.229   1.100   2.363
 1657SOL    HW1 1045   2.222   1.183   2.307
 1657SOL    HW2 1046   2.233   1.020   2.303
 1659SOL     OW 1047   3.114   1.348   2.250
 1659SOL    HW1 1048   3.164   1.425   2.290
 1659SOL    HW2 1049   3.019   1.350   2.282
 1660SOL     OW 1050   3.134   1.445   3.004
 1660SOL    HW1 1051   3.181   1.458   3.091
 1660SOL    HW2 1052   3.068   1.371   3.013
 1662SOL     OW 1053   2.216   1.510   3.191
 1662SOL    HW1 1054   2.195   1.466   3.104
 1662SOL    HW2 1055   2.313   1.536   3.194
 1667SOL     OW 1056   2.435   0.870   2.891
 1667SOL    HW1 1057   2.479   0.959   2.882
 1667SOL    HW2 1058   2.372   0.870   2.968
 1671SOL     OW 1059   1.899   1.310   3.144
 1671SOL    HW1 1060   1.952   1.261   3.212
 1671SOL    HW2 1061   1.921   1.408   3.149
 1676SOL     OW 1062   2.885   0.766   2.828
 1676SOL    HW1 1063   2.900   0.787   2.924
 1676SOL    HW2 1064   2.855   0.671   2.819
 1677SOL     OW 1065   2.842   1.573   3.562
 1677SOL    HW1 1066   2.822   1.617   3.474
 1677SOL    HW2 1067   2.881   1.482   3.546
 1681SOL     OW 1068   3.165   0.838   1.904
 1681SOL    HW1 1069   3.199   0.745   1.919
 1681SOL    HW2 1070   3.183   0.865   1.809
 1682SOL     OW 1071   2.930   1.333   2.711
 1682SOL    HW1 1072   2.937   1.249   2.656
 1682SOL    HW2 1073   2.992   1.402   2.675
 1683SOL     OW 1074   2.181   0.810   2.811
 1683SOL    HW1 1075   2.274   0.846   2.816
 1683SOL    HW2 1076   2.175   0.725   2.863
 1687SOL     OW 1077   1.870   1.326   2.062
 1687SOL    HW1 1078   1.777   1.347   2.031
 1687SOL    HW2 1079   1.880   1.227   2.075
 1688SOL     OW 1080   1.950   1.801   2.789
 1688SOL    HW1 1081   1.908   1.715   2.762
 1688SOL    HW2 1082   2.044   1.804   2.755
 1689SOL     OW 1083   2.366   1.568   2.772
 1689SOL    HW1 1084   2.432   1.642   2.781
 1689SOL    HW2 1085   2.410   1.489   2.730
 1696SOL     OW 1086   2.114   1.564   3.606
 1696SOL    HW1 1087   2.084   1.621   3.682
 1696SOL    HW2 1088   2.107   1.467   3.632
 1698SOL     OW 1089   2.792   1.678   3.327
 1698SOL    HW1 1090   2.768   1.660   3.232
 1698SOL    HW2 1091   2.822   1.772   3.337
 1700SOL     OW 1092   2.021   1.137   3.328
 1700SOL    HW1 1093   2.043   1.076   3.404
 1700SOL    HW2 1094   2.031   1.088   3.242
 1701SOL     OW 1095   3.209   1.059   3.096
 1701SOL    HW1 1096   3.233   0.996   3.022
 1701SOL    HW2 1097   3.119   1.099   3.078
 1702SOL     OW 1098   3.164   0.855   2.171
 1702SOL    HW1 1099   3.078   0.824   2.213
 1702SOL    HW2 1100   3.160   0.841   2.072
 1703SOL     OW 1101   3.621   1.747   3.016
 1703SOL    HW1 1102   3.682   1.777   2.943
 1703SOL    HW2 1103   3.583   1.658   2.994
 1704SOL     OW 1104   3.114   1.731   2.990
 1704SOL    HW1 1105   3.198   1.736   2.936
 1704SOL    HW2 1106   3.091   1.635   3.008
 1705SOL     OW 1107   1.945   1.258   2.884
 1705SOL    HW1 1108   1.940   1.257   2.984
 1705SOL    HW2 1109   1.862   1.217   2.846
 1706SOL     OW 1110   2.550   1.662   3.578
 1706SOL    HW1 1111   2.494   1.743   3.587
 1706SOL    HW2 1112   2.602   1.666   3.492
 1708SOL     OW 1113   3.250   1.573   2.339
 1708SOL    HW1 1114   3.317   1.585   2.265
 1708SOL    HW2 1115   3.210   1.662   2.362
 1709SOL     OW 1116   1.992   1.794   3.713
 1709SOL    HW1 1117   1.951   1.720   3.766
 1709SOL    HW2 1118   2.056   1.845   3.771
 1710SOL     OW 1119   3.142   0.927   2.534
 1710SOL    HW1 1120   3.202   0.846   2.536
 1710SOL    HW2 1121   3.182   0.996   2.474
 1711SOL     OW 1122   2.692   1.273   3.284
 1711SOL    HW1 1123   2.687   1.306   3.379
 1711SOL    HW2 1124   2.606   1.292   3.238
 1712SOL     OW 1125   2.534   1.616   2.016
 1712SOL    HW1 1126   2.543   1.626   1.917
 1712SOL    HW2 1127   2.494   1.527   2.037
 1713SOL     OW 1128   3.512   1.720   3.256
 1713SOL    HW1 1129   3.565   1.730   3.172
 1713SOL    HW2 1130   3.485   1.810   3.290
 1716SOL     OW 1131   3.056   1.612   1.893
 1716SOL    HW1 1132   3.062   1.519   1.930
 1716SOL    HW2 1133   2.997   1.612   1.813
 1717SOL     OW 1134   2.684   1.002   3.234
 1717SOL    HW1 1135   2.724   1.001   3.142
 1717SOL    HW2 1136   2.694   1.094   3.274
 1718SOL     OW 1137   2.778   0.910   2.153
 1718SOL    HW1 1138   2.841   0.948   2.085
 1718SOL    HW2 1139   2.818   0.827   2.192
 1719SOL     OW 1140   3.366   1.607   1.906
 1719SOL    HW1 1141   3.274   1.644   1.913
 1719SOL    HW2 1142   3.404   1.627   1.816
 1720SOL     OW 1143   2.234   1.288   3.352
 1720SOL    HW1 1144   2.221   1.381   3.318
 1720SOL    HW2 1145   2.150   1.236   3.339
 1721SOL     OW 1146   3.476   1.292   3.151
 1721SOL    HW1 1147   3.536   1.295   3.231
 1721SOL    HW2 1148   3.401   1.356   3.164
 1722SOL     OW 1149   2.901   1.098   2.558
 1722SOL    HW1 1150   2.831   1.051   2.612
 1722SOL    HW2 1151   2.960   1.030   2.515
 1724SOL     OW 1152   2.452   1.487   2.353
 1724SOL    HW1 1153   2.494   1.429   2.283
 1724SOL    HW2 1154   2.408   1.566   2.309
 1726SOL     OW 1155   2.117   1.348   2.152
 1726SOL    HW1 1156   2.021   1.349   2.125
 1726SOL    HW2 1157   2.129   1.401   2.236
 1732SOL     OW 1158   3.045   1.335   1.981
 1732SOL    HW1 1159   2.946   1.324   1.983
 1732SOL    HW2 1160   3.079   1.350   2.074
 1733SOL     OW 1161   2.475   0.842   3.293
 1733SOL    HW1 1162   2.531   0.923   3.276
 1733SOL    HW2 1163   2.534   0.762   3.296
 1734SOL     OW 1164   3.355   1.767   2.821
 1734SOL    HW1 1165   3.388   1.831   2.752
 1734SOL    HW2 1166   3.421   1.761   2.896
 1737SOL     OW 1167   2.252   1.741   3.422
 1737SOL    HW1 1168   2.161   1.782   3.420
 1737SOL    HW2 1169   2.245   1.647   3.454
 1740SOL     OW 1170   2.456   0.745   2.514
 1740SOL    HW1 1171   2.506   0.830   2.495
 1740SOL    HW2 1172   2.368   0.747   2.466
 1743SOL     OW 1173   2.721   1.374   1.878
 1743SOL    HW1 1174   2.675   1.389   1.966
 1743SOL    HW2 1175   2.765   1.459   1.848
 1744SOL     OW 1176   2.523   1.790   2.815
 1744SOL    HW1 1177   2.477   1.878   2.802
 1744SOL    HW2 1178   2.622   1.802   2.808
 1745SOL     OW 1179   2.721   0.956   2.723
 1745SOL    HW1 1180   2.775   0.887   2.771
 1745SOL    HW2 1181   2.689   1.025   2.789
 1746SOL     OW 1182   2.945   0.984   1.949
 1746SOL    HW1 1183   2.922   1.037   1.867
 1746SOL    HW2 1184   3.026   0.928   1.930
 1747SOL     OW 1185   3.723   1.569   2.713
 1747SOL    HW1 1186   3.652   1.557   2.643
 1747SOL    HW2 1187   3.724   1.490   2.773
 1748SOL     OW 1188   2.083   1.314   3.706
 1748SOL    HW1 1189   2.018   1.241   3.685
 1748SOL    HW2 1190   2.087   1.328   3.804
 1749SOL     OW 1191   1.941   1.240   2.515
 1749SOL    HW1 1192   1.940   1.193   2.603
 1749SOL    HW2 1193   2.023   1.212   2.464
 1750SOL     OW 1194   2.534   1.391   3.486
 1750SOL    HW1 1195   2.456   1.341   3.524
 1750SOL    HW2 1196   2.531   1.486   3.517
 1753SOL     OW 1197   3.567   1.487   2.966
 1753SOL    HW1 1198   3.474   1.462   2.939
 1753SOL    HW2 1199   3.593   1.437   3.048
 1755SOL     OW 1200   2.674   1.586   2.549
 1755SOL    HW1 1201   2.706   1.596   2.455
 1755SOL    HW2 1202   2.595   1.524   2.551
 1758SOL     OW 1203   2.632   1.330   2.163
 1758SOL    HW1 1204   2.586   1.243   2.180
 1758SOL    HW2 1205   2.723   1.327   2.204
 1759SOL     OW 1206   2.480   1.567   3.146
 1759SOL    HW1 1207   2.475   1.649   3.203
 1759SOL    HW2 1208   2.569   1.564   3.101
 1763SOL     OW 1209   1.901   1.077   2.162
 1763SOL    HW1 1210   2.000   1.066   2.153
 1763SOL    HW2 1211   1.861   0.991   2.194
 1764SOL     OW 1212   2.737   1.646   2.199
 1764SOL    HW1 1213   2.660   1.611   2.145
 1764SOL    HW2 1214   2.705   1.717   2.261
 1779SOL     OW 1215   1.889   1.596   3.841
 1779SOL    HW1 1216   1.870   1.500   3.862
 1779SOL    HW2 1217   1.856   1.654   3.916
 1801SOL     OW 1218   2.326   1.743   4.047
 1801SOL    HW1 1219   2.359   1.782   4.133
 1801SOL    HW2 1220   2.402   1.736   3.982
 1843SOL     OW 1221   2.534   1.616   3.878
 1843SOL    HW1 1222   2.543   1.626   3.779
 1843SOL    HW2 1223   2.494   1.527   3.899
 1846SOL     OW 1224   3.056   1.612   3.755
 1846SOL    HW1 1225   3.062   1.519   3.792
 1846SOL    HW2 1226   2.997   1.612   3.675
 1858SOL     OW 1227   2.721   1.374   3.740
 1858SOL    HW1 1228   2.675   1.389   3.828
 1858SOL    HW2 1229   2.765   1.459   3.710
 1874SOL     OW 1230   2.087   2.137   0.996
 1874SOL    HW1 1231   2.122   2.120   1.088
 1874SOL    HW2 1232   1.999   2.092   0.984
 1875SOL     OW 1233   1.881   2.230   0.647
 1875SOL    HW1 1234   1.799   2.273   0.686
 1875SOL    HW2 1235   1.853   2.157   0.584
 1876SOL     OW 1236   2.431   3.137   1.165
 1876SOL    HW1 1237   2.338   3.130   1.128
 1876SOL    HW2 1238   2.442   3.226   1.209
 1878SOL     OW 1239   2.997   2.565   0.717
 1878SOL    HW1 1240   3.054   2.643   0.692
 1878SOL    HW2 1241   2.937   2.591   0.793
 1880SOL     OW 1242   2.630   3.006   1.023
 1880SOL    HW1 1243   2.552   3.023   1.083
 1880SOL    HW2 1244   2.664   3.093   0.987
 1881SOL     OW 1245   2.712   2.660   1.823
 1881SOL    HW1 1246   2.708   2.736   1.888
 1881SOL    HW2 1247   2.734   2.696   1.732
 1882SOL     OW 1248   2.547   2.874   0.665
 1882SOL    HW1 1249   2.616   2.858   0.735
 1882SOL    HW2 1250   2.474   2.931   0.703
 1883SOL     OW 1251   2.548   3.023   1.803
 1883SOL    HW1 1252   2.608   3.102   1.817
 1883SOL    HW2 1253   2.462   3.054   1.762
 1884SOL     OW 1254   2.197   3.297   1.061
 1884SOL    HW1 1255   2.119   3.266   1.008
 1884SOL    HW2 1256   2.255   3.355   1.004
 1885SOL     OW 1257   3.322   3.367   1.339
 1885SOL    HW1 1258   3.346   3.461   1.365
 1885SOL    HW2 1259   3.306   3.313   1.421
 1886SOL     OW 1260   2.300   2.254   1.499
 1886SOL    HW1 1261   2.382   2.198   1.508
 1886SOL    HW2 1262   2.219   2.196   1.503
 1889SOL     OW 1263   2.989   3.203   1.690
 1889SOL    HW1 1264   3.036   3.203   1.778
 1889SOL    HW2 1265   2.941   3.116   1.679
 1891SOL     OW 1266   2.102   2.953   0.886
 1891SOL    HW1 1267   2.116   2.869   0.938
 1891SOL    HW2 1268   2.047   3.017   0.941
 1892SOL     OW 1269   2.482   3.648   1.439
 1892SOL    HW1 1270   2.390   3.631   1.474
 1892SOL    HW2 1271   2.510   3.740   1.465
 1894SOL     OW 1272   3.456   1.976   1.480
 1894SOL    HW1 1273   3.438   2.043   1.408
 1894SOL    HW2 1274   3.453   2.022   1.569
 1899SOL     OW 1275   1.975   2.599   1.597
 1899SOL    HW1 1276   2.063   2.586   1.642
 1899SOL    HW2 1277   1.962   2.696   1.575
 1901SOL     OW 1278   3.155   3.090   1.423
 1901SOL    HW1 1279   3.192   3.017   1.365
 1901SOL    HW2 1280   3.207   3.095   1.508
 1903SOL     OW 1281   2.059   2.838   1.264
 1903SOL    HW1 1282   2.148   2.793   1.250
 1903SOL    HW2 1283   1.986   2.773   1.245
 1905SOL     OW 1284   3.049   3.654   1.616
 1905SOL    HW1 1285   3.073   3.714   1.540
 1905SOL    HW2 1286   3.056   3.559   1.586
 1906SOL     OW 1287   2.179   2.113   1.801
 1906SOL    HW1 1288   2.250   2.184   1.807
 1906SOL    HW2 1289   2.091   2.152   1.829
 1910SOL     OW 1290   3.143   2.207   0.944
 1910SOL    HW1 1291   3.057   2.157   0.931
 1910SOL    HW2 1292   3.205   2.153   1.000
 1912SOL     OW 1293   2.669   2.467   1.465
 1912SOL    HW1 1294   2.622   2.464   1.554
 1912SOL    HW2 1295   2.618   2.412   1.399
 1913SOL     OW 1296   3.256   2.331   1.674
 1913SOL    HW1 1297   3.236   2.374   1.762
 1913SOL    HW2 1298   3.334   2.269   1.683
 1914SOL     OW 1299   2.835   2.752   1.572
 1914SOL    HW1 1300   2.881   2.668   1.543
 1914SOL    HW2 1301   2.779   2.786   1.497
 1915SOL     OW 1302   2.853   2.272   1.242
 1915SOL    HW1 1303   2.776   2.306   1.296
 1915SOL    HW2 1304   2.819   2.221   1.163
 1917SOL     OW 1305   1.938   2.673   0.789
 1917SOL    HW1 1306   2.037   2.661   0.798
 1917SOL    HW2 1307   1.914   2.768   0.810
 1918SOL     OW 1308   1.992   3.683   1.571
 1918SOL    HW1 1309   1.982   3.668   1.670
 1918SOL    HW2 1310   1.906   3.719   1.535
 1920SOL     OW 1311   3.581   2.447   1.831
 1920SOL    HW1 1312   3.555   2.536   1.795
 1920SOL    HW2 1313   3.579   2.379   1.758
 1922SOL     OW 1314   2.412   2.058   0.885
 1922SOL    HW1 1315   2.407   2.053   0.985
 1922SOL    HW2 1316   2.414   2.154   0.856
 1926SOL     OW 1317   3.089   3.412   1.506
 1926SOL    HW1 1318   3.095   3.335   1.570
 1926SOL    HW2 1319   3.037   3.386   1.426
 1929SOL     OW 1320   2.323   3.128   1.727
 1929SOL    HW1 1321   2.273   3.129   1.641
 1929SOL    HW2 1322   2.260   3.110   1.803
 1931SOL     OW 1323   2.064   2.147   1.498
 1931SOL    HW1 1324   1.984   2.207   1.485
 1931SOL    HW2 1325   2.054   2.098   1.584
 1935SOL     OW 1326   2.111   3.647   1.241
 1935SOL    HW1 1327   2.168   3.582   1.291
 1935SOL    HW2 1328   2.095   3.614   1.148
 1938SOL     OW 1329   3.409   2.084   1.729
 1938SOL    HW1 1330   3.404   2.121   1.821
 1938SOL    HW2 1331   3.337   2.015   1.717
 1939SOL     OW 1332   2.643   2.126   1.749
 1939SOL    HW1 1333   2.710   2.065   1.792
 1939SOL    HW2 1334   2.570   2.145   1.814
 1940SOL     OW 1335   2.750   3.376   1.195
 1940SOL    HW1 1336   2.727   3.351   1.101
 1940SOL    HW2 1337   2.811   3.307   1.234
 1941SOL     OW 1338   3.213   2.452   1.433
 1941SOL    HW1 1339   3.241   2.409   1.518
 1941SOL    HW2 1340   3.238   2.548   1.434
 1942SOL     OW 1341   2.665   3.264   0.924
 1942SOL    HW1 1342   2.755   3.278   0.882
 1942SOL    HW2 1343   2.594   3.266   0.853
 1943SOL     OW 1344   2.784   2.365   0.899
 1943SOL    HW1 1345   2.759   2.356   0.803
 1943SOL    HW2 1346   2.832   2.283   0.930
 1948SOL     OW 1347   2.938   2.545   1.464
 1948SOL    HW1 1348   2.858   2.484   1.467
 1948SOL    HW2 1349   3.019   2.492   1.440
 1950SOL     OW 1350   2.321   3.014   0.741
 1950SOL    HW1 1351   2.250   2.987   0.806
 1950SOL    HW2 1352   2.295   2.986   0.648
 1953SOL     OW 1353   1.940   2.418   1.386
 1953SOL    HW1 1354   2.032   2.417   1.345
 1953SOL    HW2 1355   1.934   2.492   1.453
 1954SOL     OW 1356   2.423   2.084   1.147
 1954SOL    HW1 1357   2.461   2.000   1.184
 1954SOL    HW2 1358   2.335   2.103   1.191
 1955SOL     OW 1359   2.728   2.316   0.642
 1955SOL    HW1 1360   2.696   2.388   0.580
 1955SOL    HW2 1361   2.752   2.235   0.589
 1956SOL     OW 1362   2.879   1.901   0.753
 1956SOL    HW1 1363   2.807   1.906   0.684
 1956SOL    HW2 1364   2.855   1.832   0.822
 1958SOL     OW 1365   3.328   2.452   0.992
 1958SOL    HW1 1366   3.298   2.357   0.999
 1958SOL    HW2 1367   3.401   2.468   1.058
 1964SOL     OW 1368   3.616   3.085   1.588
 1964SOL    HW1 1369   3.707   3.046   1.575
 1964SOL    HW2 1370   3.624   3.181   1.612
 1965SOL     OW 1371   2.926   3.209   1.340
 1965SOL    HW1 1372   2.846   3.186   1.395
 1965SOL    HW2 1373   3.009   3.183   1.389
 1966SOL     OW 1374   3.454   3.491   1.625
 1966SOL    HW1 1375   3.481   3.525   1.535
 1966SOL    HW2 1376   3.533   3.453   1.671
 1967SOL     OW 1377   2.973   3.057   1.100
 1967SOL    HW1 1378   2.933   3.101   1.181
 1967SOL    HW2 1379   2.932   3.094   1.017
 1969SOL     OW 1380   2.777   1.951   1.402
 1969SOL    HW1 1381   2.802   1.931   1.307
 1969SOL    HW2 1382   2.849   2.007   1.444
 1970SOL     OW 1383   2.842   2.978   1.719
 1970SOL    HW1 1384   2.743   2.984   1.729
 1970SOL    HW2 1385   2.865   2.898   1.663
 1972SOL     OW 1386   2.272   2.675   1.251
 1972SOL    HW1 1387   2.358   2.687   1.301
 1972SOL    HW2 1388   2.230   2.588   1.278
 1973SOL     OW 1389   3.136   2.248   1.262
 1973SOL    HW1 1390   3.157   2.322   1.326
 1973SOL    HW2 1391   3.047   2.265   1.219
 1974SOL     OW 1392   1.926   3.426   1.331
 1974SOL    HW1 1393   1.880   3.508   1.297
 1974SOL    HW2 1394   2.024   3.445   1.340
 1976SOL     OW 1395   2.428   2.399   0.865
 1976SOL    HW1 1396   2.440   2.465   0.791
 1976SOL    HW2 1397   2.474   2.433   0.948
 1978SOL     OW 1398   3.134   3.307   1.142
 1978SOL    HW1 1399   3.181   3.320   1.229
 1978SOL    HW2 1400   3.068   3.233   1.151
 1980SOL     OW 1401   2.216   3.372   1.329
 1980SOL    HW1 1402   2.195   3.328   1.242
 1980SOL    HW2 1403   2.313   3.398   1.332
 1981SOL     OW 1404   2.264   2.613   1.598
 1981SOL    HW1 1405   2.332   2.668   1.551
 1981SOL    HW2 1406   2.304   2.525   1.625
 1982SOL     OW 1407   3.449   2.641   1.670
 1982SOL    HW1 1408   3.357   2.679   1.665
 1982SOL    HW2 1409   3.509   2.688   1.605
 1983SOL     OW 1410   2.875   1.967   1.770
 1983SOL    HW1 1411   2.881   2.052   1.718
 1983SOL    HW2 1412   2.907   1.891   1.713
 1984SOL     OW 1413   2.366   1.912   1.740
 1984SOL    HW1 1414   2.324   1.855   1.670
 1984SOL    HW2 1415   2.300   1.981   1.772
 1985SOL     OW 1416   2.435   2.732   1.029
 1985SOL    HW1 1417   2.479   2.821   1.020
 1985SOL    HW2 1418   2.372   2.732   1.106
 1986SOL     OW 1419   3.222   2.724   1.045
 1986SOL    HW1 1420   3.147   2.724   0.979
 1986SOL    HW2 1421   3.259   2.632   1.054
 1988SOL     OW 1422   2.169   2.075   1.231
 1988SOL    HW1 1423   2.146   2.112   1.321
 1988SOL    HW2 1424   2.139   1.980   1.225
 1989SOL     OW 1425   1.899   3.172   1.282
 1989SOL    HW1 1426   1.952   3.123   1.350
 1989SOL    HW2 1427   1.921   3.270   1.287
 1990SOL     OW 1428   2.594   2.496   1.064
 1990SOL    HW1 1429   2.653   2.470   0.988
 1990SOL    HW2 1430   2.566   2.592   1.053
 1991SOL     OW 1431   3.590   2.797   1.854
 1991SOL    HW1 1432   3.544   2.790   1.765
 1991SOL    HW2 1433   3.528   2.841   1.920
 1992SOL     OW 1434   2.169   1.925   0.618
 1992SOL    HW1 1435   2.158   2.019   0.651
 1992SOL    HW2 1436   2.164   1.862   0.695
 1994SOL     OW 1437   2.885   2.628   0.966
 1994SOL    HW1 1438   2.900   2.649   1.062
 1994SOL    HW2 1439   2.855   2.533   0.957
 1995SOL     OW 1440   2.842   3.435   1.700
 1995SOL    HW1 1441   2.822   3.479   1.612
 1995SOL    HW2 1442   2.881   3.344   1.684
 1997SOL     OW 1443   2.212   2.760   1.804
 1997SOL    HW1 1444   2.288   2.804   1.852
 1997SOL    HW2 1445   2.247   2.713   1.722
 2001SOL     OW 1446   2.181   2.672   0.949
 2001SOL    HW1 1447   2.274   2.708   0.954
 2001SOL    HW2 1448   2.175   2.587   1.001
 2002SOL     OW 1449   2.201   2.371   1.006
 2002SOL    HW1 1450   2.149   2.288   0.989
 2002SOL    HW2 1451   2.278   2.376   0.942
 2003SOL     OW 1452   3.000   2.242   1.678
 2003SOL    HW1 1453   2.955   2.305   1.742
 2003SOL    HW2 1454   3.093   2.273   1.661
 2004SOL     OW 1455   3.022   2.069   1.477
 2004SOL    HW1 1456   3.022   2.133   1.554
 2004SOL    HW2 1457   3.050   2.117   1.394
 2008SOL     OW 1458   2.864   2.658   1.238
 2008SOL    HW1 1459   2.905   2.626   1.324
 2008SOL    HW2 1460   2.768   2.631   1.235
 2009SOL     OW 1461   1.902   2.406   1.114
 2009SOL    HW1 1462   1.987   2.373   1.073
 2009SOL    HW2 1463   1.915   2.421   1.212
 2010SOL     OW 1464   2.051   2.382   1.722
 2010SOL    HW1 1465   2.110   2.342   1.652
 2010SOL    HW2 1466   1.993   2.453   1.681
 2011SOL     OW 1467   3.231   2.812   1.660
 2011SOL    HW1 1468   3.270   2.901   1.680
 2011SOL    HW2 1469   3.241   2.792   1.563
 2013SOL     OW 1470   3.519   2.466   1.206
 2013SOL    HW1 1471   3.481   2.397   1.268
 2013SOL    HW2 1472   3.601   2.430   1.162
 2014SOL     OW 1473   2.114   3.426   1.744
 2014SOL    HW1 1474   2.084   3.483   1.820
 2014SOL    HW2 1475   2.107   3.329   1.770
 2015SOL     OW 1476   2.533   2.326   1.269
 2015SOL    HW1 1477   2.499   2.237   1.239
 2015SOL    HW2 1478   2.559   2.380   1.189
 2016SOL     OW 1479   2.792   3.540   1.465
 2016SOL    HW1 1480   2.768   3.522   1.370
 2016SOL    HW2 1481   2.822   3.634   1.475
 2018SOL     OW 1482   2.021   2.999   1.466
 2018SOL    HW1 1483   2.043   2.938   1.542
 2018SOL    HW2 1484   2.031   2.950   1.380
 2019SOL     OW 1485   3.209   2.921   1.234
 2019SOL    HW1 1486   3.233   2.858   1.160
 2019SOL    HW2 1487   3.119   2.961   1.216
 2023SOL     OW 1488   1.945   3.120   1.022
 2023SOL    HW1 1489   1.940   3.119   1.122
 2023SOL    HW2 1490   1.862   3.079   0.984
 2024SOL     OW 1491   2.550   3.524   1.716
 2024SOL    HW1 1492   2.494   3.605   1.725
 2024SOL    HW2 1493   2.602   3.528   1.630
 2028SOL     OW 1494   1.992   3.656   1.851
 2028SOL    HW1 1495   1.951   3.582   1.904
 2028SOL    HW2 1496   2.056   3.707   1.909
 2030SOL     OW 1497   2.692   3.135   1.422
 2030SOL    HW1 1498   2.687   3.168   1.517
 2030SOL    HW2 1499   2.606   3.154   1.376
 2034SOL     OW 1500   2.125   2.188   0.720
 2034SOL    HW1 1501   2.046   2.239   0.686
 2034SOL    HW2 1502   2.116   2.173   0.818
 2036SOL     OW 1503   2.684   2.864   1.372
 2036SOL    HW1 1504   2.724   2.863   1.280
 2036SOL    HW2 1505   2.694   2.956   1.412
 2039SOL     OW 1506   2.234   3.150   1.490
 2039SOL    HW1 1507   2.221   3.243   1.456
 2039SOL    HW2 1508   2.150   3.098   1.477
 2040SOL     OW 1509   3.476   3.154   1.289
 2040SOL    HW1 1510   3.536   3.157   1.369
 2040SOL    HW2 1511   3.401   3.218   1.302
 2042SOL     OW 1512   2.876   2.098   0.971
 2042SOL    HW1 1513   2.868   2.062   0.878
 2042SOL    HW2 1514   2.874   2.022   1.036
 2044SOL     OW 1515   3.571   2.247   1.381
 2044SOL    HW1 1516   3.644   2.316   1.385
 2044SOL    HW2 1517   3.599   2.172   1.322
 2046SOL     OW 1518   1.967   2.875   1.726
 2046SOL    HW1 1519   1.890   2.842   1.780
 2046SOL    HW2 1520   2.052   2.845   1.768
 2047SOL     OW 1521   2.534   2.065   1.489
 2047SOL    HW1 1522   2.624   2.049   1.449
 2047SOL    HW2 1523   2.542   2.070   1.588
 2048SOL     OW 1524   3.302   2.718   1.398
 2048SOL    HW1 1525   3.245   2.770   1.335
 2048SOL    HW2 1526   3.398   2.730   1.374
 2051SOL     OW 1527   2.475   2.704   1.431
 2051SOL    HW1 1528   2.531   2.785   1.414
 2051SOL    HW2 1529   2.534   2.624   1.434
 2053SOL     OW 1530   2.578   2.427   1.708
 2053SOL    HW1 1531   2.597   2.492   1.782
 2053SOL    HW2 1532   2.638   2.347   1.717
 2054SOL     OW 1533   3.312   3.082   1.633
 2054SOL    HW1 1534   3.303   3.072   1.732
 2054SOL    HW2 1535   3.408   3.075   1.607
 2055SOL     OW 1536   2.252   3.603   1.560
 2055SOL    HW1 1537   2.161   3.644   1.558
 2055SOL    HW2 1538   2.245   3.509   1.592
 2056SOL     OW 1539   3.536   2.745   1.254
 2056SOL    HW1 1540   3.509   2.656   1.217
 2056SOL    HW2 1541   3.537   2.813   1.181
 2058SOL     OW 1542   2.456   2.607   0.652
 2058SOL    HW1 1543   2.506   2.692   0.633
 2058SOL    HW2 1544   2.368   2.609   0.604
 2059SOL     OW 1545   3.639   2.204   1.642
 2059SOL    HW1 1546   3.622   2.235   1.548
 2059SOL    HW2 1547   3.555   2.167   1.680
 2060SOL     OW 1548   3.592   2.796   1.517
 2060SOL    HW1 1549   3.630   2.887   1.532
 2060SOL    HW2 1550   3.584   2.779   1.418
 2063SOL     OW 1551   2.721   2.818   0.861
 2063SOL    HW1 1552   2.775   2.749   0.909
 2063SOL    HW2 1553   2.689   2.887   0.927
 2066SOL     OW 1554   2.083   3.176   1.844
 2066SOL    HW1 1555   2.018   3.103   1.823
 2066SOL    HW2 1556   2.087   3.190   1.942
 2068SOL     OW 1557   2.534   3.253   1.624
 2068SOL    HW1 1558   2.456   3.203   1.662
 2068SOL    HW2 1559   2.531   3.348   1.655
 2069SOL     OW 1560   3.686   2.054   1.227
 2069SOL    HW1 1561   3.682   1.964   1.271
 2069SOL    HW2 1562   3.689   2.043   1.128
 2072SOL     OW 1563   2.179   2.409   1.280
 2072SOL    HW1 1564   2.217   2.350   1.352
 2072SOL    HW2 1565   2.219   2.383   1.192
 2074SOL     OW 1566   3.286   2.076   1.112
 2074SOL    HW1 1567   3.338   2.011   1.167
 2074SOL    HW2 1568   3.237   2.139   1.173
 2075SOL     OW 1569   2.863   1.896   1.154
 2075SOL    HW1 1570   2.800   1.824   1.123
 2075SOL    HW2 1571   2.956   1.860   1.154
 2077SOL     OW 1572   2.480   3.429   1.284
 2077SOL    HW1 1573   2.475   3.511   1.341
 2077SOL    HW2 1574   2.569   3.426   1.239
 2083SOL     OW 1575   2.087   2.137   2.858
 2083SOL    HW1 1576   2.122   2.120   2.950
 2083SOL    HW2 1577   1.999   2.092   2.846
 2084SOL     OW 1578   1.881   2.230   2.509
 2084SOL    HW1 1579   1.799   2.273   2.548
 2084SOL    HW2 1580   1.853   2.157   2.446
 2085SOL     OW 1581   2.431   3.137   3.027
 2085SOL    HW1 1582   2.338   3.130   2.990
 2085SOL    HW2 1583   2.442   3.226   3.071
 2086SOL     OW 1584   3.417   3.373   2.565
 2086SOL    HW1 1585   3.360   3.357   2.646
 2086SOL    HW2 1586   3.358   3.383   2.485
 2087SOL     OW 1587   2.997   2.565   2.579
 2087SOL    HW1 1588   3.054   2.643   2.554
 2087SOL    HW2 1589   2.937   2.591   2.655
 2088SOL     OW 1590   3.617   2.469   2.093
 2088SOL    HW1 1591   3.605   2.456   1.994
 2088SOL    HW2 1592   3.587   2.388   2.142
 2089SOL     OW 1593   2.630   3.006   2.885
 2089SOL    HW1 1594   2.552   3.023   2.945
 2089SOL    HW2 1595   2.664   3.093   2.849
 2090SOL     OW 1596   2.712   2.660   3.685
 2090SOL    HW1 1597   2.708   2.736   3.750
 2090SOL    HW2 1598   2.734   2.696   3.594
 2091SOL     OW 1599   2.547   2.874   2.527
 2091SOL    HW1 1600   2.616   2.858   2.597
 2091SOL    HW2 1601   2.474   2.931   2.565
 2092SOL     OW 1602   2.548   3.023   3.665
 2092SOL    HW1 1603   2.608   3.102   3.679
 2092SOL    HW2 1604   2.462   3.054   3.624
 2093SOL     OW 1605   2.197   3.297   2.923
 2093SOL    HW1 1606   2.119   3.266   2.870
 2093SOL    HW2 1607   2.255   3.355   2.866
 2094SOL     OW 1608   3.322   3.367   3.201
 2094SOL    HW1 1609   3.346   3.461   3.227
 2094SOL    HW2 1610   3.306   3.313   3.283
 2095SOL     OW 1611   2.300   2.254   3.361
 2095SOL    HW1 1612   2.382   2.198   3.370
 2095SOL    HW2 1613   2.219   2.196   3.365
 2096SOL     OW 1614   3.465   2.309   2.599
 2096SOL    HW1 1615   3.391   2.355   2.549
 2096SOL    HW2 1616   3.516   2.377   2.652
 2097SOL     OW 1617   2.093   3.575   2.345
 2097SOL    HW1 1618   2.127   3.652   2.399
 2097SOL    HW2 1619   2.137   3.575   2.255
 2098SOL     OW 1620   2.989   3.203   3.552
 2098SOL    HW1 1621   3.036   3.203   3.640
 2098SOL    HW2 1622   2.941   3.116   3.541
 2099SOL     OW 1623   2.092   3.296   2.400
 2099SOL    HW1 1624   2.066   3.392   2.400
 2099SOL    HW2 1625   2.021   3.242   2.445
 2100SOL     OW 1626   2.102   2.953   2.748
 2100SOL    HW1 1627   2.116   2.869   2.800
 2100SOL    HW2 1628   2.047   3.017   2.803
 2101SOL     OW 1629   2.482   3.648   3.301
 2101SOL    HW1 1630   2.390   3.631   3.336
 2101SOL    HW2 1631   2.510   3.740   3.327
 2102SOL     OW 1632   2.468   2.826   1.985
 2102SOL    HW1 1633   2.475   2.910   1.931
 2102SOL    HW2 1634   2.514   2.839   2.073
 2103SOL     OW 1635   3.456   1.976   3.342
 2103SOL    HW1 1636   3.438   2.043   3.270
 2103SOL    HW2 1637   3.453   2.022   3.431
 2104SOL     OW 1638   1.984   2.505   2.425
 2104SOL    HW1 1639   1.939   2.417   2.442
 2104SOL    HW2 1640   1.983   2.559   2.509
 2106SOL     OW 1641   1.889   3.458   1.979
 2106SOL    HW1 1642   1.870   3.362   2.000
 2106SOL    HW2 1643   1.856   3.516   2.054
 2107SOL     OW 1644   3.551   2.784   2.474
 2107SOL    HW1 1645   3.646   2.755   2.482
 2107SOL    HW2 1646   3.543   2.849   2.399
 2108SOL     OW 1647   3.503   2.970   2.294
 2108SOL    HW1 1648   3.589   2.972   2.242
 2108SOL    HW2 1649   3.517   3.017   2.382
 2109SOL     OW 1650   1.975   2.599   3.459
 2109SOL    HW1 1651   2.063   2.586   3.504
 2109SOL    HW2 1652   1.962   2.696   3.437
 2110SOL     OW 1653   2.475   3.227   2.588
 2110SOL    HW1 1654   2.426   3.140   2.597
 2110SOL    HW2 1655   2.452   3.270   2.501
 2111SOL     OW 1656   3.155   3.090   3.285
 2111SOL    HW1 1657   3.192   3.017   3.227
 2111SOL    HW2 1658   3.207   3.095   3.370
 2112SOL     OW 1659   2.671   1.866   2.364
 2112SOL    HW1 1660   2.711   1.957   2.355
 2112SOL    HW2 1661   2.571   1.874   2.370
 2113SOL     OW 1662   2.059   2.838   3.126
 2113SOL    HW1 1663   2.148   2.793   3.112
 2113SOL    HW2 1664   1.986   2.773   3.107
 2114SOL     OW 1665   3.387   2.861   2.052
 2114SOL    HW1 1666   3.324   2.785   2.065
 2114SOL    HW2 1667   3.435   2.879   2.138
 2116SOL     OW 1668   2.179   2.113   3.663
 2116SOL    HW1 1669   2.250   2.184   3.669
 2116SOL    HW2 1670   2.091   2.152   3.691
 2117SOL     OW 1671   3.328   3.279   2.815
 2117SOL    HW1 1672   3.269   3.285   2.895
 2117SOL    HW2 1673   3.313   3.191   2.769
 2118SOL     OW 1674   3.529   3.576   2.434
 2118SOL    HW1 1675   3.488   3.553   2.346
 2118SOL    HW2 1676   3.511   3.502   2.499
 2119SOL     OW 1677   3.143   2.207   2.806
 2119SOL    HW1 1678   3.057   2.157   2.793
 2119SOL    HW2 1679   3.205   2.153   2.862
 2120SOL     OW 1680   3.438   3.524   2.169
 2120SOL    HW1 1681   3.527   3.570   2.172
 2120SOL    HW2 1682   3.417   3.500   2.074
 2121SOL     OW 1683   2.669   2.467   3.327
 2121SOL    HW1 1684   2.622   2.464   3.416
 2121SOL    HW2 1685   2.618   2.412   3.261
 2122SOL     OW 1686   3.256   2.331   3.536
 2122SOL    HW1 1687   3.236   2.374   3.624
 2122SOL    HW2 1688   3.334   2.269   3.545
 2123SOL     OW 1689   2.835   2.752   3.434
 2123SOL    HW1 1690   2.881   2.668   3.405
 2123SOL    HW2 1691   2.779   2.786   3.359
 2124SOL     OW 1692   2.853   2.272   3.104
 2124SOL    HW1 1693   2.776   2.306   3.158
 2124SOL    HW2 1694   2.819   2.221   3.025
 2125SOL     OW 1695   2.903   2.563   2.291
 2125SOL    HW1 1696   2.929   2.559   2.387
 2125SOL    HW2 1697   2.818   2.512   2.277
 2126SOL     OW 1698   1.938   2.673   2.651
 2126SOL    HW1 1699   2.037   2.661   2.660
 2126SOL    HW2 1700   1.914   2.768   2.672
 2127SOL     OW 1701   1.992   3.683   3.433
 2127SOL    HW1 1702   1.982   3.668   3.532
 2127SOL    HW2 1703   1.906   3.719   3.397
 2128SOL     OW 1704   2.727   2.210   2.057
 2128SOL    HW1 1705   2.786   2.273   2.008
 2128SOL    HW2 1706   2.746   2.116   2.028
 2130SOL     OW 1707   3.224   3.006   2.407
 2130SOL    HW1 1708   3.307   2.977   2.359
 2130SOL    HW2 1709   3.175   3.073   2.351
 2131SOL     OW 1710   2.412   2.058   2.747
 2131SOL    HW1 1711   2.407   2.053   2.847
 2131SOL    HW2 1712   2.414   2.154   2.718
 2132SOL     OW 1713   2.870   3.318   2.339
 2132SOL    HW1 1714   2.824   3.390   2.287
 2132SOL    HW2 1715   2.866   3.338   2.437
 2133SOL     OW 1716   2.213   3.663   2.715
 2133SOL    HW1 1717   2.263   3.577   2.721
 2133SOL    HW2 1718   2.278   3.740   2.712
 2134SOL     OW 1719   3.657   2.928   2.735
 2134SOL    HW1 1720   3.595   2.913   2.659
 2134SOL    HW2 1721   3.605   2.939   2.820
 2135SOL     OW 1722   3.089   3.412   3.368
 2135SOL    HW1 1723   3.095   3.335   3.432
 2135SOL    HW2 1724   3.037   3.386   3.288
 2136SOL     OW 1725   2.183   2.805   2.104
 2136SOL    HW1 1726   2.265   2.844   2.062
 2136SOL    HW2 1727   2.156   2.723   2.055
 2137SOL     OW 1728   3.320   2.597   2.590
 2137SOL    HW1 1729   3.315   2.532   2.665
 2137SOL    HW2 1730   3.400   2.656   2.603
 2138SOL     OW 1731   2.323   3.128   3.589
 2138SOL    HW1 1732   2.273   3.129   3.503
 2138SOL    HW2 1733   2.260   3.110   3.665
 2139SOL     OW 1734   2.973   3.638   2.099
 2139SOL    HW1 1735   2.913   3.576   2.149
 2139SOL    HW2 1736   3.004   3.594   2.014
 2140SOL     OW 1737   2.064   2.147   3.360
 2140SOL    HW1 1738   1.984   2.207   3.347
 2140SOL    HW2 1739   2.054   2.098   3.446
 2141SOL     OW 1740   3.494   3.239   1.943
 2141SOL    HW1 1741   3.462   3.333   1.933
 2141SOL    HW2 1742   3.418   3.176   1.931
 2142SOL     OW 1743   2.326   3.605   2.185
 2142SOL    HW1 1744   2.359   3.644   2.271
 2142SOL    HW2 1745   2.402   3.598   2.120
 2143SOL     OW 1746   3.262   1.969   2.288
 2143SOL    HW1 1747   3.238   1.932   2.198
 2143SOL    HW2 1748   3.361   1.985   2.292
 2144SOL     OW 1749   2.111   3.647   3.103
 2144SOL    HW1 1750   2.168   3.582   3.153
 2144SOL    HW2 1751   2.095   3.614   3.010
 2145SOL     OW 1752   2.802   3.560   2.766
 2145SOL    HW1 1753   2.882   3.503   2.787
 2145SOL    HW2 1754   2.753   3.520   2.689
 2146SOL     OW 1755   3.409   2.084   3.591
 2146SOL    HW1 1756   3.404   2.121   3.683
 2146SOL    HW2 1757   3.337   2.015   3.579
 2147SOL     OW 1758   2.476   1.984   1.979
 2147SOL    HW1 1759   2.574   1.962   1.986
 2147SOL    HW2 1760   2.445   1.967   1.886
 2148SOL     OW 1761   2.643   2.126   3.611
 2148SOL    HW1 1762   2.710   2.065   3.654
 2148SOL    HW2 1763   2.570   2.145   3.676
 2149SOL     OW 1764   2.750   3.376   3.057
 2149SOL    HW1 1765   2.727   3.351   2.963
 2149SOL    HW2 1766   2.811   3.307   3.096
 2150SOL     OW 1767   3.213   2.452   3.295
 2150SOL    HW1 1768   3.241   2.409   3.380
 2150SOL    HW2 1769   3.238   2.548   3.296
 2151SOL     OW 1770   2.665   3.264   2.786
 2151SOL    HW1 1771   2.755   3.278   2.744
 2151SOL    HW2 1772   2.594   3.266   2.715
 2152SOL     OW 1773   2.784   2.365   2.761
 2152SOL    HW1 1774   2.759   2.356   2.665
 2152SOL    HW2 1775   2.832   2.283   2.792
 2153SOL     OW 1776   2.401   1.926   2.374
 2153SOL    HW1 1777   2.320   1.927   2.432
 2153SOL    HW2 1778   2.404   2.009   2.319
 2154SOL     OW 1779   3.296   3.050   1.903
 2154SOL    HW1 1780   3.328   2.974   1.960
 2154SOL    HW2 1781   3.204   3.077   1.933
 2155SOL     OW 1782   2.159   1.897   2.033
 2155SOL    HW1 1783   2.208   1.981   2.012
 2155SOL    HW2 1784   2.221   1.832   2.078
 2156SOL     OW 1785   2.797   2.098   2.342
 2156SOL    HW1 1786   2.749   2.139   2.264
 2156SOL    HW2 1787   2.896   2.096   2.323
 2157SOL     OW 1788   2.938   2.545   3.326
 2157SOL    HW1 1789   2.858   2.484   3.329
 2157SOL    HW2 1790   3.019   2.492   3.302
 2158SOL     OW 1791   3.089   3.432   2.655
 2158SOL    HW1 1792   3.110   3.506   2.590
 2158SOL    HW2 1793   3.157   3.432   2.728
 2159SOL     OW 1794   2.321   3.014   2.603
 2159SOL    HW1 1795   2.250   2.987   2.668
 2159SOL    HW2 1796   2.295   2.986   2.510
 2160SOL     OW 1797   3.133   3.659   2.453
 2160SOL    HW1 1798   3.177   3.723   2.389
 2160SOL    HW2 1799   3.083   3.711   2.523
 2161SOL     OW 1800   2.894   2.411   1.878
 2161SOL    HW1 1801   2.853   2.493   1.839
 2161SOL    HW2 1802   2.958   2.437   1.951
 2162SOL     OW 1803   1.940   2.418   3.248
 2162SOL    HW1 1804   2.032   2.417   3.207
 2162SOL    HW2 1805   1.934   2.492   3.315
 2163SOL     OW 1806   2.423   2.084   3.009
 2163SOL    HW1 1807   2.461   2.000   3.046
 2163SOL    HW2 1808   2.335   2.103   3.053
 2164SOL     OW 1809   2.879   1.901   2.615
 2164SOL    HW1 1810   2.807   1.906   2.546
 2164SOL    HW2 1811   2.855   1.832   2.684
 2165SOL     OW 1812   3.291   3.035   2.729
 2165SOL    HW1 1813   3.236   2.951   2.722
 2165SOL    HW2 1814   3.317   3.064   2.637
 2166SOL     OW 1815   3.328   2.452   2.854
 2166SOL    HW1 1816   3.298   2.357   2.861
 2166SOL    HW2 1817   3.401   2.468   2.920
 2167SOL     OW 1818   3.719   2.695   2.239
 2167SOL    HW1 1819   3.761   2.631   2.303
 2167SOL    HW2 1820   3.681   2.644   2.161
 2168SOL     OW 1821   2.350   3.247   2.036
 2168SOL    HW1 1822   2.263   3.232   2.083
 2168SOL    HW2 1823   2.333   3.273   1.941
 2169SOL     OW 1824   3.526   3.142   2.519
 2169SOL    HW1 1825   3.625   3.150   2.533
 2169SOL    HW2 1826   3.481   3.226   2.550
 2170SOL     OW 1827   3.252   2.437   1.940
 2170SOL    HW1 1828   3.198   2.416   2.021
 2170SOL    HW2 1829   3.343   2.396   1.949
 2171SOL     OW 1830   2.389   2.118   2.190
 2171SOL    HW1 1831   2.416   2.059   2.115
 2171SOL    HW2 1832   2.389   2.213   2.159
 2173SOL     OW 1833   2.926   3.209   3.202
 2173SOL    HW1 1834   2.846   3.186   3.257
 2173SOL    HW2 1835   3.009   3.183   3.251
 2175SOL     OW 1836   2.973   3.057   2.962
 2175SOL    HW1 1837   2.933   3.101   3.043
 2175SOL    HW2 1838   2.932   3.094   2.879
 2176SOL     OW 1839   3.500   2.961   2.941
 2176SOL    HW1 1840   3.505   3.042   3.000
 2176SOL    HW2 1841   3.414   2.963   2.890
 2177SOL     OW 1842   2.777   1.951   3.264
 2177SOL    HW1 1843   2.802   1.931   3.169
 2177SOL    HW2 1844   2.849   2.007   3.306
 2178SOL     OW 1845   2.842   2.978   3.581
 2178SOL    HW1 1846   2.743   2.984   3.591
 2178SOL    HW2 1847   2.865   2.898   3.525
 2179SOL     OW 1848   2.567   2.912   2.230
 2179SOL    HW1 1849   2.553   2.919   2.329
 2179SOL    HW2 1850   2.651   2.861   2.212
 2180SOL     OW 1851   2.272   2.675   3.113
 2180SOL    HW1 1852   2.358   2.687   3.163
 2180SOL    HW2 1853   2.230   2.588   3.140
 2181SOL     OW 1854   3.136   2.248   3.124
 2181SOL    HW1 1855   3.157   2.322   3.188
 2181SOL    HW2 1856   3.047   2.265   3.081
 2182SOL     OW 1857   1.926   3.426   3.193
 2182SOL    HW1 1858   1.880   3.508   3.159
 2182SOL    HW2 1859   2.024   3.445   3.202
 2183SOL     OW 1860   2.229   2.962   2.363
 2183SOL    HW1 1861   2.222   3.045   2.307
 2183SOL    HW2 1862   2.233   2.882   2.303
 2184SOL     OW 1863   3.114   3.210   2.250
 2184SOL    HW1 1864   3.164   3.287   2.290
 2184SOL    HW2 1865   3.019   3.212   2.282
 2185SOL     OW 1866   3.134   3.307   3.004
 2185SOL    HW1 1867   3.181   3.320   3.091
 2185SOL    HW2 1868   3.068   3.233   3.013
 2186SOL     OW 1869   3.444   2.501   2.334
 2186SOL    HW1 1870   3.413   2.562   2.407
 2186SOL    HW2 1871   3.494   2.553   2.265
 2187SOL     OW 1872   2.216   3.372   3.191
 2187SOL    HW1 1873   2.195   3.328   3.104
 2187SOL    HW2 1874   2.313   3.398   3.194
 2188SOL     OW 1875   2.264   2.613   3.460
 2188SOL    HW1 1876   2.332   2.668   3.413
 2188SOL    HW2 1877   2.304   2.525   3.487
 2189SOL     OW 1878   3.449   2.641   3.532
 2189SOL    HW1 1879   3.357   2.679   3.527
 2189SOL    HW2 1880   3.509   2.688   3.467
 2190SOL     OW 1881   2.875   1.967   3.632
 2190SOL    HW1 1882   2.881   2.052   3.580
 2190SOL    HW2 1883   2.907   1.891   3.575
 2191SOL     OW 1884   2.366   1.912   3.602
 2191SOL    HW1 1885   2.324   1.855   3.532
 2191SOL    HW2 1886   2.300   1.981   3.634
 2192SOL     OW 1887   2.435   2.732   2.891
 2192SOL    HW1 1888   2.479   2.821   2.882
 2192SOL    HW2 1889   2.372   2.732   2.968
 2193SOL     OW 1890   3.222   2.724   2.907
 2193SOL    HW1 1891   3.147   2.724   2.841
 2193SOL    HW2 1892   3.259   2.632   2.916
 2194SOL     OW 1893   3.071   2.387   2.137
 2194SOL    HW1 1894   3.084   2.303   2.191
 2194SOL    HW2 1895   3.042   2.461   2.197
 2195SOL     OW 1896   2.169   2.075   3.093
 2195SOL    HW1 1897   2.146   2.112   3.183
 2195SOL    HW2 1898   2.139   1.980   3.087
 2196SOL     OW 1899   1.899   3.172   3.144
 2196SOL    HW1 1900   1.952   3.123   3.212
 2196SOL    HW2 1901   1.921   3.270   3.149
 2197SOL     OW 1902   2.594   2.496   2.926
 2197SOL    HW1 1903   2.653   2.470   2.850
 2197SOL    HW2 1904   2.566   2.592   2.915
 2199SOL     OW 1905   2.169   1.925   2.480
 2199SOL    HW1 1906   2.158   2.019   2.513
 2199SOL    HW2 1907   2.164   1.862   2.557
 2200SOL     OW 1908   3.484   2.229   2.236
 2200SOL    HW1 1909   3.486   2.153   2.300
 2200SOL    HW2 1910   3.436   2.306   2.276
 2201SOL     OW 1911   2.885   2.628   2.828
 2201SOL    HW1 1912   2.900   2.649   2.924
 2201SOL    HW2 1913   2.855   2.533   2.819
 2202SOL     OW 1914   2.842   3.435   3.562
 2202SOL    HW1 1915   2.822   3.479   3.474
 2202SOL    HW2 1916   2.881   3.344   3.546
 2204SOL     OW 1917   2.212   2.760   3.666
 2204SOL    HW1 1918   2.288   2.804   3.714
 2204SOL    HW2 1919   2.247   2.713   3.584
 2205SOL     OW 1920   3.402   2.136   1.987
 2205SOL    HW1 1921   3.341   2.061   2.010
 2205SOL    HW2 1922   3.424   2.188   2.070
 2206SOL     OW 1923   3.165   2.700   1.904
 2206SOL    HW1 1924   3.199   2.607   1.919
 2206SOL    HW2 1925   3.183   2.727   1.809
 2207SOL     OW 1926   2.930   3.195   2.711
 2207SOL    HW1 1927   2.937   3.111   2.656
 2207SOL    HW2 1928   2.992   3.264   2.675
 2208SOL     OW 1929   2.181   2.672   2.811
 2208SOL    HW1 1930   2.274   2.708   2.816
 2208SOL    HW2 1931   2.175   2.587   2.863
 2209SOL     OW 1932   2.201   2.371   2.868
 2209SOL    HW1 1933   2.149   2.288   2.851
 2209SOL    HW2 1934   2.278   2.376   2.804
 2210SOL     OW 1935   3.000   2.242   3.540
 2210SOL    HW1 1936   2.955   2.305   3.604
 2210SOL    HW2 1937   3.093   2.273   3.523
 2211SOL     OW 1938   3.022   2.069   3.339
 2211SOL    HW1 1939   3.022   2.133   3.416
 2211SOL    HW2 1940   3.050   2.117   3.256
 2212SOL     OW 1941   1.870   3.188   2.062
 2212SOL    HW1 1942   1.777   3.209   2.031
 2212SOL    HW2 1943   1.880   3.089   2.075
 2213SOL     OW 1944   1.950   3.663   2.789
 2213SOL    HW1 1945   1.908   3.577   2.762
 2213SOL    HW2 1946   2.044   3.666   2.755
 2214SOL     OW 1947   2.366   3.430   2.772
 2214SOL    HW1 1948   2.432   3.504   2.781
 2214SOL    HW2 1949   2.410   3.351   2.730
 2215SOL     OW 1950   2.864   2.658   3.100
 2215SOL    HW1 1951   2.905   2.626   3.186
 2215SOL    HW2 1952   2.768   2.631   3.097
 2216SOL     OW 1953   1.902   2.406   2.976
 2216SOL    HW1 1954   1.987   2.373   2.935
 2216SOL    HW2 1955   1.915   2.421   3.074
 2217SOL     OW 1956   2.051   2.382   3.584
 2217SOL    HW1 1957   2.110   2.342   3.514
 2217SOL    HW2 1958   1.993   2.453   3.543
 2218SOL     OW 1959   3.231   2.812   3.522
 2218SOL    HW1 1960   3.270   2.901   3.542
 2218SOL    HW2 1961   3.241   2.792   3.425
 2219SOL     OW 1962   2.677   2.434   2.187
 2219SOL    HW1 1963   2.684   2.345   2.141
 2219SOL    HW2 1964   2.583   2.468   2.179
 2220SOL     OW 1965   3.519   2.466   3.068
 2220SOL    HW1 1966   3.481   2.397   3.130
 2220SOL    HW2 1967   3.601   2.430   3.024
 2221SOL     OW 1968   2.114   3.426   3.606
 2221SOL    HW1 1969   2.084   3.483   3.682
 2221SOL    HW2 1970   2.107   3.329   3.632
 2222SOL     OW 1971   2.533   2.326   3.131
 2222SOL    HW1 1972   2.499   2.237   3.101
 2222SOL    HW2 1973   2.559   2.380   3.051
 2223SOL     OW 1974   2.792   3.540   3.327
 2223SOL    HW1 1975   2.768   3.522   3.232
 2223SOL    HW2 1976   2.822   3.634   3.337
 2224SOL     OW 1977   2.021   2.999   3.328
 2224SOL    HW1 1978   2.043   2.938   3.404
 2224SOL    HW2 1979   2.031   2.950   3.242
 2225SOL     OW 1980   3.209   2.921   3.096
 2225SOL    HW1 1981   3.233   2.858   3.022
 2225SOL    HW2 1982   3.119   2.961   3.078
 2226SOL     OW 1983   3.164   2.717   2.171
 2226SOL    HW1 1984   3.078   2.686   2.213
 2226SOL    HW2 1985   3.160   2.703   2.072
 2228SOL     OW 1986   3.114   3.593   2.990
 2228SOL    HW1 1987   3.198   3.598   2.936
 2228SOL    HW2 1988   3.091   3.497   3.008
 2229SOL     OW 1989   1.945   3.120   2.884
 2229SOL    HW1 1990   1.940   3.119   2.984
 2229SOL    HW2 1991   1.862   3.079   2.846
 2230SOL     OW 1992   2.550   3.524   3.578
 2230SOL    HW1 1993   2.494   3.605   3.587
 2230SOL    HW2 1994   2.602   3.528   3.492
 2231SOL     OW 1995   3.588   1.997   2.385
 2231SOL    HW1 1996   3.661   1.980   2.318
 2231SOL    HW2 1997   3.557   1.910   2.423
 2232SOL     OW 1998   3.250   3.435   2.339
 2232SOL    HW1 1999   3.317   3.447   2.265
 2232SOL    HW2 2000   3.210   3.524   2.362
 2234SOL     OW 2001   3.142   2.789   2.534
 2234SOL    HW1 2002   3.202   2.708   2.536
 2234SOL    HW2 2003   3.182   2.858   2.474
 2235SOL     OW 2004   2.692   3.135   3.284
 2235SOL    HW1 2005   2.687   3.168   3.379
 2235SOL    HW2 2006   2.606   3.154   3.238
 2236SOL     OW 2007   2.534   3.478   2.016
 2236SOL    HW1 2008   2.543   3.488   1.917
 2236SOL    HW2 2009   2.494   3.389   2.037
 2238SOL     OW 2010   3.703   2.037   2.825
 2238SOL    HW1 2011   3.742   1.952   2.789
 2238SOL    HW2 2012   3.605   2.039   2.806
 2239SOL     OW 2013   2.125   2.188   2.582
 2239SOL    HW1 2014   2.046   2.239   2.548
 2239SOL    HW2 2015   2.116   2.173   2.680
 2240SOL     OW 2016   3.056   3.474   1.893
 2240SOL    HW1 2017   3.062   3.381   1.930
 2240SOL    HW2 2018   2.997   3.474   1.813
 2241SOL     OW 2019   2.684   2.864   3.234
 2241SOL    HW1 2020   2.724   2.863   3.142
 2241SOL    HW2 2021   2.694   2.956   3.274
 2242SOL     OW 2022   2.778   2.772   2.153
 2242SOL    HW1 2023   2.841   2.810   2.085
 2242SOL    HW2 2024   2.818   2.689   2.192
 2243SOL     OW 2025   3.366   3.469   1.906
 2243SOL    HW1 2026   3.274   3.506   1.913
 2243SOL    HW2 2027   3.404   3.489   1.816
 2244SOL     OW 2028   2.234   3.150   3.352
 2244SOL    HW1 2029   2.221   3.243   3.318
 2244SOL    HW2 2030   2.150   3.098   3.339
 2245SOL     OW 2031   3.476   3.154   3.151
 2245SOL    HW1 2032   3.536   3.157   3.231
 2245SOL    HW2 2033   3.401   3.218   3.164
 2246SOL     OW 2034   2.901   2.960   2.558
 2246SOL    HW1 2035   2.831   2.913   2.612
 2246SOL    HW2 2036   2.960   2.892   2.515
 2247SOL     OW 2037   2.876   2.098   2.833
 2247SOL    HW1 2038   2.868   2.062   2.740
 2247SOL    HW2 2039   2.874   2.022   2.898
 2248SOL     OW 2040   2.452   3.349   2.353
 2248SOL    HW1 2041   2.494   3.291   2.283
 2248SOL    HW2 2042   2.408   3.428   2.309
 2249SOL     OW 2043   3.571   2.247   3.243
 2249SOL    HW1 2044   3.644   2.316   3.247
 2249SOL    HW2 2045   3.599   2.172   3.184
 2250SOL     OW 2046   2.117   3.210   2.152
 2250SOL    HW1 2047   2.021   3.211   2.125
 2250SOL    HW2 2048   2.129   3.263   2.236
 2251SOL     OW 2049   1.967   2.875   3.588
 2251SOL    HW1 2050   1.890   2.842   3.642
 2251SOL    HW2 2051   2.052   2.845   3.630
 2252SOL     OW 2052   2.534   2.065   3.351
 2252SOL    HW1 2053   2.624   2.049   3.311
 2252SOL    HW2 2054   2.542   2.070   3.450
 2253SOL     OW 2055   1.937   2.207   1.895
 2253SOL    HW1 2056   1.845   2.179   1.866
 2253SOL    HW2 2057   1.968   2.284   1.839
 2254SOL     OW 2058   3.302   2.718   3.260
 2254SOL    HW1 2059   3.245   2.770   3.197
 2254SOL    HW2 2060   3.398   2.730   3.236
 2255SOL     OW 2061   1.934   2.028   2.180
 2255SOL    HW1 2062   1.917   2.111   2.126
 2255SOL    HW2 2063   2.024   1.991   2.158
 2256SOL     OW 2064   3.045   3.197   1.981
 2256SOL    HW1 2065   2.946   3.186   1.983
 2256SOL    HW2 2066   3.079   3.212   2.074
 2257SOL     OW 2067   2.475   2.704   3.293
 2257SOL    HW1 2068   2.531   2.785   3.276
 2257SOL    HW2 2069   2.534   2.624   3.296
 2258SOL     OW 2070   3.355   3.629   2.821
 2258SOL    HW1 2071   3.388   3.693   2.752
 2258SOL    HW2 2072   3.421   3.623   2.896
 2259SOL     OW 2073   2.578   2.427   3.570
 2259SOL    HW1 2074   2.597   2.492   3.644
 2259SOL    HW2 2075   2.638   2.347   3.579
 2260SOL     OW 2076   3.312   3.082   3.495
 2260SOL    HW1 2077   3.303   3.072   3.594
 2260SOL    HW2 2078   3.408   3.075   3.469
 2261SOL     OW 2079   2.252   3.603   3.422
 2261SOL    HW1 2080   2.161   3.644   3.420
 2261SOL    HW2 2081   2.245   3.509   3.454
 2262SOL     OW 2082   3.536   2.745   3.116
 2262SOL    HW1 2083   3.509   2.656   3.079
 2262SOL    HW2 2084   3.537   2.813   3.043
 2263SOL     OW 2085   3.087   2.187   2.311
 2263SOL    HW1 2086   3.152   2.113   2.300
 2263SOL    HW2 2087   3.107   2.237   2.395
 2264SOL     OW 2088   3.639   2.204   3.504
 2264SOL    HW1 2089   3.622   2.235   3.410
 2264SOL    HW2 2090   3.555   2.167   3.542
 2265SOL     OW 2091   3.592   2.796   3.379
 2265SOL    HW1 2092   3.630   2.887   3.394
 2265SOL    HW2 2093   3.584   2.779   3.280
 2266SOL     OW 2094   2.721   3.236   1.878
 2266SOL    HW1 2095   2.675   3.251   1.966
 2266SOL    HW2 2096   2.765   3.321   1.848
 2267SOL     OW 2097   2.523   3.652   2.815
 2267SOL    HW1 2098   2.477   3.740   2.802
 2267SOL    HW2 2099   2.622   3.664   2.808
 2268SOL     OW 2100   2.721   2.818   2.723
 2268SOL    HW1 2101   2.775   2.749   2.771
 2268SOL    HW2 2102   2.689   2.887   2.789
 2269SOL     OW 2103   2.945   2.846   1.949
 2269SOL    HW1 2104   2.922   2.899   1.867
 2269SOL    HW2 2105   3.026   2.790   1.930
 2270SOL     OW 2106   3.723   3.431   2.713
 2270SOL    HW1 2107   3.652   3.419   2.643
 2270SOL    HW2 2108   3.724   3.352   2.773
 2271SOL     OW 2109   2.083   3.176   3.706
 2271SOL    HW1 2110   2.018   3.103   3.685
 2271SOL    HW2 2111   2.087   3.190   3.804
 2272SOL     OW 2112   1.941   3.102   2.515
 2272SOL    HW1 2113   1.940   3.055   2.603
 2272SOL    HW2 2114   2.023   3.074   2.464
 2273SOL     OW 2115   2.534   3.253   3.486
 2273SOL    HW1 2116   2.456   3.203   3.524
 2273SOL    HW2 2117   2.531   3.348   3.517
 2274SOL     OW 2118   3.686   2.054   3.089
 2274SOL    HW1 2119   3.682   1.964   3.133
 2274SOL    HW2 2120   3.689   2.043   2.990
 2275SOL     OW 2121   3.567   3.349   2.966
 2275SOL    HW1 2122   3.474   3.324   2.939
 2275SOL    HW2 2123   3.593   3.299   3.048
 2276SOL     OW 2124   2.179   2.409   3.142
 2276SOL    HW1 2125   2.217   2.350   3.214
 2276SOL    HW2 2126   2.219   2.383   3.054
 2277SOL     OW 2127   2.674   3.448   2.549
 2277SOL    HW1 2128   2.706   3.458   2.455
 2277SOL    HW2 2129   2.595   3.386   2.551
 2278SOL     OW 2130   3.286   2.076   2.974
 2278SOL    HW1 2131   3.338   2.011   3.029
 2278SOL    HW2 2132   3.237   2.139   3.035
 2279SOL     OW 2133   2.863   1.896   3.016
 2279SOL    HW1 2134   2.800   1.824   2.985
 2279SOL    HW2 2135   2.956   1.860   3.016
 2280SOL     OW 2136   2.632   3.192   2.163
 2280SOL    HW1 2137   2.586   3.105   2.180
 2280SOL    HW2 2138   2.723   3.189   2.204
 2281SOL     OW 2139   2.480   3.429   3.146
 2281SOL    HW1 2140   2.475   3.511   3.203
 2281SOL    HW2 2141   2.569   3.426   3.101
 2282SOL     OW 2142   3.214   1.914   2.030
 2282SOL    HW1 2143   3.249   1.873   1.946
 2282SOL    HW2 2144   3.124   1.876   2.050
 2283SOL     OW 2145   3.162   2.315   2.553
 2283SOL    HW1 2146   3.103   2.395   2.557
 2283SOL    HW2 2147   3.177   2.280   2.646
 2284SOL     OW 2148   3.455   2.083   2.744
 2284SOL    HW1 2149   3.371   2.082   2.798
 2284SOL    HW2 2150   3.457   2.166   2.688
 2285SOL     OW 2151   1.901   2.939   2.162
 2285SOL    HW1 2152   2.000   2.928   2.153
 2285SOL    HW2 2153   1.861   2.853   2.194
 2286SOL     OW 2154   2.737   3.508   2.199
 2286SOL    HW1 2155   2.660   3.473   2.145
 2286SOL    HW2 2156   2.705   3.579   2.261
 2287SOL     OW 2157   2.092   2.490   3.837
 2287SOL    HW1 2158   1.999   2.488   3.874
 2287SOL    HW2 2159   2.093   2.451   3.745
 2298SOL     OW 2160   2.468   2.826   3.847
 2298SOL    HW1 2161   2.475   2.910   3.793
 2298SOL    HW2 2162   2.514   2.839   3.935
 2309SOL     OW 2163   2.460   2.591   3.994
 2309SOL    HW1 2164   2.484   2.660   3.926
 2309SOL    HW2 2165   2.382   2.624   4.048
 2314SOL     OW 2166   2.727   2.210   3.919
 2314SOL    HW1 2167   2.786   2.273   3.870
 2314SOL    HW2 2168   2.746   2.116   3.890
 2320SOL     OW 2169   2.183   2.805   3.966
 2320SOL    HW1 2170   2.265   2.844   3.924
 2320SOL    HW2 2171   2.156   2.723   3.917
 2327SOL     OW 2172   2.476   1.984   3.841
 2327SOL    HW1 2173   2.574   1.962   3.848
 2327SOL    HW2 2174   2.445   1.967   3.748
 2330SOL     OW 2175   2.159   1.897   3.895
 2330SOL    HW1 2176   2.208   1.981   3.874
 2330SOL    HW2 2177   2.221   1.832   3.940
 2335SOL     OW 2178   2.894   2.411   3.740
 2335SOL    HW1 2179   2.853   2.493   3.701
 2335SOL    HW2 2180   2.958   2.437   3.813
 2339SOL     OW 2181   2.350   3.247   3.898
 2339SOL    HW1 2182   2.263   3.232   3.945
 2339SOL    HW2 2183   2.333   3.273   3.803
 2341SOL     OW 2184   3.252   2.437   3.802
 2341SOL    HW1 2185   3.198   2.416   3.883
 2341SOL    HW2 2186   3.343   2.396   3.811
 2342SOL     OW 2187   2.389   2.118   4.052
 2342SOL    HW1 2188   2.416   2.059   3.977
 2342SOL    HW2 2189   2.389   2.213   4.021
 2348SOL     OW 2190   3.071   2.387   3.999
 2348SOL    HW1 2191   3.084   2.303   4.053
 2348SOL    HW2 2192   3.042   2.461   4.059
 2353SOL     OW 2193   3.165   2.700   3.766
 2353SOL    HW1 2194   3.199   2.607   3.781
 2353SOL    HW2 2195   3.183   2.727   3.671
 2359SOL     OW 2196   2.677   2.434   4.049
 2359SOL    HW1 2197   2.684   2.345   4.003
 2359SOL    HW2 2198   2.583   2.468   4.041
 2360SOL     OW 2199   2.335   2.362   3.915
 2360SOL    HW1 2200   2.396   2.442   3.919
 2360SOL    HW2 2201   2.240   2.393   3.922
 2370SOL     OW 2202   2.778   2.772   4.015
 2370SOL    HW1 2203   2.841   2.810   3.947
 2370SOL    HW2 2204   2.818   2.689   4.054
 2375SOL     OW 2205   1.937   2.207   3.757
 2375SOL    HW1 2206   1.845   2.179   3.728
 2375SOL    HW2 2207   1.968   2.284   3.701
 2376SOL     OW 2208   1.934   2.028   4.042
 2376SOL    HW1 2209   1.917   2.111   3.988
 2376SOL    HW2 2210   2.024   1.991   4.020
 2381SOL     OW 2211   2.721   3.236   3.740
 2381SOL    HW1 2212   2.675   3.251   3.828
 2381SOL    HW2 2213   2.765   3.321   3.710
 2384SOL     OW 2214   2.945   2.846   3.811
 2384SOL    HW1 2215   2.922   2.899   3.729
 2384SOL    HW2 2216   3.026   2.790   3.792
 2410SOL     OW 2217   2.179   3.975   1.801
 2410SOL    HW1 2218   2.250   4.046   1.807
 2410SOL    HW2 2219   2.091   4.014   1.829
 2427SOL     OW 2220   2.643   3.988   1.749
 2427SOL    HW1 2221   2.710   3.927   1.792
 2427SOL    HW2 2222   2.570   4.007   1.814
 2444SOL     OW 2223   2.777   3.813   1.402
 2444SOL    HW1 2224   2.802   3.793   1.307
 2444SOL    HW2 2225   2.849   3.869   1.444
 2451SOL     OW 2226   2.875   3.829   1.770
 2451SOL    HW1 2227   2.881   3.914   1.718
 2451SOL    HW2 2228   2.907   3.753   1.713
 2452SOL     OW 2229   2.366   3.774   1.740
 2452SOL    HW1 2230   2.324   3.717   1.670
 2452SOL    HW2 2231   2.300   3.843   1.772
 2505SOL     OW 2232   2.087   3.999   2.858
 2505SOL    HW1 2233   2.122   3.982   2.950
 2505SOL    HW2 2234   1.999   3.954   2.846
 2516SOL     OW 2235   2.671   3.728   2.364
 2516SOL    HW1 2236   2.711   3.819   2.355
 2516SOL    HW2 2237   2.571   3.736   2.370
 2528SOL     OW 2238   2.727   4.072   2.057
 2528SOL    HW1 2239   2.786   4.135   2.008
 2528SOL    HW2 2240   2.746   3.978   2.028
 2530SOL     OW 2241   2.412   3.920   2.747
 2530SOL    HW1 2242   2.407   3.915   2.847
 2530SOL    HW2 2243   2.414   4.016   2.718
 2533SOL     OW 2244   3.262   3.831   2.288
 2533SOL    HW1 2245   3.238   3.794   2.198
 2533SOL    HW2 2246   3.361   3.847   2.292
 2536SOL     OW 2247   2.476   3.846   1.979
 2536SOL    HW1 2248   2.574   3.824   1.986
 2536SOL    HW2 2249   2.445   3.829   1.886
 2540SOL     OW 2250   2.401   3.788   2.374
 2540SOL    HW1 2251   2.320   3.789   2.432
 2540SOL    HW2 2252   2.404   3.871   2.319
 2541SOL     OW 2253   2.159   3.759   2.033
 2541SOL    HW1 2254   2.208   3.843   2.012
 2541SOL    HW2 2255   2.221   3.694   2.078
 2542SOL     OW 2256   2.797   3.960   2.342
 2542SOL    HW1 2257   2.749   4.001   2.264
 2542SOL    HW2 2258   2.896   3.958   2.323
 2546SOL     OW 2259   2.423   3.946   3.009
 2546SOL    HW1 2260   2.461   3.862   3.046
 2546SOL    HW2 2261   2.335   3.965   3.053
 2548SOL     OW 2262   2.879   3.763   2.615
 2548SOL    HW1 2263   2.807   3.768   2.546
 2548SOL    HW2 2264   2.855   3.694   2.684
 2552SOL     OW 2265   2.389   3.980   2.190
 2552SOL    HW1 2266   2.416   3.921   2.115
 2552SOL    HW2 2267   2.389   4.075   2.159
 2554SOL     OW 2268   2.777   3.813   3.264
 2554SOL    HW1 2269   2.802   3.793   3.169
 2554SOL    HW2 2270   2.849   3.869   3.306
 2566SOL     OW 2271   2.169   3.937   3.093
 2566SOL    HW1 2272   2.146   3.974   3.183
 2566SOL    HW2 2273   2.139   3.842   3.087
 2569SOL     OW 2274   2.169   3.787   2.480
 2569SOL    HW1 2275   2.158   3.881   2.513
 2569SOL    HW2 2276   2.164   3.724   2.557
 2591SOL     OW 2277   2.125   4.050   2.582
 2591SOL    HW1 2278   2.046   4.101   2.548
 2591SOL    HW2 2279   2.116   4.035   2.680
 2593SOL     OW 2280   2.876   3.960   2.833
 2593SOL    HW1 2281   2.868   3.924   2.740
 2593SOL    HW2 2282   2.874   3.884   2.898
 2599SOL     OW 2283   1.934   3.890   2.180
 2599SOL    HW1 2284   1.917   3.973   2.126
 2599SOL    HW2 2285   2.024   3.853   2.158
 2608SOL     OW 2286   2.290   4.148   2.382
 2608SOL    HW1 2287   2.320   4.076   2.320
 2608SOL    HW2 2288   2.251   4.108   2.465
 2611SOL     OW 2289   2.863   3.758   3.016
 2611SOL    HW1 2290   2.800   3.686   2.985
 2611SOL    HW2 2291   2.956   3.722   3.016
 2612SOL     OW 2292   3.214   3.776   2.030
 2612SOL    HW1 2293   3.249   3.735   1.946
 2612SOL    HW2 2294   3.124   3.738   2.050
 2697SOL     OW 2295   3.854   1.821   1.571
 2697SOL    HW1 2296   3.844   1.806   1.670
 2697SOL    HW2 2297   3.768   1.857   1.535
 2754SOL     OW 2298   3.854   1.794   1.851
 2754SOL    HW1 2299   3.813   1.720   1.904
 2754SOL    HW2 2300   3.918   1.845   1.909
 2793SOL     OW 2301   3.955   1.713   2.345
 2793SOL    HW1 2302   3.989   1.790   2.399
 2793SOL    HW2 2303   3.999   1.713   2.255
 2799SOL     OW 2304   3.751   1.596   1.979
 2799SOL    HW1 2305   3.732   1.500   2.000
 2799SOL    HW2 2306   3.718   1.654   2.054
 2852SOL     OW 2307   3.732   1.326   2.062
 2852SOL    HW1 2308   3.639   1.347   2.031
 2852SOL    HW2 2309   3.742   1.227   2.075
 2853SOL     OW 2310   3.812   1.801   2.789
 2853SOL    HW1 2311   3.770   1.715   2.762
 2853SOL    HW2 2312   3.906   1.804   2.755
 2971SOL     OW 2313   3.837   2.599   1.597
 2971SOL    HW1 2314   3.925   2.586   1.642
 2971SOL    HW2 2315   3.824   2.696   1.575
 2975SOL     OW 2316   4.041   2.113   1.801
 2975SOL    HW1 2317   4.112   2.184   1.807
 2975SOL    HW2 2318   3.953   2.152   1.829
 2998SOL     OW 2319   3.802   2.418   1.386
 2998SOL    HW1 2320   3.894   2.417   1.345
 2998SOL    HW2 2321   3.796   2.492   1.453
 3027SOL     OW 2322   3.913   2.382   1.722
 3027SOL    HW1 2323   3.972   2.342   1.652
 3027SOL    HW2 2324   3.855   2.453   1.681
 3045SOL     OW 2325   3.829   2.875   1.726
 3045SOL    HW1 2326   3.752   2.842   1.780
 3045SOL    HW2 2327   3.914   2.845   1.768
 3067SOL     OW 2328   3.954   2.490   1.975
 3067SOL    HW1 2329   3.861   2.488   2.012
 3067SOL    HW2 2330   3.955   2.451   1.883
 3068SOL     OW 2331   3.949   2.137   2.858
 3068SOL    HW1 2332   3.984   2.120   2.950
 3068SOL    HW2 2333   3.861   2.092   2.846
 3069SOL     OW 2334   3.743   2.230   2.509
 3069SOL    HW1 2335   3.661   2.273   2.548
 3069SOL    HW2 2336   3.715   2.157   2.446
 3079SOL     OW 2337   3.964   2.953   2.748
 3079SOL    HW1 2338   3.978   2.869   2.800
 3079SOL    HW2 2339   3.909   3.017   2.803
 3082SOL     OW 2340   3.846   2.505   2.425
 3082SOL    HW1 2341   3.801   2.417   2.442
 3082SOL    HW2 2342   3.845   2.559   2.509
 3092SOL     OW 2343   3.800   2.673   2.651
 3092SOL    HW1 2344   3.899   2.661   2.660
 3092SOL    HW2 2345   3.776   2.768   2.672
 3098SOL     OW 2346   4.045   2.805   2.104
 3098SOL    HW1 2347   4.127   2.844   2.062
 3098SOL    HW2 2348   4.018   2.723   2.055
 3103SOL     OW 2349   4.106   2.562   2.342
 3103SOL    HW1 2350   4.151   2.472   2.339
 3103SOL    HW2 2351   4.012   2.551   2.375
 3109SOL     OW 2352   4.021   1.897   2.033
 3109SOL    HW1 2353   4.070   1.981   2.012
 3109SOL    HW2 2354   4.083   1.832   2.078
 3112SOL     OW 2355   3.802   2.418   3.248
 3112SOL    HW1 2356   3.894   2.417   3.207
 3112SOL    HW2 2357   3.796   2.492   3.315
 3130SOL     OW 2358   4.031   1.925   2.480
 3130SOL    HW1 2359   4.020   2.019   2.513
 3130SOL    HW2 2360   4.026   1.862   2.557
 3134SOL     OW 2361   4.043   2.672   2.811
 3134SOL    HW1 2362   4.136   2.708   2.816
 3134SOL    HW2 2363   4.037   2.587   2.863
 3135SOL     OW 2364   4.063   2.371   2.868
 3135SOL    HW1 2365   4.011   2.288   2.851
 3135SOL    HW2 2366   4.140   2.376   2.804
 3136SOL     OW 2367   3.732   3.188   2.062
 3136SOL    HW1 2368   3.639   3.209   2.031
 3136SOL    HW2 2369   3.742   3.089   2.075
 3140SOL     OW 2370   3.764   2.406   2.976
 3140SOL    HW1 2371   3.849   2.373   2.935
 3140SOL    HW2 2372   3.777   2.421   3.074
 3147SOL     OW 2373   3.807   3.120   2.884
 3147SOL    HW1 2374   3.802   3.119   2.984
 3147SOL    HW2 2375   3.724   3.079   2.846
 3153SOL     OW 2376   3.987   2.188   2.582
 3153SOL    HW1 2377   3.908   2.239   2.548
 3153SOL    HW2 2378   3.978   2.173   2.680
 3160SOL     OW 2379   3.799   2.207   1.895
 3160SOL    HW1 2380   3.707   2.179   1.866
 3160SOL    HW2 2381   3.830   2.284   1.839
 3161SOL     OW 2382   3.796   2.028   2.180
 3161SOL    HW1 2383   3.779   2.111   2.126
 3161SOL    HW2 2384   3.886   1.991   2.158
 3170SOL     OW 2385   3.803   3.102   2.515
 3170SOL    HW1 2386   3.802   3.055   2.603
 3170SOL    HW2 2387   3.885   3.074   2.464
 3172SOL     OW 2388   4.152   2.286   2.382
 3172SOL    HW1 2389   4.182   2.214   2.320
 3172SOL    HW2 2390   4.113   2.246   2.465
 3178SOL     OW 2391   3.763   2.939   2.162
 3178SOL    HW1 2392   3.862   2.928   2.153
 3178SOL    HW2 2393   3.723   2.853   2.194
   4.71135   4.71135   4.71135
