mobley_5390332_GMX.gro created by acpype (v: 2023.10.27) on Thu May 21 00:26:07 2026
 2378
    1MOL     C1    1   2.452   2.384   2.454
    1MOL     C2    2   2.147   2.394   2.217
    1MOL     C3    3   2.670   2.359   2.542
    1MOL     C4    4   2.373   2.372   2.326
    1MOL     C5    5   2.225   2.403   2.347
    1MOL     O1    6   2.405   2.416   2.563
    1MOL     O2    7   2.582   2.353   2.429
    1MOL     H1    8   2.041   2.417   2.234
    1MOL     H2    9   2.185   2.466   2.143
    1MOL     H3   10   2.153   2.294   2.174
    1MOL     H4   11   2.748   2.433   2.523
    1MOL     H5   12   2.715   2.261   2.558
    1MOL     H6   13   2.613   2.388   2.630
    1MOL     H7   14   2.415   2.442   2.253
    1MOL     H8   15   2.384   2.270   2.288
    1MOL     H9   16   2.181   2.333   2.420
    1MOL    H10   17   2.213   2.504   2.389
   14SOL     OW   18   1.460   1.505   1.339
   14SOL    HW1   19   1.484   1.599   1.365
   14SOL    HW2   20   1.444   1.451   1.421
   18SOL     OW   21   1.127   1.341   1.690
   18SOL    HW1   22   1.174   1.341   1.778
   18SOL    HW2   23   1.079   1.254   1.679
   35SOL     OW   24   1.187   1.792   1.616
   35SOL    HW1   25   1.211   1.852   1.540
   35SOL    HW2   26   1.194   1.697   1.586
   56SOL     OW   27   1.227   1.550   1.506
   56SOL    HW1   28   1.233   1.473   1.570
   56SOL    HW2   29   1.175   1.524   1.426
   95SOL     OW   30   1.754   1.223   1.588
   95SOL    HW1   31   1.845   1.184   1.575
   95SOL    HW2   32   1.762   1.319   1.612
   97SOL     OW   33   1.592   1.629   1.625
   97SOL    HW1   34   1.619   1.663   1.535
   97SOL    HW2   35   1.671   1.591   1.671
  122SOL     OW   36   1.728   0.935   1.854
  122SOL    HW1   37   1.682   0.928   1.765
  122SOL    HW2   38   1.666   0.979   1.920
  126SOL     OW   39   0.980   1.573   1.700
  126SOL    HW1   40   0.960   1.617   1.612
  126SOL    HW2   41   1.019   1.482   1.684
  127SOL     OW   42   1.859   1.518   1.605
  127SOL    HW1   43   1.873   1.545   1.510
  127SOL    HW2   44   1.942   1.540   1.658
  152SOL     OW   45   1.759   1.747   1.154
  152SOL    HW1   46   1.820   1.777   1.081
  152SOL    HW2   47   1.721   1.658   1.132
  163SOL     OW   48   1.650   1.720   1.394
  163SOL    HW1   49   1.703   1.730   1.310
  163SOL    HW2   50   1.623   1.810   1.428
  171SOL     OW   51   1.614   1.292   1.289
  171SOL    HW1   52   1.674   1.295   1.369
  171SOL    HW2   53   1.539   1.356   1.302
  184SOL     OW   54   1.493   1.767   0.959
  184SOL    HW1   55   1.526   1.831   0.890
  184SOL    HW2   56   1.559   1.761   1.034
  186SOL     OW   57   1.450   1.220   1.633
  186SOL    HW1   58   1.441   1.210   1.732
  186SOL    HW2   59   1.546   1.213   1.607
  203SOL     OW   60   1.705   1.487   1.104
  203SOL    HW1   61   1.612   1.462   1.077
  203SOL    HW2   62   1.731   1.437   1.186
  219SOL     OW   63   1.555   1.511   2.565
  219SOL    HW1   64   1.498   1.495   2.646
  219SOL    HW2   65   1.496   1.521   2.485
  227SOL     OW   66   1.460   1.505   3.201
  227SOL    HW1   67   1.484   1.599   3.227
  227SOL    HW2   68   1.444   1.451   3.283
  238SOL     OW   69   1.842   1.767   2.221
  238SOL    HW1   70   1.896   1.738   2.301
  238SOL    HW2   71   1.872   1.857   2.192
  240SOL     OW   72   1.689   0.922   2.474
  240SOL    HW1   73   1.784   0.893   2.482
  240SOL    HW2   74   1.681   0.987   2.399
  241SOL     OW   75   1.641   1.108   2.294
  241SOL    HW1   76   1.727   1.110   2.242
  241SOL    HW2   77   1.655   1.155   2.382
  247SOL     OW   78   1.525   0.999   2.052
  247SOL    HW1   79   1.462   0.923   2.065
  247SOL    HW2   80   1.573   1.017   2.138
  248SOL     OW   81   1.187   1.792   3.478
  248SOL    HW1   82   1.211   1.852   3.402
  248SOL    HW2   83   1.194   1.697   3.448
  250SOL     OW   84   1.466   1.417   2.815
  250SOL    HW1   85   1.407   1.423   2.895
  250SOL    HW2   86   1.451   1.329   2.769
  251SOL     OW   87   1.667   1.714   2.434
  251SOL    HW1   88   1.626   1.691   2.346
  251SOL    HW2   89   1.649   1.640   2.499
  254SOL     OW   90   1.576   1.662   2.169
  254SOL    HW1   91   1.665   1.708   2.172
  254SOL    HW2   92   1.555   1.638   2.074
  264SOL     OW   93   1.362   1.144   2.407
  264SOL    HW1   94   1.445   1.115   2.359
  264SOL    HW2   95   1.313   1.211   2.351
  266SOL     OW   96   1.008   1.456   2.339
  266SOL    HW1   97   0.962   1.528   2.287
  266SOL    HW2   98   1.004   1.476   2.437
  268SOL     OW   99   1.795   1.066   2.735
  268SOL    HW1  100   1.733   1.051   2.659
  268SOL    HW2  101   1.743   1.077   2.820
  269SOL     OW  102   1.227   1.550   3.368
  269SOL    HW1  103   1.233   1.473   3.432
  269SOL    HW2  104   1.175   1.524   3.288
  273SOL     OW  105   1.111   1.776   2.099
  273SOL    HW1  106   1.051   1.714   2.149
  273SOL    HW2  107   1.142   1.732   2.014
  275SOL     OW  108   1.632   1.377   1.943
  275SOL    HW1  109   1.600   1.471   1.933
  275SOL    HW2  110   1.556   1.314   1.931
  279SOL     OW  111   0.940   1.698   2.766
  279SOL    HW1  112   1.020   1.641   2.787
  279SOL    HW2  113   0.891   1.658   2.689
  289SOL     OW  114   1.434   1.188   1.903
  289SOL    HW1  115   1.466   1.112   1.960
  289SOL    HW2  116   1.342   1.215   1.933
  293SOL     OW  117   1.227   1.570   2.655
  293SOL    HW1  118   1.248   1.644   2.590
  293SOL    HW2  119   1.295   1.570   2.728
  295SOL     OW  120   1.271   1.797   2.453
  295SOL    HW1  121   1.315   1.861   2.389
  295SOL    HW2  122   1.221   1.849   2.523
  301SOL     OW  123   1.429   1.173   2.729
  301SOL    HW1  124   1.374   1.089   2.722
  301SOL    HW2  125   1.455   1.202   2.637
  303SOL     OW  126   1.857   0.833   2.239
  303SOL    HW1  127   1.899   0.769   2.303
  303SOL    HW2  128   1.819   0.782   2.161
  305SOL     OW  129   1.664   1.280   2.519
  305SOL    HW1  130   1.763   1.288   2.533
  305SOL    HW2  131   1.619   1.364   2.550
  308SOL     OW  132   1.754   1.223   3.450
  308SOL    HW1  133   1.845   1.184   3.437
  308SOL    HW2  134   1.762   1.319   3.474
  310SOL     OW  135   1.592   1.629   3.487
  310SOL    HW1  136   1.619   1.663   3.397
  310SOL    HW2  137   1.671   1.591   3.533
  312SOL     OW  138   1.638   1.099   2.941
  312SOL    HW1  139   1.643   1.180   3.000
  312SOL    HW2  140   1.552   1.101   2.890
  321SOL     OW  141   1.252   1.348   2.250
  321SOL    HW1  142   1.302   1.425   2.290
  321SOL    HW2  143   1.157   1.350   2.282
  322SOL     OW  144   1.272   1.445   3.004
  322SOL    HW1  145   1.319   1.458   3.091
  322SOL    HW2  146   1.206   1.371   3.013
  340SOL     OW  147   1.859   1.518   3.467
  340SOL    HW1  148   1.873   1.545   3.372
  340SOL    HW2  149   1.942   1.540   3.520
  344SOL     OW  150   1.068   1.333   2.711
  344SOL    HW1  151   1.075   1.249   2.656
  344SOL    HW2  152   1.130   1.402   2.675
  365SOL     OW  153   1.759   1.747   3.016
  365SOL    HW1  154   1.820   1.777   2.943
  365SOL    HW2  155   1.721   1.658   2.994
  366SOL     OW  156   1.252   1.731   2.990
  366SOL    HW1  157   1.336   1.736   2.936
  366SOL    HW2  158   1.229   1.635   3.008
  370SOL     OW  159   1.388   1.573   2.339
  370SOL    HW1  160   1.455   1.585   2.265
  370SOL    HW2  161   1.348   1.662   2.362
  375SOL     OW  162   1.650   1.720   3.256
  375SOL    HW1  163   1.703   1.730   3.172
  375SOL    HW2  164   1.623   1.810   3.290
  378SOL     OW  165   1.194   1.612   1.893
  378SOL    HW1  166   1.200   1.519   1.930
  378SOL    HW2  167   1.135   1.612   1.813
  381SOL     OW  168   1.504   1.607   1.906
  381SOL    HW1  169   1.412   1.644   1.913
  381SOL    HW2  170   1.542   1.627   1.816
  383SOL     OW  171   1.614   1.292   3.151
  383SOL    HW1  172   1.674   1.295   3.231
  383SOL    HW2  173   1.539   1.356   3.164
  394SOL     OW  174   1.183   1.335   1.981
  394SOL    HW1  175   1.084   1.324   1.983
  394SOL    HW2  176   1.217   1.350   2.074
  396SOL     OW  177   1.493   1.767   2.821
  396SOL    HW1  178   1.526   1.831   2.752
  396SOL    HW2  179   1.559   1.761   2.896
  409SOL     OW  180   1.861   1.569   2.713
  409SOL    HW1  181   1.790   1.557   2.643
  409SOL    HW2  182   1.862   1.490   2.773
  415SOL     OW  183   1.705   1.487   2.966
  415SOL    HW1  184   1.612   1.462   2.939
  415SOL    HW2  185   1.731   1.437   3.048
  417SOL     OW  186   0.812   1.586   2.549
  417SOL    HW1  187   0.844   1.596   2.455
  417SOL    HW2  188   0.733   1.524   2.551
  426SOL     OW  189   0.875   1.646   2.199
  426SOL    HW1  190   0.798   1.611   2.145
  426SOL    HW2  191   0.843   1.717   2.261
  551SOL     OW  192   0.850   2.660   1.823
  551SOL    HW1  193   0.846   2.736   1.888
  551SOL    HW2  194   0.872   2.696   1.732
  555SOL     OW  195   1.460   3.367   1.339
  555SOL    HW1  196   1.484   3.461   1.365
  555SOL    HW2  197   1.444   3.313   1.421
  559SOL     OW  198   1.127   3.203   1.690
  559SOL    HW1  199   1.174   3.203   1.778
  559SOL    HW2  200   1.079   3.116   1.679
  564SOL     OW  201   1.594   1.976   1.480
  564SOL    HW1  202   1.576   2.043   1.408
  564SOL    HW2  203   1.591   2.022   1.569
  572SOL     OW  204   1.293   3.090   1.423
  572SOL    HW1  205   1.330   3.017   1.365
  572SOL    HW2  206   1.345   3.095   1.508
  584SOL     OW  207   1.394   2.331   1.674
  584SOL    HW1  208   1.374   2.374   1.762
  584SOL    HW2  209   1.472   2.269   1.683
  585SOL     OW  210   0.973   2.752   1.572
  585SOL    HW1  211   1.019   2.668   1.543
  585SOL    HW2  212   0.917   2.786   1.497
  591SOL     OW  213   1.719   2.447   1.831
  591SOL    HW1  214   1.693   2.536   1.795
  591SOL    HW2  215   1.717   2.379   1.758
  596SOL     OW  216   1.795   2.928   0.873
  596SOL    HW1  217   1.733   2.913   0.797
  596SOL    HW2  218   1.743   2.939   0.958
  597SOL     OW  219   1.227   3.412   1.506
  597SOL    HW1  220   1.233   3.335   1.570
  597SOL    HW2  221   1.175   3.386   1.426
  609SOL     OW  222   1.547   2.084   1.729
  609SOL    HW1  223   1.542   2.121   1.821
  609SOL    HW2  224   1.475   2.015   1.717
  611SOL     OW  225   0.781   2.126   1.749
  611SOL    HW1  226   0.848   2.065   1.792
  611SOL    HW2  227   0.708   2.145   1.814
  613SOL     OW  228   1.351   2.452   1.433
  613SOL    HW1  229   1.379   2.409   1.518
  613SOL    HW2  230   1.376   2.548   1.434
  619SOL     OW  231   1.076   2.545   1.464
  619SOL    HW1  232   0.996   2.484   1.467
  619SOL    HW2  233   1.157   2.492   1.440
  629SOL     OW  234   1.466   2.452   0.992
  629SOL    HW1  235   1.436   2.357   0.999
  629SOL    HW2  236   1.539   2.468   1.058
  635SOL     OW  237   1.754   3.085   1.588
  635SOL    HW1  238   1.845   3.046   1.575
  635SOL    HW2  239   1.762   3.181   1.612
  637SOL     OW  240   1.592   3.491   1.625
  637SOL    HW1  241   1.619   3.525   1.535
  637SOL    HW2  242   1.671   3.453   1.671
  639SOL     OW  243   1.638   2.961   1.079
  639SOL    HW1  244   1.643   3.042   1.138
  639SOL    HW2  245   1.552   2.963   1.028
  641SOL     OW  246   0.980   2.978   1.719
  641SOL    HW1  247   0.881   2.984   1.729
  641SOL    HW2  248   1.003   2.898   1.663
  644SOL     OW  249   1.274   2.248   1.262
  644SOL    HW1  250   1.295   2.322   1.326
  644SOL    HW2  251   1.185   2.265   1.219
  653SOL     OW  252   1.587   2.641   1.670
  653SOL    HW1  253   1.495   2.679   1.665
  653SOL    HW2  254   1.647   2.688   1.605
  654SOL     OW  255   1.013   1.967   1.770
  654SOL    HW1  256   1.019   2.052   1.718
  654SOL    HW2  257   1.045   1.891   1.713
  657SOL     OW  258   1.360   2.724   1.045
  657SOL    HW1  259   1.285   2.724   0.979
  657SOL    HW2  260   1.397   2.632   1.054
  662SOL     OW  261   1.728   2.797   1.854
  662SOL    HW1  262   1.682   2.790   1.765
  662SOL    HW2  263   1.666   2.841   1.920
  667SOL     OW  264   1.859   3.380   1.605
  667SOL    HW1  265   1.873   3.407   1.510
  667SOL    HW2  266   1.942   3.402   1.658
  674SOL     OW  267   1.138   2.242   1.678
  674SOL    HW1  268   1.093   2.305   1.742
  674SOL    HW2  269   1.231   2.273   1.661
  675SOL     OW  270   1.160   2.069   1.477
  675SOL    HW1  271   1.160   2.133   1.554
  675SOL    HW2  272   1.188   2.117   1.394
  682SOL     OW  273   1.369   2.812   1.660
  682SOL    HW1  274   1.408   2.901   1.680
  682SOL    HW2  275   1.379   2.792   1.563
  684SOL     OW  276   1.657   2.466   1.206
  684SOL    HW1  277   1.619   2.397   1.268
  684SOL    HW2  278   1.739   2.430   1.162
  690SOL     OW  279   1.347   2.921   1.234
  690SOL    HW1  280   1.371   2.858   1.160
  690SOL    HW2  281   1.257   2.961   1.216
  703SOL     OW  282   1.650   3.582   1.394
  703SOL    HW1  283   1.703   3.592   1.310
  703SOL    HW2  284   1.623   3.672   1.428
  704SOL     OW  285   1.841   2.037   0.963
  704SOL    HW1  286   1.880   1.952   0.927
  704SOL    HW2  287   1.743   2.039   0.944
  711SOL     OW  288   1.614   3.154   1.289
  711SOL    HW1  289   1.674   3.157   1.369
  711SOL    HW2  290   1.539   3.218   1.302
  715SOL     OW  291   1.709   2.247   1.381
  715SOL    HW1  292   1.782   2.316   1.385
  715SOL    HW2  293   1.737   2.172   1.322
  720SOL     OW  294   1.440   2.718   1.398
  720SOL    HW1  295   1.383   2.770   1.335
  720SOL    HW2  296   1.536   2.730   1.374
  725SOL     OW  297   0.716   2.427   1.708
  725SOL    HW1  298   0.735   2.492   1.782
  725SOL    HW2  299   0.776   2.347   1.717
  726SOL     OW  300   1.450   3.082   1.633
  726SOL    HW1  301   1.441   3.072   1.732
  726SOL    HW2  302   1.546   3.075   1.607
  728SOL     OW  303   1.674   2.745   1.254
  728SOL    HW1  304   1.647   2.656   1.217
  728SOL    HW2  305   1.675   2.813   1.181
  731SOL     OW  306   1.777   2.204   1.642
  731SOL    HW1  307   1.760   2.235   1.548
  731SOL    HW2  308   1.693   2.167   1.680
  732SOL     OW  309   1.730   2.796   1.517
  732SOL    HW1  310   1.768   2.887   1.532
  732SOL    HW2  311   1.722   2.779   1.418
  741SOL     OW  312   1.824   2.054   1.227
  741SOL    HW1  313   1.820   1.964   1.271
  741SOL    HW2  314   1.827   2.043   1.128
  743SOL     OW  315   1.705   3.349   1.104
  743SOL    HW1  316   1.612   3.324   1.077
  743SOL    HW2  317   1.731   3.299   1.186
  746SOL     OW  318   1.424   2.076   1.112
  746SOL    HW1  319   1.476   2.011   1.167
  746SOL    HW2  320   1.375   2.139   1.173
  752SOL     OW  321   1.593   2.083   0.882
  752SOL    HW1  322   1.509   2.082   0.936
  752SOL    HW2  323   1.595   2.166   0.826
  759SOL     OW  324   1.555   3.373   2.565
  759SOL    HW1  325   1.498   3.357   2.646
  759SOL    HW2  326   1.496   3.383   2.485
  760SOL     OW  327   1.135   2.565   2.579
  760SOL    HW1  328   1.192   2.643   2.554
  760SOL    HW2  329   1.075   2.591   2.655
  761SOL     OW  330   1.755   2.469   2.093
  761SOL    HW1  331   1.743   2.456   1.994
  761SOL    HW2  332   1.725   2.388   2.142
  764SOL     OW  333   0.685   2.874   2.527
  764SOL    HW1  334   0.754   2.858   2.597
  764SOL    HW2  335   0.612   2.931   2.565
  767SOL     OW  336   1.460   3.367   3.201
  767SOL    HW1  337   1.484   3.461   3.227
  767SOL    HW2  338   1.444   3.313   3.283
  769SOL     OW  339   1.603   2.309   2.599
  769SOL    HW1  340   1.529   2.355   2.549
  769SOL    HW2  341   1.654   2.377   2.652
  776SOL     OW  342   1.594   1.976   3.342
  776SOL    HW1  343   1.576   2.043   3.270
  776SOL    HW2  344   1.591   2.022   3.431
  778SOL     OW  345   1.842   3.629   2.221
  778SOL    HW1  346   1.896   3.600   2.301
  778SOL    HW2  347   1.872   3.719   2.192
  780SOL     OW  348   1.689   2.784   2.474
  780SOL    HW1  349   1.784   2.755   2.482
  780SOL    HW2  350   1.681   2.849   2.399
  781SOL     OW  351   1.641   2.970   2.294
  781SOL    HW1  352   1.727   2.972   2.242
  781SOL    HW2  353   1.655   3.017   2.382
  784SOL     OW  354   1.293   3.090   3.285
  784SOL    HW1  355   1.330   3.017   3.227
  784SOL    HW2  356   1.345   3.095   3.370
  785SOL     OW  357   0.809   1.866   2.364
  785SOL    HW1  358   0.849   1.957   2.355
  785SOL    HW2  359   0.709   1.874   2.370
  787SOL     OW  360   1.525   2.861   2.052
  787SOL    HW1  361   1.462   2.785   2.065
  787SOL    HW2  362   1.573   2.879   2.138
  790SOL     OW  363   1.466   3.279   2.815
  790SOL    HW1  364   1.407   3.285   2.895
  790SOL    HW2  365   1.451   3.191   2.769
  791SOL     OW  366   1.667   3.576   2.434
  791SOL    HW1  367   1.626   3.553   2.346
  791SOL    HW2  368   1.649   3.502   2.499
  793SOL     OW  369   1.281   2.207   2.806
  793SOL    HW1  370   1.195   2.157   2.793
  793SOL    HW2  371   1.343   2.153   2.862
  794SOL     OW  372   1.576   3.524   2.169
  794SOL    HW1  373   1.665   3.570   2.172
  794SOL    HW2  374   1.555   3.500   2.074
  796SOL     OW  375   1.394   2.331   3.536
  796SOL    HW1  376   1.374   2.374   3.624
  796SOL    HW2  377   1.472   2.269   3.545
  797SOL     OW  378   0.973   2.752   3.434
  797SOL    HW1  379   1.019   2.668   3.405
  797SOL    HW2  380   0.917   2.786   3.359
  798SOL     OW  381   0.991   2.272   3.104
  798SOL    HW1  382   0.914   2.306   3.158
  798SOL    HW2  383   0.957   2.221   3.025
  799SOL     OW  384   1.041   2.563   2.291
  799SOL    HW1  385   1.067   2.559   2.387
  799SOL    HW2  386   0.956   2.512   2.277
  802SOL     OW  387   0.865   2.210   2.057
  802SOL    HW1  388   0.924   2.273   2.008
  802SOL    HW2  389   0.884   2.116   2.028
  803SOL     OW  390   1.719   2.447   3.693
  803SOL    HW1  391   1.693   2.536   3.657
  803SOL    HW2  392   1.717   2.379   3.620
  804SOL     OW  393   1.362   3.006   2.407
  804SOL    HW1  394   1.445   2.977   2.359
  804SOL    HW2  395   1.313   3.073   2.351
  806SOL     OW  396   1.008   3.318   2.339
  806SOL    HW1  397   0.962   3.390   2.287
  806SOL    HW2  398   1.004   3.338   2.437
  808SOL     OW  399   1.795   2.928   2.735
  808SOL    HW1  400   1.733   2.913   2.659
  808SOL    HW2  401   1.743   2.939   2.820
  811SOL     OW  402   1.458   2.597   2.590
  811SOL    HW1  403   1.453   2.532   2.665
  811SOL    HW2  404   1.538   2.656   2.603
  815SOL     OW  405   1.632   3.239   1.943
  815SOL    HW1  406   1.600   3.333   1.933
  815SOL    HW2  407   1.556   3.176   1.931
  817SOL     OW  408   1.400   1.969   2.288
  817SOL    HW1  409   1.376   1.932   2.198
  817SOL    HW2  410   1.499   1.985   2.292
  821SOL     OW  411   1.547   2.084   3.591
  821SOL    HW1  412   1.542   2.121   3.683
  821SOL    HW2  413   1.475   2.015   3.579
  825SOL     OW  414   1.351   2.452   3.295
  825SOL    HW1  415   1.379   2.409   3.380
  825SOL    HW2  416   1.376   2.548   3.296
  827SOL     OW  417   0.922   2.365   2.761
  827SOL    HW1  418   0.897   2.356   2.665
  827SOL    HW2  419   0.970   2.283   2.792
  829SOL     OW  420   1.434   3.050   1.903
  829SOL    HW1  421   1.466   2.974   1.960
  829SOL    HW2  422   1.342   3.077   1.933
  831SOL     OW  423   0.935   2.098   2.342
  831SOL    HW1  424   0.887   2.139   2.264
  831SOL    HW2  425   1.034   2.096   2.323
  832SOL     OW  426   1.076   2.545   3.326
  832SOL    HW1  427   0.996   2.484   3.329
  832SOL    HW2  428   1.157   2.492   3.302
  833SOL     OW  429   1.227   3.432   2.655
  833SOL    HW1  430   1.248   3.506   2.590
  833SOL    HW2  431   1.295   3.432   2.728
  835SOL     OW  432   1.271   3.659   2.453
  835SOL    HW1  433   1.315   3.723   2.389
  835SOL    HW2  434   1.221   3.711   2.523
  836SOL     OW  435   1.032   2.411   1.878
  836SOL    HW1  436   0.991   2.493   1.839
  836SOL    HW2  437   1.096   2.437   1.951
  839SOL     OW  438   0.866   2.316   2.504
  839SOL    HW1  439   0.834   2.388   2.442
  839SOL    HW2  440   0.890   2.235   2.451
  840SOL     OW  441   1.017   1.901   2.615
  840SOL    HW1  442   0.945   1.906   2.546
  840SOL    HW2  443   0.993   1.832   2.684
  841SOL     OW  444   1.429   3.035   2.729
  841SOL    HW1  445   1.374   2.951   2.722
  841SOL    HW2  446   1.455   3.064   2.637
  842SOL     OW  447   1.466   2.452   2.854
  842SOL    HW1  448   1.436   2.357   2.861
  842SOL    HW2  449   1.539   2.468   2.920
  843SOL     OW  450   1.857   2.695   2.239
  843SOL    HW1  451   1.899   2.631   2.303
  843SOL    HW2  452   1.819   2.644   2.161
  845SOL     OW  453   1.664   3.142   2.519
  845SOL    HW1  454   1.763   3.150   2.533
  845SOL    HW2  455   1.619   3.226   2.550
  846SOL     OW  456   1.390   2.437   1.940
  846SOL    HW1  457   1.336   2.416   2.021
  846SOL    HW2  458   1.481   2.396   1.949
  848SOL     OW  459   1.754   3.085   3.450
  848SOL    HW1  460   1.845   3.046   3.437
  848SOL    HW2  461   1.762   3.181   3.474
  849SOL     OW  462   1.064   3.209   3.202
  849SOL    HW1  463   0.984   3.186   3.257
  849SOL    HW2  464   1.147   3.183   3.251
  850SOL     OW  465   1.592   3.491   3.487
  850SOL    HW1  466   1.619   3.525   3.397
  850SOL    HW2  467   1.671   3.453   3.533
  851SOL     OW  468   1.111   3.057   2.962
  851SOL    HW1  469   1.071   3.101   3.043
  851SOL    HW2  470   1.070   3.094   2.879
  852SOL     OW  471   1.638   2.961   2.941
  852SOL    HW1  472   1.643   3.042   3.000
  852SOL    HW2  473   1.552   2.963   2.890
  853SOL     OW  474   0.915   1.951   3.264
  853SOL    HW1  475   0.940   1.931   3.169
  853SOL    HW2  476   0.987   2.007   3.306
  855SOL     OW  477   0.705   2.912   2.230
  855SOL    HW1  478   0.691   2.919   2.329
  855SOL    HW2  479   0.789   2.861   2.212
  857SOL     OW  480   1.274   2.248   3.124
  857SOL    HW1  481   1.295   2.322   3.188
  857SOL    HW2  482   1.185   2.265   3.081
  861SOL     OW  483   1.252   3.210   2.250
  861SOL    HW1  484   1.302   3.287   2.290
  861SOL    HW2  485   1.157   3.212   2.282
  862SOL     OW  486   1.272   3.307   3.004
  862SOL    HW1  487   1.319   3.320   3.091
  862SOL    HW2  488   1.206   3.233   3.013
  863SOL     OW  489   1.582   2.501   2.334
  863SOL    HW1  490   1.551   2.562   2.407
  863SOL    HW2  491   1.632   2.553   2.265
  866SOL     OW  492   1.587   2.641   3.532
  866SOL    HW1  493   1.495   2.679   3.527
  866SOL    HW2  494   1.647   2.688   3.467
  870SOL     OW  495   1.360   2.724   2.907
  870SOL    HW1  496   1.285   2.724   2.841
  870SOL    HW2  497   1.397   2.632   2.916
  871SOL     OW  498   1.209   2.387   2.137
  871SOL    HW1  499   1.222   2.303   2.191
  871SOL    HW2  500   1.180   2.461   2.197
  874SOL     OW  501   0.732   2.496   2.926
  874SOL    HW1  502   0.791   2.470   2.850
  874SOL    HW2  503   0.704   2.592   2.915
  875SOL     OW  504   1.728   2.797   3.716
  875SOL    HW1  505   1.682   2.790   3.627
  875SOL    HW2  506   1.666   2.841   3.782
  877SOL     OW  507   1.622   2.229   2.236
  877SOL    HW1  508   1.624   2.153   2.300
  877SOL    HW2  509   1.574   2.306   2.276
  878SOL     OW  510   1.023   2.628   2.828
  878SOL    HW1  511   1.038   2.649   2.924
  878SOL    HW2  512   0.993   2.533   2.819
  880SOL     OW  513   1.859   3.380   3.467
  880SOL    HW1  514   1.873   3.407   3.372
  880SOL    HW2  515   1.942   3.402   3.520
  882SOL     OW  516   1.540   2.136   1.987
  882SOL    HW1  517   1.479   2.061   2.010
  882SOL    HW2  518   1.562   2.188   2.070
  883SOL     OW  519   1.303   2.700   1.904
  883SOL    HW1  520   1.337   2.607   1.919
  883SOL    HW2  521   1.321   2.727   1.809
  884SOL     OW  522   1.068   3.195   2.711
  884SOL    HW1  523   1.075   3.111   2.656
  884SOL    HW2  524   1.130   3.264   2.675
  887SOL     OW  525   1.138   2.242   3.540
  887SOL    HW1  526   1.093   2.305   3.604
  887SOL    HW2  527   1.231   2.273   3.523
  888SOL     OW  528   1.160   2.069   3.339
  888SOL    HW1  529   1.160   2.133   3.416
  888SOL    HW2  530   1.188   2.117   3.256
  892SOL     OW  531   1.002   2.658   3.100
  892SOL    HW1  532   1.043   2.626   3.186
  892SOL    HW2  533   0.906   2.631   3.097
  895SOL     OW  534   1.369   2.812   3.522
  895SOL    HW1  535   1.408   2.901   3.542
  895SOL    HW2  536   1.379   2.792   3.425
  896SOL     OW  537   0.815   2.434   2.187
  896SOL    HW1  538   0.822   2.345   2.141
  896SOL    HW2  539   0.721   2.468   2.179
  897SOL     OW  540   1.657   2.466   3.068
  897SOL    HW1  541   1.619   2.397   3.130
  897SOL    HW2  542   1.739   2.430   3.024
  903SOL     OW  543   1.347   2.921   3.096
  903SOL    HW1  544   1.371   2.858   3.022
  903SOL    HW2  545   1.257   2.961   3.078
  904SOL     OW  546   1.302   2.717   2.171
  904SOL    HW1  547   1.216   2.686   2.213
  904SOL    HW2  548   1.298   2.703   2.072
  905SOL     OW  549   1.759   3.609   3.016
  905SOL    HW1  550   1.820   3.639   2.943
  905SOL    HW2  551   1.721   3.520   2.994
  906SOL     OW  552   1.252   3.593   2.990
  906SOL    HW1  553   1.336   3.598   2.936
  906SOL    HW2  554   1.229   3.497   3.008
  909SOL     OW  555   1.726   1.997   2.385
  909SOL    HW1  556   1.799   1.980   2.318
  909SOL    HW2  557   1.695   1.910   2.423
  910SOL     OW  558   1.388   3.435   2.339
  910SOL    HW1  559   1.455   3.447   2.265
  910SOL    HW2  560   1.348   3.524   2.362
  912SOL     OW  561   1.280   2.789   2.534
  912SOL    HW1  562   1.340   2.708   2.536
  912SOL    HW2  563   1.320   2.858   2.474
  915SOL     OW  564   1.650   3.582   3.256
  915SOL    HW1  565   1.703   3.592   3.172
  915SOL    HW2  566   1.623   3.672   3.290
  916SOL     OW  567   1.841   2.037   2.825
  916SOL    HW1  568   1.880   1.952   2.789
  916SOL    HW2  569   1.743   2.039   2.806
  918SOL     OW  570   1.194   3.474   1.893
  918SOL    HW1  571   1.200   3.381   1.930
  918SOL    HW2  572   1.135   3.474   1.813
  920SOL     OW  573   0.916   2.772   2.153
  920SOL    HW1  574   0.979   2.810   2.085
  920SOL    HW2  575   0.956   2.689   2.192
  921SOL     OW  576   1.504   3.469   1.906
  921SOL    HW1  577   1.412   3.506   1.913
  921SOL    HW2  578   1.542   3.489   1.816
  923SOL     OW  579   1.614   3.154   3.151
  923SOL    HW1  580   1.674   3.157   3.231
  923SOL    HW2  581   1.539   3.218   3.164
  924SOL     OW  582   1.039   2.960   2.558
  924SOL    HW1  583   0.969   2.913   2.612
  924SOL    HW2  584   1.098   2.892   2.515
  925SOL     OW  585   1.014   2.098   2.833
  925SOL    HW1  586   1.006   2.062   2.740
  925SOL    HW2  587   1.012   2.022   2.898
  927SOL     OW  588   1.709   2.247   3.243
  927SOL    HW1  589   1.782   2.316   3.247
  927SOL    HW2  590   1.737   2.172   3.184
  932SOL     OW  591   1.440   2.718   3.260
  932SOL    HW1  592   1.383   2.770   3.197
  932SOL    HW2  593   1.536   2.730   3.236
  934SOL     OW  594   1.183   3.197   1.981
  934SOL    HW1  595   1.084   3.186   1.983
  934SOL    HW2  596   1.217   3.212   2.074
  936SOL     OW  597   1.493   3.629   2.821
  936SOL    HW1  598   1.526   3.693   2.752
  936SOL    HW2  599   1.559   3.623   2.896
  938SOL     OW  600   1.450   3.082   3.495
  938SOL    HW1  601   1.441   3.072   3.594
  938SOL    HW2  602   1.546   3.075   3.469
  940SOL     OW  603   1.674   2.745   3.116
  940SOL    HW1  604   1.647   2.656   3.079
  940SOL    HW2  605   1.675   2.813   3.043
  941SOL     OW  606   1.225   2.187   2.311
  941SOL    HW1  607   1.290   2.113   2.300
  941SOL    HW2  608   1.245   2.237   2.395
  943SOL     OW  609   1.777   2.204   3.504
  943SOL    HW1  610   1.760   2.235   3.410
  943SOL    HW2  611   1.693   2.167   3.542
  944SOL     OW  612   1.730   2.796   3.379
  944SOL    HW1  613   1.768   2.887   3.394
  944SOL    HW2  614   1.722   2.779   3.280
  947SOL     OW  615   0.859   2.818   2.723
  947SOL    HW1  616   0.913   2.749   2.771
  947SOL    HW2  617   0.827   2.887   2.789
  948SOL     OW  618   1.083   2.846   1.949
  948SOL    HW1  619   1.060   2.899   1.867
  948SOL    HW2  620   1.164   2.790   1.930
  949SOL     OW  621   1.861   3.431   2.713
  949SOL    HW1  622   1.790   3.419   2.643
  949SOL    HW2  623   1.862   3.352   2.773
  953SOL     OW  624   1.824   2.054   3.089
  953SOL    HW1  625   1.820   1.964   3.133
  953SOL    HW2  626   1.827   2.043   2.990
  955SOL     OW  627   1.705   3.349   2.966
  955SOL    HW1  628   1.612   3.324   2.939
  955SOL    HW2  629   1.731   3.299   3.048
  958SOL     OW  630   1.424   2.076   2.974
  958SOL    HW1  631   1.476   2.011   3.029
  958SOL    HW2  632   1.375   2.139   3.035
  959SOL     OW  633   1.001   1.896   3.016
  959SOL    HW1  634   0.938   1.824   2.985
  959SOL    HW2  635   1.094   1.860   3.016
  962SOL     OW  636   1.352   1.914   2.030
  962SOL    HW1  637   1.387   1.873   1.946
  962SOL    HW2  638   1.262   1.876   2.050
  963SOL     OW  639   1.300   2.315   2.553
  963SOL    HW1  640   1.241   2.395   2.557
  963SOL    HW2  641   1.315   2.280   2.646
  964SOL     OW  642   1.593   2.083   2.744
  964SOL    HW1  643   1.509   2.082   2.798
  964SOL    HW2  644   1.595   2.166   2.688
  972SOL     OW  645   1.755   2.469   3.955
  972SOL    HW1  646   1.743   2.456   3.856
  972SOL    HW2  647   1.725   2.388   4.004
 1024SOL     OW  648   1.390   2.437   3.802
 1024SOL    HW1  649   1.336   2.416   3.883
 1024SOL    HW2  650   1.481   2.396   3.811
 1037SOL     OW  651   1.540   2.136   3.849
 1037SOL    HW1  652   1.479   2.061   3.872
 1037SOL    HW2  653   1.562   2.188   3.932
 1038SOL     OW  654   1.303   2.700   3.766
 1038SOL    HW1  655   1.337   2.607   3.781
 1038SOL    HW2  656   1.321   2.727   3.671
 1230SOL     OW  657   1.400   3.831   2.288
 1230SOL    HW1  658   1.376   3.794   2.198
 1230SOL    HW2  659   1.499   3.847   2.292
 1288SOL     OW  660   1.726   3.859   2.385
 1288SOL    HW1  661   1.799   3.842   2.318
 1288SOL    HW2  662   1.695   3.772   2.423
 1290SOL     OW  663   1.841   3.899   2.825
 1290SOL    HW1  664   1.880   3.814   2.789
 1290SOL    HW2  665   1.743   3.901   2.806
 1307SOL     OW  666   1.824   3.916   3.089
 1307SOL    HW1  667   1.820   3.826   3.133
 1307SOL    HW2  668   1.827   3.905   2.990
 1312SOL     OW  669   1.352   3.776   2.030
 1312SOL    HW1  670   1.387   3.735   1.946
 1312SOL    HW2  671   1.262   3.738   2.050
 1314SOL     OW  672   1.593   3.945   2.744
 1314SOL    HW1  673   1.509   3.944   2.798
 1314SOL    HW2  674   1.595   4.028   2.688
 1380SOL     OW  675   2.431   1.275   1.165
 1380SOL    HW1  676   2.338   1.268   1.128
 1380SOL    HW2  677   2.442   1.364   1.209
 1385SOL     OW  678   2.712   0.798   1.823
 1385SOL    HW1  679   2.708   0.874   1.888
 1385SOL    HW2  680   2.734   0.834   1.732
 1387SOL     OW  681   2.548   1.161   1.803
 1387SOL    HW1  682   2.608   1.240   1.817
 1387SOL    HW2  683   2.462   1.192   1.762
 1388SOL     OW  684   2.197   1.435   1.061
 1388SOL    HW1  685   2.119   1.404   1.008
 1388SOL    HW2  686   2.255   1.493   1.004
 1389SOL     OW  687   3.322   1.505   1.339
 1389SOL    HW1  688   3.346   1.599   1.365
 1389SOL    HW2  689   3.306   1.451   1.421
 1393SOL     OW  690   2.989   1.341   1.690
 1393SOL    HW1  691   3.036   1.341   1.778
 1393SOL    HW2  692   2.941   1.254   1.679
 1396SOL     OW  693   2.482   1.786   1.439
 1396SOL    HW1  694   2.390   1.769   1.474
 1396SOL    HW2  695   2.510   1.878   1.465
 1406SOL     OW  696   3.155   1.228   1.423
 1406SOL    HW1  697   3.192   1.155   1.365
 1406SOL    HW2  698   3.207   1.233   1.508
 1410SOL     OW  699   3.049   1.792   1.616
 1410SOL    HW1  700   3.073   1.852   1.540
 1410SOL    HW2  701   3.056   1.697   1.586
 1419SOL     OW  702   2.835   0.890   1.572
 1419SOL    HW1  703   2.881   0.806   1.543
 1419SOL    HW2  704   2.779   0.924   1.497
 1423SOL     OW  705   1.992   1.821   1.571
 1423SOL    HW1  706   1.982   1.806   1.670
 1423SOL    HW2  707   1.906   1.857   1.535
 1429SOL     OW  708   2.213   1.801   0.853
 1429SOL    HW1  709   2.263   1.715   0.859
 1429SOL    HW2  710   2.278   1.878   0.850
 1431SOL     OW  711   3.089   1.550   1.506
 1431SOL    HW1  712   3.095   1.473   1.570
 1431SOL    HW2  713   3.037   1.524   1.426
 1434SOL     OW  714   2.323   1.266   1.727
 1434SOL    HW1  715   2.273   1.267   1.641
 1434SOL    HW2  716   2.260   1.248   1.803
 1440SOL     OW  717   2.111   1.785   1.241
 1440SOL    HW1  718   2.168   1.720   1.291
 1440SOL    HW2  719   2.095   1.752   1.148
 1441SOL     OW  720   2.802   1.698   0.904
 1441SOL    HW1  721   2.882   1.641   0.925
 1441SOL    HW2  722   2.753   1.658   0.827
 1446SOL     OW  723   2.750   1.514   1.195
 1446SOL    HW1  724   2.727   1.489   1.101
 1446SOL    HW2  725   2.811   1.445   1.234
 1448SOL     OW  726   2.665   1.402   0.924
 1448SOL    HW1  727   2.755   1.416   0.882
 1448SOL    HW2  728   2.594   1.404   0.853
 1471SOL     OW  729   2.926   1.347   1.340
 1471SOL    HW1  730   2.846   1.324   1.395
 1471SOL    HW2  731   3.009   1.321   1.389
 1472SOL     OW  732   3.454   1.629   1.625
 1472SOL    HW1  733   3.481   1.663   1.535
 1472SOL    HW2  734   3.533   1.591   1.671
 1476SOL     OW  735   2.842   1.116   1.719
 1476SOL    HW1  736   2.743   1.122   1.729
 1476SOL    HW2  737   2.865   1.036   1.663
 1480SOL     OW  738   1.926   1.564   1.331
 1480SOL    HW1  739   1.880   1.646   1.297
 1480SOL    HW2  740   2.024   1.583   1.340
 1484SOL     OW  741   3.134   1.445   1.142
 1484SOL    HW1  742   3.181   1.458   1.229
 1484SOL    HW2  743   3.068   1.371   1.151
 1486SOL     OW  744   2.216   1.510   1.329
 1486SOL    HW1  745   2.195   1.466   1.242
 1486SOL    HW2  746   2.313   1.536   1.332
 1495SOL     OW  747   1.899   1.310   1.282
 1495SOL    HW1  748   1.952   1.261   1.350
 1495SOL    HW2  749   1.921   1.408   1.287
 1501SOL     OW  750   2.842   1.573   1.700
 1501SOL    HW1  751   2.822   1.617   1.612
 1501SOL    HW2  752   2.881   1.482   1.684
 1502SOL     OW  753   3.721   1.518   1.605
 1502SOL    HW1  754   3.735   1.545   1.510
 1502SOL    HW2  755   3.804   1.540   1.658
 1503SOL     OW  756   2.212   0.898   1.804
 1503SOL    HW1  757   2.288   0.942   1.852
 1503SOL    HW2  758   2.247   0.851   1.722
 1512SOL     OW  759   1.950   1.801   0.927
 1512SOL    HW1  760   1.908   1.715   0.900
 1512SOL    HW2  761   2.044   1.804   0.893
 1513SOL     OW  762   2.366   1.568   0.910
 1513SOL    HW1  763   2.432   1.642   0.919
 1513SOL    HW2  764   2.410   1.489   0.868
 1520SOL     OW  765   2.114   1.564   1.744
 1520SOL    HW1  766   2.084   1.621   1.820
 1520SOL    HW2  767   2.107   1.467   1.770
 1522SOL     OW  768   2.792   1.678   1.465
 1522SOL    HW1  769   2.768   1.660   1.370
 1522SOL    HW2  770   2.822   1.772   1.475
 1524SOL     OW  771   2.021   1.137   1.466
 1524SOL    HW1  772   2.043   1.076   1.542
 1524SOL    HW2  773   2.031   1.088   1.380
 1528SOL     OW  774   3.114   1.731   1.128
 1528SOL    HW1  775   3.198   1.736   1.074
 1528SOL    HW2  776   3.091   1.635   1.146
 1530SOL     OW  777   2.550   1.662   1.716
 1530SOL    HW1  778   2.494   1.743   1.725
 1530SOL    HW2  779   2.602   1.666   1.630
 1534SOL     OW  780   1.992   1.794   1.851
 1534SOL    HW1  781   1.951   1.720   1.904
 1534SOL    HW2  782   2.056   1.845   1.909
 1536SOL     OW  783   2.692   1.273   1.422
 1536SOL    HW1  784   2.687   1.306   1.517
 1536SOL    HW2  785   2.606   1.292   1.376
 1538SOL     OW  786   3.512   1.720   1.394
 1538SOL    HW1  787   3.565   1.730   1.310
 1538SOL    HW2  788   3.485   1.810   1.428
 1542SOL     OW  789   2.684   1.002   1.372
 1542SOL    HW1  790   2.724   1.001   1.280
 1542SOL    HW2  791   2.694   1.094   1.412
 1545SOL     OW  792   2.234   1.288   1.490
 1545SOL    HW1  793   2.221   1.381   1.456
 1545SOL    HW2  794   2.150   1.236   1.477
 1552SOL     OW  795   1.967   1.013   1.726
 1552SOL    HW1  796   1.890   0.980   1.780
 1552SOL    HW2  797   2.052   0.983   1.768
 1560SOL     OW  798   3.312   1.220   1.633
 1560SOL    HW1  799   3.303   1.210   1.732
 1560SOL    HW2  800   3.408   1.213   1.607
 1561SOL     OW  801   2.252   1.741   1.560
 1561SOL    HW1  802   2.161   1.782   1.558
 1561SOL    HW2  803   2.245   1.647   1.592
 1568SOL     OW  804   2.523   1.790   0.953
 1568SOL    HW1  805   2.477   1.878   0.940
 1568SOL    HW2  806   2.622   1.802   0.946
 1572SOL     OW  807   2.083   1.314   1.844
 1572SOL    HW1  808   2.018   1.241   1.823
 1572SOL    HW2  809   2.087   1.328   1.942
 1574SOL     OW  810   2.534   1.391   1.624
 1574SOL    HW1  811   2.456   1.341   1.662
 1574SOL    HW2  812   2.531   1.486   1.655
 1583SOL     OW  813   2.480   1.567   1.284
 1583SOL    HW1  814   2.475   1.649   1.341
 1583SOL    HW2  815   2.569   1.564   1.239
 1592SOL     OW  816   2.431   1.275   3.027
 1592SOL    HW1  817   2.338   1.268   2.990
 1592SOL    HW2  818   2.442   1.364   3.071
 1593SOL     OW  819   3.417   1.511   2.565
 1593SOL    HW1  820   3.360   1.495   2.646
 1593SOL    HW2  821   3.358   1.521   2.485
 1594SOL     OW  822   2.997   0.703   2.579
 1594SOL    HW1  823   3.054   0.781   2.554
 1594SOL    HW2  824   2.937   0.729   2.655
 1596SOL     OW  825   2.630   1.144   2.885
 1596SOL    HW1  826   2.552   1.161   2.945
 1596SOL    HW2  827   2.664   1.231   2.849
 1598SOL     OW  828   2.547   1.012   2.527
 1598SOL    HW1  829   2.616   0.996   2.597
 1598SOL    HW2  830   2.474   1.069   2.565
 1599SOL     OW  831   2.548   1.161   3.665
 1599SOL    HW1  832   2.608   1.240   3.679
 1599SOL    HW2  833   2.462   1.192   3.624
 1600SOL     OW  834   2.197   1.435   2.923
 1600SOL    HW1  835   2.119   1.404   2.870
 1600SOL    HW2  836   2.255   1.493   2.866
 1601SOL     OW  837   3.322   1.505   3.201
 1601SOL    HW1  838   3.346   1.599   3.227
 1601SOL    HW2  839   3.306   1.451   3.283
 1604SOL     OW  840   2.093   1.713   2.345
 1604SOL    HW1  841   2.127   1.790   2.399
 1604SOL    HW2  842   2.137   1.713   2.255
 1605SOL     OW  843   2.989   1.341   3.552
 1605SOL    HW1  844   3.036   1.341   3.640
 1605SOL    HW2  845   2.941   1.254   3.541
 1606SOL     OW  846   2.092   1.434   2.400
 1606SOL    HW1  847   2.066   1.530   2.400
 1606SOL    HW2  848   2.021   1.380   2.445
 1607SOL     OW  849   2.102   1.091   2.748
 1607SOL    HW1  850   2.116   1.007   2.800
 1607SOL    HW2  851   2.047   1.155   2.803
 1608SOL     OW  852   2.482   1.786   3.301
 1608SOL    HW1  853   2.390   1.769   3.336
 1608SOL    HW2  854   2.510   1.878   3.327
 1609SOL     OW  855   2.468   0.964   1.985
 1609SOL    HW1  856   2.475   1.048   1.931
 1609SOL    HW2  857   2.514   0.977   2.073
 1611SOL     OW  858   1.984   0.643   2.425
 1611SOL    HW1  859   1.939   0.555   2.442
 1611SOL    HW2  860   1.983   0.697   2.509
 1612SOL     OW  861   3.704   1.767   2.221
 1612SOL    HW1  862   3.758   1.738   2.301
 1612SOL    HW2  863   3.734   1.857   2.192
 1613SOL     OW  864   1.889   1.596   1.979
 1613SOL    HW1  865   1.870   1.500   2.000
 1613SOL    HW2  866   1.856   1.654   2.054
 1615SOL     OW  867   3.503   1.108   2.294
 1615SOL    HW1  868   3.589   1.110   2.242
 1615SOL    HW2  869   3.517   1.155   2.382
 1617SOL     OW  870   2.475   1.365   2.588
 1617SOL    HW1  871   2.426   1.278   2.597
 1617SOL    HW2  872   2.452   1.408   2.501
 1618SOL     OW  873   3.155   1.228   3.285
 1618SOL    HW1  874   3.192   1.155   3.227
 1618SOL    HW2  875   3.207   1.233   3.370
 1620SOL     OW  876   2.059   0.976   3.126
 1620SOL    HW1  877   2.148   0.931   3.112
 1620SOL    HW2  878   1.986   0.911   3.107
 1621SOL     OW  879   3.387   0.999   2.052
 1621SOL    HW1  880   3.324   0.923   2.065
 1621SOL    HW2  881   3.435   1.017   2.138
 1622SOL     OW  882   3.049   1.792   3.478
 1622SOL    HW1  883   3.073   1.852   3.402
 1622SOL    HW2  884   3.056   1.697   3.448
 1624SOL     OW  885   3.328   1.417   2.815
 1624SOL    HW1  886   3.269   1.423   2.895
 1624SOL    HW2  887   3.313   1.329   2.769
 1625SOL     OW  888   3.529   1.714   2.434
 1625SOL    HW1  889   3.488   1.691   2.346
 1625SOL    HW2  890   3.511   1.640   2.499
 1626SOL     OW  891   2.460   0.729   2.132
 1626SOL    HW1  892   2.484   0.798   2.064
 1626SOL    HW2  893   2.382   0.762   2.186
 1628SOL     OW  894   3.438   1.662   2.169
 1628SOL    HW1  895   3.527   1.708   2.172
 1628SOL    HW2  896   3.417   1.638   2.074
 1633SOL     OW  897   2.903   0.701   2.291
 1633SOL    HW1  898   2.929   0.697   2.387
 1633SOL    HW2  899   2.818   0.650   2.277
 1634SOL     OW  900   1.938   0.811   2.651
 1634SOL    HW1  901   2.037   0.799   2.660
 1634SOL    HW2  902   1.914   0.906   2.672
 1635SOL     OW  903   1.992   1.821   3.433
 1635SOL    HW1  904   1.982   1.806   3.532
 1635SOL    HW2  905   1.906   1.857   3.397
 1638SOL     OW  906   3.224   1.144   2.407
 1638SOL    HW1  907   3.307   1.115   2.359
 1638SOL    HW2  908   3.175   1.211   2.351
 1640SOL     OW  909   2.870   1.456   2.339
 1640SOL    HW1  910   2.824   1.528   2.287
 1640SOL    HW2  911   2.866   1.476   2.437
 1641SOL     OW  912   2.213   1.801   2.715
 1641SOL    HW1  913   2.263   1.715   2.721
 1641SOL    HW2  914   2.278   1.878   2.712
 1643SOL     OW  915   3.089   1.550   3.368
 1643SOL    HW1  916   3.095   1.473   3.432
 1643SOL    HW2  917   3.037   1.524   3.288
 1644SOL     OW  918   2.183   0.943   2.104
 1644SOL    HW1  919   2.265   0.982   2.062
 1644SOL    HW2  920   2.156   0.861   2.055
 1646SOL     OW  921   2.323   1.266   3.589
 1646SOL    HW1  922   2.273   1.267   3.503
 1646SOL    HW2  923   2.260   1.248   3.665
 1647SOL     OW  924   2.973   1.776   2.099
 1647SOL    HW1  925   2.913   1.714   2.149
 1647SOL    HW2  926   3.004   1.732   2.014
 1649SOL     OW  927   3.494   1.377   1.943
 1649SOL    HW1  928   3.462   1.471   1.933
 1649SOL    HW2  929   3.418   1.314   1.931
 1650SOL     OW  930   2.326   1.743   2.185
 1650SOL    HW1  931   2.359   1.782   2.271
 1650SOL    HW2  932   2.402   1.736   2.120
 1652SOL     OW  933   2.111   1.785   3.103
 1652SOL    HW1  934   2.168   1.720   3.153
 1652SOL    HW2  935   2.095   1.752   3.010
 1653SOL     OW  936   2.802   1.698   2.766
 1653SOL    HW1  937   2.882   1.641   2.787
 1653SOL    HW2  938   2.753   1.658   2.689
 1654SOL     OW  939   2.244   0.700   2.342
 1654SOL    HW1  940   2.289   0.610   2.339
 1654SOL    HW2  941   2.150   0.689   2.375
 1658SOL     OW  942   2.750   1.514   3.057
 1658SOL    HW1  943   2.727   1.489   2.963
 1658SOL    HW2  944   2.811   1.445   3.096
 1660SOL     OW  945   2.665   1.402   2.786
 1660SOL    HW1  946   2.755   1.416   2.744
 1660SOL    HW2  947   2.594   1.404   2.715
 1663SOL     OW  948   3.296   1.188   1.903
 1663SOL    HW1  949   3.328   1.112   1.960
 1663SOL    HW2  950   3.204   1.215   1.933
 1667SOL     OW  951   3.089   1.570   2.655
 1667SOL    HW1  952   3.110   1.644   2.590
 1667SOL    HW2  953   3.157   1.570   2.728
 1668SOL     OW  954   2.321   1.152   2.603
 1668SOL    HW1  955   2.250   1.125   2.668
 1668SOL    HW2  956   2.295   1.124   2.510
 1669SOL     OW  957   3.133   1.797   2.453
 1669SOL    HW1  958   3.177   1.861   2.389
 1669SOL    HW2  959   3.083   1.849   2.523
 1675SOL     OW  960   3.291   1.173   2.729
 1675SOL    HW1  961   3.236   1.089   2.722
 1675SOL    HW2  962   3.317   1.202   2.637
 1678SOL     OW  963   2.350   1.385   2.036
 1678SOL    HW1  964   2.263   1.370   2.083
 1678SOL    HW2  965   2.333   1.411   1.941
 1679SOL     OW  966   3.526   1.280   2.519
 1679SOL    HW1  967   3.625   1.288   2.533
 1679SOL    HW2  968   3.481   1.364   2.550
 1683SOL     OW  969   2.926   1.347   3.202
 1683SOL    HW1  970   2.846   1.324   3.257
 1683SOL    HW2  971   3.009   1.321   3.251
 1684SOL     OW  972   3.454   1.629   3.487
 1684SOL    HW1  973   3.481   1.663   3.397
 1684SOL    HW2  974   3.533   1.591   3.533
 1685SOL     OW  975   2.973   1.195   2.962
 1685SOL    HW1  976   2.933   1.239   3.043
 1685SOL    HW2  977   2.932   1.232   2.879
 1686SOL     OW  978   3.500   1.099   2.941
 1686SOL    HW1  979   3.505   1.180   3.000
 1686SOL    HW2  980   3.414   1.101   2.890
 1689SOL     OW  981   2.567   1.050   2.230
 1689SOL    HW1  982   2.553   1.057   2.329
 1689SOL    HW2  983   2.651   0.999   2.212
 1690SOL     OW  984   2.272   0.813   3.113
 1690SOL    HW1  985   2.358   0.825   3.163
 1690SOL    HW2  986   2.230   0.726   3.140
 1692SOL     OW  987   1.926   1.564   3.193
 1692SOL    HW1  988   1.880   1.646   3.159
 1692SOL    HW2  989   2.024   1.583   3.202
 1693SOL     OW  990   2.229   1.100   2.363
 1693SOL    HW1  991   2.222   1.183   2.307
 1693SOL    HW2  992   2.233   1.020   2.303
 1695SOL     OW  993   3.114   1.348   2.250
 1695SOL    HW1  994   3.164   1.425   2.290
 1695SOL    HW2  995   3.019   1.350   2.282
 1696SOL     OW  996   3.134   1.445   3.004
 1696SOL    HW1  997   3.181   1.458   3.091
 1696SOL    HW2  998   3.068   1.371   3.013
 1698SOL     OW  999   2.216   1.510   3.191
 1698SOL    HW1 1000   2.195   1.466   3.104
 1698SOL    HW2 1001   2.313   1.536   3.194
 1703SOL     OW 1002   2.435   0.870   2.891
 1703SOL    HW1 1003   2.479   0.959   2.882
 1703SOL    HW2 1004   2.372   0.870   2.968
 1707SOL     OW 1005   1.899   1.310   3.144
 1707SOL    HW1 1006   1.952   1.261   3.212
 1707SOL    HW2 1007   1.921   1.408   3.149
 1712SOL     OW 1008   2.885   0.766   2.828
 1712SOL    HW1 1009   2.900   0.787   2.924
 1712SOL    HW2 1010   2.855   0.671   2.819
 1713SOL     OW 1011   2.842   1.573   3.562
 1713SOL    HW1 1012   2.822   1.617   3.474
 1713SOL    HW2 1013   2.881   1.482   3.546
 1717SOL     OW 1014   3.165   0.838   1.904
 1717SOL    HW1 1015   3.199   0.745   1.919
 1717SOL    HW2 1016   3.183   0.865   1.809
 1718SOL     OW 1017   2.930   1.333   2.711
 1718SOL    HW1 1018   2.937   1.249   2.656
 1718SOL    HW2 1019   2.992   1.402   2.675
 1719SOL     OW 1020   2.181   0.810   2.811
 1719SOL    HW1 1021   2.274   0.846   2.816
 1719SOL    HW2 1022   2.175   0.725   2.863
 1723SOL     OW 1023   1.870   1.326   2.062
 1723SOL    HW1 1024   1.777   1.347   2.031
 1723SOL    HW2 1025   1.880   1.227   2.075
 1724SOL     OW 1026   1.950   1.801   2.789
 1724SOL    HW1 1027   1.908   1.715   2.762
 1724SOL    HW2 1028   2.044   1.804   2.755
 1725SOL     OW 1029   2.366   1.568   2.772
 1725SOL    HW1 1030   2.432   1.642   2.781
 1725SOL    HW2 1031   2.410   1.489   2.730
 1732SOL     OW 1032   2.114   1.564   3.606
 1732SOL    HW1 1033   2.084   1.621   3.682
 1732SOL    HW2 1034   2.107   1.467   3.632
 1734SOL     OW 1035   2.792   1.678   3.327
 1734SOL    HW1 1036   2.768   1.660   3.232
 1734SOL    HW2 1037   2.822   1.772   3.337
 1736SOL     OW 1038   2.021   1.137   3.328
 1736SOL    HW1 1039   2.043   1.076   3.404
 1736SOL    HW2 1040   2.031   1.088   3.242
 1737SOL     OW 1041   3.209   1.059   3.096
 1737SOL    HW1 1042   3.233   0.996   3.022
 1737SOL    HW2 1043   3.119   1.099   3.078
 1738SOL     OW 1044   3.164   0.855   2.171
 1738SOL    HW1 1045   3.078   0.824   2.213
 1738SOL    HW2 1046   3.160   0.841   2.072
 1739SOL     OW 1047   3.621   1.747   3.016
 1739SOL    HW1 1048   3.682   1.777   2.943
 1739SOL    HW2 1049   3.583   1.658   2.994
 1740SOL     OW 1050   3.114   1.731   2.990
 1740SOL    HW1 1051   3.198   1.736   2.936
 1740SOL    HW2 1052   3.091   1.635   3.008
 1741SOL     OW 1053   1.945   1.258   2.884
 1741SOL    HW1 1054   1.940   1.257   2.984
 1741SOL    HW2 1055   1.862   1.217   2.846
 1742SOL     OW 1056   2.550   1.662   3.578
 1742SOL    HW1 1057   2.494   1.743   3.587
 1742SOL    HW2 1058   2.602   1.666   3.492
 1744SOL     OW 1059   3.250   1.573   2.339
 1744SOL    HW1 1060   3.317   1.585   2.265
 1744SOL    HW2 1061   3.210   1.662   2.362
 1745SOL     OW 1062   1.992   1.794   3.713
 1745SOL    HW1 1063   1.951   1.720   3.766
 1745SOL    HW2 1064   2.056   1.845   3.771
 1746SOL     OW 1065   3.142   0.927   2.534
 1746SOL    HW1 1066   3.202   0.846   2.536
 1746SOL    HW2 1067   3.182   0.996   2.474
 1747SOL     OW 1068   2.692   1.273   3.284
 1747SOL    HW1 1069   2.687   1.306   3.379
 1747SOL    HW2 1070   2.606   1.292   3.238
 1748SOL     OW 1071   2.534   1.616   2.016
 1748SOL    HW1 1072   2.543   1.626   1.917
 1748SOL    HW2 1073   2.494   1.527   2.037
 1749SOL     OW 1074   3.512   1.720   3.256
 1749SOL    HW1 1075   3.565   1.730   3.172
 1749SOL    HW2 1076   3.485   1.810   3.290
 1752SOL     OW 1077   3.056   1.612   1.893
 1752SOL    HW1 1078   3.062   1.519   1.930
 1752SOL    HW2 1079   2.997   1.612   1.813
 1753SOL     OW 1080   2.684   1.002   3.234
 1753SOL    HW1 1081   2.724   1.001   3.142
 1753SOL    HW2 1082   2.694   1.094   3.274
 1754SOL     OW 1083   2.778   0.910   2.153
 1754SOL    HW1 1084   2.841   0.948   2.085
 1754SOL    HW2 1085   2.818   0.827   2.192
 1755SOL     OW 1086   3.366   1.607   1.906
 1755SOL    HW1 1087   3.274   1.644   1.913
 1755SOL    HW2 1088   3.404   1.627   1.816
 1756SOL     OW 1089   2.234   1.288   3.352
 1756SOL    HW1 1090   2.221   1.381   3.318
 1756SOL    HW2 1091   2.150   1.236   3.339
 1757SOL     OW 1092   3.476   1.292   3.151
 1757SOL    HW1 1093   3.536   1.295   3.231
 1757SOL    HW2 1094   3.401   1.356   3.164
 1758SOL     OW 1095   2.901   1.098   2.558
 1758SOL    HW1 1096   2.831   1.051   2.612
 1758SOL    HW2 1097   2.960   1.030   2.515
 1760SOL     OW 1098   2.452   1.487   2.353
 1760SOL    HW1 1099   2.494   1.429   2.283
 1760SOL    HW2 1100   2.408   1.566   2.309
 1762SOL     OW 1101   2.117   1.348   2.152
 1762SOL    HW1 1102   2.021   1.349   2.125
 1762SOL    HW2 1103   2.129   1.401   2.236
 1768SOL     OW 1104   3.045   1.335   1.981
 1768SOL    HW1 1105   2.946   1.324   1.983
 1768SOL    HW2 1106   3.079   1.350   2.074
 1769SOL     OW 1107   2.475   0.842   3.293
 1769SOL    HW1 1108   2.531   0.923   3.276
 1769SOL    HW2 1109   2.534   0.762   3.296
 1770SOL     OW 1110   3.355   1.767   2.821
 1770SOL    HW1 1111   3.388   1.831   2.752
 1770SOL    HW2 1112   3.421   1.761   2.896
 1773SOL     OW 1113   2.252   1.741   3.422
 1773SOL    HW1 1114   2.161   1.782   3.420
 1773SOL    HW2 1115   2.245   1.647   3.454
 1776SOL     OW 1116   2.456   0.745   2.514
 1776SOL    HW1 1117   2.506   0.830   2.495
 1776SOL    HW2 1118   2.368   0.747   2.466
 1779SOL     OW 1119   2.721   1.374   1.878
 1779SOL    HW1 1120   2.675   1.389   1.966
 1779SOL    HW2 1121   2.765   1.459   1.848
 1780SOL     OW 1122   2.523   1.790   2.815
 1780SOL    HW1 1123   2.477   1.878   2.802
 1780SOL    HW2 1124   2.622   1.802   2.808
 1781SOL     OW 1125   2.721   0.956   2.723
 1781SOL    HW1 1126   2.775   0.887   2.771
 1781SOL    HW2 1127   2.689   1.025   2.789
 1782SOL     OW 1128   2.945   0.984   1.949
 1782SOL    HW1 1129   2.922   1.037   1.867
 1782SOL    HW2 1130   3.026   0.928   1.930
 1783SOL     OW 1131   3.723   1.569   2.713
 1783SOL    HW1 1132   3.652   1.557   2.643
 1783SOL    HW2 1133   3.724   1.490   2.773
 1784SOL     OW 1134   2.083   1.314   3.706
 1784SOL    HW1 1135   2.018   1.241   3.685
 1784SOL    HW2 1136   2.087   1.328   3.804
 1785SOL     OW 1137   1.941   1.240   2.515
 1785SOL    HW1 1138   1.940   1.193   2.603
 1785SOL    HW2 1139   2.023   1.212   2.464
 1786SOL     OW 1140   2.534   1.391   3.486
 1786SOL    HW1 1141   2.456   1.341   3.524
 1786SOL    HW2 1142   2.531   1.486   3.517
 1789SOL     OW 1143   3.567   1.487   2.966
 1789SOL    HW1 1144   3.474   1.462   2.939
 1789SOL    HW2 1145   3.593   1.437   3.048
 1791SOL     OW 1146   2.674   1.586   2.549
 1791SOL    HW1 1147   2.706   1.596   2.455
 1791SOL    HW2 1148   2.595   1.524   2.551
 1794SOL     OW 1149   2.632   1.330   2.163
 1794SOL    HW1 1150   2.586   1.243   2.180
 1794SOL    HW2 1151   2.723   1.327   2.204
 1795SOL     OW 1152   2.480   1.567   3.146
 1795SOL    HW1 1153   2.475   1.649   3.203
 1795SOL    HW2 1154   2.569   1.564   3.101
 1799SOL     OW 1155   1.901   1.077   2.162
 1799SOL    HW1 1156   2.000   1.066   2.153
 1799SOL    HW2 1157   1.861   0.991   2.194
 1800SOL     OW 1158   2.737   1.646   2.199
 1800SOL    HW1 1159   2.660   1.611   2.145
 1800SOL    HW2 1160   2.705   1.717   2.261
 1816SOL     OW 1161   1.889   1.596   3.841
 1816SOL    HW1 1162   1.870   1.500   3.862
 1816SOL    HW2 1163   1.856   1.654   3.916
 1836SOL     OW 1164   2.973   1.776   3.961
 1836SOL    HW1 1165   2.913   1.714   4.011
 1836SOL    HW2 1166   3.004   1.732   3.876
 1838SOL     OW 1167   2.326   1.743   4.047
 1838SOL    HW1 1168   2.359   1.782   4.133
 1838SOL    HW2 1169   2.402   1.736   3.982
 1886SOL     OW 1170   2.534   1.616   3.878
 1886SOL    HW1 1171   2.543   1.626   3.779
 1886SOL    HW2 1172   2.494   1.527   3.899
 1889SOL     OW 1173   3.056   1.612   3.755
 1889SOL    HW1 1174   3.062   1.519   3.792
 1889SOL    HW2 1175   2.997   1.612   3.675
 1902SOL     OW 1176   2.721   1.374   3.740
 1902SOL    HW1 1177   2.675   1.389   3.828
 1902SOL    HW2 1178   2.765   1.459   3.710
 1918SOL     OW 1179   2.087   2.137   0.996
 1918SOL    HW1 1180   2.122   2.120   1.088
 1918SOL    HW2 1181   1.999   2.092   0.984
 1920SOL     OW 1182   2.431   3.137   1.165
 1920SOL    HW1 1183   2.338   3.130   1.128
 1920SOL    HW2 1184   2.442   3.226   1.209
 1922SOL     OW 1185   2.997   2.565   0.717
 1922SOL    HW1 1186   3.054   2.643   0.692
 1922SOL    HW2 1187   2.937   2.591   0.793
 1924SOL     OW 1188   2.630   3.006   1.023
 1924SOL    HW1 1189   2.552   3.023   1.083
 1924SOL    HW2 1190   2.664   3.093   0.987
 1925SOL     OW 1191   2.712   2.660   1.823
 1925SOL    HW1 1192   2.708   2.736   1.888
 1925SOL    HW2 1193   2.734   2.696   1.732
 1926SOL     OW 1194   2.547   2.874   0.665
 1926SOL    HW1 1195   2.616   2.858   0.735
 1926SOL    HW2 1196   2.474   2.931   0.703
 1927SOL     OW 1197   2.548   3.023   1.803
 1927SOL    HW1 1198   2.608   3.102   1.817
 1927SOL    HW2 1199   2.462   3.054   1.762
 1928SOL     OW 1200   2.197   3.297   1.061
 1928SOL    HW1 1201   2.119   3.266   1.008
 1928SOL    HW2 1202   2.255   3.355   1.004
 1929SOL     OW 1203   3.322   3.367   1.339
 1929SOL    HW1 1204   3.346   3.461   1.365
 1929SOL    HW2 1205   3.306   3.313   1.421
 1930SOL     OW 1206   2.300   2.254   1.499
 1930SOL    HW1 1207   2.382   2.198   1.508
 1930SOL    HW2 1208   2.219   2.196   1.503
 1933SOL     OW 1209   2.989   3.203   1.690
 1933SOL    HW1 1210   3.036   3.203   1.778
 1933SOL    HW2 1211   2.941   3.116   1.679
 1935SOL     OW 1212   2.102   2.953   0.886
 1935SOL    HW1 1213   2.116   2.869   0.938
 1935SOL    HW2 1214   2.047   3.017   0.941
 1936SOL     OW 1215   2.482   3.648   1.439
 1936SOL    HW1 1216   2.390   3.631   1.474
 1936SOL    HW2 1217   2.510   3.740   1.465
 1938SOL     OW 1218   3.456   1.976   1.480
 1938SOL    HW1 1219   3.438   2.043   1.408
 1938SOL    HW2 1220   3.453   2.022   1.569
 1944SOL     OW 1221   1.975   2.599   1.597
 1944SOL    HW1 1222   2.063   2.586   1.642
 1944SOL    HW2 1223   1.962   2.696   1.575
 1946SOL     OW 1224   3.155   3.090   1.423
 1946SOL    HW1 1225   3.192   3.017   1.365
 1946SOL    HW2 1226   3.207   3.095   1.508
 1948SOL     OW 1227   2.059   2.838   1.264
 1948SOL    HW1 1228   2.148   2.793   1.250
 1948SOL    HW2 1229   1.986   2.773   1.245
 1950SOL     OW 1230   3.049   3.654   1.616
 1950SOL    HW1 1231   3.073   3.714   1.540
 1950SOL    HW2 1232   3.056   3.559   1.586
 1951SOL     OW 1233   2.179   2.113   1.801
 1951SOL    HW1 1234   2.250   2.184   1.807
 1951SOL    HW2 1235   2.091   2.152   1.829
 1955SOL     OW 1236   3.143   2.207   0.944
 1955SOL    HW1 1237   3.057   2.157   0.931
 1955SOL    HW2 1238   3.205   2.153   1.000
 1957SOL     OW 1239   2.669   2.467   1.465
 1957SOL    HW1 1240   2.622   2.464   1.554
 1957SOL    HW2 1241   2.618   2.412   1.399
 1958SOL     OW 1242   3.256   2.331   1.674
 1958SOL    HW1 1243   3.236   2.374   1.762
 1958SOL    HW2 1244   3.334   2.269   1.683
 1959SOL     OW 1245   2.835   2.752   1.572
 1959SOL    HW1 1246   2.881   2.668   1.543
 1959SOL    HW2 1247   2.779   2.786   1.497
 1960SOL     OW 1248   2.853   2.272   1.242
 1960SOL    HW1 1249   2.776   2.306   1.296
 1960SOL    HW2 1250   2.819   2.221   1.163
 1962SOL     OW 1251   1.938   2.673   0.789
 1962SOL    HW1 1252   2.037   2.661   0.798
 1962SOL    HW2 1253   1.914   2.768   0.810
 1963SOL     OW 1254   1.992   3.683   1.571
 1963SOL    HW1 1255   1.982   3.668   1.670
 1963SOL    HW2 1256   1.906   3.719   1.535
 1965SOL     OW 1257   3.581   2.447   1.831
 1965SOL    HW1 1258   3.555   2.536   1.795
 1965SOL    HW2 1259   3.579   2.379   1.758
 1967SOL     OW 1260   2.412   2.058   0.885
 1967SOL    HW1 1261   2.407   2.053   0.985
 1967SOL    HW2 1262   2.414   2.154   0.856
 1971SOL     OW 1263   3.089   3.412   1.506
 1971SOL    HW1 1264   3.095   3.335   1.570
 1971SOL    HW2 1265   3.037   3.386   1.426
 1974SOL     OW 1266   2.323   3.128   1.727
 1974SOL    HW1 1267   2.273   3.129   1.641
 1974SOL    HW2 1268   2.260   3.110   1.803
 1976SOL     OW 1269   2.064   2.147   1.498
 1976SOL    HW1 1270   1.984   2.207   1.485
 1976SOL    HW2 1271   2.054   2.098   1.584
 1980SOL     OW 1272   2.111   3.647   1.241
 1980SOL    HW1 1273   2.168   3.582   1.291
 1980SOL    HW2 1274   2.095   3.614   1.148
 1983SOL     OW 1275   3.409   2.084   1.729
 1983SOL    HW1 1276   3.404   2.121   1.821
 1983SOL    HW2 1277   3.337   2.015   1.717
 1985SOL     OW 1278   2.643   2.126   1.749
 1985SOL    HW1 1279   2.710   2.065   1.792
 1985SOL    HW2 1280   2.570   2.145   1.814
 1986SOL     OW 1281   2.750   3.376   1.195
 1986SOL    HW1 1282   2.727   3.351   1.101
 1986SOL    HW2 1283   2.811   3.307   1.234
 1987SOL     OW 1284   3.213   2.452   1.433
 1987SOL    HW1 1285   3.241   2.409   1.518
 1987SOL    HW2 1286   3.238   2.548   1.434
 1988SOL     OW 1287   2.665   3.264   0.924
 1988SOL    HW1 1288   2.755   3.278   0.882
 1988SOL    HW2 1289   2.594   3.266   0.853
 1989SOL     OW 1290   2.784   2.365   0.899
 1989SOL    HW1 1291   2.759   2.356   0.803
 1989SOL    HW2 1292   2.832   2.283   0.930
 1993SOL     OW 1293   2.938   2.545   1.464
 1993SOL    HW1 1294   2.858   2.484   1.467
 1993SOL    HW2 1295   3.019   2.492   1.440
 1995SOL     OW 1296   2.321   3.014   0.741
 1995SOL    HW1 1297   2.250   2.987   0.806
 1995SOL    HW2 1298   2.295   2.986   0.648
 1998SOL     OW 1299   1.940   2.418   1.386
 1998SOL    HW1 1300   2.032   2.417   1.345
 1998SOL    HW2 1301   1.934   2.492   1.453
 1999SOL     OW 1302   2.423   2.084   1.147
 1999SOL    HW1 1303   2.461   2.000   1.184
 1999SOL    HW2 1304   2.335   2.103   1.191
 2000SOL     OW 1305   2.728   2.316   0.642
 2000SOL    HW1 1306   2.696   2.388   0.580
 2000SOL    HW2 1307   2.752   2.235   0.589
 2001SOL     OW 1308   2.879   1.901   0.753
 2001SOL    HW1 1309   2.807   1.906   0.684
 2001SOL    HW2 1310   2.855   1.832   0.822
 2003SOL     OW 1311   3.328   2.452   0.992
 2003SOL    HW1 1312   3.298   2.357   0.999
 2003SOL    HW2 1313   3.401   2.468   1.058
 2009SOL     OW 1314   3.616   3.085   1.588
 2009SOL    HW1 1315   3.707   3.046   1.575
 2009SOL    HW2 1316   3.624   3.181   1.612
 2010SOL     OW 1317   2.926   3.209   1.340
 2010SOL    HW1 1318   2.846   3.186   1.395
 2010SOL    HW2 1319   3.009   3.183   1.389
 2011SOL     OW 1320   3.454   3.491   1.625
 2011SOL    HW1 1321   3.481   3.525   1.535
 2011SOL    HW2 1322   3.533   3.453   1.671
 2012SOL     OW 1323   2.973   3.057   1.100
 2012SOL    HW1 1324   2.933   3.101   1.181
 2012SOL    HW2 1325   2.932   3.094   1.017
 2014SOL     OW 1326   2.777   1.951   1.402
 2014SOL    HW1 1327   2.802   1.931   1.307
 2014SOL    HW2 1328   2.849   2.007   1.444
 2015SOL     OW 1329   2.842   2.978   1.719
 2015SOL    HW1 1330   2.743   2.984   1.729
 2015SOL    HW2 1331   2.865   2.898   1.663
 2017SOL     OW 1332   2.272   2.675   1.251
 2017SOL    HW1 1333   2.358   2.687   1.301
 2017SOL    HW2 1334   2.230   2.588   1.278
 2018SOL     OW 1335   3.136   2.248   1.262
 2018SOL    HW1 1336   3.157   2.322   1.326
 2018SOL    HW2 1337   3.047   2.265   1.219
 2019SOL     OW 1338   1.926   3.426   1.331
 2019SOL    HW1 1339   1.880   3.508   1.297
 2019SOL    HW2 1340   2.024   3.445   1.340
 2021SOL     OW 1341   2.428   2.399   0.865
 2021SOL    HW1 1342   2.440   2.465   0.791
 2021SOL    HW2 1343   2.474   2.433   0.948
 2023SOL     OW 1344   3.134   3.307   1.142
 2023SOL    HW1 1345   3.181   3.320   1.229
 2023SOL    HW2 1346   3.068   3.233   1.151
 2025SOL     OW 1347   2.216   3.372   1.329
 2025SOL    HW1 1348   2.195   3.328   1.242
 2025SOL    HW2 1349   2.313   3.398   1.332
 2026SOL     OW 1350   2.264   2.613   1.598
 2026SOL    HW1 1351   2.332   2.668   1.551
 2026SOL    HW2 1352   2.304   2.525   1.625
 2027SOL     OW 1353   3.449   2.641   1.670
 2027SOL    HW1 1354   3.357   2.679   1.665
 2027SOL    HW2 1355   3.509   2.688   1.605
 2028SOL     OW 1356   2.875   1.967   1.770
 2028SOL    HW1 1357   2.881   2.052   1.718
 2028SOL    HW2 1358   2.907   1.891   1.713
 2029SOL     OW 1359   2.366   1.912   1.740
 2029SOL    HW1 1360   2.324   1.855   1.670
 2029SOL    HW2 1361   2.300   1.981   1.772
 2030SOL     OW 1362   2.435   2.732   1.029
 2030SOL    HW1 1363   2.479   2.821   1.020
 2030SOL    HW2 1364   2.372   2.732   1.106
 2031SOL     OW 1365   3.222   2.724   1.045
 2031SOL    HW1 1366   3.147   2.724   0.979
 2031SOL    HW2 1367   3.259   2.632   1.054
 2033SOL     OW 1368   2.169   2.075   1.231
 2033SOL    HW1 1369   2.146   2.112   1.321
 2033SOL    HW2 1370   2.139   1.980   1.225
 2034SOL     OW 1371   1.899   3.172   1.282
 2034SOL    HW1 1372   1.952   3.123   1.350
 2034SOL    HW2 1373   1.921   3.270   1.287
 2035SOL     OW 1374   2.594   2.496   1.064
 2035SOL    HW1 1375   2.653   2.470   0.988
 2035SOL    HW2 1376   2.566   2.592   1.053
 2036SOL     OW 1377   3.590   2.797   1.854
 2036SOL    HW1 1378   3.544   2.790   1.765
 2036SOL    HW2 1379   3.528   2.841   1.920
 2039SOL     OW 1380   2.885   2.628   0.966
 2039SOL    HW1 1381   2.900   2.649   1.062
 2039SOL    HW2 1382   2.855   2.533   0.957
 2040SOL     OW 1383   2.842   3.435   1.700
 2040SOL    HW1 1384   2.822   3.479   1.612
 2040SOL    HW2 1385   2.881   3.344   1.684
 2042SOL     OW 1386   2.212   2.760   1.804
 2042SOL    HW1 1387   2.288   2.804   1.852
 2042SOL    HW2 1388   2.247   2.713   1.722
 2046SOL     OW 1389   2.181   2.672   0.949
 2046SOL    HW1 1390   2.274   2.708   0.954
 2046SOL    HW2 1391   2.175   2.587   1.001
 2047SOL     OW 1392   2.201   2.371   1.006
 2047SOL    HW1 1393   2.149   2.288   0.989
 2047SOL    HW2 1394   2.278   2.376   0.942
 2048SOL     OW 1395   3.000   2.242   1.678
 2048SOL    HW1 1396   2.955   2.305   1.742
 2048SOL    HW2 1397   3.093   2.273   1.661
 2049SOL     OW 1398   3.022   2.069   1.477
 2049SOL    HW1 1399   3.022   2.133   1.554
 2049SOL    HW2 1400   3.050   2.117   1.394
 2053SOL     OW 1401   2.864   2.658   1.238
 2053SOL    HW1 1402   2.905   2.626   1.324
 2053SOL    HW2 1403   2.768   2.631   1.235
 2054SOL     OW 1404   1.902   2.406   1.114
 2054SOL    HW1 1405   1.987   2.373   1.073
 2054SOL    HW2 1406   1.915   2.421   1.212
 2055SOL     OW 1407   2.051   2.382   1.722
 2055SOL    HW1 1408   2.110   2.342   1.652
 2055SOL    HW2 1409   1.993   2.453   1.681
 2056SOL     OW 1410   3.231   2.812   1.660
 2056SOL    HW1 1411   3.270   2.901   1.680
 2056SOL    HW2 1412   3.241   2.792   1.563
 2058SOL     OW 1413   3.519   2.466   1.206
 2058SOL    HW1 1414   3.481   2.397   1.268
 2058SOL    HW2 1415   3.601   2.430   1.162
 2059SOL     OW 1416   2.114   3.426   1.744
 2059SOL    HW1 1417   2.084   3.483   1.820
 2059SOL    HW2 1418   2.107   3.329   1.770
 2060SOL     OW 1419   2.533   2.326   1.269
 2060SOL    HW1 1420   2.499   2.237   1.239
 2060SOL    HW2 1421   2.559   2.380   1.189
 2061SOL     OW 1422   2.792   3.540   1.465
 2061SOL    HW1 1423   2.768   3.522   1.370
 2061SOL    HW2 1424   2.822   3.634   1.475
 2063SOL     OW 1425   2.021   2.999   1.466
 2063SOL    HW1 1426   2.043   2.938   1.542
 2063SOL    HW2 1427   2.031   2.950   1.380
 2064SOL     OW 1428   3.209   2.921   1.234
 2064SOL    HW1 1429   3.233   2.858   1.160
 2064SOL    HW2 1430   3.119   2.961   1.216
 2068SOL     OW 1431   1.945   3.120   1.022
 2068SOL    HW1 1432   1.940   3.119   1.122
 2068SOL    HW2 1433   1.862   3.079   0.984
 2069SOL     OW 1434   2.550   3.524   1.716
 2069SOL    HW1 1435   2.494   3.605   1.725
 2069SOL    HW2 1436   2.602   3.528   1.630
 2073SOL     OW 1437   1.992   3.656   1.851
 2073SOL    HW1 1438   1.951   3.582   1.904
 2073SOL    HW2 1439   2.056   3.707   1.909
 2075SOL     OW 1440   2.692   3.135   1.422
 2075SOL    HW1 1441   2.687   3.168   1.517
 2075SOL    HW2 1442   2.606   3.154   1.376
 2079SOL     OW 1443   2.125   2.188   0.720
 2079SOL    HW1 1444   2.046   2.239   0.686
 2079SOL    HW2 1445   2.116   2.173   0.818
 2081SOL     OW 1446   2.684   2.864   1.372
 2081SOL    HW1 1447   2.724   2.863   1.280
 2081SOL    HW2 1448   2.694   2.956   1.412
 2084SOL     OW 1449   2.234   3.150   1.490
 2084SOL    HW1 1450   2.221   3.243   1.456
 2084SOL    HW2 1451   2.150   3.098   1.477
 2085SOL     OW 1452   3.476   3.154   1.289
 2085SOL    HW1 1453   3.536   3.157   1.369
 2085SOL    HW2 1454   3.401   3.218   1.302
 2087SOL     OW 1455   2.876   2.098   0.971
 2087SOL    HW1 1456   2.868   2.062   0.878
 2087SOL    HW2 1457   2.874   2.022   1.036
 2089SOL     OW 1458   3.571   2.247   1.381
 2089SOL    HW1 1459   3.644   2.316   1.385
 2089SOL    HW2 1460   3.599   2.172   1.322
 2091SOL     OW 1461   1.967   2.875   1.726
 2091SOL    HW1 1462   1.890   2.842   1.780
 2091SOL    HW2 1463   2.052   2.845   1.768
 2092SOL     OW 1464   2.534   2.065   1.489
 2092SOL    HW1 1465   2.624   2.049   1.449
 2092SOL    HW2 1466   2.542   2.070   1.588
 2094SOL     OW 1467   3.302   2.718   1.398
 2094SOL    HW1 1468   3.245   2.770   1.335
 2094SOL    HW2 1469   3.398   2.730   1.374
 2096SOL     OW 1470   2.475   2.704   1.431
 2096SOL    HW1 1471   2.531   2.785   1.414
 2096SOL    HW2 1472   2.534   2.624   1.434
 2098SOL     OW 1473   2.578   2.427   1.708
 2098SOL    HW1 1474   2.597   2.492   1.782
 2098SOL    HW2 1475   2.638   2.347   1.717
 2099SOL     OW 1476   3.312   3.082   1.633
 2099SOL    HW1 1477   3.303   3.072   1.732
 2099SOL    HW2 1478   3.408   3.075   1.607
 2100SOL     OW 1479   2.252   3.603   1.560
 2100SOL    HW1 1480   2.161   3.644   1.558
 2100SOL    HW2 1481   2.245   3.509   1.592
 2101SOL     OW 1482   3.536   2.745   1.254
 2101SOL    HW1 1483   3.509   2.656   1.217
 2101SOL    HW2 1484   3.537   2.813   1.181
 2103SOL     OW 1485   2.456   2.607   0.652
 2103SOL    HW1 1486   2.506   2.692   0.633
 2103SOL    HW2 1487   2.368   2.609   0.604
 2104SOL     OW 1488   3.639   2.204   1.642
 2104SOL    HW1 1489   3.622   2.235   1.548
 2104SOL    HW2 1490   3.555   2.167   1.680
 2105SOL     OW 1491   3.592   2.796   1.517
 2105SOL    HW1 1492   3.630   2.887   1.532
 2105SOL    HW2 1493   3.584   2.779   1.418
 2108SOL     OW 1494   2.721   2.818   0.861
 2108SOL    HW1 1495   2.775   2.749   0.909
 2108SOL    HW2 1496   2.689   2.887   0.927
 2111SOL     OW 1497   2.083   3.176   1.844
 2111SOL    HW1 1498   2.018   3.103   1.823
 2111SOL    HW2 1499   2.087   3.190   1.942
 2113SOL     OW 1500   2.534   3.253   1.624
 2113SOL    HW1 1501   2.456   3.203   1.662
 2113SOL    HW2 1502   2.531   3.348   1.655
 2114SOL     OW 1503   3.686   2.054   1.227
 2114SOL    HW1 1504   3.682   1.964   1.271
 2114SOL    HW2 1505   3.689   2.043   1.128
 2117SOL     OW 1506   2.179   2.409   1.280
 2117SOL    HW1 1507   2.217   2.350   1.352
 2117SOL    HW2 1508   2.219   2.383   1.192
 2119SOL     OW 1509   3.286   2.076   1.112
 2119SOL    HW1 1510   3.338   2.011   1.167
 2119SOL    HW2 1511   3.237   2.139   1.173
 2120SOL     OW 1512   2.863   1.896   1.154
 2120SOL    HW1 1513   2.800   1.824   1.123
 2120SOL    HW2 1514   2.956   1.860   1.154
 2122SOL     OW 1515   2.480   3.429   1.284
 2122SOL    HW1 1516   2.475   3.511   1.341
 2122SOL    HW2 1517   2.569   3.426   1.239
 2128SOL     OW 1518   2.092   2.490   1.975
 2128SOL    HW1 1519   1.999   2.488   2.012
 2128SOL    HW2 1520   2.093   2.451   1.883
 2129SOL     OW 1521   2.087   2.137   2.858
 2129SOL    HW1 1522   2.122   2.120   2.950
 2129SOL    HW2 1523   1.999   2.092   2.846
 2130SOL     OW 1524   1.881   2.230   2.509
 2130SOL    HW1 1525   1.799   2.273   2.548
 2130SOL    HW2 1526   1.853   2.157   2.446
 2131SOL     OW 1527   2.431   3.137   3.027
 2131SOL    HW1 1528   2.338   3.130   2.990
 2131SOL    HW2 1529   2.442   3.226   3.071
 2132SOL     OW 1530   3.417   3.373   2.565
 2132SOL    HW1 1531   3.360   3.357   2.646
 2132SOL    HW2 1532   3.358   3.383   2.485
 2133SOL     OW 1533   2.997   2.565   2.579
 2133SOL    HW1 1534   3.054   2.643   2.554
 2133SOL    HW2 1535   2.937   2.591   2.655
 2134SOL     OW 1536   3.617   2.469   2.093
 2134SOL    HW1 1537   3.605   2.456   1.994
 2134SOL    HW2 1538   3.587   2.388   2.142
 2135SOL     OW 1539   2.630   3.006   2.885
 2135SOL    HW1 1540   2.552   3.023   2.945
 2135SOL    HW2 1541   2.664   3.093   2.849
 2136SOL     OW 1542   2.712   2.660   3.685
 2136SOL    HW1 1543   2.708   2.736   3.750
 2136SOL    HW2 1544   2.734   2.696   3.594
 2137SOL     OW 1545   2.547   2.874   2.527
 2137SOL    HW1 1546   2.616   2.858   2.597
 2137SOL    HW2 1547   2.474   2.931   2.565
 2138SOL     OW 1548   2.548   3.023   3.665
 2138SOL    HW1 1549   2.608   3.102   3.679
 2138SOL    HW2 1550   2.462   3.054   3.624
 2139SOL     OW 1551   2.197   3.297   2.923
 2139SOL    HW1 1552   2.119   3.266   2.870
 2139SOL    HW2 1553   2.255   3.355   2.866
 2140SOL     OW 1554   3.322   3.367   3.201
 2140SOL    HW1 1555   3.346   3.461   3.227
 2140SOL    HW2 1556   3.306   3.313   3.283
 2141SOL     OW 1557   2.300   2.254   3.361
 2141SOL    HW1 1558   2.382   2.198   3.370
 2141SOL    HW2 1559   2.219   2.196   3.365
 2142SOL     OW 1560   3.465   2.309   2.599
 2142SOL    HW1 1561   3.391   2.355   2.549
 2142SOL    HW2 1562   3.516   2.377   2.652
 2143SOL     OW 1563   2.093   3.575   2.345
 2143SOL    HW1 1564   2.127   3.652   2.399
 2143SOL    HW2 1565   2.137   3.575   2.255
 2144SOL     OW 1566   2.989   3.203   3.552
 2144SOL    HW1 1567   3.036   3.203   3.640
 2144SOL    HW2 1568   2.941   3.116   3.541
 2145SOL     OW 1569   2.092   3.296   2.400
 2145SOL    HW1 1570   2.066   3.392   2.400
 2145SOL    HW2 1571   2.021   3.242   2.445
 2146SOL     OW 1572   2.102   2.953   2.748
 2146SOL    HW1 1573   2.116   2.869   2.800
 2146SOL    HW2 1574   2.047   3.017   2.803
 2147SOL     OW 1575   2.482   3.648   3.301
 2147SOL    HW1 1576   2.390   3.631   3.336
 2147SOL    HW2 1577   2.510   3.740   3.327
 2148SOL     OW 1578   2.468   2.826   1.985
 2148SOL    HW1 1579   2.475   2.910   1.931
 2148SOL    HW2 1580   2.514   2.839   2.073
 2149SOL     OW 1581   3.456   1.976   3.342
 2149SOL    HW1 1582   3.438   2.043   3.270
 2149SOL    HW2 1583   3.453   2.022   3.431
 2150SOL     OW 1584   1.984   2.505   2.425
 2150SOL    HW1 1585   1.939   2.417   2.442
 2150SOL    HW2 1586   1.983   2.559   2.509
 2152SOL     OW 1587   1.889   3.458   1.979
 2152SOL    HW1 1588   1.870   3.362   2.000
 2152SOL    HW2 1589   1.856   3.516   2.054
 2153SOL     OW 1590   3.551   2.784   2.474
 2153SOL    HW1 1591   3.646   2.755   2.482
 2153SOL    HW2 1592   3.543   2.849   2.399
 2154SOL     OW 1593   3.503   2.970   2.294
 2154SOL    HW1 1594   3.589   2.972   2.242
 2154SOL    HW2 1595   3.517   3.017   2.382
 2155SOL     OW 1596   1.975   2.599   3.459
 2155SOL    HW1 1597   2.063   2.586   3.504
 2155SOL    HW2 1598   1.962   2.696   3.437
 2156SOL     OW 1599   2.475   3.227   2.588
 2156SOL    HW1 1600   2.426   3.140   2.597
 2156SOL    HW2 1601   2.452   3.270   2.501
 2157SOL     OW 1602   3.155   3.090   3.285
 2157SOL    HW1 1603   3.192   3.017   3.227
 2157SOL    HW2 1604   3.207   3.095   3.370
 2158SOL     OW 1605   2.671   1.866   2.364
 2158SOL    HW1 1606   2.711   1.957   2.355
 2158SOL    HW2 1607   2.571   1.874   2.370
 2159SOL     OW 1608   2.059   2.838   3.126
 2159SOL    HW1 1609   2.148   2.793   3.112
 2159SOL    HW2 1610   1.986   2.773   3.107
 2160SOL     OW 1611   3.387   2.861   2.052
 2160SOL    HW1 1612   3.324   2.785   2.065
 2160SOL    HW2 1613   3.435   2.879   2.138
 2162SOL     OW 1614   2.179   2.113   3.663
 2162SOL    HW1 1615   2.250   2.184   3.669
 2162SOL    HW2 1616   2.091   2.152   3.691
 2163SOL     OW 1617   3.328   3.279   2.815
 2163SOL    HW1 1618   3.269   3.285   2.895
 2163SOL    HW2 1619   3.313   3.191   2.769
 2164SOL     OW 1620   3.529   3.576   2.434
 2164SOL    HW1 1621   3.488   3.553   2.346
 2164SOL    HW2 1622   3.511   3.502   2.499
 2165SOL     OW 1623   2.460   2.591   2.132
 2165SOL    HW1 1624   2.484   2.660   2.064
 2165SOL    HW2 1625   2.382   2.624   2.186
 2166SOL     OW 1626   3.143   2.207   2.806
 2166SOL    HW1 1627   3.057   2.157   2.793
 2166SOL    HW2 1628   3.205   2.153   2.862
 2167SOL     OW 1629   3.438   3.524   2.169
 2167SOL    HW1 1630   3.527   3.570   2.172
 2167SOL    HW2 1631   3.417   3.500   2.074
 2168SOL     OW 1632   2.669   2.467   3.327
 2168SOL    HW1 1633   2.622   2.464   3.416
 2168SOL    HW2 1634   2.618   2.412   3.261
 2169SOL     OW 1635   3.256   2.331   3.536
 2169SOL    HW1 1636   3.236   2.374   3.624
 2169SOL    HW2 1637   3.334   2.269   3.545
 2170SOL     OW 1638   2.835   2.752   3.434
 2170SOL    HW1 1639   2.881   2.668   3.405
 2170SOL    HW2 1640   2.779   2.786   3.359
 2171SOL     OW 1641   2.853   2.272   3.104
 2171SOL    HW1 1642   2.776   2.306   3.158
 2171SOL    HW2 1643   2.819   2.221   3.025
 2172SOL     OW 1644   2.903   2.563   2.291
 2172SOL    HW1 1645   2.929   2.559   2.387
 2172SOL    HW2 1646   2.818   2.512   2.277
 2173SOL     OW 1647   1.938   2.673   2.651
 2173SOL    HW1 1648   2.037   2.661   2.660
 2173SOL    HW2 1649   1.914   2.768   2.672
 2174SOL     OW 1650   1.992   3.683   3.433
 2174SOL    HW1 1651   1.982   3.668   3.532
 2174SOL    HW2 1652   1.906   3.719   3.397
 2175SOL     OW 1653   2.727   2.210   2.057
 2175SOL    HW1 1654   2.786   2.273   2.008
 2175SOL    HW2 1655   2.746   2.116   2.028
 2176SOL     OW 1656   3.581   2.447   3.693
 2176SOL    HW1 1657   3.555   2.536   3.657
 2176SOL    HW2 1658   3.579   2.379   3.620
 2177SOL     OW 1659   3.224   3.006   2.407
 2177SOL    HW1 1660   3.307   2.977   2.359
 2177SOL    HW2 1661   3.175   3.073   2.351
 2178SOL     OW 1662   2.412   2.058   2.747
 2178SOL    HW1 1663   2.407   2.053   2.847
 2178SOL    HW2 1664   2.414   2.154   2.718
 2179SOL     OW 1665   2.870   3.318   2.339
 2179SOL    HW1 1666   2.824   3.390   2.287
 2179SOL    HW2 1667   2.866   3.338   2.437
 2180SOL     OW 1668   2.213   3.663   2.715
 2180SOL    HW1 1669   2.263   3.577   2.721
 2180SOL    HW2 1670   2.278   3.740   2.712
 2181SOL     OW 1671   3.657   2.928   2.735
 2181SOL    HW1 1672   3.595   2.913   2.659
 2181SOL    HW2 1673   3.605   2.939   2.820
 2182SOL     OW 1674   3.089   3.412   3.368
 2182SOL    HW1 1675   3.095   3.335   3.432
 2182SOL    HW2 1676   3.037   3.386   3.288
 2183SOL     OW 1677   2.183   2.805   2.104
 2183SOL    HW1 1678   2.265   2.844   2.062
 2183SOL    HW2 1679   2.156   2.723   2.055
 2184SOL     OW 1680   3.320   2.597   2.590
 2184SOL    HW1 1681   3.315   2.532   2.665
 2184SOL    HW2 1682   3.400   2.656   2.603
 2185SOL     OW 1683   2.323   3.128   3.589
 2185SOL    HW1 1684   2.273   3.129   3.503
 2185SOL    HW2 1685   2.260   3.110   3.665
 2186SOL     OW 1686   2.973   3.638   2.099
 2186SOL    HW1 1687   2.913   3.576   2.149
 2186SOL    HW2 1688   3.004   3.594   2.014
 2187SOL     OW 1689   2.064   2.147   3.360
 2187SOL    HW1 1690   1.984   2.207   3.347
 2187SOL    HW2 1691   2.054   2.098   3.446
 2188SOL     OW 1692   3.494   3.239   1.943
 2188SOL    HW1 1693   3.462   3.333   1.933
 2188SOL    HW2 1694   3.418   3.176   1.931
 2189SOL     OW 1695   2.326   3.605   2.185
 2189SOL    HW1 1696   2.359   3.644   2.271
 2189SOL    HW2 1697   2.402   3.598   2.120
 2190SOL     OW 1698   3.262   1.969   2.288
 2190SOL    HW1 1699   3.238   1.932   2.198
 2190SOL    HW2 1700   3.361   1.985   2.292
 2191SOL     OW 1701   2.111   3.647   3.103
 2191SOL    HW1 1702   2.168   3.582   3.153
 2191SOL    HW2 1703   2.095   3.614   3.010
 2192SOL     OW 1704   2.802   3.560   2.766
 2192SOL    HW1 1705   2.882   3.503   2.787
 2192SOL    HW2 1706   2.753   3.520   2.689
 2193SOL     OW 1707   3.409   2.084   3.591
 2193SOL    HW1 1708   3.404   2.121   3.683
 2193SOL    HW2 1709   3.337   2.015   3.579
 2194SOL     OW 1710   2.476   1.984   1.979
 2194SOL    HW1 1711   2.574   1.962   1.986
 2194SOL    HW2 1712   2.445   1.967   1.886
 2195SOL     OW 1713   2.643   2.126   3.611
 2195SOL    HW1 1714   2.710   2.065   3.654
 2195SOL    HW2 1715   2.570   2.145   3.676
 2196SOL     OW 1716   2.750   3.376   3.057
 2196SOL    HW1 1717   2.727   3.351   2.963
 2196SOL    HW2 1718   2.811   3.307   3.096
 2197SOL     OW 1719   3.213   2.452   3.295
 2197SOL    HW1 1720   3.241   2.409   3.380
 2197SOL    HW2 1721   3.238   2.548   3.296
 2198SOL     OW 1722   2.665   3.264   2.786
 2198SOL    HW1 1723   2.755   3.278   2.744
 2198SOL    HW2 1724   2.594   3.266   2.715
 2199SOL     OW 1725   2.401   1.926   2.374
 2199SOL    HW1 1726   2.320   1.927   2.432
 2199SOL    HW2 1727   2.404   2.009   2.319
 2200SOL     OW 1728   3.296   3.050   1.903
 2200SOL    HW1 1729   3.328   2.974   1.960
 2200SOL    HW2 1730   3.204   3.077   1.933
 2201SOL     OW 1731   2.159   1.897   2.033
 2201SOL    HW1 1732   2.208   1.981   2.012
 2201SOL    HW2 1733   2.221   1.832   2.078
 2202SOL     OW 1734   2.797   2.098   2.342
 2202SOL    HW1 1735   2.749   2.139   2.264
 2202SOL    HW2 1736   2.896   2.096   2.323
 2203SOL     OW 1737   2.938   2.545   3.326
 2203SOL    HW1 1738   2.858   2.484   3.329
 2203SOL    HW2 1739   3.019   2.492   3.302
 2204SOL     OW 1740   3.089   3.432   2.655
 2204SOL    HW1 1741   3.110   3.506   2.590
 2204SOL    HW2 1742   3.157   3.432   2.728
 2205SOL     OW 1743   2.321   3.014   2.603
 2205SOL    HW1 1744   2.250   2.987   2.668
 2205SOL    HW2 1745   2.295   2.986   2.510
 2206SOL     OW 1746   3.133   3.659   2.453
 2206SOL    HW1 1747   3.177   3.723   2.389
 2206SOL    HW2 1748   3.083   3.711   2.523
 2207SOL     OW 1749   2.894   2.411   1.878
 2207SOL    HW1 1750   2.853   2.493   1.839
 2207SOL    HW2 1751   2.958   2.437   1.951
 2208SOL     OW 1752   1.940   2.418   3.248
 2208SOL    HW1 1753   2.032   2.417   3.207
 2208SOL    HW2 1754   1.934   2.492   3.315
 2209SOL     OW 1755   2.423   2.084   3.009
 2209SOL    HW1 1756   2.461   2.000   3.046
 2209SOL    HW2 1757   2.335   2.103   3.053
 2210SOL     OW 1758   2.879   1.901   2.615
 2210SOL    HW1 1759   2.807   1.906   2.546
 2210SOL    HW2 1760   2.855   1.832   2.684
 2211SOL     OW 1761   3.291   3.035   2.729
 2211SOL    HW1 1762   3.236   2.951   2.722
 2211SOL    HW2 1763   3.317   3.064   2.637
 2212SOL     OW 1764   3.328   2.452   2.854
 2212SOL    HW1 1765   3.298   2.357   2.861
 2212SOL    HW2 1766   3.401   2.468   2.920
 2213SOL     OW 1767   3.719   2.695   2.239
 2213SOL    HW1 1768   3.761   2.631   2.303
 2213SOL    HW2 1769   3.681   2.644   2.161
 2214SOL     OW 1770   2.350   3.247   2.036
 2214SOL    HW1 1771   2.263   3.232   2.083
 2214SOL    HW2 1772   2.333   3.273   1.941
 2215SOL     OW 1773   3.526   3.142   2.519
 2215SOL    HW1 1774   3.625   3.150   2.533
 2215SOL    HW2 1775   3.481   3.226   2.550
 2216SOL     OW 1776   3.252   2.437   1.940
 2216SOL    HW1 1777   3.198   2.416   2.021
 2216SOL    HW2 1778   3.343   2.396   1.949
 2217SOL     OW 1779   2.389   2.118   2.190
 2217SOL    HW1 1780   2.416   2.059   2.115
 2217SOL    HW2 1781   2.389   2.213   2.159
 2218SOL     OW 1782   3.616   3.085   3.450
 2218SOL    HW1 1783   3.707   3.046   3.437
 2218SOL    HW2 1784   3.624   3.181   3.474
 2219SOL     OW 1785   2.926   3.209   3.202
 2219SOL    HW1 1786   2.846   3.186   3.257
 2219SOL    HW2 1787   3.009   3.183   3.251
 2221SOL     OW 1788   2.973   3.057   2.962
 2221SOL    HW1 1789   2.933   3.101   3.043
 2221SOL    HW2 1790   2.932   3.094   2.879
 2222SOL     OW 1791   3.500   2.961   2.941
 2222SOL    HW1 1792   3.505   3.042   3.000
 2222SOL    HW2 1793   3.414   2.963   2.890
 2223SOL     OW 1794   2.777   1.951   3.264
 2223SOL    HW1 1795   2.802   1.931   3.169
 2223SOL    HW2 1796   2.849   2.007   3.306
 2224SOL     OW 1797   2.842   2.978   3.581
 2224SOL    HW1 1798   2.743   2.984   3.591
 2224SOL    HW2 1799   2.865   2.898   3.525
 2225SOL     OW 1800   2.567   2.912   2.230
 2225SOL    HW1 1801   2.553   2.919   2.329
 2225SOL    HW2 1802   2.651   2.861   2.212
 2226SOL     OW 1803   2.272   2.675   3.113
 2226SOL    HW1 1804   2.358   2.687   3.163
 2226SOL    HW2 1805   2.230   2.588   3.140
 2227SOL     OW 1806   3.136   2.248   3.124
 2227SOL    HW1 1807   3.157   2.322   3.188
 2227SOL    HW2 1808   3.047   2.265   3.081
 2228SOL     OW 1809   1.926   3.426   3.193
 2228SOL    HW1 1810   1.880   3.508   3.159
 2228SOL    HW2 1811   2.024   3.445   3.202
 2229SOL     OW 1812   2.229   2.962   2.363
 2229SOL    HW1 1813   2.222   3.045   2.307
 2229SOL    HW2 1814   2.233   2.882   2.303
 2230SOL     OW 1815   3.114   3.210   2.250
 2230SOL    HW1 1816   3.164   3.287   2.290
 2230SOL    HW2 1817   3.019   3.212   2.282
 2231SOL     OW 1818   3.134   3.307   3.004
 2231SOL    HW1 1819   3.181   3.320   3.091
 2231SOL    HW2 1820   3.068   3.233   3.013
 2232SOL     OW 1821   3.444   2.501   2.334
 2232SOL    HW1 1822   3.413   2.562   2.407
 2232SOL    HW2 1823   3.494   2.553   2.265
 2233SOL     OW 1824   2.216   3.372   3.191
 2233SOL    HW1 1825   2.195   3.328   3.104
 2233SOL    HW2 1826   2.313   3.398   3.194
 2234SOL     OW 1827   2.264   2.613   3.460
 2234SOL    HW1 1828   2.332   2.668   3.413
 2234SOL    HW2 1829   2.304   2.525   3.487
 2235SOL     OW 1830   3.449   2.641   3.532
 2235SOL    HW1 1831   3.357   2.679   3.527
 2235SOL    HW2 1832   3.509   2.688   3.467
 2236SOL     OW 1833   2.875   1.967   3.632
 2236SOL    HW1 1834   2.881   2.052   3.580
 2236SOL    HW2 1835   2.907   1.891   3.575
 2237SOL     OW 1836   2.366   1.912   3.602
 2237SOL    HW1 1837   2.324   1.855   3.532
 2237SOL    HW2 1838   2.300   1.981   3.634
 2238SOL     OW 1839   2.435   2.732   2.891
 2238SOL    HW1 1840   2.479   2.821   2.882
 2238SOL    HW2 1841   2.372   2.732   2.968
 2239SOL     OW 1842   3.222   2.724   2.907
 2239SOL    HW1 1843   3.147   2.724   2.841
 2239SOL    HW2 1844   3.259   2.632   2.916
 2240SOL     OW 1845   3.071   2.387   2.137
 2240SOL    HW1 1846   3.084   2.303   2.191
 2240SOL    HW2 1847   3.042   2.461   2.197
 2241SOL     OW 1848   2.169   2.075   3.093
 2241SOL    HW1 1849   2.146   2.112   3.183
 2241SOL    HW2 1850   2.139   1.980   3.087
 2242SOL     OW 1851   1.899   3.172   3.144
 2242SOL    HW1 1852   1.952   3.123   3.212
 2242SOL    HW2 1853   1.921   3.270   3.149
 2243SOL     OW 1854   2.594   2.496   2.926
 2243SOL    HW1 1855   2.653   2.470   2.850
 2243SOL    HW2 1856   2.566   2.592   2.915
 2245SOL     OW 1857   2.169   1.925   2.480
 2245SOL    HW1 1858   2.158   2.019   2.513
 2245SOL    HW2 1859   2.164   1.862   2.557
 2246SOL     OW 1860   3.484   2.229   2.236
 2246SOL    HW1 1861   3.486   2.153   2.300
 2246SOL    HW2 1862   3.436   2.306   2.276
 2247SOL     OW 1863   2.885   2.628   2.828
 2247SOL    HW1 1864   2.900   2.649   2.924
 2247SOL    HW2 1865   2.855   2.533   2.819
 2248SOL     OW 1866   2.842   3.435   3.562
 2248SOL    HW1 1867   2.822   3.479   3.474
 2248SOL    HW2 1868   2.881   3.344   3.546
 2250SOL     OW 1869   2.212   2.760   3.666
 2250SOL    HW1 1870   2.288   2.804   3.714
 2250SOL    HW2 1871   2.247   2.713   3.584
 2251SOL     OW 1872   3.402   2.136   1.987
 2251SOL    HW1 1873   3.341   2.061   2.010
 2251SOL    HW2 1874   3.424   2.188   2.070
 2252SOL     OW 1875   3.165   2.700   1.904
 2252SOL    HW1 1876   3.199   2.607   1.919
 2252SOL    HW2 1877   3.183   2.727   1.809
 2253SOL     OW 1878   2.930   3.195   2.711
 2253SOL    HW1 1879   2.937   3.111   2.656
 2253SOL    HW2 1880   2.992   3.264   2.675
 2254SOL     OW 1881   2.181   2.672   2.811
 2254SOL    HW1 1882   2.274   2.708   2.816
 2254SOL    HW2 1883   2.175   2.587   2.863
 2255SOL     OW 1884   2.201   2.371   2.868
 2255SOL    HW1 1885   2.149   2.288   2.851
 2255SOL    HW2 1886   2.278   2.376   2.804
 2256SOL     OW 1887   3.000   2.242   3.540
 2256SOL    HW1 1888   2.955   2.305   3.604
 2256SOL    HW2 1889   3.093   2.273   3.523
 2257SOL     OW 1890   3.022   2.069   3.339
 2257SOL    HW1 1891   3.022   2.133   3.416
 2257SOL    HW2 1892   3.050   2.117   3.256
 2258SOL     OW 1893   1.870   3.188   2.062
 2258SOL    HW1 1894   1.777   3.209   2.031
 2258SOL    HW2 1895   1.880   3.089   2.075
 2259SOL     OW 1896   1.950   3.663   2.789
 2259SOL    HW1 1897   1.908   3.577   2.762
 2259SOL    HW2 1898   2.044   3.666   2.755
 2260SOL     OW 1899   2.366   3.430   2.772
 2260SOL    HW1 1900   2.432   3.504   2.781
 2260SOL    HW2 1901   2.410   3.351   2.730
 2261SOL     OW 1902   2.864   2.658   3.100
 2261SOL    HW1 1903   2.905   2.626   3.186
 2261SOL    HW2 1904   2.768   2.631   3.097
 2262SOL     OW 1905   1.902   2.406   2.976
 2262SOL    HW1 1906   1.987   2.373   2.935
 2262SOL    HW2 1907   1.915   2.421   3.074
 2263SOL     OW 1908   2.051   2.382   3.584
 2263SOL    HW1 1909   2.110   2.342   3.514
 2263SOL    HW2 1910   1.993   2.453   3.543
 2264SOL     OW 1911   3.231   2.812   3.522
 2264SOL    HW1 1912   3.270   2.901   3.542
 2264SOL    HW2 1913   3.241   2.792   3.425
 2265SOL     OW 1914   2.677   2.434   2.187
 2265SOL    HW1 1915   2.684   2.345   2.141
 2265SOL    HW2 1916   2.583   2.468   2.179
 2266SOL     OW 1917   3.519   2.466   3.068
 2266SOL    HW1 1918   3.481   2.397   3.130
 2266SOL    HW2 1919   3.601   2.430   3.024
 2267SOL     OW 1920   2.114   3.426   3.606
 2267SOL    HW1 1921   2.084   3.483   3.682
 2267SOL    HW2 1922   2.107   3.329   3.632
 2268SOL     OW 1923   2.533   2.326   3.131
 2268SOL    HW1 1924   2.499   2.237   3.101
 2268SOL    HW2 1925   2.559   2.380   3.051
 2269SOL     OW 1926   2.792   3.540   3.327
 2269SOL    HW1 1927   2.768   3.522   3.232
 2269SOL    HW2 1928   2.822   3.634   3.337
 2270SOL     OW 1929   2.021   2.999   3.328
 2270SOL    HW1 1930   2.043   2.938   3.404
 2270SOL    HW2 1931   2.031   2.950   3.242
 2271SOL     OW 1932   3.209   2.921   3.096
 2271SOL    HW1 1933   3.233   2.858   3.022
 2271SOL    HW2 1934   3.119   2.961   3.078
 2272SOL     OW 1935   3.164   2.717   2.171
 2272SOL    HW1 1936   3.078   2.686   2.213
 2272SOL    HW2 1937   3.160   2.703   2.072
 2274SOL     OW 1938   3.114   3.593   2.990
 2274SOL    HW1 1939   3.198   3.598   2.936
 2274SOL    HW2 1940   3.091   3.497   3.008
 2275SOL     OW 1941   1.945   3.120   2.884
 2275SOL    HW1 1942   1.940   3.119   2.984
 2275SOL    HW2 1943   1.862   3.079   2.846
 2276SOL     OW 1944   2.550   3.524   3.578
 2276SOL    HW1 1945   2.494   3.605   3.587
 2276SOL    HW2 1946   2.602   3.528   3.492
 2277SOL     OW 1947   3.588   1.997   2.385
 2277SOL    HW1 1948   3.661   1.980   2.318
 2277SOL    HW2 1949   3.557   1.910   2.423
 2278SOL     OW 1950   3.250   3.435   2.339
 2278SOL    HW1 1951   3.317   3.447   2.265
 2278SOL    HW2 1952   3.210   3.524   2.362
 2280SOL     OW 1953   3.142   2.789   2.534
 2280SOL    HW1 1954   3.202   2.708   2.536
 2280SOL    HW2 1955   3.182   2.858   2.474
 2281SOL     OW 1956   2.692   3.135   3.284
 2281SOL    HW1 1957   2.687   3.168   3.379
 2281SOL    HW2 1958   2.606   3.154   3.238
 2282SOL     OW 1959   2.534   3.478   2.016
 2282SOL    HW1 1960   2.543   3.488   1.917
 2282SOL    HW2 1961   2.494   3.389   2.037
 2284SOL     OW 1962   3.703   2.037   2.825
 2284SOL    HW1 1963   3.742   1.952   2.789
 2284SOL    HW2 1964   3.605   2.039   2.806
 2285SOL     OW 1965   2.125   2.188   2.582
 2285SOL    HW1 1966   2.046   2.239   2.548
 2285SOL    HW2 1967   2.116   2.173   2.680
 2286SOL     OW 1968   3.056   3.474   1.893
 2286SOL    HW1 1969   3.062   3.381   1.930
 2286SOL    HW2 1970   2.997   3.474   1.813
 2287SOL     OW 1971   2.684   2.864   3.234
 2287SOL    HW1 1972   2.724   2.863   3.142
 2287SOL    HW2 1973   2.694   2.956   3.274
 2288SOL     OW 1974   2.778   2.772   2.153
 2288SOL    HW1 1975   2.841   2.810   2.085
 2288SOL    HW2 1976   2.818   2.689   2.192
 2289SOL     OW 1977   3.366   3.469   1.906
 2289SOL    HW1 1978   3.274   3.506   1.913
 2289SOL    HW2 1979   3.404   3.489   1.816
 2290SOL     OW 1980   2.234   3.150   3.352
 2290SOL    HW1 1981   2.221   3.243   3.318
 2290SOL    HW2 1982   2.150   3.098   3.339
 2291SOL     OW 1983   3.476   3.154   3.151
 2291SOL    HW1 1984   3.536   3.157   3.231
 2291SOL    HW2 1985   3.401   3.218   3.164
 2292SOL     OW 1986   2.901   2.960   2.558
 2292SOL    HW1 1987   2.831   2.913   2.612
 2292SOL    HW2 1988   2.960   2.892   2.515
 2293SOL     OW 1989   2.876   2.098   2.833
 2293SOL    HW1 1990   2.868   2.062   2.740
 2293SOL    HW2 1991   2.874   2.022   2.898
 2294SOL     OW 1992   2.452   3.349   2.353
 2294SOL    HW1 1993   2.494   3.291   2.283
 2294SOL    HW2 1994   2.408   3.428   2.309
 2295SOL     OW 1995   3.571   2.247   3.243
 2295SOL    HW1 1996   3.644   2.316   3.247
 2295SOL    HW2 1997   3.599   2.172   3.184
 2296SOL     OW 1998   2.117   3.210   2.152
 2296SOL    HW1 1999   2.021   3.211   2.125
 2296SOL    HW2 2000   2.129   3.263   2.236
 2297SOL     OW 2001   1.967   2.875   3.588
 2297SOL    HW1 2002   1.890   2.842   3.642
 2297SOL    HW2 2003   2.052   2.845   3.630
 2298SOL     OW 2004   2.534   2.065   3.351
 2298SOL    HW1 2005   2.624   2.049   3.311
 2298SOL    HW2 2006   2.542   2.070   3.450
 2299SOL     OW 2007   1.937   2.207   1.895
 2299SOL    HW1 2008   1.845   2.179   1.866
 2299SOL    HW2 2009   1.968   2.284   1.839
 2300SOL     OW 2010   3.302   2.718   3.260
 2300SOL    HW1 2011   3.245   2.770   3.197
 2300SOL    HW2 2012   3.398   2.730   3.236
 2301SOL     OW 2013   1.934   2.028   2.180
 2301SOL    HW1 2014   1.917   2.111   2.126
 2301SOL    HW2 2015   2.024   1.991   2.158
 2302SOL     OW 2016   3.045   3.197   1.981
 2302SOL    HW1 2017   2.946   3.186   1.983
 2302SOL    HW2 2018   3.079   3.212   2.074
 2303SOL     OW 2019   2.475   2.704   3.293
 2303SOL    HW1 2020   2.531   2.785   3.276
 2303SOL    HW2 2021   2.534   2.624   3.296
 2304SOL     OW 2022   3.355   3.629   2.821
 2304SOL    HW1 2023   3.388   3.693   2.752
 2304SOL    HW2 2024   3.421   3.623   2.896
 2305SOL     OW 2025   2.578   2.427   3.570
 2305SOL    HW1 2026   2.597   2.492   3.644
 2305SOL    HW2 2027   2.638   2.347   3.579
 2306SOL     OW 2028   3.312   3.082   3.495
 2306SOL    HW1 2029   3.303   3.072   3.594
 2306SOL    HW2 2030   3.408   3.075   3.469
 2307SOL     OW 2031   2.252   3.603   3.422
 2307SOL    HW1 2032   2.161   3.644   3.420
 2307SOL    HW2 2033   2.245   3.509   3.454
 2308SOL     OW 2034   3.536   2.745   3.116
 2308SOL    HW1 2035   3.509   2.656   3.079
 2308SOL    HW2 2036   3.537   2.813   3.043
 2309SOL     OW 2037   3.087   2.187   2.311
 2309SOL    HW1 2038   3.152   2.113   2.300
 2309SOL    HW2 2039   3.107   2.237   2.395
 2310SOL     OW 2040   2.456   2.607   2.514
 2310SOL    HW1 2041   2.506   2.692   2.495
 2310SOL    HW2 2042   2.368   2.609   2.466
 2311SOL     OW 2043   3.639   2.204   3.504
 2311SOL    HW1 2044   3.622   2.235   3.410
 2311SOL    HW2 2045   3.555   2.167   3.542
 2312SOL     OW 2046   3.592   2.796   3.379
 2312SOL    HW1 2047   3.630   2.887   3.394
 2312SOL    HW2 2048   3.584   2.779   3.280
 2313SOL     OW 2049   2.721   3.236   1.878
 2313SOL    HW1 2050   2.675   3.251   1.966
 2313SOL    HW2 2051   2.765   3.321   1.848
 2314SOL     OW 2052   2.523   3.652   2.815
 2314SOL    HW1 2053   2.477   3.740   2.802
 2314SOL    HW2 2054   2.622   3.664   2.808
 2315SOL     OW 2055   2.721   2.818   2.723
 2315SOL    HW1 2056   2.775   2.749   2.771
 2315SOL    HW2 2057   2.689   2.887   2.789
 2316SOL     OW 2058   2.945   2.846   1.949
 2316SOL    HW1 2059   2.922   2.899   1.867
 2316SOL    HW2 2060   3.026   2.790   1.930
 2317SOL     OW 2061   3.723   3.431   2.713
 2317SOL    HW1 2062   3.652   3.419   2.643
 2317SOL    HW2 2063   3.724   3.352   2.773
 2318SOL     OW 2064   2.083   3.176   3.706
 2318SOL    HW1 2065   2.018   3.103   3.685
 2318SOL    HW2 2066   2.087   3.190   3.804
 2319SOL     OW 2067   1.941   3.102   2.515
 2319SOL    HW1 2068   1.940   3.055   2.603
 2319SOL    HW2 2069   2.023   3.074   2.464
 2320SOL     OW 2070   2.534   3.253   3.486
 2320SOL    HW1 2071   2.456   3.203   3.524
 2320SOL    HW2 2072   2.531   3.348   3.517
 2321SOL     OW 2073   3.686   2.054   3.089
 2321SOL    HW1 2074   3.682   1.964   3.133
 2321SOL    HW2 2075   3.689   2.043   2.990
 2322SOL     OW 2076   3.567   3.349   2.966
 2322SOL    HW1 2077   3.474   3.324   2.939
 2322SOL    HW2 2078   3.593   3.299   3.048
 2323SOL     OW 2079   2.179   2.409   3.142
 2323SOL    HW1 2080   2.217   2.350   3.214
 2323SOL    HW2 2081   2.219   2.383   3.054
 2324SOL     OW 2082   2.674   3.448   2.549
 2324SOL    HW1 2083   2.706   3.458   2.455
 2324SOL    HW2 2084   2.595   3.386   2.551
 2325SOL     OW 2085   3.286   2.076   2.974
 2325SOL    HW1 2086   3.338   2.011   3.029
 2325SOL    HW2 2087   3.237   2.139   3.035
 2326SOL     OW 2088   2.863   1.896   3.016
 2326SOL    HW1 2089   2.800   1.824   2.985
 2326SOL    HW2 2090   2.956   1.860   3.016
 2327SOL     OW 2091   2.632   3.192   2.163
 2327SOL    HW1 2092   2.586   3.105   2.180
 2327SOL    HW2 2093   2.723   3.189   2.204
 2328SOL     OW 2094   2.480   3.429   3.146
 2328SOL    HW1 2095   2.475   3.511   3.203
 2328SOL    HW2 2096   2.569   3.426   3.101
 2329SOL     OW 2097   3.214   1.914   2.030
 2329SOL    HW1 2098   3.249   1.873   1.946
 2329SOL    HW2 2099   3.124   1.876   2.050
 2330SOL     OW 2100   3.162   2.315   2.553
 2330SOL    HW1 2101   3.103   2.395   2.557
 2330SOL    HW2 2102   3.177   2.280   2.646
 2331SOL     OW 2103   3.455   2.083   2.744
 2331SOL    HW1 2104   3.371   2.082   2.798
 2331SOL    HW2 2105   3.457   2.166   2.688
 2332SOL     OW 2106   1.901   2.939   2.162
 2332SOL    HW1 2107   2.000   2.928   2.153
 2332SOL    HW2 2108   1.861   2.853   2.194
 2333SOL     OW 2109   2.737   3.508   2.199
 2333SOL    HW1 2110   2.660   3.473   2.145
 2333SOL    HW2 2111   2.705   3.579   2.261
 2334SOL     OW 2112   2.092   2.490   3.837
 2334SOL    HW1 2113   1.999   2.488   3.874
 2334SOL    HW2 2114   2.093   2.451   3.745
 2346SOL     OW 2115   2.468   2.826   3.847
 2346SOL    HW1 2116   2.475   2.910   3.793
 2346SOL    HW2 2117   2.514   2.839   3.935
 2357SOL     OW 2118   2.460   2.591   3.994
 2357SOL    HW1 2119   2.484   2.660   3.926
 2357SOL    HW2 2120   2.382   2.624   4.048
 2362SOL     OW 2121   2.727   2.210   3.919
 2362SOL    HW1 2122   2.786   2.273   3.870
 2362SOL    HW2 2123   2.746   2.116   3.890
 2367SOL     OW 2124   2.183   2.805   3.966
 2367SOL    HW1 2125   2.265   2.844   3.924
 2367SOL    HW2 2126   2.156   2.723   3.917
 2375SOL     OW 2127   2.476   1.984   3.841
 2375SOL    HW1 2128   2.574   1.962   3.848
 2375SOL    HW2 2129   2.445   1.967   3.748
 2378SOL     OW 2130   3.296   3.050   3.765
 2378SOL    HW1 2131   3.328   2.974   3.822
 2378SOL    HW2 2132   3.204   3.077   3.795
 2379SOL     OW 2133   2.159   1.897   3.895
 2379SOL    HW1 2134   2.208   1.981   3.874
 2379SOL    HW2 2135   2.221   1.832   3.940
 2384SOL     OW 2136   2.894   2.411   3.740
 2384SOL    HW1 2137   2.853   2.493   3.701
 2384SOL    HW2 2138   2.958   2.437   3.813
 2389SOL     OW 2139   2.350   3.247   3.898
 2389SOL    HW1 2140   2.263   3.232   3.945
 2389SOL    HW2 2141   2.333   3.273   3.803
 2391SOL     OW 2142   3.252   2.437   3.802
 2391SOL    HW1 2143   3.198   2.416   3.883
 2391SOL    HW2 2144   3.343   2.396   3.811
 2392SOL     OW 2145   2.389   2.118   4.052
 2392SOL    HW1 2146   2.416   2.059   3.977
 2392SOL    HW2 2147   2.389   2.213   4.021
 2399SOL     OW 2148   3.071   2.387   3.999
 2399SOL    HW1 2149   3.084   2.303   4.053
 2399SOL    HW2 2150   3.042   2.461   4.059
 2405SOL     OW 2151   3.165   2.700   3.766
 2405SOL    HW1 2152   3.199   2.607   3.781
 2405SOL    HW2 2153   3.183   2.727   3.671
 2411SOL     OW 2154   2.677   2.434   4.049
 2411SOL    HW1 2155   2.684   2.345   4.003
 2411SOL    HW2 2156   2.583   2.468   4.041
 2413SOL     OW 2157   2.335   2.362   3.915
 2413SOL    HW1 2158   2.396   2.442   3.919
 2413SOL    HW2 2159   2.240   2.393   3.922
 2424SOL     OW 2160   2.778   2.772   4.015
 2424SOL    HW1 2161   2.841   2.810   3.947
 2424SOL    HW2 2162   2.818   2.689   4.054
 2430SOL     OW 2163   1.937   2.207   3.757
 2430SOL    HW1 2164   1.845   2.179   3.728
 2430SOL    HW2 2165   1.968   2.284   3.701
 2431SOL     OW 2166   1.934   2.028   4.042
 2431SOL    HW1 2167   1.917   2.111   3.988
 2431SOL    HW2 2168   2.024   1.991   4.020
 2432SOL     OW 2169   3.045   3.197   3.843
 2432SOL    HW1 2170   2.946   3.186   3.845
 2432SOL    HW2 2171   3.079   3.212   3.936
 2436SOL     OW 2172   2.721   3.236   3.740
 2436SOL    HW1 2173   2.675   3.251   3.828
 2436SOL    HW2 2174   2.765   3.321   3.710
 2439SOL     OW 2175   2.945   2.846   3.811
 2439SOL    HW1 2176   2.922   2.899   3.729
 2439SOL    HW2 2177   3.026   2.790   3.792
 2446SOL     OW 2178   3.214   1.914   3.892
 2446SOL    HW1 2179   3.249   1.873   3.808
 2446SOL    HW2 2180   3.124   1.876   3.912
 2449SOL     OW 2181   1.901   2.939   4.024
 2449SOL    HW1 2182   2.000   2.928   4.015
 2449SOL    HW2 2183   1.861   2.853   4.056
 2467SOL     OW 2184   2.179   3.975   1.801
 2467SOL    HW1 2185   2.250   4.046   1.807
 2467SOL    HW2 2186   2.091   4.014   1.829
 2485SOL     OW 2187   2.643   3.988   1.749
 2485SOL    HW1 2188   2.710   3.927   1.792
 2485SOL    HW2 2189   2.570   4.007   1.814
 2501SOL     OW 2190   2.777   3.813   1.402
 2501SOL    HW1 2191   2.802   3.793   1.307
 2501SOL    HW2 2192   2.849   3.869   1.444
 2508SOL     OW 2193   2.875   3.829   1.770
 2508SOL    HW1 2194   2.881   3.914   1.718
 2508SOL    HW2 2195   2.907   3.753   1.713
 2509SOL     OW 2196   2.366   3.774   1.740
 2509SOL    HW1 2197   2.324   3.717   1.670
 2509SOL    HW2 2198   2.300   3.843   1.772
 2546SOL     OW 2199   2.534   3.927   1.489
 2546SOL    HW1 2200   2.624   3.911   1.449
 2546SOL    HW2 2201   2.542   3.932   1.588
 2566SOL     OW 2202   2.087   3.999   2.858
 2566SOL    HW1 2203   2.122   3.982   2.950
 2566SOL    HW2 2204   1.999   3.954   2.846
 2567SOL     OW 2205   1.881   4.092   2.509
 2567SOL    HW1 2206   1.799   4.135   2.548
 2567SOL    HW2 2207   1.853   4.019   2.446
 2578SOL     OW 2208   2.671   3.728   2.364
 2578SOL    HW1 2209   2.711   3.819   2.355
 2578SOL    HW2 2210   2.571   3.736   2.370
 2590SOL     OW 2211   2.727   4.072   2.057
 2590SOL    HW1 2212   2.786   4.135   2.008
 2590SOL    HW2 2213   2.746   3.978   2.028
 2592SOL     OW 2214   2.412   3.920   2.747
 2592SOL    HW1 2215   2.407   3.915   2.847
 2592SOL    HW2 2216   2.414   4.016   2.718
 2595SOL     OW 2217   3.262   3.831   2.288
 2595SOL    HW1 2218   3.238   3.794   2.198
 2595SOL    HW2 2219   3.361   3.847   2.292
 2598SOL     OW 2220   2.476   3.846   1.979
 2598SOL    HW1 2221   2.574   3.824   1.986
 2598SOL    HW2 2222   2.445   3.829   1.886
 2602SOL     OW 2223   2.401   3.788   2.374
 2602SOL    HW1 2224   2.320   3.789   2.432
 2602SOL    HW2 2225   2.404   3.871   2.319
 2603SOL     OW 2226   2.159   3.759   2.033
 2603SOL    HW1 2227   2.208   3.843   2.012
 2603SOL    HW2 2228   2.221   3.694   2.078
 2604SOL     OW 2229   2.797   3.960   2.342
 2604SOL    HW1 2230   2.749   4.001   2.264
 2604SOL    HW2 2231   2.896   3.958   2.323
 2608SOL     OW 2232   2.423   3.946   3.009
 2608SOL    HW1 2233   2.461   3.862   3.046
 2608SOL    HW2 2234   2.335   3.965   3.053
 2610SOL     OW 2235   2.879   3.763   2.615
 2610SOL    HW1 2236   2.807   3.768   2.546
 2610SOL    HW2 2237   2.855   3.694   2.684
 2614SOL     OW 2238   2.389   3.980   2.190
 2614SOL    HW1 2239   2.416   3.921   2.115
 2614SOL    HW2 2240   2.389   4.075   2.159
 2616SOL     OW 2241   2.777   3.813   3.264
 2616SOL    HW1 2242   2.802   3.793   3.169
 2616SOL    HW2 2243   2.849   3.869   3.306
 2628SOL     OW 2244   2.169   3.937   3.093
 2628SOL    HW1 2245   2.146   3.974   3.183
 2628SOL    HW2 2246   2.139   3.842   3.087
 2631SOL     OW 2247   2.169   3.787   2.480
 2631SOL    HW1 2248   2.158   3.881   2.513
 2631SOL    HW2 2249   2.164   3.724   2.557
 2655SOL     OW 2250   2.125   4.050   2.582
 2655SOL    HW1 2251   2.046   4.101   2.548
 2655SOL    HW2 2252   2.116   4.035   2.680
 2657SOL     OW 2253   2.876   3.960   2.833
 2657SOL    HW1 2254   2.868   3.924   2.740
 2657SOL    HW2 2255   2.874   3.884   2.898
 2663SOL     OW 2256   1.934   3.890   2.180
 2663SOL    HW1 2257   1.917   3.973   2.126
 2663SOL    HW2 2258   2.024   3.853   2.158
 2672SOL     OW 2259   2.290   4.148   2.382
 2672SOL    HW1 2260   2.320   4.076   2.320
 2672SOL    HW2 2261   2.251   4.108   2.465
 2675SOL     OW 2262   2.863   3.758   3.016
 2675SOL    HW1 2263   2.800   3.686   2.985
 2675SOL    HW2 2264   2.956   3.722   3.016
 2676SOL     OW 2265   3.214   3.776   2.030
 2676SOL    HW1 2266   3.249   3.735   1.946
 2676SOL    HW2 2267   3.124   3.738   2.050
 2766SOL     OW 2268   3.854   1.821   1.571
 2766SOL    HW1 2269   3.844   1.806   1.670
 2766SOL    HW2 2270   3.768   1.857   1.535
 2827SOL     OW 2271   3.854   1.794   1.851
 2827SOL    HW1 2272   3.813   1.720   1.904
 2827SOL    HW2 2273   3.918   1.845   1.909
 2870SOL     OW 2274   3.955   1.713   2.345
 2870SOL    HW1 2275   3.989   1.790   2.399
 2870SOL    HW2 2276   3.999   1.713   2.255
 2876SOL     OW 2277   3.751   1.596   1.979
 2876SOL    HW1 2278   3.732   1.500   2.000
 2876SOL    HW2 2279   3.718   1.654   2.054
 2931SOL     OW 2280   3.732   1.326   2.062
 2931SOL    HW1 2281   3.639   1.347   2.031
 2931SOL    HW2 2282   3.742   1.227   2.075
 2932SOL     OW 2283   3.812   1.801   2.789
 2932SOL    HW1 2284   3.770   1.715   2.762
 2932SOL    HW2 2285   3.906   1.804   2.755
 3061SOL     OW 2286   3.837   2.599   1.597
 3061SOL    HW1 2287   3.925   2.586   1.642
 3061SOL    HW2 2288   3.824   2.696   1.575
 3065SOL     OW 2289   4.041   2.113   1.801
 3065SOL    HW1 2290   4.112   2.184   1.807
 3065SOL    HW2 2291   3.953   2.152   1.829
 3077SOL     OW 2292   3.926   2.147   1.498
 3077SOL    HW1 2293   3.846   2.207   1.485
 3077SOL    HW2 2294   3.916   2.098   1.584
 3089SOL     OW 2295   3.802   2.418   1.386
 3089SOL    HW1 2296   3.894   2.417   1.345
 3089SOL    HW2 2297   3.796   2.492   1.453
 3121SOL     OW 2298   3.913   2.382   1.722
 3121SOL    HW1 2299   3.972   2.342   1.652
 3121SOL    HW2 2300   3.855   2.453   1.681
 3141SOL     OW 2301   3.829   2.875   1.726
 3141SOL    HW1 2302   3.752   2.842   1.780
 3141SOL    HW2 2303   3.914   2.845   1.768
 3164SOL     OW 2304   3.954   2.490   1.975
 3164SOL    HW1 2305   3.861   2.488   2.012
 3164SOL    HW2 2306   3.955   2.451   1.883
 3165SOL     OW 2307   3.949   2.137   2.858
 3165SOL    HW1 2308   3.984   2.120   2.950
 3165SOL    HW2 2309   3.861   2.092   2.846
 3166SOL     OW 2310   3.743   2.230   2.509
 3166SOL    HW1 2311   3.661   2.273   2.548
 3166SOL    HW2 2312   3.715   2.157   2.446
 3176SOL     OW 2313   3.964   2.953   2.748
 3176SOL    HW1 2314   3.978   2.869   2.800
 3176SOL    HW2 2315   3.909   3.017   2.803
 3179SOL     OW 2316   3.846   2.505   2.425
 3179SOL    HW1 2317   3.801   2.417   2.442
 3179SOL    HW2 2318   3.845   2.559   2.509
 3180SOL     OW 2319   3.751   3.458   1.979
 3180SOL    HW1 2320   3.732   3.362   2.000
 3180SOL    HW2 2321   3.718   3.516   2.054
 3184SOL     OW 2322   3.921   2.838   3.126
 3184SOL    HW1 2323   4.010   2.793   3.112
 3184SOL    HW2 2324   3.848   2.773   3.107
 3189SOL     OW 2325   3.800   2.673   2.651
 3189SOL    HW1 2326   3.899   2.661   2.660
 3189SOL    HW2 2327   3.776   2.768   2.672
 3195SOL     OW 2328   4.045   2.805   2.104
 3195SOL    HW1 2329   4.127   2.844   2.062
 3195SOL    HW2 2330   4.018   2.723   2.055
 3200SOL     OW 2331   4.106   2.562   2.342
 3200SOL    HW1 2332   4.151   2.472   2.339
 3200SOL    HW2 2333   4.012   2.551   2.375
 3207SOL     OW 2334   4.021   1.897   2.033
 3207SOL    HW1 2335   4.070   1.981   2.012
 3207SOL    HW2 2336   4.083   1.832   2.078
 3210SOL     OW 2337   3.802   2.418   3.248
 3210SOL    HW1 2338   3.894   2.417   3.207
 3210SOL    HW2 2339   3.796   2.492   3.315
 3229SOL     OW 2340   3.761   3.172   3.144
 3229SOL    HW1 2341   3.814   3.123   3.212
 3229SOL    HW2 2342   3.783   3.270   3.149
 3231SOL     OW 2343   4.031   1.925   2.480
 3231SOL    HW1 2344   4.020   2.019   2.513
 3231SOL    HW2 2345   4.026   1.862   2.557
 3235SOL     OW 2346   4.043   2.672   2.811
 3235SOL    HW1 2347   4.136   2.708   2.816
 3235SOL    HW2 2348   4.037   2.587   2.863
 3236SOL     OW 2349   4.063   2.371   2.868
 3236SOL    HW1 2350   4.011   2.288   2.851
 3236SOL    HW2 2351   4.140   2.376   2.804
 3237SOL     OW 2352   3.732   3.188   2.062
 3237SOL    HW1 2353   3.639   3.209   2.031
 3237SOL    HW2 2354   3.742   3.089   2.075
 3241SOL     OW 2355   3.764   2.406   2.976
 3241SOL    HW1 2356   3.849   2.373   2.935
 3241SOL    HW2 2357   3.777   2.421   3.074
 3249SOL     OW 2358   3.807   3.120   2.884
 3249SOL    HW1 2359   3.802   3.119   2.984
 3249SOL    HW2 2360   3.724   3.079   2.846
 3255SOL     OW 2361   3.987   2.188   2.582
 3255SOL    HW1 2362   3.908   2.239   2.548
 3255SOL    HW2 2363   3.978   2.173   2.680
 3263SOL     OW 2364   3.799   2.207   1.895
 3263SOL    HW1 2365   3.707   2.179   1.866
 3263SOL    HW2 2366   3.830   2.284   1.839
 3264SOL     OW 2367   3.796   2.028   2.180
 3264SOL    HW1 2368   3.779   2.111   2.126
 3264SOL    HW2 2369   3.886   1.991   2.158
 3274SOL     OW 2370   3.803   3.102   2.515
 3274SOL    HW1 2371   3.802   3.055   2.603
 3274SOL    HW2 2372   3.885   3.074   2.464
 3276SOL     OW 2373   4.152   2.286   2.382
 3276SOL    HW1 2374   4.182   2.214   2.320
 3276SOL    HW2 2375   4.113   2.246   2.465
 3282SOL     OW 2376   3.763   2.939   2.162
 3282SOL    HW1 2377   3.862   2.928   2.153
 3282SOL    HW2 2378   3.723   2.853   2.194
   4.76395   4.76395   4.76395
