; mobley_1278715_GMX.itp created by acpype (v: 2023.10.27) on Thu May 21 00:09:58 2026

[ atomtypes ]
;name   bond_type     mass     charge   ptype   sigma         epsilon       Amb
 c3       c3          0.00000  0.00000   A     3.39771e-01   4.51035e-01 ; 1.91  0.1078
 cl       cl          0.00000  0.00000   A     3.46595e-01   1.10374e+00 ; 1.95  0.2638

[ moleculetype ]
;name            nrexcl
 mobley_1278715   3

[ atoms ]
;   nr  type  resi  res  atom  cgnr     charge      mass       ; qtot   bond_type
     1   c3     1   MOL    C1    1     0.220200     12.01000 ; qtot 0.220
     2   c3     1   MOL    C2    2     0.220200     12.01000 ; qtot 0.440
     3   cl     1   MOL   CL1    3    -0.073400     35.45000 ; qtot 0.367
     4   cl     1   MOL   CL2    4    -0.073400     35.45000 ; qtot 0.294
     5   cl     1   MOL   CL3    5    -0.073400     35.45000 ; qtot 0.220
     6   cl     1   MOL   CL4    6    -0.073400     35.45000 ; qtot 0.147
     7   cl     1   MOL   CL5    7    -0.073400     35.45000 ; qtot 0.073
     8   cl     1   MOL   CL6    8    -0.073400     35.45000 ; qtot -0.000

[ bonds ]
;   ai     aj funct   r             k
     1      2   1    1.5354e-01    1.9154e+05 ;     C1 - C2    
     1      3   1    1.8092e-01    1.3724e+05 ;     C1 - CL1   
     1      4   1    1.8092e-01    1.3724e+05 ;     C1 - CL2   
     1      5   1    1.8092e-01    1.3724e+05 ;     C1 - CL3   
     2      6   1    1.8092e-01    1.3724e+05 ;     C2 - CL4   
     2      7   1    1.8092e-01    1.3724e+05 ;     C2 - CL5   
     2      8   1    1.8092e-01    1.3724e+05 ;     C2 - CL6   

[ pairs ]
;   ai     aj    funct
     3      6      1 ;    CL1 - CL4   
     3      7      1 ;    CL1 - CL5   
     3      8      1 ;    CL1 - CL6   
     4      6      1 ;    CL2 - CL4   
     4      7      1 ;    CL2 - CL5   
     4      8      1 ;    CL2 - CL6   
     5      6      1 ;    CL3 - CL4   
     5      7      1 ;    CL3 - CL5   
     5      8      1 ;    CL3 - CL6   

[ angles ]
;   ai     aj     ak    funct   theta         cth
     1      2      6      1    1.1039e+02    5.3254e+02 ;     C1 - C2     - CL4   
     1      2      7      1    1.1039e+02    5.3254e+02 ;     C1 - C2     - CL5   
     1      2      8      1    1.1039e+02    5.3254e+02 ;     C1 - C2     - CL6   
     2      1      3      1    1.1039e+02    5.3254e+02 ;     C2 - C1     - CL1   
     2      1      4      1    1.1039e+02    5.3254e+02 ;     C2 - C1     - CL2   
     2      1      5      1    1.1039e+02    5.3254e+02 ;     C2 - C1     - CL3   
     3      1      4      1    1.0934e+02    5.8225e+02 ;    CL1 - C1     - CL2   
     3      1      5      1    1.0934e+02    5.8225e+02 ;    CL1 - C1     - CL3   
     4      1      5      1    1.0934e+02    5.8225e+02 ;    CL2 - C1     - CL3   
     6      2      7      1    1.0934e+02    5.8225e+02 ;    CL4 - C2     - CL5   
     6      2      8      1    1.0934e+02    5.8225e+02 ;    CL4 - C2     - CL6   
     7      2      8      1    1.0934e+02    5.8225e+02 ;    CL5 - C2     - CL6   

[ dihedrals ] ; propers
; for gromacs 4.5 or higher, using funct 9
;    i      j      k      l   func   phase     kd      pn
     3      1      2      6      9     0.00   5.94128   3 ;    CL1-    C1-    C2-   CL4
     3      1      2      7      9     0.00   5.94128   3 ;    CL1-    C1-    C2-   CL5
     3      1      2      8      9     0.00   5.94128   3 ;    CL1-    C1-    C2-   CL6
     4      1      2      6      9     0.00   5.94128   3 ;    CL2-    C1-    C2-   CL4
     4      1      2      7      9     0.00   5.94128   3 ;    CL2-    C1-    C2-   CL5
     4      1      2      8      9     0.00   5.94128   3 ;    CL2-    C1-    C2-   CL6
     5      1      2      6      9     0.00   5.94128   3 ;    CL3-    C1-    C2-   CL4
     5      1      2      7      9     0.00   5.94128   3 ;    CL3-    C1-    C2-   CL5
     5      1      2      8      9     0.00   5.94128   3 ;    CL3-    C1-    C2-   CL6
