mobley_299266_GMX.gro created by acpype (v: 2023.10.27) on Thu May 21 00:21:59 2026
 2394
    1MOL     C1    1   2.142   2.342   2.265
    1MOL     C2    2   2.206   2.233   2.222
    1MOL     C3    3   2.216   2.198   2.076
    1MOL     C4    4   2.271   2.137   2.317
    1MOL     H1    5   2.135   2.366   2.370
    1MOL     H2    6   2.095   2.411   2.195
    1MOL     H3    7   2.322   2.193   2.046
    1MOL     H4    8   2.170   2.101   2.056
    1MOL     H5    9   2.167   2.273   2.013
    1MOL     H6   10   2.227   2.037   2.306
    1MOL     H7   11   2.379   2.130   2.296
    1MOL     H8   12   2.259   2.167   2.421
    6SOL     OW   13   1.555   1.511   0.703
    6SOL    HW1   14   1.498   1.495   0.784
    6SOL    HW2   15   1.496   1.521   0.623
   14SOL     OW   16   1.460   1.505   1.339
   14SOL    HW1   17   1.484   1.599   1.365
   14SOL    HW2   18   1.444   1.451   1.421
   18SOL     OW   19   1.127   1.341   1.690
   18SOL    HW1   20   1.174   1.341   1.778
   18SOL    HW2   21   1.079   1.254   1.679
   31SOL     OW   22   1.293   1.228   1.423
   31SOL    HW1   23   1.330   1.155   1.365
   31SOL    HW2   24   1.345   1.233   1.508
   35SOL     OW   25   1.187   1.792   1.616
   35SOL    HW1   26   1.211   1.852   1.540
   35SOL    HW2   27   1.194   1.697   1.586
   37SOL     OW   28   1.466   1.417   0.953
   37SOL    HW1   29   1.407   1.423   1.033
   37SOL    HW2   30   1.451   1.329   0.907
   50SOL     OW   31   1.719   0.585   1.831
   50SOL    HW1   32   1.693   0.674   1.795
   50SOL    HW2   33   1.717   0.517   1.758
   56SOL     OW   34   1.227   1.550   1.506
   56SOL    HW1   35   1.233   1.473   1.570
   56SOL    HW2   36   1.175   1.524   1.426
   95SOL     OW   37   1.754   1.223   1.588
   95SOL    HW1   38   1.845   1.184   1.575
   95SOL    HW2   39   1.762   1.319   1.612
   96SOL     OW   40   1.064   1.347   1.340
   96SOL    HW1   41   0.984   1.324   1.395
   96SOL    HW2   42   1.147   1.321   1.389
   97SOL     OW   43   1.592   1.629   1.625
   97SOL    HW1   44   1.619   1.663   1.535
   97SOL    HW2   45   1.671   1.591   1.671
   99SOL     OW   46   1.638   1.099   1.079
   99SOL    HW1   47   1.643   1.180   1.138
   99SOL    HW2   48   1.552   1.101   1.028
  101SOL     OW   49   0.980   1.116   1.719
  101SOL    HW1   50   0.881   1.122   1.729
  101SOL    HW2   51   1.003   1.036   1.663
  109SOL     OW   52   1.272   1.445   1.142
  109SOL    HW1   53   1.319   1.458   1.229
  109SOL    HW2   54   1.206   1.371   1.151
  113SOL     OW   55   1.587   0.779   1.670
  113SOL    HW1   56   1.495   0.817   1.665
  113SOL    HW2   57   1.647   0.826   1.605
  122SOL     OW   58   1.728   0.935   1.854
  122SOL    HW1   59   1.682   0.928   1.765
  122SOL    HW2   60   1.666   0.979   1.920
  126SOL     OW   61   0.980   1.573   1.700
  126SOL    HW1   62   0.960   1.617   1.612
  126SOL    HW2   63   1.019   1.482   1.684
  127SOL     OW   64   1.859   1.518   1.605
  127SOL    HW1   65   1.873   1.545   1.510
  127SOL    HW2   66   1.942   1.540   1.658
  142SOL     OW   67   1.369   0.950   1.660
  142SOL    HW1   68   1.408   1.039   1.680
  142SOL    HW2   69   1.379   0.930   1.563
  147SOL     OW   70   0.930   1.678   1.465
  147SOL    HW1   71   0.906   1.660   1.370
  147SOL    HW2   72   0.960   1.772   1.475
  150SOL     OW   73   1.347   1.059   1.234
  150SOL    HW1   74   1.371   0.996   1.160
  150SOL    HW2   75   1.257   1.099   1.216
  152SOL     OW   76   1.759   1.747   1.154
  152SOL    HW1   77   1.820   1.777   1.081
  152SOL    HW2   78   1.721   1.658   1.132
  153SOL     OW   79   1.252   1.731   1.128
  153SOL    HW1   80   1.336   1.736   1.074
  153SOL    HW2   81   1.229   1.635   1.146
  155SOL     OW   82   0.688   1.662   1.716
  155SOL    HW1   83   0.632   1.743   1.725
  155SOL    HW2   84   0.740   1.666   1.630
  163SOL     OW   85   1.650   1.720   1.394
  163SOL    HW1   86   1.703   1.730   1.310
  163SOL    HW2   87   1.623   1.810   1.428
  171SOL     OW   88   1.614   1.292   1.289
  171SOL    HW1   89   1.674   1.295   1.369
  171SOL    HW2   90   1.539   1.356   1.302
  180SOL     OW   91   1.440   0.856   1.398
  180SOL    HW1   92   1.383   0.908   1.335
  180SOL    HW2   93   1.536   0.868   1.374
  184SOL     OW   94   1.493   1.767   0.959
  184SOL    HW1   95   1.526   1.831   0.890
  184SOL    HW2   96   1.559   1.761   1.034
  186SOL     OW   97   1.450   1.220   1.633
  186SOL    HW1   98   1.441   1.210   1.732
  186SOL    HW2   99   1.546   1.213   1.607
  188SOL     OW  100   1.674   0.883   1.254
  188SOL    HW1  101   1.647   0.794   1.217
  188SOL    HW2  102   1.675   0.951   1.181
  192SOL     OW  103   1.730   0.934   1.517
  192SOL    HW1  104   1.768   1.025   1.532
  192SOL    HW2  105   1.722   0.917   1.418
  197SOL     OW  106   1.861   1.569   0.851
  197SOL    HW1  107   1.790   1.557   0.781
  197SOL    HW2  108   1.862   1.490   0.911
  203SOL     OW  109   1.705   1.487   1.104
  203SOL    HW1  110   1.612   1.462   1.077
  203SOL    HW2  111   1.731   1.437   1.186
  219SOL     OW  112   1.555   1.511   2.565
  219SOL    HW1  113   1.498   1.495   2.646
  219SOL    HW2  114   1.496   1.521   2.485
  221SOL     OW  115   1.755   0.607   2.093
  221SOL    HW1  116   1.743   0.594   1.994
  221SOL    HW2  117   1.725   0.526   2.142
  227SOL     OW  118   1.460   1.505   3.201
  227SOL    HW1  119   1.484   1.599   3.227
  227SOL    HW2  120   1.444   1.451   3.283
  238SOL     OW  121   1.842   1.767   2.221
  238SOL    HW1  122   1.896   1.738   2.301
  238SOL    HW2  123   1.872   1.857   2.192
  240SOL     OW  124   1.689   0.922   2.474
  240SOL    HW1  125   1.784   0.893   2.482
  240SOL    HW2  126   1.681   0.987   2.399
  241SOL     OW  127   1.641   1.108   2.294
  241SOL    HW1  128   1.727   1.110   2.242
  241SOL    HW2  129   1.655   1.155   2.382
  244SOL     OW  130   1.293   1.228   3.285
  244SOL    HW1  131   1.330   1.155   3.227
  244SOL    HW2  132   1.345   1.233   3.370
  247SOL     OW  133   1.525   0.999   2.052
  247SOL    HW1  134   1.462   0.923   2.065
  247SOL    HW2  135   1.573   1.017   2.138
  248SOL     OW  136   1.187   1.792   3.478
  248SOL    HW1  137   1.211   1.852   3.402
  248SOL    HW2  138   1.194   1.697   3.448
  250SOL     OW  139   1.466   1.417   2.815
  250SOL    HW1  140   1.407   1.423   2.895
  250SOL    HW2  141   1.451   1.329   2.769
  251SOL     OW  142   1.667   1.714   2.434
  251SOL    HW1  143   1.626   1.691   2.346
  251SOL    HW2  144   1.649   1.640   2.499
  254SOL     OW  145   1.576   1.662   2.169
  254SOL    HW1  146   1.665   1.708   2.172
  254SOL    HW2  147   1.555   1.638   2.074
  264SOL     OW  148   1.362   1.144   2.407
  264SOL    HW1  149   1.445   1.115   2.359
  264SOL    HW2  150   1.313   1.211   2.351
  266SOL     OW  151   1.008   1.456   2.339
  266SOL    HW1  152   0.962   1.528   2.287
  266SOL    HW2  153   1.004   1.476   2.437
  268SOL     OW  154   1.795   1.066   2.735
  268SOL    HW1  155   1.733   1.051   2.659
  268SOL    HW2  156   1.743   1.077   2.820
  269SOL     OW  157   1.227   1.550   3.368
  269SOL    HW1  158   1.233   1.473   3.432
  269SOL    HW2  159   1.175   1.524   3.288
  271SOL     OW  160   1.458   0.735   2.590
  271SOL    HW1  161   1.453   0.670   2.665
  271SOL    HW2  162   1.538   0.794   2.603
  273SOL     OW  163   1.111   1.776   2.099
  273SOL    HW1  164   1.051   1.714   2.149
  273SOL    HW2  165   1.142   1.732   2.014
  275SOL     OW  166   1.632   1.377   1.943
  275SOL    HW1  167   1.600   1.471   1.933
  275SOL    HW2  168   1.556   1.314   1.931
  279SOL     OW  169   0.940   1.698   2.766
  279SOL    HW1  170   1.020   1.641   2.787
  279SOL    HW2  171   0.891   1.658   2.689
  284SOL     OW  172   0.888   1.514   3.057
  284SOL    HW1  173   0.865   1.489   2.963
  284SOL    HW2  174   0.949   1.445   3.096
  286SOL     OW  175   0.803   1.402   2.786
  286SOL    HW1  176   0.893   1.416   2.744
  286SOL    HW2  177   0.732   1.404   2.715
  289SOL     OW  178   1.434   1.188   1.903
  289SOL    HW1  179   1.466   1.112   1.960
  289SOL    HW2  180   1.342   1.215   1.933
  293SOL     OW  181   1.227   1.570   2.655
  293SOL    HW1  182   1.248   1.644   2.590
  293SOL    HW2  183   1.295   1.570   2.728
  295SOL     OW  184   1.271   1.797   2.453
  295SOL    HW1  185   1.315   1.861   2.389
  295SOL    HW2  186   1.221   1.849   2.523
  301SOL     OW  187   1.429   1.173   2.729
  301SOL    HW1  188   1.374   1.089   2.722
  301SOL    HW2  189   1.455   1.202   2.637
  303SOL     OW  190   1.857   0.833   2.239
  303SOL    HW1  191   1.899   0.769   2.303
  303SOL    HW2  192   1.819   0.782   2.161
  305SOL     OW  193   1.664   1.280   2.519
  305SOL    HW1  194   1.763   1.288   2.533
  305SOL    HW2  195   1.619   1.364   2.550
  308SOL     OW  196   1.754   1.223   3.450
  308SOL    HW1  197   1.845   1.184   3.437
  308SOL    HW2  198   1.762   1.319   3.474
  309SOL     OW  199   1.064   1.347   3.202
  309SOL    HW1  200   0.984   1.324   3.257
  309SOL    HW2  201   1.147   1.321   3.251
  310SOL     OW  202   1.592   1.629   3.487
  310SOL    HW1  203   1.619   1.663   3.397
  310SOL    HW2  204   1.671   1.591   3.533
  311SOL     OW  205   1.111   1.195   2.962
  311SOL    HW1  206   1.071   1.239   3.043
  311SOL    HW2  207   1.070   1.232   2.879
  312SOL     OW  208   1.638   1.099   2.941
  312SOL    HW1  209   1.643   1.180   3.000
  312SOL    HW2  210   1.552   1.101   2.890
  321SOL     OW  211   1.252   1.348   2.250
  321SOL    HW1  212   1.302   1.425   2.290
  321SOL    HW2  213   1.157   1.350   2.282
  322SOL     OW  214   1.272   1.445   3.004
  322SOL    HW1  215   1.319   1.458   3.091
  322SOL    HW2  216   1.206   1.371   3.013
  323SOL     OW  217   1.582   0.639   2.334
  323SOL    HW1  218   1.551   0.700   2.407
  323SOL    HW2  219   1.632   0.691   2.265
  330SOL     OW  220   1.360   0.862   2.907
  330SOL    HW1  221   1.285   0.862   2.841
  330SOL    HW2  222   1.397   0.770   2.916
  340SOL     OW  223   1.859   1.518   3.467
  340SOL    HW1  224   1.873   1.545   3.372
  340SOL    HW2  225   1.942   1.540   3.520
  343SOL     OW  226   1.303   0.838   1.904
  343SOL    HW1  227   1.337   0.745   1.919
  343SOL    HW2  228   1.321   0.865   1.809
  344SOL     OW  229   1.068   1.333   2.711
  344SOL    HW1  230   1.075   1.249   2.656
  344SOL    HW2  231   1.130   1.402   2.675
  360SOL     OW  232   0.930   1.678   3.327
  360SOL    HW1  233   0.906   1.660   3.232
  360SOL    HW2  234   0.960   1.772   3.337
  363SOL     OW  235   1.347   1.059   3.096
  363SOL    HW1  236   1.371   0.996   3.022
  363SOL    HW2  237   1.257   1.099   3.078
  364SOL     OW  238   1.302   0.855   2.171
  364SOL    HW1  239   1.216   0.824   2.213
  364SOL    HW2  240   1.298   0.841   2.072
  365SOL     OW  241   1.759   1.747   3.016
  365SOL    HW1  242   1.820   1.777   2.943
  365SOL    HW2  243   1.721   1.658   2.994
  366SOL     OW  244   1.252   1.731   2.990
  366SOL    HW1  245   1.336   1.736   2.936
  366SOL    HW2  246   1.229   1.635   3.008
  370SOL     OW  247   1.388   1.573   2.339
  370SOL    HW1  248   1.455   1.585   2.265
  370SOL    HW2  249   1.348   1.662   2.362
  372SOL     OW  250   1.280   0.927   2.534
  372SOL    HW1  251   1.340   0.846   2.536
  372SOL    HW2  252   1.320   0.996   2.474
  374SOL     OW  253   0.672   1.616   2.016
  374SOL    HW1  254   0.681   1.626   1.917
  374SOL    HW2  255   0.632   1.527   2.037
  375SOL     OW  256   1.650   1.720   3.256
  375SOL    HW1  257   1.703   1.730   3.172
  375SOL    HW2  258   1.623   1.810   3.290
  378SOL     OW  259   1.194   1.612   1.893
  378SOL    HW1  260   1.200   1.519   1.930
  378SOL    HW2  261   1.135   1.612   1.813
  381SOL     OW  262   1.504   1.607   1.906
  381SOL    HW1  263   1.412   1.644   1.913
  381SOL    HW2  264   1.542   1.627   1.816
  383SOL     OW  265   1.614   1.292   3.151
  383SOL    HW1  266   1.674   1.295   3.231
  383SOL    HW2  267   1.539   1.356   3.164
  384SOL     OW  268   1.039   1.098   2.558
  384SOL    HW1  269   0.969   1.051   2.612
  384SOL    HW2  270   1.098   1.030   2.515
  386SOL     OW  271   0.590   1.487   2.353
  386SOL    HW1  272   0.632   1.429   2.283
  386SOL    HW2  273   0.546   1.566   2.309
  394SOL     OW  274   1.183   1.335   1.981
  394SOL    HW1  275   1.084   1.324   1.983
  394SOL    HW2  276   1.217   1.350   2.074
  396SOL     OW  277   1.493   1.767   2.821
  396SOL    HW1  278   1.526   1.831   2.752
  396SOL    HW2  279   1.559   1.761   2.896
  398SOL     OW  280   1.450   1.220   3.495
  398SOL    HW1  281   1.441   1.210   3.594
  398SOL    HW2  282   1.546   1.213   3.469
  400SOL     OW  283   1.674   0.883   3.116
  400SOL    HW1  284   1.647   0.794   3.079
  400SOL    HW2  285   1.675   0.951   3.043
  404SOL     OW  286   1.730   0.934   3.379
  404SOL    HW1  287   1.768   1.025   3.394
  404SOL    HW2  288   1.722   0.917   3.280
  405SOL     OW  289   0.859   1.374   1.878
  405SOL    HW1  290   0.813   1.389   1.966
  405SOL    HW2  291   0.903   1.459   1.848
  406SOL     OW  292   0.661   1.790   2.815
  406SOL    HW1  293   0.615   1.878   2.802
  406SOL    HW2  294   0.760   1.802   2.808
  408SOL     OW  295   1.083   0.984   1.949
  408SOL    HW1  296   1.060   1.037   1.867
  408SOL    HW2  297   1.164   0.928   1.930
  409SOL     OW  298   1.861   1.569   2.713
  409SOL    HW1  299   1.790   1.557   2.643
  409SOL    HW2  300   1.862   1.490   2.773
  415SOL     OW  301   1.705   1.487   2.966
  415SOL    HW1  302   1.612   1.462   2.939
  415SOL    HW2  303   1.731   1.437   3.048
  417SOL     OW  304   0.812   1.586   2.549
  417SOL    HW1  305   0.844   1.596   2.455
  417SOL    HW2  306   0.733   1.524   2.551
  420SOL     OW  307   0.770   1.330   2.163
  420SOL    HW1  308   0.724   1.243   2.180
  420SOL    HW2  309   0.861   1.327   2.204
  426SOL     OW  310   0.875   1.646   2.199
  426SOL    HW1  311   0.798   1.611   2.145
  426SOL    HW2  312   0.843   1.717   2.261
  512SOL     OW  313   0.850   2.660   1.823
  512SOL    HW1  314   0.846   2.736   1.888
  512SOL    HW2  315   0.872   2.696   1.732
  514SOL     OW  316   0.686   3.023   1.803
  514SOL    HW1  317   0.746   3.102   1.817
  514SOL    HW2  318   0.600   3.054   1.762
  516SOL     OW  319   1.460   3.367   1.339
  516SOL    HW1  320   1.484   3.461   1.365
  516SOL    HW2  321   1.444   3.313   1.421
  518SOL     OW  322   1.603   2.309   0.737
  518SOL    HW1  323   1.529   2.355   0.687
  518SOL    HW2  324   1.654   2.377   0.790
  520SOL     OW  325   1.127   3.203   1.690
  520SOL    HW1  326   1.174   3.203   1.778
  520SOL    HW2  327   1.079   3.116   1.679
  525SOL     OW  328   1.594   1.976   1.480
  525SOL    HW1  329   1.576   2.043   1.408
  525SOL    HW2  330   1.591   2.022   1.569
  529SOL     OW  331   1.689   2.784   0.612
  529SOL    HW1  332   1.784   2.755   0.620
  529SOL    HW2  333   1.681   2.849   0.537
  533SOL     OW  334   1.293   3.090   1.423
  533SOL    HW1  335   1.330   3.017   1.365
  533SOL    HW2  336   1.345   3.095   1.508
  542SOL     OW  337   1.281   2.207   0.944
  542SOL    HW1  338   1.195   2.157   0.931
  542SOL    HW2  339   1.343   2.153   1.000
  544SOL     OW  340   0.807   2.467   1.465
  544SOL    HW1  341   0.760   2.464   1.554
  544SOL    HW2  342   0.756   2.412   1.399
  545SOL     OW  343   1.394   2.331   1.674
  545SOL    HW1  344   1.374   2.374   1.762
  545SOL    HW2  345   1.472   2.269   1.683
  546SOL     OW  346   0.973   2.752   1.572
  546SOL    HW1  347   1.019   2.668   1.543
  546SOL    HW2  348   0.917   2.786   1.497
  547SOL     OW  349   0.991   2.272   1.242
  547SOL    HW1  350   0.914   2.306   1.296
  547SOL    HW2  351   0.957   2.221   1.163
  552SOL     OW  352   1.719   2.447   1.831
  552SOL    HW1  353   1.693   2.536   1.795
  552SOL    HW2  354   1.717   2.379   1.758
  557SOL     OW  355   1.795   2.928   0.873
  557SOL    HW1  356   1.733   2.913   0.797
  557SOL    HW2  357   1.743   2.939   0.958
  558SOL     OW  358   1.227   3.412   1.506
  558SOL    HW1  359   1.233   3.335   1.570
  558SOL    HW2  360   1.175   3.386   1.426
  560SOL     OW  361   1.458   2.597   0.728
  560SOL    HW1  362   1.453   2.532   0.803
  560SOL    HW2  363   1.538   2.656   0.741
  570SOL     OW  364   1.547   2.084   1.729
  570SOL    HW1  365   1.542   2.121   1.821
  570SOL    HW2  366   1.475   2.015   1.717
  572SOL     OW  367   0.781   2.126   1.749
  572SOL    HW1  368   0.848   2.065   1.792
  572SOL    HW2  369   0.708   2.145   1.814
  574SOL     OW  370   1.351   2.452   1.433
  574SOL    HW1  371   1.379   2.409   1.518
  574SOL    HW2  372   1.376   2.548   1.434
  580SOL     OW  373   1.076   2.545   1.464
  580SOL    HW1  374   0.996   2.484   1.467
  580SOL    HW2  375   1.157   2.492   1.440
  589SOL     OW  376   1.429   3.035   0.867
  589SOL    HW1  377   1.374   2.951   0.860
  589SOL    HW2  378   1.455   3.064   0.775
  590SOL     OW  379   1.466   2.452   0.992
  590SOL    HW1  380   1.436   2.357   0.999
  590SOL    HW2  381   1.539   2.468   1.058
  596SOL     OW  382   1.754   3.085   1.588
  596SOL    HW1  383   1.845   3.046   1.575
  596SOL    HW2  384   1.762   3.181   1.612
  597SOL     OW  385   1.064   3.209   1.340
  597SOL    HW1  386   0.984   3.186   1.395
  597SOL    HW2  387   1.147   3.183   1.389
  598SOL     OW  388   1.592   3.491   1.625
  598SOL    HW1  389   1.619   3.525   1.535
  598SOL    HW2  390   1.671   3.453   1.671
  599SOL     OW  391   1.111   3.057   1.100
  599SOL    HW1  392   1.071   3.101   1.181
  599SOL    HW2  393   1.070   3.094   1.017
  600SOL     OW  394   1.638   2.961   1.079
  600SOL    HW1  395   1.643   3.042   1.138
  600SOL    HW2  396   1.552   2.963   1.028
  601SOL     OW  397   0.915   1.951   1.402
  601SOL    HW1  398   0.940   1.931   1.307
  601SOL    HW2  399   0.987   2.007   1.444
  602SOL     OW  400   0.980   2.978   1.719
  602SOL    HW1  401   0.881   2.984   1.729
  602SOL    HW2  402   1.003   2.898   1.663
  605SOL     OW  403   1.274   2.248   1.262
  605SOL    HW1  404   1.295   2.322   1.326
  605SOL    HW2  405   1.185   2.265   1.219
  610SOL     OW  406   1.272   3.307   1.142
  610SOL    HW1  407   1.319   3.320   1.229
  610SOL    HW2  408   1.206   3.233   1.151
  614SOL     OW  409   1.587   2.641   1.670
  614SOL    HW1  410   1.495   2.679   1.665
  614SOL    HW2  411   1.647   2.688   1.605
  615SOL     OW  412   1.013   1.967   1.770
  615SOL    HW1  413   1.019   2.052   1.718
  615SOL    HW2  414   1.045   1.891   1.713
  618SOL     OW  415   1.360   2.724   1.045
  618SOL    HW1  416   1.285   2.724   0.979
  618SOL    HW2  417   1.397   2.632   1.054
  623SOL     OW  418   1.728   2.797   1.854
  623SOL    HW1  419   1.682   2.790   1.765
  623SOL    HW2  420   1.666   2.841   1.920
  626SOL     OW  421   1.023   2.628   0.966
  626SOL    HW1  422   1.038   2.649   1.062
  626SOL    HW2  423   0.993   2.533   0.957
  628SOL     OW  424   1.859   3.380   1.605
  628SOL    HW1  425   1.873   3.407   1.510
  628SOL    HW2  426   1.942   3.402   1.658
  635SOL     OW  427   1.138   2.242   1.678
  635SOL    HW1  428   1.093   2.305   1.742
  635SOL    HW2  429   1.231   2.273   1.661
  636SOL     OW  430   1.160   2.069   1.477
  636SOL    HW1  431   1.160   2.133   1.554
  636SOL    HW2  432   1.188   2.117   1.394
  640SOL     OW  433   1.002   2.658   1.238
  640SOL    HW1  434   1.043   2.626   1.324
  640SOL    HW2  435   0.906   2.631   1.235
  643SOL     OW  436   1.369   2.812   1.660
  643SOL    HW1  437   1.408   2.901   1.680
  643SOL    HW2  438   1.379   2.792   1.563
  645SOL     OW  439   1.657   2.466   1.206
  645SOL    HW1  440   1.619   2.397   1.268
  645SOL    HW2  441   1.739   2.430   1.162
  651SOL     OW  442   1.347   2.921   1.234
  651SOL    HW1  443   1.371   2.858   1.160
  651SOL    HW2  444   1.257   2.961   1.216
  658SOL     OW  445   1.726   1.997   0.523
  658SOL    HW1  446   1.799   1.980   0.456
  658SOL    HW2  447   1.695   1.910   0.561
  664SOL     OW  448   1.650   3.582   1.394
  664SOL    HW1  449   1.703   3.592   1.310
  664SOL    HW2  450   1.623   3.672   1.428
  665SOL     OW  451   1.841   2.037   0.963
  665SOL    HW1  452   1.880   1.952   0.927
  665SOL    HW2  453   1.743   2.039   0.944
  668SOL     OW  454   0.822   2.864   1.372
  668SOL    HW1  455   0.862   2.863   1.280
  668SOL    HW2  456   0.832   2.956   1.412
  672SOL     OW  457   1.614   3.154   1.289
  672SOL    HW1  458   1.674   3.157   1.369
  672SOL    HW2  459   1.539   3.218   1.302
  674SOL     OW  460   1.014   2.098   0.971
  674SOL    HW1  461   1.006   2.062   0.878
  674SOL    HW2  462   1.012   2.022   1.036
  676SOL     OW  463   1.709   2.247   1.381
  676SOL    HW1  464   1.782   2.316   1.385
  676SOL    HW2  465   1.737   2.172   1.322
  679SOL     OW  466   0.672   2.065   1.489
  679SOL    HW1  467   0.762   2.049   1.449
  679SOL    HW2  468   0.680   2.070   1.588
  681SOL     OW  469   1.440   2.718   1.398
  681SOL    HW1  470   1.383   2.770   1.335
  681SOL    HW2  471   1.536   2.730   1.374
  686SOL     OW  472   0.716   2.427   1.708
  686SOL    HW1  473   0.735   2.492   1.782
  686SOL    HW2  474   0.776   2.347   1.717
  687SOL     OW  475   1.450   3.082   1.633
  687SOL    HW1  476   1.441   3.072   1.732
  687SOL    HW2  477   1.546   3.075   1.607
  689SOL     OW  478   1.674   2.745   1.254
  689SOL    HW1  479   1.647   2.656   1.217
  689SOL    HW2  480   1.675   2.813   1.181
  692SOL     OW  481   1.777   2.204   1.642
  692SOL    HW1  482   1.760   2.235   1.548
  692SOL    HW2  483   1.693   2.167   1.680
  693SOL     OW  484   1.730   2.796   1.517
  693SOL    HW1  485   1.768   2.887   1.532
  693SOL    HW2  486   1.722   2.779   1.418
  702SOL     OW  487   1.824   2.054   1.227
  702SOL    HW1  488   1.820   1.964   1.271
  702SOL    HW2  489   1.827   2.043   1.128
  704SOL     OW  490   1.705   3.349   1.104
  704SOL    HW1  491   1.612   3.324   1.077
  704SOL    HW2  492   1.731   3.299   1.186
  707SOL     OW  493   1.424   2.076   1.112
  707SOL    HW1  494   1.476   2.011   1.167
  707SOL    HW2  495   1.375   2.139   1.173
  708SOL     OW  496   1.001   1.896   1.154
  708SOL    HW1  497   0.938   1.824   1.123
  708SOL    HW2  498   1.094   1.860   1.154
  712SOL     OW  499   1.300   2.315   0.691
  712SOL    HW1  500   1.241   2.395   0.695
  712SOL    HW2  501   1.315   2.280   0.784
  713SOL     OW  502   1.593   2.083   0.882
  713SOL    HW1  503   1.509   2.082   0.936
  713SOL    HW2  504   1.595   2.166   0.826
  720SOL     OW  505   1.555   3.373   2.565
  720SOL    HW1  506   1.498   3.357   2.646
  720SOL    HW2  507   1.496   3.383   2.485
  721SOL     OW  508   1.135   2.565   2.579
  721SOL    HW1  509   1.192   2.643   2.554
  721SOL    HW2  510   1.075   2.591   2.655
  722SOL     OW  511   1.755   2.469   2.093
  722SOL    HW1  512   1.743   2.456   1.994
  722SOL    HW2  513   1.725   2.388   2.142
  723SOL     OW  514   0.768   3.006   2.885
  723SOL    HW1  515   0.690   3.023   2.945
  723SOL    HW2  516   0.802   3.093   2.849
  725SOL     OW  517   0.685   2.874   2.527
  725SOL    HW1  518   0.754   2.858   2.597
  725SOL    HW2  519   0.612   2.931   2.565
  728SOL     OW  520   1.460   3.367   3.201
  728SOL    HW1  521   1.484   3.461   3.227
  728SOL    HW2  522   1.444   3.313   3.283
  730SOL     OW  523   1.603   2.309   2.599
  730SOL    HW1  524   1.529   2.355   2.549
  730SOL    HW2  525   1.654   2.377   2.652
  736SOL     OW  526   0.606   2.826   1.985
  736SOL    HW1  527   0.613   2.910   1.931
  736SOL    HW2  528   0.652   2.839   2.073
  737SOL     OW  529   1.594   1.976   3.342
  737SOL    HW1  530   1.576   2.043   3.270
  737SOL    HW2  531   1.591   2.022   3.431
  739SOL     OW  532   1.842   3.629   2.221
  739SOL    HW1  533   1.896   3.600   2.301
  739SOL    HW2  534   1.872   3.719   2.192
  741SOL     OW  535   1.689   2.784   2.474
  741SOL    HW1  536   1.784   2.755   2.482
  741SOL    HW2  537   1.681   2.849   2.399
  742SOL     OW  538   1.641   2.970   2.294
  742SOL    HW1  539   1.727   2.972   2.242
  742SOL    HW2  540   1.655   3.017   2.382
  745SOL     OW  541   1.293   3.090   3.285
  745SOL    HW1  542   1.330   3.017   3.227
  745SOL    HW2  543   1.345   3.095   3.370
  746SOL     OW  544   0.809   1.866   2.364
  746SOL    HW1  545   0.849   1.957   2.355
  746SOL    HW2  546   0.709   1.874   2.370
  748SOL     OW  547   1.525   2.861   2.052
  748SOL    HW1  548   1.462   2.785   2.065
  748SOL    HW2  549   1.573   2.879   2.138
  751SOL     OW  550   1.466   3.279   2.815
  751SOL    HW1  551   1.407   3.285   2.895
  751SOL    HW2  552   1.451   3.191   2.769
  752SOL     OW  553   1.667   3.576   2.434
  752SOL    HW1  554   1.626   3.553   2.346
  752SOL    HW2  555   1.649   3.502   2.499
  753SOL     OW  556   0.598   2.591   2.132
  753SOL    HW1  557   0.622   2.660   2.064
  753SOL    HW2  558   0.520   2.624   2.186
  754SOL     OW  559   1.281   2.207   2.806
  754SOL    HW1  560   1.195   2.157   2.793
  754SOL    HW2  561   1.343   2.153   2.862
  755SOL     OW  562   1.576   3.524   2.169
  755SOL    HW1  563   1.665   3.570   2.172
  755SOL    HW2  564   1.555   3.500   2.074
  757SOL     OW  565   1.394   2.331   3.536
  757SOL    HW1  566   1.374   2.374   3.624
  757SOL    HW2  567   1.472   2.269   3.545
  759SOL     OW  568   0.991   2.272   3.104
  759SOL    HW1  569   0.914   2.306   3.158
  759SOL    HW2  570   0.957   2.221   3.025
  760SOL     OW  571   1.041   2.563   2.291
  760SOL    HW1  572   1.067   2.559   2.387
  760SOL    HW2  573   0.956   2.512   2.277
  763SOL     OW  574   0.865   2.210   2.057
  763SOL    HW1  575   0.924   2.273   2.008
  763SOL    HW2  576   0.884   2.116   2.028
  764SOL     OW  577   1.719   2.447   3.693
  764SOL    HW1  578   1.693   2.536   3.657
  764SOL    HW2  579   1.717   2.379   3.620
  765SOL     OW  580   1.362   3.006   2.407
  765SOL    HW1  581   1.445   2.977   2.359
  765SOL    HW2  582   1.313   3.073   2.351
  766SOL     OW  583   0.550   2.058   2.747
  766SOL    HW1  584   0.545   2.053   2.847
  766SOL    HW2  585   0.552   2.154   2.718
  767SOL     OW  586   1.008   3.318   2.339
  767SOL    HW1  587   0.962   3.390   2.287
  767SOL    HW2  588   1.004   3.338   2.437
  769SOL     OW  589   1.795   2.928   2.735
  769SOL    HW1  590   1.733   2.913   2.659
  769SOL    HW2  591   1.743   2.939   2.820
  772SOL     OW  592   1.458   2.597   2.590
  772SOL    HW1  593   1.453   2.532   2.665
  772SOL    HW2  594   1.538   2.656   2.603
  776SOL     OW  595   1.632   3.239   1.943
  776SOL    HW1  596   1.600   3.333   1.933
  776SOL    HW2  597   1.556   3.176   1.931
  778SOL     OW  598   1.400   1.969   2.288
  778SOL    HW1  599   1.376   1.932   2.198
  778SOL    HW2  600   1.499   1.985   2.292
  782SOL     OW  601   1.547   2.084   3.591
  782SOL    HW1  602   1.542   2.121   3.683
  782SOL    HW2  603   1.475   2.015   3.579
  783SOL     OW  604   0.614   1.984   1.979
  783SOL    HW1  605   0.712   1.962   1.986
  783SOL    HW2  606   0.583   1.967   1.886
  786SOL     OW  607   1.351   2.452   3.295
  786SOL    HW1  608   1.379   2.409   3.380
  786SOL    HW2  609   1.376   2.548   3.296
  788SOL     OW  610   0.922   2.365   2.761
  788SOL    HW1  611   0.897   2.356   2.665
  788SOL    HW2  612   0.970   2.283   2.792
  789SOL     OW  613   0.539   1.926   2.374
  789SOL    HW1  614   0.458   1.927   2.432
  789SOL    HW2  615   0.542   2.009   2.319
  790SOL     OW  616   1.434   3.050   1.903
  790SOL    HW1  617   1.466   2.974   1.960
  790SOL    HW2  618   1.342   3.077   1.933
  792SOL     OW  619   0.935   2.098   2.342
  792SOL    HW1  620   0.887   2.139   2.264
  792SOL    HW2  621   1.034   2.096   2.323
  793SOL     OW  622   1.076   2.545   3.326
  793SOL    HW1  623   0.996   2.484   3.329
  793SOL    HW2  624   1.157   2.492   3.302
  794SOL     OW  625   1.227   3.432   2.655
  794SOL    HW1  626   1.248   3.506   2.590
  794SOL    HW2  627   1.295   3.432   2.728
  796SOL     OW  628   1.271   3.659   2.453
  796SOL    HW1  629   1.315   3.723   2.389
  796SOL    HW2  630   1.221   3.711   2.523
  797SOL     OW  631   1.032   2.411   1.878
  797SOL    HW1  632   0.991   2.493   1.839
  797SOL    HW2  633   1.096   2.437   1.951
  800SOL     OW  634   0.866   2.316   2.504
  800SOL    HW1  635   0.834   2.388   2.442
  800SOL    HW2  636   0.890   2.235   2.451
  801SOL     OW  637   1.017   1.901   2.615
  801SOL    HW1  638   0.945   1.906   2.546
  801SOL    HW2  639   0.993   1.832   2.684
  802SOL     OW  640   1.429   3.035   2.729
  802SOL    HW1  641   1.374   2.951   2.722
  802SOL    HW2  642   1.455   3.064   2.637
  803SOL     OW  643   1.466   2.452   2.854
  803SOL    HW1  644   1.436   2.357   2.861
  803SOL    HW2  645   1.539   2.468   2.920
  804SOL     OW  646   1.857   2.695   2.239
  804SOL    HW1  647   1.899   2.631   2.303
  804SOL    HW2  648   1.819   2.644   2.161
  806SOL     OW  649   1.664   3.142   2.519
  806SOL    HW1  650   1.763   3.150   2.533
  806SOL    HW2  651   1.619   3.226   2.550
  807SOL     OW  652   1.390   2.437   1.940
  807SOL    HW1  653   1.336   2.416   2.021
  807SOL    HW2  654   1.481   2.396   1.949
  808SOL     OW  655   0.527   2.118   2.190
  808SOL    HW1  656   0.554   2.059   2.115
  808SOL    HW2  657   0.527   2.213   2.159
  809SOL     OW  658   1.754   3.085   3.450
  809SOL    HW1  659   1.845   3.046   3.437
  809SOL    HW2  660   1.762   3.181   3.474
  812SOL     OW  661   1.111   3.057   2.962
  812SOL    HW1  662   1.071   3.101   3.043
  812SOL    HW2  663   1.070   3.094   2.879
  813SOL     OW  664   1.638   2.961   2.941
  813SOL    HW1  665   1.643   3.042   3.000
  813SOL    HW2  666   1.552   2.963   2.890
  814SOL     OW  667   0.915   1.951   3.264
  814SOL    HW1  668   0.940   1.931   3.169
  814SOL    HW2  669   0.987   2.007   3.306
  816SOL     OW  670   0.705   2.912   2.230
  816SOL    HW1  671   0.691   2.919   2.329
  816SOL    HW2  672   0.789   2.861   2.212
  818SOL     OW  673   1.274   2.248   3.124
  818SOL    HW1  674   1.295   2.322   3.188
  818SOL    HW2  675   1.185   2.265   3.081
  821SOL     OW  676   0.566   2.399   2.727
  821SOL    HW1  677   0.578   2.465   2.653
  821SOL    HW2  678   0.612   2.433   2.810
  822SOL     OW  679   1.252   3.210   2.250
  822SOL    HW1  680   1.302   3.287   2.290
  822SOL    HW2  681   1.157   3.212   2.282
  823SOL     OW  682   1.272   3.307   3.004
  823SOL    HW1  683   1.319   3.320   3.091
  823SOL    HW2  684   1.206   3.233   3.013
  824SOL     OW  685   1.582   2.501   2.334
  824SOL    HW1  686   1.551   2.562   2.407
  824SOL    HW2  687   1.632   2.553   2.265
  827SOL     OW  688   1.587   2.641   3.532
  827SOL    HW1  689   1.495   2.679   3.527
  827SOL    HW2  690   1.647   2.688   3.467
  831SOL     OW  691   1.360   2.724   2.907
  831SOL    HW1  692   1.285   2.724   2.841
  831SOL    HW2  693   1.397   2.632   2.916
  832SOL     OW  694   1.209   2.387   2.137
  832SOL    HW1  695   1.222   2.303   2.191
  832SOL    HW2  696   1.180   2.461   2.197
  835SOL     OW  697   0.732   2.496   2.926
  835SOL    HW1  698   0.791   2.470   2.850
  835SOL    HW2  699   0.704   2.592   2.915
  836SOL     OW  700   1.728   2.797   3.716
  836SOL    HW1  701   1.682   2.790   3.627
  836SOL    HW2  702   1.666   2.841   3.782
  838SOL     OW  703   1.622   2.229   2.236
  838SOL    HW1  704   1.624   2.153   2.300
  838SOL    HW2  705   1.574   2.306   2.276
  839SOL     OW  706   1.023   2.628   2.828
  839SOL    HW1  707   1.038   2.649   2.924
  839SOL    HW2  708   0.993   2.533   2.819
  841SOL     OW  709   1.859   3.380   3.467
  841SOL    HW1  710   1.873   3.407   3.372
  841SOL    HW2  711   1.942   3.402   3.520
  843SOL     OW  712   1.540   2.136   1.987
  843SOL    HW1  713   1.479   2.061   2.010
  843SOL    HW2  714   1.562   2.188   2.070
  844SOL     OW  715   1.303   2.700   1.904
  844SOL    HW1  716   1.337   2.607   1.919
  844SOL    HW2  717   1.321   2.727   1.809
  845SOL     OW  718   1.068   3.195   2.711
  845SOL    HW1  719   1.075   3.111   2.656
  845SOL    HW2  720   1.130   3.264   2.675
  848SOL     OW  721   1.138   2.242   3.540
  848SOL    HW1  722   1.093   2.305   3.604
  848SOL    HW2  723   1.231   2.273   3.523
  849SOL     OW  724   1.160   2.069   3.339
  849SOL    HW1  725   1.160   2.133   3.416
  849SOL    HW2  726   1.188   2.117   3.256
  853SOL     OW  727   1.002   2.658   3.100
  853SOL    HW1  728   1.043   2.626   3.186
  853SOL    HW2  729   0.906   2.631   3.097
  856SOL     OW  730   1.369   2.812   3.522
  856SOL    HW1  731   1.408   2.901   3.542
  856SOL    HW2  732   1.379   2.792   3.425
  857SOL     OW  733   0.815   2.434   2.187
  857SOL    HW1  734   0.822   2.345   2.141
  857SOL    HW2  735   0.721   2.468   2.179
  858SOL     OW  736   1.657   2.466   3.068
  858SOL    HW1  737   1.619   2.397   3.130
  858SOL    HW2  738   1.739   2.430   3.024
  860SOL     OW  739   0.671   2.326   3.131
  860SOL    HW1  740   0.637   2.237   3.101
  860SOL    HW2  741   0.697   2.380   3.051
  862SOL     OW  742   0.473   2.362   2.053
  862SOL    HW1  743   0.534   2.442   2.057
  862SOL    HW2  744   0.378   2.393   2.060
  864SOL     OW  745   1.347   2.921   3.096
  864SOL    HW1  746   1.371   2.858   3.022
  864SOL    HW2  747   1.257   2.961   3.078
  865SOL     OW  748   1.302   2.717   2.171
  865SOL    HW1  749   1.216   2.686   2.213
  865SOL    HW2  750   1.298   2.703   2.072
  866SOL     OW  751   1.759   3.609   3.016
  866SOL    HW1  752   1.820   3.639   2.943
  866SOL    HW2  753   1.721   3.520   2.994
  870SOL     OW  754   1.726   1.997   2.385
  870SOL    HW1  755   1.799   1.980   2.318
  870SOL    HW2  756   1.695   1.910   2.423
  871SOL     OW  757   1.388   3.435   2.339
  871SOL    HW1  758   1.455   3.447   2.265
  871SOL    HW2  759   1.348   3.524   2.362
  873SOL     OW  760   1.280   2.789   2.534
  873SOL    HW1  761   1.340   2.708   2.536
  873SOL    HW2  762   1.320   2.858   2.474
  877SOL     OW  763   1.841   2.037   2.825
  877SOL    HW1  764   1.880   1.952   2.789
  877SOL    HW2  765   1.743   2.039   2.806
  879SOL     OW  766   1.194   3.474   1.893
  879SOL    HW1  767   1.200   3.381   1.930
  879SOL    HW2  768   1.135   3.474   1.813
  881SOL     OW  769   0.916   2.772   2.153
  881SOL    HW1  770   0.979   2.810   2.085
  881SOL    HW2  771   0.956   2.689   2.192
  882SOL     OW  772   1.504   3.469   1.906
  882SOL    HW1  773   1.412   3.506   1.913
  882SOL    HW2  774   1.542   3.489   1.816
  884SOL     OW  775   1.614   3.154   3.151
  884SOL    HW1  776   1.674   3.157   3.231
  884SOL    HW2  777   1.539   3.218   3.164
  885SOL     OW  778   1.039   2.960   2.558
  885SOL    HW1  779   0.969   2.913   2.612
  885SOL    HW2  780   1.098   2.892   2.515
  886SOL     OW  781   1.014   2.098   2.833
  886SOL    HW1  782   1.006   2.062   2.740
  886SOL    HW2  783   1.012   2.022   2.898
  888SOL     OW  784   1.709   2.247   3.243
  888SOL    HW1  785   1.782   2.316   3.247
  888SOL    HW2  786   1.737   2.172   3.184
  893SOL     OW  787   1.440   2.718   3.260
  893SOL    HW1  788   1.383   2.770   3.197
  893SOL    HW2  789   1.536   2.730   3.236
  895SOL     OW  790   1.183   3.197   1.981
  895SOL    HW1  791   1.084   3.186   1.983
  895SOL    HW2  792   1.217   3.212   2.074
  897SOL     OW  793   1.493   3.629   2.821
  897SOL    HW1  794   1.526   3.693   2.752
  897SOL    HW2  795   1.559   3.623   2.896
  899SOL     OW  796   1.450   3.082   3.495
  899SOL    HW1  797   1.441   3.072   3.594
  899SOL    HW2  798   1.546   3.075   3.469
  901SOL     OW  799   1.674   2.745   3.116
  901SOL    HW1  800   1.647   2.656   3.079
  901SOL    HW2  801   1.675   2.813   3.043
  902SOL     OW  802   1.225   2.187   2.311
  902SOL    HW1  803   1.290   2.113   2.300
  902SOL    HW2  804   1.245   2.237   2.395
  903SOL     OW  805   0.594   2.607   2.514
  903SOL    HW1  806   0.644   2.692   2.495
  903SOL    HW2  807   0.506   2.609   2.466
  904SOL     OW  808   1.777   2.204   3.504
  904SOL    HW1  809   1.760   2.235   3.410
  904SOL    HW2  810   1.693   2.167   3.542
  905SOL     OW  811   1.730   2.796   3.379
  905SOL    HW1  812   1.768   2.887   3.394
  905SOL    HW2  813   1.722   2.779   3.280
  906SOL     OW  814   0.859   3.236   1.878
  906SOL    HW1  815   0.813   3.251   1.966
  906SOL    HW2  816   0.903   3.321   1.848
  908SOL     OW  817   0.859   2.818   2.723
  908SOL    HW1  818   0.913   2.749   2.771
  908SOL    HW2  819   0.827   2.887   2.789
  909SOL     OW  820   1.083   2.846   1.949
  909SOL    HW1  821   1.060   2.899   1.867
  909SOL    HW2  822   1.164   2.790   1.930
  910SOL     OW  823   1.861   3.431   2.713
  910SOL    HW1  824   1.790   3.419   2.643
  910SOL    HW2  825   1.862   3.352   2.773
  914SOL     OW  826   1.824   2.054   3.089
  914SOL    HW1  827   1.820   1.964   3.133
  914SOL    HW2  828   1.827   2.043   2.990
  915SOL     OW  829   0.428   2.286   2.382
  915SOL    HW1  830   0.458   2.214   2.320
  915SOL    HW2  831   0.389   2.246   2.465
  916SOL     OW  832   1.705   3.349   2.966
  916SOL    HW1  833   1.612   3.324   2.939
  916SOL    HW2  834   1.731   3.299   3.048
  919SOL     OW  835   1.424   2.076   2.974
  919SOL    HW1  836   1.476   2.011   3.029
  919SOL    HW2  837   1.375   2.139   3.035
  920SOL     OW  838   1.001   1.896   3.016
  920SOL    HW1  839   0.938   1.824   2.985
  920SOL    HW2  840   1.094   1.860   3.016
  921SOL     OW  841   0.770   3.192   2.163
  921SOL    HW1  842   0.724   3.105   2.180
  921SOL    HW2  843   0.861   3.189   2.204
  923SOL     OW  844   1.352   1.914   2.030
  923SOL    HW1  845   1.387   1.873   1.946
  923SOL    HW2  846   1.262   1.876   2.050
  924SOL     OW  847   1.300   2.315   2.553
  924SOL    HW1  848   1.241   2.395   2.557
  924SOL    HW2  849   1.315   2.280   2.646
  925SOL     OW  850   1.593   2.083   2.744
  925SOL    HW1  851   1.509   2.082   2.798
  925SOL    HW2  852   1.595   2.166   2.688
  976SOL     OW  853   1.540   2.136   3.849
  976SOL    HW1  854   1.479   2.061   3.872
  976SOL    HW2  855   1.562   2.188   3.932
 1146SOL     OW  856   1.726   3.859   2.385
 1146SOL    HW1  857   1.799   3.842   2.318
 1146SOL    HW2  858   1.695   3.772   2.423
 1164SOL     OW  859   1.352   3.776   2.030
 1164SOL    HW1  860   1.387   3.735   1.946
 1164SOL    HW2  861   1.262   3.738   2.050
 1202SOL     OW  862   2.431   1.275   1.165
 1202SOL    HW1  863   2.338   1.268   1.128
 1202SOL    HW2  864   2.442   1.364   1.209
 1206SOL     OW  865   2.630   1.144   1.023
 1206SOL    HW1  866   2.552   1.161   1.083
 1206SOL    HW2  867   2.664   1.231   0.987
 1207SOL     OW  868   2.712   0.798   1.823
 1207SOL    HW1  869   2.708   0.874   1.888
 1207SOL    HW2  870   2.734   0.834   1.732
 1209SOL     OW  871   2.548   1.161   1.803
 1209SOL    HW1  872   2.608   1.240   1.817
 1209SOL    HW2  873   2.462   1.192   1.762
 1210SOL     OW  874   2.197   1.435   1.061
 1210SOL    HW1  875   2.119   1.404   1.008
 1210SOL    HW2  876   2.255   1.493   1.004
 1211SOL     OW  877   3.322   1.505   1.339
 1211SOL    HW1  878   3.346   1.599   1.365
 1211SOL    HW2  879   3.306   1.451   1.421
 1215SOL     OW  880   2.989   1.341   1.690
 1215SOL    HW1  881   3.036   1.341   1.778
 1215SOL    HW2  882   2.941   1.254   1.679
 1217SOL     OW  883   2.102   1.091   0.886
 1217SOL    HW1  884   2.116   1.007   0.938
 1217SOL    HW2  885   2.047   1.155   0.941
 1218SOL     OW  886   2.482   1.786   1.439
 1218SOL    HW1  887   2.390   1.769   1.474
 1218SOL    HW2  888   2.510   1.878   1.465
 1226SOL     OW  889   1.975   0.737   1.597
 1226SOL    HW1  890   2.063   0.724   1.642
 1226SOL    HW2  891   1.962   0.834   1.575
 1227SOL     OW  892   2.475   1.365   0.726
 1227SOL    HW1  893   2.426   1.278   0.735
 1227SOL    HW2  894   2.452   1.408   0.639
 1228SOL     OW  895   3.155   1.228   1.423
 1228SOL    HW1  896   3.192   1.155   1.365
 1228SOL    HW2  897   3.207   1.233   1.508
 1230SOL     OW  898   2.059   0.976   1.264
 1230SOL    HW1  899   2.148   0.931   1.250
 1230SOL    HW2  900   1.986   0.911   1.245
 1232SOL     OW  901   3.049   1.792   1.616
 1232SOL    HW1  902   3.073   1.852   1.540
 1232SOL    HW2  903   3.056   1.697   1.586
 1241SOL     OW  904   2.835   0.890   1.572
 1241SOL    HW1  905   2.881   0.806   1.543
 1241SOL    HW2  906   2.779   0.924   1.497
 1245SOL     OW  907   1.992   1.821   1.571
 1245SOL    HW1  908   1.982   1.806   1.670
 1245SOL    HW2  909   1.906   1.857   1.535
 1251SOL     OW  910   2.213   1.801   0.853
 1251SOL    HW1  911   2.263   1.715   0.859
 1251SOL    HW2  912   2.278   1.878   0.850
 1253SOL     OW  913   3.089   1.550   1.506
 1253SOL    HW1  914   3.095   1.473   1.570
 1253SOL    HW2  915   3.037   1.524   1.426
 1256SOL     OW  916   2.323   1.266   1.727
 1256SOL    HW1  917   2.273   1.267   1.641
 1256SOL    HW2  918   2.260   1.248   1.803
 1262SOL     OW  919   2.111   1.785   1.241
 1262SOL    HW1  920   2.168   1.720   1.291
 1262SOL    HW2  921   2.095   1.752   1.148
 1263SOL     OW  922   2.802   1.698   0.904
 1263SOL    HW1  923   2.882   1.641   0.925
 1263SOL    HW2  924   2.753   1.658   0.827
 1268SOL     OW  925   2.750   1.514   1.195
 1268SOL    HW1  926   2.727   1.489   1.101
 1268SOL    HW2  927   2.811   1.445   1.234
 1270SOL     OW  928   2.665   1.402   0.924
 1270SOL    HW1  929   2.755   1.416   0.882
 1270SOL    HW2  930   2.594   1.404   0.853
 1277SOL     OW  931   3.089   1.570   0.793
 1277SOL    HW1  932   3.110   1.644   0.728
 1277SOL    HW2  933   3.157   1.570   0.866
 1293SOL     OW  934   2.926   1.347   1.340
 1293SOL    HW1  935   2.846   1.324   1.395
 1293SOL    HW2  936   3.009   1.321   1.389
 1294SOL     OW  937   3.454   1.629   1.625
 1294SOL    HW1  938   3.481   1.663   1.535
 1294SOL    HW2  939   3.533   1.591   1.671
 1295SOL     OW  940   2.973   1.195   1.100
 1295SOL    HW1  941   2.933   1.239   1.181
 1295SOL    HW2  942   2.932   1.232   1.017
 1298SOL     OW  943   2.842   1.116   1.719
 1298SOL    HW1  944   2.743   1.122   1.729
 1298SOL    HW2  945   2.865   1.036   1.663
 1300SOL     OW  946   2.272   0.813   1.251
 1300SOL    HW1  947   2.358   0.825   1.301
 1300SOL    HW2  948   2.230   0.726   1.278
 1302SOL     OW  949   1.926   1.564   1.331
 1302SOL    HW1  950   1.880   1.646   1.297
 1302SOL    HW2  951   2.024   1.583   1.340
 1306SOL     OW  952   3.134   1.445   1.142
 1306SOL    HW1  953   3.181   1.458   1.229
 1306SOL    HW2  954   3.068   1.371   1.151
 1308SOL     OW  955   2.216   1.510   1.329
 1308SOL    HW1  956   2.195   1.466   1.242
 1308SOL    HW2  957   2.313   1.536   1.332
 1309SOL     OW  958   2.264   0.751   1.598
 1309SOL    HW1  959   2.332   0.806   1.551
 1309SOL    HW2  960   2.304   0.663   1.625
 1317SOL     OW  961   1.899   1.310   1.282
 1317SOL    HW1  962   1.952   1.261   1.350
 1317SOL    HW2  963   1.921   1.408   1.287
 1323SOL     OW  964   2.842   1.573   1.700
 1323SOL    HW1  965   2.822   1.617   1.612
 1323SOL    HW2  966   2.881   1.482   1.684
 1324SOL     OW  967   3.721   1.518   1.605
 1324SOL    HW1  968   3.735   1.545   1.510
 1324SOL    HW2  969   3.804   1.540   1.658
 1325SOL     OW  970   2.212   0.898   1.804
 1325SOL    HW1  971   2.288   0.942   1.852
 1325SOL    HW2  972   2.247   0.851   1.722
 1328SOL     OW  973   2.930   1.333   0.849
 1328SOL    HW1  974   2.937   1.249   0.794
 1328SOL    HW2  975   2.992   1.402   0.813
 1334SOL     OW  976   1.950   1.801   0.927
 1334SOL    HW1  977   1.908   1.715   0.900
 1334SOL    HW2  978   2.044   1.804   0.893
 1335SOL     OW  979   2.366   1.568   0.910
 1335SOL    HW1  980   2.432   1.642   0.919
 1335SOL    HW2  981   2.410   1.489   0.868
 1338SOL     OW  982   2.051   0.520   1.722
 1338SOL    HW1  983   2.110   0.480   1.652
 1338SOL    HW2  984   1.993   0.591   1.681
 1339SOL     OW  985   3.231   0.950   1.660
 1339SOL    HW1  986   3.270   1.039   1.680
 1339SOL    HW2  987   3.241   0.930   1.563
 1342SOL     OW  988   2.114   1.564   1.744
 1342SOL    HW1  989   2.084   1.621   1.820
 1342SOL    HW2  990   2.107   1.467   1.770
 1344SOL     OW  991   2.792   1.678   1.465
 1344SOL    HW1  992   2.768   1.660   1.370
 1344SOL    HW2  993   2.822   1.772   1.475
 1346SOL     OW  994   2.021   1.137   1.466
 1346SOL    HW1  995   2.043   1.076   1.542
 1346SOL    HW2  996   2.031   1.088   1.380
 1350SOL     OW  997   3.114   1.731   1.128
 1350SOL    HW1  998   3.198   1.736   1.074
 1350SOL    HW2  999   3.091   1.635   1.146
 1351SOL     OW 1000   1.945   1.258   1.022
 1351SOL    HW1 1001   1.940   1.257   1.122
 1351SOL    HW2 1002   1.862   1.217   0.984
 1352SOL     OW 1003   2.550   1.662   1.716
 1352SOL    HW1 1004   2.494   1.743   1.725
 1352SOL    HW2 1005   2.602   1.666   1.630
 1356SOL     OW 1006   1.992   1.794   1.851
 1356SOL    HW1 1007   1.951   1.720   1.904
 1356SOL    HW2 1008   2.056   1.845   1.909
 1358SOL     OW 1009   2.692   1.273   1.422
 1358SOL    HW1 1010   2.687   1.306   1.517
 1358SOL    HW2 1011   2.606   1.292   1.376
 1360SOL     OW 1012   3.512   1.720   1.394
 1360SOL    HW1 1013   3.565   1.730   1.310
 1360SOL    HW2 1014   3.485   1.810   1.428
 1364SOL     OW 1015   2.684   1.002   1.372
 1364SOL    HW1 1016   2.724   1.001   1.280
 1364SOL    HW2 1017   2.694   1.094   1.412
 1367SOL     OW 1018   2.234   1.288   1.490
 1367SOL    HW1 1019   2.221   1.381   1.456
 1367SOL    HW2 1020   2.150   1.236   1.477
 1374SOL     OW 1021   1.967   1.013   1.726
 1374SOL    HW1 1022   1.890   0.980   1.780
 1374SOL    HW2 1023   2.052   0.983   1.768
 1379SOL     OW 1024   2.475   0.842   1.431
 1379SOL    HW1 1025   2.531   0.923   1.414
 1379SOL    HW2 1026   2.534   0.762   1.434
 1380SOL     OW 1027   3.355   1.767   0.959
 1380SOL    HW1 1028   3.388   1.831   0.890
 1380SOL    HW2 1029   3.421   1.761   1.034
 1381SOL     OW 1030   2.578   0.565   1.708
 1381SOL    HW1 1031   2.597   0.630   1.782
 1381SOL    HW2 1032   2.638   0.485   1.717
 1382SOL     OW 1033   3.312   1.220   1.633
 1382SOL    HW1 1034   3.303   1.210   1.732
 1382SOL    HW2 1035   3.408   1.213   1.607
 1383SOL     OW 1036   2.252   1.741   1.560
 1383SOL    HW1 1037   2.161   1.782   1.558
 1383SOL    HW2 1038   2.245   1.647   1.592
 1390SOL     OW 1039   2.523   1.790   0.953
 1390SOL    HW1 1040   2.477   1.878   0.940
 1390SOL    HW2 1041   2.622   1.802   0.946
 1394SOL     OW 1042   2.083   1.314   1.844
 1394SOL    HW1 1043   2.018   1.241   1.823
 1394SOL    HW2 1044   2.087   1.328   1.942
 1396SOL     OW 1045   2.534   1.391   1.624
 1396SOL    HW1 1046   2.456   1.341   1.662
 1396SOL    HW2 1047   2.531   1.486   1.655
 1401SOL     OW 1048   2.674   1.586   0.687
 1401SOL    HW1 1049   2.706   1.596   0.593
 1401SOL    HW2 1050   2.595   1.524   0.689
 1405SOL     OW 1051   2.480   1.567   1.284
 1405SOL    HW1 1052   2.475   1.649   1.341
 1405SOL    HW2 1053   2.569   1.564   1.239
 1411SOL     OW 1054   2.092   0.628   1.975
 1411SOL    HW1 1055   1.999   0.626   2.012
 1411SOL    HW2 1056   2.093   0.589   1.883
 1414SOL     OW 1057   2.431   1.275   3.027
 1414SOL    HW1 1058   2.338   1.268   2.990
 1414SOL    HW2 1059   2.442   1.364   3.071
 1415SOL     OW 1060   3.417   1.511   2.565
 1415SOL    HW1 1061   3.360   1.495   2.646
 1415SOL    HW2 1062   3.358   1.521   2.485
 1416SOL     OW 1063   2.997   0.703   2.579
 1416SOL    HW1 1064   3.054   0.781   2.554
 1416SOL    HW2 1065   2.937   0.729   2.655
 1418SOL     OW 1066   2.630   1.144   2.885
 1418SOL    HW1 1067   2.552   1.161   2.945
 1418SOL    HW2 1068   2.664   1.231   2.849
 1420SOL     OW 1069   2.547   1.012   2.527
 1420SOL    HW1 1070   2.616   0.996   2.597
 1420SOL    HW2 1071   2.474   1.069   2.565
 1422SOL     OW 1072   2.197   1.435   2.923
 1422SOL    HW1 1073   2.119   1.404   2.870
 1422SOL    HW2 1074   2.255   1.493   2.866
 1423SOL     OW 1075   3.322   1.505   3.201
 1423SOL    HW1 1076   3.346   1.599   3.227
 1423SOL    HW2 1077   3.306   1.451   3.283
 1426SOL     OW 1078   2.093   1.713   2.345
 1426SOL    HW1 1079   2.127   1.790   2.399
 1426SOL    HW2 1080   2.137   1.713   2.255
 1427SOL     OW 1081   2.989   1.341   3.552
 1427SOL    HW1 1082   3.036   1.341   3.640
 1427SOL    HW2 1083   2.941   1.254   3.541
 1428SOL     OW 1084   2.092   1.434   2.400
 1428SOL    HW1 1085   2.066   1.530   2.400
 1428SOL    HW2 1086   2.021   1.380   2.445
 1429SOL     OW 1087   2.102   1.091   2.748
 1429SOL    HW1 1088   2.116   1.007   2.800
 1429SOL    HW2 1089   2.047   1.155   2.803
 1430SOL     OW 1090   2.482   1.786   3.301
 1430SOL    HW1 1091   2.390   1.769   3.336
 1430SOL    HW2 1092   2.510   1.878   3.327
 1431SOL     OW 1093   2.468   0.964   1.985
 1431SOL    HW1 1094   2.475   1.048   1.931
 1431SOL    HW2 1095   2.514   0.977   2.073
 1433SOL     OW 1096   1.984   0.643   2.425
 1433SOL    HW1 1097   1.939   0.555   2.442
 1433SOL    HW2 1098   1.983   0.697   2.509
 1434SOL     OW 1099   3.704   1.767   2.221
 1434SOL    HW1 1100   3.758   1.738   2.301
 1434SOL    HW2 1101   3.734   1.857   2.192
 1435SOL     OW 1102   1.889   1.596   1.979
 1435SOL    HW1 1103   1.870   1.500   2.000
 1435SOL    HW2 1104   1.856   1.654   2.054
 1437SOL     OW 1105   3.503   1.108   2.294
 1437SOL    HW1 1106   3.589   1.110   2.242
 1437SOL    HW2 1107   3.517   1.155   2.382
 1439SOL     OW 1108   2.475   1.365   2.588
 1439SOL    HW1 1109   2.426   1.278   2.597
 1439SOL    HW2 1110   2.452   1.408   2.501
 1440SOL     OW 1111   3.155   1.228   3.285
 1440SOL    HW1 1112   3.192   1.155   3.227
 1440SOL    HW2 1113   3.207   1.233   3.370
 1442SOL     OW 1114   2.059   0.976   3.126
 1442SOL    HW1 1115   2.148   0.931   3.112
 1442SOL    HW2 1116   1.986   0.911   3.107
 1443SOL     OW 1117   3.387   0.999   2.052
 1443SOL    HW1 1118   3.324   0.923   2.065
 1443SOL    HW2 1119   3.435   1.017   2.138
 1444SOL     OW 1120   3.049   1.792   3.478
 1444SOL    HW1 1121   3.073   1.852   3.402
 1444SOL    HW2 1122   3.056   1.697   3.448
 1446SOL     OW 1123   3.328   1.417   2.815
 1446SOL    HW1 1124   3.269   1.423   2.895
 1446SOL    HW2 1125   3.313   1.329   2.769
 1447SOL     OW 1126   3.529   1.714   2.434
 1447SOL    HW1 1127   3.488   1.691   2.346
 1447SOL    HW2 1128   3.511   1.640   2.499
 1448SOL     OW 1129   2.460   0.729   2.132
 1448SOL    HW1 1130   2.484   0.798   2.064
 1448SOL    HW2 1131   2.382   0.762   2.186
 1450SOL     OW 1132   3.438   1.662   2.169
 1450SOL    HW1 1133   3.527   1.708   2.172
 1450SOL    HW2 1134   3.417   1.638   2.074
 1455SOL     OW 1135   2.903   0.701   2.291
 1455SOL    HW1 1136   2.929   0.697   2.387
 1455SOL    HW2 1137   2.818   0.650   2.277
 1456SOL     OW 1138   1.938   0.811   2.651
 1456SOL    HW1 1139   2.037   0.799   2.660
 1456SOL    HW2 1140   1.914   0.906   2.672
 1457SOL     OW 1141   1.992   1.821   3.433
 1457SOL    HW1 1142   1.982   1.806   3.532
 1457SOL    HW2 1143   1.906   1.857   3.397
 1460SOL     OW 1144   3.224   1.144   2.407
 1460SOL    HW1 1145   3.307   1.115   2.359
 1460SOL    HW2 1146   3.175   1.211   2.351
 1462SOL     OW 1147   2.870   1.456   2.339
 1462SOL    HW1 1148   2.824   1.528   2.287
 1462SOL    HW2 1149   2.866   1.476   2.437
 1463SOL     OW 1150   2.213   1.801   2.715
 1463SOL    HW1 1151   2.263   1.715   2.721
 1463SOL    HW2 1152   2.278   1.878   2.712
 1465SOL     OW 1153   3.089   1.550   3.368
 1465SOL    HW1 1154   3.095   1.473   3.432
 1465SOL    HW2 1155   3.037   1.524   3.288
 1466SOL     OW 1156   2.183   0.943   2.104
 1466SOL    HW1 1157   2.265   0.982   2.062
 1466SOL    HW2 1158   2.156   0.861   2.055
 1468SOL     OW 1159   2.323   1.266   3.589
 1468SOL    HW1 1160   2.273   1.267   3.503
 1468SOL    HW2 1161   2.260   1.248   3.665
 1469SOL     OW 1162   2.973   1.776   2.099
 1469SOL    HW1 1163   2.913   1.714   2.149
 1469SOL    HW2 1164   3.004   1.732   2.014
 1471SOL     OW 1165   3.494   1.377   1.943
 1471SOL    HW1 1166   3.462   1.471   1.933
 1471SOL    HW2 1167   3.418   1.314   1.931
 1472SOL     OW 1168   2.326   1.743   2.185
 1472SOL    HW1 1169   2.359   1.782   2.271
 1472SOL    HW2 1170   2.402   1.736   2.120
 1474SOL     OW 1171   2.111   1.785   3.103
 1474SOL    HW1 1172   2.168   1.720   3.153
 1474SOL    HW2 1173   2.095   1.752   3.010
 1475SOL     OW 1174   2.802   1.698   2.766
 1475SOL    HW1 1175   2.882   1.641   2.787
 1475SOL    HW2 1176   2.753   1.658   2.689
 1476SOL     OW 1177   2.244   0.700   2.342
 1476SOL    HW1 1178   2.289   0.610   2.339
 1476SOL    HW2 1179   2.150   0.689   2.375
 1480SOL     OW 1180   2.750   1.514   3.057
 1480SOL    HW1 1181   2.727   1.489   2.963
 1480SOL    HW2 1182   2.811   1.445   3.096
 1482SOL     OW 1183   2.665   1.402   2.786
 1482SOL    HW1 1184   2.755   1.416   2.744
 1482SOL    HW2 1185   2.594   1.404   2.715
 1485SOL     OW 1186   3.296   1.188   1.903
 1485SOL    HW1 1187   3.328   1.112   1.960
 1485SOL    HW2 1188   3.204   1.215   1.933
 1489SOL     OW 1189   3.089   1.570   2.655
 1489SOL    HW1 1190   3.110   1.644   2.590
 1489SOL    HW2 1191   3.157   1.570   2.728
 1490SOL     OW 1192   2.321   1.152   2.603
 1490SOL    HW1 1193   2.250   1.125   2.668
 1490SOL    HW2 1194   2.295   1.124   2.510
 1491SOL     OW 1195   3.133   1.797   2.453
 1491SOL    HW1 1196   3.177   1.861   2.389
 1491SOL    HW2 1197   3.083   1.849   2.523
 1497SOL     OW 1198   3.291   1.173   2.729
 1497SOL    HW1 1199   3.236   1.089   2.722
 1497SOL    HW2 1200   3.317   1.202   2.637
 1500SOL     OW 1201   2.350   1.385   2.036
 1500SOL    HW1 1202   2.263   1.370   2.083
 1500SOL    HW2 1203   2.333   1.411   1.941
 1501SOL     OW 1204   3.526   1.280   2.519
 1501SOL    HW1 1205   3.625   1.288   2.533
 1501SOL    HW2 1206   3.481   1.364   2.550
 1505SOL     OW 1207   2.926   1.347   3.202
 1505SOL    HW1 1208   2.846   1.324   3.257
 1505SOL    HW2 1209   3.009   1.321   3.251
 1507SOL     OW 1210   2.973   1.195   2.962
 1507SOL    HW1 1211   2.933   1.239   3.043
 1507SOL    HW2 1212   2.932   1.232   2.879
 1511SOL     OW 1213   2.567   1.050   2.230
 1511SOL    HW1 1214   2.553   1.057   2.329
 1511SOL    HW2 1215   2.651   0.999   2.212
 1512SOL     OW 1216   2.272   0.813   3.113
 1512SOL    HW1 1217   2.358   0.825   3.163
 1512SOL    HW2 1218   2.230   0.726   3.140
 1514SOL     OW 1219   1.926   1.564   3.193
 1514SOL    HW1 1220   1.880   1.646   3.159
 1514SOL    HW2 1221   2.024   1.583   3.202
 1515SOL     OW 1222   2.229   1.100   2.363
 1515SOL    HW1 1223   2.222   1.183   2.307
 1515SOL    HW2 1224   2.233   1.020   2.303
 1516SOL     OW 1225   2.428   0.537   2.727
 1516SOL    HW1 1226   2.440   0.603   2.653
 1516SOL    HW2 1227   2.474   0.571   2.810
 1517SOL     OW 1228   3.114   1.348   2.250
 1517SOL    HW1 1229   3.164   1.425   2.290
 1517SOL    HW2 1230   3.019   1.350   2.282
 1518SOL     OW 1231   3.134   1.445   3.004
 1518SOL    HW1 1232   3.181   1.458   3.091
 1518SOL    HW2 1233   3.068   1.371   3.013
 1520SOL     OW 1234   2.216   1.510   3.191
 1520SOL    HW1 1235   2.195   1.466   3.104
 1520SOL    HW2 1236   2.313   1.536   3.194
 1525SOL     OW 1237   2.435   0.870   2.891
 1525SOL    HW1 1238   2.479   0.959   2.882
 1525SOL    HW2 1239   2.372   0.870   2.968
 1529SOL     OW 1240   1.899   1.310   3.144
 1529SOL    HW1 1241   1.952   1.261   3.212
 1529SOL    HW2 1242   1.921   1.408   3.149
 1530SOL     OW 1243   2.594   0.634   2.926
 1530SOL    HW1 1244   2.653   0.608   2.850
 1530SOL    HW2 1245   2.566   0.730   2.915
 1534SOL     OW 1246   2.885   0.766   2.828
 1534SOL    HW1 1247   2.900   0.787   2.924
 1534SOL    HW2 1248   2.855   0.671   2.819
 1535SOL     OW 1249   2.842   1.573   3.562
 1535SOL    HW1 1250   2.822   1.617   3.474
 1535SOL    HW2 1251   2.881   1.482   3.546
 1539SOL     OW 1252   3.165   0.838   1.904
 1539SOL    HW1 1253   3.199   0.745   1.919
 1539SOL    HW2 1254   3.183   0.865   1.809
 1540SOL     OW 1255   2.930   1.333   2.711
 1540SOL    HW1 1256   2.937   1.249   2.656
 1540SOL    HW2 1257   2.992   1.402   2.675
 1541SOL     OW 1258   2.181   0.810   2.811
 1541SOL    HW1 1259   2.274   0.846   2.816
 1541SOL    HW2 1260   2.175   0.725   2.863
 1545SOL     OW 1261   1.870   1.326   2.062
 1545SOL    HW1 1262   1.777   1.347   2.031
 1545SOL    HW2 1263   1.880   1.227   2.075
 1546SOL     OW 1264   1.950   1.801   2.789
 1546SOL    HW1 1265   1.908   1.715   2.762
 1546SOL    HW2 1266   2.044   1.804   2.755
 1547SOL     OW 1267   2.366   1.568   2.772
 1547SOL    HW1 1268   2.432   1.642   2.781
 1547SOL    HW2 1269   2.410   1.489   2.730
 1548SOL     OW 1270   2.864   0.796   3.100
 1548SOL    HW1 1271   2.905   0.764   3.186
 1548SOL    HW2 1272   2.768   0.769   3.097
 1552SOL     OW 1273   2.677   0.572   2.187
 1552SOL    HW1 1274   2.684   0.483   2.141
 1552SOL    HW2 1275   2.583   0.606   2.179
 1554SOL     OW 1276   2.114   1.564   3.606
 1554SOL    HW1 1277   2.084   1.621   3.682
 1554SOL    HW2 1278   2.107   1.467   3.632
 1556SOL     OW 1279   2.792   1.678   3.327
 1556SOL    HW1 1280   2.768   1.660   3.232
 1556SOL    HW2 1281   2.822   1.772   3.337
 1557SOL     OW 1282   2.335   0.500   2.053
 1557SOL    HW1 1283   2.396   0.580   2.057
 1557SOL    HW2 1284   2.240   0.531   2.060
 1558SOL     OW 1285   2.021   1.137   3.328
 1558SOL    HW1 1286   2.043   1.076   3.404
 1558SOL    HW2 1287   2.031   1.088   3.242
 1559SOL     OW 1288   3.209   1.059   3.096
 1559SOL    HW1 1289   3.233   0.996   3.022
 1559SOL    HW2 1290   3.119   1.099   3.078
 1560SOL     OW 1291   3.164   0.855   2.171
 1560SOL    HW1 1292   3.078   0.824   2.213
 1560SOL    HW2 1293   3.160   0.841   2.072
 1561SOL     OW 1294   3.621   1.747   3.016
 1561SOL    HW1 1295   3.682   1.777   2.943
 1561SOL    HW2 1296   3.583   1.658   2.994
 1562SOL     OW 1297   3.114   1.731   2.990
 1562SOL    HW1 1298   3.198   1.736   2.936
 1562SOL    HW2 1299   3.091   1.635   3.008
 1563SOL     OW 1300   1.945   1.258   2.884
 1563SOL    HW1 1301   1.940   1.257   2.984
 1563SOL    HW2 1302   1.862   1.217   2.846
 1564SOL     OW 1303   2.550   1.662   3.578
 1564SOL    HW1 1304   2.494   1.743   3.587
 1564SOL    HW2 1305   2.602   1.666   3.492
 1566SOL     OW 1306   3.250   1.573   2.339
 1566SOL    HW1 1307   3.317   1.585   2.265
 1566SOL    HW2 1308   3.210   1.662   2.362
 1567SOL     OW 1309   1.992   1.794   3.713
 1567SOL    HW1 1310   1.951   1.720   3.766
 1567SOL    HW2 1311   2.056   1.845   3.771
 1568SOL     OW 1312   3.142   0.927   2.534
 1568SOL    HW1 1313   3.202   0.846   2.536
 1568SOL    HW2 1314   3.182   0.996   2.474
 1569SOL     OW 1315   2.692   1.273   3.284
 1569SOL    HW1 1316   2.687   1.306   3.379
 1569SOL    HW2 1317   2.606   1.292   3.238
 1570SOL     OW 1318   2.534   1.616   2.016
 1570SOL    HW1 1319   2.543   1.626   1.917
 1570SOL    HW2 1320   2.494   1.527   2.037
 1571SOL     OW 1321   3.512   1.720   3.256
 1571SOL    HW1 1322   3.565   1.730   3.172
 1571SOL    HW2 1323   3.485   1.810   3.290
 1574SOL     OW 1324   3.056   1.612   1.893
 1574SOL    HW1 1325   3.062   1.519   1.930
 1574SOL    HW2 1326   2.997   1.612   1.813
 1575SOL     OW 1327   2.684   1.002   3.234
 1575SOL    HW1 1328   2.724   1.001   3.142
 1575SOL    HW2 1329   2.694   1.094   3.274
 1576SOL     OW 1330   2.778   0.910   2.153
 1576SOL    HW1 1331   2.841   0.948   2.085
 1576SOL    HW2 1332   2.818   0.827   2.192
 1577SOL     OW 1333   3.366   1.607   1.906
 1577SOL    HW1 1334   3.274   1.644   1.913
 1577SOL    HW2 1335   3.404   1.627   1.816
 1578SOL     OW 1336   2.234   1.288   3.352
 1578SOL    HW1 1337   2.221   1.381   3.318
 1578SOL    HW2 1338   2.150   1.236   3.339
 1580SOL     OW 1339   2.901   1.098   2.558
 1580SOL    HW1 1340   2.831   1.051   2.612
 1580SOL    HW2 1341   2.960   1.030   2.515
 1582SOL     OW 1342   2.452   1.487   2.353
 1582SOL    HW1 1343   2.494   1.429   2.283
 1582SOL    HW2 1344   2.408   1.566   2.309
 1584SOL     OW 1345   2.117   1.348   2.152
 1584SOL    HW1 1346   2.021   1.349   2.125
 1584SOL    HW2 1347   2.129   1.401   2.236
 1590SOL     OW 1348   3.045   1.335   1.981
 1590SOL    HW1 1349   2.946   1.324   1.983
 1590SOL    HW2 1350   3.079   1.350   2.074
 1591SOL     OW 1351   2.475   0.842   3.293
 1591SOL    HW1 1352   2.531   0.923   3.276
 1591SOL    HW2 1353   2.534   0.762   3.296
 1592SOL     OW 1354   3.355   1.767   2.821
 1592SOL    HW1 1355   3.388   1.831   2.752
 1592SOL    HW2 1356   3.421   1.761   2.896
 1595SOL     OW 1357   2.252   1.741   3.422
 1595SOL    HW1 1358   2.161   1.782   3.420
 1595SOL    HW2 1359   2.245   1.647   3.454
 1598SOL     OW 1360   2.456   0.745   2.514
 1598SOL    HW1 1361   2.506   0.830   2.495
 1598SOL    HW2 1362   2.368   0.747   2.466
 1601SOL     OW 1363   2.721   1.374   1.878
 1601SOL    HW1 1364   2.675   1.389   1.966
 1601SOL    HW2 1365   2.765   1.459   1.848
 1602SOL     OW 1366   2.523   1.790   2.815
 1602SOL    HW1 1367   2.477   1.878   2.802
 1602SOL    HW2 1368   2.622   1.802   2.808
 1603SOL     OW 1369   2.721   0.956   2.723
 1603SOL    HW1 1370   2.775   0.887   2.771
 1603SOL    HW2 1371   2.689   1.025   2.789
 1604SOL     OW 1372   2.945   0.984   1.949
 1604SOL    HW1 1373   2.922   1.037   1.867
 1604SOL    HW2 1374   3.026   0.928   1.930
 1605SOL     OW 1375   3.723   1.569   2.713
 1605SOL    HW1 1376   3.652   1.557   2.643
 1605SOL    HW2 1377   3.724   1.490   2.773
 1606SOL     OW 1378   2.083   1.314   3.706
 1606SOL    HW1 1379   2.018   1.241   3.685
 1606SOL    HW2 1380   2.087   1.328   3.804
 1607SOL     OW 1381   1.941   1.240   2.515
 1607SOL    HW1 1382   1.940   1.193   2.603
 1607SOL    HW2 1383   2.023   1.212   2.464
 1608SOL     OW 1384   2.534   1.391   3.486
 1608SOL    HW1 1385   2.456   1.341   3.524
 1608SOL    HW2 1386   2.531   1.486   3.517
 1611SOL     OW 1387   3.567   1.487   2.966
 1611SOL    HW1 1388   3.474   1.462   2.939
 1611SOL    HW2 1389   3.593   1.437   3.048
 1613SOL     OW 1390   2.674   1.586   2.549
 1613SOL    HW1 1391   2.706   1.596   2.455
 1613SOL    HW2 1392   2.595   1.524   2.551
 1616SOL     OW 1393   2.632   1.330   2.163
 1616SOL    HW1 1394   2.586   1.243   2.180
 1616SOL    HW2 1395   2.723   1.327   2.204
 1617SOL     OW 1396   2.480   1.567   3.146
 1617SOL    HW1 1397   2.475   1.649   3.203
 1617SOL    HW2 1398   2.569   1.564   3.101
 1621SOL     OW 1399   1.901   1.077   2.162
 1621SOL    HW1 1400   2.000   1.066   2.153
 1621SOL    HW2 1401   1.861   0.991   2.194
 1622SOL     OW 1402   2.737   1.646   2.199
 1622SOL    HW1 1403   2.660   1.611   2.145
 1622SOL    HW2 1404   2.705   1.717   2.261
 1630SOL     OW 1405   1.889   1.596   3.841
 1630SOL    HW1 1406   1.870   1.500   3.862
 1630SOL    HW2 1407   1.856   1.654   3.916
 1679SOL     OW 1408   2.534   1.616   3.878
 1679SOL    HW1 1409   2.543   1.626   3.779
 1679SOL    HW2 1410   2.494   1.527   3.899
 1701SOL     OW 1411   2.087   2.137   0.996
 1701SOL    HW1 1412   2.122   2.120   1.088
 1701SOL    HW2 1413   1.999   2.092   0.984
 1702SOL     OW 1414   1.881   2.230   0.647
 1702SOL    HW1 1415   1.799   2.273   0.686
 1702SOL    HW2 1416   1.853   2.157   0.584
 1703SOL     OW 1417   2.431   3.137   1.165
 1703SOL    HW1 1418   2.338   3.130   1.128
 1703SOL    HW2 1419   2.442   3.226   1.209
 1705SOL     OW 1420   2.997   2.565   0.717
 1705SOL    HW1 1421   3.054   2.643   0.692
 1705SOL    HW2 1422   2.937   2.591   0.793
 1707SOL     OW 1423   2.630   3.006   1.023
 1707SOL    HW1 1424   2.552   3.023   1.083
 1707SOL    HW2 1425   2.664   3.093   0.987
 1708SOL     OW 1426   2.712   2.660   1.823
 1708SOL    HW1 1427   2.708   2.736   1.888
 1708SOL    HW2 1428   2.734   2.696   1.732
 1709SOL     OW 1429   2.547   2.874   0.665
 1709SOL    HW1 1430   2.616   2.858   0.735
 1709SOL    HW2 1431   2.474   2.931   0.703
 1710SOL     OW 1432   2.548   3.023   1.803
 1710SOL    HW1 1433   2.608   3.102   1.817
 1710SOL    HW2 1434   2.462   3.054   1.762
 1711SOL     OW 1435   2.197   3.297   1.061
 1711SOL    HW1 1436   2.119   3.266   1.008
 1711SOL    HW2 1437   2.255   3.355   1.004
 1713SOL     OW 1438   2.300   2.254   1.499
 1713SOL    HW1 1439   2.382   2.198   1.508
 1713SOL    HW2 1440   2.219   2.196   1.503
 1716SOL     OW 1441   2.989   3.203   1.690
 1716SOL    HW1 1442   3.036   3.203   1.778
 1716SOL    HW2 1443   2.941   3.116   1.679
 1718SOL     OW 1444   2.102   2.953   0.886
 1718SOL    HW1 1445   2.116   2.869   0.938
 1718SOL    HW2 1446   2.047   3.017   0.941
 1719SOL     OW 1447   2.482   3.648   1.439
 1719SOL    HW1 1448   2.390   3.631   1.474
 1719SOL    HW2 1449   2.510   3.740   1.465
 1721SOL     OW 1450   3.456   1.976   1.480
 1721SOL    HW1 1451   3.438   2.043   1.408
 1721SOL    HW2 1452   3.453   2.022   1.569
 1722SOL     OW 1453   1.984   2.505   0.563
 1722SOL    HW1 1454   1.939   2.417   0.580
 1722SOL    HW2 1455   1.983   2.559   0.647
 1727SOL     OW 1456   1.975   2.599   1.597
 1727SOL    HW1 1457   2.063   2.586   1.642
 1727SOL    HW2 1458   1.962   2.696   1.575
 1729SOL     OW 1459   3.155   3.090   1.423
 1729SOL    HW1 1460   3.192   3.017   1.365
 1729SOL    HW2 1461   3.207   3.095   1.508
 1731SOL     OW 1462   2.059   2.838   1.264
 1731SOL    HW1 1463   2.148   2.793   1.250
 1731SOL    HW2 1464   1.986   2.773   1.245
 1733SOL     OW 1465   3.049   3.654   1.616
 1733SOL    HW1 1466   3.073   3.714   1.540
 1733SOL    HW2 1467   3.056   3.559   1.586
 1734SOL     OW 1468   2.179   2.113   1.801
 1734SOL    HW1 1469   2.250   2.184   1.807
 1734SOL    HW2 1470   2.091   2.152   1.829
 1738SOL     OW 1471   3.143   2.207   0.944
 1738SOL    HW1 1472   3.057   2.157   0.931
 1738SOL    HW2 1473   3.205   2.153   1.000
 1740SOL     OW 1474   2.669   2.467   1.465
 1740SOL    HW1 1475   2.622   2.464   1.554
 1740SOL    HW2 1476   2.618   2.412   1.399
 1741SOL     OW 1477   3.256   2.331   1.674
 1741SOL    HW1 1478   3.236   2.374   1.762
 1741SOL    HW2 1479   3.334   2.269   1.683
 1742SOL     OW 1480   2.835   2.752   1.572
 1742SOL    HW1 1481   2.881   2.668   1.543
 1742SOL    HW2 1482   2.779   2.786   1.497
 1743SOL     OW 1483   2.853   2.272   1.242
 1743SOL    HW1 1484   2.776   2.306   1.296
 1743SOL    HW2 1485   2.819   2.221   1.163
 1745SOL     OW 1486   1.938   2.673   0.789
 1745SOL    HW1 1487   2.037   2.661   0.798
 1745SOL    HW2 1488   1.914   2.768   0.810
 1746SOL     OW 1489   1.992   3.683   1.571
 1746SOL    HW1 1490   1.982   3.668   1.670
 1746SOL    HW2 1491   1.906   3.719   1.535
 1748SOL     OW 1492   3.581   2.447   1.831
 1748SOL    HW1 1493   3.555   2.536   1.795
 1748SOL    HW2 1494   3.579   2.379   1.758
 1750SOL     OW 1495   2.412   2.058   0.885
 1750SOL    HW1 1496   2.407   2.053   0.985
 1750SOL    HW2 1497   2.414   2.154   0.856
 1754SOL     OW 1498   3.089   3.412   1.506
 1754SOL    HW1 1499   3.095   3.335   1.570
 1754SOL    HW2 1500   3.037   3.386   1.426
 1757SOL     OW 1501   2.323   3.128   1.727
 1757SOL    HW1 1502   2.273   3.129   1.641
 1757SOL    HW2 1503   2.260   3.110   1.803
 1759SOL     OW 1504   2.064   2.147   1.498
 1759SOL    HW1 1505   1.984   2.207   1.485
 1759SOL    HW2 1506   2.054   2.098   1.584
 1763SOL     OW 1507   2.111   3.647   1.241
 1763SOL    HW1 1508   2.168   3.582   1.291
 1763SOL    HW2 1509   2.095   3.614   1.148
 1765SOL     OW 1510   2.244   2.562   0.480
 1765SOL    HW1 1511   2.289   2.472   0.477
 1765SOL    HW2 1512   2.150   2.551   0.513
 1766SOL     OW 1513   3.409   2.084   1.729
 1766SOL    HW1 1514   3.404   2.121   1.821
 1766SOL    HW2 1515   3.337   2.015   1.717
 1768SOL     OW 1516   2.643   2.126   1.749
 1768SOL    HW1 1517   2.710   2.065   1.792
 1768SOL    HW2 1518   2.570   2.145   1.814
 1769SOL     OW 1519   2.750   3.376   1.195
 1769SOL    HW1 1520   2.727   3.351   1.101
 1769SOL    HW2 1521   2.811   3.307   1.234
 1770SOL     OW 1522   3.213   2.452   1.433
 1770SOL    HW1 1523   3.241   2.409   1.518
 1770SOL    HW2 1524   3.238   2.548   1.434
 1771SOL     OW 1525   2.665   3.264   0.924
 1771SOL    HW1 1526   2.755   3.278   0.882
 1771SOL    HW2 1527   2.594   3.266   0.853
 1772SOL     OW 1528   2.784   2.365   0.899
 1772SOL    HW1 1529   2.759   2.356   0.803
 1772SOL    HW2 1530   2.832   2.283   0.930
 1773SOL     OW 1531   2.401   1.926   0.512
 1773SOL    HW1 1532   2.320   1.927   0.570
 1773SOL    HW2 1533   2.404   2.009   0.457
 1776SOL     OW 1534   2.938   2.545   1.464
 1776SOL    HW1 1535   2.858   2.484   1.467
 1776SOL    HW2 1536   3.019   2.492   1.440
 1778SOL     OW 1537   2.321   3.014   0.741
 1778SOL    HW1 1538   2.250   2.987   0.806
 1778SOL    HW2 1539   2.295   2.986   0.648
 1781SOL     OW 1540   1.940   2.418   1.386
 1781SOL    HW1 1541   2.032   2.417   1.345
 1781SOL    HW2 1542   1.934   2.492   1.453
 1782SOL     OW 1543   2.423   2.084   1.147
 1782SOL    HW1 1544   2.461   2.000   1.184
 1782SOL    HW2 1545   2.335   2.103   1.191
 1783SOL     OW 1546   2.728   2.316   0.642
 1783SOL    HW1 1547   2.696   2.388   0.580
 1783SOL    HW2 1548   2.752   2.235   0.589
 1784SOL     OW 1549   2.879   1.901   0.753
 1784SOL    HW1 1550   2.807   1.906   0.684
 1784SOL    HW2 1551   2.855   1.832   0.822
 1786SOL     OW 1552   3.328   2.452   0.992
 1786SOL    HW1 1553   3.298   2.357   0.999
 1786SOL    HW2 1554   3.401   2.468   1.058
 1792SOL     OW 1555   3.616   3.085   1.588
 1792SOL    HW1 1556   3.707   3.046   1.575
 1792SOL    HW2 1557   3.624   3.181   1.612
 1793SOL     OW 1558   2.926   3.209   1.340
 1793SOL    HW1 1559   2.846   3.186   1.395
 1793SOL    HW2 1560   3.009   3.183   1.389
 1795SOL     OW 1561   2.973   3.057   1.100
 1795SOL    HW1 1562   2.933   3.101   1.181
 1795SOL    HW2 1563   2.932   3.094   1.017
 1797SOL     OW 1564   2.777   1.951   1.402
 1797SOL    HW1 1565   2.802   1.931   1.307
 1797SOL    HW2 1566   2.849   2.007   1.444
 1798SOL     OW 1567   2.842   2.978   1.719
 1798SOL    HW1 1568   2.743   2.984   1.729
 1798SOL    HW2 1569   2.865   2.898   1.663
 1800SOL     OW 1570   2.272   2.675   1.251
 1800SOL    HW1 1571   2.358   2.687   1.301
 1800SOL    HW2 1572   2.230   2.588   1.278
 1801SOL     OW 1573   3.136   2.248   1.262
 1801SOL    HW1 1574   3.157   2.322   1.326
 1801SOL    HW2 1575   3.047   2.265   1.219
 1802SOL     OW 1576   1.926   3.426   1.331
 1802SOL    HW1 1577   1.880   3.508   1.297
 1802SOL    HW2 1578   2.024   3.445   1.340
 1804SOL     OW 1579   2.428   2.399   0.865
 1804SOL    HW1 1580   2.440   2.465   0.791
 1804SOL    HW2 1581   2.474   2.433   0.948
 1806SOL     OW 1582   3.134   3.307   1.142
 1806SOL    HW1 1583   3.181   3.320   1.229
 1806SOL    HW2 1584   3.068   3.233   1.151
 1808SOL     OW 1585   2.216   3.372   1.329
 1808SOL    HW1 1586   2.195   3.328   1.242
 1808SOL    HW2 1587   2.313   3.398   1.332
 1809SOL     OW 1588   2.264   2.613   1.598
 1809SOL    HW1 1589   2.332   2.668   1.551
 1809SOL    HW2 1590   2.304   2.525   1.625
 1810SOL     OW 1591   3.449   2.641   1.670
 1810SOL    HW1 1592   3.357   2.679   1.665
 1810SOL    HW2 1593   3.509   2.688   1.605
 1811SOL     OW 1594   2.875   1.967   1.770
 1811SOL    HW1 1595   2.881   2.052   1.718
 1811SOL    HW2 1596   2.907   1.891   1.713
 1812SOL     OW 1597   2.366   1.912   1.740
 1812SOL    HW1 1598   2.324   1.855   1.670
 1812SOL    HW2 1599   2.300   1.981   1.772
 1813SOL     OW 1600   2.435   2.732   1.029
 1813SOL    HW1 1601   2.479   2.821   1.020
 1813SOL    HW2 1602   2.372   2.732   1.106
 1814SOL     OW 1603   3.222   2.724   1.045
 1814SOL    HW1 1604   3.147   2.724   0.979
 1814SOL    HW2 1605   3.259   2.632   1.054
 1816SOL     OW 1606   2.169   2.075   1.231
 1816SOL    HW1 1607   2.146   2.112   1.321
 1816SOL    HW2 1608   2.139   1.980   1.225
 1817SOL     OW 1609   1.899   3.172   1.282
 1817SOL    HW1 1610   1.952   3.123   1.350
 1817SOL    HW2 1611   1.921   3.270   1.287
 1818SOL     OW 1612   2.594   2.496   1.064
 1818SOL    HW1 1613   2.653   2.470   0.988
 1818SOL    HW2 1614   2.566   2.592   1.053
 1819SOL     OW 1615   3.590   2.797   1.854
 1819SOL    HW1 1616   3.544   2.790   1.765
 1819SOL    HW2 1617   3.528   2.841   1.920
 1820SOL     OW 1618   2.169   1.925   0.618
 1820SOL    HW1 1619   2.158   2.019   0.651
 1820SOL    HW2 1620   2.164   1.862   0.695
 1822SOL     OW 1621   2.885   2.628   0.966
 1822SOL    HW1 1622   2.900   2.649   1.062
 1822SOL    HW2 1623   2.855   2.533   0.957
 1823SOL     OW 1624   2.842   3.435   1.700
 1823SOL    HW1 1625   2.822   3.479   1.612
 1823SOL    HW2 1626   2.881   3.344   1.684
 1825SOL     OW 1627   2.212   2.760   1.804
 1825SOL    HW1 1628   2.288   2.804   1.852
 1825SOL    HW2 1629   2.247   2.713   1.722
 1829SOL     OW 1630   2.181   2.672   0.949
 1829SOL    HW1 1631   2.274   2.708   0.954
 1829SOL    HW2 1632   2.175   2.587   1.001
 1830SOL     OW 1633   2.201   2.371   1.006
 1830SOL    HW1 1634   2.149   2.288   0.989
 1830SOL    HW2 1635   2.278   2.376   0.942
 1831SOL     OW 1636   3.000   2.242   1.678
 1831SOL    HW1 1637   2.955   2.305   1.742
 1831SOL    HW2 1638   3.093   2.273   1.661
 1832SOL     OW 1639   3.022   2.069   1.477
 1832SOL    HW1 1640   3.022   2.133   1.554
 1832SOL    HW2 1641   3.050   2.117   1.394
 1835SOL     OW 1642   2.366   3.430   0.910
 1835SOL    HW1 1643   2.432   3.504   0.919
 1835SOL    HW2 1644   2.410   3.351   0.868
 1836SOL     OW 1645   2.864   2.658   1.238
 1836SOL    HW1 1646   2.905   2.626   1.324
 1836SOL    HW2 1647   2.768   2.631   1.235
 1837SOL     OW 1648   1.902   2.406   1.114
 1837SOL    HW1 1649   1.987   2.373   1.073
 1837SOL    HW2 1650   1.915   2.421   1.212
 1838SOL     OW 1651   2.051   2.382   1.722
 1838SOL    HW1 1652   2.110   2.342   1.652
 1838SOL    HW2 1653   1.993   2.453   1.681
 1839SOL     OW 1654   3.231   2.812   1.660
 1839SOL    HW1 1655   3.270   2.901   1.680
 1839SOL    HW2 1656   3.241   2.792   1.563
 1841SOL     OW 1657   3.519   2.466   1.206
 1841SOL    HW1 1658   3.481   2.397   1.268
 1841SOL    HW2 1659   3.601   2.430   1.162
 1842SOL     OW 1660   2.114   3.426   1.744
 1842SOL    HW1 1661   2.084   3.483   1.820
 1842SOL    HW2 1662   2.107   3.329   1.770
 1843SOL     OW 1663   2.533   2.326   1.269
 1843SOL    HW1 1664   2.499   2.237   1.239
 1843SOL    HW2 1665   2.559   2.380   1.189
 1844SOL     OW 1666   2.792   3.540   1.465
 1844SOL    HW1 1667   2.768   3.522   1.370
 1844SOL    HW2 1668   2.822   3.634   1.475
 1846SOL     OW 1669   2.021   2.999   1.466
 1846SOL    HW1 1670   2.043   2.938   1.542
 1846SOL    HW2 1671   2.031   2.950   1.380
 1847SOL     OW 1672   3.209   2.921   1.234
 1847SOL    HW1 1673   3.233   2.858   1.160
 1847SOL    HW2 1674   3.119   2.961   1.216
 1851SOL     OW 1675   1.945   3.120   1.022
 1851SOL    HW1 1676   1.940   3.119   1.122
 1851SOL    HW2 1677   1.862   3.079   0.984
 1852SOL     OW 1678   2.550   3.524   1.716
 1852SOL    HW1 1679   2.494   3.605   1.725
 1852SOL    HW2 1680   2.602   3.528   1.630
 1856SOL     OW 1681   1.992   3.656   1.851
 1856SOL    HW1 1682   1.951   3.582   1.904
 1856SOL    HW2 1683   2.056   3.707   1.909
 1858SOL     OW 1684   2.692   3.135   1.422
 1858SOL    HW1 1685   2.687   3.168   1.517
 1858SOL    HW2 1686   2.606   3.154   1.376
 1862SOL     OW 1687   2.125   2.188   0.720
 1862SOL    HW1 1688   2.046   2.239   0.686
 1862SOL    HW2 1689   2.116   2.173   0.818
 1864SOL     OW 1690   2.684   2.864   1.372
 1864SOL    HW1 1691   2.724   2.863   1.280
 1864SOL    HW2 1692   2.694   2.956   1.412
 1867SOL     OW 1693   2.234   3.150   1.490
 1867SOL    HW1 1694   2.221   3.243   1.456
 1867SOL    HW2 1695   2.150   3.098   1.477
 1870SOL     OW 1696   2.876   2.098   0.971
 1870SOL    HW1 1697   2.868   2.062   0.878
 1870SOL    HW2 1698   2.874   2.022   1.036
 1872SOL     OW 1699   3.571   2.247   1.381
 1872SOL    HW1 1700   3.644   2.316   1.385
 1872SOL    HW2 1701   3.599   2.172   1.322
 1874SOL     OW 1702   1.967   2.875   1.726
 1874SOL    HW1 1703   1.890   2.842   1.780
 1874SOL    HW2 1704   2.052   2.845   1.768
 1875SOL     OW 1705   2.534   2.065   1.489
 1875SOL    HW1 1706   2.624   2.049   1.449
 1875SOL    HW2 1707   2.542   2.070   1.588
 1877SOL     OW 1708   3.302   2.718   1.398
 1877SOL    HW1 1709   3.245   2.770   1.335
 1877SOL    HW2 1710   3.398   2.730   1.374
 1879SOL     OW 1711   2.475   2.704   1.431
 1879SOL    HW1 1712   2.531   2.785   1.414
 1879SOL    HW2 1713   2.534   2.624   1.434
 1881SOL     OW 1714   2.578   2.427   1.708
 1881SOL    HW1 1715   2.597   2.492   1.782
 1881SOL    HW2 1716   2.638   2.347   1.717
 1882SOL     OW 1717   3.312   3.082   1.633
 1882SOL    HW1 1718   3.303   3.072   1.732
 1882SOL    HW2 1719   3.408   3.075   1.607
 1883SOL     OW 1720   2.252   3.603   1.560
 1883SOL    HW1 1721   2.161   3.644   1.558
 1883SOL    HW2 1722   2.245   3.509   1.592
 1884SOL     OW 1723   3.536   2.745   1.254
 1884SOL    HW1 1724   3.509   2.656   1.217
 1884SOL    HW2 1725   3.537   2.813   1.181
 1886SOL     OW 1726   2.456   2.607   0.652
 1886SOL    HW1 1727   2.506   2.692   0.633
 1886SOL    HW2 1728   2.368   2.609   0.604
 1887SOL     OW 1729   3.639   2.204   1.642
 1887SOL    HW1 1730   3.622   2.235   1.548
 1887SOL    HW2 1731   3.555   2.167   1.680
 1888SOL     OW 1732   3.592   2.796   1.517
 1888SOL    HW1 1733   3.630   2.887   1.532
 1888SOL    HW2 1734   3.584   2.779   1.418
 1891SOL     OW 1735   2.721   2.818   0.861
 1891SOL    HW1 1736   2.775   2.749   0.909
 1891SOL    HW2 1737   2.689   2.887   0.927
 1894SOL     OW 1738   2.083   3.176   1.844
 1894SOL    HW1 1739   2.018   3.103   1.823
 1894SOL    HW2 1740   2.087   3.190   1.942
 1896SOL     OW 1741   2.534   3.253   1.624
 1896SOL    HW1 1742   2.456   3.203   1.662
 1896SOL    HW2 1743   2.531   3.348   1.655
 1897SOL     OW 1744   3.686   2.054   1.227
 1897SOL    HW1 1745   3.682   1.964   1.271
 1897SOL    HW2 1746   3.689   2.043   1.128
 1898SOL     OW 1747   2.290   2.286   0.520
 1898SOL    HW1 1748   2.320   2.214   0.458
 1898SOL    HW2 1749   2.251   2.246   0.603
 1900SOL     OW 1750   2.179   2.409   1.280
 1900SOL    HW1 1751   2.217   2.350   1.352
 1900SOL    HW2 1752   2.219   2.383   1.192
 1902SOL     OW 1753   3.286   2.076   1.112
 1902SOL    HW1 1754   3.338   2.011   1.167
 1902SOL    HW2 1755   3.237   2.139   1.173
 1903SOL     OW 1756   2.863   1.896   1.154
 1903SOL    HW1 1757   2.800   1.824   1.123
 1903SOL    HW2 1758   2.956   1.860   1.154
 1905SOL     OW 1759   2.480   3.429   1.284
 1905SOL    HW1 1760   2.475   3.511   1.341
 1905SOL    HW2 1761   2.569   3.426   1.239
 1907SOL     OW 1762   3.162   2.315   0.691
 1907SOL    HW1 1763   3.103   2.395   0.695
 1907SOL    HW2 1764   3.177   2.280   0.784
 1911SOL     OW 1765   2.092   2.490   1.975
 1911SOL    HW1 1766   1.999   2.488   2.012
 1911SOL    HW2 1767   2.093   2.451   1.883
 1912SOL     OW 1768   2.087   2.137   2.858
 1912SOL    HW1 1769   2.122   2.120   2.950
 1912SOL    HW2 1770   1.999   2.092   2.846
 1913SOL     OW 1771   1.881   2.230   2.509
 1913SOL    HW1 1772   1.799   2.273   2.548
 1913SOL    HW2 1773   1.853   2.157   2.446
 1914SOL     OW 1774   2.431   3.137   3.027
 1914SOL    HW1 1775   2.338   3.130   2.990
 1914SOL    HW2 1776   2.442   3.226   3.071
 1915SOL     OW 1777   3.417   3.373   2.565
 1915SOL    HW1 1778   3.360   3.357   2.646
 1915SOL    HW2 1779   3.358   3.383   2.485
 1916SOL     OW 1780   2.997   2.565   2.579
 1916SOL    HW1 1781   3.054   2.643   2.554
 1916SOL    HW2 1782   2.937   2.591   2.655
 1917SOL     OW 1783   3.617   2.469   2.093
 1917SOL    HW1 1784   3.605   2.456   1.994
 1917SOL    HW2 1785   3.587   2.388   2.142
 1918SOL     OW 1786   2.630   3.006   2.885
 1918SOL    HW1 1787   2.552   3.023   2.945
 1918SOL    HW2 1788   2.664   3.093   2.849
 1919SOL     OW 1789   2.712   2.660   3.685
 1919SOL    HW1 1790   2.708   2.736   3.750
 1919SOL    HW2 1791   2.734   2.696   3.594
 1920SOL     OW 1792   2.547   2.874   2.527
 1920SOL    HW1 1793   2.616   2.858   2.597
 1920SOL    HW2 1794   2.474   2.931   2.565
 1921SOL     OW 1795   2.548   3.023   3.665
 1921SOL    HW1 1796   2.608   3.102   3.679
 1921SOL    HW2 1797   2.462   3.054   3.624
 1922SOL     OW 1798   2.197   3.297   2.923
 1922SOL    HW1 1799   2.119   3.266   2.870
 1922SOL    HW2 1800   2.255   3.355   2.866
 1924SOL     OW 1801   2.300   2.254   3.361
 1924SOL    HW1 1802   2.382   2.198   3.370
 1924SOL    HW2 1803   2.219   2.196   3.365
 1925SOL     OW 1804   3.465   2.309   2.599
 1925SOL    HW1 1805   3.391   2.355   2.549
 1925SOL    HW2 1806   3.516   2.377   2.652
 1926SOL     OW 1807   2.093   3.575   2.345
 1926SOL    HW1 1808   2.127   3.652   2.399
 1926SOL    HW2 1809   2.137   3.575   2.255
 1928SOL     OW 1810   2.092   3.296   2.400
 1928SOL    HW1 1811   2.066   3.392   2.400
 1928SOL    HW2 1812   2.021   3.242   2.445
 1929SOL     OW 1813   2.102   2.953   2.748
 1929SOL    HW1 1814   2.116   2.869   2.800
 1929SOL    HW2 1815   2.047   3.017   2.803
 1931SOL     OW 1816   2.468   2.826   1.985
 1931SOL    HW1 1817   2.475   2.910   1.931
 1931SOL    HW2 1818   2.514   2.839   2.073
 1932SOL     OW 1819   3.456   1.976   3.342
 1932SOL    HW1 1820   3.438   2.043   3.270
 1932SOL    HW2 1821   3.453   2.022   3.431
 1933SOL     OW 1822   1.984   2.505   2.425
 1933SOL    HW1 1823   1.939   2.417   2.442
 1933SOL    HW2 1824   1.983   2.559   2.509
 1935SOL     OW 1825   1.889   3.458   1.979
 1935SOL    HW1 1826   1.870   3.362   2.000
 1935SOL    HW2 1827   1.856   3.516   2.054
 1936SOL     OW 1828   3.551   2.784   2.474
 1936SOL    HW1 1829   3.646   2.755   2.482
 1936SOL    HW2 1830   3.543   2.849   2.399
 1937SOL     OW 1831   3.503   2.970   2.294
 1937SOL    HW1 1832   3.589   2.972   2.242
 1937SOL    HW2 1833   3.517   3.017   2.382
 1938SOL     OW 1834   1.975   2.599   3.459
 1938SOL    HW1 1835   2.063   2.586   3.504
 1938SOL    HW2 1836   1.962   2.696   3.437
 1939SOL     OW 1837   2.475   3.227   2.588
 1939SOL    HW1 1838   2.426   3.140   2.597
 1939SOL    HW2 1839   2.452   3.270   2.501
 1940SOL     OW 1840   3.155   3.090   3.285
 1940SOL    HW1 1841   3.192   3.017   3.227
 1940SOL    HW2 1842   3.207   3.095   3.370
 1941SOL     OW 1843   2.671   1.866   2.364
 1941SOL    HW1 1844   2.711   1.957   2.355
 1941SOL    HW2 1845   2.571   1.874   2.370
 1942SOL     OW 1846   2.059   2.838   3.126
 1942SOL    HW1 1847   2.148   2.793   3.112
 1942SOL    HW2 1848   1.986   2.773   3.107
 1943SOL     OW 1849   3.387   2.861   2.052
 1943SOL    HW1 1850   3.324   2.785   2.065
 1943SOL    HW2 1851   3.435   2.879   2.138
 1945SOL     OW 1852   2.179   2.113   3.663
 1945SOL    HW1 1853   2.250   2.184   3.669
 1945SOL    HW2 1854   2.091   2.152   3.691
 1946SOL     OW 1855   3.328   3.279   2.815
 1946SOL    HW1 1856   3.269   3.285   2.895
 1946SOL    HW2 1857   3.313   3.191   2.769
 1948SOL     OW 1858   2.460   2.591   2.132
 1948SOL    HW1 1859   2.484   2.660   2.064
 1948SOL    HW2 1860   2.382   2.624   2.186
 1949SOL     OW 1861   3.143   2.207   2.806
 1949SOL    HW1 1862   3.057   2.157   2.793
 1949SOL    HW2 1863   3.205   2.153   2.862
 1950SOL     OW 1864   3.438   3.524   2.169
 1950SOL    HW1 1865   3.527   3.570   2.172
 1950SOL    HW2 1866   3.417   3.500   2.074
 1951SOL     OW 1867   2.669   2.467   3.327
 1951SOL    HW1 1868   2.622   2.464   3.416
 1951SOL    HW2 1869   2.618   2.412   3.261
 1952SOL     OW 1870   3.256   2.331   3.536
 1952SOL    HW1 1871   3.236   2.374   3.624
 1952SOL    HW2 1872   3.334   2.269   3.545
 1953SOL     OW 1873   2.835   2.752   3.434
 1953SOL    HW1 1874   2.881   2.668   3.405
 1953SOL    HW2 1875   2.779   2.786   3.359
 1954SOL     OW 1876   2.853   2.272   3.104
 1954SOL    HW1 1877   2.776   2.306   3.158
 1954SOL    HW2 1878   2.819   2.221   3.025
 1955SOL     OW 1879   2.903   2.563   2.291
 1955SOL    HW1 1880   2.929   2.559   2.387
 1955SOL    HW2 1881   2.818   2.512   2.277
 1956SOL     OW 1882   1.938   2.673   2.651
 1956SOL    HW1 1883   2.037   2.661   2.660
 1956SOL    HW2 1884   1.914   2.768   2.672
 1958SOL     OW 1885   2.727   2.210   2.057
 1958SOL    HW1 1886   2.786   2.273   2.008
 1958SOL    HW2 1887   2.746   2.116   2.028
 1960SOL     OW 1888   3.224   3.006   2.407
 1960SOL    HW1 1889   3.307   2.977   2.359
 1960SOL    HW2 1890   3.175   3.073   2.351
 1961SOL     OW 1891   2.412   2.058   2.747
 1961SOL    HW1 1892   2.407   2.053   2.847
 1961SOL    HW2 1893   2.414   2.154   2.718
 1962SOL     OW 1894   2.870   3.318   2.339
 1962SOL    HW1 1895   2.824   3.390   2.287
 1962SOL    HW2 1896   2.866   3.338   2.437
 1963SOL     OW 1897   2.213   3.663   2.715
 1963SOL    HW1 1898   2.263   3.577   2.721
 1963SOL    HW2 1899   2.278   3.740   2.712
 1964SOL     OW 1900   3.657   2.928   2.735
 1964SOL    HW1 1901   3.595   2.913   2.659
 1964SOL    HW2 1902   3.605   2.939   2.820
 1966SOL     OW 1903   2.183   2.805   2.104
 1966SOL    HW1 1904   2.265   2.844   2.062
 1966SOL    HW2 1905   2.156   2.723   2.055
 1967SOL     OW 1906   3.320   2.597   2.590
 1967SOL    HW1 1907   3.315   2.532   2.665
 1967SOL    HW2 1908   3.400   2.656   2.603
 1968SOL     OW 1909   2.323   3.128   3.589
 1968SOL    HW1 1910   2.273   3.129   3.503
 1968SOL    HW2 1911   2.260   3.110   3.665
 1969SOL     OW 1912   2.973   3.638   2.099
 1969SOL    HW1 1913   2.913   3.576   2.149
 1969SOL    HW2 1914   3.004   3.594   2.014
 1970SOL     OW 1915   2.064   2.147   3.360
 1970SOL    HW1 1916   1.984   2.207   3.347
 1970SOL    HW2 1917   2.054   2.098   3.446
 1971SOL     OW 1918   3.494   3.239   1.943
 1971SOL    HW1 1919   3.462   3.333   1.933
 1971SOL    HW2 1920   3.418   3.176   1.931
 1972SOL     OW 1921   2.326   3.605   2.185
 1972SOL    HW1 1922   2.359   3.644   2.271
 1972SOL    HW2 1923   2.402   3.598   2.120
 1973SOL     OW 1924   3.262   1.969   2.288
 1973SOL    HW1 1925   3.238   1.932   2.198
 1973SOL    HW2 1926   3.361   1.985   2.292
 1974SOL     OW 1927   2.111   3.647   3.103
 1974SOL    HW1 1928   2.168   3.582   3.153
 1974SOL    HW2 1929   2.095   3.614   3.010
 1975SOL     OW 1930   2.802   3.560   2.766
 1975SOL    HW1 1931   2.882   3.503   2.787
 1975SOL    HW2 1932   2.753   3.520   2.689
 1976SOL     OW 1933   2.244   2.562   2.342
 1976SOL    HW1 1934   2.289   2.472   2.339
 1976SOL    HW2 1935   2.150   2.551   2.375
 1978SOL     OW 1936   2.476   1.984   1.979
 1978SOL    HW1 1937   2.574   1.962   1.986
 1978SOL    HW2 1938   2.445   1.967   1.886
 1979SOL     OW 1939   2.643   2.126   3.611
 1979SOL    HW1 1940   2.710   2.065   3.654
 1979SOL    HW2 1941   2.570   2.145   3.676
 1980SOL     OW 1942   2.750   3.376   3.057
 1980SOL    HW1 1943   2.727   3.351   2.963
 1980SOL    HW2 1944   2.811   3.307   3.096
 1981SOL     OW 1945   3.213   2.452   3.295
 1981SOL    HW1 1946   3.241   2.409   3.380
 1981SOL    HW2 1947   3.238   2.548   3.296
 1982SOL     OW 1948   2.665   3.264   2.786
 1982SOL    HW1 1949   2.755   3.278   2.744
 1982SOL    HW2 1950   2.594   3.266   2.715
 1983SOL     OW 1951   2.784   2.365   2.761
 1983SOL    HW1 1952   2.759   2.356   2.665
 1983SOL    HW2 1953   2.832   2.283   2.792
 1984SOL     OW 1954   3.296   3.050   1.903
 1984SOL    HW1 1955   3.328   2.974   1.960
 1984SOL    HW2 1956   3.204   3.077   1.933
 1985SOL     OW 1957   2.797   2.098   2.342
 1985SOL    HW1 1958   2.749   2.139   2.264
 1985SOL    HW2 1959   2.896   2.096   2.323
 1986SOL     OW 1960   2.938   2.545   3.326
 1986SOL    HW1 1961   2.858   2.484   3.329
 1986SOL    HW2 1962   3.019   2.492   3.302
 1987SOL     OW 1963   3.089   3.432   2.655
 1987SOL    HW1 1964   3.110   3.506   2.590
 1987SOL    HW2 1965   3.157   3.432   2.728
 1988SOL     OW 1966   2.321   3.014   2.603
 1988SOL    HW1 1967   2.250   2.987   2.668
 1988SOL    HW2 1968   2.295   2.986   2.510
 1989SOL     OW 1969   3.133   3.659   2.453
 1989SOL    HW1 1970   3.177   3.723   2.389
 1989SOL    HW2 1971   3.083   3.711   2.523
 1990SOL     OW 1972   2.894   2.411   1.878
 1990SOL    HW1 1973   2.853   2.493   1.839
 1990SOL    HW2 1974   2.958   2.437   1.951
 1991SOL     OW 1975   1.940   2.418   3.248
 1991SOL    HW1 1976   2.032   2.417   3.207
 1991SOL    HW2 1977   1.934   2.492   3.315
 1992SOL     OW 1978   2.423   2.084   3.009
 1992SOL    HW1 1979   2.461   2.000   3.046
 1992SOL    HW2 1980   2.335   2.103   3.053
 1993SOL     OW 1981   2.728   2.316   2.504
 1993SOL    HW1 1982   2.696   2.388   2.442
 1993SOL    HW2 1983   2.752   2.235   2.451
 1994SOL     OW 1984   2.879   1.901   2.615
 1994SOL    HW1 1985   2.807   1.906   2.546
 1994SOL    HW2 1986   2.855   1.832   2.684
 1995SOL     OW 1987   3.291   3.035   2.729
 1995SOL    HW1 1988   3.236   2.951   2.722
 1995SOL    HW2 1989   3.317   3.064   2.637
 1996SOL     OW 1990   3.328   2.452   2.854
 1996SOL    HW1 1991   3.298   2.357   2.861
 1996SOL    HW2 1992   3.401   2.468   2.920
 1997SOL     OW 1993   3.719   2.695   2.239
 1997SOL    HW1 1994   3.761   2.631   2.303
 1997SOL    HW2 1995   3.681   2.644   2.161
 1998SOL     OW 1996   2.350   3.247   2.036
 1998SOL    HW1 1997   2.263   3.232   2.083
 1998SOL    HW2 1998   2.333   3.273   1.941
 1999SOL     OW 1999   3.526   3.142   2.519
 1999SOL    HW1 2000   3.625   3.150   2.533
 1999SOL    HW2 2001   3.481   3.226   2.550
 2000SOL     OW 2002   3.252   2.437   1.940
 2000SOL    HW1 2003   3.198   2.416   2.021
 2000SOL    HW2 2004   3.343   2.396   1.949
 2002SOL     OW 2005   2.926   3.209   3.202
 2002SOL    HW1 2006   2.846   3.186   3.257
 2002SOL    HW2 2007   3.009   3.183   3.251
 2004SOL     OW 2008   2.973   3.057   2.962
 2004SOL    HW1 2009   2.933   3.101   3.043
 2004SOL    HW2 2010   2.932   3.094   2.879
 2005SOL     OW 2011   3.500   2.961   2.941
 2005SOL    HW1 2012   3.505   3.042   3.000
 2005SOL    HW2 2013   3.414   2.963   2.890
 2006SOL     OW 2014   2.777   1.951   3.264
 2006SOL    HW1 2015   2.802   1.931   3.169
 2006SOL    HW2 2016   2.849   2.007   3.306
 2007SOL     OW 2017   2.842   2.978   3.581
 2007SOL    HW1 2018   2.743   2.984   3.591
 2007SOL    HW2 2019   2.865   2.898   3.525
 2008SOL     OW 2020   2.567   2.912   2.230
 2008SOL    HW1 2021   2.553   2.919   2.329
 2008SOL    HW2 2022   2.651   2.861   2.212
 2009SOL     OW 2023   2.272   2.675   3.113
 2009SOL    HW1 2024   2.358   2.687   3.163
 2009SOL    HW2 2025   2.230   2.588   3.140
 2010SOL     OW 2026   3.136   2.248   3.124
 2010SOL    HW1 2027   3.157   2.322   3.188
 2010SOL    HW2 2028   3.047   2.265   3.081
 2011SOL     OW 2029   1.926   3.426   3.193
 2011SOL    HW1 2030   1.880   3.508   3.159
 2011SOL    HW2 2031   2.024   3.445   3.202
 2012SOL     OW 2032   2.229   2.962   2.363
 2012SOL    HW1 2033   2.222   3.045   2.307
 2012SOL    HW2 2034   2.233   2.882   2.303
 2013SOL     OW 2035   2.428   2.399   2.727
 2013SOL    HW1 2036   2.440   2.465   2.653
 2013SOL    HW2 2037   2.474   2.433   2.810
 2014SOL     OW 2038   3.114   3.210   2.250
 2014SOL    HW1 2039   3.164   3.287   2.290
 2014SOL    HW2 2040   3.019   3.212   2.282
 2015SOL     OW 2041   3.134   3.307   3.004
 2015SOL    HW1 2042   3.181   3.320   3.091
 2015SOL    HW2 2043   3.068   3.233   3.013
 2016SOL     OW 2044   3.444   2.501   2.334
 2016SOL    HW1 2045   3.413   2.562   2.407
 2016SOL    HW2 2046   3.494   2.553   2.265
 2017SOL     OW 2047   2.216   3.372   3.191
 2017SOL    HW1 2048   2.195   3.328   3.104
 2017SOL    HW2 2049   2.313   3.398   3.194
 2018SOL     OW 2050   2.264   2.613   3.460
 2018SOL    HW1 2051   2.332   2.668   3.413
 2018SOL    HW2 2052   2.304   2.525   3.487
 2020SOL     OW 2053   2.875   1.967   3.632
 2020SOL    HW1 2054   2.881   2.052   3.580
 2020SOL    HW2 2055   2.907   1.891   3.575
 2021SOL     OW 2056   2.366   1.912   3.602
 2021SOL    HW1 2057   2.324   1.855   3.532
 2021SOL    HW2 2058   2.300   1.981   3.634
 2022SOL     OW 2059   2.435   2.732   2.891
 2022SOL    HW1 2060   2.479   2.821   2.882
 2022SOL    HW2 2061   2.372   2.732   2.968
 2023SOL     OW 2062   3.222   2.724   2.907
 2023SOL    HW1 2063   3.147   2.724   2.841
 2023SOL    HW2 2064   3.259   2.632   2.916
 2024SOL     OW 2065   3.071   2.387   2.137
 2024SOL    HW1 2066   3.084   2.303   2.191
 2024SOL    HW2 2067   3.042   2.461   2.197
 2025SOL     OW 2068   2.169   2.075   3.093
 2025SOL    HW1 2069   2.146   2.112   3.183
 2025SOL    HW2 2070   2.139   1.980   3.087
 2026SOL     OW 2071   1.899   3.172   3.144
 2026SOL    HW1 2072   1.952   3.123   3.212
 2026SOL    HW2 2073   1.921   3.270   3.149
 2027SOL     OW 2074   2.594   2.496   2.926
 2027SOL    HW1 2075   2.653   2.470   2.850
 2027SOL    HW2 2076   2.566   2.592   2.915
 2029SOL     OW 2077   2.169   1.925   2.480
 2029SOL    HW1 2078   2.158   2.019   2.513
 2029SOL    HW2 2079   2.164   1.862   2.557
 2030SOL     OW 2080   3.484   2.229   2.236
 2030SOL    HW1 2081   3.486   2.153   2.300
 2030SOL    HW2 2082   3.436   2.306   2.276
 2031SOL     OW 2083   2.885   2.628   2.828
 2031SOL    HW1 2084   2.900   2.649   2.924
 2031SOL    HW2 2085   2.855   2.533   2.819
 2034SOL     OW 2086   2.212   2.760   3.666
 2034SOL    HW1 2087   2.288   2.804   3.714
 2034SOL    HW2 2088   2.247   2.713   3.584
 2035SOL     OW 2089   3.402   2.136   1.987
 2035SOL    HW1 2090   3.341   2.061   2.010
 2035SOL    HW2 2091   3.424   2.188   2.070
 2036SOL     OW 2092   3.165   2.700   1.904
 2036SOL    HW1 2093   3.199   2.607   1.919
 2036SOL    HW2 2094   3.183   2.727   1.809
 2037SOL     OW 2095   2.930   3.195   2.711
 2037SOL    HW1 2096   2.937   3.111   2.656
 2037SOL    HW2 2097   2.992   3.264   2.675
 2038SOL     OW 2098   2.181   2.672   2.811
 2038SOL    HW1 2099   2.274   2.708   2.816
 2038SOL    HW2 2100   2.175   2.587   2.863
 2039SOL     OW 2101   2.201   2.371   2.868
 2039SOL    HW1 2102   2.149   2.288   2.851
 2039SOL    HW2 2103   2.278   2.376   2.804
 2040SOL     OW 2104   3.000   2.242   3.540
 2040SOL    HW1 2105   2.955   2.305   3.604
 2040SOL    HW2 2106   3.093   2.273   3.523
 2041SOL     OW 2107   3.022   2.069   3.339
 2041SOL    HW1 2108   3.022   2.133   3.416
 2041SOL    HW2 2109   3.050   2.117   3.256
 2042SOL     OW 2110   1.870   3.188   2.062
 2042SOL    HW1 2111   1.777   3.209   2.031
 2042SOL    HW2 2112   1.880   3.089   2.075
 2043SOL     OW 2113   1.950   3.663   2.789
 2043SOL    HW1 2114   1.908   3.577   2.762
 2043SOL    HW2 2115   2.044   3.666   2.755
 2044SOL     OW 2116   2.366   3.430   2.772
 2044SOL    HW1 2117   2.432   3.504   2.781
 2044SOL    HW2 2118   2.410   3.351   2.730
 2045SOL     OW 2119   2.864   2.658   3.100
 2045SOL    HW1 2120   2.905   2.626   3.186
 2045SOL    HW2 2121   2.768   2.631   3.097
 2046SOL     OW 2122   1.902   2.406   2.976
 2046SOL    HW1 2123   1.987   2.373   2.935
 2046SOL    HW2 2124   1.915   2.421   3.074
 2047SOL     OW 2125   2.051   2.382   3.584
 2047SOL    HW1 2126   2.110   2.342   3.514
 2047SOL    HW2 2127   1.993   2.453   3.543
 2048SOL     OW 2128   3.231   2.812   3.522
 2048SOL    HW1 2129   3.270   2.901   3.542
 2048SOL    HW2 2130   3.241   2.792   3.425
 2049SOL     OW 2131   2.677   2.434   2.187
 2049SOL    HW1 2132   2.684   2.345   2.141
 2049SOL    HW2 2133   2.583   2.468   2.179
 2050SOL     OW 2134   3.519   2.466   3.068
 2050SOL    HW1 2135   3.481   2.397   3.130
 2050SOL    HW2 2136   3.601   2.430   3.024
 2052SOL     OW 2137   2.533   2.326   3.131
 2052SOL    HW1 2138   2.499   2.237   3.101
 2052SOL    HW2 2139   2.559   2.380   3.051
 2054SOL     OW 2140   2.335   2.362   2.053
 2054SOL    HW1 2141   2.396   2.442   2.057
 2054SOL    HW2 2142   2.240   2.393   2.060
 2055SOL     OW 2143   2.021   2.999   3.328
 2055SOL    HW1 2144   2.043   2.938   3.404
 2055SOL    HW2 2145   2.031   2.950   3.242
 2056SOL     OW 2146   3.209   2.921   3.096
 2056SOL    HW1 2147   3.233   2.858   3.022
 2056SOL    HW2 2148   3.119   2.961   3.078
 2057SOL     OW 2149   3.164   2.717   2.171
 2057SOL    HW1 2150   3.078   2.686   2.213
 2057SOL    HW2 2151   3.160   2.703   2.072
 2060SOL     OW 2152   1.945   3.120   2.884
 2060SOL    HW1 2153   1.940   3.119   2.984
 2060SOL    HW2 2154   1.862   3.079   2.846
 2062SOL     OW 2155   3.588   1.997   2.385
 2062SOL    HW1 2156   3.661   1.980   2.318
 2062SOL    HW2 2157   3.557   1.910   2.423
 2063SOL     OW 2158   3.250   3.435   2.339
 2063SOL    HW1 2159   3.317   3.447   2.265
 2063SOL    HW2 2160   3.210   3.524   2.362
 2065SOL     OW 2161   3.142   2.789   2.534
 2065SOL    HW1 2162   3.202   2.708   2.536
 2065SOL    HW2 2163   3.182   2.858   2.474
 2066SOL     OW 2164   2.692   3.135   3.284
 2066SOL    HW1 2165   2.687   3.168   3.379
 2066SOL    HW2 2166   2.606   3.154   3.238
 2067SOL     OW 2167   2.534   3.478   2.016
 2067SOL    HW1 2168   2.543   3.488   1.917
 2067SOL    HW2 2169   2.494   3.389   2.037
 2069SOL     OW 2170   3.703   2.037   2.825
 2069SOL    HW1 2171   3.742   1.952   2.789
 2069SOL    HW2 2172   3.605   2.039   2.806
 2070SOL     OW 2173   2.125   2.188   2.582
 2070SOL    HW1 2174   2.046   2.239   2.548
 2070SOL    HW2 2175   2.116   2.173   2.680
 2071SOL     OW 2176   3.056   3.474   1.893
 2071SOL    HW1 2177   3.062   3.381   1.930
 2071SOL    HW2 2178   2.997   3.474   1.813
 2072SOL     OW 2179   2.684   2.864   3.234
 2072SOL    HW1 2180   2.724   2.863   3.142
 2072SOL    HW2 2181   2.694   2.956   3.274
 2073SOL     OW 2182   2.778   2.772   2.153
 2073SOL    HW1 2183   2.841   2.810   2.085
 2073SOL    HW2 2184   2.818   2.689   2.192
 2074SOL     OW 2185   3.366   3.469   1.906
 2074SOL    HW1 2186   3.274   3.506   1.913
 2074SOL    HW2 2187   3.404   3.489   1.816
 2075SOL     OW 2188   2.234   3.150   3.352
 2075SOL    HW1 2189   2.221   3.243   3.318
 2075SOL    HW2 2190   2.150   3.098   3.339
 2077SOL     OW 2191   2.901   2.960   2.558
 2077SOL    HW1 2192   2.831   2.913   2.612
 2077SOL    HW2 2193   2.960   2.892   2.515
 2078SOL     OW 2194   2.876   2.098   2.833
 2078SOL    HW1 2195   2.868   2.062   2.740
 2078SOL    HW2 2196   2.874   2.022   2.898
 2079SOL     OW 2197   2.452   3.349   2.353
 2079SOL    HW1 2198   2.494   3.291   2.283
 2079SOL    HW2 2199   2.408   3.428   2.309
 2080SOL     OW 2200   3.571   2.247   3.243
 2080SOL    HW1 2201   3.644   2.316   3.247
 2080SOL    HW2 2202   3.599   2.172   3.184
 2081SOL     OW 2203   2.117   3.210   2.152
 2081SOL    HW1 2204   2.021   3.211   2.125
 2081SOL    HW2 2205   2.129   3.263   2.236
 2082SOL     OW 2206   1.967   2.875   3.588
 2082SOL    HW1 2207   1.890   2.842   3.642
 2082SOL    HW2 2208   2.052   2.845   3.630
 2083SOL     OW 2209   2.534   2.065   3.351
 2083SOL    HW1 2210   2.624   2.049   3.311
 2083SOL    HW2 2211   2.542   2.070   3.450
 2084SOL     OW 2212   1.937   2.207   1.895
 2084SOL    HW1 2213   1.845   2.179   1.866
 2084SOL    HW2 2214   1.968   2.284   1.839
 2085SOL     OW 2215   3.302   2.718   3.260
 2085SOL    HW1 2216   3.245   2.770   3.197
 2085SOL    HW2 2217   3.398   2.730   3.236
 2086SOL     OW 2218   1.934   2.028   2.180
 2086SOL    HW1 2219   1.917   2.111   2.126
 2086SOL    HW2 2220   2.024   1.991   2.158
 2087SOL     OW 2221   3.045   3.197   1.981
 2087SOL    HW1 2222   2.946   3.186   1.983
 2087SOL    HW2 2223   3.079   3.212   2.074
 2088SOL     OW 2224   2.475   2.704   3.293
 2088SOL    HW1 2225   2.531   2.785   3.276
 2088SOL    HW2 2226   2.534   2.624   3.296
 2090SOL     OW 2227   2.578   2.427   3.570
 2090SOL    HW1 2228   2.597   2.492   3.644
 2090SOL    HW2 2229   2.638   2.347   3.579
 2093SOL     OW 2230   3.536   2.745   3.116
 2093SOL    HW1 2231   3.509   2.656   3.079
 2093SOL    HW2 2232   3.537   2.813   3.043
 2094SOL     OW 2233   3.087   2.187   2.311
 2094SOL    HW1 2234   3.152   2.113   2.300
 2094SOL    HW2 2235   3.107   2.237   2.395
 2095SOL     OW 2236   2.456   2.607   2.514
 2095SOL    HW1 2237   2.506   2.692   2.495
 2095SOL    HW2 2238   2.368   2.609   2.466
 2098SOL     OW 2239   2.721   3.236   1.878
 2098SOL    HW1 2240   2.675   3.251   1.966
 2098SOL    HW2 2241   2.765   3.321   1.848
 2099SOL     OW 2242   2.523   3.652   2.815
 2099SOL    HW1 2243   2.477   3.740   2.802
 2099SOL    HW2 2244   2.622   3.664   2.808
 2100SOL     OW 2245   2.721   2.818   2.723
 2100SOL    HW1 2246   2.775   2.749   2.771
 2100SOL    HW2 2247   2.689   2.887   2.789
 2101SOL     OW 2248   2.945   2.846   1.949
 2101SOL    HW1 2249   2.922   2.899   1.867
 2101SOL    HW2 2250   3.026   2.790   1.930
 2103SOL     OW 2251   2.083   3.176   3.706
 2103SOL    HW1 2252   2.018   3.103   3.685
 2103SOL    HW2 2253   2.087   3.190   3.804
 2104SOL     OW 2254   1.941   3.102   2.515
 2104SOL    HW1 2255   1.940   3.055   2.603
 2104SOL    HW2 2256   2.023   3.074   2.464
 2105SOL     OW 2257   2.534   3.253   3.486
 2105SOL    HW1 2258   2.456   3.203   3.524
 2105SOL    HW2 2259   2.531   3.348   3.517
 2106SOL     OW 2260   3.686   2.054   3.089
 2106SOL    HW1 2261   3.682   1.964   3.133
 2106SOL    HW2 2262   3.689   2.043   2.990
 2108SOL     OW 2263   2.179   2.409   3.142
 2108SOL    HW1 2264   2.217   2.350   3.214
 2108SOL    HW2 2265   2.219   2.383   3.054
 2109SOL     OW 2266   2.674   3.448   2.549
 2109SOL    HW1 2267   2.706   3.458   2.455
 2109SOL    HW2 2268   2.595   3.386   2.551
 2110SOL     OW 2269   3.286   2.076   2.974
 2110SOL    HW1 2270   3.338   2.011   3.029
 2110SOL    HW2 2271   3.237   2.139   3.035
 2111SOL     OW 2272   2.863   1.896   3.016
 2111SOL    HW1 2273   2.800   1.824   2.985
 2111SOL    HW2 2274   2.956   1.860   3.016
 2112SOL     OW 2275   2.632   3.192   2.163
 2112SOL    HW1 2276   2.586   3.105   2.180
 2112SOL    HW2 2277   2.723   3.189   2.204
 2113SOL     OW 2278   2.480   3.429   3.146
 2113SOL    HW1 2279   2.475   3.511   3.203
 2113SOL    HW2 2280   2.569   3.426   3.101
 2114SOL     OW 2281   3.214   1.914   2.030
 2114SOL    HW1 2282   3.249   1.873   1.946
 2114SOL    HW2 2283   3.124   1.876   2.050
 2115SOL     OW 2284   3.162   2.315   2.553
 2115SOL    HW1 2285   3.103   2.395   2.557
 2115SOL    HW2 2286   3.177   2.280   2.646
 2116SOL     OW 2287   3.455   2.083   2.744
 2116SOL    HW1 2288   3.371   2.082   2.798
 2116SOL    HW2 2289   3.457   2.166   2.688
 2117SOL     OW 2290   1.901   2.939   2.162
 2117SOL    HW1 2291   2.000   2.928   2.153
 2117SOL    HW2 2292   1.861   2.853   2.194
 2118SOL     OW 2293   2.737   3.508   2.199
 2118SOL    HW1 2294   2.660   3.473   2.145
 2118SOL    HW2 2295   2.705   3.579   2.261
 2119SOL     OW 2296   2.092   2.490   3.837
 2119SOL    HW1 2297   1.999   2.488   3.874
 2119SOL    HW2 2298   2.093   2.451   3.745
 2123SOL     OW 2299   2.468   2.826   3.847
 2123SOL    HW1 2300   2.475   2.910   3.793
 2123SOL    HW2 2301   2.514   2.839   3.935
 2137SOL     OW 2302   2.727   2.210   3.919
 2137SOL    HW1 2303   2.786   2.273   3.870
 2137SOL    HW2 2304   2.746   2.116   3.890
 2147SOL     OW 2305   2.476   1.984   3.841
 2147SOL    HW1 2306   2.574   1.962   3.848
 2147SOL    HW2 2307   2.445   1.967   3.748
 2150SOL     OW 2308   2.159   1.897   3.895
 2150SOL    HW1 2309   2.208   1.981   3.874
 2150SOL    HW2 2310   2.221   1.832   3.940
 2154SOL     OW 2311   2.894   2.411   3.740
 2154SOL    HW1 2312   2.853   2.493   3.701
 2154SOL    HW2 2313   2.958   2.437   3.813
 2171SOL     OW 2314   2.335   2.362   3.915
 2171SOL    HW1 2315   2.396   2.442   3.919
 2171SOL    HW2 2316   2.240   2.393   3.922
 2182SOL     OW 2317   1.937   2.207   3.757
 2182SOL    HW1 2318   1.845   2.179   3.728
 2182SOL    HW2 2319   1.968   2.284   3.701
 2236SOL     OW 2320   2.875   3.829   1.770
 2236SOL    HW1 2321   2.881   3.914   1.718
 2236SOL    HW2 2322   2.907   3.753   1.713
 2237SOL     OW 2323   2.366   3.774   1.740
 2237SOL    HW1 2324   2.324   3.717   1.670
 2237SOL    HW2 2325   2.300   3.843   1.772
 2283SOL     OW 2326   2.671   3.728   2.364
 2283SOL    HW1 2327   2.711   3.819   2.355
 2283SOL    HW2 2328   2.571   3.736   2.370
 2292SOL     OW 2329   2.412   3.920   2.747
 2292SOL    HW1 2330   2.407   3.915   2.847
 2292SOL    HW2 2331   2.414   4.016   2.718
 2297SOL     OW 2332   2.476   3.846   1.979
 2297SOL    HW1 2333   2.574   3.824   1.986
 2297SOL    HW2 2334   2.445   3.829   1.886
 2301SOL     OW 2335   2.401   3.788   2.374
 2301SOL    HW1 2336   2.320   3.789   2.432
 2301SOL    HW2 2337   2.404   3.871   2.319
 2302SOL     OW 2338   2.159   3.759   2.033
 2302SOL    HW1 2339   2.208   3.843   2.012
 2302SOL    HW2 2340   2.221   3.694   2.078
 2309SOL     OW 2341   2.879   3.763   2.615
 2309SOL    HW1 2342   2.807   3.768   2.546
 2309SOL    HW2 2343   2.855   3.694   2.684
 2311SOL     OW 2344   2.389   3.980   2.190
 2311SOL    HW1 2345   2.416   3.921   2.115
 2311SOL    HW2 2346   2.389   4.075   2.159
 2321SOL     OW 2347   2.169   3.787   2.480
 2321SOL    HW1 2348   2.158   3.881   2.513
 2321SOL    HW2 2349   2.164   3.724   2.557
 2342SOL     OW 2350   1.934   3.890   2.180
 2342SOL    HW1 2351   1.917   3.973   2.126
 2342SOL    HW2 2352   2.024   3.853   2.158
 2447SOL     OW 2353   3.854   1.794   1.851
 2447SOL    HW1 2354   3.813   1.720   1.904
 2447SOL    HW2 2355   3.918   1.845   1.909
 2475SOL     OW 2356   3.751   1.596   1.979
 2475SOL    HW1 2357   3.732   1.500   2.000
 2475SOL    HW2 2358   3.718   1.654   2.054
 2515SOL     OW 2359   3.732   1.326   2.062
 2515SOL    HW1 2360   3.639   1.347   2.031
 2515SOL    HW2 2361   3.742   1.227   2.075
 2516SOL     OW 2362   3.812   1.801   2.789
 2516SOL    HW1 2363   3.770   1.715   2.762
 2516SOL    HW2 2364   3.906   1.804   2.755
 2587SOL     OW 2365   3.837   2.599   1.597
 2587SOL    HW1 2366   3.925   2.586   1.642
 2587SOL    HW2 2367   3.824   2.696   1.575
 2630SOL     OW 2368   3.913   2.382   1.722
 2630SOL    HW1 2369   3.972   2.342   1.652
 2630SOL    HW2 2370   3.855   2.453   1.681
 2654SOL     OW 2371   3.954   2.490   1.975
 2654SOL    HW1 2372   3.861   2.488   2.012
 2654SOL    HW2 2373   3.955   2.451   1.883
 2656SOL     OW 2374   3.743   2.230   2.509
 2656SOL    HW1 2375   3.661   2.273   2.548
 2656SOL    HW2 2376   3.715   2.157   2.446
 2664SOL     OW 2377   3.846   2.505   2.425
 2664SOL    HW1 2378   3.801   2.417   2.442
 2664SOL    HW2 2379   3.845   2.559   2.509
 2672SOL     OW 2380   3.800   2.673   2.651
 2672SOL    HW1 2381   3.899   2.661   2.660
 2672SOL    HW2 2382   3.776   2.768   2.672
 2709SOL     OW 2383   3.764   2.406   2.976
 2709SOL    HW1 2384   3.849   2.373   2.935
 2709SOL    HW2 2385   3.777   2.421   3.074
 2724SOL     OW 2386   3.799   2.207   1.895
 2724SOL    HW1 2387   3.707   2.179   1.866
 2724SOL    HW2 2388   3.830   2.284   1.839
 2725SOL     OW 2389   3.796   2.028   2.180
 2725SOL    HW1 2390   3.779   2.111   2.126
 2725SOL    HW2 2391   3.886   1.991   2.158
 2734SOL     OW 2392   3.763   2.939   2.162
 2734SOL    HW1 2393   3.862   2.928   2.153
 2734SOL    HW2 2394   3.723   2.853   2.194
   4.43147   4.43147   4.43147
