mobley_9055303_GMX.gro created by acpype (v: 2023.10.27) on Thu May 21 00:16:26 2026
 2414
    1MOL     H1    1   2.125   2.151   2.009
    1MOL     C1    2   2.090   2.090   2.089
    1MOL     H2    3   2.105   2.142   2.184
    1MOL     H3    4   1.985   2.069   2.075
    1MOL     H4    5   2.144   1.995   2.090
    6SOL     OW    6   1.555   1.511   0.703
    6SOL    HW1    7   1.498   1.495   0.784
    6SOL    HW2    8   1.496   1.521   0.623
   12SOL     OW    9   0.686   1.161   1.803
   12SOL    HW1   10   0.746   1.240   1.817
   12SOL    HW2   11   0.600   1.192   1.762
   14SOL     OW   12   1.460   1.505   1.339
   14SOL    HW1   13   1.484   1.599   1.365
   14SOL    HW2   14   1.444   1.451   1.421
   18SOL     OW   15   1.127   1.341   1.690
   18SOL    HW1   16   1.174   1.341   1.778
   18SOL    HW2   17   1.079   1.254   1.679
   21SOL     OW   18   0.620   1.786   1.439
   21SOL    HW1   19   0.528   1.769   1.474
   21SOL    HW2   20   0.648   1.878   1.465
   25SOL     OW   21   1.842   1.767   0.359
   25SOL    HW1   22   1.896   1.738   0.439
   25SOL    HW2   23   1.872   1.857   0.330
   31SOL     OW   24   1.293   1.228   1.423
   31SOL    HW1   25   1.330   1.155   1.365
   31SOL    HW2   26   1.345   1.233   1.508
   35SOL     OW   27   1.187   1.792   1.616
   35SOL    HW1   28   1.211   1.852   1.540
   35SOL    HW2   29   1.194   1.697   1.586
   37SOL     OW   30   1.466   1.417   0.953
   37SOL    HW1   31   1.407   1.423   1.033
   37SOL    HW2   32   1.451   1.329   0.907
   38SOL     OW   33   1.667   1.714   0.572
   38SOL    HW1   34   1.626   1.691   0.484
   38SOL    HW2   35   1.649   1.640   0.637
   44SOL     OW   36   0.973   0.890   1.572
   44SOL    HW1   37   1.019   0.806   1.543
   44SOL    HW2   38   0.917   0.924   1.497
   50SOL     OW   39   1.719   0.585   1.831
   50SOL    HW1   40   1.693   0.674   1.795
   50SOL    HW2   41   1.717   0.517   1.758
   55SOL     OW   42   1.795   1.066   0.873
   55SOL    HW1   43   1.733   1.051   0.797
   55SOL    HW2   44   1.743   1.077   0.958
   56SOL     OW   45   1.227   1.550   1.506
   56SOL    HW1   46   1.233   1.473   1.570
   56SOL    HW2   47   1.175   1.524   1.426
   66SOL     OW   48   0.940   1.698   0.904
   66SOL    HW1   49   1.020   1.641   0.925
   66SOL    HW2   50   0.891   1.658   0.827
   71SOL     OW   51   0.888   1.514   1.195
   71SOL    HW1   52   0.865   1.489   1.101
   71SOL    HW2   53   0.949   1.445   1.234
   72SOL     OW   54   1.351   0.590   1.433
   72SOL    HW1   55   1.379   0.547   1.518
   72SOL    HW2   56   1.376   0.686   1.434
   80SOL     OW   57   1.227   1.570   0.793
   80SOL    HW1   58   1.248   1.644   0.728
   80SOL    HW2   59   1.295   1.570   0.866
   82SOL     OW   60   1.271   1.797   0.591
   82SOL    HW1   61   1.315   1.861   0.527
   82SOL    HW2   62   1.221   1.849   0.661
   88SOL     OW   63   1.429   1.173   0.867
   88SOL    HW1   64   1.374   1.089   0.860
   88SOL    HW2   65   1.455   1.202   0.775
   92SOL     OW   66   1.664   1.280   0.657
   92SOL    HW1   67   1.763   1.288   0.671
   92SOL    HW2   68   1.619   1.364   0.688
   95SOL     OW   69   1.754   1.223   1.588
   95SOL    HW1   70   1.845   1.184   1.575
   95SOL    HW2   71   1.762   1.319   1.612
   96SOL     OW   72   1.064   1.347   1.340
   96SOL    HW1   73   0.984   1.324   1.395
   96SOL    HW2   74   1.147   1.321   1.389
   97SOL     OW   75   1.592   1.629   1.625
   97SOL    HW1   76   1.619   1.663   1.535
   97SOL    HW2   77   1.671   1.591   1.671
   98SOL     OW   78   1.111   1.195   1.100
   98SOL    HW1   79   1.071   1.239   1.181
   98SOL    HW2   80   1.070   1.232   1.017
   99SOL     OW   81   1.638   1.099   1.079
   99SOL    HW1   82   1.643   1.180   1.138
   99SOL    HW2   83   1.552   1.101   1.028
  101SOL     OW   84   0.980   1.116   1.719
  101SOL    HW1   85   0.881   1.122   1.729
  101SOL    HW2   86   1.003   1.036   1.663
  109SOL     OW   87   1.272   1.445   1.142
  109SOL    HW1   88   1.319   1.458   1.229
  109SOL    HW2   89   1.206   1.371   1.151
  113SOL     OW   90   1.587   0.779   1.670
  113SOL    HW1   91   1.495   0.817   1.665
  113SOL    HW2   92   1.647   0.826   1.605
  117SOL     OW   93   1.360   0.862   1.045
  117SOL    HW1   94   1.285   0.862   0.979
  117SOL    HW2   95   1.397   0.770   1.054
  122SOL     OW   96   1.728   0.935   1.854
  122SOL    HW1   97   1.682   0.928   1.765
  122SOL    HW2   98   1.666   0.979   1.920
  126SOL     OW   99   0.980   1.573   1.700
  126SOL    HW1  100   0.960   1.617   1.612
  126SOL    HW2  101   1.019   1.482   1.684
  127SOL     OW  102   1.859   1.518   1.605
  127SOL    HW1  103   1.873   1.545   1.510
  127SOL    HW2  104   1.942   1.540   1.658
  131SOL     OW  105   1.068   1.333   0.849
  131SOL    HW1  106   1.075   1.249   0.794
  131SOL    HW2  107   1.130   1.402   0.813
  142SOL     OW  108   1.369   0.950   1.660
  142SOL    HW1  109   1.408   1.039   1.680
  142SOL    HW2  110   1.379   0.930   1.563
  144SOL     OW  111   1.657   0.604   1.206
  144SOL    HW1  112   1.619   0.535   1.268
  144SOL    HW2  113   1.739   0.568   1.162
  147SOL     OW  114   0.930   1.678   1.465
  147SOL    HW1  115   0.906   1.660   1.370
  147SOL    HW2  116   0.960   1.772   1.475
  150SOL     OW  117   1.347   1.059   1.234
  150SOL    HW1  118   1.371   0.996   1.160
  150SOL    HW2  119   1.257   1.099   1.216
  152SOL     OW  120   1.759   1.747   1.154
  152SOL    HW1  121   1.820   1.777   1.081
  152SOL    HW2  122   1.721   1.658   1.132
  153SOL     OW  123   1.252   1.731   1.128
  153SOL    HW1  124   1.336   1.736   1.074
  153SOL    HW2  125   1.229   1.635   1.146
  155SOL     OW  126   0.688   1.662   1.716
  155SOL    HW1  127   0.632   1.743   1.725
  155SOL    HW2  128   0.740   1.666   1.630
  161SOL     OW  129   0.830   1.273   1.422
  161SOL    HW1  130   0.825   1.306   1.517
  161SOL    HW2  131   0.744   1.292   1.376
  163SOL     OW  132   1.650   1.720   1.394
  163SOL    HW1  133   1.703   1.730   1.310
  163SOL    HW2  134   1.623   1.810   1.428
  171SOL     OW  135   1.614   1.292   1.289
  171SOL    HW1  136   1.674   1.295   1.369
  171SOL    HW2  137   1.539   1.356   1.302
  180SOL     OW  138   1.440   0.856   1.398
  180SOL    HW1  139   1.383   0.908   1.335
  180SOL    HW2  140   1.536   0.868   1.374
  184SOL     OW  141   1.493   1.767   0.959
  184SOL    HW1  142   1.526   1.831   0.890
  184SOL    HW2  143   1.559   1.761   1.034
  186SOL     OW  144   1.450   1.220   1.633
  186SOL    HW1  145   1.441   1.210   1.732
  186SOL    HW2  146   1.546   1.213   1.607
  188SOL     OW  147   1.674   0.883   1.254
  188SOL    HW1  148   1.647   0.794   1.217
  188SOL    HW2  149   1.675   0.951   1.181
  192SOL     OW  150   1.730   0.934   1.517
  192SOL    HW1  151   1.768   1.025   1.532
  192SOL    HW2  152   1.722   0.917   1.418
  197SOL     OW  153   1.861   1.569   0.851
  197SOL    HW1  154   1.790   1.557   0.781
  197SOL    HW2  155   1.862   1.490   0.911
  200SOL     OW  156   0.672   1.391   1.624
  200SOL    HW1  157   0.594   1.341   1.662
  200SOL    HW2  158   0.669   1.486   1.655
  203SOL     OW  159   1.705   1.487   1.104
  203SOL    HW1  160   1.612   1.462   1.077
  203SOL    HW2  161   1.731   1.437   1.186
  209SOL     OW  162   0.618   1.567   1.284
  209SOL    HW1  163   0.613   1.649   1.341
  209SOL    HW2  164   0.707   1.564   1.239
  219SOL     OW  165   1.555   1.511   2.565
  219SOL    HW1  166   1.498   1.495   2.646
  219SOL    HW2  167   1.496   1.521   2.485
  220SOL     OW  168   1.135   0.703   2.579
  220SOL    HW1  169   1.192   0.781   2.554
  220SOL    HW2  170   1.075   0.729   2.655
  221SOL     OW  171   1.755   0.607   2.093
  221SOL    HW1  172   1.743   0.594   1.994
  221SOL    HW2  173   1.725   0.526   2.142
  227SOL     OW  174   1.460   1.505   3.201
  227SOL    HW1  175   1.484   1.599   3.227
  227SOL    HW2  176   1.444   1.451   3.283
  229SOL     OW  177   1.603   0.447   2.599
  229SOL    HW1  178   1.529   0.493   2.549
  229SOL    HW2  179   1.654   0.515   2.652
  238SOL     OW  180   1.842   1.767   2.221
  238SOL    HW1  181   1.896   1.738   2.301
  238SOL    HW2  182   1.872   1.857   2.192
  240SOL     OW  183   1.689   0.922   2.474
  240SOL    HW1  184   1.784   0.893   2.482
  240SOL    HW2  185   1.681   0.987   2.399
  241SOL     OW  186   1.641   1.108   2.294
  241SOL    HW1  187   1.727   1.110   2.242
  241SOL    HW2  188   1.655   1.155   2.382
  243SOL     OW  189   0.613   1.365   2.588
  243SOL    HW1  190   0.564   1.278   2.597
  243SOL    HW2  191   0.590   1.408   2.501
  244SOL     OW  192   1.293   1.228   3.285
  244SOL    HW1  193   1.330   1.155   3.227
  244SOL    HW2  194   1.345   1.233   3.370
  247SOL     OW  195   1.525   0.999   2.052
  247SOL    HW1  196   1.462   0.923   2.065
  247SOL    HW2  197   1.573   1.017   2.138
  248SOL     OW  198   1.187   1.792   3.478
  248SOL    HW1  199   1.211   1.852   3.402
  248SOL    HW2  200   1.194   1.697   3.448
  250SOL     OW  201   1.466   1.417   2.815
  250SOL    HW1  202   1.407   1.423   2.895
  250SOL    HW2  203   1.451   1.329   2.769
  251SOL     OW  204   1.667   1.714   2.434
  251SOL    HW1  205   1.626   1.691   2.346
  251SOL    HW2  206   1.649   1.640   2.499
  254SOL     OW  207   1.576   1.662   2.169
  254SOL    HW1  208   1.665   1.708   2.172
  254SOL    HW2  209   1.555   1.638   2.074
  259SOL     OW  210   1.041   0.701   2.291
  259SOL    HW1  211   1.067   0.697   2.387
  259SOL    HW2  212   0.956   0.650   2.277
  264SOL     OW  213   1.362   1.144   2.407
  264SOL    HW1  214   1.445   1.115   2.359
  264SOL    HW2  215   1.313   1.211   2.351
  266SOL     OW  216   1.008   1.456   2.339
  266SOL    HW1  217   0.962   1.528   2.287
  266SOL    HW2  218   1.004   1.476   2.437
  268SOL     OW  219   1.795   1.066   2.735
  268SOL    HW1  220   1.733   1.051   2.659
  268SOL    HW2  221   1.743   1.077   2.820
  269SOL     OW  222   1.227   1.550   3.368
  269SOL    HW1  223   1.233   1.473   3.432
  269SOL    HW2  224   1.175   1.524   3.288
  271SOL     OW  225   1.458   0.735   2.590
  271SOL    HW1  226   1.453   0.670   2.665
  271SOL    HW2  227   1.538   0.794   2.603
  273SOL     OW  228   1.111   1.776   2.099
  273SOL    HW1  229   1.051   1.714   2.149
  273SOL    HW2  230   1.142   1.732   2.014
  275SOL     OW  231   1.632   1.377   1.943
  275SOL    HW1  232   1.600   1.471   1.933
  275SOL    HW2  233   1.556   1.314   1.931
  276SOL     OW  234   0.464   1.743   2.185
  276SOL    HW1  235   0.497   1.782   2.271
  276SOL    HW2  236   0.540   1.736   2.120
  279SOL     OW  237   0.940   1.698   2.766
  279SOL    HW1  238   1.020   1.641   2.787
  279SOL    HW2  239   0.891   1.658   2.689
  284SOL     OW  240   0.888   1.514   3.057
  284SOL    HW1  241   0.865   1.489   2.963
  284SOL    HW2  242   0.949   1.445   3.096
  286SOL     OW  243   0.803   1.402   2.786
  286SOL    HW1  244   0.893   1.416   2.744
  286SOL    HW2  245   0.732   1.404   2.715
  289SOL     OW  246   1.434   1.188   1.903
  289SOL    HW1  247   1.466   1.112   1.960
  289SOL    HW2  248   1.342   1.215   1.933
  293SOL     OW  249   1.227   1.570   2.655
  293SOL    HW1  250   1.248   1.644   2.590
  293SOL    HW2  251   1.295   1.570   2.728
  295SOL     OW  252   1.271   1.797   2.453
  295SOL    HW1  253   1.315   1.861   2.389
  295SOL    HW2  254   1.221   1.849   2.523
  301SOL     OW  255   1.429   1.173   2.729
  301SOL    HW1  256   1.374   1.089   2.722
  301SOL    HW2  257   1.455   1.202   2.637
  302SOL     OW  258   1.466   0.590   2.854
  302SOL    HW1  259   1.436   0.495   2.861
  302SOL    HW2  260   1.539   0.606   2.920
  303SOL     OW  261   1.857   0.833   2.239
  303SOL    HW1  262   1.899   0.769   2.303
  303SOL    HW2  263   1.819   0.782   2.161
  304SOL     OW  264   0.488   1.385   2.036
  304SOL    HW1  265   0.401   1.370   2.083
  304SOL    HW2  266   0.471   1.411   1.941
  305SOL     OW  267   1.664   1.280   2.519
  305SOL    HW1  268   1.763   1.288   2.533
  305SOL    HW2  269   1.619   1.364   2.550
  306SOL     OW  270   1.390   0.575   1.940
  306SOL    HW1  271   1.336   0.554   2.021
  306SOL    HW2  272   1.481   0.534   1.949
  308SOL     OW  273   1.754   1.223   3.450
  308SOL    HW1  274   1.845   1.184   3.437
  308SOL    HW2  275   1.762   1.319   3.474
  309SOL     OW  276   1.064   1.347   3.202
  309SOL    HW1  277   0.984   1.324   3.257
  309SOL    HW2  278   1.147   1.321   3.251
  310SOL     OW  279   1.592   1.629   3.487
  310SOL    HW1  280   1.619   1.663   3.397
  310SOL    HW2  281   1.671   1.591   3.533
  311SOL     OW  282   1.111   1.195   2.962
  311SOL    HW1  283   1.071   1.239   3.043
  311SOL    HW2  284   1.070   1.232   2.879
  312SOL     OW  285   1.638   1.099   2.941
  312SOL    HW1  286   1.643   1.180   3.000
  312SOL    HW2  287   1.552   1.101   2.890
  315SOL     OW  288   0.705   1.050   2.230
  315SOL    HW1  289   0.691   1.057   2.329
  315SOL    HW2  290   0.789   0.999   2.212
  321SOL     OW  291   1.252   1.348   2.250
  321SOL    HW1  292   1.302   1.425   2.290
  321SOL    HW2  293   1.157   1.350   2.282
  322SOL     OW  294   1.272   1.445   3.004
  322SOL    HW1  295   1.319   1.458   3.091
  322SOL    HW2  296   1.206   1.371   3.013
  323SOL     OW  297   1.582   0.639   2.334
  323SOL    HW1  298   1.551   0.700   2.407
  323SOL    HW2  299   1.632   0.691   2.265
  330SOL     OW  300   1.360   0.862   2.907
  330SOL    HW1  301   1.285   0.862   2.841
  330SOL    HW2  302   1.397   0.770   2.916
  331SOL     OW  303   1.209   0.525   2.137
  331SOL    HW1  304   1.222   0.441   2.191
  331SOL    HW2  305   1.180   0.599   2.197
  337SOL     OW  306   1.622   0.367   2.236
  337SOL    HW1  307   1.624   0.291   2.300
  337SOL    HW2  308   1.574   0.444   2.276
  340SOL     OW  309   1.859   1.518   3.467
  340SOL    HW1  310   1.873   1.545   3.372
  340SOL    HW2  311   1.942   1.540   3.520
  343SOL     OW  312   1.303   0.838   1.904
  343SOL    HW1  313   1.337   0.745   1.919
  343SOL    HW2  314   1.321   0.865   1.809
  344SOL     OW  315   1.068   1.333   2.711
  344SOL    HW1  316   1.075   1.249   2.656
  344SOL    HW2  317   1.130   1.402   2.675
  360SOL     OW  318   0.930   1.678   3.327
  360SOL    HW1  319   0.906   1.660   3.232
  360SOL    HW2  320   0.960   1.772   3.337
  363SOL     OW  321   1.347   1.059   3.096
  363SOL    HW1  322   1.371   0.996   3.022
  363SOL    HW2  323   1.257   1.099   3.078
  364SOL     OW  324   1.302   0.855   2.171
  364SOL    HW1  325   1.216   0.824   2.213
  364SOL    HW2  326   1.298   0.841   2.072
  365SOL     OW  327   1.759   1.747   3.016
  365SOL    HW1  328   1.820   1.777   2.943
  365SOL    HW2  329   1.721   1.658   2.994
  366SOL     OW  330   1.252   1.731   2.990
  366SOL    HW1  331   1.336   1.736   2.936
  366SOL    HW2  332   1.229   1.635   3.008
  370SOL     OW  333   1.388   1.573   2.339
  370SOL    HW1  334   1.455   1.585   2.265
  370SOL    HW2  335   1.348   1.662   2.362
  372SOL     OW  336   1.280   0.927   2.534
  372SOL    HW1  337   1.340   0.846   2.536
  372SOL    HW2  338   1.320   0.996   2.474
  374SOL     OW  339   0.672   1.616   2.016
  374SOL    HW1  340   0.681   1.626   1.917
  374SOL    HW2  341   0.632   1.527   2.037
  375SOL     OW  342   1.650   1.720   3.256
  375SOL    HW1  343   1.703   1.730   3.172
  375SOL    HW2  344   1.623   1.810   3.290
  378SOL     OW  345   1.194   1.612   1.893
  378SOL    HW1  346   1.200   1.519   1.930
  378SOL    HW2  347   1.135   1.612   1.813
  380SOL     OW  348   0.916   0.910   2.153
  380SOL    HW1  349   0.979   0.948   2.085
  380SOL    HW2  350   0.956   0.827   2.192
  381SOL     OW  351   1.504   1.607   1.906
  381SOL    HW1  352   1.412   1.644   1.913
  381SOL    HW2  353   1.542   1.627   1.816
  383SOL     OW  354   1.614   1.292   3.151
  383SOL    HW1  355   1.674   1.295   3.231
  383SOL    HW2  356   1.539   1.356   3.164
  384SOL     OW  357   1.039   1.098   2.558
  384SOL    HW1  358   0.969   1.051   2.612
  384SOL    HW2  359   1.098   1.030   2.515
  386SOL     OW  360   0.590   1.487   2.353
  386SOL    HW1  361   0.632   1.429   2.283
  386SOL    HW2  362   0.546   1.566   2.309
  394SOL     OW  363   1.183   1.335   1.981
  394SOL    HW1  364   1.084   1.324   1.983
  394SOL    HW2  365   1.217   1.350   2.074
  396SOL     OW  366   1.493   1.767   2.821
  396SOL    HW1  367   1.526   1.831   2.752
  396SOL    HW2  368   1.559   1.761   2.896
  398SOL     OW  369   1.450   1.220   3.495
  398SOL    HW1  370   1.441   1.210   3.594
  398SOL    HW2  371   1.546   1.213   3.469
  400SOL     OW  372   1.674   0.883   3.116
  400SOL    HW1  373   1.647   0.794   3.079
  400SOL    HW2  374   1.675   0.951   3.043
  404SOL     OW  375   1.730   0.934   3.379
  404SOL    HW1  376   1.768   1.025   3.394
  404SOL    HW2  377   1.722   0.917   3.280
  405SOL     OW  378   0.859   1.374   1.878
  405SOL    HW1  379   0.813   1.389   1.966
  405SOL    HW2  380   0.903   1.459   1.848
  406SOL     OW  381   0.661   1.790   2.815
  406SOL    HW1  382   0.615   1.878   2.802
  406SOL    HW2  383   0.760   1.802   2.808
  407SOL     OW  384   0.859   0.956   2.723
  407SOL    HW1  385   0.913   0.887   2.771
  407SOL    HW2  386   0.827   1.025   2.789
  408SOL     OW  387   1.083   0.984   1.949
  408SOL    HW1  388   1.060   1.037   1.867
  408SOL    HW2  389   1.164   0.928   1.930
  409SOL     OW  390   1.861   1.569   2.713
  409SOL    HW1  391   1.790   1.557   2.643
  409SOL    HW2  392   1.862   1.490   2.773
  415SOL     OW  393   1.705   1.487   2.966
  415SOL    HW1  394   1.612   1.462   2.939
  415SOL    HW2  395   1.731   1.437   3.048
  417SOL     OW  396   0.812   1.586   2.549
  417SOL    HW1  397   0.844   1.596   2.455
  417SOL    HW2  398   0.733   1.524   2.551
  420SOL     OW  399   0.770   1.330   2.163
  420SOL    HW1  400   0.724   1.243   2.180
  420SOL    HW2  401   0.861   1.327   2.204
  426SOL     OW  402   0.875   1.646   2.199
  426SOL    HW1  403   0.798   1.611   2.145
  426SOL    HW2  404   0.843   1.717   2.261
  482SOL     OW  405   1.135   2.565   0.717
  482SOL    HW1  406   1.192   2.643   0.692
  482SOL    HW2  407   1.075   2.591   0.793
  485SOL     OW  408   0.850   2.660   1.823
  485SOL    HW1  409   0.846   2.736   1.888
  485SOL    HW2  410   0.872   2.696   1.732
  487SOL     OW  411   0.686   3.023   1.803
  487SOL    HW1  412   0.746   3.102   1.817
  487SOL    HW2  413   0.600   3.054   1.762
  489SOL     OW  414   1.460   3.367   1.339
  489SOL    HW1  415   1.484   3.461   1.365
  489SOL    HW2  416   1.444   3.313   1.421
  490SOL     OW  417   0.438   2.254   1.499
  490SOL    HW1  418   0.520   2.198   1.508
  490SOL    HW2  419   0.357   2.196   1.503
  491SOL     OW  420   1.603   2.309   0.737
  491SOL    HW1  421   1.529   2.355   0.687
  491SOL    HW2  422   1.654   2.377   0.790
  493SOL     OW  423   1.127   3.203   1.690
  493SOL    HW1  424   1.174   3.203   1.778
  493SOL    HW2  425   1.079   3.116   1.679
  498SOL     OW  426   1.594   1.976   1.480
  498SOL    HW1  427   1.576   2.043   1.408
  498SOL    HW2  428   1.591   2.022   1.569
  502SOL     OW  429   1.689   2.784   0.612
  502SOL    HW1  430   1.784   2.755   0.620
  502SOL    HW2  431   1.681   2.849   0.537
  506SOL     OW  432   1.293   3.090   1.423
  506SOL    HW1  433   1.330   3.017   1.365
  506SOL    HW2  434   1.345   3.095   1.508
  511SOL     OW  435   0.317   2.113   1.801
  511SOL    HW1  436   0.388   2.184   1.807
  511SOL    HW2  437   0.229   2.152   1.829
  512SOL     OW  438   1.466   3.279   0.953
  512SOL    HW1  439   1.407   3.285   1.033
  512SOL    HW2  440   1.451   3.191   0.907
  515SOL     OW  441   1.281   2.207   0.944
  515SOL    HW1  442   1.195   2.157   0.931
  515SOL    HW2  443   1.343   2.153   1.000
  517SOL     OW  444   0.807   2.467   1.465
  517SOL    HW1  445   0.760   2.464   1.554
  517SOL    HW2  446   0.756   2.412   1.399
  518SOL     OW  447   1.394   2.331   1.674
  518SOL    HW1  448   1.374   2.374   1.762
  518SOL    HW2  449   1.472   2.269   1.683
  519SOL     OW  450   0.973   2.752   1.572
  519SOL    HW1  451   1.019   2.668   1.543
  519SOL    HW2  452   0.917   2.786   1.497
  520SOL     OW  453   0.991   2.272   1.242
  520SOL    HW1  454   0.914   2.306   1.296
  520SOL    HW2  455   0.957   2.221   1.163
  525SOL     OW  456   1.719   2.447   1.831
  525SOL    HW1  457   1.693   2.536   1.795
  525SOL    HW2  458   1.717   2.379   1.758
  530SOL     OW  459   1.795   2.928   0.873
  530SOL    HW1  460   1.733   2.913   0.797
  530SOL    HW2  461   1.743   2.939   0.958
  531SOL     OW  462   1.227   3.412   1.506
  531SOL    HW1  463   1.233   3.335   1.570
  531SOL    HW2  464   1.175   3.386   1.426
  533SOL     OW  465   1.458   2.597   0.728
  533SOL    HW1  466   1.453   2.532   0.803
  533SOL    HW2  467   1.538   2.656   0.741
  543SOL     OW  468   1.547   2.084   1.729
  543SOL    HW1  469   1.542   2.121   1.821
  543SOL    HW2  470   1.475   2.015   1.717
  545SOL     OW  471   0.781   2.126   1.749
  545SOL    HW1  472   0.848   2.065   1.792
  545SOL    HW2  473   0.708   2.145   1.814
  547SOL     OW  474   1.351   2.452   1.433
  547SOL    HW1  475   1.379   2.409   1.518
  547SOL    HW2  476   1.376   2.548   1.434
  549SOL     OW  477   0.922   2.365   0.899
  549SOL    HW1  478   0.897   2.356   0.803
  549SOL    HW2  479   0.970   2.283   0.930
  553SOL     OW  480   1.076   2.545   1.464
  553SOL    HW1  481   0.996   2.484   1.467
  553SOL    HW2  482   1.157   2.492   1.440
  559SOL     OW  483   0.561   2.084   1.147
  559SOL    HW1  484   0.599   2.000   1.184
  559SOL    HW2  485   0.473   2.103   1.191
  561SOL     OW  486   1.017   1.901   0.753
  561SOL    HW1  487   0.945   1.906   0.684
  561SOL    HW2  488   0.993   1.832   0.822
  562SOL     OW  489   1.429   3.035   0.867
  562SOL    HW1  490   1.374   2.951   0.860
  562SOL    HW2  491   1.455   3.064   0.775
  563SOL     OW  492   1.466   2.452   0.992
  563SOL    HW1  493   1.436   2.357   0.999
  563SOL    HW2  494   1.539   2.468   1.058
  569SOL     OW  495   1.754   3.085   1.588
  569SOL    HW1  496   1.845   3.046   1.575
  569SOL    HW2  497   1.762   3.181   1.612
  570SOL     OW  498   1.064   3.209   1.340
  570SOL    HW1  499   0.984   3.186   1.395
  570SOL    HW2  500   1.147   3.183   1.389
  571SOL     OW  501   1.592   3.491   1.625
  571SOL    HW1  502   1.619   3.525   1.535
  571SOL    HW2  503   1.671   3.453   1.671
  572SOL     OW  504   1.111   3.057   1.100
  572SOL    HW1  505   1.071   3.101   1.181
  572SOL    HW2  506   1.070   3.094   1.017
  573SOL     OW  507   1.638   2.961   1.079
  573SOL    HW1  508   1.643   3.042   1.138
  573SOL    HW2  509   1.552   2.963   1.028
  574SOL     OW  510   0.915   1.951   1.402
  574SOL    HW1  511   0.940   1.931   1.307
  574SOL    HW2  512   0.987   2.007   1.444
  575SOL     OW  513   0.980   2.978   1.719
  575SOL    HW1  514   0.881   2.984   1.729
  575SOL    HW2  515   1.003   2.898   1.663
  578SOL     OW  516   1.274   2.248   1.262
  578SOL    HW1  517   1.295   2.322   1.326
  578SOL    HW2  518   1.185   2.265   1.219
  583SOL     OW  519   1.272   3.307   1.142
  583SOL    HW1  520   1.319   3.320   1.229
  583SOL    HW2  521   1.206   3.233   1.151
  584SOL     OW  522   1.582   2.501   0.472
  584SOL    HW1  523   1.551   2.562   0.545
  584SOL    HW2  524   1.632   2.553   0.403
  587SOL     OW  525   1.587   2.641   1.670
  587SOL    HW1  526   1.495   2.679   1.665
  587SOL    HW2  527   1.647   2.688   1.605
  588SOL     OW  528   1.013   1.967   1.770
  588SOL    HW1  529   1.019   2.052   1.718
  588SOL    HW2  530   1.045   1.891   1.713
  589SOL     OW  531   0.504   1.912   1.740
  589SOL    HW1  532   0.462   1.855   1.670
  589SOL    HW2  533   0.438   1.981   1.772
  591SOL     OW  534   1.360   2.724   1.045
  591SOL    HW1  535   1.285   2.724   0.979
  591SOL    HW2  536   1.397   2.632   1.054
  595SOL     OW  537   0.732   2.496   1.064
  595SOL    HW1  538   0.791   2.470   0.988
  595SOL    HW2  539   0.704   2.592   1.053
  596SOL     OW  540   1.728   2.797   1.854
  596SOL    HW1  541   1.682   2.790   1.765
  596SOL    HW2  542   1.666   2.841   1.920
  598SOL     OW  543   1.622   2.229   0.374
  598SOL    HW1  544   1.624   2.153   0.438
  598SOL    HW2  545   1.574   2.306   0.414
  599SOL     OW  546   1.023   2.628   0.966
  599SOL    HW1  547   1.038   2.649   1.062
  599SOL    HW2  548   0.993   2.533   0.957
  600SOL     OW  549   0.980   3.435   1.700
  600SOL    HW1  550   0.960   3.479   1.612
  600SOL    HW2  551   1.019   3.344   1.684
  601SOL     OW  552   1.859   3.380   1.605
  601SOL    HW1  553   1.873   3.407   1.510
  601SOL    HW2  554   1.942   3.402   1.658
  608SOL     OW  555   1.138   2.242   1.678
  608SOL    HW1  556   1.093   2.305   1.742
  608SOL    HW2  557   1.231   2.273   1.661
  609SOL     OW  558   1.160   2.069   1.477
  609SOL    HW1  559   1.160   2.133   1.554
  609SOL    HW2  560   1.188   2.117   1.394
  613SOL     OW  561   1.002   2.658   1.238
  613SOL    HW1  562   1.043   2.626   1.324
  613SOL    HW2  563   0.906   2.631   1.235
  616SOL     OW  564   1.369   2.812   1.660
  616SOL    HW1  565   1.408   2.901   1.680
  616SOL    HW2  566   1.379   2.792   1.563
  618SOL     OW  567   1.657   2.466   1.206
  618SOL    HW1  568   1.619   2.397   1.268
  618SOL    HW2  569   1.739   2.430   1.162
  620SOL     OW  570   0.671   2.326   1.269
  620SOL    HW1  571   0.637   2.237   1.239
  620SOL    HW2  572   0.697   2.380   1.189
  624SOL     OW  573   1.347   2.921   1.234
  624SOL    HW1  574   1.371   2.858   1.160
  624SOL    HW2  575   1.257   2.961   1.216
  631SOL     OW  576   1.726   1.997   0.523
  631SOL    HW1  577   1.799   1.980   0.456
  631SOL    HW2  578   1.695   1.910   0.561
  634SOL     OW  579   1.280   2.789   0.672
  634SOL    HW1  580   1.340   2.708   0.674
  634SOL    HW2  581   1.320   2.858   0.612
  635SOL     OW  582   0.830   3.135   1.422
  635SOL    HW1  583   0.825   3.168   1.517
  635SOL    HW2  584   0.744   3.154   1.376
  637SOL     OW  585   1.650   3.582   1.394
  637SOL    HW1  586   1.703   3.592   1.310
  637SOL    HW2  587   1.623   3.672   1.428
  638SOL     OW  588   1.841   2.037   0.963
  638SOL    HW1  589   1.880   1.952   0.927
  638SOL    HW2  590   1.743   2.039   0.944
  641SOL     OW  591   0.822   2.864   1.372
  641SOL    HW1  592   0.862   2.863   1.280
  641SOL    HW2  593   0.832   2.956   1.412
  645SOL     OW  594   1.614   3.154   1.289
  645SOL    HW1  595   1.674   3.157   1.369
  645SOL    HW2  596   1.539   3.218   1.302
  647SOL     OW  597   1.014   2.098   0.971
  647SOL    HW1  598   1.006   2.062   0.878
  647SOL    HW2  599   1.012   2.022   1.036
  649SOL     OW  600   1.709   2.247   1.381
  649SOL    HW1  601   1.782   2.316   1.385
  649SOL    HW2  602   1.737   2.172   1.322
  652SOL     OW  603   0.672   2.065   1.489
  652SOL    HW1  604   0.762   2.049   1.449
  652SOL    HW2  605   0.680   2.070   1.588
  654SOL     OW  606   1.440   2.718   1.398
  654SOL    HW1  607   1.383   2.770   1.335
  654SOL    HW2  608   1.536   2.730   1.374
  657SOL     OW  609   0.613   2.704   1.431
  657SOL    HW1  610   0.669   2.785   1.414
  657SOL    HW2  611   0.672   2.624   1.434
  659SOL     OW  612   0.716   2.427   1.708
  659SOL    HW1  613   0.735   2.492   1.782
  659SOL    HW2  614   0.776   2.347   1.717
  660SOL     OW  615   1.450   3.082   1.633
  660SOL    HW1  616   1.441   3.072   1.732
  660SOL    HW2  617   1.546   3.075   1.607
  662SOL     OW  618   1.674   2.745   1.254
  662SOL    HW1  619   1.647   2.656   1.217
  662SOL    HW2  620   1.675   2.813   1.181
  665SOL     OW  621   1.777   2.204   1.642
  665SOL    HW1  622   1.760   2.235   1.548
  665SOL    HW2  623   1.693   2.167   1.680
  666SOL     OW  624   1.730   2.796   1.517
  666SOL    HW1  625   1.768   2.887   1.532
  666SOL    HW2  626   1.722   2.779   1.418
  675SOL     OW  627   1.824   2.054   1.227
  675SOL    HW1  628   1.820   1.964   1.271
  675SOL    HW2  629   1.827   2.043   1.128
  677SOL     OW  630   1.705   3.349   1.104
  677SOL    HW1  631   1.612   3.324   1.077
  677SOL    HW2  632   1.731   3.299   1.186
  680SOL     OW  633   1.424   2.076   1.112
  680SOL    HW1  634   1.476   2.011   1.167
  680SOL    HW2  635   1.375   2.139   1.173
  681SOL     OW  636   1.001   1.896   1.154
  681SOL    HW1  637   0.938   1.824   1.123
  681SOL    HW2  638   1.094   1.860   1.154
  685SOL     OW  639   1.300   2.315   0.691
  685SOL    HW1  640   1.241   2.395   0.695
  685SOL    HW2  641   1.315   2.280   0.784
  686SOL     OW  642   1.593   2.083   0.882
  686SOL    HW1  643   1.509   2.082   0.936
  686SOL    HW2  644   1.595   2.166   0.826
  693SOL     OW  645   1.555   3.373   2.565
  693SOL    HW1  646   1.498   3.357   2.646
  693SOL    HW2  647   1.496   3.383   2.485
  694SOL     OW  648   1.135   2.565   2.579
  694SOL    HW1  649   1.192   2.643   2.554
  694SOL    HW2  650   1.075   2.591   2.655
  695SOL     OW  651   1.755   2.469   2.093
  695SOL    HW1  652   1.743   2.456   1.994
  695SOL    HW2  653   1.725   2.388   2.142
  696SOL     OW  654   0.768   3.006   2.885
  696SOL    HW1  655   0.690   3.023   2.945
  696SOL    HW2  656   0.802   3.093   2.849
  698SOL     OW  657   0.685   2.874   2.527
  698SOL    HW1  658   0.754   2.858   2.597
  698SOL    HW2  659   0.612   2.931   2.565
  703SOL     OW  660   1.603   2.309   2.599
  703SOL    HW1  661   1.529   2.355   2.549
  703SOL    HW2  662   1.654   2.377   2.652
  709SOL     OW  663   0.606   2.826   1.985
  709SOL    HW1  664   0.613   2.910   1.931
  709SOL    HW2  665   0.652   2.839   2.073
  710SOL     OW  666   1.594   1.976   3.342
  710SOL    HW1  667   1.576   2.043   3.270
  710SOL    HW2  668   1.591   2.022   3.431
  712SOL     OW  669   1.842   3.629   2.221
  712SOL    HW1  670   1.896   3.600   2.301
  712SOL    HW2  671   1.872   3.719   2.192
  714SOL     OW  672   1.689   2.784   2.474
  714SOL    HW1  673   1.784   2.755   2.482
  714SOL    HW2  674   1.681   2.849   2.399
  715SOL     OW  675   1.641   2.970   2.294
  715SOL    HW1  676   1.727   2.972   2.242
  715SOL    HW2  677   1.655   3.017   2.382
  718SOL     OW  678   1.293   3.090   3.285
  718SOL    HW1  679   1.330   3.017   3.227
  718SOL    HW2  680   1.345   3.095   3.370
  719SOL     OW  681   0.809   1.866   2.364
  719SOL    HW1  682   0.849   1.957   2.355
  719SOL    HW2  683   0.709   1.874   2.370
  721SOL     OW  684   1.525   2.861   2.052
  721SOL    HW1  685   1.462   2.785   2.065
  721SOL    HW2  686   1.573   2.879   2.138
  724SOL     OW  687   1.466   3.279   2.815
  724SOL    HW1  688   1.407   3.285   2.895
  724SOL    HW2  689   1.451   3.191   2.769
  725SOL     OW  690   1.667   3.576   2.434
  725SOL    HW1  691   1.626   3.553   2.346
  725SOL    HW2  692   1.649   3.502   2.499
  726SOL     OW  693   0.598   2.591   2.132
  726SOL    HW1  694   0.622   2.660   2.064
  726SOL    HW2  695   0.520   2.624   2.186
  727SOL     OW  696   1.281   2.207   2.806
  727SOL    HW1  697   1.195   2.157   2.793
  727SOL    HW2  698   1.343   2.153   2.862
  728SOL     OW  699   1.576   3.524   2.169
  728SOL    HW1  700   1.665   3.570   2.172
  728SOL    HW2  701   1.555   3.500   2.074
  730SOL     OW  702   1.394   2.331   3.536
  730SOL    HW1  703   1.374   2.374   3.624
  730SOL    HW2  704   1.472   2.269   3.545
  732SOL     OW  705   0.991   2.272   3.104
  732SOL    HW1  706   0.914   2.306   3.158
  732SOL    HW2  707   0.957   2.221   3.025
  733SOL     OW  708   1.041   2.563   2.291
  733SOL    HW1  709   1.067   2.559   2.387
  733SOL    HW2  710   0.956   2.512   2.277
  736SOL     OW  711   0.865   2.210   2.057
  736SOL    HW1  712   0.924   2.273   2.008
  736SOL    HW2  713   0.884   2.116   2.028
  737SOL     OW  714   1.719   2.447   3.693
  737SOL    HW1  715   1.693   2.536   3.657
  737SOL    HW2  716   1.717   2.379   3.620
  738SOL     OW  717   1.362   3.006   2.407
  738SOL    HW1  718   1.445   2.977   2.359
  738SOL    HW2  719   1.313   3.073   2.351
  739SOL     OW  720   0.550   2.058   2.747
  739SOL    HW1  721   0.545   2.053   2.847
  739SOL    HW2  722   0.552   2.154   2.718
  740SOL     OW  723   1.008   3.318   2.339
  740SOL    HW1  724   0.962   3.390   2.287
  740SOL    HW2  725   1.004   3.338   2.437
  742SOL     OW  726   1.795   2.928   2.735
  742SOL    HW1  727   1.733   2.913   2.659
  742SOL    HW2  728   1.743   2.939   2.820
  745SOL     OW  729   1.458   2.597   2.590
  745SOL    HW1  730   1.453   2.532   2.665
  745SOL    HW2  731   1.538   2.656   2.603
  749SOL     OW  732   1.632   3.239   1.943
  749SOL    HW1  733   1.600   3.333   1.933
  749SOL    HW2  734   1.556   3.176   1.931
  751SOL     OW  735   1.400   1.969   2.288
  751SOL    HW1  736   1.376   1.932   2.198
  751SOL    HW2  737   1.499   1.985   2.292
  754SOL     OW  738   0.382   2.562   2.342
  754SOL    HW1  739   0.427   2.472   2.339
  754SOL    HW2  740   0.288   2.551   2.375
  755SOL     OW  741   1.547   2.084   3.591
  755SOL    HW1  742   1.542   2.121   3.683
  755SOL    HW2  743   1.475   2.015   3.579
  756SOL     OW  744   0.614   1.984   1.979
  756SOL    HW1  745   0.712   1.962   1.986
  756SOL    HW2  746   0.583   1.967   1.886
  759SOL     OW  747   1.351   2.452   3.295
  759SOL    HW1  748   1.379   2.409   3.380
  759SOL    HW2  749   1.376   2.548   3.296
  761SOL     OW  750   0.922   2.365   2.761
  761SOL    HW1  751   0.897   2.356   2.665
  761SOL    HW2  752   0.970   2.283   2.792
  762SOL     OW  753   0.539   1.926   2.374
  762SOL    HW1  754   0.458   1.927   2.432
  762SOL    HW2  755   0.542   2.009   2.319
  763SOL     OW  756   1.434   3.050   1.903
  763SOL    HW1  757   1.466   2.974   1.960
  763SOL    HW2  758   1.342   3.077   1.933
  765SOL     OW  759   0.935   2.098   2.342
  765SOL    HW1  760   0.887   2.139   2.264
  765SOL    HW2  761   1.034   2.096   2.323
  766SOL     OW  762   1.076   2.545   3.326
  766SOL    HW1  763   0.996   2.484   3.329
  766SOL    HW2  764   1.157   2.492   3.302
  767SOL     OW  765   1.227   3.432   2.655
  767SOL    HW1  766   1.248   3.506   2.590
  767SOL    HW2  767   1.295   3.432   2.728
  770SOL     OW  768   1.032   2.411   1.878
  770SOL    HW1  769   0.991   2.493   1.839
  770SOL    HW2  770   1.096   2.437   1.951
  772SOL     OW  771   0.561   2.084   3.009
  772SOL    HW1  772   0.599   2.000   3.046
  772SOL    HW2  773   0.473   2.103   3.053
  773SOL     OW  774   0.866   2.316   2.504
  773SOL    HW1  775   0.834   2.388   2.442
  773SOL    HW2  776   0.890   2.235   2.451
  774SOL     OW  777   1.017   1.901   2.615
  774SOL    HW1  778   0.945   1.906   2.546
  774SOL    HW2  779   0.993   1.832   2.684
  775SOL     OW  780   1.429   3.035   2.729
  775SOL    HW1  781   1.374   2.951   2.722
  775SOL    HW2  782   1.455   3.064   2.637
  776SOL     OW  783   1.466   2.452   2.854
  776SOL    HW1  784   1.436   2.357   2.861
  776SOL    HW2  785   1.539   2.468   2.920
  777SOL     OW  786   1.857   2.695   2.239
  777SOL    HW1  787   1.899   2.631   2.303
  777SOL    HW2  788   1.819   2.644   2.161
  779SOL     OW  789   1.664   3.142   2.519
  779SOL    HW1  790   1.763   3.150   2.533
  779SOL    HW2  791   1.619   3.226   2.550
  780SOL     OW  792   1.390   2.437   1.940
  780SOL    HW1  793   1.336   2.416   2.021
  780SOL    HW2  794   1.481   2.396   1.949
  781SOL     OW  795   0.527   2.118   2.190
  781SOL    HW1  796   0.554   2.059   2.115
  781SOL    HW2  797   0.527   2.213   2.159
  782SOL     OW  798   1.754   3.085   3.450
  782SOL    HW1  799   1.845   3.046   3.437
  782SOL    HW2  800   1.762   3.181   3.474
  785SOL     OW  801   1.111   3.057   2.962
  785SOL    HW1  802   1.071   3.101   3.043
  785SOL    HW2  803   1.070   3.094   2.879
  786SOL     OW  804   1.638   2.961   2.941
  786SOL    HW1  805   1.643   3.042   3.000
  786SOL    HW2  806   1.552   2.963   2.890
  787SOL     OW  807   0.915   1.951   3.264
  787SOL    HW1  808   0.940   1.931   3.169
  787SOL    HW2  809   0.987   2.007   3.306
  789SOL     OW  810   0.705   2.912   2.230
  789SOL    HW1  811   0.691   2.919   2.329
  789SOL    HW2  812   0.789   2.861   2.212
  791SOL     OW  813   1.274   2.248   3.124
  791SOL    HW1  814   1.295   2.322   3.188
  791SOL    HW2  815   1.185   2.265   3.081
  794SOL     OW  816   0.566   2.399   2.727
  794SOL    HW1  817   0.578   2.465   2.653
  794SOL    HW2  818   0.612   2.433   2.810
  795SOL     OW  819   1.252   3.210   2.250
  795SOL    HW1  820   1.302   3.287   2.290
  795SOL    HW2  821   1.157   3.212   2.282
  796SOL     OW  822   1.272   3.307   3.004
  796SOL    HW1  823   1.319   3.320   3.091
  796SOL    HW2  824   1.206   3.233   3.013
  797SOL     OW  825   1.582   2.501   2.334
  797SOL    HW1  826   1.551   2.562   2.407
  797SOL    HW2  827   1.632   2.553   2.265
  800SOL     OW  828   1.587   2.641   3.532
  800SOL    HW1  829   1.495   2.679   3.527
  800SOL    HW2  830   1.647   2.688   3.467
  804SOL     OW  831   1.360   2.724   2.907
  804SOL    HW1  832   1.285   2.724   2.841
  804SOL    HW2  833   1.397   2.632   2.916
  805SOL     OW  834   1.209   2.387   2.137
  805SOL    HW1  835   1.222   2.303   2.191
  805SOL    HW2  836   1.180   2.461   2.197
  808SOL     OW  837   0.732   2.496   2.926
  808SOL    HW1  838   0.791   2.470   2.850
  808SOL    HW2  839   0.704   2.592   2.915
  811SOL     OW  840   1.622   2.229   2.236
  811SOL    HW1  841   1.624   2.153   2.300
  811SOL    HW2  842   1.574   2.306   2.276
  812SOL     OW  843   1.023   2.628   2.828
  812SOL    HW1  844   1.038   2.649   2.924
  812SOL    HW2  845   0.993   2.533   2.819
  816SOL     OW  846   1.540   2.136   1.987
  816SOL    HW1  847   1.479   2.061   2.010
  816SOL    HW2  848   1.562   2.188   2.070
  817SOL     OW  849   1.303   2.700   1.904
  817SOL    HW1  850   1.337   2.607   1.919
  817SOL    HW2  851   1.321   2.727   1.809
  818SOL     OW  852   1.068   3.195   2.711
  818SOL    HW1  853   1.075   3.111   2.656
  818SOL    HW2  854   1.130   3.264   2.675
  821SOL     OW  855   1.138   2.242   3.540
  821SOL    HW1  856   1.093   2.305   3.604
  821SOL    HW2  857   1.231   2.273   3.523
  822SOL     OW  858   1.160   2.069   3.339
  822SOL    HW1  859   1.160   2.133   3.416
  822SOL    HW2  860   1.188   2.117   3.256
  826SOL     OW  861   1.002   2.658   3.100
  826SOL    HW1  862   1.043   2.626   3.186
  826SOL    HW2  863   0.906   2.631   3.097
  829SOL     OW  864   1.369   2.812   3.522
  829SOL    HW1  865   1.408   2.901   3.542
  829SOL    HW2  866   1.379   2.792   3.425
  830SOL     OW  867   0.815   2.434   2.187
  830SOL    HW1  868   0.822   2.345   2.141
  830SOL    HW2  869   0.721   2.468   2.179
  831SOL     OW  870   1.657   2.466   3.068
  831SOL    HW1  871   1.619   2.397   3.130
  831SOL    HW2  872   1.739   2.430   3.024
  833SOL     OW  873   0.671   2.326   3.131
  833SOL    HW1  874   0.637   2.237   3.101
  833SOL    HW2  875   0.697   2.380   3.051
  835SOL     OW  876   0.473   2.362   2.053
  835SOL    HW1  877   0.534   2.442   2.057
  835SOL    HW2  878   0.378   2.393   2.060
  837SOL     OW  879   1.347   2.921   3.096
  837SOL    HW1  880   1.371   2.858   3.022
  837SOL    HW2  881   1.257   2.961   3.078
  838SOL     OW  882   1.302   2.717   2.171
  838SOL    HW1  883   1.216   2.686   2.213
  838SOL    HW2  884   1.298   2.703   2.072
  843SOL     OW  885   1.726   1.997   2.385
  843SOL    HW1  886   1.799   1.980   2.318
  843SOL    HW2  887   1.695   1.910   2.423
  844SOL     OW  888   1.388   3.435   2.339
  844SOL    HW1  889   1.455   3.447   2.265
  844SOL    HW2  890   1.348   3.524   2.362
  846SOL     OW  891   1.280   2.789   2.534
  846SOL    HW1  892   1.340   2.708   2.536
  846SOL    HW2  893   1.320   2.858   2.474
  850SOL     OW  894   1.841   2.037   2.825
  850SOL    HW1  895   1.880   1.952   2.789
  850SOL    HW2  896   1.743   2.039   2.806
  852SOL     OW  897   1.194   3.474   1.893
  852SOL    HW1  898   1.200   3.381   1.930
  852SOL    HW2  899   1.135   3.474   1.813
  854SOL     OW  900   0.916   2.772   2.153
  854SOL    HW1  901   0.979   2.810   2.085
  854SOL    HW2  902   0.956   2.689   2.192
  855SOL     OW  903   1.504   3.469   1.906
  855SOL    HW1  904   1.412   3.506   1.913
  855SOL    HW2  905   1.542   3.489   1.816
  857SOL     OW  906   1.614   3.154   3.151
  857SOL    HW1  907   1.674   3.157   3.231
  857SOL    HW2  908   1.539   3.218   3.164
  858SOL     OW  909   1.039   2.960   2.558
  858SOL    HW1  910   0.969   2.913   2.612
  858SOL    HW2  911   1.098   2.892   2.515
  859SOL     OW  912   1.014   2.098   2.833
  859SOL    HW1  913   1.006   2.062   2.740
  859SOL    HW2  914   1.012   2.022   2.898
  861SOL     OW  915   1.709   2.247   3.243
  861SOL    HW1  916   1.782   2.316   3.247
  861SOL    HW2  917   1.737   2.172   3.184
  866SOL     OW  918   1.440   2.718   3.260
  866SOL    HW1  919   1.383   2.770   3.197
  866SOL    HW2  920   1.536   2.730   3.236
  868SOL     OW  921   1.183   3.197   1.981
  868SOL    HW1  922   1.084   3.186   1.983
  868SOL    HW2  923   1.217   3.212   2.074
  874SOL     OW  924   1.674   2.745   3.116
  874SOL    HW1  925   1.647   2.656   3.079
  874SOL    HW2  926   1.675   2.813   3.043
  875SOL     OW  927   1.225   2.187   2.311
  875SOL    HW1  928   1.290   2.113   2.300
  875SOL    HW2  929   1.245   2.237   2.395
  876SOL     OW  930   0.594   2.607   2.514
  876SOL    HW1  931   0.644   2.692   2.495
  876SOL    HW2  932   0.506   2.609   2.466
  877SOL     OW  933   1.777   2.204   3.504
  877SOL    HW1  934   1.760   2.235   3.410
  877SOL    HW2  935   1.693   2.167   3.542
  878SOL     OW  936   1.730   2.796   3.379
  878SOL    HW1  937   1.768   2.887   3.394
  878SOL    HW2  938   1.722   2.779   3.280
  879SOL     OW  939   0.859   3.236   1.878
  879SOL    HW1  940   0.813   3.251   1.966
  879SOL    HW2  941   0.903   3.321   1.848
  881SOL     OW  942   0.859   2.818   2.723
  881SOL    HW1  943   0.913   2.749   2.771
  881SOL    HW2  944   0.827   2.887   2.789
  882SOL     OW  945   1.083   2.846   1.949
  882SOL    HW1  946   1.060   2.899   1.867
  882SOL    HW2  947   1.164   2.790   1.930
  883SOL     OW  948   1.861   3.431   2.713
  883SOL    HW1  949   1.790   3.419   2.643
  883SOL    HW2  950   1.862   3.352   2.773
  887SOL     OW  951   1.824   2.054   3.089
  887SOL    HW1  952   1.820   1.964   3.133
  887SOL    HW2  953   1.827   2.043   2.990
  888SOL     OW  954   0.428   2.286   2.382
  888SOL    HW1  955   0.458   2.214   2.320
  888SOL    HW2  956   0.389   2.246   2.465
  889SOL     OW  957   1.705   3.349   2.966
  889SOL    HW1  958   1.612   3.324   2.939
  889SOL    HW2  959   1.731   3.299   3.048
  892SOL     OW  960   1.424   2.076   2.974
  892SOL    HW1  961   1.476   2.011   3.029
  892SOL    HW2  962   1.375   2.139   3.035
  893SOL     OW  963   1.001   1.896   3.016
  893SOL    HW1  964   0.938   1.824   2.985
  893SOL    HW2  965   1.094   1.860   3.016
  894SOL     OW  966   0.770   3.192   2.163
  894SOL    HW1  967   0.724   3.105   2.180
  894SOL    HW2  968   0.861   3.189   2.204
  896SOL     OW  969   1.352   1.914   2.030
  896SOL    HW1  970   1.387   1.873   1.946
  896SOL    HW2  971   1.262   1.876   2.050
  897SOL     OW  972   1.300   2.315   2.553
  897SOL    HW1  973   1.241   2.395   2.557
  897SOL    HW2  974   1.315   2.280   2.646
  898SOL     OW  975   1.593   2.083   2.744
  898SOL    HW1  976   1.509   2.082   2.798
  898SOL    HW2  977   1.595   2.166   2.688
 1079SOL     OW  978   2.431   1.275   1.165
 1079SOL    HW1  979   2.338   1.268   1.128
 1079SOL    HW2  980   2.442   1.364   1.209
 1083SOL     OW  981   2.630   1.144   1.023
 1083SOL    HW1  982   2.552   1.161   1.083
 1083SOL    HW2  983   2.664   1.231   0.987
 1084SOL     OW  984   2.712   0.798   1.823
 1084SOL    HW1  985   2.708   0.874   1.888
 1084SOL    HW2  986   2.734   0.834   1.732
 1086SOL     OW  987   2.548   1.161   1.803
 1086SOL    HW1  988   2.608   1.240   1.817
 1086SOL    HW2  989   2.462   1.192   1.762
 1087SOL     OW  990   2.197   1.435   1.061
 1087SOL    HW1  991   2.119   1.404   1.008
 1087SOL    HW2  992   2.255   1.493   1.004
 1088SOL     OW  993   3.322   1.505   1.339
 1088SOL    HW1  994   3.346   1.599   1.365
 1088SOL    HW2  995   3.306   1.451   1.421
 1091SOL     OW  996   2.093   1.713   0.483
 1091SOL    HW1  997   2.127   1.790   0.537
 1091SOL    HW2  998   2.137   1.713   0.393
 1092SOL     OW  999   2.989   1.341   1.690
 1092SOL    HW1 1000   3.036   1.341   1.778
 1092SOL    HW2 1001   2.941   1.254   1.679
 1093SOL     OW 1002   2.092   1.434   0.538
 1093SOL    HW1 1003   2.066   1.530   0.538
 1093SOL    HW2 1004   2.021   1.380   0.583
 1094SOL     OW 1005   2.102   1.091   0.886
 1094SOL    HW1 1006   2.116   1.007   0.938
 1094SOL    HW2 1007   2.047   1.155   0.941
 1095SOL     OW 1008   2.482   1.786   1.439
 1095SOL    HW1 1009   2.390   1.769   1.474
 1095SOL    HW2 1010   2.510   1.878   1.465
 1103SOL     OW 1011   1.975   0.737   1.597
 1103SOL    HW1 1012   2.063   0.724   1.642
 1103SOL    HW2 1013   1.962   0.834   1.575
 1104SOL     OW 1014   2.475   1.365   0.726
 1104SOL    HW1 1015   2.426   1.278   0.735
 1104SOL    HW2 1016   2.452   1.408   0.639
 1105SOL     OW 1017   3.155   1.228   1.423
 1105SOL    HW1 1018   3.192   1.155   1.365
 1105SOL    HW2 1019   3.207   1.233   1.508
 1107SOL     OW 1020   2.059   0.976   1.264
 1107SOL    HW1 1021   2.148   0.931   1.250
 1107SOL    HW2 1022   1.986   0.911   1.245
 1109SOL     OW 1023   3.049   1.792   1.616
 1109SOL    HW1 1024   3.073   1.852   1.540
 1109SOL    HW2 1025   3.056   1.697   1.586
 1116SOL     OW 1026   2.669   0.605   1.465
 1116SOL    HW1 1027   2.622   0.602   1.554
 1116SOL    HW2 1028   2.618   0.550   1.399
 1118SOL     OW 1029   2.835   0.890   1.572
 1118SOL    HW1 1030   2.881   0.806   1.543
 1118SOL    HW2 1031   2.779   0.924   1.497
 1122SOL     OW 1032   1.992   1.821   1.571
 1122SOL    HW1 1033   1.982   1.806   1.670
 1122SOL    HW2 1034   1.906   1.857   1.535
 1128SOL     OW 1035   2.213   1.801   0.853
 1128SOL    HW1 1036   2.263   1.715   0.859
 1128SOL    HW2 1037   2.278   1.878   0.850
 1130SOL     OW 1038   3.089   1.550   1.506
 1130SOL    HW1 1039   3.095   1.473   1.570
 1130SOL    HW2 1040   3.037   1.524   1.426
 1133SOL     OW 1041   2.323   1.266   1.727
 1133SOL    HW1 1042   2.273   1.267   1.641
 1133SOL    HW2 1043   2.260   1.248   1.803
 1139SOL     OW 1044   2.111   1.785   1.241
 1139SOL    HW1 1045   2.168   1.720   1.291
 1139SOL    HW2 1046   2.095   1.752   1.148
 1140SOL     OW 1047   2.802   1.698   0.904
 1140SOL    HW1 1048   2.882   1.641   0.925
 1140SOL    HW2 1049   2.753   1.658   0.827
 1145SOL     OW 1050   2.750   1.514   1.195
 1145SOL    HW1 1051   2.727   1.489   1.101
 1145SOL    HW2 1052   2.811   1.445   1.234
 1147SOL     OW 1053   2.665   1.402   0.924
 1147SOL    HW1 1054   2.755   1.416   0.882
 1147SOL    HW2 1055   2.594   1.404   0.853
 1153SOL     OW 1056   2.938   0.683   1.464
 1153SOL    HW1 1057   2.858   0.622   1.467
 1153SOL    HW2 1058   3.019   0.630   1.440
 1154SOL     OW 1059   3.089   1.570   0.793
 1154SOL    HW1 1060   3.110   1.644   0.728
 1154SOL    HW2 1061   3.157   1.570   0.866
 1155SOL     OW 1062   2.321   1.152   0.741
 1155SOL    HW1 1063   2.250   1.125   0.806
 1155SOL    HW2 1064   2.295   1.124   0.648
 1158SOL     OW 1065   1.940   0.556   1.386
 1158SOL    HW1 1066   2.032   0.555   1.345
 1158SOL    HW2 1067   1.934   0.630   1.453
 1170SOL     OW 1068   2.926   1.347   1.340
 1170SOL    HW1 1069   2.846   1.324   1.395
 1170SOL    HW2 1070   3.009   1.321   1.389
 1171SOL     OW 1071   3.454   1.629   1.625
 1171SOL    HW1 1072   3.481   1.663   1.535
 1171SOL    HW2 1073   3.533   1.591   1.671
 1172SOL     OW 1074   2.973   1.195   1.100
 1172SOL    HW1 1075   2.933   1.239   1.181
 1172SOL    HW2 1076   2.932   1.232   1.017
 1175SOL     OW 1077   2.842   1.116   1.719
 1175SOL    HW1 1078   2.743   1.122   1.729
 1175SOL    HW2 1079   2.865   1.036   1.663
 1177SOL     OW 1080   2.272   0.813   1.251
 1177SOL    HW1 1081   2.358   0.825   1.301
 1177SOL    HW2 1082   2.230   0.726   1.278
 1179SOL     OW 1083   1.926   1.564   1.331
 1179SOL    HW1 1084   1.880   1.646   1.297
 1179SOL    HW2 1085   2.024   1.583   1.340
 1183SOL     OW 1086   3.134   1.445   1.142
 1183SOL    HW1 1087   3.181   1.458   1.229
 1183SOL    HW2 1088   3.068   1.371   1.151
 1185SOL     OW 1089   2.216   1.510   1.329
 1185SOL    HW1 1090   2.195   1.466   1.242
 1185SOL    HW2 1091   2.313   1.536   1.332
 1186SOL     OW 1092   2.264   0.751   1.598
 1186SOL    HW1 1093   2.332   0.806   1.551
 1186SOL    HW2 1094   2.304   0.663   1.625
 1190SOL     OW 1095   2.435   0.870   1.029
 1190SOL    HW1 1096   2.479   0.959   1.020
 1190SOL    HW2 1097   2.372   0.870   1.106
 1194SOL     OW 1098   1.899   1.310   1.282
 1194SOL    HW1 1099   1.952   1.261   1.350
 1194SOL    HW2 1100   1.921   1.408   1.287
 1200SOL     OW 1101   2.842   1.573   1.700
 1200SOL    HW1 1102   2.822   1.617   1.612
 1200SOL    HW2 1103   2.881   1.482   1.684
 1201SOL     OW 1104   3.721   1.518   1.605
 1201SOL    HW1 1105   3.735   1.545   1.510
 1201SOL    HW2 1106   3.804   1.540   1.658
 1202SOL     OW 1107   2.212   0.898   1.804
 1202SOL    HW1 1108   2.288   0.942   1.852
 1202SOL    HW2 1109   2.247   0.851   1.722
 1205SOL     OW 1110   2.930   1.333   0.849
 1205SOL    HW1 1111   2.937   1.249   0.794
 1205SOL    HW2 1112   2.992   1.402   0.813
 1206SOL     OW 1113   2.181   0.810   0.949
 1206SOL    HW1 1114   2.274   0.846   0.954
 1206SOL    HW2 1115   2.175   0.725   1.001
 1211SOL     OW 1116   1.950   1.801   0.927
 1211SOL    HW1 1117   1.908   1.715   0.900
 1211SOL    HW2 1118   2.044   1.804   0.893
 1212SOL     OW 1119   2.366   1.568   0.910
 1212SOL    HW1 1120   2.432   1.642   0.919
 1212SOL    HW2 1121   2.410   1.489   0.868
 1213SOL     OW 1122   2.864   0.796   1.238
 1213SOL    HW1 1123   2.905   0.764   1.324
 1213SOL    HW2 1124   2.768   0.769   1.235
 1215SOL     OW 1125   2.051   0.520   1.722
 1215SOL    HW1 1126   2.110   0.480   1.652
 1215SOL    HW2 1127   1.993   0.591   1.681
 1216SOL     OW 1128   3.231   0.950   1.660
 1216SOL    HW1 1129   3.270   1.039   1.680
 1216SOL    HW2 1130   3.241   0.930   1.563
 1219SOL     OW 1131   2.114   1.564   1.744
 1219SOL    HW1 1132   2.084   1.621   1.820
 1219SOL    HW2 1133   2.107   1.467   1.770
 1221SOL     OW 1134   2.792   1.678   1.465
 1221SOL    HW1 1135   2.768   1.660   1.370
 1221SOL    HW2 1136   2.822   1.772   1.475
 1223SOL     OW 1137   2.021   1.137   1.466
 1223SOL    HW1 1138   2.043   1.076   1.542
 1223SOL    HW2 1139   2.031   1.088   1.380
 1224SOL     OW 1140   3.209   1.059   1.234
 1224SOL    HW1 1141   3.233   0.996   1.160
 1224SOL    HW2 1142   3.119   1.099   1.216
 1227SOL     OW 1143   3.114   1.731   1.128
 1227SOL    HW1 1144   3.198   1.736   1.074
 1227SOL    HW2 1145   3.091   1.635   1.146
 1228SOL     OW 1146   1.945   1.258   1.022
 1228SOL    HW1 1147   1.940   1.257   1.122
 1228SOL    HW2 1148   1.862   1.217   0.984
 1229SOL     OW 1149   2.550   1.662   1.716
 1229SOL    HW1 1150   2.494   1.743   1.725
 1229SOL    HW2 1151   2.602   1.666   1.630
 1233SOL     OW 1152   1.992   1.794   1.851
 1233SOL    HW1 1153   1.951   1.720   1.904
 1233SOL    HW2 1154   2.056   1.845   1.909
 1235SOL     OW 1155   2.692   1.273   1.422
 1235SOL    HW1 1156   2.687   1.306   1.517
 1235SOL    HW2 1157   2.606   1.292   1.376
 1237SOL     OW 1158   3.512   1.720   1.394
 1237SOL    HW1 1159   3.565   1.730   1.310
 1237SOL    HW2 1160   3.485   1.810   1.428
 1241SOL     OW 1161   2.684   1.002   1.372
 1241SOL    HW1 1162   2.724   1.001   1.280
 1241SOL    HW2 1163   2.694   1.094   1.412
 1244SOL     OW 1164   2.234   1.288   1.490
 1244SOL    HW1 1165   2.221   1.381   1.456
 1244SOL    HW2 1166   2.150   1.236   1.477
 1245SOL     OW 1167   3.476   1.292   1.289
 1245SOL    HW1 1168   3.536   1.295   1.369
 1245SOL    HW2 1169   3.401   1.356   1.302
 1248SOL     OW 1170   2.452   1.487   0.491
 1248SOL    HW1 1171   2.494   1.429   0.421
 1248SOL    HW2 1172   2.408   1.566   0.447
 1251SOL     OW 1173   1.967   1.013   1.726
 1251SOL    HW1 1174   1.890   0.980   1.780
 1251SOL    HW2 1175   2.052   0.983   1.768
 1257SOL     OW 1176   2.475   0.842   1.431
 1257SOL    HW1 1177   2.531   0.923   1.414
 1257SOL    HW2 1178   2.534   0.762   1.434
 1258SOL     OW 1179   3.355   1.767   0.959
 1258SOL    HW1 1180   3.388   1.831   0.890
 1258SOL    HW2 1181   3.421   1.761   1.034
 1259SOL     OW 1182   2.578   0.565   1.708
 1259SOL    HW1 1183   2.597   0.630   1.782
 1259SOL    HW2 1184   2.638   0.485   1.717
 1260SOL     OW 1185   3.312   1.220   1.633
 1260SOL    HW1 1186   3.303   1.210   1.732
 1260SOL    HW2 1187   3.408   1.213   1.607
 1261SOL     OW 1188   2.252   1.741   1.560
 1261SOL    HW1 1189   2.161   1.782   1.558
 1261SOL    HW2 1190   2.245   1.647   1.592
 1268SOL     OW 1191   2.523   1.790   0.953
 1268SOL    HW1 1192   2.477   1.878   0.940
 1268SOL    HW2 1193   2.622   1.802   0.946
 1269SOL     OW 1194   2.721   0.956   0.861
 1269SOL    HW1 1195   2.775   0.887   0.909
 1269SOL    HW2 1196   2.689   1.025   0.927
 1272SOL     OW 1197   2.083   1.314   1.844
 1272SOL    HW1 1198   2.018   1.241   1.823
 1272SOL    HW2 1199   2.087   1.328   1.942
 1273SOL     OW 1200   1.941   1.240   0.653
 1273SOL    HW1 1201   1.940   1.193   0.741
 1273SOL    HW2 1202   2.023   1.212   0.602
 1274SOL     OW 1203   2.534   1.391   1.624
 1274SOL    HW1 1204   2.456   1.341   1.662
 1274SOL    HW2 1205   2.531   1.486   1.655
 1278SOL     OW 1206   2.179   0.547   1.280
 1278SOL    HW1 1207   2.217   0.488   1.352
 1278SOL    HW2 1208   2.219   0.521   1.192
 1279SOL     OW 1209   2.674   1.586   0.687
 1279SOL    HW1 1210   2.706   1.596   0.593
 1279SOL    HW2 1211   2.595   1.524   0.689
 1283SOL     OW 1212   2.480   1.567   1.284
 1283SOL    HW1 1213   2.475   1.649   1.341
 1283SOL    HW2 1214   2.569   1.564   1.239
 1289SOL     OW 1215   2.092   0.628   1.975
 1289SOL    HW1 1216   1.999   0.626   2.012
 1289SOL    HW2 1217   2.093   0.589   1.883
 1291SOL     OW 1218   1.881   0.368   2.509
 1291SOL    HW1 1219   1.799   0.411   2.548
 1291SOL    HW2 1220   1.853   0.295   2.446
 1292SOL     OW 1221   2.431   1.275   3.027
 1292SOL    HW1 1222   2.338   1.268   2.990
 1292SOL    HW2 1223   2.442   1.364   3.071
 1293SOL     OW 1224   3.417   1.511   2.565
 1293SOL    HW1 1225   3.360   1.495   2.646
 1293SOL    HW2 1226   3.358   1.521   2.485
 1294SOL     OW 1227   2.997   0.703   2.579
 1294SOL    HW1 1228   3.054   0.781   2.554
 1294SOL    HW2 1229   2.937   0.729   2.655
 1296SOL     OW 1230   2.630   1.144   2.885
 1296SOL    HW1 1231   2.552   1.161   2.945
 1296SOL    HW2 1232   2.664   1.231   2.849
 1298SOL     OW 1233   2.547   1.012   2.527
 1298SOL    HW1 1234   2.616   0.996   2.597
 1298SOL    HW2 1235   2.474   1.069   2.565
 1300SOL     OW 1236   2.197   1.435   2.923
 1300SOL    HW1 1237   2.119   1.404   2.870
 1300SOL    HW2 1238   2.255   1.493   2.866
 1301SOL     OW 1239   3.322   1.505   3.201
 1301SOL    HW1 1240   3.346   1.599   3.227
 1301SOL    HW2 1241   3.306   1.451   3.283
 1304SOL     OW 1242   2.093   1.713   2.345
 1304SOL    HW1 1243   2.127   1.790   2.399
 1304SOL    HW2 1244   2.137   1.713   2.255
 1306SOL     OW 1245   2.092   1.434   2.400
 1306SOL    HW1 1246   2.066   1.530   2.400
 1306SOL    HW2 1247   2.021   1.380   2.445
 1307SOL     OW 1248   2.102   1.091   2.748
 1307SOL    HW1 1249   2.116   1.007   2.800
 1307SOL    HW2 1250   2.047   1.155   2.803
 1308SOL     OW 1251   2.482   1.786   3.301
 1308SOL    HW1 1252   2.390   1.769   3.336
 1308SOL    HW2 1253   2.510   1.878   3.327
 1309SOL     OW 1254   2.468   0.964   1.985
 1309SOL    HW1 1255   2.475   1.048   1.931
 1309SOL    HW2 1256   2.514   0.977   2.073
 1311SOL     OW 1257   1.984   0.643   2.425
 1311SOL    HW1 1258   1.939   0.555   2.442
 1311SOL    HW2 1259   1.983   0.697   2.509
 1312SOL     OW 1260   3.704   1.767   2.221
 1312SOL    HW1 1261   3.758   1.738   2.301
 1312SOL    HW2 1262   3.734   1.857   2.192
 1313SOL     OW 1263   1.889   1.596   1.979
 1313SOL    HW1 1264   1.870   1.500   2.000
 1313SOL    HW2 1265   1.856   1.654   2.054
 1315SOL     OW 1266   3.503   1.108   2.294
 1315SOL    HW1 1267   3.589   1.110   2.242
 1315SOL    HW2 1268   3.517   1.155   2.382
 1317SOL     OW 1269   2.475   1.365   2.588
 1317SOL    HW1 1270   2.426   1.278   2.597
 1317SOL    HW2 1271   2.452   1.408   2.501
 1320SOL     OW 1272   2.059   0.976   3.126
 1320SOL    HW1 1273   2.148   0.931   3.112
 1320SOL    HW2 1274   1.986   0.911   3.107
 1321SOL     OW 1275   3.387   0.999   2.052
 1321SOL    HW1 1276   3.324   0.923   2.065
 1321SOL    HW2 1277   3.435   1.017   2.138
 1322SOL     OW 1278   3.049   1.792   3.478
 1322SOL    HW1 1279   3.073   1.852   3.402
 1322SOL    HW2 1280   3.056   1.697   3.448
 1324SOL     OW 1281   3.328   1.417   2.815
 1324SOL    HW1 1282   3.269   1.423   2.895
 1324SOL    HW2 1283   3.313   1.329   2.769
 1325SOL     OW 1284   3.529   1.714   2.434
 1325SOL    HW1 1285   3.488   1.691   2.346
 1325SOL    HW2 1286   3.511   1.640   2.499
 1326SOL     OW 1287   2.460   0.729   2.132
 1326SOL    HW1 1288   2.484   0.798   2.064
 1326SOL    HW2 1289   2.382   0.762   2.186
 1328SOL     OW 1290   3.438   1.662   2.169
 1328SOL    HW1 1291   3.527   1.708   2.172
 1328SOL    HW2 1292   3.417   1.638   2.074
 1333SOL     OW 1293   2.903   0.701   2.291
 1333SOL    HW1 1294   2.929   0.697   2.387
 1333SOL    HW2 1295   2.818   0.650   2.277
 1334SOL     OW 1296   1.938   0.811   2.651
 1334SOL    HW1 1297   2.037   0.799   2.660
 1334SOL    HW2 1298   1.914   0.906   2.672
 1335SOL     OW 1299   1.992   1.821   3.433
 1335SOL    HW1 1300   1.982   1.806   3.532
 1335SOL    HW2 1301   1.906   1.857   3.397
 1338SOL     OW 1302   3.224   1.144   2.407
 1338SOL    HW1 1303   3.307   1.115   2.359
 1338SOL    HW2 1304   3.175   1.211   2.351
 1340SOL     OW 1305   2.870   1.456   2.339
 1340SOL    HW1 1306   2.824   1.528   2.287
 1340SOL    HW2 1307   2.866   1.476   2.437
 1341SOL     OW 1308   2.213   1.801   2.715
 1341SOL    HW1 1309   2.263   1.715   2.721
 1341SOL    HW2 1310   2.278   1.878   2.712
 1343SOL     OW 1311   3.089   1.550   3.368
 1343SOL    HW1 1312   3.095   1.473   3.432
 1343SOL    HW2 1313   3.037   1.524   3.288
 1344SOL     OW 1314   2.183   0.943   2.104
 1344SOL    HW1 1315   2.265   0.982   2.062
 1344SOL    HW2 1316   2.156   0.861   2.055
 1346SOL     OW 1317   2.323   1.266   3.589
 1346SOL    HW1 1318   2.273   1.267   3.503
 1346SOL    HW2 1319   2.260   1.248   3.665
 1347SOL     OW 1320   2.973   1.776   2.099
 1347SOL    HW1 1321   2.913   1.714   2.149
 1347SOL    HW2 1322   3.004   1.732   2.014
 1349SOL     OW 1323   3.494   1.377   1.943
 1349SOL    HW1 1324   3.462   1.471   1.933
 1349SOL    HW2 1325   3.418   1.314   1.931
 1350SOL     OW 1326   2.326   1.743   2.185
 1350SOL    HW1 1327   2.359   1.782   2.271
 1350SOL    HW2 1328   2.402   1.736   2.120
 1352SOL     OW 1329   2.111   1.785   3.103
 1352SOL    HW1 1330   2.168   1.720   3.153
 1352SOL    HW2 1331   2.095   1.752   3.010
 1353SOL     OW 1332   2.802   1.698   2.766
 1353SOL    HW1 1333   2.882   1.641   2.787
 1353SOL    HW2 1334   2.753   1.658   2.689
 1354SOL     OW 1335   2.244   0.700   2.342
 1354SOL    HW1 1336   2.289   0.610   2.339
 1354SOL    HW2 1337   2.150   0.689   2.375
 1358SOL     OW 1338   2.750   1.514   3.057
 1358SOL    HW1 1339   2.727   1.489   2.963
 1358SOL    HW2 1340   2.811   1.445   3.096
 1360SOL     OW 1341   2.665   1.402   2.786
 1360SOL    HW1 1342   2.755   1.416   2.744
 1360SOL    HW2 1343   2.594   1.404   2.715
 1363SOL     OW 1344   3.296   1.188   1.903
 1363SOL    HW1 1345   3.328   1.112   1.960
 1363SOL    HW2 1346   3.204   1.215   1.933
 1367SOL     OW 1347   3.089   1.570   2.655
 1367SOL    HW1 1348   3.110   1.644   2.590
 1367SOL    HW2 1349   3.157   1.570   2.728
 1368SOL     OW 1350   2.321   1.152   2.603
 1368SOL    HW1 1351   2.250   1.125   2.668
 1368SOL    HW2 1352   2.295   1.124   2.510
 1369SOL     OW 1353   3.133   1.797   2.453
 1369SOL    HW1 1354   3.177   1.861   2.389
 1369SOL    HW2 1355   3.083   1.849   2.523
 1370SOL     OW 1356   2.894   0.549   1.878
 1370SOL    HW1 1357   2.853   0.631   1.839
 1370SOL    HW2 1358   2.958   0.575   1.951
 1375SOL     OW 1359   3.291   1.173   2.729
 1375SOL    HW1 1360   3.236   1.089   2.722
 1375SOL    HW2 1361   3.317   1.202   2.637
 1378SOL     OW 1362   2.350   1.385   2.036
 1378SOL    HW1 1363   2.263   1.370   2.083
 1378SOL    HW2 1364   2.333   1.411   1.941
 1379SOL     OW 1365   3.526   1.280   2.519
 1379SOL    HW1 1366   3.625   1.288   2.533
 1379SOL    HW2 1367   3.481   1.364   2.550
 1383SOL     OW 1368   2.926   1.347   3.202
 1383SOL    HW1 1369   2.846   1.324   3.257
 1383SOL    HW2 1370   3.009   1.321   3.251
 1385SOL     OW 1371   2.973   1.195   2.962
 1385SOL    HW1 1372   2.933   1.239   3.043
 1385SOL    HW2 1373   2.932   1.232   2.879
 1389SOL     OW 1374   2.567   1.050   2.230
 1389SOL    HW1 1375   2.553   1.057   2.329
 1389SOL    HW2 1376   2.651   0.999   2.212
 1390SOL     OW 1377   2.272   0.813   3.113
 1390SOL    HW1 1378   2.358   0.825   3.163
 1390SOL    HW2 1379   2.230   0.726   3.140
 1392SOL     OW 1380   1.926   1.564   3.193
 1392SOL    HW1 1381   1.880   1.646   3.159
 1392SOL    HW2 1382   2.024   1.583   3.202
 1393SOL     OW 1383   2.229   1.100   2.363
 1393SOL    HW1 1384   2.222   1.183   2.307
 1393SOL    HW2 1385   2.233   1.020   2.303
 1394SOL     OW 1386   2.428   0.537   2.727
 1394SOL    HW1 1387   2.440   0.603   2.653
 1394SOL    HW2 1388   2.474   0.571   2.810
 1395SOL     OW 1389   3.114   1.348   2.250
 1395SOL    HW1 1390   3.164   1.425   2.290
 1395SOL    HW2 1391   3.019   1.350   2.282
 1396SOL     OW 1392   3.134   1.445   3.004
 1396SOL    HW1 1393   3.181   1.458   3.091
 1396SOL    HW2 1394   3.068   1.371   3.013
 1398SOL     OW 1395   2.216   1.510   3.191
 1398SOL    HW1 1396   2.195   1.466   3.104
 1398SOL    HW2 1397   2.313   1.536   3.194
 1403SOL     OW 1398   2.435   0.870   2.891
 1403SOL    HW1 1399   2.479   0.959   2.882
 1403SOL    HW2 1400   2.372   0.870   2.968
 1407SOL     OW 1401   1.899   1.310   3.144
 1407SOL    HW1 1402   1.952   1.261   3.212
 1407SOL    HW2 1403   1.921   1.408   3.149
 1408SOL     OW 1404   2.594   0.634   2.926
 1408SOL    HW1 1405   2.653   0.608   2.850
 1408SOL    HW2 1406   2.566   0.730   2.915
 1412SOL     OW 1407   2.885   0.766   2.828
 1412SOL    HW1 1408   2.900   0.787   2.924
 1412SOL    HW2 1409   2.855   0.671   2.819
 1413SOL     OW 1410   2.842   1.573   3.562
 1413SOL    HW1 1411   2.822   1.617   3.474
 1413SOL    HW2 1412   2.881   1.482   3.546
 1417SOL     OW 1413   3.165   0.838   1.904
 1417SOL    HW1 1414   3.199   0.745   1.919
 1417SOL    HW2 1415   3.183   0.865   1.809
 1418SOL     OW 1416   2.930   1.333   2.711
 1418SOL    HW1 1417   2.937   1.249   2.656
 1418SOL    HW2 1418   2.992   1.402   2.675
 1419SOL     OW 1419   2.181   0.810   2.811
 1419SOL    HW1 1420   2.274   0.846   2.816
 1419SOL    HW2 1421   2.175   0.725   2.863
 1420SOL     OW 1422   2.201   0.509   2.868
 1420SOL    HW1 1423   2.149   0.426   2.851
 1420SOL    HW2 1424   2.278   0.514   2.804
 1423SOL     OW 1425   1.870   1.326   2.062
 1423SOL    HW1 1426   1.777   1.347   2.031
 1423SOL    HW2 1427   1.880   1.227   2.075
 1424SOL     OW 1428   1.950   1.801   2.789
 1424SOL    HW1 1429   1.908   1.715   2.762
 1424SOL    HW2 1430   2.044   1.804   2.755
 1425SOL     OW 1431   2.366   1.568   2.772
 1425SOL    HW1 1432   2.432   1.642   2.781
 1425SOL    HW2 1433   2.410   1.489   2.730
 1427SOL     OW 1434   1.902   0.544   2.976
 1427SOL    HW1 1435   1.987   0.511   2.935
 1427SOL    HW2 1436   1.915   0.559   3.074
 1430SOL     OW 1437   2.677   0.572   2.187
 1430SOL    HW1 1438   2.684   0.483   2.141
 1430SOL    HW2 1439   2.583   0.606   2.179
 1432SOL     OW 1440   2.114   1.564   3.606
 1432SOL    HW1 1441   2.084   1.621   3.682
 1432SOL    HW2 1442   2.107   1.467   3.632
 1434SOL     OW 1443   2.792   1.678   3.327
 1434SOL    HW1 1444   2.768   1.660   3.232
 1434SOL    HW2 1445   2.822   1.772   3.337
 1435SOL     OW 1446   2.335   0.500   2.053
 1435SOL    HW1 1447   2.396   0.580   2.057
 1435SOL    HW2 1448   2.240   0.531   2.060
 1436SOL     OW 1449   2.021   1.137   3.328
 1436SOL    HW1 1450   2.043   1.076   3.404
 1436SOL    HW2 1451   2.031   1.088   3.242
 1438SOL     OW 1452   3.164   0.855   2.171
 1438SOL    HW1 1453   3.078   0.824   2.213
 1438SOL    HW2 1454   3.160   0.841   2.072
 1440SOL     OW 1455   3.114   1.731   2.990
 1440SOL    HW1 1456   3.198   1.736   2.936
 1440SOL    HW2 1457   3.091   1.635   3.008
 1441SOL     OW 1458   1.945   1.258   2.884
 1441SOL    HW1 1459   1.940   1.257   2.984
 1441SOL    HW2 1460   1.862   1.217   2.846
 1442SOL     OW 1461   2.550   1.662   3.578
 1442SOL    HW1 1462   2.494   1.743   3.587
 1442SOL    HW2 1463   2.602   1.666   3.492
 1444SOL     OW 1464   3.250   1.573   2.339
 1444SOL    HW1 1465   3.317   1.585   2.265
 1444SOL    HW2 1466   3.210   1.662   2.362
 1445SOL     OW 1467   1.992   1.794   3.713
 1445SOL    HW1 1468   1.951   1.720   3.766
 1445SOL    HW2 1469   2.056   1.845   3.771
 1446SOL     OW 1470   3.142   0.927   2.534
 1446SOL    HW1 1471   3.202   0.846   2.536
 1446SOL    HW2 1472   3.182   0.996   2.474
 1447SOL     OW 1473   2.692   1.273   3.284
 1447SOL    HW1 1474   2.687   1.306   3.379
 1447SOL    HW2 1475   2.606   1.292   3.238
 1448SOL     OW 1476   2.534   1.616   2.016
 1448SOL    HW1 1477   2.543   1.626   1.917
 1448SOL    HW2 1478   2.494   1.527   2.037
 1452SOL     OW 1479   3.056   1.612   1.893
 1452SOL    HW1 1480   3.062   1.519   1.930
 1452SOL    HW2 1481   2.997   1.612   1.813
 1453SOL     OW 1482   2.684   1.002   3.234
 1453SOL    HW1 1483   2.724   1.001   3.142
 1453SOL    HW2 1484   2.694   1.094   3.274
 1454SOL     OW 1485   2.778   0.910   2.153
 1454SOL    HW1 1486   2.841   0.948   2.085
 1454SOL    HW2 1487   2.818   0.827   2.192
 1455SOL     OW 1488   3.366   1.607   1.906
 1455SOL    HW1 1489   3.274   1.644   1.913
 1455SOL    HW2 1490   3.404   1.627   1.816
 1456SOL     OW 1491   2.234   1.288   3.352
 1456SOL    HW1 1492   2.221   1.381   3.318
 1456SOL    HW2 1493   2.150   1.236   3.339
 1458SOL     OW 1494   2.901   1.098   2.558
 1458SOL    HW1 1495   2.831   1.051   2.612
 1458SOL    HW2 1496   2.960   1.030   2.515
 1460SOL     OW 1497   2.452   1.487   2.353
 1460SOL    HW1 1498   2.494   1.429   2.283
 1460SOL    HW2 1499   2.408   1.566   2.309
 1462SOL     OW 1500   2.117   1.348   2.152
 1462SOL    HW1 1501   2.021   1.349   2.125
 1462SOL    HW2 1502   2.129   1.401   2.236
 1465SOL     OW 1503   1.937   0.345   1.895
 1465SOL    HW1 1504   1.845   0.317   1.866
 1465SOL    HW2 1505   1.968   0.422   1.839
 1468SOL     OW 1506   3.045   1.335   1.981
 1468SOL    HW1 1507   2.946   1.324   1.983
 1468SOL    HW2 1508   3.079   1.350   2.074
 1469SOL     OW 1509   2.475   0.842   3.293
 1469SOL    HW1 1510   2.531   0.923   3.276
 1469SOL    HW2 1511   2.534   0.762   3.296
 1470SOL     OW 1512   3.355   1.767   2.821
 1470SOL    HW1 1513   3.388   1.831   2.752
 1470SOL    HW2 1514   3.421   1.761   2.896
 1473SOL     OW 1515   2.252   1.741   3.422
 1473SOL    HW1 1516   2.161   1.782   3.420
 1473SOL    HW2 1517   2.245   1.647   3.454
 1476SOL     OW 1518   2.456   0.745   2.514
 1476SOL    HW1 1519   2.506   0.830   2.495
 1476SOL    HW2 1520   2.368   0.747   2.466
 1479SOL     OW 1521   2.721   1.374   1.878
 1479SOL    HW1 1522   2.675   1.389   1.966
 1479SOL    HW2 1523   2.765   1.459   1.848
 1480SOL     OW 1524   2.523   1.790   2.815
 1480SOL    HW1 1525   2.477   1.878   2.802
 1480SOL    HW2 1526   2.622   1.802   2.808
 1481SOL     OW 1527   2.721   0.956   2.723
 1481SOL    HW1 1528   2.775   0.887   2.771
 1481SOL    HW2 1529   2.689   1.025   2.789
 1482SOL     OW 1530   2.945   0.984   1.949
 1482SOL    HW1 1531   2.922   1.037   1.867
 1482SOL    HW2 1532   3.026   0.928   1.930
 1484SOL     OW 1533   2.083   1.314   3.706
 1484SOL    HW1 1534   2.018   1.241   3.685
 1484SOL    HW2 1535   2.087   1.328   3.804
 1485SOL     OW 1536   1.941   1.240   2.515
 1485SOL    HW1 1537   1.940   1.193   2.603
 1485SOL    HW2 1538   2.023   1.212   2.464
 1486SOL     OW 1539   2.534   1.391   3.486
 1486SOL    HW1 1540   2.456   1.341   3.524
 1486SOL    HW2 1541   2.531   1.486   3.517
 1488SOL     OW 1542   2.290   0.424   2.382
 1488SOL    HW1 1543   2.320   0.352   2.320
 1488SOL    HW2 1544   2.251   0.384   2.465
 1491SOL     OW 1545   2.674   1.586   2.549
 1491SOL    HW1 1546   2.706   1.596   2.455
 1491SOL    HW2 1547   2.595   1.524   2.551
 1494SOL     OW 1548   2.632   1.330   2.163
 1494SOL    HW1 1549   2.586   1.243   2.180
 1494SOL    HW2 1550   2.723   1.327   2.204
 1495SOL     OW 1551   2.480   1.567   3.146
 1495SOL    HW1 1552   2.475   1.649   3.203
 1495SOL    HW2 1553   2.569   1.564   3.101
 1499SOL     OW 1554   1.901   1.077   2.162
 1499SOL    HW1 1555   2.000   1.066   2.153
 1499SOL    HW2 1556   1.861   0.991   2.194
 1500SOL     OW 1557   2.737   1.646   2.199
 1500SOL    HW1 1558   2.660   1.611   2.145
 1500SOL    HW2 1559   2.705   1.717   2.261
 1552SOL     OW 1560   2.087   2.137   0.996
 1552SOL    HW1 1561   2.122   2.120   1.088
 1552SOL    HW2 1562   1.999   2.092   0.984
 1553SOL     OW 1563   1.881   2.230   0.647
 1553SOL    HW1 1564   1.799   2.273   0.686
 1553SOL    HW2 1565   1.853   2.157   0.584
 1554SOL     OW 1566   2.431   3.137   1.165
 1554SOL    HW1 1567   2.338   3.130   1.128
 1554SOL    HW2 1568   2.442   3.226   1.209
 1556SOL     OW 1569   2.997   2.565   0.717
 1556SOL    HW1 1570   3.054   2.643   0.692
 1556SOL    HW2 1571   2.937   2.591   0.793
 1558SOL     OW 1572   2.630   3.006   1.023
 1558SOL    HW1 1573   2.552   3.023   1.083
 1558SOL    HW2 1574   2.664   3.093   0.987
 1559SOL     OW 1575   2.712   2.660   1.823
 1559SOL    HW1 1576   2.708   2.736   1.888
 1559SOL    HW2 1577   2.734   2.696   1.732
 1560SOL     OW 1578   2.547   2.874   0.665
 1560SOL    HW1 1579   2.616   2.858   0.735
 1560SOL    HW2 1580   2.474   2.931   0.703
 1561SOL     OW 1581   2.548   3.023   1.803
 1561SOL    HW1 1582   2.608   3.102   1.817
 1561SOL    HW2 1583   2.462   3.054   1.762
 1562SOL     OW 1584   2.197   3.297   1.061
 1562SOL    HW1 1585   2.119   3.266   1.008
 1562SOL    HW2 1586   2.255   3.355   1.004
 1564SOL     OW 1587   2.300   2.254   1.499
 1564SOL    HW1 1588   2.382   2.198   1.508
 1564SOL    HW2 1589   2.219   2.196   1.503
 1567SOL     OW 1590   2.989   3.203   1.690
 1567SOL    HW1 1591   3.036   3.203   1.778
 1567SOL    HW2 1592   2.941   3.116   1.679
 1569SOL     OW 1593   2.102   2.953   0.886
 1569SOL    HW1 1594   2.116   2.869   0.938
 1569SOL    HW2 1595   2.047   3.017   0.941
 1570SOL     OW 1596   2.482   3.648   1.439
 1570SOL    HW1 1597   2.390   3.631   1.474
 1570SOL    HW2 1598   2.510   3.740   1.465
 1572SOL     OW 1599   3.456   1.976   1.480
 1572SOL    HW1 1600   3.438   2.043   1.408
 1572SOL    HW2 1601   3.453   2.022   1.569
 1573SOL     OW 1602   1.984   2.505   0.563
 1573SOL    HW1 1603   1.939   2.417   0.580
 1573SOL    HW2 1604   1.983   2.559   0.647
 1578SOL     OW 1605   1.975   2.599   1.597
 1578SOL    HW1 1606   2.063   2.586   1.642
 1578SOL    HW2 1607   1.962   2.696   1.575
 1580SOL     OW 1608   3.155   3.090   1.423
 1580SOL    HW1 1609   3.192   3.017   1.365
 1580SOL    HW2 1610   3.207   3.095   1.508
 1581SOL     OW 1611   2.671   1.866   0.502
 1581SOL    HW1 1612   2.711   1.957   0.493
 1581SOL    HW2 1613   2.571   1.874   0.508
 1582SOL     OW 1614   2.059   2.838   1.264
 1582SOL    HW1 1615   2.148   2.793   1.250
 1582SOL    HW2 1616   1.986   2.773   1.245
 1585SOL     OW 1617   2.179   2.113   1.801
 1585SOL    HW1 1618   2.250   2.184   1.807
 1585SOL    HW2 1619   2.091   2.152   1.829
 1589SOL     OW 1620   3.143   2.207   0.944
 1589SOL    HW1 1621   3.057   2.157   0.931
 1589SOL    HW2 1622   3.205   2.153   1.000
 1591SOL     OW 1623   2.669   2.467   1.465
 1591SOL    HW1 1624   2.622   2.464   1.554
 1591SOL    HW2 1625   2.618   2.412   1.399
 1592SOL     OW 1626   3.256   2.331   1.674
 1592SOL    HW1 1627   3.236   2.374   1.762
 1592SOL    HW2 1628   3.334   2.269   1.683
 1593SOL     OW 1629   2.835   2.752   1.572
 1593SOL    HW1 1630   2.881   2.668   1.543
 1593SOL    HW2 1631   2.779   2.786   1.497
 1594SOL     OW 1632   2.853   2.272   1.242
 1594SOL    HW1 1633   2.776   2.306   1.296
 1594SOL    HW2 1634   2.819   2.221   1.163
 1596SOL     OW 1635   1.938   2.673   0.789
 1596SOL    HW1 1636   2.037   2.661   0.798
 1596SOL    HW2 1637   1.914   2.768   0.810
 1597SOL     OW 1638   1.992   3.683   1.571
 1597SOL    HW1 1639   1.982   3.668   1.670
 1597SOL    HW2 1640   1.906   3.719   1.535
 1599SOL     OW 1641   3.581   2.447   1.831
 1599SOL    HW1 1642   3.555   2.536   1.795
 1599SOL    HW2 1643   3.579   2.379   1.758
 1601SOL     OW 1644   2.412   2.058   0.885
 1601SOL    HW1 1645   2.407   2.053   0.985
 1601SOL    HW2 1646   2.414   2.154   0.856
 1605SOL     OW 1647   3.089   3.412   1.506
 1605SOL    HW1 1648   3.095   3.335   1.570
 1605SOL    HW2 1649   3.037   3.386   1.426
 1608SOL     OW 1650   2.323   3.128   1.727
 1608SOL    HW1 1651   2.273   3.129   1.641
 1608SOL    HW2 1652   2.260   3.110   1.803
 1610SOL     OW 1653   2.064   2.147   1.498
 1610SOL    HW1 1654   1.984   2.207   1.485
 1610SOL    HW2 1655   2.054   2.098   1.584
 1614SOL     OW 1656   2.111   3.647   1.241
 1614SOL    HW1 1657   2.168   3.582   1.291
 1614SOL    HW2 1658   2.095   3.614   1.148
 1616SOL     OW 1659   2.244   2.562   0.480
 1616SOL    HW1 1660   2.289   2.472   0.477
 1616SOL    HW2 1661   2.150   2.551   0.513
 1617SOL     OW 1662   3.409   2.084   1.729
 1617SOL    HW1 1663   3.404   2.121   1.821
 1617SOL    HW2 1664   3.337   2.015   1.717
 1619SOL     OW 1665   2.643   2.126   1.749
 1619SOL    HW1 1666   2.710   2.065   1.792
 1619SOL    HW2 1667   2.570   2.145   1.814
 1620SOL     OW 1668   2.750   3.376   1.195
 1620SOL    HW1 1669   2.727   3.351   1.101
 1620SOL    HW2 1670   2.811   3.307   1.234
 1621SOL     OW 1671   3.213   2.452   1.433
 1621SOL    HW1 1672   3.241   2.409   1.518
 1621SOL    HW2 1673   3.238   2.548   1.434
 1622SOL     OW 1674   2.665   3.264   0.924
 1622SOL    HW1 1675   2.755   3.278   0.882
 1622SOL    HW2 1676   2.594   3.266   0.853
 1623SOL     OW 1677   2.784   2.365   0.899
 1623SOL    HW1 1678   2.759   2.356   0.803
 1623SOL    HW2 1679   2.832   2.283   0.930
 1624SOL     OW 1680   2.401   1.926   0.512
 1624SOL    HW1 1681   2.320   1.927   0.570
 1624SOL    HW2 1682   2.404   2.009   0.457
 1626SOL     OW 1683   2.797   2.098   0.480
 1626SOL    HW1 1684   2.749   2.139   0.402
 1626SOL    HW2 1685   2.896   2.096   0.461
 1627SOL     OW 1686   2.938   2.545   1.464
 1627SOL    HW1 1687   2.858   2.484   1.467
 1627SOL    HW2 1688   3.019   2.492   1.440
 1629SOL     OW 1689   2.321   3.014   0.741
 1629SOL    HW1 1690   2.250   2.987   0.806
 1629SOL    HW2 1691   2.295   2.986   0.648
 1632SOL     OW 1692   1.940   2.418   1.386
 1632SOL    HW1 1693   2.032   2.417   1.345
 1632SOL    HW2 1694   1.934   2.492   1.453
 1633SOL     OW 1695   2.423   2.084   1.147
 1633SOL    HW1 1696   2.461   2.000   1.184
 1633SOL    HW2 1697   2.335   2.103   1.191
 1634SOL     OW 1698   2.728   2.316   0.642
 1634SOL    HW1 1699   2.696   2.388   0.580
 1634SOL    HW2 1700   2.752   2.235   0.589
 1635SOL     OW 1701   2.879   1.901   0.753
 1635SOL    HW1 1702   2.807   1.906   0.684
 1635SOL    HW2 1703   2.855   1.832   0.822
 1637SOL     OW 1704   3.328   2.452   0.992
 1637SOL    HW1 1705   3.298   2.357   0.999
 1637SOL    HW2 1706   3.401   2.468   1.058
 1642SOL     OW 1707   2.389   2.118   0.328
 1642SOL    HW1 1708   2.416   2.059   0.253
 1642SOL    HW2 1709   2.389   2.213   0.297
 1644SOL     OW 1710   2.926   3.209   1.340
 1644SOL    HW1 1711   2.846   3.186   1.395
 1644SOL    HW2 1712   3.009   3.183   1.389
 1646SOL     OW 1713   2.973   3.057   1.100
 1646SOL    HW1 1714   2.933   3.101   1.181
 1646SOL    HW2 1715   2.932   3.094   1.017
 1648SOL     OW 1716   2.777   1.951   1.402
 1648SOL    HW1 1717   2.802   1.931   1.307
 1648SOL    HW2 1718   2.849   2.007   1.444
 1649SOL     OW 1719   2.842   2.978   1.719
 1649SOL    HW1 1720   2.743   2.984   1.729
 1649SOL    HW2 1721   2.865   2.898   1.663
 1651SOL     OW 1722   2.272   2.675   1.251
 1651SOL    HW1 1723   2.358   2.687   1.301
 1651SOL    HW2 1724   2.230   2.588   1.278
 1652SOL     OW 1725   3.136   2.248   1.262
 1652SOL    HW1 1726   3.157   2.322   1.326
 1652SOL    HW2 1727   3.047   2.265   1.219
 1653SOL     OW 1728   1.926   3.426   1.331
 1653SOL    HW1 1729   1.880   3.508   1.297
 1653SOL    HW2 1730   2.024   3.445   1.340
 1655SOL     OW 1731   2.428   2.399   0.865
 1655SOL    HW1 1732   2.440   2.465   0.791
 1655SOL    HW2 1733   2.474   2.433   0.948
 1659SOL     OW 1734   2.216   3.372   1.329
 1659SOL    HW1 1735   2.195   3.328   1.242
 1659SOL    HW2 1736   2.313   3.398   1.332
 1660SOL     OW 1737   2.264   2.613   1.598
 1660SOL    HW1 1738   2.332   2.668   1.551
 1660SOL    HW2 1739   2.304   2.525   1.625
 1661SOL     OW 1740   3.449   2.641   1.670
 1661SOL    HW1 1741   3.357   2.679   1.665
 1661SOL    HW2 1742   3.509   2.688   1.605
 1662SOL     OW 1743   2.875   1.967   1.770
 1662SOL    HW1 1744   2.881   2.052   1.718
 1662SOL    HW2 1745   2.907   1.891   1.713
 1663SOL     OW 1746   2.366   1.912   1.740
 1663SOL    HW1 1747   2.324   1.855   1.670
 1663SOL    HW2 1748   2.300   1.981   1.772
 1664SOL     OW 1749   2.435   2.732   1.029
 1664SOL    HW1 1750   2.479   2.821   1.020
 1664SOL    HW2 1751   2.372   2.732   1.106
 1665SOL     OW 1752   3.222   2.724   1.045
 1665SOL    HW1 1753   3.147   2.724   0.979
 1665SOL    HW2 1754   3.259   2.632   1.054
 1667SOL     OW 1755   2.169   2.075   1.231
 1667SOL    HW1 1756   2.146   2.112   1.321
 1667SOL    HW2 1757   2.139   1.980   1.225
 1668SOL     OW 1758   1.899   3.172   1.282
 1668SOL    HW1 1759   1.952   3.123   1.350
 1668SOL    HW2 1760   1.921   3.270   1.287
 1669SOL     OW 1761   2.594   2.496   1.064
 1669SOL    HW1 1762   2.653   2.470   0.988
 1669SOL    HW2 1763   2.566   2.592   1.053
 1670SOL     OW 1764   3.590   2.797   1.854
 1670SOL    HW1 1765   3.544   2.790   1.765
 1670SOL    HW2 1766   3.528   2.841   1.920
 1671SOL     OW 1767   2.169   1.925   0.618
 1671SOL    HW1 1768   2.158   2.019   0.651
 1671SOL    HW2 1769   2.164   1.862   0.695
 1673SOL     OW 1770   2.885   2.628   0.966
 1673SOL    HW1 1771   2.900   2.649   1.062
 1673SOL    HW2 1772   2.855   2.533   0.957
 1674SOL     OW 1773   2.842   3.435   1.700
 1674SOL    HW1 1774   2.822   3.479   1.612
 1674SOL    HW2 1775   2.881   3.344   1.684
 1676SOL     OW 1776   2.212   2.760   1.804
 1676SOL    HW1 1777   2.288   2.804   1.852
 1676SOL    HW2 1778   2.247   2.713   1.722
 1680SOL     OW 1779   2.181   2.672   0.949
 1680SOL    HW1 1780   2.274   2.708   0.954
 1680SOL    HW2 1781   2.175   2.587   1.001
 1681SOL     OW 1782   2.201   2.371   1.006
 1681SOL    HW1 1783   2.149   2.288   0.989
 1681SOL    HW2 1784   2.278   2.376   0.942
 1682SOL     OW 1785   3.000   2.242   1.678
 1682SOL    HW1 1786   2.955   2.305   1.742
 1682SOL    HW2 1787   3.093   2.273   1.661
 1683SOL     OW 1788   3.022   2.069   1.477
 1683SOL    HW1 1789   3.022   2.133   1.554
 1683SOL    HW2 1790   3.050   2.117   1.394
 1687SOL     OW 1791   2.864   2.658   1.238
 1687SOL    HW1 1792   2.905   2.626   1.324
 1687SOL    HW2 1793   2.768   2.631   1.235
 1688SOL     OW 1794   1.902   2.406   1.114
 1688SOL    HW1 1795   1.987   2.373   1.073
 1688SOL    HW2 1796   1.915   2.421   1.212
 1689SOL     OW 1797   2.051   2.382   1.722
 1689SOL    HW1 1798   2.110   2.342   1.652
 1689SOL    HW2 1799   1.993   2.453   1.681
 1690SOL     OW 1800   3.231   2.812   1.660
 1690SOL    HW1 1801   3.270   2.901   1.680
 1690SOL    HW2 1802   3.241   2.792   1.563
 1692SOL     OW 1803   3.519   2.466   1.206
 1692SOL    HW1 1804   3.481   2.397   1.268
 1692SOL    HW2 1805   3.601   2.430   1.162
 1693SOL     OW 1806   2.114   3.426   1.744
 1693SOL    HW1 1807   2.084   3.483   1.820
 1693SOL    HW2 1808   2.107   3.329   1.770
 1694SOL     OW 1809   2.533   2.326   1.269
 1694SOL    HW1 1810   2.499   2.237   1.239
 1694SOL    HW2 1811   2.559   2.380   1.189
 1695SOL     OW 1812   2.792   3.540   1.465
 1695SOL    HW1 1813   2.768   3.522   1.370
 1695SOL    HW2 1814   2.822   3.634   1.475
 1697SOL     OW 1815   2.021   2.999   1.466
 1697SOL    HW1 1816   2.043   2.938   1.542
 1697SOL    HW2 1817   2.031   2.950   1.380
 1698SOL     OW 1818   3.209   2.921   1.234
 1698SOL    HW1 1819   3.233   2.858   1.160
 1698SOL    HW2 1820   3.119   2.961   1.216
 1702SOL     OW 1821   1.945   3.120   1.022
 1702SOL    HW1 1822   1.940   3.119   1.122
 1702SOL    HW2 1823   1.862   3.079   0.984
 1703SOL     OW 1824   2.550   3.524   1.716
 1703SOL    HW1 1825   2.494   3.605   1.725
 1703SOL    HW2 1826   2.602   3.528   1.630
 1707SOL     OW 1827   1.992   3.656   1.851
 1707SOL    HW1 1828   1.951   3.582   1.904
 1707SOL    HW2 1829   2.056   3.707   1.909
 1709SOL     OW 1830   2.692   3.135   1.422
 1709SOL    HW1 1831   2.687   3.168   1.517
 1709SOL    HW2 1832   2.606   3.154   1.376
 1713SOL     OW 1833   2.125   2.188   0.720
 1713SOL    HW1 1834   2.046   2.239   0.686
 1713SOL    HW2 1835   2.116   2.173   0.818
 1715SOL     OW 1836   2.684   2.864   1.372
 1715SOL    HW1 1837   2.724   2.863   1.280
 1715SOL    HW2 1838   2.694   2.956   1.412
 1718SOL     OW 1839   2.234   3.150   1.490
 1718SOL    HW1 1840   2.221   3.243   1.456
 1718SOL    HW2 1841   2.150   3.098   1.477
 1721SOL     OW 1842   2.876   2.098   0.971
 1721SOL    HW1 1843   2.868   2.062   0.878
 1721SOL    HW2 1844   2.874   2.022   1.036
 1723SOL     OW 1845   3.571   2.247   1.381
 1723SOL    HW1 1846   3.644   2.316   1.385
 1723SOL    HW2 1847   3.599   2.172   1.322
 1725SOL     OW 1848   1.967   2.875   1.726
 1725SOL    HW1 1849   1.890   2.842   1.780
 1725SOL    HW2 1850   2.052   2.845   1.768
 1726SOL     OW 1851   2.534   2.065   1.489
 1726SOL    HW1 1852   2.624   2.049   1.449
 1726SOL    HW2 1853   2.542   2.070   1.588
 1728SOL     OW 1854   3.302   2.718   1.398
 1728SOL    HW1 1855   3.245   2.770   1.335
 1728SOL    HW2 1856   3.398   2.730   1.374
 1729SOL     OW 1857   1.934   2.028   0.318
 1729SOL    HW1 1858   1.917   2.111   0.264
 1729SOL    HW2 1859   2.024   1.991   0.296
 1731SOL     OW 1860   2.475   2.704   1.431
 1731SOL    HW1 1861   2.531   2.785   1.414
 1731SOL    HW2 1862   2.534   2.624   1.434
 1733SOL     OW 1863   2.578   2.427   1.708
 1733SOL    HW1 1864   2.597   2.492   1.782
 1733SOL    HW2 1865   2.638   2.347   1.717
 1734SOL     OW 1866   3.312   3.082   1.633
 1734SOL    HW1 1867   3.303   3.072   1.732
 1734SOL    HW2 1868   3.408   3.075   1.607
 1735SOL     OW 1869   2.252   3.603   1.560
 1735SOL    HW1 1870   2.161   3.644   1.558
 1735SOL    HW2 1871   2.245   3.509   1.592
 1736SOL     OW 1872   3.536   2.745   1.254
 1736SOL    HW1 1873   3.509   2.656   1.217
 1736SOL    HW2 1874   3.537   2.813   1.181
 1738SOL     OW 1875   2.456   2.607   0.652
 1738SOL    HW1 1876   2.506   2.692   0.633
 1738SOL    HW2 1877   2.368   2.609   0.604
 1739SOL     OW 1878   3.639   2.204   1.642
 1739SOL    HW1 1879   3.622   2.235   1.548
 1739SOL    HW2 1880   3.555   2.167   1.680
 1740SOL     OW 1881   3.592   2.796   1.517
 1740SOL    HW1 1882   3.630   2.887   1.532
 1740SOL    HW2 1883   3.584   2.779   1.418
 1743SOL     OW 1884   2.721   2.818   0.861
 1743SOL    HW1 1885   2.775   2.749   0.909
 1743SOL    HW2 1886   2.689   2.887   0.927
 1746SOL     OW 1887   2.083   3.176   1.844
 1746SOL    HW1 1888   2.018   3.103   1.823
 1746SOL    HW2 1889   2.087   3.190   1.942
 1747SOL     OW 1890   1.941   3.102   0.653
 1747SOL    HW1 1891   1.940   3.055   0.741
 1747SOL    HW2 1892   2.023   3.074   0.602
 1748SOL     OW 1893   2.534   3.253   1.624
 1748SOL    HW1 1894   2.456   3.203   1.662
 1748SOL    HW2 1895   2.531   3.348   1.655
 1750SOL     OW 1896   2.290   2.286   0.520
 1750SOL    HW1 1897   2.320   2.214   0.458
 1750SOL    HW2 1898   2.251   2.246   0.603
 1752SOL     OW 1899   2.179   2.409   1.280
 1752SOL    HW1 1900   2.217   2.350   1.352
 1752SOL    HW2 1901   2.219   2.383   1.192
 1754SOL     OW 1902   3.286   2.076   1.112
 1754SOL    HW1 1903   3.338   2.011   1.167
 1754SOL    HW2 1904   3.237   2.139   1.173
 1755SOL     OW 1905   2.863   1.896   1.154
 1755SOL    HW1 1906   2.800   1.824   1.123
 1755SOL    HW2 1907   2.956   1.860   1.154
 1757SOL     OW 1908   2.480   3.429   1.284
 1757SOL    HW1 1909   2.475   3.511   1.341
 1757SOL    HW2 1910   2.569   3.426   1.239
 1759SOL     OW 1911   3.162   2.315   0.691
 1759SOL    HW1 1912   3.103   2.395   0.695
 1759SOL    HW2 1913   3.177   2.280   0.784
 1763SOL     OW 1914   2.092   2.490   1.975
 1763SOL    HW1 1915   1.999   2.488   2.012
 1763SOL    HW2 1916   2.093   2.451   1.883
 1764SOL     OW 1917   2.087   2.137   2.858
 1764SOL    HW1 1918   2.122   2.120   2.950
 1764SOL    HW2 1919   1.999   2.092   2.846
 1765SOL     OW 1920   1.881   2.230   2.509
 1765SOL    HW1 1921   1.799   2.273   2.548
 1765SOL    HW2 1922   1.853   2.157   2.446
 1766SOL     OW 1923   2.431   3.137   3.027
 1766SOL    HW1 1924   2.338   3.130   2.990
 1766SOL    HW2 1925   2.442   3.226   3.071
 1768SOL     OW 1926   2.997   2.565   2.579
 1768SOL    HW1 1927   3.054   2.643   2.554
 1768SOL    HW2 1928   2.937   2.591   2.655
 1769SOL     OW 1929   3.617   2.469   2.093
 1769SOL    HW1 1930   3.605   2.456   1.994
 1769SOL    HW2 1931   3.587   2.388   2.142
 1770SOL     OW 1932   2.630   3.006   2.885
 1770SOL    HW1 1933   2.552   3.023   2.945
 1770SOL    HW2 1934   2.664   3.093   2.849
 1772SOL     OW 1935   2.547   2.874   2.527
 1772SOL    HW1 1936   2.616   2.858   2.597
 1772SOL    HW2 1937   2.474   2.931   2.565
 1774SOL     OW 1938   2.197   3.297   2.923
 1774SOL    HW1 1939   2.119   3.266   2.870
 1774SOL    HW2 1940   2.255   3.355   2.866
 1776SOL     OW 1941   2.300   2.254   3.361
 1776SOL    HW1 1942   2.382   2.198   3.370
 1776SOL    HW2 1943   2.219   2.196   3.365
 1777SOL     OW 1944   3.465   2.309   2.599
 1777SOL    HW1 1945   3.391   2.355   2.549
 1777SOL    HW2 1946   3.516   2.377   2.652
 1778SOL     OW 1947   2.093   3.575   2.345
 1778SOL    HW1 1948   2.127   3.652   2.399
 1778SOL    HW2 1949   2.137   3.575   2.255
 1780SOL     OW 1950   2.092   3.296   2.400
 1780SOL    HW1 1951   2.066   3.392   2.400
 1780SOL    HW2 1952   2.021   3.242   2.445
 1781SOL     OW 1953   2.102   2.953   2.748
 1781SOL    HW1 1954   2.116   2.869   2.800
 1781SOL    HW2 1955   2.047   3.017   2.803
 1783SOL     OW 1956   2.468   2.826   1.985
 1783SOL    HW1 1957   2.475   2.910   1.931
 1783SOL    HW2 1958   2.514   2.839   2.073
 1785SOL     OW 1959   1.984   2.505   2.425
 1785SOL    HW1 1960   1.939   2.417   2.442
 1785SOL    HW2 1961   1.983   2.559   2.509
 1787SOL     OW 1962   1.889   3.458   1.979
 1787SOL    HW1 1963   1.870   3.362   2.000
 1787SOL    HW2 1964   1.856   3.516   2.054
 1788SOL     OW 1965   3.551   2.784   2.474
 1788SOL    HW1 1966   3.646   2.755   2.482
 1788SOL    HW2 1967   3.543   2.849   2.399
 1789SOL     OW 1968   3.503   2.970   2.294
 1789SOL    HW1 1969   3.589   2.972   2.242
 1789SOL    HW2 1970   3.517   3.017   2.382
 1790SOL     OW 1971   1.975   2.599   3.459
 1790SOL    HW1 1972   2.063   2.586   3.504
 1790SOL    HW2 1973   1.962   2.696   3.437
 1791SOL     OW 1974   2.475   3.227   2.588
 1791SOL    HW1 1975   2.426   3.140   2.597
 1791SOL    HW2 1976   2.452   3.270   2.501
 1793SOL     OW 1977   2.671   1.866   2.364
 1793SOL    HW1 1978   2.711   1.957   2.355
 1793SOL    HW2 1979   2.571   1.874   2.370
 1794SOL     OW 1980   2.059   2.838   3.126
 1794SOL    HW1 1981   2.148   2.793   3.112
 1794SOL    HW2 1982   1.986   2.773   3.107
 1795SOL     OW 1983   3.387   2.861   2.052
 1795SOL    HW1 1984   3.324   2.785   2.065
 1795SOL    HW2 1985   3.435   2.879   2.138
 1797SOL     OW 1986   2.179   2.113   3.663
 1797SOL    HW1 1987   2.250   2.184   3.669
 1797SOL    HW2 1988   2.091   2.152   3.691
 1800SOL     OW 1989   2.460   2.591   2.132
 1800SOL    HW1 1990   2.484   2.660   2.064
 1800SOL    HW2 1991   2.382   2.624   2.186
 1801SOL     OW 1992   3.143   2.207   2.806
 1801SOL    HW1 1993   3.057   2.157   2.793
 1801SOL    HW2 1994   3.205   2.153   2.862
 1803SOL     OW 1995   2.669   2.467   3.327
 1803SOL    HW1 1996   2.622   2.464   3.416
 1803SOL    HW2 1997   2.618   2.412   3.261
 1805SOL     OW 1998   2.835   2.752   3.434
 1805SOL    HW1 1999   2.881   2.668   3.405
 1805SOL    HW2 2000   2.779   2.786   3.359
 1806SOL     OW 2001   2.853   2.272   3.104
 1806SOL    HW1 2002   2.776   2.306   3.158
 1806SOL    HW2 2003   2.819   2.221   3.025
 1807SOL     OW 2004   2.903   2.563   2.291
 1807SOL    HW1 2005   2.929   2.559   2.387
 1807SOL    HW2 2006   2.818   2.512   2.277
 1808SOL     OW 2007   1.938   2.673   2.651
 1808SOL    HW1 2008   2.037   2.661   2.660
 1808SOL    HW2 2009   1.914   2.768   2.672
 1810SOL     OW 2010   2.727   2.210   2.057
 1810SOL    HW1 2011   2.786   2.273   2.008
 1810SOL    HW2 2012   2.746   2.116   2.028
 1812SOL     OW 2013   3.224   3.006   2.407
 1812SOL    HW1 2014   3.307   2.977   2.359
 1812SOL    HW2 2015   3.175   3.073   2.351
 1813SOL     OW 2016   2.412   2.058   2.747
 1813SOL    HW1 2017   2.407   2.053   2.847
 1813SOL    HW2 2018   2.414   2.154   2.718
 1814SOL     OW 2019   2.870   3.318   2.339
 1814SOL    HW1 2020   2.824   3.390   2.287
 1814SOL    HW2 2021   2.866   3.338   2.437
 1815SOL     OW 2022   2.213   3.663   2.715
 1815SOL    HW1 2023   2.263   3.577   2.721
 1815SOL    HW2 2024   2.278   3.740   2.712
 1818SOL     OW 2025   2.183   2.805   2.104
 1818SOL    HW1 2026   2.265   2.844   2.062
 1818SOL    HW2 2027   2.156   2.723   2.055
 1819SOL     OW 2028   3.320   2.597   2.590
 1819SOL    HW1 2029   3.315   2.532   2.665
 1819SOL    HW2 2030   3.400   2.656   2.603
 1821SOL     OW 2031   2.973   3.638   2.099
 1821SOL    HW1 2032   2.913   3.576   2.149
 1821SOL    HW2 2033   3.004   3.594   2.014
 1822SOL     OW 2034   2.064   2.147   3.360
 1822SOL    HW1 2035   1.984   2.207   3.347
 1822SOL    HW2 2036   2.054   2.098   3.446
 1824SOL     OW 2037   2.326   3.605   2.185
 1824SOL    HW1 2038   2.359   3.644   2.271
 1824SOL    HW2 2039   2.402   3.598   2.120
 1825SOL     OW 2040   3.262   1.969   2.288
 1825SOL    HW1 2041   3.238   1.932   2.198
 1825SOL    HW2 2042   3.361   1.985   2.292
 1827SOL     OW 2043   2.802   3.560   2.766
 1827SOL    HW1 2044   2.882   3.503   2.787
 1827SOL    HW2 2045   2.753   3.520   2.689
 1828SOL     OW 2046   2.244   2.562   2.342
 1828SOL    HW1 2047   2.289   2.472   2.339
 1828SOL    HW2 2048   2.150   2.551   2.375
 1830SOL     OW 2049   2.476   1.984   1.979
 1830SOL    HW1 2050   2.574   1.962   1.986
 1830SOL    HW2 2051   2.445   1.967   1.886
 1831SOL     OW 2052   2.643   2.126   3.611
 1831SOL    HW1 2053   2.710   2.065   3.654
 1831SOL    HW2 2054   2.570   2.145   3.676
 1832SOL     OW 2055   2.750   3.376   3.057
 1832SOL    HW1 2056   2.727   3.351   2.963
 1832SOL    HW2 2057   2.811   3.307   3.096
 1833SOL     OW 2058   3.213   2.452   3.295
 1833SOL    HW1 2059   3.241   2.409   3.380
 1833SOL    HW2 2060   3.238   2.548   3.296
 1834SOL     OW 2061   2.665   3.264   2.786
 1834SOL    HW1 2062   2.755   3.278   2.744
 1834SOL    HW2 2063   2.594   3.266   2.715
 1835SOL     OW 2064   2.784   2.365   2.761
 1835SOL    HW1 2065   2.759   2.356   2.665
 1835SOL    HW2 2066   2.832   2.283   2.792
 1836SOL     OW 2067   2.401   1.926   2.374
 1836SOL    HW1 2068   2.320   1.927   2.432
 1836SOL    HW2 2069   2.404   2.009   2.319
 1837SOL     OW 2070   3.296   3.050   1.903
 1837SOL    HW1 2071   3.328   2.974   1.960
 1837SOL    HW2 2072   3.204   3.077   1.933
 1838SOL     OW 2073   2.797   2.098   2.342
 1838SOL    HW1 2074   2.749   2.139   2.264
 1838SOL    HW2 2075   2.896   2.096   2.323
 1839SOL     OW 2076   2.938   2.545   3.326
 1839SOL    HW1 2077   2.858   2.484   3.329
 1839SOL    HW2 2078   3.019   2.492   3.302
 1840SOL     OW 2079   3.089   3.432   2.655
 1840SOL    HW1 2080   3.110   3.506   2.590
 1840SOL    HW2 2081   3.157   3.432   2.728
 1841SOL     OW 2082   2.321   3.014   2.603
 1841SOL    HW1 2083   2.250   2.987   2.668
 1841SOL    HW2 2084   2.295   2.986   2.510
 1843SOL     OW 2085   2.894   2.411   1.878
 1843SOL    HW1 2086   2.853   2.493   1.839
 1843SOL    HW2 2087   2.958   2.437   1.951
 1844SOL     OW 2088   1.940   2.418   3.248
 1844SOL    HW1 2089   2.032   2.417   3.207
 1844SOL    HW2 2090   1.934   2.492   3.315
 1845SOL     OW 2091   2.423   2.084   3.009
 1845SOL    HW1 2092   2.461   2.000   3.046
 1845SOL    HW2 2093   2.335   2.103   3.053
 1846SOL     OW 2094   2.728   2.316   2.504
 1846SOL    HW1 2095   2.696   2.388   2.442
 1846SOL    HW2 2096   2.752   2.235   2.451
 1847SOL     OW 2097   2.879   1.901   2.615
 1847SOL    HW1 2098   2.807   1.906   2.546
 1847SOL    HW2 2099   2.855   1.832   2.684
 1848SOL     OW 2100   3.291   3.035   2.729
 1848SOL    HW1 2101   3.236   2.951   2.722
 1848SOL    HW2 2102   3.317   3.064   2.637
 1849SOL     OW 2103   3.328   2.452   2.854
 1849SOL    HW1 2104   3.298   2.357   2.861
 1849SOL    HW2 2105   3.401   2.468   2.920
 1850SOL     OW 2106   3.719   2.695   2.239
 1850SOL    HW1 2107   3.761   2.631   2.303
 1850SOL    HW2 2108   3.681   2.644   2.161
 1851SOL     OW 2109   2.350   3.247   2.036
 1851SOL    HW1 2110   2.263   3.232   2.083
 1851SOL    HW2 2111   2.333   3.273   1.941
 1853SOL     OW 2112   3.252   2.437   1.940
 1853SOL    HW1 2113   3.198   2.416   2.021
 1853SOL    HW2 2114   3.343   2.396   1.949
 1854SOL     OW 2115   2.389   2.118   2.190
 1854SOL    HW1 2116   2.416   2.059   2.115
 1854SOL    HW2 2117   2.389   2.213   2.159
 1856SOL     OW 2118   2.926   3.209   3.202
 1856SOL    HW1 2119   2.846   3.186   3.257
 1856SOL    HW2 2120   3.009   3.183   3.251
 1858SOL     OW 2121   2.973   3.057   2.962
 1858SOL    HW1 2122   2.933   3.101   3.043
 1858SOL    HW2 2123   2.932   3.094   2.879
 1860SOL     OW 2124   2.777   1.951   3.264
 1860SOL    HW1 2125   2.802   1.931   3.169
 1860SOL    HW2 2126   2.849   2.007   3.306
 1862SOL     OW 2127   2.567   2.912   2.230
 1862SOL    HW1 2128   2.553   2.919   2.329
 1862SOL    HW2 2129   2.651   2.861   2.212
 1863SOL     OW 2130   2.272   2.675   3.113
 1863SOL    HW1 2131   2.358   2.687   3.163
 1863SOL    HW2 2132   2.230   2.588   3.140
 1864SOL     OW 2133   3.136   2.248   3.124
 1864SOL    HW1 2134   3.157   2.322   3.188
 1864SOL    HW2 2135   3.047   2.265   3.081
 1865SOL     OW 2136   1.926   3.426   3.193
 1865SOL    HW1 2137   1.880   3.508   3.159
 1865SOL    HW2 2138   2.024   3.445   3.202
 1866SOL     OW 2139   2.229   2.962   2.363
 1866SOL    HW1 2140   2.222   3.045   2.307
 1866SOL    HW2 2141   2.233   2.882   2.303
 1867SOL     OW 2142   2.428   2.399   2.727
 1867SOL    HW1 2143   2.440   2.465   2.653
 1867SOL    HW2 2144   2.474   2.433   2.810
 1868SOL     OW 2145   3.114   3.210   2.250
 1868SOL    HW1 2146   3.164   3.287   2.290
 1868SOL    HW2 2147   3.019   3.212   2.282
 1870SOL     OW 2148   3.444   2.501   2.334
 1870SOL    HW1 2149   3.413   2.562   2.407
 1870SOL    HW2 2150   3.494   2.553   2.265
 1871SOL     OW 2151   2.216   3.372   3.191
 1871SOL    HW1 2152   2.195   3.328   3.104
 1871SOL    HW2 2153   2.313   3.398   3.194
 1872SOL     OW 2154   2.264   2.613   3.460
 1872SOL    HW1 2155   2.332   2.668   3.413
 1872SOL    HW2 2156   2.304   2.525   3.487
 1874SOL     OW 2157   2.875   1.967   3.632
 1874SOL    HW1 2158   2.881   2.052   3.580
 1874SOL    HW2 2159   2.907   1.891   3.575
 1875SOL     OW 2160   2.366   1.912   3.602
 1875SOL    HW1 2161   2.324   1.855   3.532
 1875SOL    HW2 2162   2.300   1.981   3.634
 1876SOL     OW 2163   2.435   2.732   2.891
 1876SOL    HW1 2164   2.479   2.821   2.882
 1876SOL    HW2 2165   2.372   2.732   2.968
 1877SOL     OW 2166   3.222   2.724   2.907
 1877SOL    HW1 2167   3.147   2.724   2.841
 1877SOL    HW2 2168   3.259   2.632   2.916
 1878SOL     OW 2169   3.071   2.387   2.137
 1878SOL    HW1 2170   3.084   2.303   2.191
 1878SOL    HW2 2171   3.042   2.461   2.197
 1879SOL     OW 2172   2.169   2.075   3.093
 1879SOL    HW1 2173   2.146   2.112   3.183
 1879SOL    HW2 2174   2.139   1.980   3.087
 1880SOL     OW 2175   1.899   3.172   3.144
 1880SOL    HW1 2176   1.952   3.123   3.212
 1880SOL    HW2 2177   1.921   3.270   3.149
 1881SOL     OW 2178   2.594   2.496   2.926
 1881SOL    HW1 2179   2.653   2.470   2.850
 1881SOL    HW2 2180   2.566   2.592   2.915
 1883SOL     OW 2181   2.169   1.925   2.480
 1883SOL    HW1 2182   2.158   2.019   2.513
 1883SOL    HW2 2183   2.164   1.862   2.557
 1884SOL     OW 2184   3.484   2.229   2.236
 1884SOL    HW1 2185   3.486   2.153   2.300
 1884SOL    HW2 2186   3.436   2.306   2.276
 1885SOL     OW 2187   2.885   2.628   2.828
 1885SOL    HW1 2188   2.900   2.649   2.924
 1885SOL    HW2 2189   2.855   2.533   2.819
 1888SOL     OW 2190   2.212   2.760   3.666
 1888SOL    HW1 2191   2.288   2.804   3.714
 1888SOL    HW2 2192   2.247   2.713   3.584
 1889SOL     OW 2193   3.402   2.136   1.987
 1889SOL    HW1 2194   3.341   2.061   2.010
 1889SOL    HW2 2195   3.424   2.188   2.070
 1890SOL     OW 2196   3.165   2.700   1.904
 1890SOL    HW1 2197   3.199   2.607   1.919
 1890SOL    HW2 2198   3.183   2.727   1.809
 1891SOL     OW 2199   2.930   3.195   2.711
 1891SOL    HW1 2200   2.937   3.111   2.656
 1891SOL    HW2 2201   2.992   3.264   2.675
 1892SOL     OW 2202   2.181   2.672   2.811
 1892SOL    HW1 2203   2.274   2.708   2.816
 1892SOL    HW2 2204   2.175   2.587   2.863
 1893SOL     OW 2205   2.201   2.371   2.868
 1893SOL    HW1 2206   2.149   2.288   2.851
 1893SOL    HW2 2207   2.278   2.376   2.804
 1894SOL     OW 2208   3.000   2.242   3.540
 1894SOL    HW1 2209   2.955   2.305   3.604
 1894SOL    HW2 2210   3.093   2.273   3.523
 1895SOL     OW 2211   3.022   2.069   3.339
 1895SOL    HW1 2212   3.022   2.133   3.416
 1895SOL    HW2 2213   3.050   2.117   3.256
 1896SOL     OW 2214   1.870   3.188   2.062
 1896SOL    HW1 2215   1.777   3.209   2.031
 1896SOL    HW2 2216   1.880   3.089   2.075
 1897SOL     OW 2217   1.950   3.663   2.789
 1897SOL    HW1 2218   1.908   3.577   2.762
 1897SOL    HW2 2219   2.044   3.666   2.755
 1898SOL     OW 2220   2.366   3.430   2.772
 1898SOL    HW1 2221   2.432   3.504   2.781
 1898SOL    HW2 2222   2.410   3.351   2.730
 1899SOL     OW 2223   2.864   2.658   3.100
 1899SOL    HW1 2224   2.905   2.626   3.186
 1899SOL    HW2 2225   2.768   2.631   3.097
 1900SOL     OW 2226   1.902   2.406   2.976
 1900SOL    HW1 2227   1.987   2.373   2.935
 1900SOL    HW2 2228   1.915   2.421   3.074
 1901SOL     OW 2229   2.051   2.382   3.584
 1901SOL    HW1 2230   2.110   2.342   3.514
 1901SOL    HW2 2231   1.993   2.453   3.543
 1903SOL     OW 2232   2.677   2.434   2.187
 1903SOL    HW1 2233   2.684   2.345   2.141
 1903SOL    HW2 2234   2.583   2.468   2.179
 1904SOL     OW 2235   3.519   2.466   3.068
 1904SOL    HW1 2236   3.481   2.397   3.130
 1904SOL    HW2 2237   3.601   2.430   3.024
 1906SOL     OW 2238   2.533   2.326   3.131
 1906SOL    HW1 2239   2.499   2.237   3.101
 1906SOL    HW2 2240   2.559   2.380   3.051
 1908SOL     OW 2241   2.335   2.362   2.053
 1908SOL    HW1 2242   2.396   2.442   2.057
 1908SOL    HW2 2243   2.240   2.393   2.060
 1909SOL     OW 2244   2.021   2.999   3.328
 1909SOL    HW1 2245   2.043   2.938   3.404
 1909SOL    HW2 2246   2.031   2.950   3.242
 1910SOL     OW 2247   3.209   2.921   3.096
 1910SOL    HW1 2248   3.233   2.858   3.022
 1910SOL    HW2 2249   3.119   2.961   3.078
 1911SOL     OW 2250   3.164   2.717   2.171
 1911SOL    HW1 2251   3.078   2.686   2.213
 1911SOL    HW2 2252   3.160   2.703   2.072
 1914SOL     OW 2253   1.945   3.120   2.884
 1914SOL    HW1 2254   1.940   3.119   2.984
 1914SOL    HW2 2255   1.862   3.079   2.846
 1916SOL     OW 2256   3.588   1.997   2.385
 1916SOL    HW1 2257   3.661   1.980   2.318
 1916SOL    HW2 2258   3.557   1.910   2.423
 1917SOL     OW 2259   3.250   3.435   2.339
 1917SOL    HW1 2260   3.317   3.447   2.265
 1917SOL    HW2 2261   3.210   3.524   2.362
 1919SOL     OW 2262   3.142   2.789   2.534
 1919SOL    HW1 2263   3.202   2.708   2.536
 1919SOL    HW2 2264   3.182   2.858   2.474
 1920SOL     OW 2265   2.692   3.135   3.284
 1920SOL    HW1 2266   2.687   3.168   3.379
 1920SOL    HW2 2267   2.606   3.154   3.238
 1921SOL     OW 2268   2.534   3.478   2.016
 1921SOL    HW1 2269   2.543   3.488   1.917
 1921SOL    HW2 2270   2.494   3.389   2.037
 1923SOL     OW 2271   3.703   2.037   2.825
 1923SOL    HW1 2272   3.742   1.952   2.789
 1923SOL    HW2 2273   3.605   2.039   2.806
 1924SOL     OW 2274   2.125   2.188   2.582
 1924SOL    HW1 2275   2.046   2.239   2.548
 1924SOL    HW2 2276   2.116   2.173   2.680
 1925SOL     OW 2277   3.056   3.474   1.893
 1925SOL    HW1 2278   3.062   3.381   1.930
 1925SOL    HW2 2279   2.997   3.474   1.813
 1926SOL     OW 2280   2.684   2.864   3.234
 1926SOL    HW1 2281   2.724   2.863   3.142
 1926SOL    HW2 2282   2.694   2.956   3.274
 1927SOL     OW 2283   2.778   2.772   2.153
 1927SOL    HW1 2284   2.841   2.810   2.085
 1927SOL    HW2 2285   2.818   2.689   2.192
 1929SOL     OW 2286   2.234   3.150   3.352
 1929SOL    HW1 2287   2.221   3.243   3.318
 1929SOL    HW2 2288   2.150   3.098   3.339
 1931SOL     OW 2289   2.901   2.960   2.558
 1931SOL    HW1 2290   2.831   2.913   2.612
 1931SOL    HW2 2291   2.960   2.892   2.515
 1932SOL     OW 2292   2.876   2.098   2.833
 1932SOL    HW1 2293   2.868   2.062   2.740
 1932SOL    HW2 2294   2.874   2.022   2.898
 1933SOL     OW 2295   2.452   3.349   2.353
 1933SOL    HW1 2296   2.494   3.291   2.283
 1933SOL    HW2 2297   2.408   3.428   2.309
 1935SOL     OW 2298   2.117   3.210   2.152
 1935SOL    HW1 2299   2.021   3.211   2.125
 1935SOL    HW2 2300   2.129   3.263   2.236
 1936SOL     OW 2301   1.967   2.875   3.588
 1936SOL    HW1 2302   1.890   2.842   3.642
 1936SOL    HW2 2303   2.052   2.845   3.630
 1937SOL     OW 2304   2.534   2.065   3.351
 1937SOL    HW1 2305   2.624   2.049   3.311
 1937SOL    HW2 2306   2.542   2.070   3.450
 1938SOL     OW 2307   1.937   2.207   1.895
 1938SOL    HW1 2308   1.845   2.179   1.866
 1938SOL    HW2 2309   1.968   2.284   1.839
 1939SOL     OW 2310   3.302   2.718   3.260
 1939SOL    HW1 2311   3.245   2.770   3.197
 1939SOL    HW2 2312   3.398   2.730   3.236
 1940SOL     OW 2313   3.045   3.197   1.981
 1940SOL    HW1 2314   2.946   3.186   1.983
 1940SOL    HW2 2315   3.079   3.212   2.074
 1941SOL     OW 2316   2.475   2.704   3.293
 1941SOL    HW1 2317   2.531   2.785   3.276
 1941SOL    HW2 2318   2.534   2.624   3.296
 1943SOL     OW 2319   2.578   2.427   3.570
 1943SOL    HW1 2320   2.597   2.492   3.644
 1943SOL    HW2 2321   2.638   2.347   3.579
 1947SOL     OW 2322   3.087   2.187   2.311
 1947SOL    HW1 2323   3.152   2.113   2.300
 1947SOL    HW2 2324   3.107   2.237   2.395
 1948SOL     OW 2325   2.456   2.607   2.514
 1948SOL    HW1 2326   2.506   2.692   2.495
 1948SOL    HW2 2327   2.368   2.609   2.466
 1951SOL     OW 2328   2.721   3.236   1.878
 1951SOL    HW1 2329   2.675   3.251   1.966
 1951SOL    HW2 2330   2.765   3.321   1.848
 1952SOL     OW 2331   2.523   3.652   2.815
 1952SOL    HW1 2332   2.477   3.740   2.802
 1952SOL    HW2 2333   2.622   3.664   2.808
 1953SOL     OW 2334   2.721   2.818   2.723
 1953SOL    HW1 2335   2.775   2.749   2.771
 1953SOL    HW2 2336   2.689   2.887   2.789
 1954SOL     OW 2337   2.945   2.846   1.949
 1954SOL    HW1 2338   2.922   2.899   1.867
 1954SOL    HW2 2339   3.026   2.790   1.930
 1957SOL     OW 2340   1.941   3.102   2.515
 1957SOL    HW1 2341   1.940   3.055   2.603
 1957SOL    HW2 2342   2.023   3.074   2.464
 1960SOL     OW 2343   2.290   2.286   2.382
 1960SOL    HW1 2344   2.320   2.214   2.320
 1960SOL    HW2 2345   2.251   2.246   2.465
 1962SOL     OW 2346   2.179   2.409   3.142
 1962SOL    HW1 2347   2.217   2.350   3.214
 1962SOL    HW2 2348   2.219   2.383   3.054
 1963SOL     OW 2349   2.674   3.448   2.549
 1963SOL    HW1 2350   2.706   3.458   2.455
 1963SOL    HW2 2351   2.595   3.386   2.551
 1964SOL     OW 2352   3.286   2.076   2.974
 1964SOL    HW1 2353   3.338   2.011   3.029
 1964SOL    HW2 2354   3.237   2.139   3.035
 1965SOL     OW 2355   2.863   1.896   3.016
 1965SOL    HW1 2356   2.800   1.824   2.985
 1965SOL    HW2 2357   2.956   1.860   3.016
 1966SOL     OW 2358   2.632   3.192   2.163
 1966SOL    HW1 2359   2.586   3.105   2.180
 1966SOL    HW2 2360   2.723   3.189   2.204
 1967SOL     OW 2361   2.480   3.429   3.146
 1967SOL    HW1 2362   2.475   3.511   3.203
 1967SOL    HW2 2363   2.569   3.426   3.101
 1968SOL     OW 2364   3.214   1.914   2.030
 1968SOL    HW1 2365   3.249   1.873   1.946
 1968SOL    HW2 2366   3.124   1.876   2.050
 1969SOL     OW 2367   3.162   2.315   2.553
 1969SOL    HW1 2368   3.103   2.395   2.557
 1969SOL    HW2 2369   3.177   2.280   2.646
 1970SOL     OW 2370   3.455   2.083   2.744
 1970SOL    HW1 2371   3.371   2.082   2.798
 1970SOL    HW2 2372   3.457   2.166   2.688
 1971SOL     OW 2373   1.901   2.939   2.162
 1971SOL    HW1 2374   2.000   2.928   2.153
 1971SOL    HW2 2375   1.861   2.853   2.194
 1972SOL     OW 2376   2.737   3.508   2.199
 1972SOL    HW1 2377   2.660   3.473   2.145
 1972SOL    HW2 2378   2.705   3.579   2.261
 1973SOL     OW 2379   2.092   2.490   3.837
 1973SOL    HW1 2380   1.999   2.488   3.874
 1973SOL    HW2 2381   2.093   2.451   3.745
 1989SOL     OW 2382   2.476   1.984   3.841
 1989SOL    HW1 2383   2.574   1.962   3.848
 1989SOL    HW2 2384   2.445   1.967   3.748
 2015SOL     OW 2385   1.937   2.207   3.757
 2015SOL    HW1 2386   1.845   2.179   3.728
 2015SOL    HW2 2387   1.968   2.284   3.701
 2050SOL     OW 2388   2.366   3.774   1.740
 2050SOL    HW1 2389   2.324   3.717   1.670
 2050SOL    HW2 2390   2.300   3.843   1.772
 2083SOL     OW 2391   2.671   3.728   2.364
 2083SOL    HW1 2392   2.711   3.819   2.355
 2083SOL    HW2 2393   2.571   3.736   2.370
 2096SOL     OW 2394   2.401   3.788   2.374
 2096SOL    HW1 2395   2.320   3.789   2.432
 2096SOL    HW2 2396   2.404   3.871   2.319
 2097SOL     OW 2397   2.159   3.759   2.033
 2097SOL    HW1 2398   2.208   3.843   2.012
 2097SOL    HW2 2399   2.221   3.694   2.078
 2108SOL     OW 2400   2.169   3.787   2.480
 2108SOL    HW1 2401   2.158   3.881   2.513
 2108SOL    HW2 2402   2.164   3.724   2.557
 2205SOL     OW 2403   3.751   1.596   1.979
 2205SOL    HW1 2404   3.732   1.500   2.000
 2205SOL    HW2 2405   3.718   1.654   2.054
 2314SOL     OW 2406   3.743   2.230   2.509
 2314SOL    HW1 2407   3.661   2.273   2.548
 2314SOL    HW2 2408   3.715   2.157   2.446
 2356SOL     OW 2409   3.799   2.207   1.895
 2356SOL    HW1 2410   3.707   2.179   1.866
 2356SOL    HW2 2411   3.830   2.284   1.839
 2357SOL     OW 2412   3.796   2.028   2.180
 2357SOL    HW1 2413   3.779   2.111   2.126
 2357SOL    HW2 2414   3.886   1.991   2.158
   4.17879   4.17879   4.17879
