mobley_2929847_GMX.gro created by acpype (v: 2023.10.27) on Tue May 19 12:41:21 2026
 2405
    1MOL     C1    1   2.111   2.266   2.356
    1MOL     C2    2   2.401   2.316   2.406
    1MOL     C3    3   2.438   2.342   2.160
    1MOL     C4    4   2.203   2.326   2.253
    1MOL     C5    5   2.348   2.280   2.267
    1MOL     O1    6   2.047   2.327   2.441
    1MOL     O2    7   2.105   2.131   2.341
    1MOL     H1    8   2.341   2.268   2.484
    1MOL     H2    9   2.399   2.424   2.423
    1MOL     H3   10   2.505   2.282   2.419
    1MOL     H4   11   2.438   2.452   2.167
    1MOL     H5   12   2.542   2.308   2.172
    1MOL     H6   13   2.405   2.315   2.060
    1MOL     H7   14   2.165   2.300   2.153
    1MOL     H8   15   2.197   2.435   2.264
    1MOL     H9   16   2.353   2.171   2.256
    1MOL    H10   17   2.043   2.090   2.405
   14SOL     OW   18   1.460   1.505   1.339
   14SOL    HW1   19   1.484   1.599   1.365
   14SOL    HW2   20   1.444   1.451   1.421
   18SOL     OW   21   1.127   1.341   1.690
   18SOL    HW1   22   1.174   1.341   1.778
   18SOL    HW2   23   1.079   1.254   1.679
   31SOL     OW   24   1.293   1.228   1.423
   31SOL    HW1   25   1.330   1.155   1.365
   31SOL    HW2   26   1.345   1.233   1.508
   35SOL     OW   27   1.187   1.792   1.616
   35SOL    HW1   28   1.211   1.852   1.540
   35SOL    HW2   29   1.194   1.697   1.586
   56SOL     OW   30   1.227   1.550   1.506
   56SOL    HW1   31   1.233   1.473   1.570
   56SOL    HW2   32   1.175   1.524   1.426
   95SOL     OW   33   1.754   1.223   1.588
   95SOL    HW1   34   1.845   1.184   1.575
   95SOL    HW2   35   1.762   1.319   1.612
   97SOL     OW   36   1.592   1.629   1.625
   97SOL    HW1   37   1.619   1.663   1.535
   97SOL    HW2   38   1.671   1.591   1.671
  109SOL     OW   39   1.272   1.445   1.142
  109SOL    HW1   40   1.319   1.458   1.229
  109SOL    HW2   41   1.206   1.371   1.151
  113SOL     OW   42   1.587   0.779   1.670
  113SOL    HW1   43   1.495   0.817   1.665
  113SOL    HW2   44   1.647   0.826   1.605
  122SOL     OW   45   1.728   0.935   1.854
  122SOL    HW1   46   1.682   0.928   1.765
  122SOL    HW2   47   1.666   0.979   1.920
  126SOL     OW   48   0.980   1.573   1.700
  126SOL    HW1   49   0.960   1.617   1.612
  126SOL    HW2   50   1.019   1.482   1.684
  127SOL     OW   51   1.859   1.518   1.605
  127SOL    HW1   52   1.873   1.545   1.510
  127SOL    HW2   53   1.942   1.540   1.658
  142SOL     OW   54   1.369   0.950   1.660
  142SOL    HW1   55   1.408   1.039   1.680
  142SOL    HW2   56   1.379   0.930   1.563
  147SOL     OW   57   0.930   1.678   1.465
  147SOL    HW1   58   0.906   1.660   1.370
  147SOL    HW2   59   0.960   1.772   1.475
  152SOL     OW   60   1.759   1.747   1.154
  152SOL    HW1   61   1.820   1.777   1.081
  152SOL    HW2   62   1.721   1.658   1.132
  153SOL     OW   63   1.252   1.731   1.128
  153SOL    HW1   64   1.336   1.736   1.074
  153SOL    HW2   65   1.229   1.635   1.146
  163SOL     OW   66   1.650   1.720   1.394
  163SOL    HW1   67   1.703   1.730   1.310
  163SOL    HW2   68   1.623   1.810   1.428
  171SOL     OW   69   1.614   1.292   1.289
  171SOL    HW1   70   1.674   1.295   1.369
  171SOL    HW2   71   1.539   1.356   1.302
  184SOL     OW   72   1.493   1.767   0.959
  184SOL    HW1   73   1.526   1.831   0.890
  184SOL    HW2   74   1.559   1.761   1.034
  186SOL     OW   75   1.450   1.220   1.633
  186SOL    HW1   76   1.441   1.210   1.732
  186SOL    HW2   77   1.546   1.213   1.607
  192SOL     OW   78   1.730   0.934   1.517
  192SOL    HW1   79   1.768   1.025   1.532
  192SOL    HW2   80   1.722   0.917   1.418
  197SOL     OW   81   1.861   1.569   0.851
  197SOL    HW1   82   1.790   1.557   0.781
  197SOL    HW2   83   1.862   1.490   0.911
  203SOL     OW   84   1.705   1.487   1.104
  203SOL    HW1   85   1.612   1.462   1.077
  203SOL    HW2   86   1.731   1.437   1.186
  219SOL     OW   87   1.555   1.511   2.565
  219SOL    HW1   88   1.498   1.495   2.646
  219SOL    HW2   89   1.496   1.521   2.485
  221SOL     OW   90   1.755   0.607   2.093
  221SOL    HW1   91   1.743   0.594   1.994
  221SOL    HW2   92   1.725   0.526   2.142
  227SOL     OW   93   1.460   1.505   3.201
  227SOL    HW1   94   1.484   1.599   3.227
  227SOL    HW2   95   1.444   1.451   3.283
  238SOL     OW   96   1.842   1.767   2.221
  238SOL    HW1   97   1.896   1.738   2.301
  238SOL    HW2   98   1.872   1.857   2.192
  240SOL     OW   99   1.689   0.922   2.474
  240SOL    HW1  100   1.784   0.893   2.482
  240SOL    HW2  101   1.681   0.987   2.399
  241SOL     OW  102   1.641   1.108   2.294
  241SOL    HW1  103   1.727   1.110   2.242
  241SOL    HW2  104   1.655   1.155   2.382
  244SOL     OW  105   1.293   1.228   3.285
  244SOL    HW1  106   1.330   1.155   3.227
  244SOL    HW2  107   1.345   1.233   3.370
  247SOL     OW  108   1.525   0.999   2.052
  247SOL    HW1  109   1.462   0.923   2.065
  247SOL    HW2  110   1.573   1.017   2.138
  248SOL     OW  111   1.187   1.792   3.478
  248SOL    HW1  112   1.211   1.852   3.402
  248SOL    HW2  113   1.194   1.697   3.448
  250SOL     OW  114   1.466   1.417   2.815
  250SOL    HW1  115   1.407   1.423   2.895
  250SOL    HW2  116   1.451   1.329   2.769
  251SOL     OW  117   1.667   1.714   2.434
  251SOL    HW1  118   1.626   1.691   2.346
  251SOL    HW2  119   1.649   1.640   2.499
  254SOL     OW  120   1.576   1.662   2.169
  254SOL    HW1  121   1.665   1.708   2.172
  254SOL    HW2  122   1.555   1.638   2.074
  264SOL     OW  123   1.362   1.144   2.407
  264SOL    HW1  124   1.445   1.115   2.359
  264SOL    HW2  125   1.313   1.211   2.351
  266SOL     OW  126   1.008   1.456   2.339
  266SOL    HW1  127   0.962   1.528   2.287
  266SOL    HW2  128   1.004   1.476   2.437
  268SOL     OW  129   1.795   1.066   2.735
  268SOL    HW1  130   1.733   1.051   2.659
  268SOL    HW2  131   1.743   1.077   2.820
  269SOL     OW  132   1.227   1.550   3.368
  269SOL    HW1  133   1.233   1.473   3.432
  269SOL    HW2  134   1.175   1.524   3.288
  271SOL     OW  135   1.458   0.735   2.590
  271SOL    HW1  136   1.453   0.670   2.665
  271SOL    HW2  137   1.538   0.794   2.603
  273SOL     OW  138   1.111   1.776   2.099
  273SOL    HW1  139   1.051   1.714   2.149
  273SOL    HW2  140   1.142   1.732   2.014
  275SOL     OW  141   1.632   1.377   1.943
  275SOL    HW1  142   1.600   1.471   1.933
  275SOL    HW2  143   1.556   1.314   1.931
  279SOL     OW  144   0.940   1.698   2.766
  279SOL    HW1  145   1.020   1.641   2.787
  279SOL    HW2  146   0.891   1.658   2.689
  284SOL     OW  147   0.888   1.514   3.057
  284SOL    HW1  148   0.865   1.489   2.963
  284SOL    HW2  149   0.949   1.445   3.096
  289SOL     OW  150   1.434   1.188   1.903
  289SOL    HW1  151   1.466   1.112   1.960
  289SOL    HW2  152   1.342   1.215   1.933
  293SOL     OW  153   1.227   1.570   2.655
  293SOL    HW1  154   1.248   1.644   2.590
  293SOL    HW2  155   1.295   1.570   2.728
  295SOL     OW  156   1.271   1.797   2.453
  295SOL    HW1  157   1.315   1.861   2.389
  295SOL    HW2  158   1.221   1.849   2.523
  301SOL     OW  159   1.429   1.173   2.729
  301SOL    HW1  160   1.374   1.089   2.722
  301SOL    HW2  161   1.455   1.202   2.637
  303SOL     OW  162   1.857   0.833   2.239
  303SOL    HW1  163   1.899   0.769   2.303
  303SOL    HW2  164   1.819   0.782   2.161
  305SOL     OW  165   1.664   1.280   2.519
  305SOL    HW1  166   1.763   1.288   2.533
  305SOL    HW2  167   1.619   1.364   2.550
  308SOL     OW  168   1.754   1.223   3.450
  308SOL    HW1  169   1.845   1.184   3.437
  308SOL    HW2  170   1.762   1.319   3.474
  310SOL     OW  171   1.592   1.629   3.487
  310SOL    HW1  172   1.619   1.663   3.397
  310SOL    HW2  173   1.671   1.591   3.533
  311SOL     OW  174   1.111   1.195   2.962
  311SOL    HW1  175   1.071   1.239   3.043
  311SOL    HW2  176   1.070   1.232   2.879
  312SOL     OW  177   1.638   1.099   2.941
  312SOL    HW1  178   1.643   1.180   3.000
  312SOL    HW2  179   1.552   1.101   2.890
  321SOL     OW  180   1.252   1.348   2.250
  321SOL    HW1  181   1.302   1.425   2.290
  321SOL    HW2  182   1.157   1.350   2.282
  322SOL     OW  183   1.272   1.445   3.004
  322SOL    HW1  184   1.319   1.458   3.091
  322SOL    HW2  185   1.206   1.371   3.013
  340SOL     OW  186   1.859   1.518   3.467
  340SOL    HW1  187   1.873   1.545   3.372
  340SOL    HW2  188   1.942   1.540   3.520
  344SOL     OW  189   1.068   1.333   2.711
  344SOL    HW1  190   1.075   1.249   2.656
  344SOL    HW2  191   1.130   1.402   2.675
  363SOL     OW  192   1.347   1.059   3.096
  363SOL    HW1  193   1.371   0.996   3.022
  363SOL    HW2  194   1.257   1.099   3.078
  364SOL     OW  195   1.302   0.855   2.171
  364SOL    HW1  196   1.216   0.824   2.213
  364SOL    HW2  197   1.298   0.841   2.072
  365SOL     OW  198   1.759   1.747   3.016
  365SOL    HW1  199   1.820   1.777   2.943
  365SOL    HW2  200   1.721   1.658   2.994
  366SOL     OW  201   1.252   1.731   2.990
  366SOL    HW1  202   1.336   1.736   2.936
  366SOL    HW2  203   1.229   1.635   3.008
  370SOL     OW  204   1.388   1.573   2.339
  370SOL    HW1  205   1.455   1.585   2.265
  370SOL    HW2  206   1.348   1.662   2.362
  372SOL     OW  207   1.280   0.927   2.534
  372SOL    HW1  208   1.340   0.846   2.536
  372SOL    HW2  209   1.320   0.996   2.474
  374SOL     OW  210   0.672   1.616   2.016
  374SOL    HW1  211   0.681   1.626   1.917
  374SOL    HW2  212   0.632   1.527   2.037
  375SOL     OW  213   1.650   1.720   3.256
  375SOL    HW1  214   1.703   1.730   3.172
  375SOL    HW2  215   1.623   1.810   3.290
  378SOL     OW  216   1.194   1.612   1.893
  378SOL    HW1  217   1.200   1.519   1.930
  378SOL    HW2  218   1.135   1.612   1.813
  381SOL     OW  219   1.504   1.607   1.906
  381SOL    HW1  220   1.412   1.644   1.913
  381SOL    HW2  221   1.542   1.627   1.816
  383SOL     OW  222   1.614   1.292   3.151
  383SOL    HW1  223   1.674   1.295   3.231
  383SOL    HW2  224   1.539   1.356   3.164
  384SOL     OW  225   1.039   1.098   2.558
  384SOL    HW1  226   0.969   1.051   2.612
  384SOL    HW2  227   1.098   1.030   2.515
  394SOL     OW  228   1.183   1.335   1.981
  394SOL    HW1  229   1.084   1.324   1.983
  394SOL    HW2  230   1.217   1.350   2.074
  396SOL     OW  231   1.493   1.767   2.821
  396SOL    HW1  232   1.526   1.831   2.752
  396SOL    HW2  233   1.559   1.761   2.896
  400SOL     OW  234   1.674   0.883   3.116
  400SOL    HW1  235   1.647   0.794   3.079
  400SOL    HW2  236   1.675   0.951   3.043
  405SOL     OW  237   0.859   1.374   1.878
  405SOL    HW1  238   0.813   1.389   1.966
  405SOL    HW2  239   0.903   1.459   1.848
  406SOL     OW  240   0.661   1.790   2.815
  406SOL    HW1  241   0.615   1.878   2.802
  406SOL    HW2  242   0.760   1.802   2.808
  409SOL     OW  243   1.861   1.569   2.713
  409SOL    HW1  244   1.790   1.557   2.643
  409SOL    HW2  245   1.862   1.490   2.773
  415SOL     OW  246   1.705   1.487   2.966
  415SOL    HW1  247   1.612   1.462   2.939
  415SOL    HW2  248   1.731   1.437   3.048
  417SOL     OW  249   0.812   1.586   2.549
  417SOL    HW1  250   0.844   1.596   2.455
  417SOL    HW2  251   0.733   1.524   2.551
  426SOL     OW  252   0.875   1.646   2.199
  426SOL    HW1  253   0.798   1.611   2.145
  426SOL    HW2  254   0.843   1.717   2.261
  531SOL     OW  255   0.850   2.660   1.823
  531SOL    HW1  256   0.846   2.736   1.888
  531SOL    HW2  257   0.872   2.696   1.732
  535SOL     OW  258   1.460   3.367   1.339
  535SOL    HW1  259   1.484   3.461   1.365
  535SOL    HW2  260   1.444   3.313   1.421
  537SOL     OW  261   1.603   2.309   0.737
  537SOL    HW1  262   1.529   2.355   0.687
  537SOL    HW2  263   1.654   2.377   0.790
  539SOL     OW  264   1.127   3.203   1.690
  539SOL    HW1  265   1.174   3.203   1.778
  539SOL    HW2  266   1.079   3.116   1.679
  544SOL     OW  267   1.594   1.976   1.480
  544SOL    HW1  268   1.576   2.043   1.408
  544SOL    HW2  269   1.591   2.022   1.569
  552SOL     OW  270   1.293   3.090   1.423
  552SOL    HW1  271   1.330   3.017   1.365
  552SOL    HW2  272   1.345   3.095   1.508
  561SOL     OW  273   1.281   2.207   0.944
  561SOL    HW1  274   1.195   2.157   0.931
  561SOL    HW2  275   1.343   2.153   1.000
  563SOL     OW  276   0.807   2.467   1.465
  563SOL    HW1  277   0.760   2.464   1.554
  563SOL    HW2  278   0.756   2.412   1.399
  564SOL     OW  279   1.394   2.331   1.674
  564SOL    HW1  280   1.374   2.374   1.762
  564SOL    HW2  281   1.472   2.269   1.683
  565SOL     OW  282   0.973   2.752   1.572
  565SOL    HW1  283   1.019   2.668   1.543
  565SOL    HW2  284   0.917   2.786   1.497
  566SOL     OW  285   0.991   2.272   1.242
  566SOL    HW1  286   0.914   2.306   1.296
  566SOL    HW2  287   0.957   2.221   1.163
  571SOL     OW  288   1.719   2.447   1.831
  571SOL    HW1  289   1.693   2.536   1.795
  571SOL    HW2  290   1.717   2.379   1.758
  576SOL     OW  291   1.795   2.928   0.873
  576SOL    HW1  292   1.733   2.913   0.797
  576SOL    HW2  293   1.743   2.939   0.958
  577SOL     OW  294   1.227   3.412   1.506
  577SOL    HW1  295   1.233   3.335   1.570
  577SOL    HW2  296   1.175   3.386   1.426
  589SOL     OW  297   1.547   2.084   1.729
  589SOL    HW1  298   1.542   2.121   1.821
  589SOL    HW2  299   1.475   2.015   1.717
  590SOL     OW  300   0.781   2.126   1.749
  590SOL    HW1  301   0.848   2.065   1.792
  590SOL    HW2  302   0.708   2.145   1.814
  592SOL     OW  303   1.351   2.452   1.433
  592SOL    HW1  304   1.379   2.409   1.518
  592SOL    HW2  305   1.376   2.548   1.434
  599SOL     OW  306   1.076   2.545   1.464
  599SOL    HW1  307   0.996   2.484   1.467
  599SOL    HW2  308   1.157   2.492   1.440
  609SOL     OW  309   1.466   2.452   0.992
  609SOL    HW1  310   1.436   2.357   0.999
  609SOL    HW2  311   1.539   2.468   1.058
  615SOL     OW  312   1.754   3.085   1.588
  615SOL    HW1  313   1.845   3.046   1.575
  615SOL    HW2  314   1.762   3.181   1.612
  617SOL     OW  315   1.592   3.491   1.625
  617SOL    HW1  316   1.619   3.525   1.535
  617SOL    HW2  317   1.671   3.453   1.671
  619SOL     OW  318   1.638   2.961   1.079
  619SOL    HW1  319   1.643   3.042   1.138
  619SOL    HW2  320   1.552   2.963   1.028
  620SOL     OW  321   0.915   1.951   1.402
  620SOL    HW1  322   0.940   1.931   1.307
  620SOL    HW2  323   0.987   2.007   1.444
  621SOL     OW  324   0.980   2.978   1.719
  621SOL    HW1  325   0.881   2.984   1.729
  621SOL    HW2  326   1.003   2.898   1.663
  624SOL     OW  327   1.274   2.248   1.262
  624SOL    HW1  328   1.295   2.322   1.326
  624SOL    HW2  329   1.185   2.265   1.219
  633SOL     OW  330   1.587   2.641   1.670
  633SOL    HW1  331   1.495   2.679   1.665
  633SOL    HW2  332   1.647   2.688   1.605
  634SOL     OW  333   1.013   1.967   1.770
  634SOL    HW1  334   1.019   2.052   1.718
  634SOL    HW2  335   1.045   1.891   1.713
  637SOL     OW  336   1.360   2.724   1.045
  637SOL    HW1  337   1.285   2.724   0.979
  637SOL    HW2  338   1.397   2.632   1.054
  642SOL     OW  339   1.728   2.797   1.854
  642SOL    HW1  340   1.682   2.790   1.765
  642SOL    HW2  341   1.666   2.841   1.920
  647SOL     OW  342   1.859   3.380   1.605
  647SOL    HW1  343   1.873   3.407   1.510
  647SOL    HW2  344   1.942   3.402   1.658
  654SOL     OW  345   1.138   2.242   1.678
  654SOL    HW1  346   1.093   2.305   1.742
  654SOL    HW2  347   1.231   2.273   1.661
  655SOL     OW  348   1.160   2.069   1.477
  655SOL    HW1  349   1.160   2.133   1.554
  655SOL    HW2  350   1.188   2.117   1.394
  659SOL     OW  351   1.002   2.658   1.238
  659SOL    HW1  352   1.043   2.626   1.324
  659SOL    HW2  353   0.906   2.631   1.235
  662SOL     OW  354   1.369   2.812   1.660
  662SOL    HW1  355   1.408   2.901   1.680
  662SOL    HW2  356   1.379   2.792   1.563
  664SOL     OW  357   1.657   2.466   1.206
  664SOL    HW1  358   1.619   2.397   1.268
  664SOL    HW2  359   1.739   2.430   1.162
  670SOL     OW  360   1.347   2.921   1.234
  670SOL    HW1  361   1.371   2.858   1.160
  670SOL    HW2  362   1.257   2.961   1.216
  683SOL     OW  363   1.650   3.582   1.394
  683SOL    HW1  364   1.703   3.592   1.310
  683SOL    HW2  365   1.623   3.672   1.428
  684SOL     OW  366   1.841   2.037   0.963
  684SOL    HW1  367   1.880   1.952   0.927
  684SOL    HW2  368   1.743   2.039   0.944
  691SOL     OW  369   1.614   3.154   1.289
  691SOL    HW1  370   1.674   3.157   1.369
  691SOL    HW2  371   1.539   3.218   1.302
  695SOL     OW  372   1.709   2.247   1.381
  695SOL    HW1  373   1.782   2.316   1.385
  695SOL    HW2  374   1.737   2.172   1.322
  700SOL     OW  375   1.440   2.718   1.398
  700SOL    HW1  376   1.383   2.770   1.335
  700SOL    HW2  377   1.536   2.730   1.374
  705SOL     OW  378   0.716   2.427   1.708
  705SOL    HW1  379   0.735   2.492   1.782
  705SOL    HW2  380   0.776   2.347   1.717
  706SOL     OW  381   1.450   3.082   1.633
  706SOL    HW1  382   1.441   3.072   1.732
  706SOL    HW2  383   1.546   3.075   1.607
  708SOL     OW  384   1.674   2.745   1.254
  708SOL    HW1  385   1.647   2.656   1.217
  708SOL    HW2  386   1.675   2.813   1.181
  711SOL     OW  387   1.777   2.204   1.642
  711SOL    HW1  388   1.760   2.235   1.548
  711SOL    HW2  389   1.693   2.167   1.680
  712SOL     OW  390   1.730   2.796   1.517
  712SOL    HW1  391   1.768   2.887   1.532
  712SOL    HW2  392   1.722   2.779   1.418
  721SOL     OW  393   1.824   2.054   1.227
  721SOL    HW1  394   1.820   1.964   1.271
  721SOL    HW2  395   1.827   2.043   1.128
  723SOL     OW  396   1.705   3.349   1.104
  723SOL    HW1  397   1.612   3.324   1.077
  723SOL    HW2  398   1.731   3.299   1.186
  726SOL     OW  399   1.424   2.076   1.112
  726SOL    HW1  400   1.476   2.011   1.167
  726SOL    HW2  401   1.375   2.139   1.173
  727SOL     OW  402   1.001   1.896   1.154
  727SOL    HW1  403   0.938   1.824   1.123
  727SOL    HW2  404   1.094   1.860   1.154
  732SOL     OW  405   1.593   2.083   0.882
  732SOL    HW1  406   1.509   2.082   0.936
  732SOL    HW2  407   1.595   2.166   0.826
  739SOL     OW  408   1.555   3.373   2.565
  739SOL    HW1  409   1.498   3.357   2.646
  739SOL    HW2  410   1.496   3.383   2.485
  740SOL     OW  411   1.135   2.565   2.579
  740SOL    HW1  412   1.192   2.643   2.554
  740SOL    HW2  413   1.075   2.591   2.655
  741SOL     OW  414   1.755   2.469   2.093
  741SOL    HW1  415   1.743   2.456   1.994
  741SOL    HW2  416   1.725   2.388   2.142
  742SOL     OW  417   0.768   3.006   2.885
  742SOL    HW1  418   0.690   3.023   2.945
  742SOL    HW2  419   0.802   3.093   2.849
  744SOL     OW  420   0.685   2.874   2.527
  744SOL    HW1  421   0.754   2.858   2.597
  744SOL    HW2  422   0.612   2.931   2.565
  747SOL     OW  423   1.460   3.367   3.201
  747SOL    HW1  424   1.484   3.461   3.227
  747SOL    HW2  425   1.444   3.313   3.283
  749SOL     OW  426   1.603   2.309   2.599
  749SOL    HW1  427   1.529   2.355   2.549
  749SOL    HW2  428   1.654   2.377   2.652
  755SOL     OW  429   0.606   2.826   1.985
  755SOL    HW1  430   0.613   2.910   1.931
  755SOL    HW2  431   0.652   2.839   2.073
  756SOL     OW  432   1.594   1.976   3.342
  756SOL    HW1  433   1.576   2.043   3.270
  756SOL    HW2  434   1.591   2.022   3.431
  758SOL     OW  435   1.842   3.629   2.221
  758SOL    HW1  436   1.896   3.600   2.301
  758SOL    HW2  437   1.872   3.719   2.192
  760SOL     OW  438   1.689   2.784   2.474
  760SOL    HW1  439   1.784   2.755   2.482
  760SOL    HW2  440   1.681   2.849   2.399
  761SOL     OW  441   1.641   2.970   2.294
  761SOL    HW1  442   1.727   2.972   2.242
  761SOL    HW2  443   1.655   3.017   2.382
  764SOL     OW  444   1.293   3.090   3.285
  764SOL    HW1  445   1.330   3.017   3.227
  764SOL    HW2  446   1.345   3.095   3.370
  765SOL     OW  447   0.809   1.866   2.364
  765SOL    HW1  448   0.849   1.957   2.355
  765SOL    HW2  449   0.709   1.874   2.370
  767SOL     OW  450   1.525   2.861   2.052
  767SOL    HW1  451   1.462   2.785   2.065
  767SOL    HW2  452   1.573   2.879   2.138
  770SOL     OW  453   1.466   3.279   2.815
  770SOL    HW1  454   1.407   3.285   2.895
  770SOL    HW2  455   1.451   3.191   2.769
  771SOL     OW  456   1.667   3.576   2.434
  771SOL    HW1  457   1.626   3.553   2.346
  771SOL    HW2  458   1.649   3.502   2.499
  772SOL     OW  459   0.598   2.591   2.132
  772SOL    HW1  460   0.622   2.660   2.064
  772SOL    HW2  461   0.520   2.624   2.186
  773SOL     OW  462   1.281   2.207   2.806
  773SOL    HW1  463   1.195   2.157   2.793
  773SOL    HW2  464   1.343   2.153   2.862
  774SOL     OW  465   1.576   3.524   2.169
  774SOL    HW1  466   1.665   3.570   2.172
  774SOL    HW2  467   1.555   3.500   2.074
  776SOL     OW  468   1.394   2.331   3.536
  776SOL    HW1  469   1.374   2.374   3.624
  776SOL    HW2  470   1.472   2.269   3.545
  778SOL     OW  471   0.991   2.272   3.104
  778SOL    HW1  472   0.914   2.306   3.158
  778SOL    HW2  473   0.957   2.221   3.025
  779SOL     OW  474   1.041   2.563   2.291
  779SOL    HW1  475   1.067   2.559   2.387
  779SOL    HW2  476   0.956   2.512   2.277
  782SOL     OW  477   0.865   2.210   2.057
  782SOL    HW1  478   0.924   2.273   2.008
  782SOL    HW2  479   0.884   2.116   2.028
  783SOL     OW  480   1.719   2.447   3.693
  783SOL    HW1  481   1.693   2.536   3.657
  783SOL    HW2  482   1.717   2.379   3.620
  784SOL     OW  483   1.362   3.006   2.407
  784SOL    HW1  484   1.445   2.977   2.359
  784SOL    HW2  485   1.313   3.073   2.351
  786SOL     OW  486   1.008   3.318   2.339
  786SOL    HW1  487   0.962   3.390   2.287
  786SOL    HW2  488   1.004   3.338   2.437
  788SOL     OW  489   1.795   2.928   2.735
  788SOL    HW1  490   1.733   2.913   2.659
  788SOL    HW2  491   1.743   2.939   2.820
  791SOL     OW  492   1.458   2.597   2.590
  791SOL    HW1  493   1.453   2.532   2.665
  791SOL    HW2  494   1.538   2.656   2.603
  795SOL     OW  495   1.632   3.239   1.943
  795SOL    HW1  496   1.600   3.333   1.933
  795SOL    HW2  497   1.556   3.176   1.931
  797SOL     OW  498   1.400   1.969   2.288
  797SOL    HW1  499   1.376   1.932   2.198
  797SOL    HW2  500   1.499   1.985   2.292
  801SOL     OW  501   1.547   2.084   3.591
  801SOL    HW1  502   1.542   2.121   3.683
  801SOL    HW2  503   1.475   2.015   3.579
  802SOL     OW  504   0.614   1.984   1.979
  802SOL    HW1  505   0.712   1.962   1.986
  802SOL    HW2  506   0.583   1.967   1.886
  805SOL     OW  507   1.351   2.452   3.295
  805SOL    HW1  508   1.379   2.409   3.380
  805SOL    HW2  509   1.376   2.548   3.296
  807SOL     OW  510   0.922   2.365   2.761
  807SOL    HW1  511   0.897   2.356   2.665
  807SOL    HW2  512   0.970   2.283   2.792
  808SOL     OW  513   0.539   1.926   2.374
  808SOL    HW1  514   0.458   1.927   2.432
  808SOL    HW2  515   0.542   2.009   2.319
  809SOL     OW  516   1.434   3.050   1.903
  809SOL    HW1  517   1.466   2.974   1.960
  809SOL    HW2  518   1.342   3.077   1.933
  811SOL     OW  519   0.935   2.098   2.342
  811SOL    HW1  520   0.887   2.139   2.264
  811SOL    HW2  521   1.034   2.096   2.323
  812SOL     OW  522   1.076   2.545   3.326
  812SOL    HW1  523   0.996   2.484   3.329
  812SOL    HW2  524   1.157   2.492   3.302
  813SOL     OW  525   1.227   3.432   2.655
  813SOL    HW1  526   1.248   3.506   2.590
  813SOL    HW2  527   1.295   3.432   2.728
  815SOL     OW  528   1.271   3.659   2.453
  815SOL    HW1  529   1.315   3.723   2.389
  815SOL    HW2  530   1.221   3.711   2.523
  816SOL     OW  531   1.032   2.411   1.878
  816SOL    HW1  532   0.991   2.493   1.839
  816SOL    HW2  533   1.096   2.437   1.951
  819SOL     OW  534   0.866   2.316   2.504
  819SOL    HW1  535   0.834   2.388   2.442
  819SOL    HW2  536   0.890   2.235   2.451
  820SOL     OW  537   1.017   1.901   2.615
  820SOL    HW1  538   0.945   1.906   2.546
  820SOL    HW2  539   0.993   1.832   2.684
  821SOL     OW  540   1.429   3.035   2.729
  821SOL    HW1  541   1.374   2.951   2.722
  821SOL    HW2  542   1.455   3.064   2.637
  822SOL     OW  543   1.466   2.452   2.854
  822SOL    HW1  544   1.436   2.357   2.861
  822SOL    HW2  545   1.539   2.468   2.920
  823SOL     OW  546   1.857   2.695   2.239
  823SOL    HW1  547   1.899   2.631   2.303
  823SOL    HW2  548   1.819   2.644   2.161
  825SOL     OW  549   1.664   3.142   2.519
  825SOL    HW1  550   1.763   3.150   2.533
  825SOL    HW2  551   1.619   3.226   2.550
  826SOL     OW  552   1.390   2.437   1.940
  826SOL    HW1  553   1.336   2.416   2.021
  826SOL    HW2  554   1.481   2.396   1.949
  827SOL     OW  555   0.527   2.118   2.190
  827SOL    HW1  556   0.554   2.059   2.115
  827SOL    HW2  557   0.527   2.213   2.159
  828SOL     OW  558   1.754   3.085   3.450
  828SOL    HW1  559   1.845   3.046   3.437
  828SOL    HW2  560   1.762   3.181   3.474
  829SOL     OW  561   1.064   3.209   3.202
  829SOL    HW1  562   0.984   3.186   3.257
  829SOL    HW2  563   1.147   3.183   3.251
  831SOL     OW  564   1.111   3.057   2.962
  831SOL    HW1  565   1.071   3.101   3.043
  831SOL    HW2  566   1.070   3.094   2.879
  832SOL     OW  567   1.638   2.961   2.941
  832SOL    HW1  568   1.643   3.042   3.000
  832SOL    HW2  569   1.552   2.963   2.890
  833SOL     OW  570   0.915   1.951   3.264
  833SOL    HW1  571   0.940   1.931   3.169
  833SOL    HW2  572   0.987   2.007   3.306
  835SOL     OW  573   0.705   2.912   2.230
  835SOL    HW1  574   0.691   2.919   2.329
  835SOL    HW2  575   0.789   2.861   2.212
  837SOL     OW  576   1.274   2.248   3.124
  837SOL    HW1  577   1.295   2.322   3.188
  837SOL    HW2  578   1.185   2.265   3.081
  840SOL     OW  579   0.566   2.399   2.727
  840SOL    HW1  580   0.578   2.465   2.653
  840SOL    HW2  581   0.612   2.433   2.810
  841SOL     OW  582   1.252   3.210   2.250
  841SOL    HW1  583   1.302   3.287   2.290
  841SOL    HW2  584   1.157   3.212   2.282
  842SOL     OW  585   1.272   3.307   3.004
  842SOL    HW1  586   1.319   3.320   3.091
  842SOL    HW2  587   1.206   3.233   3.013
  843SOL     OW  588   1.582   2.501   2.334
  843SOL    HW1  589   1.551   2.562   2.407
  843SOL    HW2  590   1.632   2.553   2.265
  846SOL     OW  591   1.587   2.641   3.532
  846SOL    HW1  592   1.495   2.679   3.527
  846SOL    HW2  593   1.647   2.688   3.467
  850SOL     OW  594   1.360   2.724   2.907
  850SOL    HW1  595   1.285   2.724   2.841
  850SOL    HW2  596   1.397   2.632   2.916
  851SOL     OW  597   1.209   2.387   2.137
  851SOL    HW1  598   1.222   2.303   2.191
  851SOL    HW2  599   1.180   2.461   2.197
  854SOL     OW  600   0.732   2.496   2.926
  854SOL    HW1  601   0.791   2.470   2.850
  854SOL    HW2  602   0.704   2.592   2.915
  855SOL     OW  603   1.728   2.797   3.716
  855SOL    HW1  604   1.682   2.790   3.627
  855SOL    HW2  605   1.666   2.841   3.782
  857SOL     OW  606   1.622   2.229   2.236
  857SOL    HW1  607   1.624   2.153   2.300
  857SOL    HW2  608   1.574   2.306   2.276
  858SOL     OW  609   1.023   2.628   2.828
  858SOL    HW1  610   1.038   2.649   2.924
  858SOL    HW2  611   0.993   2.533   2.819
  860SOL     OW  612   1.859   3.380   3.467
  860SOL    HW1  613   1.873   3.407   3.372
  860SOL    HW2  614   1.942   3.402   3.520
  862SOL     OW  615   1.540   2.136   1.987
  862SOL    HW1  616   1.479   2.061   2.010
  862SOL    HW2  617   1.562   2.188   2.070
  863SOL     OW  618   1.303   2.700   1.904
  863SOL    HW1  619   1.337   2.607   1.919
  863SOL    HW2  620   1.321   2.727   1.809
  864SOL     OW  621   1.068   3.195   2.711
  864SOL    HW1  622   1.075   3.111   2.656
  864SOL    HW2  623   1.130   3.264   2.675
  867SOL     OW  624   1.138   2.242   3.540
  867SOL    HW1  625   1.093   2.305   3.604
  867SOL    HW2  626   1.231   2.273   3.523
  868SOL     OW  627   1.160   2.069   3.339
  868SOL    HW1  628   1.160   2.133   3.416
  868SOL    HW2  629   1.188   2.117   3.256
  872SOL     OW  630   1.002   2.658   3.100
  872SOL    HW1  631   1.043   2.626   3.186
  872SOL    HW2  632   0.906   2.631   3.097
  875SOL     OW  633   1.369   2.812   3.522
  875SOL    HW1  634   1.408   2.901   3.542
  875SOL    HW2  635   1.379   2.792   3.425
  876SOL     OW  636   0.815   2.434   2.187
  876SOL    HW1  637   0.822   2.345   2.141
  876SOL    HW2  638   0.721   2.468   2.179
  877SOL     OW  639   1.657   2.466   3.068
  877SOL    HW1  640   1.619   2.397   3.130
  877SOL    HW2  641   1.739   2.430   3.024
  883SOL     OW  642   1.347   2.921   3.096
  883SOL    HW1  643   1.371   2.858   3.022
  883SOL    HW2  644   1.257   2.961   3.078
  884SOL     OW  645   1.302   2.717   2.171
  884SOL    HW1  646   1.216   2.686   2.213
  884SOL    HW2  647   1.298   2.703   2.072
  885SOL     OW  648   1.759   3.609   3.016
  885SOL    HW1  649   1.820   3.639   2.943
  885SOL    HW2  650   1.721   3.520   2.994
  889SOL     OW  651   1.726   1.997   2.385
  889SOL    HW1  652   1.799   1.980   2.318
  889SOL    HW2  653   1.695   1.910   2.423
  890SOL     OW  654   1.388   3.435   2.339
  890SOL    HW1  655   1.455   3.447   2.265
  890SOL    HW2  656   1.348   3.524   2.362
  892SOL     OW  657   1.280   2.789   2.534
  892SOL    HW1  658   1.340   2.708   2.536
  892SOL    HW2  659   1.320   2.858   2.474
  895SOL     OW  660   1.650   3.582   3.256
  895SOL    HW1  661   1.703   3.592   3.172
  895SOL    HW2  662   1.623   3.672   3.290
  896SOL     OW  663   1.841   2.037   2.825
  896SOL    HW1  664   1.880   1.952   2.789
  896SOL    HW2  665   1.743   2.039   2.806
  898SOL     OW  666   1.194   3.474   1.893
  898SOL    HW1  667   1.200   3.381   1.930
  898SOL    HW2  668   1.135   3.474   1.813
  900SOL     OW  669   0.916   2.772   2.153
  900SOL    HW1  670   0.979   2.810   2.085
  900SOL    HW2  671   0.956   2.689   2.192
  901SOL     OW  672   1.504   3.469   1.906
  901SOL    HW1  673   1.412   3.506   1.913
  901SOL    HW2  674   1.542   3.489   1.816
  903SOL     OW  675   1.614   3.154   3.151
  903SOL    HW1  676   1.674   3.157   3.231
  903SOL    HW2  677   1.539   3.218   3.164
  904SOL     OW  678   1.039   2.960   2.558
  904SOL    HW1  679   0.969   2.913   2.612
  904SOL    HW2  680   1.098   2.892   2.515
  905SOL     OW  681   1.014   2.098   2.833
  905SOL    HW1  682   1.006   2.062   2.740
  905SOL    HW2  683   1.012   2.022   2.898
  907SOL     OW  684   1.709   2.247   3.243
  907SOL    HW1  685   1.782   2.316   3.247
  907SOL    HW2  686   1.737   2.172   3.184
  912SOL     OW  687   1.440   2.718   3.260
  912SOL    HW1  688   1.383   2.770   3.197
  912SOL    HW2  689   1.536   2.730   3.236
  914SOL     OW  690   1.183   3.197   1.981
  914SOL    HW1  691   1.084   3.186   1.983
  914SOL    HW2  692   1.217   3.212   2.074
  916SOL     OW  693   1.493   3.629   2.821
  916SOL    HW1  694   1.526   3.693   2.752
  916SOL    HW2  695   1.559   3.623   2.896
  918SOL     OW  696   1.450   3.082   3.495
  918SOL    HW1  697   1.441   3.072   3.594
  918SOL    HW2  698   1.546   3.075   3.469
  920SOL     OW  699   1.674   2.745   3.116
  920SOL    HW1  700   1.647   2.656   3.079
  920SOL    HW2  701   1.675   2.813   3.043
  921SOL     OW  702   1.225   2.187   2.311
  921SOL    HW1  703   1.290   2.113   2.300
  921SOL    HW2  704   1.245   2.237   2.395
  922SOL     OW  705   0.594   2.607   2.514
  922SOL    HW1  706   0.644   2.692   2.495
  922SOL    HW2  707   0.506   2.609   2.466
  923SOL     OW  708   1.777   2.204   3.504
  923SOL    HW1  709   1.760   2.235   3.410
  923SOL    HW2  710   1.693   2.167   3.542
  924SOL     OW  711   1.730   2.796   3.379
  924SOL    HW1  712   1.768   2.887   3.394
  924SOL    HW2  713   1.722   2.779   3.280
  925SOL     OW  714   0.859   3.236   1.878
  925SOL    HW1  715   0.813   3.251   1.966
  925SOL    HW2  716   0.903   3.321   1.848
  927SOL     OW  717   0.859   2.818   2.723
  927SOL    HW1  718   0.913   2.749   2.771
  927SOL    HW2  719   0.827   2.887   2.789
  928SOL     OW  720   1.083   2.846   1.949
  928SOL    HW1  721   1.060   2.899   1.867
  928SOL    HW2  722   1.164   2.790   1.930
  929SOL     OW  723   1.861   3.431   2.713
  929SOL    HW1  724   1.790   3.419   2.643
  929SOL    HW2  725   1.862   3.352   2.773
  933SOL     OW  726   1.824   2.054   3.089
  933SOL    HW1  727   1.820   1.964   3.133
  933SOL    HW2  728   1.827   2.043   2.990
  935SOL     OW  729   1.705   3.349   2.966
  935SOL    HW1  730   1.612   3.324   2.939
  935SOL    HW2  731   1.731   3.299   3.048
  938SOL     OW  732   1.424   2.076   2.974
  938SOL    HW1  733   1.476   2.011   3.029
  938SOL    HW2  734   1.375   2.139   3.035
  939SOL     OW  735   1.001   1.896   3.016
  939SOL    HW1  736   0.938   1.824   2.985
  939SOL    HW2  737   1.094   1.860   3.016
  940SOL     OW  738   0.770   3.192   2.163
  940SOL    HW1  739   0.724   3.105   2.180
  940SOL    HW2  740   0.861   3.189   2.204
  942SOL     OW  741   1.352   1.914   2.030
  942SOL    HW1  742   1.387   1.873   1.946
  942SOL    HW2  743   1.262   1.876   2.050
  943SOL     OW  744   1.300   2.315   2.553
  943SOL    HW1  745   1.241   2.395   2.557
  943SOL    HW2  746   1.315   2.280   2.646
  944SOL     OW  747   1.593   2.083   2.744
  944SOL    HW1  748   1.509   2.082   2.798
  944SOL    HW2  749   1.595   2.166   2.688
  951SOL     OW  750   1.755   2.469   3.955
  951SOL    HW1  751   1.743   2.456   3.856
  951SOL    HW2  752   1.725   2.388   4.004
  998SOL     OW  753   1.390   2.437   3.802
  998SOL    HW1  754   1.336   2.416   3.883
  998SOL    HW2  755   1.481   2.396   3.811
 1008SOL     OW  756   1.540   2.136   3.849
 1008SOL    HW1  757   1.479   2.061   3.872
 1008SOL    HW2  758   1.562   2.188   3.932
 1167SOL     OW  759   1.400   3.831   2.288
 1167SOL    HW1  760   1.376   3.794   2.198
 1167SOL    HW2  761   1.499   3.847   2.292
 1214SOL     OW  762   1.726   3.859   2.385
 1214SOL    HW1  763   1.799   3.842   2.318
 1214SOL    HW2  764   1.695   3.772   2.423
 1216SOL     OW  765   1.841   3.899   2.825
 1216SOL    HW1  766   1.880   3.814   2.789
 1216SOL    HW2  767   1.743   3.901   2.806
 1237SOL     OW  768   1.352   3.776   2.030
 1237SOL    HW1  769   1.387   3.735   1.946
 1237SOL    HW2  770   1.262   3.738   2.050
 1291SOL     OW  771   2.431   1.275   1.165
 1291SOL    HW1  772   2.338   1.268   1.128
 1291SOL    HW2  773   2.442   1.364   1.209
 1295SOL     OW  774   2.630   1.144   1.023
 1295SOL    HW1  775   2.552   1.161   1.083
 1295SOL    HW2  776   2.664   1.231   0.987
 1296SOL     OW  777   2.712   0.798   1.823
 1296SOL    HW1  778   2.708   0.874   1.888
 1296SOL    HW2  779   2.734   0.834   1.732
 1298SOL     OW  780   2.548   1.161   1.803
 1298SOL    HW1  781   2.608   1.240   1.817
 1298SOL    HW2  782   2.462   1.192   1.762
 1299SOL     OW  783   2.197   1.435   1.061
 1299SOL    HW1  784   2.119   1.404   1.008
 1299SOL    HW2  785   2.255   1.493   1.004
 1300SOL     OW  786   3.322   1.505   1.339
 1300SOL    HW1  787   3.346   1.599   1.365
 1300SOL    HW2  788   3.306   1.451   1.421
 1304SOL     OW  789   2.989   1.341   1.690
 1304SOL    HW1  790   3.036   1.341   1.778
 1304SOL    HW2  791   2.941   1.254   1.679
 1307SOL     OW  792   2.482   1.786   1.439
 1307SOL    HW1  793   2.390   1.769   1.474
 1307SOL    HW2  794   2.510   1.878   1.465
 1315SOL     OW  795   1.975   0.737   1.597
 1315SOL    HW1  796   2.063   0.724   1.642
 1315SOL    HW2  797   1.962   0.834   1.575
 1317SOL     OW  798   3.155   1.228   1.423
 1317SOL    HW1  799   3.192   1.155   1.365
 1317SOL    HW2  800   3.207   1.233   1.508
 1319SOL     OW  801   2.059   0.976   1.264
 1319SOL    HW1  802   2.148   0.931   1.250
 1319SOL    HW2  803   1.986   0.911   1.245
 1321SOL     OW  804   3.049   1.792   1.616
 1321SOL    HW1  805   3.073   1.852   1.540
 1321SOL    HW2  806   3.056   1.697   1.586
 1330SOL     OW  807   2.835   0.890   1.572
 1330SOL    HW1  808   2.881   0.806   1.543
 1330SOL    HW2  809   2.779   0.924   1.497
 1334SOL     OW  810   1.992   1.821   1.571
 1334SOL    HW1  811   1.982   1.806   1.670
 1334SOL    HW2  812   1.906   1.857   1.535
 1340SOL     OW  813   2.213   1.801   0.853
 1340SOL    HW1  814   2.263   1.715   0.859
 1340SOL    HW2  815   2.278   1.878   0.850
 1342SOL     OW  816   3.089   1.550   1.506
 1342SOL    HW1  817   3.095   1.473   1.570
 1342SOL    HW2  818   3.037   1.524   1.426
 1345SOL     OW  819   2.323   1.266   1.727
 1345SOL    HW1  820   2.273   1.267   1.641
 1345SOL    HW2  821   2.260   1.248   1.803
 1351SOL     OW  822   2.111   1.785   1.241
 1351SOL    HW1  823   2.168   1.720   1.291
 1351SOL    HW2  824   2.095   1.752   1.148
 1352SOL     OW  825   2.802   1.698   0.904
 1352SOL    HW1  826   2.882   1.641   0.925
 1352SOL    HW2  827   2.753   1.658   0.827
 1357SOL     OW  828   2.750   1.514   1.195
 1357SOL    HW1  829   2.727   1.489   1.101
 1357SOL    HW2  830   2.811   1.445   1.234
 1359SOL     OW  831   2.665   1.402   0.924
 1359SOL    HW1  832   2.755   1.416   0.882
 1359SOL    HW2  833   2.594   1.404   0.853
 1382SOL     OW  834   2.926   1.347   1.340
 1382SOL    HW1  835   2.846   1.324   1.395
 1382SOL    HW2  836   3.009   1.321   1.389
 1383SOL     OW  837   3.454   1.629   1.625
 1383SOL    HW1  838   3.481   1.663   1.535
 1383SOL    HW2  839   3.533   1.591   1.671
 1384SOL     OW  840   2.973   1.195   1.100
 1384SOL    HW1  841   2.933   1.239   1.181
 1384SOL    HW2  842   2.932   1.232   1.017
 1387SOL     OW  843   2.842   1.116   1.719
 1387SOL    HW1  844   2.743   1.122   1.729
 1387SOL    HW2  845   2.865   1.036   1.663
 1391SOL     OW  846   1.926   1.564   1.331
 1391SOL    HW1  847   1.880   1.646   1.297
 1391SOL    HW2  848   2.024   1.583   1.340
 1395SOL     OW  849   3.134   1.445   1.142
 1395SOL    HW1  850   3.181   1.458   1.229
 1395SOL    HW2  851   3.068   1.371   1.151
 1397SOL     OW  852   2.216   1.510   1.329
 1397SOL    HW1  853   2.195   1.466   1.242
 1397SOL    HW2  854   2.313   1.536   1.332
 1398SOL     OW  855   2.264   0.751   1.598
 1398SOL    HW1  856   2.332   0.806   1.551
 1398SOL    HW2  857   2.304   0.663   1.625
 1406SOL     OW  858   1.899   1.310   1.282
 1406SOL    HW1  859   1.952   1.261   1.350
 1406SOL    HW2  860   1.921   1.408   1.287
 1412SOL     OW  861   2.842   1.573   1.700
 1412SOL    HW1  862   2.822   1.617   1.612
 1412SOL    HW2  863   2.881   1.482   1.684
 1413SOL     OW  864   3.721   1.518   1.605
 1413SOL    HW1  865   3.735   1.545   1.510
 1413SOL    HW2  866   3.804   1.540   1.658
 1414SOL     OW  867   2.212   0.898   1.804
 1414SOL    HW1  868   2.288   0.942   1.852
 1414SOL    HW2  869   2.247   0.851   1.722
 1423SOL     OW  870   1.950   1.801   0.927
 1423SOL    HW1  871   1.908   1.715   0.900
 1423SOL    HW2  872   2.044   1.804   0.893
 1424SOL     OW  873   2.366   1.568   0.910
 1424SOL    HW1  874   2.432   1.642   0.919
 1424SOL    HW2  875   2.410   1.489   0.868
 1428SOL     OW  876   3.231   0.950   1.660
 1428SOL    HW1  877   3.270   1.039   1.680
 1428SOL    HW2  878   3.241   0.930   1.563
 1431SOL     OW  879   2.114   1.564   1.744
 1431SOL    HW1  880   2.084   1.621   1.820
 1431SOL    HW2  881   2.107   1.467   1.770
 1433SOL     OW  882   2.792   1.678   1.465
 1433SOL    HW1  883   2.768   1.660   1.370
 1433SOL    HW2  884   2.822   1.772   1.475
 1435SOL     OW  885   2.021   1.137   1.466
 1435SOL    HW1  886   2.043   1.076   1.542
 1435SOL    HW2  887   2.031   1.088   1.380
 1439SOL     OW  888   3.114   1.731   1.128
 1439SOL    HW1  889   3.198   1.736   1.074
 1439SOL    HW2  890   3.091   1.635   1.146
 1440SOL     OW  891   1.945   1.258   1.022
 1440SOL    HW1  892   1.940   1.257   1.122
 1440SOL    HW2  893   1.862   1.217   0.984
 1441SOL     OW  894   2.550   1.662   1.716
 1441SOL    HW1  895   2.494   1.743   1.725
 1441SOL    HW2  896   2.602   1.666   1.630
 1445SOL     OW  897   1.992   1.794   1.851
 1445SOL    HW1  898   1.951   1.720   1.904
 1445SOL    HW2  899   2.056   1.845   1.909
 1447SOL     OW  900   2.692   1.273   1.422
 1447SOL    HW1  901   2.687   1.306   1.517
 1447SOL    HW2  902   2.606   1.292   1.376
 1449SOL     OW  903   3.512   1.720   1.394
 1449SOL    HW1  904   3.565   1.730   1.310
 1449SOL    HW2  905   3.485   1.810   1.428
 1453SOL     OW  906   2.684   1.002   1.372
 1453SOL    HW1  907   2.724   1.001   1.280
 1453SOL    HW2  908   2.694   1.094   1.412
 1456SOL     OW  909   2.234   1.288   1.490
 1456SOL    HW1  910   2.221   1.381   1.456
 1456SOL    HW2  911   2.150   1.236   1.477
 1463SOL     OW  912   1.967   1.013   1.726
 1463SOL    HW1  913   1.890   0.980   1.780
 1463SOL    HW2  914   2.052   0.983   1.768
 1469SOL     OW  915   2.475   0.842   1.431
 1469SOL    HW1  916   2.531   0.923   1.414
 1469SOL    HW2  917   2.534   0.762   1.434
 1470SOL     OW  918   3.355   1.767   0.959
 1470SOL    HW1  919   3.388   1.831   0.890
 1470SOL    HW2  920   3.421   1.761   1.034
 1472SOL     OW  921   3.312   1.220   1.633
 1472SOL    HW1  922   3.303   1.210   1.732
 1472SOL    HW2  923   3.408   1.213   1.607
 1473SOL     OW  924   2.252   1.741   1.560
 1473SOL    HW1  925   2.161   1.782   1.558
 1473SOL    HW2  926   2.245   1.647   1.592
 1480SOL     OW  927   2.523   1.790   0.953
 1480SOL    HW1  928   2.477   1.878   0.940
 1480SOL    HW2  929   2.622   1.802   0.946
 1484SOL     OW  930   2.083   1.314   1.844
 1484SOL    HW1  931   2.018   1.241   1.823
 1484SOL    HW2  932   2.087   1.328   1.942
 1486SOL     OW  933   2.534   1.391   1.624
 1486SOL    HW1  934   2.456   1.341   1.662
 1486SOL    HW2  935   2.531   1.486   1.655
 1491SOL     OW  936   2.674   1.586   0.687
 1491SOL    HW1  937   2.706   1.596   0.593
 1491SOL    HW2  938   2.595   1.524   0.689
 1495SOL     OW  939   2.480   1.567   1.284
 1495SOL    HW1  940   2.475   1.649   1.341
 1495SOL    HW2  941   2.569   1.564   1.239
 1501SOL     OW  942   2.092   0.628   1.975
 1501SOL    HW1  943   1.999   0.626   2.012
 1501SOL    HW2  944   2.093   0.589   1.883
 1504SOL     OW  945   2.431   1.275   3.027
 1504SOL    HW1  946   2.338   1.268   2.990
 1504SOL    HW2  947   2.442   1.364   3.071
 1505SOL     OW  948   3.417   1.511   2.565
 1505SOL    HW1  949   3.360   1.495   2.646
 1505SOL    HW2  950   3.358   1.521   2.485
 1506SOL     OW  951   2.997   0.703   2.579
 1506SOL    HW1  952   3.054   0.781   2.554
 1506SOL    HW2  953   2.937   0.729   2.655
 1508SOL     OW  954   2.630   1.144   2.885
 1508SOL    HW1  955   2.552   1.161   2.945
 1508SOL    HW2  956   2.664   1.231   2.849
 1510SOL     OW  957   2.547   1.012   2.527
 1510SOL    HW1  958   2.616   0.996   2.597
 1510SOL    HW2  959   2.474   1.069   2.565
 1511SOL     OW  960   2.548   1.161   3.665
 1511SOL    HW1  961   2.608   1.240   3.679
 1511SOL    HW2  962   2.462   1.192   3.624
 1512SOL     OW  963   2.197   1.435   2.923
 1512SOL    HW1  964   2.119   1.404   2.870
 1512SOL    HW2  965   2.255   1.493   2.866
 1513SOL     OW  966   3.322   1.505   3.201
 1513SOL    HW1  967   3.346   1.599   3.227
 1513SOL    HW2  968   3.306   1.451   3.283
 1516SOL     OW  969   2.093   1.713   2.345
 1516SOL    HW1  970   2.127   1.790   2.399
 1516SOL    HW2  971   2.137   1.713   2.255
 1517SOL     OW  972   2.989   1.341   3.552
 1517SOL    HW1  973   3.036   1.341   3.640
 1517SOL    HW2  974   2.941   1.254   3.541
 1518SOL     OW  975   2.092   1.434   2.400
 1518SOL    HW1  976   2.066   1.530   2.400
 1518SOL    HW2  977   2.021   1.380   2.445
 1519SOL     OW  978   2.102   1.091   2.748
 1519SOL    HW1  979   2.116   1.007   2.800
 1519SOL    HW2  980   2.047   1.155   2.803
 1520SOL     OW  981   2.482   1.786   3.301
 1520SOL    HW1  982   2.390   1.769   3.336
 1520SOL    HW2  983   2.510   1.878   3.327
 1521SOL     OW  984   2.468   0.964   1.985
 1521SOL    HW1  985   2.475   1.048   1.931
 1521SOL    HW2  986   2.514   0.977   2.073
 1523SOL     OW  987   1.984   0.643   2.425
 1523SOL    HW1  988   1.939   0.555   2.442
 1523SOL    HW2  989   1.983   0.697   2.509
 1524SOL     OW  990   3.704   1.767   2.221
 1524SOL    HW1  991   3.758   1.738   2.301
 1524SOL    HW2  992   3.734   1.857   2.192
 1525SOL     OW  993   1.889   1.596   1.979
 1525SOL    HW1  994   1.870   1.500   2.000
 1525SOL    HW2  995   1.856   1.654   2.054
 1527SOL     OW  996   3.503   1.108   2.294
 1527SOL    HW1  997   3.589   1.110   2.242
 1527SOL    HW2  998   3.517   1.155   2.382
 1529SOL     OW  999   2.475   1.365   2.588
 1529SOL    HW1 1000   2.426   1.278   2.597
 1529SOL    HW2 1001   2.452   1.408   2.501
 1530SOL     OW 1002   3.155   1.228   3.285
 1530SOL    HW1 1003   3.192   1.155   3.227
 1530SOL    HW2 1004   3.207   1.233   3.370
 1532SOL     OW 1005   2.059   0.976   3.126
 1532SOL    HW1 1006   2.148   0.931   3.112
 1532SOL    HW2 1007   1.986   0.911   3.107
 1533SOL     OW 1008   3.387   0.999   2.052
 1533SOL    HW1 1009   3.324   0.923   2.065
 1533SOL    HW2 1010   3.435   1.017   2.138
 1534SOL     OW 1011   3.049   1.792   3.478
 1534SOL    HW1 1012   3.073   1.852   3.402
 1534SOL    HW2 1013   3.056   1.697   3.448
 1536SOL     OW 1014   3.328   1.417   2.815
 1536SOL    HW1 1015   3.269   1.423   2.895
 1536SOL    HW2 1016   3.313   1.329   2.769
 1537SOL     OW 1017   3.529   1.714   2.434
 1537SOL    HW1 1018   3.488   1.691   2.346
 1537SOL    HW2 1019   3.511   1.640   2.499
 1538SOL     OW 1020   2.460   0.729   2.132
 1538SOL    HW1 1021   2.484   0.798   2.064
 1538SOL    HW2 1022   2.382   0.762   2.186
 1540SOL     OW 1023   3.438   1.662   2.169
 1540SOL    HW1 1024   3.527   1.708   2.172
 1540SOL    HW2 1025   3.417   1.638   2.074
 1545SOL     OW 1026   2.903   0.701   2.291
 1545SOL    HW1 1027   2.929   0.697   2.387
 1545SOL    HW2 1028   2.818   0.650   2.277
 1546SOL     OW 1029   1.938   0.811   2.651
 1546SOL    HW1 1030   2.037   0.799   2.660
 1546SOL    HW2 1031   1.914   0.906   2.672
 1547SOL     OW 1032   1.992   1.821   3.433
 1547SOL    HW1 1033   1.982   1.806   3.532
 1547SOL    HW2 1034   1.906   1.857   3.397
 1550SOL     OW 1035   3.224   1.144   2.407
 1550SOL    HW1 1036   3.307   1.115   2.359
 1550SOL    HW2 1037   3.175   1.211   2.351
 1552SOL     OW 1038   2.870   1.456   2.339
 1552SOL    HW1 1039   2.824   1.528   2.287
 1552SOL    HW2 1040   2.866   1.476   2.437
 1553SOL     OW 1041   2.213   1.801   2.715
 1553SOL    HW1 1042   2.263   1.715   2.721
 1553SOL    HW2 1043   2.278   1.878   2.712
 1555SOL     OW 1044   3.089   1.550   3.368
 1555SOL    HW1 1045   3.095   1.473   3.432
 1555SOL    HW2 1046   3.037   1.524   3.288
 1556SOL     OW 1047   2.183   0.943   2.104
 1556SOL    HW1 1048   2.265   0.982   2.062
 1556SOL    HW2 1049   2.156   0.861   2.055
 1558SOL     OW 1050   2.323   1.266   3.589
 1558SOL    HW1 1051   2.273   1.267   3.503
 1558SOL    HW2 1052   2.260   1.248   3.665
 1559SOL     OW 1053   2.973   1.776   2.099
 1559SOL    HW1 1054   2.913   1.714   2.149
 1559SOL    HW2 1055   3.004   1.732   2.014
 1561SOL     OW 1056   3.494   1.377   1.943
 1561SOL    HW1 1057   3.462   1.471   1.933
 1561SOL    HW2 1058   3.418   1.314   1.931
 1562SOL     OW 1059   2.326   1.743   2.185
 1562SOL    HW1 1060   2.359   1.782   2.271
 1562SOL    HW2 1061   2.402   1.736   2.120
 1564SOL     OW 1062   2.111   1.785   3.103
 1564SOL    HW1 1063   2.168   1.720   3.153
 1564SOL    HW2 1064   2.095   1.752   3.010
 1565SOL     OW 1065   2.802   1.698   2.766
 1565SOL    HW1 1066   2.882   1.641   2.787
 1565SOL    HW2 1067   2.753   1.658   2.689
 1566SOL     OW 1068   2.244   0.700   2.342
 1566SOL    HW1 1069   2.289   0.610   2.339
 1566SOL    HW2 1070   2.150   0.689   2.375
 1570SOL     OW 1071   2.750   1.514   3.057
 1570SOL    HW1 1072   2.727   1.489   2.963
 1570SOL    HW2 1073   2.811   1.445   3.096
 1572SOL     OW 1074   2.665   1.402   2.786
 1572SOL    HW1 1075   2.755   1.416   2.744
 1572SOL    HW2 1076   2.594   1.404   2.715
 1575SOL     OW 1077   3.296   1.188   1.903
 1575SOL    HW1 1078   3.328   1.112   1.960
 1575SOL    HW2 1079   3.204   1.215   1.933
 1579SOL     OW 1080   3.089   1.570   2.655
 1579SOL    HW1 1081   3.110   1.644   2.590
 1579SOL    HW2 1082   3.157   1.570   2.728
 1580SOL     OW 1083   2.321   1.152   2.603
 1580SOL    HW1 1084   2.250   1.125   2.668
 1580SOL    HW2 1085   2.295   1.124   2.510
 1581SOL     OW 1086   3.133   1.797   2.453
 1581SOL    HW1 1087   3.177   1.861   2.389
 1581SOL    HW2 1088   3.083   1.849   2.523
 1587SOL     OW 1089   3.291   1.173   2.729
 1587SOL    HW1 1090   3.236   1.089   2.722
 1587SOL    HW2 1091   3.317   1.202   2.637
 1590SOL     OW 1092   2.350   1.385   2.036
 1590SOL    HW1 1093   2.263   1.370   2.083
 1590SOL    HW2 1094   2.333   1.411   1.941
 1591SOL     OW 1095   3.526   1.280   2.519
 1591SOL    HW1 1096   3.625   1.288   2.533
 1591SOL    HW2 1097   3.481   1.364   2.550
 1595SOL     OW 1098   2.926   1.347   3.202
 1595SOL    HW1 1099   2.846   1.324   3.257
 1595SOL    HW2 1100   3.009   1.321   3.251
 1596SOL     OW 1101   3.454   1.629   3.487
 1596SOL    HW1 1102   3.481   1.663   3.397
 1596SOL    HW2 1103   3.533   1.591   3.533
 1597SOL     OW 1104   2.973   1.195   2.962
 1597SOL    HW1 1105   2.933   1.239   3.043
 1597SOL    HW2 1106   2.932   1.232   2.879
 1601SOL     OW 1107   2.567   1.050   2.230
 1601SOL    HW1 1108   2.553   1.057   2.329
 1601SOL    HW2 1109   2.651   0.999   2.212
 1602SOL     OW 1110   2.272   0.813   3.113
 1602SOL    HW1 1111   2.358   0.825   3.163
 1602SOL    HW2 1112   2.230   0.726   3.140
 1604SOL     OW 1113   1.926   1.564   3.193
 1604SOL    HW1 1114   1.880   1.646   3.159
 1604SOL    HW2 1115   2.024   1.583   3.202
 1605SOL     OW 1116   2.229   1.100   2.363
 1605SOL    HW1 1117   2.222   1.183   2.307
 1605SOL    HW2 1118   2.233   1.020   2.303
 1607SOL     OW 1119   3.114   1.348   2.250
 1607SOL    HW1 1120   3.164   1.425   2.290
 1607SOL    HW2 1121   3.019   1.350   2.282
 1608SOL     OW 1122   3.134   1.445   3.004
 1608SOL    HW1 1123   3.181   1.458   3.091
 1608SOL    HW2 1124   3.068   1.371   3.013
 1610SOL     OW 1125   2.216   1.510   3.191
 1610SOL    HW1 1126   2.195   1.466   3.104
 1610SOL    HW2 1127   2.313   1.536   3.194
 1615SOL     OW 1128   2.435   0.870   2.891
 1615SOL    HW1 1129   2.479   0.959   2.882
 1615SOL    HW2 1130   2.372   0.870   2.968
 1619SOL     OW 1131   1.899   1.310   3.144
 1619SOL    HW1 1132   1.952   1.261   3.212
 1619SOL    HW2 1133   1.921   1.408   3.149
 1624SOL     OW 1134   2.885   0.766   2.828
 1624SOL    HW1 1135   2.900   0.787   2.924
 1624SOL    HW2 1136   2.855   0.671   2.819
 1625SOL     OW 1137   2.842   1.573   3.562
 1625SOL    HW1 1138   2.822   1.617   3.474
 1625SOL    HW2 1139   2.881   1.482   3.546
 1629SOL     OW 1140   3.165   0.838   1.904
 1629SOL    HW1 1141   3.199   0.745   1.919
 1629SOL    HW2 1142   3.183   0.865   1.809
 1630SOL     OW 1143   2.930   1.333   2.711
 1630SOL    HW1 1144   2.937   1.249   2.656
 1630SOL    HW2 1145   2.992   1.402   2.675
 1631SOL     OW 1146   2.181   0.810   2.811
 1631SOL    HW1 1147   2.274   0.846   2.816
 1631SOL    HW2 1148   2.175   0.725   2.863
 1635SOL     OW 1149   1.870   1.326   2.062
 1635SOL    HW1 1150   1.777   1.347   2.031
 1635SOL    HW2 1151   1.880   1.227   2.075
 1636SOL     OW 1152   1.950   1.801   2.789
 1636SOL    HW1 1153   1.908   1.715   2.762
 1636SOL    HW2 1154   2.044   1.804   2.755
 1637SOL     OW 1155   2.366   1.568   2.772
 1637SOL    HW1 1156   2.432   1.642   2.781
 1637SOL    HW2 1157   2.410   1.489   2.730
 1638SOL     OW 1158   2.864   0.796   3.100
 1638SOL    HW1 1159   2.905   0.764   3.186
 1638SOL    HW2 1160   2.768   0.769   3.097
 1642SOL     OW 1161   2.677   0.572   2.187
 1642SOL    HW1 1162   2.684   0.483   2.141
 1642SOL    HW2 1163   2.583   0.606   2.179
 1644SOL     OW 1164   2.114   1.564   3.606
 1644SOL    HW1 1165   2.084   1.621   3.682
 1644SOL    HW2 1166   2.107   1.467   3.632
 1646SOL     OW 1167   2.792   1.678   3.327
 1646SOL    HW1 1168   2.768   1.660   3.232
 1646SOL    HW2 1169   2.822   1.772   3.337
 1648SOL     OW 1170   2.021   1.137   3.328
 1648SOL    HW1 1171   2.043   1.076   3.404
 1648SOL    HW2 1172   2.031   1.088   3.242
 1649SOL     OW 1173   3.209   1.059   3.096
 1649SOL    HW1 1174   3.233   0.996   3.022
 1649SOL    HW2 1175   3.119   1.099   3.078
 1650SOL     OW 1176   3.164   0.855   2.171
 1650SOL    HW1 1177   3.078   0.824   2.213
 1650SOL    HW2 1178   3.160   0.841   2.072
 1651SOL     OW 1179   3.621   1.747   3.016
 1651SOL    HW1 1180   3.682   1.777   2.943
 1651SOL    HW2 1181   3.583   1.658   2.994
 1652SOL     OW 1182   3.114   1.731   2.990
 1652SOL    HW1 1183   3.198   1.736   2.936
 1652SOL    HW2 1184   3.091   1.635   3.008
 1653SOL     OW 1185   1.945   1.258   2.884
 1653SOL    HW1 1186   1.940   1.257   2.984
 1653SOL    HW2 1187   1.862   1.217   2.846
 1654SOL     OW 1188   2.550   1.662   3.578
 1654SOL    HW1 1189   2.494   1.743   3.587
 1654SOL    HW2 1190   2.602   1.666   3.492
 1656SOL     OW 1191   3.250   1.573   2.339
 1656SOL    HW1 1192   3.317   1.585   2.265
 1656SOL    HW2 1193   3.210   1.662   2.362
 1657SOL     OW 1194   1.992   1.794   3.713
 1657SOL    HW1 1195   1.951   1.720   3.766
 1657SOL    HW2 1196   2.056   1.845   3.771
 1658SOL     OW 1197   3.142   0.927   2.534
 1658SOL    HW1 1198   3.202   0.846   2.536
 1658SOL    HW2 1199   3.182   0.996   2.474
 1659SOL     OW 1200   2.692   1.273   3.284
 1659SOL    HW1 1201   2.687   1.306   3.379
 1659SOL    HW2 1202   2.606   1.292   3.238
 1660SOL     OW 1203   2.534   1.616   2.016
 1660SOL    HW1 1204   2.543   1.626   1.917
 1660SOL    HW2 1205   2.494   1.527   2.037
 1661SOL     OW 1206   3.512   1.720   3.256
 1661SOL    HW1 1207   3.565   1.730   3.172
 1661SOL    HW2 1208   3.485   1.810   3.290
 1664SOL     OW 1209   3.056   1.612   1.893
 1664SOL    HW1 1210   3.062   1.519   1.930
 1664SOL    HW2 1211   2.997   1.612   1.813
 1665SOL     OW 1212   2.684   1.002   3.234
 1665SOL    HW1 1213   2.724   1.001   3.142
 1665SOL    HW2 1214   2.694   1.094   3.274
 1666SOL     OW 1215   2.778   0.910   2.153
 1666SOL    HW1 1216   2.841   0.948   2.085
 1666SOL    HW2 1217   2.818   0.827   2.192
 1667SOL     OW 1218   3.366   1.607   1.906
 1667SOL    HW1 1219   3.274   1.644   1.913
 1667SOL    HW2 1220   3.404   1.627   1.816
 1668SOL     OW 1221   2.234   1.288   3.352
 1668SOL    HW1 1222   2.221   1.381   3.318
 1668SOL    HW2 1223   2.150   1.236   3.339
 1669SOL     OW 1224   3.476   1.292   3.151
 1669SOL    HW1 1225   3.536   1.295   3.231
 1669SOL    HW2 1226   3.401   1.356   3.164
 1670SOL     OW 1227   2.901   1.098   2.558
 1670SOL    HW1 1228   2.831   1.051   2.612
 1670SOL    HW2 1229   2.960   1.030   2.515
 1672SOL     OW 1230   2.452   1.487   2.353
 1672SOL    HW1 1231   2.494   1.429   2.283
 1672SOL    HW2 1232   2.408   1.566   2.309
 1674SOL     OW 1233   2.117   1.348   2.152
 1674SOL    HW1 1234   2.021   1.349   2.125
 1674SOL    HW2 1235   2.129   1.401   2.236
 1680SOL     OW 1236   3.045   1.335   1.981
 1680SOL    HW1 1237   2.946   1.324   1.983
 1680SOL    HW2 1238   3.079   1.350   2.074
 1681SOL     OW 1239   2.475   0.842   3.293
 1681SOL    HW1 1240   2.531   0.923   3.276
 1681SOL    HW2 1241   2.534   0.762   3.296
 1682SOL     OW 1242   3.355   1.767   2.821
 1682SOL    HW1 1243   3.388   1.831   2.752
 1682SOL    HW2 1244   3.421   1.761   2.896
 1685SOL     OW 1245   2.252   1.741   3.422
 1685SOL    HW1 1246   2.161   1.782   3.420
 1685SOL    HW2 1247   2.245   1.647   3.454
 1688SOL     OW 1248   2.456   0.745   2.514
 1688SOL    HW1 1249   2.506   0.830   2.495
 1688SOL    HW2 1250   2.368   0.747   2.466
 1691SOL     OW 1251   2.721   1.374   1.878
 1691SOL    HW1 1252   2.675   1.389   1.966
 1691SOL    HW2 1253   2.765   1.459   1.848
 1692SOL     OW 1254   2.523   1.790   2.815
 1692SOL    HW1 1255   2.477   1.878   2.802
 1692SOL    HW2 1256   2.622   1.802   2.808
 1693SOL     OW 1257   2.721   0.956   2.723
 1693SOL    HW1 1258   2.775   0.887   2.771
 1693SOL    HW2 1259   2.689   1.025   2.789
 1694SOL     OW 1260   2.945   0.984   1.949
 1694SOL    HW1 1261   2.922   1.037   1.867
 1694SOL    HW2 1262   3.026   0.928   1.930
 1695SOL     OW 1263   3.723   1.569   2.713
 1695SOL    HW1 1264   3.652   1.557   2.643
 1695SOL    HW2 1265   3.724   1.490   2.773
 1696SOL     OW 1266   2.083   1.314   3.706
 1696SOL    HW1 1267   2.018   1.241   3.685
 1696SOL    HW2 1268   2.087   1.328   3.804
 1697SOL     OW 1269   1.941   1.240   2.515
 1697SOL    HW1 1270   1.940   1.193   2.603
 1697SOL    HW2 1271   2.023   1.212   2.464
 1698SOL     OW 1272   2.534   1.391   3.486
 1698SOL    HW1 1273   2.456   1.341   3.524
 1698SOL    HW2 1274   2.531   1.486   3.517
 1701SOL     OW 1275   3.567   1.487   2.966
 1701SOL    HW1 1276   3.474   1.462   2.939
 1701SOL    HW2 1277   3.593   1.437   3.048
 1703SOL     OW 1278   2.674   1.586   2.549
 1703SOL    HW1 1279   2.706   1.596   2.455
 1703SOL    HW2 1280   2.595   1.524   2.551
 1706SOL     OW 1281   2.632   1.330   2.163
 1706SOL    HW1 1282   2.586   1.243   2.180
 1706SOL    HW2 1283   2.723   1.327   2.204
 1707SOL     OW 1284   2.480   1.567   3.146
 1707SOL    HW1 1285   2.475   1.649   3.203
 1707SOL    HW2 1286   2.569   1.564   3.101
 1711SOL     OW 1287   1.901   1.077   2.162
 1711SOL    HW1 1288   2.000   1.066   2.153
 1711SOL    HW2 1289   1.861   0.991   2.194
 1712SOL     OW 1290   2.737   1.646   2.199
 1712SOL    HW1 1291   2.660   1.611   2.145
 1712SOL    HW2 1292   2.705   1.717   2.261
 1726SOL     OW 1293   1.889   1.596   3.841
 1726SOL    HW1 1294   1.870   1.500   3.862
 1726SOL    HW2 1295   1.856   1.654   3.916
 1783SOL     OW 1296   2.534   1.616   3.878
 1783SOL    HW1 1297   2.543   1.626   3.779
 1783SOL    HW2 1298   2.494   1.527   3.899
 1786SOL     OW 1299   3.056   1.612   3.755
 1786SOL    HW1 1300   3.062   1.519   3.792
 1786SOL    HW2 1301   2.997   1.612   3.675
 1797SOL     OW 1302   2.721   1.374   3.740
 1797SOL    HW1 1303   2.675   1.389   3.828
 1797SOL    HW2 1304   2.765   1.459   3.710
 1810SOL     OW 1305   2.087   2.137   0.996
 1810SOL    HW1 1306   2.122   2.120   1.088
 1810SOL    HW2 1307   1.999   2.092   0.984
 1811SOL     OW 1308   1.881   2.230   0.647
 1811SOL    HW1 1309   1.799   2.273   0.686
 1811SOL    HW2 1310   1.853   2.157   0.584
 1812SOL     OW 1311   2.431   3.137   1.165
 1812SOL    HW1 1312   2.338   3.130   1.128
 1812SOL    HW2 1313   2.442   3.226   1.209
 1814SOL     OW 1314   2.997   2.565   0.717
 1814SOL    HW1 1315   3.054   2.643   0.692
 1814SOL    HW2 1316   2.937   2.591   0.793
 1816SOL     OW 1317   2.630   3.006   1.023
 1816SOL    HW1 1318   2.552   3.023   1.083
 1816SOL    HW2 1319   2.664   3.093   0.987
 1817SOL     OW 1320   2.712   2.660   1.823
 1817SOL    HW1 1321   2.708   2.736   1.888
 1817SOL    HW2 1322   2.734   2.696   1.732
 1818SOL     OW 1323   2.547   2.874   0.665
 1818SOL    HW1 1324   2.616   2.858   0.735
 1818SOL    HW2 1325   2.474   2.931   0.703
 1819SOL     OW 1326   2.548   3.023   1.803
 1819SOL    HW1 1327   2.608   3.102   1.817
 1819SOL    HW2 1328   2.462   3.054   1.762
 1820SOL     OW 1329   2.197   3.297   1.061
 1820SOL    HW1 1330   2.119   3.266   1.008
 1820SOL    HW2 1331   2.255   3.355   1.004
 1821SOL     OW 1332   3.322   3.367   1.339
 1821SOL    HW1 1333   3.346   3.461   1.365
 1821SOL    HW2 1334   3.306   3.313   1.421
 1822SOL     OW 1335   2.300   2.254   1.499
 1822SOL    HW1 1336   2.382   2.198   1.508
 1822SOL    HW2 1337   2.219   2.196   1.503
 1825SOL     OW 1338   2.989   3.203   1.690
 1825SOL    HW1 1339   3.036   3.203   1.778
 1825SOL    HW2 1340   2.941   3.116   1.679
 1827SOL     OW 1341   2.102   2.953   0.886
 1827SOL    HW1 1342   2.116   2.869   0.938
 1827SOL    HW2 1343   2.047   3.017   0.941
 1828SOL     OW 1344   2.482   3.648   1.439
 1828SOL    HW1 1345   2.390   3.631   1.474
 1828SOL    HW2 1346   2.510   3.740   1.465
 1830SOL     OW 1347   3.456   1.976   1.480
 1830SOL    HW1 1348   3.438   2.043   1.408
 1830SOL    HW2 1349   3.453   2.022   1.569
 1831SOL     OW 1350   1.984   2.505   0.563
 1831SOL    HW1 1351   1.939   2.417   0.580
 1831SOL    HW2 1352   1.983   2.559   0.647
 1836SOL     OW 1353   1.975   2.599   1.597
 1836SOL    HW1 1354   2.063   2.586   1.642
 1836SOL    HW2 1355   1.962   2.696   1.575
 1838SOL     OW 1356   3.155   3.090   1.423
 1838SOL    HW1 1357   3.192   3.017   1.365
 1838SOL    HW2 1358   3.207   3.095   1.508
 1840SOL     OW 1359   2.059   2.838   1.264
 1840SOL    HW1 1360   2.148   2.793   1.250
 1840SOL    HW2 1361   1.986   2.773   1.245
 1842SOL     OW 1362   3.049   3.654   1.616
 1842SOL    HW1 1363   3.073   3.714   1.540
 1842SOL    HW2 1364   3.056   3.559   1.586
 1843SOL     OW 1365   2.179   2.113   1.801
 1843SOL    HW1 1366   2.250   2.184   1.807
 1843SOL    HW2 1367   2.091   2.152   1.829
 1847SOL     OW 1368   3.143   2.207   0.944
 1847SOL    HW1 1369   3.057   2.157   0.931
 1847SOL    HW2 1370   3.205   2.153   1.000
 1849SOL     OW 1371   2.669   2.467   1.465
 1849SOL    HW1 1372   2.622   2.464   1.554
 1849SOL    HW2 1373   2.618   2.412   1.399
 1850SOL     OW 1374   3.256   2.331   1.674
 1850SOL    HW1 1375   3.236   2.374   1.762
 1850SOL    HW2 1376   3.334   2.269   1.683
 1851SOL     OW 1377   2.835   2.752   1.572
 1851SOL    HW1 1378   2.881   2.668   1.543
 1851SOL    HW2 1379   2.779   2.786   1.497
 1852SOL     OW 1380   2.853   2.272   1.242
 1852SOL    HW1 1381   2.776   2.306   1.296
 1852SOL    HW2 1382   2.819   2.221   1.163
 1854SOL     OW 1383   1.938   2.673   0.789
 1854SOL    HW1 1384   2.037   2.661   0.798
 1854SOL    HW2 1385   1.914   2.768   0.810
 1855SOL     OW 1386   1.992   3.683   1.571
 1855SOL    HW1 1387   1.982   3.668   1.670
 1855SOL    HW2 1388   1.906   3.719   1.535
 1857SOL     OW 1389   3.581   2.447   1.831
 1857SOL    HW1 1390   3.555   2.536   1.795
 1857SOL    HW2 1391   3.579   2.379   1.758
 1859SOL     OW 1392   2.412   2.058   0.885
 1859SOL    HW1 1393   2.407   2.053   0.985
 1859SOL    HW2 1394   2.414   2.154   0.856
 1863SOL     OW 1395   3.089   3.412   1.506
 1863SOL    HW1 1396   3.095   3.335   1.570
 1863SOL    HW2 1397   3.037   3.386   1.426
 1866SOL     OW 1398   2.323   3.128   1.727
 1866SOL    HW1 1399   2.273   3.129   1.641
 1866SOL    HW2 1400   2.260   3.110   1.803
 1868SOL     OW 1401   2.064   2.147   1.498
 1868SOL    HW1 1402   1.984   2.207   1.485
 1868SOL    HW2 1403   2.054   2.098   1.584
 1872SOL     OW 1404   2.111   3.647   1.241
 1872SOL    HW1 1405   2.168   3.582   1.291
 1872SOL    HW2 1406   2.095   3.614   1.148
 1875SOL     OW 1407   3.409   2.084   1.729
 1875SOL    HW1 1408   3.404   2.121   1.821
 1875SOL    HW2 1409   3.337   2.015   1.717
 1876SOL     OW 1410   2.643   2.126   1.749
 1876SOL    HW1 1411   2.710   2.065   1.792
 1876SOL    HW2 1412   2.570   2.145   1.814
 1877SOL     OW 1413   2.750   3.376   1.195
 1877SOL    HW1 1414   2.727   3.351   1.101
 1877SOL    HW2 1415   2.811   3.307   1.234
 1878SOL     OW 1416   3.213   2.452   1.433
 1878SOL    HW1 1417   3.241   2.409   1.518
 1878SOL    HW2 1418   3.238   2.548   1.434
 1879SOL     OW 1419   2.665   3.264   0.924
 1879SOL    HW1 1420   2.755   3.278   0.882
 1879SOL    HW2 1421   2.594   3.266   0.853
 1880SOL     OW 1422   2.784   2.365   0.899
 1880SOL    HW1 1423   2.759   2.356   0.803
 1880SOL    HW2 1424   2.832   2.283   0.930
 1885SOL     OW 1425   2.938   2.545   1.464
 1885SOL    HW1 1426   2.858   2.484   1.467
 1885SOL    HW2 1427   3.019   2.492   1.440
 1887SOL     OW 1428   2.321   3.014   0.741
 1887SOL    HW1 1429   2.250   2.987   0.806
 1887SOL    HW2 1430   2.295   2.986   0.648
 1890SOL     OW 1431   1.940   2.418   1.386
 1890SOL    HW1 1432   2.032   2.417   1.345
 1890SOL    HW2 1433   1.934   2.492   1.453
 1891SOL     OW 1434   2.423   2.084   1.147
 1891SOL    HW1 1435   2.461   2.000   1.184
 1891SOL    HW2 1436   2.335   2.103   1.191
 1892SOL     OW 1437   2.728   2.316   0.642
 1892SOL    HW1 1438   2.696   2.388   0.580
 1892SOL    HW2 1439   2.752   2.235   0.589
 1893SOL     OW 1440   2.879   1.901   0.753
 1893SOL    HW1 1441   2.807   1.906   0.684
 1893SOL    HW2 1442   2.855   1.832   0.822
 1895SOL     OW 1443   3.328   2.452   0.992
 1895SOL    HW1 1444   3.298   2.357   0.999
 1895SOL    HW2 1445   3.401   2.468   1.058
 1901SOL     OW 1446   3.616   3.085   1.588
 1901SOL    HW1 1447   3.707   3.046   1.575
 1901SOL    HW2 1448   3.624   3.181   1.612
 1902SOL     OW 1449   2.926   3.209   1.340
 1902SOL    HW1 1450   2.846   3.186   1.395
 1902SOL    HW2 1451   3.009   3.183   1.389
 1903SOL     OW 1452   3.454   3.491   1.625
 1903SOL    HW1 1453   3.481   3.525   1.535
 1903SOL    HW2 1454   3.533   3.453   1.671
 1904SOL     OW 1455   2.973   3.057   1.100
 1904SOL    HW1 1456   2.933   3.101   1.181
 1904SOL    HW2 1457   2.932   3.094   1.017
 1906SOL     OW 1458   2.777   1.951   1.402
 1906SOL    HW1 1459   2.802   1.931   1.307
 1906SOL    HW2 1460   2.849   2.007   1.444
 1907SOL     OW 1461   2.842   2.978   1.719
 1907SOL    HW1 1462   2.743   2.984   1.729
 1907SOL    HW2 1463   2.865   2.898   1.663
 1909SOL     OW 1464   2.272   2.675   1.251
 1909SOL    HW1 1465   2.358   2.687   1.301
 1909SOL    HW2 1466   2.230   2.588   1.278
 1910SOL     OW 1467   3.136   2.248   1.262
 1910SOL    HW1 1468   3.157   2.322   1.326
 1910SOL    HW2 1469   3.047   2.265   1.219
 1911SOL     OW 1470   1.926   3.426   1.331
 1911SOL    HW1 1471   1.880   3.508   1.297
 1911SOL    HW2 1472   2.024   3.445   1.340
 1913SOL     OW 1473   2.428   2.399   0.865
 1913SOL    HW1 1474   2.440   2.465   0.791
 1913SOL    HW2 1475   2.474   2.433   0.948
 1915SOL     OW 1476   3.134   3.307   1.142
 1915SOL    HW1 1477   3.181   3.320   1.229
 1915SOL    HW2 1478   3.068   3.233   1.151
 1917SOL     OW 1479   2.216   3.372   1.329
 1917SOL    HW1 1480   2.195   3.328   1.242
 1917SOL    HW2 1481   2.313   3.398   1.332
 1918SOL     OW 1482   2.264   2.613   1.598
 1918SOL    HW1 1483   2.332   2.668   1.551
 1918SOL    HW2 1484   2.304   2.525   1.625
 1919SOL     OW 1485   3.449   2.641   1.670
 1919SOL    HW1 1486   3.357   2.679   1.665
 1919SOL    HW2 1487   3.509   2.688   1.605
 1920SOL     OW 1488   2.875   1.967   1.770
 1920SOL    HW1 1489   2.881   2.052   1.718
 1920SOL    HW2 1490   2.907   1.891   1.713
 1921SOL     OW 1491   2.366   1.912   1.740
 1921SOL    HW1 1492   2.324   1.855   1.670
 1921SOL    HW2 1493   2.300   1.981   1.772
 1922SOL     OW 1494   2.435   2.732   1.029
 1922SOL    HW1 1495   2.479   2.821   1.020
 1922SOL    HW2 1496   2.372   2.732   1.106
 1923SOL     OW 1497   3.222   2.724   1.045
 1923SOL    HW1 1498   3.147   2.724   0.979
 1923SOL    HW2 1499   3.259   2.632   1.054
 1925SOL     OW 1500   2.169   2.075   1.231
 1925SOL    HW1 1501   2.146   2.112   1.321
 1925SOL    HW2 1502   2.139   1.980   1.225
 1926SOL     OW 1503   1.899   3.172   1.282
 1926SOL    HW1 1504   1.952   3.123   1.350
 1926SOL    HW2 1505   1.921   3.270   1.287
 1927SOL     OW 1506   2.594   2.496   1.064
 1927SOL    HW1 1507   2.653   2.470   0.988
 1927SOL    HW2 1508   2.566   2.592   1.053
 1928SOL     OW 1509   3.590   2.797   1.854
 1928SOL    HW1 1510   3.544   2.790   1.765
 1928SOL    HW2 1511   3.528   2.841   1.920
 1929SOL     OW 1512   2.169   1.925   0.618
 1929SOL    HW1 1513   2.158   2.019   0.651
 1929SOL    HW2 1514   2.164   1.862   0.695
 1931SOL     OW 1515   2.885   2.628   0.966
 1931SOL    HW1 1516   2.900   2.649   1.062
 1931SOL    HW2 1517   2.855   2.533   0.957
 1932SOL     OW 1518   2.842   3.435   1.700
 1932SOL    HW1 1519   2.822   3.479   1.612
 1932SOL    HW2 1520   2.881   3.344   1.684
 1934SOL     OW 1521   2.212   2.760   1.804
 1934SOL    HW1 1522   2.288   2.804   1.852
 1934SOL    HW2 1523   2.247   2.713   1.722
 1938SOL     OW 1524   2.181   2.672   0.949
 1938SOL    HW1 1525   2.274   2.708   0.954
 1938SOL    HW2 1526   2.175   2.587   1.001
 1939SOL     OW 1527   2.201   2.371   1.006
 1939SOL    HW1 1528   2.149   2.288   0.989
 1939SOL    HW2 1529   2.278   2.376   0.942
 1940SOL     OW 1530   3.000   2.242   1.678
 1940SOL    HW1 1531   2.955   2.305   1.742
 1940SOL    HW2 1532   3.093   2.273   1.661
 1941SOL     OW 1533   3.022   2.069   1.477
 1941SOL    HW1 1534   3.022   2.133   1.554
 1941SOL    HW2 1535   3.050   2.117   1.394
 1944SOL     OW 1536   2.366   3.430   0.910
 1944SOL    HW1 1537   2.432   3.504   0.919
 1944SOL    HW2 1538   2.410   3.351   0.868
 1945SOL     OW 1539   2.864   2.658   1.238
 1945SOL    HW1 1540   2.905   2.626   1.324
 1945SOL    HW2 1541   2.768   2.631   1.235
 1946SOL     OW 1542   1.902   2.406   1.114
 1946SOL    HW1 1543   1.987   2.373   1.073
 1946SOL    HW2 1544   1.915   2.421   1.212
 1947SOL     OW 1545   2.051   2.382   1.722
 1947SOL    HW1 1546   2.110   2.342   1.652
 1947SOL    HW2 1547   1.993   2.453   1.681
 1948SOL     OW 1548   3.231   2.812   1.660
 1948SOL    HW1 1549   3.270   2.901   1.680
 1948SOL    HW2 1550   3.241   2.792   1.563
 1950SOL     OW 1551   3.519   2.466   1.206
 1950SOL    HW1 1552   3.481   2.397   1.268
 1950SOL    HW2 1553   3.601   2.430   1.162
 1951SOL     OW 1554   2.114   3.426   1.744
 1951SOL    HW1 1555   2.084   3.483   1.820
 1951SOL    HW2 1556   2.107   3.329   1.770
 1952SOL     OW 1557   2.533   2.326   1.269
 1952SOL    HW1 1558   2.499   2.237   1.239
 1952SOL    HW2 1559   2.559   2.380   1.189
 1953SOL     OW 1560   2.792   3.540   1.465
 1953SOL    HW1 1561   2.768   3.522   1.370
 1953SOL    HW2 1562   2.822   3.634   1.475
 1955SOL     OW 1563   2.021   2.999   1.466
 1955SOL    HW1 1564   2.043   2.938   1.542
 1955SOL    HW2 1565   2.031   2.950   1.380
 1956SOL     OW 1566   3.209   2.921   1.234
 1956SOL    HW1 1567   3.233   2.858   1.160
 1956SOL    HW2 1568   3.119   2.961   1.216
 1960SOL     OW 1569   1.945   3.120   1.022
 1960SOL    HW1 1570   1.940   3.119   1.122
 1960SOL    HW2 1571   1.862   3.079   0.984
 1961SOL     OW 1572   2.550   3.524   1.716
 1961SOL    HW1 1573   2.494   3.605   1.725
 1961SOL    HW2 1574   2.602   3.528   1.630
 1965SOL     OW 1575   1.992   3.656   1.851
 1965SOL    HW1 1576   1.951   3.582   1.904
 1965SOL    HW2 1577   2.056   3.707   1.909
 1967SOL     OW 1578   2.692   3.135   1.422
 1967SOL    HW1 1579   2.687   3.168   1.517
 1967SOL    HW2 1580   2.606   3.154   1.376
 1971SOL     OW 1581   2.125   2.188   0.720
 1971SOL    HW1 1582   2.046   2.239   0.686
 1971SOL    HW2 1583   2.116   2.173   0.818
 1973SOL     OW 1584   2.684   2.864   1.372
 1973SOL    HW1 1585   2.724   2.863   1.280
 1973SOL    HW2 1586   2.694   2.956   1.412
 1976SOL     OW 1587   2.234   3.150   1.490
 1976SOL    HW1 1588   2.221   3.243   1.456
 1976SOL    HW2 1589   2.150   3.098   1.477
 1977SOL     OW 1590   3.476   3.154   1.289
 1977SOL    HW1 1591   3.536   3.157   1.369
 1977SOL    HW2 1592   3.401   3.218   1.302
 1979SOL     OW 1593   2.876   2.098   0.971
 1979SOL    HW1 1594   2.868   2.062   0.878
 1979SOL    HW2 1595   2.874   2.022   1.036
 1981SOL     OW 1596   3.571   2.247   1.381
 1981SOL    HW1 1597   3.644   2.316   1.385
 1981SOL    HW2 1598   3.599   2.172   1.322
 1983SOL     OW 1599   1.967   2.875   1.726
 1983SOL    HW1 1600   1.890   2.842   1.780
 1983SOL    HW2 1601   2.052   2.845   1.768
 1984SOL     OW 1602   2.534   2.065   1.489
 1984SOL    HW1 1603   2.624   2.049   1.449
 1984SOL    HW2 1604   2.542   2.070   1.588
 1986SOL     OW 1605   3.302   2.718   1.398
 1986SOL    HW1 1606   3.245   2.770   1.335
 1986SOL    HW2 1607   3.398   2.730   1.374
 1989SOL     OW 1608   2.475   2.704   1.431
 1989SOL    HW1 1609   2.531   2.785   1.414
 1989SOL    HW2 1610   2.534   2.624   1.434
 1991SOL     OW 1611   2.578   2.427   1.708
 1991SOL    HW1 1612   2.597   2.492   1.782
 1991SOL    HW2 1613   2.638   2.347   1.717
 1992SOL     OW 1614   3.312   3.082   1.633
 1992SOL    HW1 1615   3.303   3.072   1.732
 1992SOL    HW2 1616   3.408   3.075   1.607
 1993SOL     OW 1617   2.252   3.603   1.560
 1993SOL    HW1 1618   2.161   3.644   1.558
 1993SOL    HW2 1619   2.245   3.509   1.592
 1994SOL     OW 1620   3.536   2.745   1.254
 1994SOL    HW1 1621   3.509   2.656   1.217
 1994SOL    HW2 1622   3.537   2.813   1.181
 1996SOL     OW 1623   2.456   2.607   0.652
 1996SOL    HW1 1624   2.506   2.692   0.633
 1996SOL    HW2 1625   2.368   2.609   0.604
 1997SOL     OW 1626   3.639   2.204   1.642
 1997SOL    HW1 1627   3.622   2.235   1.548
 1997SOL    HW2 1628   3.555   2.167   1.680
 1998SOL     OW 1629   3.592   2.796   1.517
 1998SOL    HW1 1630   3.630   2.887   1.532
 1998SOL    HW2 1631   3.584   2.779   1.418
 2001SOL     OW 1632   2.721   2.818   0.861
 2001SOL    HW1 1633   2.775   2.749   0.909
 2001SOL    HW2 1634   2.689   2.887   0.927
 2004SOL     OW 1635   2.083   3.176   1.844
 2004SOL    HW1 1636   2.018   3.103   1.823
 2004SOL    HW2 1637   2.087   3.190   1.942
 2006SOL     OW 1638   2.534   3.253   1.624
 2006SOL    HW1 1639   2.456   3.203   1.662
 2006SOL    HW2 1640   2.531   3.348   1.655
 2007SOL     OW 1641   3.686   2.054   1.227
 2007SOL    HW1 1642   3.682   1.964   1.271
 2007SOL    HW2 1643   3.689   2.043   1.128
 2008SOL     OW 1644   2.290   2.286   0.520
 2008SOL    HW1 1645   2.320   2.214   0.458
 2008SOL    HW2 1646   2.251   2.246   0.603
 2010SOL     OW 1647   2.179   2.409   1.280
 2010SOL    HW1 1648   2.217   2.350   1.352
 2010SOL    HW2 1649   2.219   2.383   1.192
 2012SOL     OW 1650   3.286   2.076   1.112
 2012SOL    HW1 1651   3.338   2.011   1.167
 2012SOL    HW2 1652   3.237   2.139   1.173
 2013SOL     OW 1653   2.863   1.896   1.154
 2013SOL    HW1 1654   2.800   1.824   1.123
 2013SOL    HW2 1655   2.956   1.860   1.154
 2015SOL     OW 1656   2.480   3.429   1.284
 2015SOL    HW1 1657   2.475   3.511   1.341
 2015SOL    HW2 1658   2.569   3.426   1.239
 2021SOL     OW 1659   2.092   2.490   1.975
 2021SOL    HW1 1660   1.999   2.488   2.012
 2021SOL    HW2 1661   2.093   2.451   1.883
 2022SOL     OW 1662   2.087   2.137   2.858
 2022SOL    HW1 1663   2.122   2.120   2.950
 2022SOL    HW2 1664   1.999   2.092   2.846
 2023SOL     OW 1665   1.881   2.230   2.509
 2023SOL    HW1 1666   1.799   2.273   2.548
 2023SOL    HW2 1667   1.853   2.157   2.446
 2024SOL     OW 1668   2.431   3.137   3.027
 2024SOL    HW1 1669   2.338   3.130   2.990
 2024SOL    HW2 1670   2.442   3.226   3.071
 2025SOL     OW 1671   3.417   3.373   2.565
 2025SOL    HW1 1672   3.360   3.357   2.646
 2025SOL    HW2 1673   3.358   3.383   2.485
 2026SOL     OW 1674   2.997   2.565   2.579
 2026SOL    HW1 1675   3.054   2.643   2.554
 2026SOL    HW2 1676   2.937   2.591   2.655
 2027SOL     OW 1677   3.617   2.469   2.093
 2027SOL    HW1 1678   3.605   2.456   1.994
 2027SOL    HW2 1679   3.587   2.388   2.142
 2028SOL     OW 1680   2.630   3.006   2.885
 2028SOL    HW1 1681   2.552   3.023   2.945
 2028SOL    HW2 1682   2.664   3.093   2.849
 2029SOL     OW 1683   2.712   2.660   3.685
 2029SOL    HW1 1684   2.708   2.736   3.750
 2029SOL    HW2 1685   2.734   2.696   3.594
 2030SOL     OW 1686   2.547   2.874   2.527
 2030SOL    HW1 1687   2.616   2.858   2.597
 2030SOL    HW2 1688   2.474   2.931   2.565
 2031SOL     OW 1689   2.548   3.023   3.665
 2031SOL    HW1 1690   2.608   3.102   3.679
 2031SOL    HW2 1691   2.462   3.054   3.624
 2032SOL     OW 1692   2.197   3.297   2.923
 2032SOL    HW1 1693   2.119   3.266   2.870
 2032SOL    HW2 1694   2.255   3.355   2.866
 2033SOL     OW 1695   3.322   3.367   3.201
 2033SOL    HW1 1696   3.346   3.461   3.227
 2033SOL    HW2 1697   3.306   3.313   3.283
 2034SOL     OW 1698   2.300   2.254   3.361
 2034SOL    HW1 1699   2.382   2.198   3.370
 2034SOL    HW2 1700   2.219   2.196   3.365
 2035SOL     OW 1701   3.465   2.309   2.599
 2035SOL    HW1 1702   3.391   2.355   2.549
 2035SOL    HW2 1703   3.516   2.377   2.652
 2036SOL     OW 1704   2.093   3.575   2.345
 2036SOL    HW1 1705   2.127   3.652   2.399
 2036SOL    HW2 1706   2.137   3.575   2.255
 2037SOL     OW 1707   2.989   3.203   3.552
 2037SOL    HW1 1708   3.036   3.203   3.640
 2037SOL    HW2 1709   2.941   3.116   3.541
 2038SOL     OW 1710   2.092   3.296   2.400
 2038SOL    HW1 1711   2.066   3.392   2.400
 2038SOL    HW2 1712   2.021   3.242   2.445
 2039SOL     OW 1713   2.102   2.953   2.748
 2039SOL    HW1 1714   2.116   2.869   2.800
 2039SOL    HW2 1715   2.047   3.017   2.803
 2040SOL     OW 1716   2.482   3.648   3.301
 2040SOL    HW1 1717   2.390   3.631   3.336
 2040SOL    HW2 1718   2.510   3.740   3.327
 2041SOL     OW 1719   2.468   2.826   1.985
 2041SOL    HW1 1720   2.475   2.910   1.931
 2041SOL    HW2 1721   2.514   2.839   2.073
 2042SOL     OW 1722   3.456   1.976   3.342
 2042SOL    HW1 1723   3.438   2.043   3.270
 2042SOL    HW2 1724   3.453   2.022   3.431
 2044SOL     OW 1725   1.889   3.458   1.979
 2044SOL    HW1 1726   1.870   3.362   2.000
 2044SOL    HW2 1727   1.856   3.516   2.054
 2045SOL     OW 1728   3.551   2.784   2.474
 2045SOL    HW1 1729   3.646   2.755   2.482
 2045SOL    HW2 1730   3.543   2.849   2.399
 2046SOL     OW 1731   3.503   2.970   2.294
 2046SOL    HW1 1732   3.589   2.972   2.242
 2046SOL    HW2 1733   3.517   3.017   2.382
 2047SOL     OW 1734   1.975   2.599   3.459
 2047SOL    HW1 1735   2.063   2.586   3.504
 2047SOL    HW2 1736   1.962   2.696   3.437
 2048SOL     OW 1737   2.475   3.227   2.588
 2048SOL    HW1 1738   2.426   3.140   2.597
 2048SOL    HW2 1739   2.452   3.270   2.501
 2049SOL     OW 1740   3.155   3.090   3.285
 2049SOL    HW1 1741   3.192   3.017   3.227
 2049SOL    HW2 1742   3.207   3.095   3.370
 2050SOL     OW 1743   2.671   1.866   2.364
 2050SOL    HW1 1744   2.711   1.957   2.355
 2050SOL    HW2 1745   2.571   1.874   2.370
 2051SOL     OW 1746   2.059   2.838   3.126
 2051SOL    HW1 1747   2.148   2.793   3.112
 2051SOL    HW2 1748   1.986   2.773   3.107
 2052SOL     OW 1749   3.387   2.861   2.052
 2052SOL    HW1 1750   3.324   2.785   2.065
 2052SOL    HW2 1751   3.435   2.879   2.138
 2054SOL     OW 1752   2.179   2.113   3.663
 2054SOL    HW1 1753   2.250   2.184   3.669
 2054SOL    HW2 1754   2.091   2.152   3.691
 2055SOL     OW 1755   3.328   3.279   2.815
 2055SOL    HW1 1756   3.269   3.285   2.895
 2055SOL    HW2 1757   3.313   3.191   2.769
 2056SOL     OW 1758   3.529   3.576   2.434
 2056SOL    HW1 1759   3.488   3.553   2.346
 2056SOL    HW2 1760   3.511   3.502   2.499
 2057SOL     OW 1761   3.143   2.207   2.806
 2057SOL    HW1 1762   3.057   2.157   2.793
 2057SOL    HW2 1763   3.205   2.153   2.862
 2058SOL     OW 1764   3.438   3.524   2.169
 2058SOL    HW1 1765   3.527   3.570   2.172
 2058SOL    HW2 1766   3.417   3.500   2.074
 2059SOL     OW 1767   2.669   2.467   3.327
 2059SOL    HW1 1768   2.622   2.464   3.416
 2059SOL    HW2 1769   2.618   2.412   3.261
 2060SOL     OW 1770   3.256   2.331   3.536
 2060SOL    HW1 1771   3.236   2.374   3.624
 2060SOL    HW2 1772   3.334   2.269   3.545
 2061SOL     OW 1773   2.835   2.752   3.434
 2061SOL    HW1 1774   2.881   2.668   3.405
 2061SOL    HW2 1775   2.779   2.786   3.359
 2062SOL     OW 1776   2.853   2.272   3.104
 2062SOL    HW1 1777   2.776   2.306   3.158
 2062SOL    HW2 1778   2.819   2.221   3.025
 2063SOL     OW 1779   2.903   2.563   2.291
 2063SOL    HW1 1780   2.929   2.559   2.387
 2063SOL    HW2 1781   2.818   2.512   2.277
 2064SOL     OW 1782   1.938   2.673   2.651
 2064SOL    HW1 1783   2.037   2.661   2.660
 2064SOL    HW2 1784   1.914   2.768   2.672
 2066SOL     OW 1785   2.727   2.210   2.057
 2066SOL    HW1 1786   2.786   2.273   2.008
 2066SOL    HW2 1787   2.746   2.116   2.028
 2068SOL     OW 1788   3.224   3.006   2.407
 2068SOL    HW1 1789   3.307   2.977   2.359
 2068SOL    HW2 1790   3.175   3.073   2.351
 2069SOL     OW 1791   2.412   2.058   2.747
 2069SOL    HW1 1792   2.407   2.053   2.847
 2069SOL    HW2 1793   2.414   2.154   2.718
 2070SOL     OW 1794   2.870   3.318   2.339
 2070SOL    HW1 1795   2.824   3.390   2.287
 2070SOL    HW2 1796   2.866   3.338   2.437
 2071SOL     OW 1797   2.213   3.663   2.715
 2071SOL    HW1 1798   2.263   3.577   2.721
 2071SOL    HW2 1799   2.278   3.740   2.712
 2072SOL     OW 1800   3.657   2.928   2.735
 2072SOL    HW1 1801   3.595   2.913   2.659
 2072SOL    HW2 1802   3.605   2.939   2.820
 2073SOL     OW 1803   3.089   3.412   3.368
 2073SOL    HW1 1804   3.095   3.335   3.432
 2073SOL    HW2 1805   3.037   3.386   3.288
 2074SOL     OW 1806   2.183   2.805   2.104
 2074SOL    HW1 1807   2.265   2.844   2.062
 2074SOL    HW2 1808   2.156   2.723   2.055
 2075SOL     OW 1809   3.320   2.597   2.590
 2075SOL    HW1 1810   3.315   2.532   2.665
 2075SOL    HW2 1811   3.400   2.656   2.603
 2076SOL     OW 1812   2.323   3.128   3.589
 2076SOL    HW1 1813   2.273   3.129   3.503
 2076SOL    HW2 1814   2.260   3.110   3.665
 2077SOL     OW 1815   2.973   3.638   2.099
 2077SOL    HW1 1816   2.913   3.576   2.149
 2077SOL    HW2 1817   3.004   3.594   2.014
 2078SOL     OW 1818   2.064   2.147   3.360
 2078SOL    HW1 1819   1.984   2.207   3.347
 2078SOL    HW2 1820   2.054   2.098   3.446
 2079SOL     OW 1821   3.494   3.239   1.943
 2079SOL    HW1 1822   3.462   3.333   1.933
 2079SOL    HW2 1823   3.418   3.176   1.931
 2080SOL     OW 1824   2.326   3.605   2.185
 2080SOL    HW1 1825   2.359   3.644   2.271
 2080SOL    HW2 1826   2.402   3.598   2.120
 2081SOL     OW 1827   3.262   1.969   2.288
 2081SOL    HW1 1828   3.238   1.932   2.198
 2081SOL    HW2 1829   3.361   1.985   2.292
 2082SOL     OW 1830   2.111   3.647   3.103
 2082SOL    HW1 1831   2.168   3.582   3.153
 2082SOL    HW2 1832   2.095   3.614   3.010
 2083SOL     OW 1833   2.802   3.560   2.766
 2083SOL    HW1 1834   2.882   3.503   2.787
 2083SOL    HW2 1835   2.753   3.520   2.689
 2084SOL     OW 1836   3.409   2.084   3.591
 2084SOL    HW1 1837   3.404   2.121   3.683
 2084SOL    HW2 1838   3.337   2.015   3.579
 2085SOL     OW 1839   2.476   1.984   1.979
 2085SOL    HW1 1840   2.574   1.962   1.986
 2085SOL    HW2 1841   2.445   1.967   1.886
 2086SOL     OW 1842   2.643   2.126   3.611
 2086SOL    HW1 1843   2.710   2.065   3.654
 2086SOL    HW2 1844   2.570   2.145   3.676
 2087SOL     OW 1845   2.750   3.376   3.057
 2087SOL    HW1 1846   2.727   3.351   2.963
 2087SOL    HW2 1847   2.811   3.307   3.096
 2088SOL     OW 1848   3.213   2.452   3.295
 2088SOL    HW1 1849   3.241   2.409   3.380
 2088SOL    HW2 1850   3.238   2.548   3.296
 2089SOL     OW 1851   2.665   3.264   2.786
 2089SOL    HW1 1852   2.755   3.278   2.744
 2089SOL    HW2 1853   2.594   3.266   2.715
 2090SOL     OW 1854   2.784   2.365   2.761
 2090SOL    HW1 1855   2.759   2.356   2.665
 2090SOL    HW2 1856   2.832   2.283   2.792
 2091SOL     OW 1857   2.401   1.926   2.374
 2091SOL    HW1 1858   2.320   1.927   2.432
 2091SOL    HW2 1859   2.404   2.009   2.319
 2092SOL     OW 1860   3.296   3.050   1.903
 2092SOL    HW1 1861   3.328   2.974   1.960
 2092SOL    HW2 1862   3.204   3.077   1.933
 2093SOL     OW 1863   2.159   1.897   2.033
 2093SOL    HW1 1864   2.208   1.981   2.012
 2093SOL    HW2 1865   2.221   1.832   2.078
 2094SOL     OW 1866   2.797   2.098   2.342
 2094SOL    HW1 1867   2.749   2.139   2.264
 2094SOL    HW2 1868   2.896   2.096   2.323
 2095SOL     OW 1869   2.938   2.545   3.326
 2095SOL    HW1 1870   2.858   2.484   3.329
 2095SOL    HW2 1871   3.019   2.492   3.302
 2096SOL     OW 1872   3.089   3.432   2.655
 2096SOL    HW1 1873   3.110   3.506   2.590
 2096SOL    HW2 1874   3.157   3.432   2.728
 2097SOL     OW 1875   2.321   3.014   2.603
 2097SOL    HW1 1876   2.250   2.987   2.668
 2097SOL    HW2 1877   2.295   2.986   2.510
 2098SOL     OW 1878   3.133   3.659   2.453
 2098SOL    HW1 1879   3.177   3.723   2.389
 2098SOL    HW2 1880   3.083   3.711   2.523
 2099SOL     OW 1881   2.894   2.411   1.878
 2099SOL    HW1 1882   2.853   2.493   1.839
 2099SOL    HW2 1883   2.958   2.437   1.951
 2100SOL     OW 1884   1.940   2.418   3.248
 2100SOL    HW1 1885   2.032   2.417   3.207
 2100SOL    HW2 1886   1.934   2.492   3.315
 2101SOL     OW 1887   2.423   2.084   3.009
 2101SOL    HW1 1888   2.461   2.000   3.046
 2101SOL    HW2 1889   2.335   2.103   3.053
 2102SOL     OW 1890   2.728   2.316   2.504
 2102SOL    HW1 1891   2.696   2.388   2.442
 2102SOL    HW2 1892   2.752   2.235   2.451
 2103SOL     OW 1893   2.879   1.901   2.615
 2103SOL    HW1 1894   2.807   1.906   2.546
 2103SOL    HW2 1895   2.855   1.832   2.684
 2104SOL     OW 1896   3.291   3.035   2.729
 2104SOL    HW1 1897   3.236   2.951   2.722
 2104SOL    HW2 1898   3.317   3.064   2.637
 2105SOL     OW 1899   3.328   2.452   2.854
 2105SOL    HW1 1900   3.298   2.357   2.861
 2105SOL    HW2 1901   3.401   2.468   2.920
 2106SOL     OW 1902   3.719   2.695   2.239
 2106SOL    HW1 1903   3.761   2.631   2.303
 2106SOL    HW2 1904   3.681   2.644   2.161
 2107SOL     OW 1905   2.350   3.247   2.036
 2107SOL    HW1 1906   2.263   3.232   2.083
 2107SOL    HW2 1907   2.333   3.273   1.941
 2108SOL     OW 1908   3.526   3.142   2.519
 2108SOL    HW1 1909   3.625   3.150   2.533
 2108SOL    HW2 1910   3.481   3.226   2.550
 2109SOL     OW 1911   3.252   2.437   1.940
 2109SOL    HW1 1912   3.198   2.416   2.021
 2109SOL    HW2 1913   3.343   2.396   1.949
 2111SOL     OW 1914   2.926   3.209   3.202
 2111SOL    HW1 1915   2.846   3.186   3.257
 2111SOL    HW2 1916   3.009   3.183   3.251
 2113SOL     OW 1917   2.973   3.057   2.962
 2113SOL    HW1 1918   2.933   3.101   3.043
 2113SOL    HW2 1919   2.932   3.094   2.879
 2114SOL     OW 1920   3.500   2.961   2.941
 2114SOL    HW1 1921   3.505   3.042   3.000
 2114SOL    HW2 1922   3.414   2.963   2.890
 2115SOL     OW 1923   2.777   1.951   3.264
 2115SOL    HW1 1924   2.802   1.931   3.169
 2115SOL    HW2 1925   2.849   2.007   3.306
 2116SOL     OW 1926   2.842   2.978   3.581
 2116SOL    HW1 1927   2.743   2.984   3.591
 2116SOL    HW2 1928   2.865   2.898   3.525
 2117SOL     OW 1929   2.567   2.912   2.230
 2117SOL    HW1 1930   2.553   2.919   2.329
 2117SOL    HW2 1931   2.651   2.861   2.212
 2118SOL     OW 1932   2.272   2.675   3.113
 2118SOL    HW1 1933   2.358   2.687   3.163
 2118SOL    HW2 1934   2.230   2.588   3.140
 2119SOL     OW 1935   3.136   2.248   3.124
 2119SOL    HW1 1936   3.157   2.322   3.188
 2119SOL    HW2 1937   3.047   2.265   3.081
 2120SOL     OW 1938   1.926   3.426   3.193
 2120SOL    HW1 1939   1.880   3.508   3.159
 2120SOL    HW2 1940   2.024   3.445   3.202
 2121SOL     OW 1941   2.229   2.962   2.363
 2121SOL    HW1 1942   2.222   3.045   2.307
 2121SOL    HW2 1943   2.233   2.882   2.303
 2122SOL     OW 1944   2.428   2.399   2.727
 2122SOL    HW1 1945   2.440   2.465   2.653
 2122SOL    HW2 1946   2.474   2.433   2.810
 2123SOL     OW 1947   3.114   3.210   2.250
 2123SOL    HW1 1948   3.164   3.287   2.290
 2123SOL    HW2 1949   3.019   3.212   2.282
 2124SOL     OW 1950   3.134   3.307   3.004
 2124SOL    HW1 1951   3.181   3.320   3.091
 2124SOL    HW2 1952   3.068   3.233   3.013
 2125SOL     OW 1953   3.444   2.501   2.334
 2125SOL    HW1 1954   3.413   2.562   2.407
 2125SOL    HW2 1955   3.494   2.553   2.265
 2126SOL     OW 1956   2.216   3.372   3.191
 2126SOL    HW1 1957   2.195   3.328   3.104
 2126SOL    HW2 1958   2.313   3.398   3.194
 2127SOL     OW 1959   2.264   2.613   3.460
 2127SOL    HW1 1960   2.332   2.668   3.413
 2127SOL    HW2 1961   2.304   2.525   3.487
 2128SOL     OW 1962   3.449   2.641   3.532
 2128SOL    HW1 1963   3.357   2.679   3.527
 2128SOL    HW2 1964   3.509   2.688   3.467
 2129SOL     OW 1965   2.875   1.967   3.632
 2129SOL    HW1 1966   2.881   2.052   3.580
 2129SOL    HW2 1967   2.907   1.891   3.575
 2130SOL     OW 1968   2.366   1.912   3.602
 2130SOL    HW1 1969   2.324   1.855   3.532
 2130SOL    HW2 1970   2.300   1.981   3.634
 2131SOL     OW 1971   2.435   2.732   2.891
 2131SOL    HW1 1972   2.479   2.821   2.882
 2131SOL    HW2 1973   2.372   2.732   2.968
 2132SOL     OW 1974   3.222   2.724   2.907
 2132SOL    HW1 1975   3.147   2.724   2.841
 2132SOL    HW2 1976   3.259   2.632   2.916
 2133SOL     OW 1977   3.071   2.387   2.137
 2133SOL    HW1 1978   3.084   2.303   2.191
 2133SOL    HW2 1979   3.042   2.461   2.197
 2134SOL     OW 1980   2.169   2.075   3.093
 2134SOL    HW1 1981   2.146   2.112   3.183
 2134SOL    HW2 1982   2.139   1.980   3.087
 2135SOL     OW 1983   1.899   3.172   3.144
 2135SOL    HW1 1984   1.952   3.123   3.212
 2135SOL    HW2 1985   1.921   3.270   3.149
 2136SOL     OW 1986   2.594   2.496   2.926
 2136SOL    HW1 1987   2.653   2.470   2.850
 2136SOL    HW2 1988   2.566   2.592   2.915
 2138SOL     OW 1989   2.169   1.925   2.480
 2138SOL    HW1 1990   2.158   2.019   2.513
 2138SOL    HW2 1991   2.164   1.862   2.557
 2139SOL     OW 1992   3.484   2.229   2.236
 2139SOL    HW1 1993   3.486   2.153   2.300
 2139SOL    HW2 1994   3.436   2.306   2.276
 2140SOL     OW 1995   2.885   2.628   2.828
 2140SOL    HW1 1996   2.900   2.649   2.924
 2140SOL    HW2 1997   2.855   2.533   2.819
 2141SOL     OW 1998   2.842   3.435   3.562
 2141SOL    HW1 1999   2.822   3.479   3.474
 2141SOL    HW2 2000   2.881   3.344   3.546
 2143SOL     OW 2001   2.212   2.760   3.666
 2143SOL    HW1 2002   2.288   2.804   3.714
 2143SOL    HW2 2003   2.247   2.713   3.584
 2144SOL     OW 2004   3.402   2.136   1.987
 2144SOL    HW1 2005   3.341   2.061   2.010
 2144SOL    HW2 2006   3.424   2.188   2.070
 2145SOL     OW 2007   3.165   2.700   1.904
 2145SOL    HW1 2008   3.199   2.607   1.919
 2145SOL    HW2 2009   3.183   2.727   1.809
 2146SOL     OW 2010   2.930   3.195   2.711
 2146SOL    HW1 2011   2.937   3.111   2.656
 2146SOL    HW2 2012   2.992   3.264   2.675
 2147SOL     OW 2013   2.181   2.672   2.811
 2147SOL    HW1 2014   2.274   2.708   2.816
 2147SOL    HW2 2015   2.175   2.587   2.863
 2148SOL     OW 2016   2.201   2.371   2.868
 2148SOL    HW1 2017   2.149   2.288   2.851
 2148SOL    HW2 2018   2.278   2.376   2.804
 2149SOL     OW 2019   3.000   2.242   3.540
 2149SOL    HW1 2020   2.955   2.305   3.604
 2149SOL    HW2 2021   3.093   2.273   3.523
 2150SOL     OW 2022   3.022   2.069   3.339
 2150SOL    HW1 2023   3.022   2.133   3.416
 2150SOL    HW2 2024   3.050   2.117   3.256
 2151SOL     OW 2025   1.870   3.188   2.062
 2151SOL    HW1 2026   1.777   3.209   2.031
 2151SOL    HW2 2027   1.880   3.089   2.075
 2152SOL     OW 2028   1.950   3.663   2.789
 2152SOL    HW1 2029   1.908   3.577   2.762
 2152SOL    HW2 2030   2.044   3.666   2.755
 2153SOL     OW 2031   2.366   3.430   2.772
 2153SOL    HW1 2032   2.432   3.504   2.781
 2153SOL    HW2 2033   2.410   3.351   2.730
 2154SOL     OW 2034   2.864   2.658   3.100
 2154SOL    HW1 2035   2.905   2.626   3.186
 2154SOL    HW2 2036   2.768   2.631   3.097
 2155SOL     OW 2037   1.902   2.406   2.976
 2155SOL    HW1 2038   1.987   2.373   2.935
 2155SOL    HW2 2039   1.915   2.421   3.074
 2156SOL     OW 2040   2.051   2.382   3.584
 2156SOL    HW1 2041   2.110   2.342   3.514
 2156SOL    HW2 2042   1.993   2.453   3.543
 2157SOL     OW 2043   3.231   2.812   3.522
 2157SOL    HW1 2044   3.270   2.901   3.542
 2157SOL    HW2 2045   3.241   2.792   3.425
 2158SOL     OW 2046   2.677   2.434   2.187
 2158SOL    HW1 2047   2.684   2.345   2.141
 2158SOL    HW2 2048   2.583   2.468   2.179
 2159SOL     OW 2049   3.519   2.466   3.068
 2159SOL    HW1 2050   3.481   2.397   3.130
 2159SOL    HW2 2051   3.601   2.430   3.024
 2160SOL     OW 2052   2.114   3.426   3.606
 2160SOL    HW1 2053   2.084   3.483   3.682
 2160SOL    HW2 2054   2.107   3.329   3.632
 2161SOL     OW 2055   2.533   2.326   3.131
 2161SOL    HW1 2056   2.499   2.237   3.101
 2161SOL    HW2 2057   2.559   2.380   3.051
 2162SOL     OW 2058   2.792   3.540   3.327
 2162SOL    HW1 2059   2.768   3.522   3.232
 2162SOL    HW2 2060   2.822   3.634   3.337
 2163SOL     OW 2061   2.021   2.999   3.328
 2163SOL    HW1 2062   2.043   2.938   3.404
 2163SOL    HW2 2063   2.031   2.950   3.242
 2164SOL     OW 2064   3.209   2.921   3.096
 2164SOL    HW1 2065   3.233   2.858   3.022
 2164SOL    HW2 2066   3.119   2.961   3.078
 2165SOL     OW 2067   3.164   2.717   2.171
 2165SOL    HW1 2068   3.078   2.686   2.213
 2165SOL    HW2 2069   3.160   2.703   2.072
 2167SOL     OW 2070   3.114   3.593   2.990
 2167SOL    HW1 2071   3.198   3.598   2.936
 2167SOL    HW2 2072   3.091   3.497   3.008
 2168SOL     OW 2073   1.945   3.120   2.884
 2168SOL    HW1 2074   1.940   3.119   2.984
 2168SOL    HW2 2075   1.862   3.079   2.846
 2169SOL     OW 2076   2.550   3.524   3.578
 2169SOL    HW1 2077   2.494   3.605   3.587
 2169SOL    HW2 2078   2.602   3.528   3.492
 2170SOL     OW 2079   3.588   1.997   2.385
 2170SOL    HW1 2080   3.661   1.980   2.318
 2170SOL    HW2 2081   3.557   1.910   2.423
 2171SOL     OW 2082   3.250   3.435   2.339
 2171SOL    HW1 2083   3.317   3.447   2.265
 2171SOL    HW2 2084   3.210   3.524   2.362
 2173SOL     OW 2085   3.142   2.789   2.534
 2173SOL    HW1 2086   3.202   2.708   2.536
 2173SOL    HW2 2087   3.182   2.858   2.474
 2174SOL     OW 2088   2.692   3.135   3.284
 2174SOL    HW1 2089   2.687   3.168   3.379
 2174SOL    HW2 2090   2.606   3.154   3.238
 2175SOL     OW 2091   2.534   3.478   2.016
 2175SOL    HW1 2092   2.543   3.488   1.917
 2175SOL    HW2 2093   2.494   3.389   2.037
 2177SOL     OW 2094   3.703   2.037   2.825
 2177SOL    HW1 2095   3.742   1.952   2.789
 2177SOL    HW2 2096   3.605   2.039   2.806
 2178SOL     OW 2097   3.056   3.474   1.893
 2178SOL    HW1 2098   3.062   3.381   1.930
 2178SOL    HW2 2099   2.997   3.474   1.813
 2179SOL     OW 2100   2.684   2.864   3.234
 2179SOL    HW1 2101   2.724   2.863   3.142
 2179SOL    HW2 2102   2.694   2.956   3.274
 2180SOL     OW 2103   2.778   2.772   2.153
 2180SOL    HW1 2104   2.841   2.810   2.085
 2180SOL    HW2 2105   2.818   2.689   2.192
 2181SOL     OW 2106   3.366   3.469   1.906
 2181SOL    HW1 2107   3.274   3.506   1.913
 2181SOL    HW2 2108   3.404   3.489   1.816
 2182SOL     OW 2109   2.234   3.150   3.352
 2182SOL    HW1 2110   2.221   3.243   3.318
 2182SOL    HW2 2111   2.150   3.098   3.339
 2183SOL     OW 2112   3.476   3.154   3.151
 2183SOL    HW1 2113   3.536   3.157   3.231
 2183SOL    HW2 2114   3.401   3.218   3.164
 2184SOL     OW 2115   2.901   2.960   2.558
 2184SOL    HW1 2116   2.831   2.913   2.612
 2184SOL    HW2 2117   2.960   2.892   2.515
 2185SOL     OW 2118   2.876   2.098   2.833
 2185SOL    HW1 2119   2.868   2.062   2.740
 2185SOL    HW2 2120   2.874   2.022   2.898
 2186SOL     OW 2121   2.452   3.349   2.353
 2186SOL    HW1 2122   2.494   3.291   2.283
 2186SOL    HW2 2123   2.408   3.428   2.309
 2187SOL     OW 2124   3.571   2.247   3.243
 2187SOL    HW1 2125   3.644   2.316   3.247
 2187SOL    HW2 2126   3.599   2.172   3.184
 2188SOL     OW 2127   2.117   3.210   2.152
 2188SOL    HW1 2128   2.021   3.211   2.125
 2188SOL    HW2 2129   2.129   3.263   2.236
 2189SOL     OW 2130   1.967   2.875   3.588
 2189SOL    HW1 2131   1.890   2.842   3.642
 2189SOL    HW2 2132   2.052   2.845   3.630
 2190SOL     OW 2133   2.534   2.065   3.351
 2190SOL    HW1 2134   2.624   2.049   3.311
 2190SOL    HW2 2135   2.542   2.070   3.450
 2191SOL     OW 2136   1.937   2.207   1.895
 2191SOL    HW1 2137   1.845   2.179   1.866
 2191SOL    HW2 2138   1.968   2.284   1.839
 2192SOL     OW 2139   3.302   2.718   3.260
 2192SOL    HW1 2140   3.245   2.770   3.197
 2192SOL    HW2 2141   3.398   2.730   3.236
 2193SOL     OW 2142   1.934   2.028   2.180
 2193SOL    HW1 2143   1.917   2.111   2.126
 2193SOL    HW2 2144   2.024   1.991   2.158
 2194SOL     OW 2145   3.045   3.197   1.981
 2194SOL    HW1 2146   2.946   3.186   1.983
 2194SOL    HW2 2147   3.079   3.212   2.074
 2195SOL     OW 2148   2.475   2.704   3.293
 2195SOL    HW1 2149   2.531   2.785   3.276
 2195SOL    HW2 2150   2.534   2.624   3.296
 2196SOL     OW 2151   3.355   3.629   2.821
 2196SOL    HW1 2152   3.388   3.693   2.752
 2196SOL    HW2 2153   3.421   3.623   2.896
 2197SOL     OW 2154   2.578   2.427   3.570
 2197SOL    HW1 2155   2.597   2.492   3.644
 2197SOL    HW2 2156   2.638   2.347   3.579
 2198SOL     OW 2157   3.312   3.082   3.495
 2198SOL    HW1 2158   3.303   3.072   3.594
 2198SOL    HW2 2159   3.408   3.075   3.469
 2199SOL     OW 2160   2.252   3.603   3.422
 2199SOL    HW1 2161   2.161   3.644   3.420
 2199SOL    HW2 2162   2.245   3.509   3.454
 2200SOL     OW 2163   3.536   2.745   3.116
 2200SOL    HW1 2164   3.509   2.656   3.079
 2200SOL    HW2 2165   3.537   2.813   3.043
 2201SOL     OW 2166   3.087   2.187   2.311
 2201SOL    HW1 2167   3.152   2.113   2.300
 2201SOL    HW2 2168   3.107   2.237   2.395
 2202SOL     OW 2169   2.456   2.607   2.514
 2202SOL    HW1 2170   2.506   2.692   2.495
 2202SOL    HW2 2171   2.368   2.609   2.466
 2204SOL     OW 2172   3.592   2.796   3.379
 2204SOL    HW1 2173   3.630   2.887   3.394
 2204SOL    HW2 2174   3.584   2.779   3.280
 2205SOL     OW 2175   2.721   3.236   1.878
 2205SOL    HW1 2176   2.675   3.251   1.966
 2205SOL    HW2 2177   2.765   3.321   1.848
 2206SOL     OW 2178   2.523   3.652   2.815
 2206SOL    HW1 2179   2.477   3.740   2.802
 2206SOL    HW2 2180   2.622   3.664   2.808
 2207SOL     OW 2181   2.721   2.818   2.723
 2207SOL    HW1 2182   2.775   2.749   2.771
 2207SOL    HW2 2183   2.689   2.887   2.789
 2208SOL     OW 2184   2.945   2.846   1.949
 2208SOL    HW1 2185   2.922   2.899   1.867
 2208SOL    HW2 2186   3.026   2.790   1.930
 2210SOL     OW 2187   2.083   3.176   3.706
 2210SOL    HW1 2188   2.018   3.103   3.685
 2210SOL    HW2 2189   2.087   3.190   3.804
 2211SOL     OW 2190   1.941   3.102   2.515
 2211SOL    HW1 2191   1.940   3.055   2.603
 2211SOL    HW2 2192   2.023   3.074   2.464
 2212SOL     OW 2193   2.534   3.253   3.486
 2212SOL    HW1 2194   2.456   3.203   3.524
 2212SOL    HW2 2195   2.531   3.348   3.517
 2213SOL     OW 2196   3.686   2.054   3.089
 2213SOL    HW1 2197   3.682   1.964   3.133
 2213SOL    HW2 2198   3.689   2.043   2.990
 2214SOL     OW 2199   3.567   3.349   2.966
 2214SOL    HW1 2200   3.474   3.324   2.939
 2214SOL    HW2 2201   3.593   3.299   3.048
 2215SOL     OW 2202   2.179   2.409   3.142
 2215SOL    HW1 2203   2.217   2.350   3.214
 2215SOL    HW2 2204   2.219   2.383   3.054
 2216SOL     OW 2205   2.674   3.448   2.549
 2216SOL    HW1 2206   2.706   3.458   2.455
 2216SOL    HW2 2207   2.595   3.386   2.551
 2217SOL     OW 2208   3.286   2.076   2.974
 2217SOL    HW1 2209   3.338   2.011   3.029
 2217SOL    HW2 2210   3.237   2.139   3.035
 2218SOL     OW 2211   2.863   1.896   3.016
 2218SOL    HW1 2212   2.800   1.824   2.985
 2218SOL    HW2 2213   2.956   1.860   3.016
 2219SOL     OW 2214   2.632   3.192   2.163
 2219SOL    HW1 2215   2.586   3.105   2.180
 2219SOL    HW2 2216   2.723   3.189   2.204
 2220SOL     OW 2217   2.480   3.429   3.146
 2220SOL    HW1 2218   2.475   3.511   3.203
 2220SOL    HW2 2219   2.569   3.426   3.101
 2221SOL     OW 2220   3.214   1.914   2.030
 2221SOL    HW1 2221   3.249   1.873   1.946
 2221SOL    HW2 2222   3.124   1.876   2.050
 2222SOL     OW 2223   3.162   2.315   2.553
 2222SOL    HW1 2224   3.103   2.395   2.557
 2222SOL    HW2 2225   3.177   2.280   2.646
 2223SOL     OW 2226   3.455   2.083   2.744
 2223SOL    HW1 2227   3.371   2.082   2.798
 2223SOL    HW2 2228   3.457   2.166   2.688
 2224SOL     OW 2229   1.901   2.939   2.162
 2224SOL    HW1 2230   2.000   2.928   2.153
 2224SOL    HW2 2231   1.861   2.853   2.194
 2225SOL     OW 2232   2.737   3.508   2.199
 2225SOL    HW1 2233   2.660   3.473   2.145
 2225SOL    HW2 2234   2.705   3.579   2.261
 2226SOL     OW 2235   2.092   2.490   3.837
 2226SOL    HW1 2236   1.999   2.488   3.874
 2226SOL    HW2 2237   2.093   2.451   3.745
 2236SOL     OW 2238   2.468   2.826   3.847
 2236SOL    HW1 2239   2.475   2.910   3.793
 2236SOL    HW2 2240   2.514   2.839   3.935
 2246SOL     OW 2241   2.460   2.591   3.994
 2246SOL    HW1 2242   2.484   2.660   3.926
 2246SOL    HW2 2243   2.382   2.624   4.048
 2251SOL     OW 2244   2.727   2.210   3.919
 2251SOL    HW1 2245   2.786   2.273   3.870
 2251SOL    HW2 2246   2.746   2.116   3.890
 2256SOL     OW 2247   2.183   2.805   3.966
 2256SOL    HW1 2248   2.265   2.844   3.924
 2256SOL    HW2 2249   2.156   2.723   3.917
 2264SOL     OW 2250   2.476   1.984   3.841
 2264SOL    HW1 2251   2.574   1.962   3.848
 2264SOL    HW2 2252   2.445   1.967   3.748
 2267SOL     OW 2253   2.159   1.897   3.895
 2267SOL    HW1 2254   2.208   1.981   3.874
 2267SOL    HW2 2255   2.221   1.832   3.940
 2271SOL     OW 2256   2.894   2.411   3.740
 2271SOL    HW1 2257   2.853   2.493   3.701
 2271SOL    HW2 2258   2.958   2.437   3.813
 2277SOL     OW 2259   3.252   2.437   3.802
 2277SOL    HW1 2260   3.198   2.416   3.883
 2277SOL    HW2 2261   3.343   2.396   3.811
 2278SOL     OW 2262   2.389   2.118   4.052
 2278SOL    HW1 2263   2.416   2.059   3.977
 2278SOL    HW2 2264   2.389   2.213   4.021
 2288SOL     OW 2265   3.165   2.700   3.766
 2288SOL    HW1 2266   3.199   2.607   3.781
 2288SOL    HW2 2267   3.183   2.727   3.671
 2290SOL     OW 2268   2.677   2.434   4.049
 2290SOL    HW1 2269   2.684   2.345   4.003
 2290SOL    HW2 2270   2.583   2.468   4.041
 2291SOL     OW 2271   2.335   2.362   3.915
 2291SOL    HW1 2272   2.396   2.442   3.919
 2291SOL    HW2 2273   2.240   2.393   3.922
 2305SOL     OW 2274   1.937   2.207   3.757
 2305SOL    HW1 2275   1.845   2.179   3.728
 2305SOL    HW2 2276   1.968   2.284   3.701
 2310SOL     OW 2277   2.721   3.236   3.740
 2310SOL    HW1 2278   2.675   3.251   3.828
 2310SOL    HW2 2279   2.765   3.321   3.710
 2313SOL     OW 2280   2.945   2.846   3.811
 2313SOL    HW1 2281   2.922   2.899   3.729
 2313SOL    HW2 2282   3.026   2.790   3.792
 2335SOL     OW 2283   2.179   3.975   1.801
 2335SOL    HW1 2284   2.250   4.046   1.807
 2335SOL    HW2 2285   2.091   4.014   1.829
 2373SOL     OW 2286   2.875   3.829   1.770
 2373SOL    HW1 2287   2.881   3.914   1.718
 2373SOL    HW2 2288   2.907   3.753   1.713
 2374SOL     OW 2289   2.366   3.774   1.740
 2374SOL    HW1 2290   2.324   3.717   1.670
 2374SOL    HW2 2291   2.300   3.843   1.772
 2431SOL     OW 2292   2.671   3.728   2.364
 2431SOL    HW1 2293   2.711   3.819   2.355
 2431SOL    HW2 2294   2.571   3.736   2.370
 2441SOL     OW 2295   2.412   3.920   2.747
 2441SOL    HW1 2296   2.407   3.915   2.847
 2441SOL    HW2 2297   2.414   4.016   2.718
 2447SOL     OW 2298   2.476   3.846   1.979
 2447SOL    HW1 2299   2.574   3.824   1.986
 2447SOL    HW2 2300   2.445   3.829   1.886
 2451SOL     OW 2301   2.401   3.788   2.374
 2451SOL    HW1 2302   2.320   3.789   2.432
 2451SOL    HW2 2303   2.404   3.871   2.319
 2452SOL     OW 2304   2.159   3.759   2.033
 2452SOL    HW1 2305   2.208   3.843   2.012
 2452SOL    HW2 2306   2.221   3.694   2.078
 2453SOL     OW 2307   2.797   3.960   2.342
 2453SOL    HW1 2308   2.749   4.001   2.264
 2453SOL    HW2 2309   2.896   3.958   2.323
 2459SOL     OW 2310   2.879   3.763   2.615
 2459SOL    HW1 2311   2.807   3.768   2.546
 2459SOL    HW2 2312   2.855   3.694   2.684
 2463SOL     OW 2313   2.389   3.980   2.190
 2463SOL    HW1 2314   2.416   3.921   2.115
 2463SOL    HW2 2315   2.389   4.075   2.159
 2478SOL     OW 2316   2.169   3.787   2.480
 2478SOL    HW1 2317   2.158   3.881   2.513
 2478SOL    HW2 2318   2.164   3.724   2.557
 2494SOL     OW 2319   2.125   4.050   2.582
 2494SOL    HW1 2320   2.046   4.101   2.548
 2494SOL    HW2 2321   2.116   4.035   2.680
 2502SOL     OW 2322   1.934   3.890   2.180
 2502SOL    HW1 2323   1.917   3.973   2.126
 2502SOL    HW2 2324   2.024   3.853   2.158
 2513SOL     OW 2325   2.863   3.758   3.016
 2513SOL    HW1 2326   2.800   3.686   2.985
 2513SOL    HW2 2327   2.956   3.722   3.016
 2514SOL     OW 2328   3.214   3.776   2.030
 2514SOL    HW1 2329   3.249   3.735   1.946
 2514SOL    HW2 2330   3.124   3.738   2.050
 2587SOL     OW 2331   3.854   1.821   1.571
 2587SOL    HW1 2332   3.844   1.806   1.670
 2587SOL    HW2 2333   3.768   1.857   1.535
 2635SOL     OW 2334   3.854   1.794   1.851
 2635SOL    HW1 2335   3.813   1.720   1.904
 2635SOL    HW2 2336   3.918   1.845   1.909
 2669SOL     OW 2337   3.955   1.713   2.345
 2669SOL    HW1 2338   3.989   1.790   2.399
 2669SOL    HW2 2339   3.999   1.713   2.255
 2675SOL     OW 2340   3.751   1.596   1.979
 2675SOL    HW1 2341   3.732   1.500   2.000
 2675SOL    HW2 2342   3.718   1.654   2.054
 2719SOL     OW 2343   3.732   1.326   2.062
 2719SOL    HW1 2344   3.639   1.347   2.031
 2719SOL    HW2 2345   3.742   1.227   2.075
 2720SOL     OW 2346   3.812   1.801   2.789
 2720SOL    HW1 2347   3.770   1.715   2.762
 2720SOL    HW2 2348   3.906   1.804   2.755
 2816SOL     OW 2349   3.837   2.599   1.597
 2816SOL    HW1 2350   3.925   2.586   1.642
 2816SOL    HW2 2351   3.824   2.696   1.575
 2837SOL     OW 2352   3.802   2.418   1.386
 2837SOL    HW1 2353   3.894   2.417   1.345
 2837SOL    HW2 2354   3.796   2.492   1.453
 2862SOL     OW 2355   3.913   2.382   1.722
 2862SOL    HW1 2356   3.972   2.342   1.652
 2862SOL    HW2 2357   3.855   2.453   1.681
 2878SOL     OW 2358   3.829   2.875   1.726
 2878SOL    HW1 2359   3.752   2.842   1.780
 2878SOL    HW2 2360   3.914   2.845   1.768
 2895SOL     OW 2361   3.954   2.490   1.975
 2895SOL    HW1 2362   3.861   2.488   2.012
 2895SOL    HW2 2363   3.955   2.451   1.883
 2896SOL     OW 2364   3.949   2.137   2.858
 2896SOL    HW1 2365   3.984   2.120   2.950
 2896SOL    HW2 2366   3.861   2.092   2.846
 2897SOL     OW 2367   3.743   2.230   2.509
 2897SOL    HW1 2368   3.661   2.273   2.548
 2897SOL    HW2 2369   3.715   2.157   2.446
 2909SOL     OW 2370   3.846   2.505   2.425
 2909SOL    HW1 2371   3.801   2.417   2.442
 2909SOL    HW2 2372   3.845   2.559   2.509
 2917SOL     OW 2373   3.800   2.673   2.651
 2917SOL    HW1 2374   3.899   2.661   2.660
 2917SOL    HW2 2375   3.776   2.768   2.672
 2931SOL     OW 2376   4.021   1.897   2.033
 2931SOL    HW1 2377   4.070   1.981   2.012
 2931SOL    HW2 2378   4.083   1.832   2.078
 2933SOL     OW 2379   3.802   2.418   3.248
 2933SOL    HW1 2380   3.894   2.417   3.207
 2933SOL    HW2 2381   3.796   2.492   3.315
 2949SOL     OW 2382   4.031   1.925   2.480
 2949SOL    HW1 2383   4.020   2.019   2.513
 2949SOL    HW2 2384   4.026   1.862   2.557
 2954SOL     OW 2385   3.732   3.188   2.062
 2954SOL    HW1 2386   3.639   3.209   2.031
 2954SOL    HW2 2387   3.742   3.089   2.075
 2957SOL     OW 2388   3.764   2.406   2.976
 2957SOL    HW1 2389   3.849   2.373   2.935
 2957SOL    HW2 2390   3.777   2.421   3.074
 2969SOL     OW 2391   3.987   2.188   2.582
 2969SOL    HW1 2392   3.908   2.239   2.548
 2969SOL    HW2 2393   3.978   2.173   2.680
 2976SOL     OW 2394   3.799   2.207   1.895
 2976SOL    HW1 2395   3.707   2.179   1.866
 2976SOL    HW2 2396   3.830   2.284   1.839
 2977SOL     OW 2397   3.796   2.028   2.180
 2977SOL    HW1 2398   3.779   2.111   2.126
 2977SOL    HW2 2399   3.886   1.991   2.158
 2984SOL     OW 2400   3.803   3.102   2.515
 2984SOL    HW1 2401   3.802   3.055   2.603
 2984SOL    HW2 2402   3.885   3.074   2.464
 2990SOL     OW 2403   3.763   2.939   2.162
 2990SOL    HW1 2404   3.862   2.928   2.153
 2990SOL    HW2 2405   3.723   2.853   2.194
   4.59230   4.59230   4.59230
